mol only system in water
 8400
    1HK4    H28    1   1.602   0.962   0.912 -0.0935  0.8795 -2.1573
    1HK4    C48    2   1.565   0.879   0.852 -0.2814 -0.6983  0.0954
    1HK4    C47    3   1.655   0.809   0.773  0.4154  0.1398  0.1445
    1HK4    H27    4   1.754   0.855   0.756  0.1277  0.7999  0.2091
    1HK4    C46    5   1.603   0.717   0.683 -0.0655  0.7587 -0.2231
    1HK4    H26    6   1.671   0.651   0.626 -0.6826 -1.3389  1.4088
    1HK4    C40    7   1.466   0.692   0.663 -0.0722  0.4028  0.2488
    1HK4    C50    8   1.380   0.777   0.734 -0.1836  0.1441  0.4249
    1HK4    H30    9   1.289   0.809   0.682  0.0209 -1.4218 -0.9314
    1HK4    C49   10   1.428   0.864   0.832 -0.4450  0.2607  0.4502
    1HK4    H29   11   1.359   0.911   0.903 -1.5197 -2.9277  1.6263
    1HK4     N2   12   1.416   0.578   0.598  0.8796  0.0381  0.1451
    1HK4    C30   13   1.487   0.492   0.512  0.5931 -0.0398 -0.0147
    1HK4    C29   14   1.582   0.519   0.415  0.2832 -0.0542 -0.3216
    1HK4    H15   15   1.626   0.619   0.413  0.3270 -0.0455  0.7445
    1HK4    C28   16   1.626   0.427   0.321 -0.4624 -0.3432 -0.3913
    1HK4    C27   17   1.581   0.293   0.332 -0.2049 -0.4185 -0.2413
    1HK4    H14   18   1.638   0.211   0.286 -1.1184 -0.0857 -2.0226
    1HK4    C32   19   1.478   0.267   0.421  0.2890  0.1639  0.5182
    1HK4    H16   20   1.474   0.165   0.461 -0.7619 -0.2575 -0.6285
    1HK4    C31   21   1.418   0.365   0.499  0.1275  0.1707  0.3862
    1HK4    C34   22   1.287   0.382   0.560 -0.0946  0.0717 -0.0590
    1HK4    C33   23   1.299   0.507   0.633  0.7809  0.0520 -0.1619
    1HK4    C35   24   1.183   0.552   0.694  0.7271 -0.2102 -0.0678
    1HK4    H17   25   1.192   0.608   0.788  1.5745 -1.5900  0.6848
    1HK4    C36   26   1.058   0.498   0.668  0.6603 -0.2428  0.3128
    1HK4    H18   27   0.969   0.534   0.721 -0.6517 -1.3252 -1.1155
    1HK4    C37   28   1.048   0.383   0.591  0.4669  0.1702 -0.2809
    1HK4    H19   29   0.954   0.361   0.540  0.7924  2.2633 -1.8785
    1HK4    C38   30   1.163   0.324   0.538  0.1611 -0.3825 -0.3312
    1HK4    H20   31   1.152   0.225   0.494  0.9980 -0.3958 -0.5192
    1HK4    C14   32   1.662   0.482   0.190  0.5445  0.2187  0.1181
    1HK4     C9   33   1.618   0.428   0.069  0.0297  0.5295  0.1677
    1HK4     C8   34   1.699   0.432  11.202 -0.2450  0.7156 -0.0203
    1HK4    C11   35   1.820   0.497  11.221  0.1287  0.0940 -0.2821
    1HK4     H4   36   1.903   0.477  11.152  0.6512  3.0052 -0.5406
    1HK4    C12   37   1.869   0.553   0.091  0.0789 -0.1427 -0.1474
    1HK4     H5   38   1.963   0.609   0.100  0.5664 -0.7701 -1.1355
    1HK4    C13   39   1.788   0.545   0.203 -0.1061  1.5963 -0.1488
    1HK4     H6   40   1.817   0.593   0.298 -0.0839  1.2335  0.0278
    1HK4     C7   41   1.648   0.394  11.068 -0.0239  0.5913 -0.0682
    1HK4     O2   42   1.724   0.394  10.971 -0.0817 -0.2542 -0.1110
    1HK4     C4   43   1.507   0.351  11.060  0.0987  0.1856 -0.0322
    1HK4     C3   44   1.451   0.327  10.935  0.3833  0.1397 -0.1531
    1HK4     H3   45   1.502   0.368  10.846  0.3175  0.3663 -0.0825
    1HK4     C2   46   1.329   0.262  10.921  0.5026 -0.2229  0.5082
    1HK4     H2   47   1.268   0.279  10.831  0.8558  0.5886  0.4151
    1HK4     C1   48   1.276   0.200  11.034 -0.6754  0.0108  0.0883
    1HK4     H1   49   1.182   0.145  11.016  0.0465 -0.7970 -1.3552
    1HK4     C6   50   1.330   0.214  11.163 -0.6039  0.4744  0.0086
    1HK4     C5   51   1.437   0.304  11.174 -0.0689 -0.1280 -0.2629
    1HK4    C10   52   1.480   0.373   0.051 -0.0521  1.0815 -0.9260
    1HK4     O1   53   1.393   0.424   0.120 -0.2992 -0.5555 -0.0092
    1HK4    C16   54   1.278   0.127   0.021 -0.3400  0.1939 -0.0943
    1HK4    C15   55   1.343   0.110   0.145 -0.3466 -0.2358 -0.1470
    1HK4     H7   56   1.445   0.150   0.149 -0.2114 -0.7000  1.3202
    1HK4    C20   57   1.300   0.034   0.253 -0.4320  0.6782  0.4789
    1HK4     H9   58   1.348   0.042   0.350  1.9404 -1.3498 -0.4834
    1HK4    C19   59   1.171  11.229   0.250 -0.1943  0.1003  0.2123
    1HK4    C18   60   1.110  11.228   0.119  0.1339  0.4446  0.0565
    1HK4    C17   61   1.159   0.056   0.013 -0.4649  0.4201 -0.2429
    1HK4     H8   62   1.082   0.099  11.197 -0.4891  0.2247 -0.3442
    1HK4     N1   63   0.979  11.176   0.128  0.5060 -0.5041  0.0424
    1HK4    C21   64   0.951  11.151   0.264  0.1114  0.1794  0.0903
    1HK4    C22   65   1.072  11.174   0.341 -0.0866  0.2025  0.3944
    1HK4    C26   66   1.064  11.151   0.478  0.0310 -0.1874  0.3386
    1HK4    H13   67   1.148  11.180   0.540 -0.5027  2.5310 -0.1117
    1HK4    C25   68   0.955  11.092   0.540 -0.3555  0.1220 -0.0369
    1HK4    H12   69   0.962  11.042   0.636  0.6514 -1.9231 -1.1406
    1HK4    C24   70   0.842  11.070   0.460 -0.1756 -0.6170 -0.0931
    1HK4    H11   71   0.751  11.075   0.522 -0.2046  2.0069 -0.2998
    1HK4    C23   72   0.836  11.104   0.326  0.1388  0.0824  0.0690
    1HK4    H10   73   0.749  11.084   0.264  0.7549  0.8947 -1.0826
    1HK4    C39   74   0.898  11.132   0.022 -0.1333  0.8447 -0.0493
    1HK4    C41   75   0.758  11.137   0.015 -0.1679 -0.0296 -0.0525
    1HK4    H21   76   0.697  11.206   0.075 -3.6170 -1.1477 -2.1170
    1HK4    C42   77   0.693  11.089  11.150 -0.0555  0.1210 -0.1806
    1HK4    H22   78   0.584  11.104  11.139 -0.2539 -0.6117  0.7882
    1HK4    C43   79   0.756  11.026  11.044  0.1771 -0.0351  0.0489
    1HK4    H23   80   0.703  11.003  10.952  1.6004 -0.7770 -0.6136
    1HK4    C44   81   0.893  11.005  11.054  0.1716 -0.0583  0.0729
    1HK4    H24   82   0.946  10.940  10.983  0.1604 -0.1231  0.1243
    1HK4    C45   83   0.958  11.067  11.160 -0.3203  0.7206 -0.0755
    1HK4    H25   84   1.067  11.053  11.169 -0.4330 -0.2312 -0.1364
    2HK4    H28   85  10.912   0.299   0.046  0.5786 -4.3717  0.8157
    2HK4    C48   86  11.009   0.330   0.084 -0.3035 -0.2685 -0.1031
    2HK4    C47   87  11.015   0.400   0.204  0.0625  0.3297 -0.4667
    2HK4    H27   88  10.947   0.380   0.288  0.3045  1.4832  0.0171
    2HK4    C46   89  11.129   0.468   0.245  0.6191 -0.9777  0.1971
    2HK4    H26   90  11.138   0.519   0.342 -0.4329 -0.9920  0.3031
    2HK4    C40   91  11.241   0.479   0.159  0.0846  0.0488 -0.3761
    2HK4    C50   92  11.231   0.409   0.037 -0.0050 -0.2370 -0.2059
    2HK4    H30   93   0.072   0.400  11.221 -1.8108 -1.2472 -2.6759
    2HK4    C49   94  11.120   0.333   0.001 -0.3353  0.2018 -0.1279
    2HK4    H29   95  11.138   0.261  11.168 -0.8786  1.5477 -1.4751
    2HK4     N2   96   0.114   0.525   0.213  0.1437 -0.2213 -0.2800
    2HK4    C30   97   0.210   0.585   0.129  0.2058 -0.3249 -0.2831
    2HK4    C29   98   0.189   0.669   0.020 -0.0487 -0.7091 -0.5317
    2HK4    H15   99   0.089   0.684  11.229  0.9647  3.1625 -1.8358
    2HK4    C28  100   0.296   0.703  11.186 -0.0428  0.1685 -0.1657
    2HK4    C27  101   0.427   0.676  11.233 -0.2123 -0.2902  0.0425
    2HK4    H14  102   0.508   0.726  11.177  0.0804 -0.0419  0.6955
    2HK4    C32  103   0.455   0.598   0.096  0.6075  0.3198  0.2612
    2HK4    H16  104   0.560   0.587   0.125  0.0596 -1.1253  1.7354
    2HK4    C31  105   0.346   0.558   0.172  0.2990  0.1795 -0.2568
    2HK4    C34  106   0.329   0.496   0.302  0.6260  0.2636 -0.1729
    2HK4    C33  107   0.186   0.489   0.328  0.5793 -0.3460 -0.5913
    2HK4    C35  108   0.137   0.451   0.452  0.2393 -0.0576 -0.6372
    2HK4    H17  109   0.034   0.458   0.487  0.0726  1.6490 -1.4274
    2HK4    C36  110   0.236   0.401   0.536  0.0937  0.1435 -0.3427
    2HK4    H18  111   0.199   0.380   0.637  0.4946 -1.2541 -0.4755
    2HK4    C37  112   0.374   0.395   0.516  0.2691  0.7018  0.6561
    2HK4    H19  113   0.447   0.341   0.577 -1.3584 -0.3533  1.7158
    2HK4    C38  114   0.419   0.449   0.396  0.0403 -0.5248  0.0043
    2HK4    H20  115   0.523   0.477   0.380 -0.1259  0.7289  1.0133
    2HK4    C14  116   0.277   0.743  11.046 -0.1300 -0.1560 -0.2486
    2HK4     C9  117   0.361   0.716  10.937 -0.2592 -0.1512 -0.3490
    2HK4     C8  118   0.371   0.795  10.821  0.0514 -0.0958 -0.2852
    2HK4    C11  119   0.296   0.911  10.810  0.6050  0.3533  0.6009
    2HK4     H4  120   0.323   1.003  10.757 -3.0873  0.5318 -1.1539
    2HK4    C12  121   0.198   0.928  10.908  0.3246  0.2015  0.3499
    2HK4     H5  122   0.124   1.007  10.891  0.2923 -0.1732 -1.3365
    2HK4    C13  123   0.188   0.850  11.023  0.1584  0.2103  0.3417
    2HK4     H6  124   0.109   0.867  11.098  0.7148  2.3218  0.4951
    2HK4     C7  125   0.490   0.779  10.733  0.4072  0.2953  0.1248
    2HK4     O2  126   0.486   0.823  10.618 -0.0791  0.2197  0.1106
    2HK4     C4  127   0.602   0.690  10.771  0.0987 -0.2551 -0.2406
    2HK4     C3  128   0.723   0.706  10.703 -0.0470  0.0183 -0.4410
    2HK4     H3  129   0.734   0.788  10.631 -0.3913  0.2003 -0.2879
    2HK4     C2  130   0.825   0.615  10.725 -0.3332 -0.1172  0.3476
    2HK4     H2  131   0.921   0.623  10.671 -1.4635  2.2955 -1.3519
    2HK4     C1  132   0.814   0.517  10.824  0.5307 -0.2074  0.3607
    2HK4     H1  133   0.888   0.437  10.841  0.8035  0.0909  0.5887
    2HK4     C6  134   0.693   0.505  10.894  0.2756  0.0764 -0.0299
    2HK4     C5  135   0.584   0.589  10.867 -0.0228 -0.4537 -0.4749
    2HK4    C10  136   0.453   0.599  10.937  0.0828  0.1176 -0.3631
    2HK4     O1  137   0.397   0.491  10.957 -0.0274  0.2514  0.0515
    2HK4    C16  138   0.710   0.436  11.023  0.1476 -0.0421 -0.0726
    2HK4    C15  139   0.830   0.455  11.096 -0.0160  0.0209  0.1778
    2HK4     H7  140   0.910   0.525  11.070 -0.1445  1.2305  2.8856
    2HK4    C20  141   0.847   0.380  11.212  0.3482  0.0494  0.1442
    2HK4     H9  142   0.943   0.384   0.014 -0.8365  2.8354  2.3470
    2HK4    C19  143   0.744   0.309   0.023  0.0246  0.4533  0.0742
    2HK4    C18  144   0.620   0.289  11.199  0.1943  0.1018 -0.1206
    2HK4    C17  145   0.614   0.349  11.074 -0.0945  0.2499 -0.0375
    2HK4     H8  146   0.551   0.297  11.002 -1.2096 -0.8230  1.6950
    2HK4     N1  147   0.518   0.229   0.028  0.0908  0.2052 -0.1797
    2HK4    C21  148   0.577   0.201   0.153  0.3592  0.1760 -0.3135
    2HK4    C22  149   0.718   0.236   0.146  0.5593 -0.6565 -0.4644
    2HK4    C26  150   0.795   0.207   0.258  0.0595 -0.5765 -0.0996
    2HK4    H13  151   0.886   0.266   0.266  1.3258 -2.6694  1.1224
    2HK4    C25  152   0.738   0.148   0.370 -0.9129  0.3202 -0.1088
    2HK4    H12  153   0.795   0.125   0.460 -0.8455 -1.3891 -0.5711
    2HK4    C24  154   0.603   0.115   0.375 -0.7005 -0.5573 -0.0068
    2HK4    H11  155   0.562   0.071   0.467  3.0101 -0.8773  1.5608
    2HK4    C23  156   0.522   0.142   0.266  0.2379 -0.3822 -0.6653
    2HK4    H10  157   0.414   0.134   0.280  0.0635  0.3782 -1.5016
    2HK4    C39  158   0.387   0.197  11.236  0.0512 -0.0211  0.1365
    2HK4    C41  159   0.279   0.202   0.078  0.3565 -0.3183  0.5239
    2HK4    H21  160   0.289   0.257   0.172  1.3593  0.7745 -0.2054
    2HK4    C42  161   0.157   0.142   0.045  0.1255  0.6681 -0.4430
    2HK4    H22  162   0.072   0.159   0.113  0.0761 -1.2988  0.0041
    2HK4    C43  163   0.136   0.080  11.171  0.3460 -0.1868 -0.0515
    2HK4    H23  164   0.040   0.032  11.155  1.1192 -1.9030  0.3890
    2HK4    C44  165   0.241   0.076  11.079 -0.0722  0.6637 -0.5751
    2HK4    H24  166   0.217   0.020  10.987 -0.1948 -2.5913  1.3289
    2HK4    C45  167   0.362   0.136  11.112 -0.2833  0.9175 -0.2592
    2HK4    H25  168   0.444   0.116  11.042 -0.5367  1.6399 -0.7656
    3HK4    H28  169  11.068  10.369   0.589  1.6209 -0.3660 -0.8125
    3HK4    C48  170  11.109  10.443   0.659 -0.6058 -0.3633  0.5083
    3HK4    C47  171  11.241  10.441   0.703 -0.3107 -0.2335 -0.3685
    3HK4    H27  172   0.060  10.361   0.667 -1.6350 -0.8113 -1.6112
    3HK4    C46  173   0.041  10.554   0.766 -0.3573 -0.1455 -0.4858
    3HK4    H26  174   0.144  10.554   0.807 -0.4250 -2.6593 -0.2376
    3HK4    C40  175  11.214  10.672   0.784  0.0610  0.0167  0.2368
    3HK4    C50  176  11.080  10.669   0.740 -0.1357  0.5155  0.8033
    3HK4    H30  177  11.027  10.765   0.728 -0.3459  0.1454 -1.4624
    3HK4    C49  178  11.028  10.552   0.686  0.6147  0.8498 -0.6791
    3HK4    H29  179  10.928  10.545   0.640  0.1010 -0.0625  0.5232
    3HK4     N2  180   0.022  10.795   0.820  0.2074 -0.0827  0.3497
    3HK4    C30  181   0.158  10.835   0.822  0.1641  0.0571  0.4217
    3HK4    C29  182   0.260  10.783   0.744  0.1419  0.1081  0.3585
    3HK4    H15  183   0.240  10.697   0.680 -0.7351  1.6601 -1.4762
    3HK4    C28  184   0.388  10.836   0.754  0.2339 -0.1207  0.4274
    3HK4    C27  185   0.402  10.949   0.837  0.4961  0.0412  0.1623
    3HK4    H14  186   0.489  11.013   0.814  0.6599 -0.9369 -1.9991
    3HK4    C32  187   0.305  11.005   0.919  0.5789  0.4267 -0.0006
    3HK4    H16  188   0.330  11.081   0.993  0.2406  0.8090 -0.2747
    3HK4    C31  189   0.179  10.945   0.914  0.7501  0.0419  0.3031
    3HK4    C34  190   0.049  10.974   0.970  0.5971 -0.2530  0.0977
    3HK4    C33  191  11.203  10.882   0.908  0.2556 -0.1297  0.4336
    3HK4    C35  192  11.071  10.897   0.950  0.1368 -0.3254  0.1262
    3HK4    H17  193  10.999  10.818   0.930 -1.6038  0.9756  1.1910
    3HK4    C36  194  11.029  10.999   1.033  0.3456  0.1717 -0.3714
    3HK4    H18  195  10.921  11.009   1.053  0.1038  0.1659 -1.6655
    3HK4    C37  196  11.121  11.084   1.094  0.5619 -0.4610  0.1827
    3HK4    H19  197  11.080  11.168   1.149  0.0127 -0.8337  0.3467
    3HK4    C38  198   0.008  11.069   1.063  0.5458 -0.1223 -0.0565
    3HK4    H20  199   0.080  11.121   1.125 -1.5172 -0.6387  2.9234
    3HK4    C14  200   0.507  10.752   0.735 -0.2858 -0.7617  0.0153
    3HK4     C9  201   0.625  10.759   0.809 -0.1185 -0.3481 -0.2909
    3HK4     C8  202   0.752  10.753   0.748  0.2175  0.7197  0.2758
    3HK4    C11  203   0.761  10.734   0.611 -0.0722 -0.3856  0.4039
    3HK4     H4  204   0.856  10.742   0.557 -0.5071 -1.2509 -0.5163
    3HK4    C12  205   0.644  10.719   0.536 -0.0242 -0.3099  0.3136
    3HK4     H5  206   0.647  10.697   0.429  1.6598  0.8407  0.1068
    3HK4    C13  207   0.519  10.725   0.597 -0.2319  0.0636 -0.1451
    3HK4     H6  208   0.432  10.739   0.531  0.6605 -0.2722 -1.4148
    3HK4     C7  209   0.875  10.770   0.828  0.3733 -0.3693  0.2815
    3HK4     O2  210   0.986  10.743   0.782  0.0786 -0.5819 -0.3068
    3HK4     C4  211   0.864  10.820   0.967 -0.5589  0.4969 -0.1005
    3HK4     C3  212   0.979  10.864   1.031 -0.3341 -0.1193 -0.0855
    3HK4     H3  213   1.081  10.846   0.994  1.1469  1.5932  2.9307
    3HK4     C2  214   0.970  10.941   1.147  0.5179 -0.2465  0.0652
    3HK4     H2  215   1.063  10.971   1.197  1.5276 -0.0844 -1.8458
    3HK4     C1  216   0.843  10.963   1.198  0.6185 -0.1448  0.2678
    3HK4     H1  217   0.842  11.021   1.292 -0.2422  0.4469 -0.0976
    3HK4     C6  218   0.725  10.909   1.145  0.4203  0.9424 -0.4147
    3HK4     C5  219   0.738  10.832   1.029 -0.4888 -0.0669  0.1475
    3HK4    C10  220   0.620  10.775   0.957 -0.2044 -0.0715 -0.3221
    3HK4     O1  221   0.543  10.697   1.014 -0.5179  0.2941 -0.2446
    3HK4    C16  222   0.600  10.981   1.173  0.2125  0.2548  0.4593
    3HK4    C15  223   0.600  11.122   1.173  0.0075  0.2558  0.1235
    3HK4     H7  224   0.686  11.167   1.122  0.9488 -0.6280  0.9173
    3HK4    C20  225   0.496  11.196   1.229 -0.2684 -0.1576  0.1648
    3HK4     H9  226   0.514   0.055   1.245 -0.4167 -0.4737  2.6878
    3HK4    C19  227   0.387  11.132   1.285 -0.1710 -0.4663  0.0007
    3HK4    C18  228   0.378  10.987   1.276 -0.5290 -0.4521  0.0847
    3HK4    C17  229   0.489  10.919   1.227 -0.4284  0.3146 -0.7663
    3HK4     H8  230   0.488  10.812   1.249 -0.8644  0.5162  0.2649
    3HK4     N1  231   0.277  10.936   1.360 -0.1961 -0.0722  0.7177
    3HK4    C21  232   0.224  11.049   1.427  0.3322  0.3018  0.5087
    3HK4    C22  233   0.285  11.172   1.381  0.0769  0.2293 -0.0278
    3HK4    C26  234   0.246   0.042   1.444 -0.1229  0.0506  0.1834
    3HK4    H13  235   0.301   0.135   1.437 -0.1908  0.1660  1.1996
    3HK4    C25  236   0.144   0.049   1.537 -0.1427 -0.1456  0.1763
    3HK4    H12  237   0.136   0.142   1.592  0.9603  0.2526 -0.3417
    3HK4    C24  238   0.081  11.177   1.570  0.0079 -0.2967 -0.0857
    3HK4    H11  239   0.008  11.177   1.652 -0.9301  0.9136 -0.9001
    3HK4    C23  240   0.121  11.053   1.520  0.9277 -0.5411  1.2214
    3HK4    H10  241   0.055  10.968   1.535  1.2052 -0.7427  1.2973
    3HK4    C39  242   0.213  10.814   1.339 -0.1708  0.0564 -0.1232
    3HK4    C41  243   0.215  10.751   1.213  0.5853  0.1516 -0.1581
    3HK4    H21  244   0.206  10.807   1.119  0.6813  0.6145  0.1092
    3HK4    C42  245   0.216  10.612   1.203 -0.5192  0.1216  0.0620
    3HK4    H22  246   0.248  10.568   1.108  0.1323  0.3778  0.1586
    3HK4    C43  247   0.203  10.527   1.312  0.1286  0.1272  0.1421
    3HK4    H23  248   0.180  10.422   1.296  0.7633  0.0423 -0.2559
    3HK4    C44  249   0.196  10.590   1.436  0.4432 -0.1918  0.3226
    3HK4    H24  250   0.182  10.527   1.525 -1.9093 -0.4788 -0.2327
    3HK4    C45  251   0.196  10.728   1.450  0.9481 -0.1470 -0.1023
    3HK4    H25  252   0.162  10.773   1.545  0.3054 -1.4880  0.3178
    4HK4    H28  253   1.169   0.509   0.286 -1.5114 -0.4279  0.8128
    4HK4    C48  254   1.116   0.602   0.267  0.4735  0.5156 -0.2711
    4HK4    C47  255   1.105   0.643   0.135 -0.5654 -0.1610 -0.3943
    4HK4    H27  256   1.158   0.583   0.059  0.0409  0.6708 -0.6248
    4HK4    C46  257   1.015   0.741   0.095  0.2162  0.6119 -0.2663
    4HK4    H26  258   0.997   0.761  11.236 -2.5018  2.0964  0.4195
    4HK4    C40  259   0.930   0.803   0.189  0.5227  0.3087  0.2104
    4HK4    C50  260   0.941   0.765   0.325 -0.1860  0.3058  0.2695
    4HK4    H30  261   0.860   0.786   0.396 -1.0966  0.5686 -0.8407
    4HK4    C49  262   1.035   0.668   0.359 -0.3701 -0.1554 -0.5279
    4HK4    H29  263   1.067   0.653   0.463 -2.1884  1.2390  0.2590
    4HK4     N2  264   0.874   0.926   0.155 -0.3280 -0.0852  0.1685
    4HK4    C30  265   0.759   0.979   0.216 -0.0771  0.0037  0.5664
    4HK4    C29  266   0.648   0.914   0.268 -0.3071  0.2561  0.3952
    4HK4    H15  267   0.659   0.809   0.295 -0.8655  0.0573 -0.1201
    4HK4    C28  268   0.535   0.985   0.309 -0.2862  0.2845  0.4030
    4HK4    C27  269   0.537   1.126   0.302 -0.4311  0.2493 -0.3470
    4HK4    H14  270   0.450   1.181   0.340  0.4999  0.5420  1.4166
    4HK4    C32  271   0.646   1.195   0.251  0.1988 -0.4291  0.0546
    4HK4    H16  272   0.643   1.304   0.242  1.0537 -0.4603 -0.6616
    4HK4    C31  273   0.757   1.124   0.208  0.6807  0.0127  0.5691
    4HK4    C34  274   0.879   1.161   0.137  0.0882 -0.3370 -0.6495
    4HK4    C33  275   0.942   1.036   0.098  0.2533 -0.4852  0.0795
    4HK4    C35  276   1.049   1.040   0.010  0.0869 -0.2298 -0.1117
    4HK4    H17  277   1.075   0.951  11.200  1.0617  1.4196 -2.3023
    4HK4    C36  278   1.097   1.162  11.210  0.1775  0.0393  0.6644
    4HK4    H18  279   1.171   1.169  11.129  0.7017  1.2498  1.2374
    4HK4    C37  280   1.044   1.281   0.010  0.1563  0.5244 -0.5684
    4HK4    H19  281   1.100   1.365  11.217  1.0780  0.0555 -0.2808
    4HK4    C38  282   0.935   1.281   0.096  0.6252 -0.3533  0.0316
    4HK4    H20  283   0.866   1.365   0.091  0.4101 -0.3108  2.7361
    4HK4    C14  284   0.403   0.920   0.308 -0.0873 -0.1105 -0.1280
    4HK4     C9  285   0.290   0.969   0.241 -0.0817 -0.3880 -0.3390
    4HK4     C8  286   0.159   0.948   0.289  0.1238 -0.5360  0.1593
    4HK4    C11  287   0.145   0.874   0.405 -0.8479 -0.3073  0.1856
    4HK4     H4  288   0.042   0.849   0.435 -0.8378 -0.3717  0.1676
    4HK4    C12  289   0.254   0.824   0.476 -0.2349  0.3497 -0.2935
    4HK4     H5  290   0.254   0.770   0.572  2.8748 -0.8757 -0.9554
    4HK4    C13  291   0.381   0.845   0.425 -0.1259 -0.4708 -0.3647
    4HK4     H6  292   0.467   0.815   0.487 -1.5639  0.6053  2.2491
    4HK4     C7  293   0.040   0.997   0.217  0.3897 -0.7727 -0.4533
    4HK4     O2  294  11.175   0.954   0.239  0.1075 -0.0196 -0.3860
    4HK4     C4  295   0.060   1.095   0.108 -0.0620 -0.1673 -0.0009
    4HK4     C3  296  11.199   1.174   0.074  0.1267  0.2980  0.4568
    4HK4     H3  297  11.105   1.182   0.132 -1.1686 -0.7016 -1.4487
    4HK4     C2  298  11.215   1.265  11.218 -0.3055  0.3247  0.4134
    4HK4     H2  299  11.127   1.317  11.177 -2.2747 -3.7684 -0.8620
    4HK4     C1  300   0.094   1.294  11.171 -0.1943 -0.0906  0.4465
    4HK4     H1  301   0.102   1.355  11.080 -0.4876 -1.6746 -0.6468
    4HK4     C6  302   0.209   1.224  11.213 -0.0736 -0.1051  0.0943
    4HK4     C5  303   0.189   1.118   0.054  0.0218  0.0332  0.2818
    4HK4    C10  304   0.302   1.040   0.111  0.2176  0.0708 -0.0594
    4HK4     O1  305   0.388   1.001   0.031  0.3129  0.1592 -0.0007
    4HK4    C16  306   0.336   1.294  11.190 -0.0638 -0.0494  0.3147
    4HK4    C15  307   0.346   1.430  11.229 -0.3970  0.1446 -0.2718
    4HK4     H7  308   0.262   1.473   0.037  0.0981 -0.5721  1.0342
    4HK4    C20  309   0.462   1.504  11.205 -0.5465  0.2572 -0.6548
    4HK4     H9  310   0.463   1.610  11.231 -1.2061 -0.0736  0.7967
    4HK4    C19  311   0.572   1.440  11.150 -0.1921 -0.0888  0.4406
    4HK4    C18  312   0.560   1.305  11.099  0.0641  0.0954 -0.1158
    4HK4    C17  313   0.441   1.236  11.120  0.1967  0.0776  0.5994
    4HK4     H8  314   0.432   1.138  11.074  1.7579 -0.0939  0.6335
    4HK4     N1  315   0.671   1.270  11.019 -0.0085 -0.2933 -0.0463
    4HK4    C21  316   0.744   1.391  11.012  0.0144 -0.2974  0.1162
    4HK4    C22  317   0.691   1.500  11.091 -0.1804 -0.4070  0.1384
    4HK4    C26  318   0.734   1.630  11.067  0.0434 -0.4060  0.5453
    4HK4    H13  319   0.737   1.704  11.147  2.7200  0.5665 -0.4249
    4HK4    C25  320   0.820   1.661  10.963 -0.3147 -0.0387  0.3574
    4HK4    H12  321   0.862   1.759  10.939  0.1925 -0.3567 -0.0630
    4HK4    C24  322   0.871   1.558  10.885  0.0888 -0.0099  0.5843
    4HK4    H11  323   0.954   1.577  10.814 -0.5512  0.5788 -0.0226
    4HK4    C23  324   0.835   1.427  10.914 -0.1036 -0.0662  0.0953
    4HK4    H10  325   0.901   1.353  10.869 -0.2536 -0.9720  1.3439
    4HK4    C39  326   0.720   1.140  11.001  0.5512 -0.0900  0.0199
    4HK4    C41  327   0.820   1.113  10.906  0.6655 -0.3285  0.2064
    4HK4    H21  328   0.818   1.174  10.814  1.1525  2.7920  2.1941
    4HK4    C42  329   0.891   0.993  10.912  0.8879 -0.2012  0.1388
    4HK4    H22  330   0.984   0.997  10.853  1.4788 -0.8690  1.0277
    4HK4    C43  331   0.850   0.887  10.992 -0.3402  0.4442  0.3729
    4HK4    H23  332   0.897   0.789  10.990  0.5731  0.8898 -2.5099
    4HK4    C44  333   0.741   0.904  11.077 -0.2981  0.1759  0.4759
    4HK4    H24  334   0.703   0.814  11.128  0.7303 -0.3934  0.2515
    4HK4    C45  335   0.685   1.031  11.083  0.4950  0.5129  0.8058
    4HK4    H25  336   0.620   1.046  11.171 -0.0501 -3.8704  1.2655
    5HK4    H28  337   6.431  10.822   5.501 -2.5928 -3.8958 -1.1590
    5HK4    C48  338   6.351  10.883   5.461 -0.1602  0.6132  0.4980
    5HK4    C47  339   6.219  10.867   5.502 -0.0925  0.3877  0.6307
    5HK4    H27  340   6.200  10.772   5.553 -1.7740  0.1721 -0.3451
    5HK4    C46  341   6.115  10.935   5.439  0.1518  0.3631  0.2014
    5HK4    H26  342   6.018  10.925   5.490  0.1241  0.7076  0.2189
    5HK4    C40  343   6.145  11.019   5.330 -0.3775 -0.5969 -0.6946
    5HK4    C50  344   6.278  11.032   5.286 -0.2276 -0.0715 -0.0863
    5HK4    H30  345   6.298  11.111   5.212  1.6427  0.4609  0.9400
    5HK4    C49  346   6.379  10.959   5.348 -0.1429  0.4392  0.3858
    5HK4    H29  347   6.484  10.971   5.320 -0.5144 -1.1208 -1.8818
    5HK4     N2  348   6.053  11.106   5.269 -0.8241 -0.5572  0.0263
    5HK4    C30  349   5.948  11.169   5.338 -0.4109  0.3230 -0.1474
    5HK4    C29  350   5.913  11.174   5.473 -0.3421 -0.0965 -0.1131
    5HK4    H15  351   5.992  11.132   5.534 -0.7589 -0.6661  0.0329
    5HK4    C28  352   5.800  11.241   5.519  0.1060  0.3593  0.3323
    5HK4    C27  353   5.712   0.048   5.424 -0.1877 -0.3969  0.1603
    5HK4    H14  354   5.635   0.116   5.463  2.2766  2.7720 -0.2221
    5HK4    C32  355   5.740   0.043   5.288  0.0721 -0.4768  0.2167
    5HK4    H16  356   5.667   0.087   5.221 -0.4692  0.6363  1.5085
    5HK4    C31  357   5.855  11.227   5.242 -0.0997 -0.1237 -0.7183
    5HK4    C34  358   5.905  11.188   5.112  0.5075 -0.7467 -0.3059
    5HK4    C33  359   6.032  11.121   5.130  0.8601 -0.0617 -0.1891
    5HK4    C35  360   6.090  11.053   5.023  0.1763 -0.5646 -0.2424
    5HK4    H17  361   6.182  10.996   5.029  0.5756 -0.0523 -1.4843
    5HK4    C36  362   6.027  11.061   4.899 -0.1040  0.0186 -0.0672
    5HK4    H18  363   6.069  11.013   4.810  0.5317  0.2763  0.0934
    5HK4    C37  364   5.914  11.140   4.880 -0.0609 -0.0030 -0.4155
    5HK4    H19  365   5.876  11.160   4.780  0.4056  1.0435 -0.3863
    5HK4    C38  366   5.847  11.201   4.986  0.2332 -0.1801 -0.1264
    5HK4    H20  367   5.755   0.006   4.963  2.2191  3.0287 -0.9694
    5HK4    C14  368   5.783   0.006   5.664 -0.1297 -0.0866  0.3474
    5HK4     C9  369   5.665   0.058   5.719 -0.3089 -0.1633  0.0397
    5HK4     C8  370   5.674   0.148   5.827 -0.1134 -0.8262  0.5767
    5HK4    C11  371   5.797   0.182   5.882  0.0042  0.0297 -0.2210
    5HK4     H4  372   5.793   0.260   5.960  0.6982 -1.1198  0.9756
    5HK4    C12  373   5.911   0.112   5.845  0.0252 -0.1775  0.2336
    5HK4     H5  374   6.002   0.122   5.906  1.2473 -3.0008 -1.0705
    5HK4    C13  375   5.904   0.034   5.730  0.0225  0.2871 -0.0849
    5HK4     H6  376   5.999  11.246   5.687 -0.1050  0.6151 -0.6402
    5HK4     C7  377   5.551   0.214   5.876  0.1812  0.0273  0.1715
    5HK4     O2  378   5.559   0.326   5.925  0.1579  0.1810 -0.1766
    5HK4     C4  379   5.420   0.156   5.838  0.1424  0.2101  0.0265
    5HK4     C3  380   5.305   0.211   5.893  0.1955  0.0787  0.2749
    5HK4     H3  381   5.317   0.313   5.933 -2.1139  1.1037 -1.4925
    5HK4     C2  382   5.179   0.171   5.850  0.3396 -0.0266 -0.0493
    5HK4     H2  383   5.093   0.230   5.884 -0.3358 -0.5953 -0.7698
    5HK4     C1  384   5.162   0.069   5.757  0.4766  0.3266 -0.4631
    5HK4     H1  385   5.070   0.045   5.703  0.1961 -0.5993  0.4034
    5HK4     C6  386   5.277  11.245   5.715  0.0595 -0.1416 -0.8130
    5HK4     C5  387   5.403   0.047   5.751 -0.3469  0.4636 -0.1944
    5HK4    C10  388   5.530   0.001   5.688 -0.4913  0.6208 -0.6050
    5HK4     O1  389   5.529  11.143   5.627 -0.4335  0.2854 -0.0248
    5HK4    C16  390   5.243  11.108   5.676  0.0218 -0.3845  0.0484
    5HK4    C15  391   5.151  11.026   5.743 -0.0561 -0.3919 -0.0664
    5HK4     H7  392   5.139  11.034   5.853 -0.3764  3.0314 -0.3145
    5HK4    C20  393   5.079  10.924   5.682  0.2122 -0.3940 -0.3723
    5HK4     H9  394   5.009  10.868   5.743  1.0771 -1.2050 -0.1010
    5HK4    C19  395   5.107  10.894   5.549  0.2553  0.3585 -0.5323
    5HK4    C18  396   5.205  10.970   5.474 -0.2518  0.7466 -0.8071
    5HK4    C17  397   5.264  11.076   5.542  0.1813  0.0097 -0.0198
    5HK4     H8  398   5.312  11.154   5.482  1.6452 -1.3085 -0.5867
    5HK4     N1  399   5.213  10.930   5.339  0.4995  0.0508 -0.5571
    5HK4    C21  400   5.124  10.821   5.330 -0.0362  0.4080  0.3305
    5HK4    C22  401   5.061  10.792   5.457 -0.3993  0.1020  0.0782
    5HK4    C26  402   4.986  10.676   5.475  0.4028 -0.3865  0.3148
    5HK4    H13  403   4.942  10.658   5.573 -1.8538 -0.6222 -0.7055
    5HK4    C25  404   4.966  10.582   5.374  0.2019 -0.3130  0.2838
    5HK4    H12  405   4.907  10.491   5.378  2.2347 -1.8041 -2.1397
    5HK4    C24  406   5.015  10.617   5.249  0.4610 -0.3169  0.3844
    5HK4    H11  407   4.989  10.553   5.164  0.1056 -1.4152  1.3049
    5HK4    C23  408   5.096  10.729   5.230 -0.2219  0.2168  0.5600
    5HK4    H10  409   5.147  10.736   5.134 -1.4518  1.1414 -0.0416
    5HK4    C39  410   5.336  10.934   5.273  0.5208 -0.5500 -0.5587
    5HK4    C41  411   5.342  10.926   5.132 -0.0769  0.8874 -0.6733
    5HK4    H21  412   5.247  10.914   5.077 -0.0983  0.4254 -0.5391
    5HK4    C42  413   5.462  10.935   5.063  0.0755 -0.0710 -0.5486
    5HK4    H22  414   5.466  10.903   4.958  1.3343  1.1310 -0.8793
    5HK4    C43  415   5.580  10.958   5.133  0.0038 -0.1876 -0.3894
    5HK4    H23  416   5.676  10.962   5.082  1.4550 -4.4958  1.8392
    5HK4    C44  417   5.581  10.960   5.272 -0.2669  0.1733 -0.3909
    5HK4    H24  418   5.673  10.966   5.331 -0.5795 -2.1897  0.4031
    5HK4    C45  419   5.460  10.947   5.340  0.0602  0.0629  0.1768
    5HK4    H25  420   5.477  10.926   5.446  3.4244  2.2735  0.1455
    6HK4    H28  421   9.947   7.062   1.328  0.6735  2.1006  3.3953
    6HK4    C48  422   9.859   7.014   1.371  0.0248  0.0776 -0.0178
    6HK4    C47  423   9.832   6.881   1.339  0.4852 -0.0383  0.0775
    6HK4    H27  424   9.904   6.824   1.278 -0.8008 -1.1420 -0.4164
    6HK4    C46  425   9.720   6.814   1.385  0.2406  0.3735  0.0852
    6HK4    H26  426   9.711   6.713   1.344 -0.0840  0.0089  1.0376
    6HK4    C40  427   9.627   6.868   1.477  0.0551 -0.5669  0.4523
    6HK4    C50  428   9.674   6.993   1.522 -0.2087 -0.4067  0.2826
    6HK4    H30  429   9.619   7.043   1.603  4.6670  2.5088  2.0102
    6HK4    C49  430   9.784   7.064   1.477  0.3935 -1.0228  0.7703
    6HK4    H29  431   9.808   7.165   1.515 -0.4646 -0.7002  0.4559
    6HK4     N2  432   9.489   6.847   1.465  0.0883 -0.4641 -0.1279
    6HK4    C30  433   9.422   6.784   1.358  0.1965 -0.4592 -0.1982
    6HK4    C29  434   9.470   6.728   1.240  0.4523 -0.7772  0.0540
    6HK4    H15  435   9.564   6.764   1.198  0.1132  1.5441  1.1786
    6HK4    C28  436   9.384   6.658   1.155 -0.2906  0.0234  0.1354
    6HK4    C27  437   9.249   6.646   1.192 -0.3375 -0.1612 -0.0994
    6HK4    H14  438   9.190   6.559   1.159 -0.1086 -0.2172 -0.3636
    6HK4    C32  439   9.196   6.715   1.300  0.3527  0.0866  0.0830
    6HK4    H16  440   9.090   6.714   1.327  0.9147 -0.8867  2.3449
    6HK4    C31  441   9.279   6.789   1.383  0.3236 -0.3548  0.5066
    6HK4    C34  442   9.252   6.861   1.506 -0.0106  0.1418  0.1444
    6HK4    C33  443   9.387   6.884   1.555  0.1797 -1.2495  0.3020
    6HK4    C35  444   9.395   6.917   1.689  0.6682  0.3869 -0.1214
    6HK4    H17  445   9.488   6.913   1.746  0.5959  0.5221  0.0077
    6HK4    C36  446   9.283   6.928   1.770  0.6897 -1.0267  0.1152
    6HK4    H18  447   9.301   6.959   1.874  0.9926  0.6051 -0.3987
    6HK4    C37  448   9.154   6.909   1.722  0.4442  0.3874  0.1769
    6HK4    H19  449   9.071   6.902   1.792  0.6289 -1.2438  0.2454
    6HK4    C38  450   9.141   6.875   1.588  0.0604  0.6154  0.1571
    6HK4    H20  451   9.045   6.875   1.536  0.9786 -1.9931 -1.6189
    6HK4    C14  452   9.429   6.640   1.016  0.1799  0.2794  0.2539
    6HK4     C9  453   9.344   6.637   0.906 -0.0936 -0.0285  0.4758
    6HK4     C8  454   9.368   6.550   0.797  0.2698  0.2208  0.3586
    6HK4    C11  455   9.477   6.464   0.798 -0.0292 -0.1587  0.0651
    6HK4     H4  456   9.480   6.375   0.733  1.5958 -0.8448  1.0606
    6HK4    C12  457   9.571   6.473   0.900  0.0169 -0.3853  0.0427
    6HK4     H5  458   9.662   6.412   0.900 -0.2538 -0.8000  0.5720
    6HK4    C13  459   9.549   6.567   1.000 -0.3284 -0.5311  0.1042
    6HK4     H6  460   9.631   6.584   1.071  0.6464 -1.5116 -0.7726
    6HK4     C7  461   9.303   6.572   0.666 -0.0605 -0.3937  0.4203
    6HK4     O2  462   9.311   6.488   0.577 -1.0785  0.1120 -0.1530
    6HK4     C4  463   9.196   6.674   0.655  0.2181 -0.1426  0.0218
    6HK4     C3  464   9.148   6.709   0.529  0.0562 -0.3444  0.0267
    6HK4     H3  465   9.201   6.689   0.435 -1.8276  0.3292 -1.2162
    6HK4     C2  466   9.029   6.782   0.522  0.3608  0.1508 -0.0201
    6HK4     H2  467   8.994   6.821   0.426 -2.4538 -0.9411  0.5292
    6HK4     C1  468   8.965   6.821   0.639  0.2750  0.7405 -0.2640
    6HK4     H1  469   8.891   6.901   0.627 -0.4057  0.2886  0.8900
    6HK4     C6  470   9.013   6.784   0.766 -0.5423 -0.1078 -0.1997
    6HK4     C5  471   9.141   6.729   0.772 -0.4148  0.1575 -0.4118
    6HK4    C10  472   9.233   6.735   0.890  0.0347 -0.0749 -0.7497
    6HK4     O1  473   9.240   6.842   0.950 -0.1484 -0.4030 -0.1434
    6HK4    C16  474   8.913   6.756   0.870 -0.3857  0.0599 -0.0048
    6HK4    C15  475   8.941   6.728   1.006  0.0058 -0.0064 -0.0988
    6HK4     H7  476   9.045   6.711   1.037 -0.3897 -0.6660  0.8635
    6HK4    C20  477   8.848   6.713   1.109 -0.2861 -0.8758 -0.4785
    6HK4     H9  478   8.884   6.697   1.210 -1.9561 -0.4621  0.1906
    6HK4    C19  479   8.715   6.713   1.070 -0.4735  0.2422  0.1402
    6HK4    C18  480   8.678   6.734   0.931 -0.0206  0.4584  0.0535
    6HK4    C17  481   8.778   6.752   0.836 -0.2226 -1.3586 -0.5272
    6HK4     H8  482   8.744   6.744   0.733 -2.2869  1.0349 -0.0822
    6HK4     N1  483   8.543   6.774   0.929  0.0245  0.6202  0.0780
    6HK4    C21  484   8.496   6.777   1.061 -0.1497  0.0909  0.0253
    6HK4    C22  485   8.600   6.739   1.155 -0.5633 -0.4934  0.2502
    6HK4    C26  486   8.564   6.711   1.286  0.2760 -1.2457  0.3249
    6HK4    H13  487   8.639   6.713   1.365 -0.7741  3.3917  1.3658
    6HK4    C25  488   8.431   6.714   1.325  0.1219 -0.4871 -0.2418
    6HK4    H12  489   8.399   6.684   1.425 -1.6631  1.7332 -0.1061
    6HK4    C24  490   8.332   6.756   1.237 -0.0784 -0.2476  0.0924
    6HK4    H11  491   8.225   6.751   1.260 -0.1960  0.6520 -0.2283
    6HK4    C23  492   8.364   6.786   1.105 -0.1992 -0.4690  0.0123
    6HK4    H10  493   8.296   6.824   1.028 -0.8959 -2.4123 -0.3429
    6HK4    C39  494   8.470   6.794   0.811 -0.2124  0.0007  0.1200
    6HK4    C41  495   8.362   6.884   0.806 -0.5110 -0.3726 -0.1536
    6HK4    H21  496   8.383   6.981   0.854  0.2978 -0.9774  0.7342
    6HK4    C42  497   8.245   6.862   0.734 -0.4202  0.4355 -0.5578
    6HK4    H22  498   8.159   6.930   0.738  0.2704  1.2398  2.9643
    6HK4    C43  499   8.237   6.743   0.663 -0.3227 -0.2084  0.4864
    6HK4    H23  500   8.140   6.724   0.617  0.7109 -1.3491 -1.2865
    6HK4    C44  501   8.342   6.653   0.652 -0.1372  0.0638 -0.0071
    6HK4    H24  502   8.327   6.573   0.577 -1.4013  1.2625 -1.0628
    6HK4    C45  503   8.457   6.685   0.722 -0.0617  0.2614 -0.2200
    6HK4    H25  504   8.545   6.621   0.705 -0.0838  0.0691  0.4104
    7HK4    H28  505   7.762   9.991   6.498 -0.1247 -0.3306 -2.1398
    7HK4    C48  506   7.656  10.008   6.480 -0.3328  0.1835 -0.4776
    7HK4    C47  507   7.591   9.932   6.384 -0.0597 -0.0866 -0.4488
    7HK4    H27  508   7.645   9.855   6.325  1.0368  1.0644 -0.9632
    7HK4    C46  509   7.452   9.935   6.379 -0.0727 -0.2585 -0.2350
    7HK4    H26  510   7.400   9.879   6.300  0.1883  2.4449 -2.3959
    7HK4    C40  511   7.376  10.011   6.469 -0.0143 -0.2645 -0.1805
    7HK4    C50  512   7.441  10.095   6.561  0.1410 -0.2273 -0.3242
    7HK4    H30  513   7.386  10.165   6.626 -2.3023  0.3073 -2.8891
    7HK4    C49  514   7.580  10.085   6.568  0.1483  0.0767  0.0362
    7HK4    H29  515   7.627  10.148   6.644  1.2507  2.3750 -2.4521
    7HK4     N2  516   7.241  10.037   6.439  0.0836 -0.1550 -0.5282
    7HK4    C30  517   7.148  10.072   6.539  0.1487 -0.3167 -0.4113
    7HK4    C29  518   7.142  10.031   6.672  0.3707  0.4588 -0.1623
    7HK4    H15  519   7.226   9.972   6.709  1.5790  0.5029 -2.6609
    7HK4    C28  520   7.032  10.057   6.753  0.2747  0.0907 -0.1721
    7HK4    C27  521   6.923  10.126   6.696  0.1548  0.0008 -0.0518
    7HK4    H14  522   6.826  10.143   6.744 -0.0236  1.4277 -0.9092
    7HK4    C32  523   6.927  10.169   6.564  0.1966 -0.0586 -0.0701
    7HK4    H16  524   6.849  10.220   6.508 -0.8984 -0.5901  0.9596
    7HK4    C31  525   7.040  10.152   6.484  0.0991 -0.2203 -0.1750
    7HK4    C34  526   7.065  10.153   6.341  0.0235  0.4637 -0.1834
    7HK4    C33  527   7.188  10.080   6.316 -0.1844  0.1508 -0.3049
    7HK4    C35  528   7.210  10.025   6.191  0.8677  0.6123 -0.3278
    7HK4    H17  529   7.312  10.005   6.157  0.3797  0.2416 -1.6230
    7HK4    C36  530   7.112  10.023   6.092  0.5453  0.1642  0.0004
    7HK4    H18  531   7.138   9.979   5.994  3.0904 -1.5290  1.3469
    7HK4    C37  532   6.989  10.082   6.116  0.2811 -0.3383 -0.1053
    7HK4    H19  533   6.903  10.044   6.061  0.6059 -2.3859  0.7540
    7HK4    C38  534   6.975  10.152   6.235  0.2274  0.0784 -0.3569
    7HK4    H20  535   6.889  10.219   6.241  0.4428  0.1963  2.3161
    7HK4    C14  536   7.035  10.040   6.899  0.0374 -0.8866 -0.2764
    7HK4     C9  537   6.919  10.042   6.977  0.3117  0.2734  0.1093
    7HK4     C8  538   6.924  10.100   7.106  0.0186  0.4048  0.0635
    7HK4    C11  539   7.044  10.148   7.159 -0.0590  0.6180  0.0452
    7HK4     H4  540   7.049  10.194   7.259  1.2274 -0.2845  0.4051
    7HK4    C12  541   7.158  10.131   7.082 -0.4312 -0.0427 -0.3716
    7HK4     H5  542   7.254  10.175   7.113 -1.3328  1.6064  0.1735
    7HK4    C13  543   7.160  10.077   6.954 -0.2065  0.3544 -0.5384
    7HK4     H6  544   7.253  10.031   6.918  0.2981  0.2605  0.8792
    7HK4     C7  545   6.812  10.085   7.201 -0.0951 -0.0027 -0.1374
    7HK4     O2  546   6.795  10.173   7.285 -0.2807  0.0453 -0.2271
    7HK4     C4  547   6.701   9.992   7.167  0.4148 -0.7264  0.1681
    7HK4     C3  548   6.608   9.962   7.266 -0.5530  0.0403 -0.4996
    7HK4     H3  549   6.632   9.993   7.369 -1.4646 -1.9189  0.3128
    7HK4     C2  550   6.507   9.870   7.244 -0.3030 -0.3324 -0.0855
    7HK4     H2  551   6.437   9.838   7.324  1.0174 -0.1453  1.1679
    7HK4     C1  552   6.486   9.832   7.112 -0.1957 -0.9174  0.0618
    7HK4     H1  553   6.379   9.813   7.098 -0.4158  0.4989 -0.3118
    7HK4     C6  554   6.571   9.874   7.008 -0.0308 -0.3079  0.4403
    7HK4     C5  555   6.693   9.936   7.038  0.2239 -0.6725  0.1564
    7HK4    C10  556   6.805   9.953   6.942  0.5726 -0.2713  0.6310
    7HK4     O1  557   6.809   9.874   6.848  0.2218  0.3694  0.0718
    7HK4    C16  558   6.503   9.882   6.877 -0.0525  0.3859  0.4915
    7HK4    C15  559   6.541   9.978   6.781  0.5887 -0.3462  0.0050
    7HK4     H7  560   6.626  10.041   6.812 -0.8590  1.0836  1.1526
    7HK4    C20  561   6.481   9.994   6.657  0.5074 -0.6455  0.0058
    7HK4     H9  562   6.518  10.071   6.589  0.8474  0.2166  1.1518
    7HK4    C19  563   6.376   9.911   6.620  0.1706 -0.0622 -0.3462
    7HK4    C18  564   6.338   9.807   6.714 -0.0648 -0.1320 -0.5177
    7HK4    C17  565   6.400   9.799   6.838  0.0418  0.7316 -0.5052
    7HK4     H8  566   6.364   9.735   6.919  3.9826 -0.1437  0.6293
    7HK4     N1  567   6.219   9.742   6.678  0.1464 -0.6760 -0.2320
    7HK4    C21  568   6.189   9.806   6.556  0.3082  0.1058  0.1390
    7HK4    C22  569   6.283   9.906   6.508  0.1071  0.0845 -0.3004
    7HK4    C26  570   6.271   9.981   6.392  0.2710 -0.0624 -0.4126
    7HK4    H13  571   6.363  10.010   6.340  0.5172 -0.6472 -0.3018
    7HK4    C25  572   6.159   9.956   6.314 -0.0299 -0.0162 -0.0009
    7HK4    H12  573   6.141  10.014   6.223  2.0305  1.7611  0.6822
    7HK4    C24  574   6.072   9.856   6.354  0.4008 -0.3580  0.0883
    7HK4    H11  575   5.988   9.831   6.287  1.6294  0.4327 -1.8048
    7HK4    C23  576   6.083   9.780   6.470  0.1119  0.0646  0.3933
    7HK4    H10  577   6.025   9.689   6.486 -0.5835  0.5514  0.6263
    7HK4    C39  578   6.124   9.675   6.756 -0.0275  0.0550  0.1868
    7HK4    C41  579   6.114   9.713   6.891 -0.7183  0.1820  0.1043
    7HK4    H21  580   6.094   9.819   6.910 -2.1270 -0.1110  0.3511
    7HK4    C42  581   6.072   9.618   6.983  0.1461 -0.4170 -0.1151
    7HK4    H22  582   6.069   9.648   7.089  1.6956  1.9584 -0.7235
    7HK4    C43  583   6.032   9.487   6.956 -0.5795 -0.2562  0.1849
    7HK4    H23  584   5.983   9.429   7.034 -1.4993  2.2018  1.5102
    7HK4    C44  585   6.053   9.444   6.825  0.3149 -0.0561  0.2569
    7HK4    H24  586   6.067   9.339   6.797 -0.0811  0.1900 -0.8997
    7HK4    C45  587   6.094   9.539   6.732 -1.0283  0.3023  0.0164
    7HK4    H25  588   6.059   9.509   6.632 -1.5452 -1.1104  0.6129
    8HK4    H28  589   3.057   7.335   6.232 -2.3506  1.0357  1.8072
    8HK4    C48  590   3.132   7.301   6.303 -1.1951  0.1055  0.1949
    8HK4    C47  591   3.133   7.169   6.348 -0.3699  0.1798  0.4092
    8HK4    H27  592   3.071   7.088   6.307 -0.7260  1.0704 -0.8553
    8HK4    C46  593   3.197   7.146   6.469  0.2136 -0.5563 -0.0434
    8HK4    H26  594   3.194   7.045   6.514  2.2507 -0.3041  0.7263
    8HK4    C40  595   3.246   7.243   6.558  0.1006 -0.2835 -0.2784
    8HK4    C50  596   3.248   7.375   6.509 -0.4797 -0.2229 -0.1389
    8HK4    H30  597   3.267   7.460   6.576  3.1745  0.8404 -2.4069
    8HK4    C49  598   3.194   7.396   6.383 -0.1347 -0.1838 -0.2801
    8HK4    H29  599   3.164   7.500   6.362  1.7699  0.0978 -1.7833
    8HK4     N2  600   3.233   7.232   6.697 -0.1298  0.1936 -0.2595
    8HK4    C30  601   3.142   7.143   6.758 -0.4872  0.4823 -0.3717
    8HK4    C29  602   3.022   7.085   6.718 -0.2837 -0.0409 -0.2223
    8HK4    H15  603   2.986   7.117   6.620 -0.0941  0.9271  0.0141
    8HK4    C28  604   2.960   6.982   6.788 -0.3495  0.4347  0.4261
    8HK4    C27  605   3.023   6.937   6.907 -0.2222  0.2877  0.3027
    8HK4    H14  606   2.979   6.851   6.959 -0.8815  0.2671 -0.2745
    8HK4    C32  607   3.134   7.004   6.955 -0.5480  0.8029  0.3463
    8HK4    H16  608   3.179   6.965   7.046 -0.1937 -0.0255 -0.1736
    8HK4    C31  609   3.198   7.107   6.887 -0.2794  0.0376 -0.5825
    8HK4    C34  610   3.314   7.192   6.908 -0.2195 -0.2898  0.4293
    8HK4    C33  611   3.338   7.265   6.785 -0.4556 -0.3604  0.3396
    8HK4    C35  612   3.441   7.357   6.796 -0.5451 -0.2659  0.4029
    8HK4    H17  613   3.466   7.391   6.696 -0.8702 -1.1278  0.0279
    8HK4    C36  614   3.522   7.382   6.906  0.1509 -0.3618 -0.0836
    8HK4    H18  615   3.594   7.464   6.919 -0.8722  0.6102 -0.5187
    8HK4    C37  616   3.495   7.302   7.017  0.2650 -0.2172  0.0499
    8HK4    H19  617   3.543   7.329   7.111  0.5769 -0.0855 -0.1466
    8HK4    C38  618   3.397   7.204   7.019 -0.2290  0.2850  0.3745
    8HK4    H20  619   3.374   7.153   7.113 -2.1412  2.1014  0.9403
    8HK4    C14  620   2.819   6.954   6.760 -0.2090  0.0463  0.1142
    8HK4     C9  621   2.712   6.921   6.844 -0.2975 -0.0685 -0.0432
    8HK4     C8  622   2.585   6.888   6.792 -0.2439 -0.2521 -0.0588
    8HK4    C11  623   2.557   6.903   6.657 -0.1780  0.2534 -0.0163
    8HK4     H4  624   2.457   6.899   6.612  0.1478  0.2656 -0.7631
    8HK4    C12  625   2.662   6.937   6.572  0.0269 -0.0414  0.1183
    8HK4     H5  626   2.645   6.933   6.463  0.8425  3.5015 -0.2028
    8HK4    C13  627   2.790   6.955   6.622  0.1344 -0.5739  0.0352
    8HK4     H6  628   2.872   6.970   6.549  1.0902 -2.6285  0.6522
    8HK4     C7  629   2.481   6.825   6.877 -0.1995 -0.4310 -0.1384
    8HK4     O2  630   2.364   6.838   6.842 -0.1365 -0.3873 -0.3308
    8HK4     C4  631   2.512   6.779   7.015 -0.2457  0.7619  0.2726
    8HK4     C3  632   2.421   6.709   7.093  0.2790  0.0318  0.2313
    8HK4     H3  633   2.313   6.710   7.070  0.2658 -2.8245 -0.0103
    8HK4     C2  634   2.468   6.648   7.208  0.0286 -1.1094 -0.2542
    8HK4     H2  635   2.403   6.615   7.291 -1.0834  1.7555  0.0742
    8HK4     C1  636   2.605   6.646   7.236  0.1479 -0.0935 -0.7546
    8HK4     H1  637   2.634   6.616   7.337  1.7680 -0.3464 -1.2904
    8HK4     C6  638   2.703   6.717   7.164  0.3580  0.3278 -0.0558
    8HK4     C5  639   2.645   6.790   7.058 -0.0190 -0.1554 -0.1834
    8HK4    C10  640   2.733   6.887   6.987  0.0067 -0.1161 -0.0975
    8HK4     O1  641   2.767   6.986   7.053 -0.0322 -0.1401 -0.0410
    8HK4    C16  642   2.840   6.666   7.170  0.1229 -0.2093  0.8194
    8HK4    C15  643   2.873   6.530   7.190 -0.0324 -0.3783 -0.0212
    8HK4     H7  644   2.803   6.446   7.178 -0.2527 -0.6210  2.6551
    8HK4    C20  645   3.003   6.492   7.221  0.1115 -0.1893 -0.3945
    8HK4     H9  646   3.023   6.386   7.234  1.9613 -0.0359 -1.7041
    8HK4    C19  647   3.109   6.580   7.239 -0.2363  0.0412  0.5180
    8HK4    C18  648   3.072   6.720   7.234  0.4708  0.2074 -0.1422
    8HK4    C17  649   2.944   6.755   7.194  0.0769 -0.1471  0.7835
    8HK4     H8  650   2.920   6.862   7.196  0.2837 -0.0984  0.6811
    8HK4     N1  651   3.177   6.802   7.279  0.1722  0.5045  0.0156
    8HK4    C21  652   3.280   6.712   7.315 -0.2042  0.0307 -0.0887
    8HK4    C22  653   3.245   6.574   7.289  0.2075  0.0384 -0.6815
    8HK4    C26  654   3.334   6.477   7.334 -0.0290  0.1168 -0.0392
    8HK4    H13  655   3.297   6.376   7.316 -0.4860  0.4486 -1.0109
    8HK4    C25  656   3.441   6.508   7.418 -0.2403  0.2036  0.1978
    8HK4    H12  657   3.522   6.436   7.414 -0.2027  0.2433  0.2685
    8HK4    C24  658   3.463   6.640   7.454  0.7411  0.2744 -0.6389
    8HK4    H11  659   3.527   6.667   7.539 -1.1140 -1.2350  1.2787
    8HK4    C23  660   3.383   6.742   7.403  0.1119 -0.1028 -0.4125
    8HK4    H10  661   3.389   6.837   7.457 -3.1997  0.2500 -0.5520
    8HK4    C39  662   3.154   6.934   7.320 -0.7222  0.3113  0.1474
    8HK4    C41  663   3.264   7.022   7.309 -0.1442 -0.4999 -0.6453
    8HK4    H21  664   3.362   6.981   7.280  0.7595  0.4263  1.0149
    8HK4    C42  665   3.266   7.149   7.365 -0.1594 -0.8299  0.0979
    8HK4    H22  666   3.347   7.221   7.347 -0.4047  0.0060  2.1863
    8HK4    C43  667   3.152   7.196   7.431  0.0876 -0.4743  0.2722
    8HK4    H23  668   3.148   7.285   7.494 -0.8843  0.2047 -0.7336
    8HK4    C44  669   3.037   7.118   7.435 -0.1832 -0.0431  1.0342
    8HK4    H24  670   2.946   7.170   7.466  0.2623  0.8878  0.8114
    8HK4    C45  671   3.041   6.989   7.383 -0.6682  0.2273  0.3167
    8HK4    H25  672   2.959   6.918   7.402 -1.3043  0.3033 -2.0036
    9HK4    H28  673   6.996   8.997   7.982  0.4297  1.4926  1.7680
    9HK4    C48  674   7.101   9.003   7.956 -0.0145  0.3671 -0.3686
    9HK4    C47  675   7.187   9.059   8.049  0.0813  0.2588 -0.3924
    9HK4    H27  676   7.165   9.067   8.157  0.7841 -0.1272 -0.2155
    9HK4    C46  677   7.308   9.111   8.002  0.2213  0.4225  0.1426
    9HK4    H26  678   7.363   9.169   8.078  2.8967  0.2673 -1.6505
    9HK4    C40  679   7.357   9.102   7.871 -0.1092  0.1780  0.0347
    9HK4    C50  680   7.271   9.032   7.784 -0.1590  0.2461  0.0275
    9HK4    H30  681   7.295   9.009   7.679  0.8423  2.8221 -0.3255
    9HK4    C49  682   7.146   8.987   7.825 -0.2146  0.0063 -0.3938
    9HK4    H29  683   7.072   8.950   7.752 -0.5776 -1.3033  0.6323
    9HK4     N2  684   7.485   9.151   7.842 -0.0655 -0.0585 -0.1790
    9HK4    C30  685   7.579   9.183   7.942 -0.1125 -0.0853 -0.1255
    9HK4    C29  686   7.607   9.136   8.069  0.4201 -0.0923 -0.2426
    9HK4    H15  687   7.548   9.055   8.113  0.8416  0.9960  2.3998
    9HK4    C28  688   7.729   9.157   8.133 -0.0179  0.6024  0.3741
    9HK4    C27  689   7.819   9.236   8.059 -0.0696  0.3166  0.0086
    9HK4    H14  690   7.919   9.265   8.096 -0.0307  1.4724 -0.9673
    9HK4    C32  691   7.802   9.293   7.933  0.0597 -0.2586 -0.2768
    9HK4    H16  692   7.875   9.347   7.873 -1.4305  3.0216  0.7522
    9HK4    C31  693   7.680   9.262   7.874 -0.3925  0.5665  0.2094
    9HK4    C34  694   7.644   9.282   7.735  0.5566 -0.1352 -0.1405
    9HK4    C33  695   7.520   9.209   7.718  0.0251  0.6933  0.2009
    9HK4    C35  696   7.470   9.204   7.589  0.3092  0.4097  0.1047
    9HK4    H17  697   7.367   9.182   7.561  0.7522  0.4828 -1.6758
    9HK4    C36  698   7.534   9.262   7.480 -0.1934  0.3578 -0.2193
    9HK4    H18  699   7.491   9.243   7.380  0.3480  0.2069 -0.4245
    9HK4    C37  700   7.654   9.329   7.499  0.0896 -0.2219  0.0687
    9HK4    H19  701   7.693   9.388   7.415  0.1459  0.0569  0.2913
    9HK4    C38  702   7.709   9.339   7.626  0.2827  0.3318 -0.0578
    9HK4    H20  703   7.782   9.420   7.630  0.8824 -0.1663 -0.6289
    9HK4    C14  704   7.747   9.114   8.272  0.1465 -0.1991  0.1101
    9HK4     C9  705   7.836   9.184   8.355 -0.4146  0.2940  0.2964
    9HK4     C8  706   7.906   9.113   8.454  0.2483  0.1644 -0.2665
    9HK4    C11  707   7.885   8.976   8.469  0.0354  0.1801 -0.4038
    9HK4     H4  708   7.948   8.920   8.540 -1.9535  0.0039  1.2748
    9HK4    C12  709   7.804   8.900   8.386 -0.4155  0.3194 -0.0947
    9HK4     H5  710   7.772   8.795   8.394  0.3387  0.1452  0.6558
    9HK4    C13  711   7.731   8.976   8.296 -0.6959 -0.1682 -0.2803
    9HK4     H6  712   7.656   8.925   8.233 -1.3058  2.7263 -2.0225
    9HK4     C7  713   7.977   9.189   8.559 -0.4350 -0.2851  0.5343
    9HK4     O2  714   8.060   9.136   8.633  0.2150  0.5794  0.4386
    9HK4     C4  715   7.976   9.337   8.562  0.0191 -0.2710  0.1152
    9HK4     C3  716   8.023   9.412   8.669  0.2280  0.1639 -0.2784
    9HK4     H3  717   8.053   9.354   8.758  0.8285 -0.7201 -1.0510
    9HK4     C2  718   8.030   9.551   8.671  0.3065  0.1568  0.0532
    9HK4     H2  719   8.072   9.603   8.758  1.4729  0.0173 -0.4082
    9HK4     C1  720   8.005   9.611   8.548  0.1084 -0.0075  0.0137
    9HK4     H1  721   8.032   9.717   8.538  1.7077 -0.3170  0.9666
    9HK4     C6  722   7.974   9.541   8.430  0.0603  0.1583 -0.0711
    9HK4     C5  723   7.939   9.406   8.445  0.2657  0.1405  0.2772
    9HK4    C10  724   7.850   9.332   8.351 -0.1502  0.2797  0.5648
    9HK4     O1  725   7.749   9.399   8.326 -0.1596  0.1455  0.2475
    9HK4    C16  726   8.032   9.595   8.306  0.0341 -0.4630 -0.3565
    9HK4    C15  727   8.131   9.695   8.321 -0.5153  0.0752 -0.3152
    9HK4     H7  728   8.201   9.693   8.406  0.5843  0.7062 -1.1959
    9HK4    C20  729   8.161   9.786   8.220 -0.1350  0.1902 -0.1022
    9HK4     H9  730   8.210   9.880   8.246  1.6210 -0.8502  0.4578
    9HK4    C19  731   8.101   9.776   8.095 -0.0074  0.1883 -0.1632
    9HK4    C18  732   8.001   9.672   8.080  0.0537  0.0977  0.0577
    9HK4    C17  733   7.967   9.586   8.184 -0.1608 -0.2214 -0.2714
    9HK4     H8  734   7.911   9.498   8.154 -0.2393  0.6752 -2.9430
    9HK4     N1  735   7.942   9.683   7.952 -0.2492 -0.0523  0.1833
    9HK4    C21  736   8.011   9.786   7.884  0.0668 -0.3826  0.0077
    9HK4    C22  737   8.120   9.836   7.965 -0.0891  0.2264 -0.1571
    9HK4    C26  738   8.232   9.892   7.903  0.0059 -0.1883 -0.3623
    9HK4    H13  739   8.308   9.941   7.964 -1.4072  0.0918  1.2520
    9HK4    C25  740   8.245   9.902   7.766  0.1241  0.5696 -0.2977
    9HK4    H12  741   8.349   9.923   7.740  0.4322  1.4095  1.5188
    9HK4    C24  742   8.144   9.847   7.688  0.0862 -0.2623  0.3446
    9HK4    H11  743   8.153   9.844   7.578 -0.3682  0.7623  0.2787
    9HK4    C23  744   8.027   9.800   7.746 -0.2207  0.0892  0.0215
    9HK4    H10  745   7.939   9.804   7.683  0.3847 -1.7034 -0.9712
    9HK4    C39  746   7.806   9.665   7.926 -0.1026 -0.3304 -0.3969
    9HK4    C41  747   7.752   9.652   7.796 -0.4006  0.1057 -0.3206
    9HK4    H21  748   7.814   9.607   7.717  0.8009  1.3132 -0.1049
    9HK4    C42  749   7.617   9.668   7.771 -0.5437 -0.6597 -0.0442
    9HK4    H22  750   7.580   9.635   7.672  1.3988 -2.4663 -0.2038
    9HK4    C43  751   7.531   9.704   7.874 -0.0979 -0.1257  0.1370
    9HK4    H23  752   7.423   9.703   7.862 -0.0099  1.6702 -1.0701
    9HK4    C44  753   7.583   9.704   8.003  0.4185  0.0466 -0.0696
    9HK4    H24  754   7.508   9.718   8.082 -1.4293 -1.0446 -1.5829
    9HK4    C45  755   7.717   9.684   8.034  0.5106  0.6646 -0.0631
    9HK4    H25  756   7.754   9.712   8.134 -0.9212  2.5931 -0.0299
   10HK4    H28  757   0.804   8.847   2.405 -0.4933  0.5063  0.7767
   10HK4    C48  758   0.855   8.922   2.345  0.2008 -0.2732  0.3774
   10HK4    C47  759   0.961   8.991   2.402 -0.5051  0.8076  0.4038
   10HK4    H27  760   0.986   8.975   2.508  1.4297  1.5781  0.0758
   10HK4    C46  761   1.044   9.075   2.329 -0.0011 -0.0506 -0.0244
   10HK4    H26  762   1.134   9.114   2.378  0.0749 -0.1882 -0.0552
   10HK4    C40  763   1.014   9.105   2.194  0.2090 -0.7676 -0.2315
   10HK4    C50  764   0.895   9.049   2.143 -0.2029 -0.3629  0.2865
   10HK4    H30  765   0.863   9.076   2.041  1.2618 -1.3077 -0.4360
   10HK4    C49  766   0.821   8.955   2.214 -0.1115 -0.3166  0.4464
   10HK4    H29  767   0.747   8.909   2.147 -1.7385  1.0142  1.2970
   10HK4     N2  768   1.115   9.140   2.104 -0.0020 -0.2098 -0.2520
   10HK4    C30  769   1.252   9.107   2.114  0.1229  0.3953  0.0390
   10HK4    C29  770   1.317   8.994   2.159  0.4590  0.8180  0.6263
   10HK4    H15  771   1.256   8.919   2.211 -2.9390  2.7077 -0.5099
   10HK4    C28  772   1.455   8.974   2.156  0.2857 -0.3121 -0.1616
   10HK4    C27  773   1.534   9.081   2.110 -0.1841  0.2367  0.3060
   10HK4    H14  774   1.644   9.087   2.113 -0.1367 -0.0480 -0.7151
   10HK4    C32  775   1.476   9.195   2.056  0.2331 -0.1315 -0.9497
   10HK4    H16  776   1.536   9.268   2.003 -1.9119  2.0834 -0.4558
   10HK4    C31  777   1.337   9.208   2.054  0.2441  0.1289 -0.2380
   10HK4    C34  778   1.245   9.307   2.001  0.0758  0.2817  0.3307
   10HK4    C33  779   1.111   9.260   2.030  0.1200 -0.0145  0.0564
   10HK4    C35  780   1.004   9.329   1.976  0.4119  0.7326  0.4289
   10HK4    H17  781   0.907   9.319   2.025  0.7097 -1.4262  0.5915
   10HK4    C36  782   1.028   9.440   1.895 -0.0872  0.4992 -0.0432
   10HK4    H18  783   0.934   9.491   1.870 -0.9744 -1.0162  0.1344
   10HK4    C37  784   1.156   9.481   1.858  0.0748 -0.3996 -0.4954
   10HK4    H19  785   1.170   9.577   1.809  2.1290 -1.7449 -2.6472
   10HK4    C38  786   1.264   9.415   1.915  0.0504  0.4768  0.5716
   10HK4    H20  787   1.365   9.430   1.878 -0.2318 -1.3928 -1.0015
   10HK4    C14  788   1.514   8.861   2.229  0.7490 -0.2283 -0.4030
   10HK4     C9  789   1.634   8.861   2.302 -0.3041 -0.2195  1.3488
   10HK4     C8  790   1.698   8.737   2.322  0.4572 -0.0243  0.1872
   10HK4    C11  791   1.642   8.617   2.277  0.1158  0.0572  0.3917
   10HK4     H4  792   1.713   8.536   2.255  1.1423  1.2112 -0.6408
   10HK4    C12  793   1.514   8.618   2.223  0.3220  0.3092 -0.0951
   10HK4     H5  794   1.464   8.521   2.208  0.2443  0.7712 -3.2983
   10HK4    C13  795   1.453   8.739   2.194 -0.1519  0.1013  0.0206
   10HK4     H6  796   1.363   8.734   2.131 -0.7115 -1.4315  0.9321
   10HK4     C7  797   1.835   8.730   2.377  0.4538 -0.1315  0.1825
   10HK4     O2  798   1.871   8.628   2.436  0.2891 -0.3879 -0.1578
   10HK4     C4  799   1.897   8.861   2.409 -0.0877  0.2472 -0.3159
   10HK4     C3  800   2.035   8.857   2.422 -0.1678 -0.1074  0.4467
   10HK4     H3  801   2.096   8.769   2.398 -1.7672 -0.9521 -0.5558
   10HK4     C2  802   2.100   8.974   2.461  0.5020 -0.1999 -0.3722
   10HK4     H2  803   2.208   8.972   2.481  0.5604  0.6929 -0.5466
   10HK4     C1  804   2.022   9.089   2.471  0.1228 -0.4638 -0.2874
   10HK4     H1  805   2.069   9.188   2.479  1.2931 -1.0238 -0.1992
   10HK4     C6  806   1.882   9.086   2.484  0.1383  0.6021  0.1808
   10HK4     C5  807   1.815   8.972   2.437  0.4003  0.5277 -0.0109
   10HK4    C10  808   1.676   8.978   2.384  0.2943  0.3498  0.2465
   10HK4     O1  809   1.589   9.055   2.425 -0.2833 -0.1491 -0.0334
   10HK4    C16  810   1.818   9.171   2.585 -0.5543  0.3237 -0.0215
   10HK4    C15  811   1.872   9.294   2.629  0.0301  0.1974 -0.3813
   10HK4     H7  812   1.897   9.366   2.551  1.9432  0.1169  0.1372
   10HK4    C20  813   1.853   9.347   2.756  0.6036 -0.3638 -0.0545
   10HK4     H9  814   1.888   9.449   2.770  0.2695 -0.0713 -1.2623
   10HK4    C19  815   1.775   9.281   2.851  0.4184 -0.0381  0.0224
   10HK4    C18  816   1.716   9.156   2.809  0.0263  0.1790 -0.0726
   10HK4    C17  817   1.739   9.107   2.681 -0.0045 -0.2145  0.0713
   10HK4     H8  818   1.692   9.010   2.670  0.4104 -0.2345 -1.6537
   10HK4     N1  819   1.632   9.101   2.909  0.4442 -0.4196 -0.0464
   10HK4    C21  820   1.636   9.196   3.013 -0.4182  0.1416 -0.5160
   10HK4    C22  821   1.720   9.310   2.981  0.0158 -0.0670 -0.1421
   10HK4    C26  822   1.743   9.408   3.077  0.2519 -0.5329  0.2766
   10HK4    H13  823   1.811   9.489   3.049 -0.7320 -0.2339 -1.3089
   10HK4    C25  824   1.690   9.399   3.205 -0.0466  0.0319  0.1926
   10HK4    H12  825   1.693   9.480   3.278 -0.2112 -0.0314  0.2683
   10HK4    C24  826   1.613   9.288   3.236 -0.2576  0.1580  0.1358
   10HK4    H11  827   1.563   9.282   3.334  0.3833  0.5710  0.4882
   10HK4    C23  828   1.586   9.189   3.143  0.6108  0.1488 -0.1082
   10HK4    H10  829   1.502   9.121   3.160 -0.2097  1.1906  0.0421
   10HK4    C39  830   1.534   9.003   2.891 -0.0231 -0.0002  0.2083
   10HK4    C41  831   1.485   8.942   3.009  0.0885 -0.0091  0.2495
   10HK4    H21  832   1.559   8.919   3.087  0.7079  1.6807  0.1928
   10HK4    C42  833   1.352   8.901   3.016  0.1386 -0.2023  0.0823
   10HK4    H22  834   1.323   8.851   3.110  0.6938 -0.1405  0.2876
   10HK4    C43  835   1.261   8.909   2.912  0.1109  0.0960  0.1287
   10HK4    H23  836   1.155   8.881   2.907 -0.5623  2.7764 -1.4756
   10HK4    C44  837   1.312   8.961   2.794  0.1071 -0.0841  0.0467
   10HK4    H24  838   1.237   8.973   2.714  0.1248  0.4552  0.1089
   10HK4    C45  839   1.441   9.012   2.786  0.3478 -0.7161 -0.1877
   10HK4    H25  840   1.453   9.078   2.699  0.0893  0.0485  0.3511
   11HK4    H28  841   7.960   9.818   3.199  1.3154 -1.5426 -0.8556
   11HK4    C48  842   7.872   9.798   3.138 -0.0343  0.4101  0.4089
   11HK4    C47  843   7.799   9.682   3.164 -0.1366  0.3887  0.0331
   11HK4    H27  844   7.786   9.644   3.266 -1.4547 -0.3316 -0.3850
   11HK4    C46  845   7.709   9.638   3.067  0.2824 -0.0075 -0.1763
   11HK4    H26  846   7.662   9.539   3.081  3.3106 -1.9176 -2.8841
   11HK4    C40  847   7.687   9.703   2.944 -0.4881  0.3779  0.1635
   11HK4    C50  848   7.771   9.813   2.920  0.4472 -0.3322  0.1476
   11HK4    H30  849   7.762   9.868   2.825  1.5453 -1.5762 -0.7010
   11HK4    C49  850   7.860   9.861   3.015  0.4790 -0.1947  0.0486
   11HK4    H29  851   7.899   9.963   3.004 -1.6051  0.4969 -1.2220
   11HK4     N2  852   7.587   9.649   2.862 -0.0922  0.2331 -0.2219
   11HK4    C30  853   7.594   9.641   2.722 -0.1127 -0.1322 -0.2037
   11HK4    C29  854   7.709   9.627   2.644  0.0935  0.2694  0.0243
   11HK4    H15  855   7.801   9.629   2.701 -0.7119 -1.8899  1.4917
   11HK4    C28  856   7.705   9.607   2.506  0.2166 -0.0484  0.0675
   11HK4    C27  857   7.579   9.598   2.444  0.2372  0.4514 -0.0384
   11HK4    H14  858   7.558   9.583   2.337 -1.5955  2.4104  0.0063
   11HK4    C32  859   7.464   9.614   2.521  0.1426  0.0108 -0.0903
   11HK4    H16  860   7.369   9.628   2.468 -0.3698  0.5969  0.9792
   11HK4    C31  861   7.465   9.645   2.656 -0.1163  0.3608 -0.1691
   11HK4    C34  862   7.373   9.629   2.766  0.1899  0.0096  0.0350
   11HK4    C33  863   7.451   9.620   2.888 -0.0411  0.3686  0.2091
   11HK4    C35  864   7.387   9.594   3.008  0.1313  0.4444  0.3172
   11HK4    H17  865   7.428   9.567   3.106 -0.7930  0.3257  0.6761
   11HK4    C36  866   7.253   9.557   3.006  0.2411  0.0731 -0.2837
   11HK4    H18  867   7.202   9.518   3.095 -0.4189  2.1105  0.2693
   11HK4    C37  868   7.177   9.565   2.890 -0.2931 -0.1936  0.0485
   11HK4    H19  869   7.069   9.554   2.899 -0.3367  1.8401  2.6420
   11HK4    C38  870   7.236   9.604   2.771  0.2134 -0.0778  0.3344
   11HK4    H20  871   7.166   9.623   2.689 -0.2492 -0.9493  0.5245
   11HK4    C14  872   7.827   9.626   2.426  0.2371  0.9807  0.3405
   11HK4     C9  873   7.829   9.679   2.296 -0.0380  0.0341 -0.0544
   11HK4     C8  874   7.926   9.635   2.204  0.2495  0.1971  0.1682
   11HK4    C11  875   8.029   9.550   2.242  0.0384 -0.2055 -0.1672
   11HK4     H4  876   8.109   9.515   2.175  0.7511  0.6883  0.2230
   11HK4    C12  877   8.036   9.508   2.375 -0.3054  0.2104 -0.0162
   11HK4     H5  878   8.095   9.418   2.398 -0.8355  0.0090  0.5621
   11HK4    C13  879   7.939   9.551   2.464  0.0872  0.6808  0.1894
   11HK4     H6  880   7.954   9.535   2.572 -0.2834  0.4813  0.2135
   11HK4     C7  881   7.930   9.685   2.064 -0.5301 -0.7638 -0.2027
   11HK4     O2  882   8.009   9.638   1.982 -0.4702 -0.1261 -0.5118
   11HK4     C4  883   7.822   9.776   2.022 -0.0947 -0.2442 -0.1975
   11HK4     C3  884   7.833   9.832   1.895 -0.2824  0.0679 -0.0768
   11HK4     H3  885   7.933   9.843   1.851  1.0552 -1.1682  2.5611
   11HK4     C2  886   7.720   9.898   1.847 -0.2358  0.1788 -0.0401
   11HK4     H2  887   7.717   9.936   1.744  1.5798  0.5158  0.0211
   11HK4     C1  888   7.599   9.899   1.915 -0.2237 -0.3667 -0.0056
   11HK4     H1  889   7.511   9.955   1.878 -0.7509 -1.5145 -0.5387
   11HK4     C6  890   7.586   9.841   2.043 -0.0234  0.5953  0.4538
   11HK4     C5  891   7.704   9.791   2.099  0.0069  0.0321 -0.0955
   11HK4    C10  892   7.722   9.770   2.245  0.6604  0.8614 -0.0498
   11HK4     O1  893   7.685   9.860   2.321  0.3652  0.1330  0.6746
   11HK4    C16  894   7.449   9.812   2.087 -0.1007  0.4072  0.0969
   11HK4    C15  895   7.352   9.800   1.986 -0.0803 -0.0646  0.1303
   11HK4     H7  896   7.373   9.760   1.886  1.2328 -1.3377  0.8996
   11HK4    C20  897   7.218   9.837   1.996  0.1610  0.8879 -0.1047
   11HK4     H9  898   7.148   9.823   1.914  0.6447 -0.0516 -0.3573
   11HK4    C19  899   7.177   9.869   2.125 -0.3440 -0.7672  0.1446
   11HK4    C18  900   7.269   9.872   2.237 -0.2733  0.8345  0.0500
   11HK4    C17  901   7.403   9.841   2.215 -0.4547  0.0413  0.0508
   11HK4     H8  902   7.456   9.793   2.298 -0.7048  1.4034  1.0109
   11HK4     N1  903   7.199   9.880   2.359 -0.1741 -0.0621  0.1718
   11HK4    C21  904   7.062   9.895   2.327 -0.0688 -0.0078 -0.2645
   11HK4    C22  905   7.045   9.877   2.184 -0.4708  0.7967 -0.3238
   11HK4    C26  906   6.915   9.855   2.138 -0.2402  0.2718 -0.7309
   11HK4    H13  907   6.898   9.866   2.031 -0.5177  2.0238 -0.5150
   11HK4    C25  908   6.804   9.848   2.222  0.2682  0.3787 -0.0443
   11HK4    H12  909   6.712   9.806   2.181  0.3500 -1.7417  1.8627
   11HK4    C24  910   6.818   9.883   2.356 -0.2890 -0.1042  0.1404
   11HK4    H11  911   6.733   9.887   2.425  0.4350 -1.6184  1.1622
   11HK4    C23  912   6.947   9.905   2.404 -0.1384  0.1931 -0.3955
   11HK4    H10  913   6.952   9.940   2.507  0.2248  3.0221 -1.3095
   11HK4    C39  914   7.256   9.926   2.478  0.6538  0.1116 -0.2935
   11HK4    C41  915   7.199   9.892   2.602  0.2636  0.0086 -0.5035
   11HK4    H21  916   7.111   9.826   2.599  0.2839 -0.0937  0.9950
   11HK4    C42  917   7.247   9.949   2.719  0.4675 -0.6560 -0.2638
   11HK4    H22  918   7.198   9.940   2.817 -0.1595 -0.8944 -0.6012
   11HK4    C43  919   7.339  10.053   2.709  0.2943 -0.5362 -0.6383
   11HK4    H23  920   7.382  10.073   2.807 -0.5488 -1.4202 -0.0811
   11HK4    C44  921   7.392  10.095   2.588  0.4846  0.1406 -0.3206
   11HK4    H24  922   7.453  10.187   2.586  1.3516 -0.4281 -0.4459
   11HK4    C45  923   7.357  10.024   2.474  1.1511 -0.3908 -0.1925
   11HK4    H25  924   7.409  10.047   2.380  1.2082 -1.3613 -0.4058
   12HK4    H28  925   6.338   6.234   3.176  0.2821 -0.7574 -5.5560
   12HK4    C48  926   6.433   6.284   3.190 -0.7356 -0.0979  0.1923
   12HK4    C47  927   6.522   6.286   3.084 -0.4230  0.2757  0.4569
   12HK4    H27  928   6.503   6.210   3.006  0.8558  0.8263 -0.4078
   12HK4    C46  929   6.644   6.352   3.090 -0.1813 -0.1450  0.2368
   12HK4    H26  930   6.691   6.379   2.994  1.0220 -1.0914  0.5421
   12HK4    C40  931   6.687   6.413   3.209  0.0085 -0.1659  0.1793
   12HK4    C50  932   6.603   6.394   3.320 -0.0820 -0.1069  0.1191
   12HK4    H30  933   6.645   6.407   3.421  2.6977  0.8977 -1.1447
   12HK4    C49  934   6.474   6.342   3.310 -0.2815  0.4583 -0.2322
   12HK4    H29  935   6.407   6.340   3.397  0.8089  1.3758  0.6452
   12HK4     N2  936   6.807   6.485   3.219 -0.1493  0.1280 -0.0403
   12HK4    C30  937   6.913   6.475   3.127  0.3467  0.2019  0.5198
   12HK4    C29  938   6.960   6.366   3.053  0.2454  0.4966  0.0191
   12HK4    H15  939   6.911   6.269   3.063  0.8029  0.5593  3.9852
   12HK4    C28  940   7.063   6.372   2.960  0.2369  0.6278  0.0202
   12HK4    C27  941   7.138   6.492   2.958  0.6399  0.3684 -0.3370
   12HK4    H14  942   7.232   6.493   2.900  2.2169  1.4330  2.1448
   12HK4    C32  943   7.098   6.598   3.038 -0.0536 -0.0708 -0.0917
   12HK4    H16  944   7.156   6.688   3.017  0.7078 -1.2990 -3.5914
   12HK4    C31  945   6.986   6.600   3.119  0.1131  0.3151  0.1342
   12HK4    C34  946   6.931   6.687   3.222 -0.3061  0.2060  0.0049
   12HK4    C33  947   6.818   6.614   3.275 -0.3598  0.1877 -0.1349
   12HK4    C35  948   6.746   6.663   3.384  0.0730 -0.4833  0.4672
   12HK4    H17  949   6.640   6.638   3.388 -0.6664  2.1171 -1.0146
   12HK4    C36  950   6.775   6.789   3.435 -0.1402 -0.2079 -0.0771
   12HK4    H18  951   6.705   6.835   3.507  0.7511  0.9138  0.0942
   12HK4    C37  952   6.885   6.858   3.387 -0.1829  0.0011  0.1198
   12HK4    H19  953   6.888   6.963   3.418 -2.7963 -0.1515  0.9445
   12HK4    C38  954   6.962   6.809   3.282 -0.4234  0.3472 -0.2198
   12HK4    H20  955   7.066   6.840   3.288  0.1106 -1.0525 -1.7381
   12HK4    C14  956   7.088   6.267   2.861 -0.0410  0.2561  0.3403
   12HK4     C9  957   7.202   6.260   2.780 -0.3289  0.9647 -0.1366
   12HK4     C8  958   7.192   6.227   2.643 -0.2679 -0.2522  0.1422
   12HK4    C11  959   7.069   6.194   2.586 -0.0483 -0.4171 -0.2466
   12HK4     H4  960   7.057   6.172   2.479 -1.4769 -0.5160 -0.0746
   12HK4    C12  961   6.959   6.182   2.670  0.0157 -0.3820 -0.1576
   12HK4     H5  962   6.872   6.124   2.636 -0.2855  1.1768 -2.1323
   12HK4    C13  963   6.968   6.222   2.803  0.4961 -0.6062 -0.1208
   12HK4     H6  964   6.869   6.227   2.852  1.6797  0.9632  2.1658
   12HK4     C7  965   7.305   6.255   2.552 -0.4491  0.1379  0.0349
   12HK4     O2  966   7.294   6.238   2.430  0.0444  0.2997 -0.0361
   12HK4     C4  967   7.434   6.305   2.605 -0.2345 -0.1699 -0.1932
   12HK4     C3  968   7.536   6.329   2.515  0.3115 -0.5000  0.3307
   12HK4     H3  969   7.505   6.343   2.410 -0.0916 -0.4421  0.4570
   12HK4     C2  970   7.659   6.379   2.557  0.4620 -0.6218  0.0357
   12HK4     H2  971   7.748   6.347   2.500  0.3799 -0.7780 -0.0044
   12HK4     C1  972   7.674   6.398   2.693  0.2735 -0.0939 -0.0180
   12HK4     H1  973   7.775   6.429   2.725 -0.1235 -1.1913  2.4537
   12HK4     C6  974   7.575   6.372   2.790 -0.3133  0.1821 -0.5430
   12HK4     C5  975   7.454   6.319   2.744 -0.3619 -0.0114 -0.1908
   12HK4    C10  976   7.339   6.282   2.832 -0.1675 -0.2375 -0.0322
   12HK4     O1  977   7.370   6.216   2.931 -0.5941  0.4192  0.5413
   12HK4    C16  978   7.604   6.410   2.929 -0.2016 -0.4305 -0.3945
   12HK4    C15  979   7.738   6.402   2.969 -0.2310  0.5745 -0.0748
   12HK4     H7  980   7.798   6.325   2.918  0.7921  1.9375 -0.9604
   12HK4    C20  981   7.792   6.476   3.074  0.3529  0.7885 -0.5238
   12HK4     H9  982   7.893   6.458   3.110  0.6537  0.9336 -1.2963
   12HK4    C19  983   7.705   6.558   3.144 -0.1357 -0.0714 -0.1117
   12HK4    C18  984   7.562   6.556   3.118 -0.1674 -0.6001  0.1087
   12HK4    C17  985   7.516   6.483   3.009  0.0369 -0.6051  0.0263
   12HK4     H8  986   7.410   6.481   2.985 -0.0446 -1.5843  0.4795
   12HK4     N1  987   7.493   6.612   3.228  0.3394 -0.2285  0.2394
   12HK4    C21  988   7.585   6.679   3.311  0.5489  0.2634 -0.3826
   12HK4    C22  989   7.716   6.643   3.261  0.5398 -0.3478  0.0221
   12HK4    C26  990   7.828   6.704   3.317 -0.0148  0.3636  0.3617
   12HK4    H13  991   7.930   6.673   3.292  0.0156  1.0193 -0.3458
   12HK4    C25  992   7.812   6.801   3.415  0.0449  0.2859  0.4491
   12HK4    H12  993   7.898   6.839   3.471 -1.2302  0.9075  2.0363
   12HK4    C24  994   7.686   6.849   3.451 -0.0533  0.5396 -0.2322
   12HK4    H11  995   7.678   6.932   3.522 -3.7207 -0.0897  0.1641
   12HK4    C23  996   7.574   6.784   3.400  0.2031 -0.0876 -0.0083
   12HK4    H10  997   7.471   6.809   3.424 -0.1067 -2.5128  1.3322
   12HK4    C39  998   7.371   6.560   3.274  0.1554  0.1949  0.2358
   12HK4    C41  999   7.284   6.632   3.359 -0.3011  0.4198 -0.4211
   12HK4    H21 1000   7.298   6.741   3.362 -2.1706  0.6568 -0.1864
   12HK4    C42 1001   7.187   6.574   3.439  0.4818  0.0576  0.2736
   12HK4    H22 1002   7.125   6.622   3.516 -0.0394  0.2682 -0.2771
   12HK4    C43 1003   7.169   6.436   3.433 -0.1638  0.1697 -0.4631
   12HK4    H23 1004   7.101   6.379   3.497 -0.0024 -0.5800 -0.9508
   12HK4    C44 1005   7.256   6.362   3.353  0.7023 -0.0649  0.6760
   12HK4    H24 1006   7.272   6.257   3.378  1.1030 -0.1673 -0.0036
   12HK4    C45 1007   7.351   6.421   3.270  0.5395  0.1258  0.6222
   12HK4    H25 1008   7.419   6.352   3.218 -0.3029 -0.4739  0.2935
   13HK4    H28 1009   9.576   6.668   6.801  1.6103  2.1573  0.4706
   13HK4    C48 1010   9.491   6.737   6.800 -0.2315 -0.0506 -0.4349
   13HK4    C47 1011   9.422   6.758   6.918  0.0676 -0.6102 -0.1582
   13HK4    H27 1012   9.468   6.714   7.007 -0.7759 -1.1974 -0.0004
   13HK4    C46 1013   9.308   6.838   6.924  0.5205  0.0192  0.2059
   13HK4    H26 1014   9.264   6.855   7.024 -0.7032 -1.9912  0.0546
   13HK4    C40 1015   9.274   6.911   6.809  0.3976  0.0998  0.2924
   13HK4    C50 1016   9.340   6.882   6.688  0.2638  1.0175 -0.0029
   13HK4    H30 1017   9.298   6.914   6.591  2.7474  0.3692 -1.3273
   13HK4    C49 1018   9.447   6.794   6.681 -0.0147  0.6853 -0.1668
   13HK4    H29 1019   9.493   6.771   6.583  0.1213  2.1382 -0.4603
   13HK4     N2 1020   9.150   6.976   6.800  0.2000 -0.3612 -0.4630
   13HK4    C30 1021   9.034   6.949   6.875 -0.0320  0.0757 -0.6640
   13HK4    C29 1022   8.998   6.827   6.932 -0.2488  0.4974  0.1131
   13HK4    H15 1023   9.047   6.737   6.896 -2.1917 -1.2411  1.6811
   13HK4    C28 1024   8.873   6.798   6.985 -0.1199  0.5225  0.4278
   13HK4    C27 1025   8.789   6.911   6.976 -0.5099  0.2168  0.1558
   13HK4    H14 1026   8.693   6.908   7.029  1.4298  1.1119  3.8929
   13HK4    C32 1027   8.817   7.039   6.927  0.1439  0.1424  0.3277
   13HK4    H16 1028   8.734   7.110   6.926 -1.7271 -1.9555 -0.5947
   13HK4    C31 1029   8.941   7.060   6.869 -0.0886  0.0523 -0.2043
   13HK4    C34 1030   8.996   7.162   6.782  0.4538  0.1089  0.2087
   13HK4    C33 1031   9.124   7.103   6.745  0.2361 -0.1874 -0.0801
   13HK4    C35 1032   9.187   7.170   6.641 -0.3676  0.0642 -0.2883
   13HK4    H17 1033   9.292   7.145   6.624 -0.2134 -0.5909  1.4804
   13HK4    C36 1034   9.138   7.282   6.574  0.3631  0.4312 -0.2183
   13HK4    H18 1035   9.188   7.322   6.485 -1.0371  0.0784 -1.1855
   13HK4    C37 1036   9.016   7.335   6.612  0.3047  0.0985  0.0592
   13HK4    H19 1037   8.998   7.442   6.606  0.1114  0.2449  2.4996
   13HK4    C38 1038   8.943   7.269   6.711  0.3346 -0.1385 -0.0771
   13HK4    H20 1039   8.842   7.299   6.737 -0.0652 -0.8164 -0.8317
   13HK4    C14 1040   8.833   6.659   7.013 -0.0334  0.2480 -0.7651
   13HK4     C9 1041   8.702   6.610   7.011 -0.0532  0.2693  0.0703
   13HK4     C8 1042   8.672   6.498   7.090  0.1150  0.5309  0.5096
   13HK4    C11 1043   8.772   6.423   7.150  0.4793  0.4672 -0.1680
   13HK4     H4 1044   8.758   6.320   7.185  0.4578  1.4604  2.9304
   13HK4    C12 1045   8.905   6.462   7.145  0.4589  0.5282 -0.2260
   13HK4     H5 1046   8.980   6.401   7.198 -0.7735  0.5570  1.5975
   13HK4    C13 1047   8.932   6.577   7.072 -0.0176  0.5374 -0.3864
   13HK4     H6 1048   9.036   6.611   7.071  1.4957 -3.7494  1.2528
   13HK4     C7 1049   8.533   6.449   7.103  0.4066 -0.4805 -0.1677
   13HK4     O2 1050   8.511   6.344   7.164  0.0955 -0.4730 -0.2641
   13HK4     C4 1051   8.420   6.516   7.035  0.3226 -0.9719 -0.5247
   13HK4     C3 1052   8.287   6.488   7.064  0.4147 -0.3429  0.5339
   13HK4     H3 1053   8.258   6.418   7.144 -1.9904 -1.9539 -1.6519
   13HK4     C2 1054   8.176   6.551   7.009  0.7193 -0.4147 -0.1829
   13HK4     H2 1055   8.074   6.510   7.009  1.2026 -1.6653 -1.3536
   13HK4     C1 1056   8.213   6.659   6.930  0.4008  0.1020  0.3752
   13HK4     H1 1057   8.131   6.717   6.885 -0.4830  0.2289  2.1021
   13HK4     C6 1058   8.345   6.700   6.903  0.2189  0.4007 -0.0545
   13HK4     C5 1059   8.452   6.621   6.946 -0.2858 -0.1261  0.2473
   13HK4    C10 1060   8.594   6.660   6.921 -0.2293 -0.6339 -0.2250
   13HK4     O1 1061   8.629   6.698   6.809 -0.0896 -0.3679 -0.0921
   13HK4    C16 1062   8.340   6.845   6.880  0.0220  0.4253  0.1408
   13HK4    C15 1063   8.256   6.933   6.951 -0.3560 -0.1268  0.3761
   13HK4     H7 1064   8.213   6.887   7.042  0.1281  0.7827  1.0711
   13HK4    C20 1065   8.244   7.069   6.927  0.1726 -0.2022 -0.3421
   13HK4     H9 1066   8.160   7.126   6.968  0.1332 -1.1686  0.9508
   13HK4    C19 1067   8.311   7.123   6.818 -0.1466  0.3743 -0.2581
   13HK4    C18 1068   8.387   7.031   6.735 -0.1274  0.1577  0.0005
   13HK4    C17 1069   8.407   6.898   6.770 -0.4777  0.0115 -0.3638
   13HK4     H8 1070   8.467   6.833   6.706 -2.9015 -2.5762 -0.0996
   13HK4     N1 1071   8.458   7.102   6.636  0.1316 -0.0560  0.0313
   13HK4    C21 1072   8.424   7.237   6.660  0.6675 -0.0012  0.5059
   13HK4    C22 1073   8.319   7.255   6.759 -0.1283  0.3187 -0.3833
   13HK4    C26 1074   8.275   7.384   6.787 -0.4618  0.1199  0.0036
   13HK4    H13 1075   8.189   7.396   6.853 -0.4554 -0.6089  0.1533
   13HK4    C25 1076   8.338   7.491   6.725 -0.1699 -0.2270 -0.3071
   13HK4    H12 1077   8.303   7.593   6.745 -0.7259 -0.0431 -2.1052
   13HK4    C24 1078   8.438   7.475   6.631  0.0744  0.1597 -0.1150
   13HK4    H11 1079   8.471   7.567   6.579  3.5084 -0.5242  0.7615
   13HK4    C23 1080   8.482   7.347   6.599  0.1925  0.1107  0.2514
   13HK4    H10 1081   8.582   7.334   6.557  0.7607 -2.1451  2.1840
   13HK4    C39 1082   8.563   7.053   6.557  0.0381 -0.0450 -0.0982
   13HK4    C41 1083   8.589   7.094   6.425  0.1098  0.3793  0.0451
   13HK4    H21 1084   8.509   7.139   6.365 -1.1941 -1.9597 -0.0148
   13HK4    C42 1085   8.714   7.086   6.364 -0.1655 -0.1663 -0.4544
   13HK4    H22 1086   8.741   7.148   6.277 -1.3099  1.9643  0.6666
   13HK4    C43 1087   8.818   7.026   6.433 -0.1447 -0.0080 -0.3439
   13HK4    H23 1088   8.907   6.995   6.378 -0.0014 -0.7252  0.2830
   13HK4    C44 1089   8.799   6.981   6.563  0.0565  0.3071 -0.2033
   13HK4    H24 1090   8.881   6.945   6.627  1.0675  0.3637 -1.4587
   13HK4    C45 1091   8.673   6.995   6.622  0.1952  0.4324  0.0602
   13HK4    H25 1092   8.663   6.953   6.724 -1.0114 -1.5377 -0.8436
   14HK4    H28 1093   0.304   0.364   5.764 -1.3708  1.1829 -0.1949
   14HK4    C48 1094   0.304   0.289   5.686  0.0957  0.1730  0.7562
   14HK4    C47 1095   0.193   0.265   5.605  0.8517  0.0656 -0.2664
   14HK4    H27 1096   0.102   0.326   5.612 -0.4341 -1.8574  0.1572
   14HK4    C46 1097   0.202   0.159   5.517 -0.6175 -0.1358 -0.1810
   14HK4    H26 1098   0.103   0.114   5.498 -1.8857  2.7378 -0.6132
   14HK4    C40 1099   0.318   0.081   5.495 -0.3621  0.1500  0.1617
   14HK4    C50 1100   0.425   0.108   5.583 -0.6619  0.2257  0.5084
   14HK4    H30 1101   0.521   0.057   5.564 -1.5575 -1.0460 -0.8491
   14HK4    C49 1102   0.416   0.206   5.680  0.3255  0.5115  0.3188
   14HK4    H29 1103   0.497   0.214   5.755  1.5482  0.5340 -0.9861
   14HK4     N2 1104   0.343   0.024   5.370 -0.0334  0.2916  0.1628
   14HK4    C30 1105   0.300   0.057   5.240  0.3194 -0.0998 -0.0540
   14HK4    C29 1106   0.216   0.161   5.203  0.6147  0.2330  0.2056
   14HK4    H15 1107   0.223   0.245   5.271  1.8762 -0.4676  0.9621
   14HK4    C28 1108   0.172   0.172   5.071 -0.1354  0.0272  0.4373
   14HK4    C27 1109   0.238   0.095   4.973 -0.2615 -0.3653  0.6571
   14HK4    H14 1110   0.223   0.107   4.865 -0.6457  1.1842  0.8580
   14HK4    C32 1111   0.318  11.235   5.006  0.2420 -0.1700  0.0945
   14HK4    H16 1112   0.322  11.159   4.928  1.3855  2.3801 -2.3986
   14HK4    C31 1113   0.348  11.211   5.140  0.3382 -0.2185  0.0656
   14HK4    C34 1114   0.423  11.112   5.214  0.3331 -0.1142  0.2058
   14HK4    C33 1115   0.412  11.150   5.354  0.0492  0.3515  0.0566
   14HK4    C35 1116   0.468  11.057   5.442 -0.2270  0.2064  0.0790
   14HK4    H17 1117   0.462  11.084   5.547 -1.6785  0.9311 -0.1689
   14HK4    C36 1118   0.523  10.938   5.395  0.4192  0.5650 -0.0816
   14HK4    H18 1119   0.548  10.862   5.470 -1.0100  3.0080  2.9890
   14HK4    C37 1120   0.542  10.907   5.261 -0.0554  0.0490 -0.0325
   14HK4    H19 1121   0.610  10.832   5.219 -0.7186 -0.3749 -0.3594
   14HK4    C38 1122   0.483  10.994   5.171  0.1889 -0.0177 -0.2579
   14HK4    H20 1123   0.484  10.971   5.064  0.3108  1.7862 -0.6658
   14HK4    C14 1124   0.038   0.223   5.041  0.1332  0.2408 -0.4020
   14HK4     C9 1125  11.212   0.170   4.934  0.3829  0.1029 -0.5075
   14HK4     C8 1126  11.127   0.249   4.855 -0.3105 -0.0964  0.0306
   14HK4    C11 1127  11.099   0.377   4.902  0.1631  0.1054 -0.2352
   14HK4     H4 1128  11.022   0.436   4.850  1.4380  1.8085 -0.2446
   14HK4    C12 1129  11.161   0.424   5.017  0.1035  0.2764 -0.2713
   14HK4     H5 1130  11.133   0.524   5.053 -0.5579  0.6703 -1.8212
   14HK4    C13 1131   0.006   0.351   5.091  0.0929  0.2026 -0.3283
   14HK4     H6 1132   0.068   0.408   5.161 -0.2176  1.9643 -1.4343
   14HK4     C7 1133  11.062   0.194   4.733 -0.0381 -0.0309 -0.1431
   14HK4     O2 1134  10.990   0.265   4.664 -0.6844 -0.0211  0.5342
   14HK4     C4 1135  11.088   0.054   4.693 -0.2215 -0.1640  0.1960
   14HK4     C3 1136  11.072   0.018   4.559  0.6201  0.1812 -0.0083
   14HK4     H3 1137  11.039   0.096   4.489 -1.4266  1.3163  2.1360
   14HK4     C2 1138  11.111  11.142   4.511  0.0304 -0.1853  0.4431
   14HK4     H2 1139  11.057  11.101   4.424 -0.2876  1.1307  0.0101
   14HK4     C1 1140  11.163  11.052   4.604  0.3987 -0.4319 -0.0013
   14HK4     H1 1141  11.207  10.963   4.558  1.7572  0.3440 -0.2318
   14HK4     C6 1142  11.171  11.080   4.742  0.1562 -0.0383 -0.0678
   14HK4     C5 1143  11.142  11.210   4.785  0.0175 -0.1248  0.0993
   14HK4    C10 1144  11.206   0.024   4.904  0.3478  0.0308 -0.1598
   14HK4     O1 1145  11.229  11.202   5.002  0.1290 -0.1163 -0.2143
   14HK4    C16 1146  11.214  10.963   4.819 -0.1343 -0.0677  0.0478
   14HK4    C15 1147   0.041  10.857   4.764  0.0586  0.2257 -0.2612
   14HK4     H7 1148   0.105  10.884   4.678 -0.5608 -1.4298 -1.2696
   14HK4    C20 1149   0.043  10.726   4.812  0.4123  0.1933 -0.3598
   14HK4     H9 1150   0.116  10.655   4.775 -1.8402 -1.6789 -1.3845
   14HK4    C19 1151  11.226  10.702   4.932  0.5577  0.4115 -0.2378
   14HK4    C18 1152  11.159  10.810   5.001 -0.3915 -0.0789 -0.3775
   14HK4    C17 1153  11.146  10.933   4.936 -0.0916  0.2274  0.1466
   14HK4     H8 1154  11.054  10.988   4.958  0.3867  2.0119 -2.1575
   14HK4     N1 1155  11.111  10.777   5.129  0.6221 -0.0143  0.0198
   14HK4    C21 1156  11.136  10.639   5.140 -0.4728 -0.2350 -0.2897
   14HK4    C22 1157  11.215  10.593   5.027  0.3417  0.5869 -0.0628
   14HK4    C26 1158  11.226  10.455   5.011  0.0104  0.5403  0.0820
   14HK4    H13 1159   0.033  10.427   4.922 -0.1068 -0.1647  0.2243
   14HK4    C25 1160  11.170  10.365   5.101 -0.4961  0.4157 -0.3622
   14HK4    H12 1161  11.186  10.259   5.079  1.8341  0.5317  0.5743
   14HK4    C24 1162  11.090  10.411   5.204  0.4035 -0.2217  0.6387
   14HK4    H11 1163  11.046  10.342   5.277  0.7151 -0.8162  0.2650
   14HK4    C23 1164  11.077  10.548   5.227  0.5497 -0.1771  0.4674
   14HK4    H10 1165  11.047  10.593   5.322 -1.1370  0.4566 -0.3537
   14HK4    C39 1166  11.121  10.870   5.234 -0.4784 -0.3749  0.4489
   14HK4    C41 1167  11.054  10.857   5.357  0.2040 -0.2697  0.8350
   14HK4    H21 1168  10.950  10.820   5.354 -0.0494  0.5350 -0.4698
   14HK4    C42 1169  11.102  10.892   5.482  0.1095 -0.6415  0.9788
   14HK4    H22 1170  11.046  10.896   5.577  1.1032 -0.0817  1.5605
   14HK4    C43 1171  11.229  10.949   5.487 -0.2241  0.2075 -0.1558
   14HK4    H23 1172   0.031  10.962   5.583  2.7775 -0.3848 -1.5859
   14HK4    C44 1173   0.049  10.978   5.369 -0.4756 -0.2304 -0.4089
   14HK4    H24 1174   0.135  11.046   5.375 -0.9948  0.3729  0.2524
   14HK4    C45 1175  11.241  10.943   5.247 -0.7277  0.2034 -0.4196
   14HK4    H25 1176   0.044  10.975   5.155  0.0421  1.7909  0.5338
   15HK4    H28 1177  10.930   4.682   0.285 -0.4693  1.5169  0.6469
   15HK4    C48 1178  10.832   4.645   0.315 -0.1323  0.2724  0.2390
   15HK4    C47 1179  10.802   4.606   0.445 -0.2927 -0.1252  0.0851
   15HK4    H27 1180  10.880   4.601   0.523  0.1813 -0.8757 -0.4231
   15HK4    C46 1181  10.672   4.568   0.476 -0.4221  0.1148 -0.1636
   15HK4    H26 1182  10.642   4.550   0.580 -0.4541  1.9376  0.1652
   15HK4    C40 1183  10.572   4.559   0.378 -0.1680 -0.1720 -0.3954
   15HK4    C50 1184  10.601   4.597   0.245  0.0992 -0.5122 -0.4349
   15HK4    H30 1185  10.538   4.569   0.159  0.4602 -1.1385 -0.4991
   15HK4    C49 1186  10.731   4.640   0.219 -0.0394  0.2736  0.1427
   15HK4    H29 1187  10.752   4.690   0.124  1.4645 -0.6735 -0.0469
   15HK4     N2 1188  10.454   4.487   0.403  0.0987 -0.5156 -0.1170
   15HK4    C30 1189  10.441   4.391   0.505 -0.0379  0.7192  1.0333
   15HK4    C29 1190  10.536   4.308   0.566  0.0037 -0.3569 -0.4733
   15HK4    H15 1191  10.638   4.334   0.539 -0.1916  1.2013  0.2125
   15HK4    C28 1192  10.492   4.218   0.662 -0.0717  0.1708 -0.0121
   15HK4    C27 1193  10.357   4.196   0.693 -0.1395  0.2075 -0.2639
   15HK4    H14 1194  10.329   4.104   0.747 -0.8216 -0.0146 -0.9828
   15HK4    C32 1195  10.262   4.277   0.632 -0.2990  0.2753  0.0672
   15HK4    H16 1196  10.154   4.272   0.649 -0.6475  2.8044 -1.1573
   15HK4    C31 1197  10.303   4.379   0.547 -0.3839  0.0314 -0.2713
   15HK4    C34 1198  10.232   4.473   0.462 -0.3445  0.7258  0.4566
   15HK4    C33 1199  10.327   4.540   0.375  0.2274  0.2362  0.7027
   15HK4    C35 1200  10.289   4.662   0.321 -0.2661 -0.2699 -0.1076
   15HK4    H17 1201  10.360   4.716   0.259 -1.8148  0.1821 -1.5229
   15HK4    C36 1202  10.160   4.706   0.347 -0.0684  0.1868  0.1048
   15HK4    H18 1203  10.121   4.802   0.309  1.3526  0.2334 -1.2911
   15HK4    C37 1204  10.063   4.635   0.417  0.0717 -0.2183 -0.1165
   15HK4    H19 1205   9.962   4.674   0.420  0.4531  0.6901  2.3354
   15HK4    C38 1206  10.100   4.515   0.477 -0.8798 -0.6294 -0.3392
   15HK4    H20 1207  10.028   4.445   0.519  1.0287 -3.4515 -1.5910
   15HK4    C14 1208  10.592   4.123   0.714 -0.0782  0.5382  0.6788
   15HK4     C9 1209  10.567   3.990   0.752  0.2344  0.2817  0.0020
   15HK4     C8 1210  10.639   3.933   0.859 -0.5583 -0.6136  0.0686
   15HK4    C11 1211  10.737   4.005   0.926 -0.5706  0.0195 -0.5876
   15HK4     H4 1212  10.793   3.967   1.012  0.7572 -0.9894 -1.8596
   15HK4    C12 1213  10.773   4.131   0.878  0.1216  0.0046 -0.1171
   15HK4     H5 1214  10.831   4.191   0.949 -0.2763  0.6950 -0.3776
   15HK4    C13 1215  10.705   4.185   0.769  0.2025  0.5460  0.1037
   15HK4     H6 1216  10.751   4.266   0.710  0.3403 -0.2074 -0.8413
   15HK4     C7 1217  10.630   3.787   0.882  0.0902 -0.7100 -0.2708
   15HK4     O2 1218  10.652   3.737   0.991 -0.5926  0.5259  0.4469
   15HK4     C4 1219  10.571   3.702   0.776  0.0870 -0.3752 -0.5405
   15HK4     C3 1220  10.589   3.565   0.788  0.0130 -0.3589 -0.2558
   15HK4     H3 1221  10.674   3.522   0.845  2.1792  1.6708 -1.8658
   15HK4     C2 1222  10.515   3.469   0.721  0.2950 -0.5093 -0.3534
   15HK4     H2 1223  10.529   3.360   0.719  1.1881 -0.5012  2.5327
   15HK4     C1 1224  10.413   3.526   0.645  0.4834 -0.1791 -0.3588
   15HK4     H1 1225  10.356   3.457   0.581 -1.1251  2.1777 -1.5369
   15HK4     C6 1226  10.387   3.664   0.633 -0.0554 -0.1913  0.6229
   15HK4     C5 1227  10.474   3.757   0.689  0.1775  0.1565 -0.2989
   15HK4    C10 1228  10.482   3.904   0.665 -0.0056  0.2616  0.2540
   15HK4     O1 1229  10.485   3.921   0.543 -0.2444 -0.4436  0.1451
   15HK4    C16 1230  10.244   3.691   0.610  0.1265  0.3511  0.1181
   15HK4    C15 1231  10.138   3.616   0.664  0.4654 -0.2057  0.0115
   15HK4     H7 1232  10.154   3.521   0.718 -3.1207 -0.4709  0.7282
   15HK4    C20 1233  10.003   3.647   0.647  0.3615 -0.6332  0.0378
   15HK4     H9 1234   9.926   3.608   0.713  0.0369  0.0015  0.0433
   15HK4    C19 1235   9.973   3.751   0.559 -0.1013 -0.3728  0.5027
   15HK4    C18 1236  10.080   3.820   0.491 -0.3966 -0.2468  0.1648
   15HK4    C17 1237  10.213   3.791   0.519 -0.2775 -0.1747 -0.3233
   15HK4     H8 1238  10.284   3.814   0.439 -2.0018  1.9729 -1.2927
   15HK4     N1 1239  10.024   3.917   0.405 -0.1111 -0.3334 -0.1222
   15HK4    C21 1240   9.883   3.909   0.413 -0.1274  0.0370  0.0429
   15HK4    C22 1241   9.851   3.791   0.492  0.4246 -0.5130 -0.5453
   15HK4    C26 1242   9.720   3.745   0.505  0.2870  0.0776  0.2345
   15HK4    H13 1243   9.703   3.649   0.552 -1.4775 -0.5065 -1.5199
   15HK4    C25 1244   9.614   3.818   0.453  0.1783 -0.0727  0.2457
   15HK4    H12 1245   9.509   3.790   0.462 -0.4612  1.4825 -1.9219
   15HK4    C24 1246   9.648   3.931   0.379 -0.2098  0.6957  1.2218
   15HK4    H11 1247   9.566   3.997   0.349  0.2554  1.3896  1.4723
   15HK4    C23 1248   9.777   3.977   0.355 -0.1529 -0.1559 -0.1312
   15HK4    H10 1249   9.802   4.063   0.293  2.2734 -0.3632  0.4866
   15HK4    C39 1250  10.093   4.016   0.334 -0.0399 -0.2021  0.1294
   15HK4    C41 1251  10.036   4.085   0.225 -0.1670  0.3068  0.5137
   15HK4    H21 1252   9.957   4.030   0.172 -2.0149 -0.4088  3.8874
   15HK4    C42 1253  10.108   4.177   0.148 -0.4477  0.0128 -0.0989
   15HK4    H22 1254  10.059   4.251   0.084  0.3243  0.7451  0.1571
   15HK4    C43 1255  10.242   4.201   0.174 -0.4250 -0.3870  0.1784
   15HK4    H23 1256  10.292   4.280   0.117 -1.7332 -0.9325 -1.7762
   15HK4    C44 1257  10.304   4.138   0.281 -0.1903  0.1273  0.3464
   15HK4    H24 1258  10.412   4.144   0.302  0.4827  1.6001 -3.2732
   15HK4    C45 1259  10.226   4.053   0.359 -0.2038  0.2059  0.4171
   15HK4    H25 1260  10.266   4.049   0.462  0.9869 -1.6977 -0.0797
   16HK4    H28 1261   9.123   3.311   8.360  0.7670 -0.3453 -1.5197
   16HK4    C48 1262   9.121   3.210   8.401 -0.5809  0.4118  0.3553
   16HK4    C47 1263   9.211   3.173   8.501 -0.3761  0.0539  0.0397
   16HK4    H27 1264   9.265   3.259   8.544 -4.9263  2.3410  1.5435
   16HK4    C46 1265   9.196   3.055   8.572 -0.0904  0.2199  0.3760
   16HK4    H26 1266   9.256   3.038   8.663  2.8662  0.4074 -1.4734
   16HK4    C40 1267   9.096   2.960   8.547  0.0621  0.0298  0.4856
   16HK4    C50 1268   9.012   2.993   8.438 -0.1597 -0.2932  0.5579
   16HK4    H30 1269   8.929   2.927   8.408  1.5106 -2.5729  0.8029
   16HK4    C49 1270   9.023   3.115   8.374 -0.0695 -0.2213  0.7133
   16HK4    H29 1271   8.954   3.132   8.291  3.1983 -1.6716 -2.4065
   16HK4     N2 1272   9.082   2.836   8.612 -0.0661  0.1812  0.7465
   16HK4    C30 1273   9.182   2.766   8.681  0.6182  0.2873 -0.1387
   16HK4    C29 1274   9.311   2.754   8.630  0.3940 -0.1444 -0.6168
   16HK4    H15 1275   9.356   2.847   8.593  0.9776 -0.4998 -0.8041
   16HK4    C28 1276   9.380   2.637   8.656 -0.0952 -0.2409  0.2387
   16HK4    C27 1277   9.324   2.535   8.735  0.4057 -0.1908  0.6635
   16HK4    H14 1278   9.388   2.453   8.773  0.3095 -0.3115  0.5598
   16HK4    C32 1279   9.194   2.545   8.782  0.0798  0.5093 -0.3742
   16HK4    H16 1280   9.150   2.477   8.855  0.3548  1.1438  0.3916
   16HK4    C31 1281   9.119   2.658   8.754  0.2433  0.7748  0.2510
   16HK4    C34 1282   8.975   2.676   8.747  0.0671 -0.5106  0.4360
   16HK4    C33 1283   8.957   2.787   8.656  0.1034 -0.2717  0.7161
   16HK4    C35 1284   8.826   2.828   8.636  0.2543  0.0246  0.2918
   16HK4    H17 1285   8.797   2.919   8.583  1.9314  1.9889  2.5994
   16HK4    C36 1286   8.723   2.768   8.708  0.0579  0.2601  0.2024
   16HK4    H18 1287   8.624   2.810   8.684 -0.5144  0.1601  2.2914
   16HK4    C37 1288   8.740   2.662   8.796  0.1314 -0.1679 -0.3250
   16HK4    H19 1289   8.655   2.620   8.849 -0.2004  1.3792  0.4026
   16HK4    C38 1290   8.869   2.614   8.814 -0.0230 -0.3113  0.4709
   16HK4    H20 1291   8.883   2.561   8.908  1.5649 -1.0813 -0.1737
   16HK4    C14 1292   9.508   2.606   8.590 -0.3097 -0.1113 -0.2342
   16HK4     C9 1293   9.558   2.477   8.571  0.4074  0.1617 -0.2096
   16HK4     C8 1294   9.695   2.445   8.576  0.3339 -0.0884  0.1812
   16HK4    C11 1295   9.784   2.549   8.603  0.3705 -0.0448 -0.1116
   16HK4     H4 1296   9.890   2.530   8.584  1.0334  1.5134  1.9066
   16HK4    C12 1297   9.739   2.680   8.616 -0.0154 -0.2566  0.7195
   16HK4     H5 1298   9.805   2.755   8.660  0.9167 -0.2171 -0.7275
   16HK4    C13 1299   9.604   2.709   8.599  0.1329 -0.4621 -0.9152
   16HK4     H6 1300   9.579   2.815   8.584  3.3954  0.4685 -0.0766
   16HK4     C7 1301   9.750   2.309   8.554 -0.3365 -0.3393  0.0576
   16HK4     O2 1302   9.858   2.271   8.598 -0.2076  0.2109  0.2290
   16HK4     C4 1303   9.658   2.214   8.489 -0.3889 -0.2554  0.0053
   16HK4     C3 1304   9.690   2.078   8.489 -0.2375 -0.2197  0.3168
   16HK4     H3 1305   9.770   2.040   8.553  2.7775  1.2288 -2.4539
   16HK4     C2 1306   9.607   1.993   8.416  0.2584  0.0765 -0.6033
   16HK4     H2 1307   9.624   1.884   8.413 -0.0154 -0.1644  3.3881
   16HK4     C1 1308   9.507   2.049   8.339 -0.9289 -0.5807  0.4494
   16HK4     H1 1309   9.469   1.979   8.262  0.3446 -1.2321  0.4103
   16HK4     C6 1310   9.474   2.186   8.335 -0.3550 -0.4446  0.4334
   16HK4     C5 1311   9.542   2.266   8.428  0.0889  0.2465 -0.4757
   16HK4    C10 1312   9.474   2.381   8.494  0.1993 -0.2706  0.5463
   16HK4     O1 1313   9.352   2.377   8.506  0.1657  0.3473  0.4001
   16HK4    C16 1314   9.401   2.229   8.215 -0.0086 -0.0009  0.3753
   16HK4    C15 1315   9.346   2.131   8.129  0.1985  0.0801  0.1519
   16HK4     H7 1316   9.287   2.049   8.173  0.1453  1.2117  2.2784
   16HK4    C20 1317   9.304   2.165   8.001 -0.0270 -0.0551  0.1870
   16HK4     H9 1318   9.247   2.086   7.953  2.0435 -1.1367 -0.5393
   16HK4    C19 1319   9.308   2.294   7.949 -0.0217 -0.1831 -0.1343
   16HK4    C18 1320   9.341   2.396   8.047 -0.3987  0.1204 -0.3219
   16HK4    C17 1321   9.389   2.361   8.173  0.6341 -0.3170 -0.8357
   16HK4     H8 1322   9.437   2.439   8.231  1.7074 -1.8046  0.3216
   16HK4     N1 1323   9.297   2.523   8.006  0.1323  0.3586 -0.1594
   16HK4    C21 1324   9.243   2.507   7.876  0.1952 -0.1364 -0.1251
   16HK4    C22 1325   9.248   2.367   7.839  0.0111 -0.1437 -0.1252
   16HK4    C26 1326   9.223   2.334   7.706  0.0872 -0.2357 -0.1150
   16HK4    H13 1327   9.209   2.232   7.672 -0.2436 -0.5792  1.0362
   16HK4    C25 1328   9.193   2.439   7.620  0.2478 -0.3535 -0.3156
   16HK4    H12 1329   9.163   2.418   7.518  1.4641 -1.2818 -0.4924
   16HK4    C24 1330   9.194   2.574   7.654  0.6158 -0.4324  0.0020
   16HK4    H11 1331   9.179   2.657   7.583  0.7210  0.0035  0.4896
   16HK4    C23 1332   9.215   2.609   7.786  0.5026 -0.0202 -0.0900
   16HK4    H10 1333   9.206   2.715   7.814  1.5551 -0.0450  0.3421
   16HK4    C39 1334   9.261   2.633   8.084 -0.7111  0.2302 -0.3609
   16HK4    C41 1335   9.218   2.619   8.218 -0.3935  0.0209 -0.2758
   16HK4    H21 1336   9.177   2.519   8.237 -0.9760  0.3219  0.0630
   16HK4    C42 1337   9.227   2.722   8.312 -0.5185 -0.0213 -0.2180
   16HK4    H22 1338   9.183   2.706   8.412 -2.8181 -0.2169 -1.2321
   16HK4    C43 1339   9.284   2.840   8.268  0.2262 -0.1655  0.3385
   16HK4    H23 1340   9.297   2.923   8.338  3.1454  0.5115 -0.9018
   16HK4    C44 1341   9.339   2.859   8.141  0.4872 -0.0378  0.4693
   16HK4    H24 1342   9.389   2.953   8.115 -0.9015  0.1415 -1.6992
   16HK4    C45 1343   9.319   2.757   8.049 -0.0147  0.1211  0.3956
   16HK4    H25 1344   9.374   2.766   7.954  1.4578 -3.2302  0.8350
   17HK4    H28 1345   1.133   4.706   9.416  1.7124  1.0242  0.4334
   17HK4    C48 1346   1.095   4.796   9.368 -0.2308  0.1897  0.3613
   17HK4    C47 1347   0.958   4.821   9.366 -0.1847  0.4471  0.2654
   17HK4    H27 1348   0.888   4.753   9.417  1.2748 -1.0877  0.2781
   17HK4    C46 1349   0.906   4.928   9.295 -0.0049  0.4733  0.1736
   17HK4    H26 1350   0.796   4.940   9.294 -0.2408 -1.2895  2.1199
   17HK4    C40 1351   0.985   5.017   9.220 -0.0833  0.2658 -0.1589
   17HK4    C50 1352   1.124   4.994   9.228 -0.0628  0.3830 -0.1727
   17HK4    H30 1353   1.192   5.075   9.199  0.4578 -0.5858 -1.7128
   17HK4    C49 1354   1.176   4.885   9.297 -0.5889  0.2848  0.0727
   17HK4    H29 1355   1.285   4.873   9.303 -0.7497 -1.8518 -0.7576
   17HK4     N2 1356   0.938   5.069   9.099 -0.0631 -0.2273 -0.3833
   17HK4    C30 1357   0.836   5.014   9.018  0.4821 -0.6988 -0.7498
   17HK4    C29 1358   0.767   4.894   9.025 -0.6072 -0.0195  0.3784
   17HK4    H15 1359   0.802   4.817   9.094  1.1892  3.3031  3.3025
   17HK4    C28 1360   0.669   4.857   8.934 -0.2973 -0.0874  0.0742
   17HK4    C27 1361   0.642   4.949   8.830  0.4131  0.0871  0.0402
   17HK4    H14 1362   0.579   4.940   8.741  0.2116  0.0493  0.1880
   17HK4    C32 1363   0.707   5.071   8.820  0.4785  0.0345 -0.1774
   17HK4    H16 1364   0.695   5.135   8.733  1.2339 -0.9903 -1.0488
   17HK4    C31 1365   0.800   5.111   8.916  0.1266  0.1043  0.1326
   17HK4    C34 1366   0.879   5.230   8.938 -0.1210  0.3353 -0.2212
   17HK4    C33 1367   0.964   5.200   9.052 -0.6682  0.0748  0.1195
   17HK4    C35 1368   1.043   5.302   9.102  0.1761 -0.5071 -0.0266
   17HK4    H17 1369   1.107   5.281   9.188 -1.5194 -0.6112  1.2146
   17HK4    C36 1370   1.048   5.425   9.037  0.3659 -0.7846 -0.5350
   17HK4    H18 1371   1.108   5.508   9.079 -0.3867 -2.3609  3.9338
   17HK4    C37 1372   0.966   5.458   8.930  0.1738 -0.5765 -0.3243
   17HK4    H19 1373   0.969   5.558   8.888 -0.6956  0.1204  1.2241
   17HK4    C38 1374   0.878   5.359   8.887 -1.1984  0.4524  0.0895
   17HK4    H20 1375   0.788   5.394   8.835 -0.1316  1.5330 -1.0671
   17HK4    C14 1376   0.605   4.725   8.940  0.2372 -0.3572 -0.0655
   17HK4     C9 1377   0.548   4.659   8.830  0.2993 -0.4640 -0.0324
   17HK4     C8 1378   0.441   4.568   8.846 -0.1952  0.2066  0.4960
   17HK4    C11 1379   0.398   4.545   8.976 -0.3189 -0.1791  0.3873
   17HK4     H4 1380   0.310   4.483   8.998 -0.7823  0.3795  0.1209
   17HK4    C12 1381   0.461   4.595   9.089  0.4572 -0.4810  0.0893
   17HK4     H5 1382   0.437   4.564   9.192  1.3715 -0.7856  0.2173
   17HK4    C13 1383   0.562   4.688   9.069  0.1137 -0.1371 -0.0431
   17HK4     H6 1384   0.619   4.729   9.154  1.4176 -2.3592  0.1839
   17HK4     C7 1385   0.367   4.513   8.730 -0.2805  0.4534  0.4334
   17HK4     O2 1386   0.270   4.438   8.745  0.0424 -0.2126 -0.8143
   17HK4     C4 1387   0.411   4.555   8.595  0.0635 -0.4673  0.2604
   17HK4     C3 1388   0.332   4.509   8.490  0.0620  0.2774 -0.0634
   17HK4     H3 1389   0.232   4.464   8.501  0.8720 -1.6626 -0.4847
   17HK4     C2 1390   0.364   4.539   8.358  0.7582 -0.4937 -0.0748
   17HK4     H2 1391   0.327   4.470   8.282 -0.1599  0.3762 -0.4236
   17HK4     C1 1392   0.473   4.623   8.334  0.0854  0.5127  0.3281
   17HK4     H1 1393   0.479   4.666   8.233  4.0501  1.5944  0.9496
   17HK4     C6 1394   0.558   4.667   8.437  0.0270  0.4275  0.4124
   17HK4     C5 1395   0.526   4.631   8.568 -0.3185  0.1032  0.2414
   17HK4    C10 1396   0.602   4.668   8.691  0.2216 -0.0776 -0.0369
   17HK4     O1 1397   0.724   4.664   8.678  0.2404  0.6856 -0.0720
   17HK4    C16 1398   0.691   4.702   8.385 -0.0133 -0.1064 -0.0509
   17HK4    C15 1399   0.735   4.665   8.257 -0.0058 -0.1444 -0.0388
   17HK4     H7 1400   0.717   4.559   8.231  0.3208 -0.5748  1.4404
   17HK4    C20 1401   0.806   4.748   8.171 -0.7522  0.2785 -0.2459
   17HK4     H9 1402   0.814   4.730   8.064  1.2996 -0.8458  0.0585
   17HK4    C19 1403   0.845   4.874   8.214 -0.4822  0.1765 -0.1895
   17HK4    C18 1404   0.814   4.909   8.351 -0.4046  0.3053 -0.2041
   17HK4    C17 1405   0.741   4.823   8.432  0.0893 -0.0956 -0.1849
   17HK4     H8 1406   0.741   4.853   8.537 -3.9043 -1.3291  0.2388
   17HK4     N1 1407   0.854   5.041   8.380 -0.0839  0.1821 -0.0736
   17HK4    C21 1408   0.888   5.098   8.256 -0.2900  0.1836 -0.1285
   17HK4    C22 1409   0.882   4.999   8.150  0.1425  0.0677 -0.0478
   17HK4    C26 1410   0.905   5.031   8.017 -0.5296  0.0027 -0.1798
   17HK4    H13 1411   0.880   4.957   7.941  2.2129 -0.6736 -0.4759
   17HK4    C25 1412   0.941   5.161   7.983 -0.1832  0.0444  0.3591
   17HK4    H12 1413   0.990   5.185   7.889 -0.1045  1.2537  0.7018
   17HK4    C24 1414   0.951   5.258   8.082  0.5629  0.0342  0.2946
   17HK4    H11 1415   0.981   5.362   8.060 -1.4741  0.6201  0.2074
   17HK4    C23 1416   0.929   5.225   8.216 -0.5887  0.3857  0.2038
   17HK4    H10 1417   0.938   5.303   8.291 -2.4496  0.3009  0.5278
   17HK4    C39 1418   0.896   5.070   8.510  0.5933 -0.2311 -0.1944
   17HK4    C41 1419   0.912   5.204   8.552 -0.3796 -0.3263  0.5104
   17HK4    H21 1420   0.841   5.283   8.526 -0.0761 -0.4770 -0.8209
   17HK4    C42 1421   1.005   5.243   8.647  0.3080 -0.2521 -0.1868
   17HK4    H22 1422   0.993   5.344   8.689  0.4964  0.8770 -2.7529
   17HK4    C43 1423   1.086   5.149   8.711  0.5899 -0.4539 -0.8360
   17HK4    H23 1424   1.162   5.183   8.781 -0.3015  0.1278 -0.1468
   17HK4    C44 1425   1.064   5.016   8.680  0.0131 -0.4519 -0.4334
   17HK4    H24 1426   1.120   4.937   8.733  0.3147  0.4791  0.6590
   17HK4    C45 1427   0.971   4.976   8.585 -0.3090 -0.7906  0.0156
   17HK4    H25 1428   0.960   4.869   8.566  1.3264 -0.7735 -1.0707
   18HK4    H28 1429  11.176  11.000  10.852 -0.5593 -0.4192 -0.0604
   18HK4    C48 1430   0.003  11.048  10.789 -0.2293 -1.1317 -0.2103
   18HK4    C47 1431   0.064  10.978  10.685  0.0527 -0.5271 -0.4513
   18HK4    H27 1432   0.038  10.872  10.676  1.2441 -0.7004 -1.9242
   18HK4    C46 1433   0.158  11.034  10.599  0.0389  0.4985  0.1878
   18HK4    H26 1434   0.211  10.969  10.528 -1.2788 -0.1418 -0.2387
   18HK4    C40 1435   0.179  11.173  10.594 -0.0018  0.5118  0.3649
   18HK4    C50 1436   0.106  11.243  10.693  0.7112 -0.1821  1.3902
   18HK4    H30 1437   0.118   0.105  10.695 -1.8713  0.2476 -1.8602
   18HK4    C49 1438   0.027  11.185  10.791 -0.4988 -1.0849 -0.1029
   18HK4    H29 1439  11.246  11.239  10.882  0.8115  1.9653 -1.4271
   18HK4     N2 1440   0.280  11.240  10.524  0.1332  0.6704  0.7124
   18HK4    C30 1441   0.408  11.192  10.491 -0.3063  0.0364 -0.0823
   18HK4    C29 1442   0.493  11.107  10.562 -0.1332  0.1529 -0.1473
   18HK4    H15 1443   0.456  11.015  10.606  2.2220 -0.7018  0.1041
   18HK4    C28 1444   0.630  11.109  10.537 -0.0580 -0.5928  0.1980
   18HK4    C27 1445   0.687  11.196  10.442 -0.2660  0.2870  0.8704
   18HK4    H14 1446   0.797  11.195  10.434 -0.3399 -1.8627 -0.2692
   18HK4    C32 1447   0.606   0.035  10.370 -0.1176 -0.9716 -0.8477
   18HK4    H16 1448   0.651   0.095  10.290  2.7513 -0.5293  1.0193
   18HK4    C31 1449   0.470   0.035  10.397  0.0564 -0.0575  0.0650
   18HK4    C34 1450   0.367   0.130  10.358 -0.0263 -0.0977  0.1854
   18HK4    C33 1451   0.253   0.104  10.443 -0.2978 -0.0516 -0.1624
   18HK4    C35 1452   0.140   0.182  10.421 -0.4056 -0.0936  0.2332
   18HK4    H17 1453   0.049   0.144  10.465 -0.9266  0.8735  0.0096
   18HK4    C36 1454   0.137   0.288  10.331 -0.0838  0.0626  0.4009
   18HK4    H18 1455   0.048   0.345  10.298 -0.3754 -0.4612  0.2699
   18HK4    C37 1456   0.249   0.316  10.254 -0.3899 -0.2119 -0.1475
   18HK4    H19 1457   0.256   0.412  10.202 -0.0069 -0.5178 -0.6646
   18HK4    C38 1458   0.360   0.233  10.265 -0.3408 -0.0995  0.2088
   18HK4    H20 1459   0.448   0.247  10.203 -0.5811  0.4104 -0.0268
   18HK4    C14 1460   0.708  11.041  10.642  0.1267  0.0552  0.4886
   18HK4     C9 1461   0.838  11.081  10.673  0.2817 -0.2884  0.2866
   18HK4     C8 1462   0.932  10.985  10.716  0.2006 -0.1947  0.6755
   18HK4    C11 1463   0.885  10.856  10.740 -0.2171 -0.2066 -0.1869
   18HK4     H4 1464   0.957  10.774  10.752 -2.3214 -2.3373 -1.7952
   18HK4    C12 1465   0.754  10.813  10.724 -0.3816  0.3973 -0.4760
   18HK4     H5 1466   0.727  10.713  10.759  1.7841  0.6178  1.9529
   18HK4    C13 1467   0.667  10.910  10.675 -0.8098  0.1823 -0.1532
   18HK4     H6 1468   0.568  10.902  10.722 -0.4478  2.5899  1.1088
   18HK4     C7 1469   1.074  11.023  10.731  0.3287 -0.3457 -0.1632
   18HK4     O2 1470   1.148  10.940  10.783  0.1300 -0.4625 -0.0641
   18HK4     C4 1471   1.125  11.159  10.700  0.1060 -0.3618 -0.6014
   18HK4     C3 1472   1.260  11.189  10.701 -0.0856  0.5010 -0.4843
   18HK4     H3 1473   1.336  11.121  10.742 -0.1168 -1.1490 -3.0954
   18HK4     C2 1474   1.307   0.057  10.641  0.3205  0.4462 -0.2792
   18HK4     H2 1475   1.410   0.094  10.653  1.1268 -0.6971 -3.1024
   18HK4     C1 1476   1.213   0.140  10.581 -0.2118  0.0842  0.0559
   18HK4     H1 1477   1.248   0.231  10.531 -1.2337 -0.1588 -1.1204
   18HK4     C6 1478   1.073   0.121  10.584 -0.2097  0.0738  0.0874
   18HK4     C5 1479   1.032   0.006  10.653  0.0941 -0.0126  0.1287
   18HK4    C10 1480   0.887  11.222  10.671  0.1994 -0.2569  0.5490
   18HK4     O1 1481   0.811   0.050  10.731 -0.2192  0.0070 -0.3139
   18HK4    C16 1482   0.996   0.183  10.476 -0.0577  0.0956 -0.0080
   18HK4    C15 1483   1.043   0.205  10.345 -0.3067 -0.7270 -0.2420
   18HK4     H7 1484   1.141   0.167  10.313 -1.2055 -0.7499 -3.0840
   18HK4    C20 1485   0.987   0.294  10.254 -0.0182 -0.7997 -0.4870
   18HK4     H9 1486   1.007   0.284  10.147  0.1800 -4.0261 -0.1840
   18HK4    C19 1487   0.878   0.371  10.291 -0.0438 -0.8380 -0.4856
   18HK4    C18 1488   0.821   0.349  10.423  0.1649  0.0031 -0.2487
   18HK4    C17 1489   0.884   0.259  10.508 -0.6332 -0.6164 -0.3044
   18HK4     H8 1490   0.846   0.263  10.610  1.1319  0.3981  0.3488
   18HK4     N1 1491   0.710   0.434  10.437  0.1093 -0.1051 -0.0327
   18HK4    C21 1492   0.722   0.532  10.336  0.2152  0.0180  0.1007
   18HK4    C22 1493   0.813   0.486  10.232  0.0742 -0.4306  0.1760
   18HK4    C26 1494   0.862   0.577  10.139 -0.4818 -0.1800  0.1230
   18HK4    H13 1495   0.936   0.544  10.067 -2.0128 -0.8405 -1.1924
   18HK4    C25 1496   0.829   0.711  10.151 -0.0032 -0.0432 -0.0704
   18HK4    H12 1497   0.866   0.782  10.078 -0.4992 -0.7907 -1.0596
   18HK4    C24 1498   0.745   0.753  10.255  0.3928  0.2981  0.1135
   18HK4    H11 1499   0.729   0.861  10.262  0.1587  0.1631  1.6070
   18HK4    C23 1500   0.683   0.665  10.343  0.0351 -0.0070 -0.4369
   18HK4    H10 1501   0.607   0.705  10.410 -0.7393  0.1461 -1.3943
   18HK4    C39 1502   0.589   0.403  10.500 -0.1555  0.8207 -0.0837
   18HK4    C41 1503   0.478   0.490  10.508 -0.5574  0.3475 -0.4610
   18HK4    H21 1504   0.465   0.555  10.420  2.2324 -0.7511 -1.7370
   18HK4    C42 1505   0.368   0.469  10.591 -0.1526 -0.0730 -0.0234
   18HK4    H22 1506   0.294   0.548  10.613 -0.7433 -0.1644 -1.5562
   18HK4    C43 1507   0.356   0.352  10.665  0.0301  0.1699  0.3896
   18HK4    H23 1508   0.259   0.311  10.694 -1.8391  3.9411 -0.1522
   18HK4    C44 1509   0.466   0.268  10.666 -0.2441 -0.2173 -0.8821
   18HK4    H24 1510   0.472   0.171  10.717 -1.8202  0.3137  0.3587
   18HK4    C45 1511   0.574   0.289  10.581 -0.1537  0.4472 -0.6110
   18HK4    H25 1512   0.628   0.196  10.556 -0.8414 -0.6749  2.0073
   19HK4    H28 1513  10.842   8.292  10.389 -0.6197 -1.8582  0.0379
   19HK4    C48 1514  10.915   8.286  10.469 -0.6077  0.3244  0.2133
   19HK4    C47 1515  11.031   8.210  10.454 -0.1009  1.0250  0.5155
   19HK4    H27 1516  11.058   8.155  10.363 -1.8147  0.8183  0.0958
   19HK4    C46 1517  11.133   8.221  10.547  0.1707  0.1446  0.3198
   19HK4    H26 1518  11.222   8.158  10.535  0.7947  0.4655  2.8601
   19HK4    C40 1519  11.123   8.299  10.664  0.0168 -0.2393  0.5668
   19HK4    C50 1520  11.008   8.379  10.674  0.1666  0.0897 -0.3380
   19HK4    H30 1521  10.999   8.461  10.747 -2.6425 -0.3842 -0.0724
   19HK4    C49 1522  10.909   8.376  10.575 -0.6867 -0.0306  0.5117
   19HK4    H29 1523  10.817   8.434  10.589  0.2592  1.2758  1.4944
   19HK4     N2 1524  11.228   8.300  10.757  0.4547 -0.2684  0.0716
   19HK4    C30 1525  11.206   8.330  10.893  0.1747 -0.3068  0.0357
   19HK4    C29 1526  11.099   8.292  10.972 -0.0872  0.1526 -0.0921
   19HK4    H15 1527  11.000   8.280  10.928  0.2171  1.5776 -1.1764
   19HK4    C28 1528  11.099   8.311  11.110  0.3168 -0.4112 -0.0129
   19HK4    C27 1529  11.204   8.390  11.159  0.3467 -0.5904  0.2152
   19HK4    H14 1530  11.198   8.408   0.019 -0.8160 -0.3069  0.1149
   19HK4    C32 1531   0.070   8.425  11.087  0.4275 -0.2751  0.4912
   19HK4    H16 1532   0.153   8.465  11.144  0.4476 -0.8567  0.8767
   19HK4    C31 1533   0.075   8.393  10.952 -0.1867  0.0305  0.3954
   19HK4    C34 1534   0.171   8.398  10.844 -0.4636  0.4643  0.1690
   19HK4    C33 1535   0.115   8.330  10.729  0.1344  0.8198 -0.3430
   19HK4    C35 1536   0.203   8.298  10.626 -0.0214  0.2935 -0.3089
   19HK4    H17 1537   0.168   8.239  10.541 -0.6610  0.6958 -0.3272
   19HK4    C36 1538   0.338   8.332  10.628  0.0690 -0.1098  0.5210
   19HK4    H18 1539   0.414   8.294  10.558  0.1997  3.4689 -1.3505
   19HK4    C37 1540   0.386   8.410  10.732  0.0024  0.2283  0.2973
   19HK4    H19 1541   0.475   8.470  10.711 -0.5274  1.3851  1.3046
   19HK4    C38 1542   0.303   8.441  10.840 -0.3487  0.1026  0.0653
   19HK4    H20 1543   0.346   8.500  10.921 -1.4071 -0.8836  1.3444
   19HK4    C14 1544  10.992   8.255  11.193 -0.4595  0.3668 -0.4761
   19HK4     C9 1545  10.960   8.310   0.070 -0.5143 -0.3734 -0.1582
   19HK4     C8 1546  10.928   8.237   0.186 -0.3774 -0.0973  0.0551
   19HK4    C11 1547  10.910   8.100   0.171 -0.3003 -0.0614 -0.3744
   19HK4     H4 1548  10.867   8.038   0.252  2.7103 -0.5441  0.9320
   19HK4    C12 1549  10.913   8.046   0.043 -0.1132 -0.2666 -0.2861
   19HK4     H5 1550  10.855   7.955   0.022  0.3549 -1.1006  1.9493
   19HK4    C13 1551  10.960   8.118  11.181 -0.0084  0.2093  0.0679
   19HK4     H6 1552  10.953   8.080  11.078 -0.3826  0.6924 -0.0857
   19HK4     C7 1553  10.907   8.296   0.320 -0.0182 -0.3966  0.2439
   19HK4     O2 1554  10.832   8.245   0.403 -0.2145 -0.3823  0.0763
   19HK4     C4 1555  10.940   8.440   0.332 -0.0752 -0.3626 -0.0432
   19HK4     C3 1556  10.944   8.499   0.457 -0.6310  0.0560 -0.2198
   19HK4     H3 1557  10.885   8.455   0.539  0.0596 -1.1276 -0.3450
   19HK4     C2 1558  10.994   8.628   0.470  0.8339 -0.4465 -0.6923
   19HK4     H2 1559  11.014   8.675   0.567  1.6416 -0.8555 -0.6596
   19HK4     C1 1560  11.033   8.704   0.360  0.3768  0.0481 -0.5150
   19HK4     H1 1561  11.075   8.805   0.374 -0.6927  0.0895  2.7924
   19HK4     C6 1562  11.028   8.648   0.231 -0.1651 -0.2515 -0.3694
   19HK4     C5 1563  10.968   8.523   0.221 -0.5683 -0.0904  0.0356
   19HK4    C10 1564  10.954   8.458   0.087 -0.1711 -0.3905  0.1384
   19HK4     O1 1565  10.890   8.519   0.002 -0.3432  0.0957  0.6128
   19HK4    C16 1566  11.135   8.710   0.150 -0.4816 -0.1837 -0.7330
   19HK4    C15 1567   0.009   8.754   0.206 -0.7418 -0.6694  0.2295
   19HK4     H7 1568   0.037   8.726   0.308 -1.0687  1.0235  0.8071
   19HK4    C20 1569   0.108   8.806   0.124 -0.5309 -1.1000  0.2115
   19HK4     H9 1570   0.210   8.825   0.159  0.2316 -0.6921 -2.1282
   19HK4    C19 1571   0.082   8.817  11.236 -0.3817  0.1508  0.2773
   19HK4    C18 1572  11.198   8.793  11.182 -0.0955  0.3770 -0.5254
   19HK4    C17 1573  11.101   8.740   0.019 -0.3858  0.9441 -0.5053
   19HK4     H8 1574  10.997   8.740  11.234  0.0822 -1.9998 -2.1351
   19HK4     N1 1575  11.193   8.805  11.042  0.1255 -0.1076 -0.5781
   19HK4    C21 1576   0.079   8.832  11.006  0.4188 -0.4193  0.2768
   19HK4    C22 1577   0.166   8.844  11.121  0.1629 -0.6212  0.4925
   19HK4    C26 1578   0.304   8.850  11.105  0.0225  0.0475 -0.5162
   19HK4    H13 1579   0.367   8.871  11.191 -1.6001 -1.8463  1.1735
   19HK4    C25 1580   0.360   8.856  10.978  0.1792 -0.0113 -0.4539
   19HK4    H12 1581   0.466   8.874  10.965  0.4493 -0.6369  0.8598
   19HK4    C24 1582   0.279   8.851  10.865 -0.3748  0.0933 -0.0627
   19HK4    H11 1583   0.313   8.888  10.767 -1.5051  0.6205 -0.2685
   19HK4    C23 1584   0.142   8.836  10.882 -0.3787  0.0696 -0.1139
   19HK4    H10 1585   0.083   8.857  10.793  1.5238  0.1494 -1.3836
   19HK4    C39 1586  11.076   8.820  10.966 -0.2243  0.4762  0.0748
   19HK4    C41 1587  11.057   8.764  10.838 -0.3788  0.2182  0.2060
   19HK4    H21 1588  11.112   8.673  10.812 -0.2275  0.7123 -1.2256
   19HK4    C42 1589  10.950   8.792  10.755  0.3952  0.4558 -0.7148
   19HK4    H22 1590  10.960   8.755  10.652 -1.1442  0.6291 -0.9354
   19HK4    C43 1591  10.861   8.893  10.792 -0.1812 -0.3819  0.1956
   19HK4    H23 1592  10.788   8.925  10.718 -0.2048  2.7109  1.4951
   19HK4    C44 1593  10.882   8.962  10.911 -0.5451 -0.2055  0.1614
   19HK4    H24 1594  10.814   9.035  10.957 -0.5305 -1.0849  1.6010
   19HK4    C45 1595  10.983   8.921  10.998 -0.9311 -0.3288  0.5484
   19HK4    H25 1596  10.981   8.963  11.099  0.2515 -1.0967  0.8971
   20HK4    H28 1597   6.651   2.260   6.419  0.3365 -0.9922 -1.7405
   20HK4    C48 1598   6.749   2.300   6.443 -0.2745 -0.7324  0.3749
   20HK4    C47 1599   6.859   2.282   6.360 -0.1488  0.3611  0.3009
   20HK4    H27 1600   6.848   2.251   6.255  1.6934  2.7777 -0.6638
   20HK4    C46 1601   6.980   2.342   6.395 -0.0628  0.2572  0.1781
   20HK4    H26 1602   7.065   2.306   6.335 -0.4370  0.3345 -0.4055
   20HK4    C40 1603   7.004   2.413   6.514 -0.0814  0.1324  0.2566
   20HK4    C50 1604   6.887   2.432   6.591  0.0152  0.8601  0.2250
   20HK4    H30 1605   6.890   2.483   6.688 -0.6339  2.2972 -0.4967
   20HK4    C49 1606   6.761   2.387   6.551  0.5584 -0.7991  0.3404
   20HK4    H29 1607   6.673   2.411   6.612  0.2673 -2.6538  0.6855
   20HK4     N2 1608   7.123   2.478   6.547  0.3056 -0.4640  0.0373
   20HK4    C30 1609   7.218   2.509   6.448 -0.0577 -0.0619 -0.1870
   20HK4    C29 1610   7.220   2.511   6.309 -0.3628 -0.1941 -0.1938
   20HK4    H15 1611   7.121   2.502   6.263 -0.0724  0.3772 -0.9414
   20HK4    C28 1612   7.324   2.552   6.227 -0.5424  0.5465 -0.0539
   20HK4    C27 1613   7.439   2.600   6.294 -0.3417  0.2005 -0.1477
   20HK4    H14 1614   7.511   2.664   6.241  0.5680  2.4743  3.6949
   20HK4    C32 1615   7.441   2.601   6.432 -0.1618 -0.2504 -0.1467
   20HK4    H16 1616   7.542   2.607   6.474  0.3324 -2.4971 -0.9364
   20HK4    C31 1617   7.338   2.555   6.514 -0.1709 -0.0062 -0.0199
   20HK4    C34 1618   7.314   2.548   6.657  0.2676 -0.8691  0.0129
   20HK4    C33 1619   7.178   2.499   6.675  0.1639 -0.5480  0.1124
   20HK4    C35 1620   7.138   2.450   6.799  0.3256 -0.6249  0.1347
   20HK4    H17 1621   7.038   2.408   6.811 -0.1995  0.4779 -0.2627
   20HK4    C36 1622   7.228   2.457   6.905  0.0088  0.0281  0.3621
   20HK4    H18 1623   7.199   2.434   7.009 -0.5735 -1.6070 -0.1411
   20HK4    C37 1624   7.357   2.503   6.884 -0.0559  0.2738  0.4905
   20HK4    H19 1625   7.427   2.508   6.968 -1.1810  0.1786  1.4395
   20HK4    C38 1626   7.405   2.545   6.761 -0.0623 -0.2043  0.3244
   20HK4    H20 1627   7.511   2.570   6.750 -0.7802  3.4224  1.0392
   20HK4    C14 1628   7.325   2.508   6.086  0.1987  0.3486  0.0086
   20HK4     C9 1629   7.442   2.488   6.013  0.1101 -0.5592  0.1046
   20HK4     C8 1630   7.462   2.529   5.880  0.1465 -0.4617  0.1392
   20HK4    C11 1631   7.350   2.570   5.809  0.2224  0.0342  0.3012
   20HK4     H4 1632   7.357   2.610   5.707  1.7777  1.0397  0.7973
   20HK4    C12 1633   7.224   2.571   5.870 -0.1157  0.2865 -0.3971
   20HK4     H5 1634   7.136   2.609   5.816 -0.8170 -0.0077  0.5359
   20HK4    C13 1635   7.215   2.547   6.007  0.2906 -0.3925 -0.4869
   20HK4     H6 1636   7.115   2.556   6.050 -0.2576  0.9912 -2.0015
   20HK4     C7 1637   7.597   2.548   5.822 -0.0712 -0.1935 -0.2818
   20HK4     O2 1638   7.609   2.575   5.703  0.1745 -0.5087 -0.3287
   20HK4     C4 1639   7.717   2.518   5.904  0.0385  0.1246 -0.3230
   20HK4     C3 1640   7.847   2.537   5.859  0.2203  0.4849  0.3407
   20HK4     H3 1641   7.859   2.596   5.767 -1.0734  2.0411  1.1603
   20HK4     C2 1642   7.955   2.500   5.938  0.3888 -0.2150 -0.2079
   20HK4     H2 1643   8.056   2.500   5.894 -0.3015  0.0708 -1.8249
   20HK4     C1 1644   7.937   2.460   6.070  0.0987 -0.9110 -0.4567
   20HK4     H1 1645   8.026   2.431   6.128  1.5541 -0.2668 -2.3349
   20HK4     C6 1646   7.807   2.445   6.123  0.1851 -0.0256  0.0103
   20HK4     C5 1647   7.701   2.470   6.036  0.4257  0.5426 -0.1238
   20HK4    C10 1648   7.563   2.434   6.081  0.5406  0.3119  0.0405
   20HK4     O1 1649   7.550   2.327   6.141  0.1927  0.3393  0.0111
   20HK4    C16 1650   7.795   2.457   6.269 -0.0176  0.0843 -0.0154
   20HK4    C15 1651   7.835   2.577   6.330 -0.2272  0.0891  0.1144
   20HK4     H7 1652   7.872   2.653   6.259  3.0042 -0.4974  1.1040
   20HK4    C20 1653   7.836   2.587   6.469 -0.0918 -0.0194  0.1215
   20HK4     H9 1654   7.911   2.655   6.511  0.6051 -1.1421  0.7072
   20HK4    C19 1655   7.777   2.490   6.548  0.4409 -0.4989 -0.0628
   20HK4    C18 1656   7.732   2.366   6.488 -0.7084  0.0384 -0.3422
   20HK4    C17 1657   7.756   2.352   6.352  0.2709 -0.1377 -0.1592
   20HK4     H8 1658   7.718   2.265   6.299 -1.7524  1.2281 -1.0257
   20HK4     N1 1659   7.704   2.282   6.598 -0.5123  0.4073 -0.0109
   20HK4    C21 1660   7.718   2.352   6.720  0.7874 -0.2101  0.2139
   20HK4    C22 1661   7.769   2.485   6.693  0.1090 -0.0022 -0.0615
   20HK4    C26 1662   7.796   2.570   6.800 -0.9870  0.4624 -0.1510
   20HK4    H13 1663   7.794   2.677   6.777  0.4526 -0.4642 -5.3751
   20HK4    C25 1664   7.775   2.524   6.929  0.4261  0.1501 -0.0257
   20HK4    H12 1665   7.810   2.584   7.013  1.0627  2.7359 -2.0738
   20HK4    C24 1666   7.719   2.400   6.955 -0.2176  0.4712  0.1314
   20HK4    H11 1667   7.699   2.374   7.060 -1.1515  0.3810 -0.0671
   20HK4    C23 1668   7.686   2.315   6.850 -0.4677  0.5611  0.1365
   20HK4    H10 1669   7.603   2.245   6.859  0.2362 -0.4030 -0.7305
   20HK4    C39 1670   7.675   2.146   6.588  0.2637  0.2403 -0.0782
   20HK4    C41 1671   7.694   2.065   6.702 -0.4152  0.4270  0.1689
   20HK4    H21 1672   7.773   2.083   6.777  0.4510 -2.8686  0.1186
   20HK4    C42 1673   7.626   1.944   6.713  0.4877 -0.0985 -0.0154
   20HK4    H22 1674   7.639   1.879   6.801 -1.0594  1.2591  1.2506
   20HK4    C43 1675   7.538   1.897   6.617 -0.1311  0.3410  0.3321
   20HK4    H23 1676   7.517   1.791   6.622 -2.7200  0.8635  0.9970
   20HK4    C44 1677   7.530   1.971   6.499 -0.1488 -0.1843  0.0037
   20HK4    H24 1678   7.478   1.931   6.410 -1.7089 -0.9522  1.2438
   20HK4    C45 1679   7.590   2.095   6.487 -0.3439 -0.0369  0.5606
   20HK4    H25 1680   7.562   2.170   6.411  2.0800  1.5600  1.1716
   21HK4    H28 1681  10.988   5.955   6.764 -0.2066  0.5359 -0.0796
   21HK4    C48 1682  11.055   5.967   6.849  0.0813 -0.4728 -0.1651
   21HK4    C47 1683  11.148   5.868   6.882 -0.2667 -0.5817  0.4956
   21HK4    H27 1684  11.113   5.765   6.864 -0.4641 -0.2904 -0.8720
   21HK4    C46 1685  11.243   5.888   6.981 -0.2313  0.3033  0.2892
   21HK4    H26 1686   0.057   5.800   7.006  1.8504  1.1283 -1.7283
   21HK4    C40 1687   0.004   6.011   7.049  0.2084  0.4478 -0.0264
   21HK4    C50 1688  11.163   6.113   7.009  0.3371  0.5523 -0.0508
   21HK4    H30 1689  11.162   6.211   7.059  1.8624  1.3256 -1.4678
   21HK4    C49 1690  11.062   6.088   6.916  0.5908 -0.5742 -0.0299
   21HK4    H29 1691  11.000   6.173   6.884  1.4139 -0.6519 -1.9050
   21HK4     N2 1692   0.099   6.025   7.150 -0.0649  0.3356  0.2463
   21HK4    C30 1693   0.222   5.955   7.153 -0.2927 -0.0607  0.3834
   21HK4    C29 1694   0.307   5.918   7.050 -0.1371 -0.1986  0.5619
   21HK4    H15 1695   0.285   5.941   6.945 -0.8778 -1.0187  0.5327
   21HK4    C28 1696   0.427   5.853   7.077 -0.1392 -0.3953  0.1176
   21HK4    C27 1697   0.460   5.828   7.212 -0.7084 -0.8006  0.1864
   21HK4    H14 1698   0.543   5.762   7.240  1.4246  0.4784 -2.8454
   21HK4    C32 1699   0.384   5.874   7.319 -0.1926 -0.2815  0.3313
   21HK4    H16 1700   0.420   5.855   7.421  0.7593  0.0533  0.0635
   21HK4    C31 1701   0.263   5.936   7.290  0.2234  0.5145  0.3071
   21HK4    C34 1702   0.166   6.008   7.370  0.2909  0.7797  0.1521
   21HK4    C33 1703   0.064   6.062   7.282 -0.1886  0.0903  0.2825
   21HK4    C35 1704  11.201   6.126   7.336 -0.5160 -0.0682 -0.2041
   21HK4    H17 1705  11.126   6.170   7.271 -0.4865 -0.4591 -0.5082
   21HK4    C36 1706  11.191   6.139   7.474  0.1238  0.5414 -0.2089
   21HK4    H18 1707  11.115   6.200   7.524  0.8505 -0.0794  1.6694
   21HK4    C37 1708   0.045   6.087   7.552 -0.2632  0.1106  0.0154
   21HK4    H19 1709   0.044   6.115   7.658  1.0143  1.9068 -0.4208
   21HK4    C38 1710   0.164   6.031   7.508 -0.3939 -0.4319  0.3496
   21HK4    H20 1711   0.256   6.043   7.565 -0.7206  1.7243  0.4402
   21HK4    C14 1712   0.480   5.776   6.964 -0.0799 -0.1515 -0.0199
   21HK4     C9 1713   0.518   5.641   6.957  0.9255  0.0838  0.7036
   21HK4     C8 1714   0.616   5.604   6.863  0.1025 -0.1149 -0.0859
   21HK4    C11 1715   0.671   5.697   6.776  1.2141 -0.0069  0.7161
   21HK4     H4 1716   0.772   5.676   6.740  1.5310 -1.8743  2.6394
   21HK4    C12 1717   0.626   5.829   6.769 -0.1959 -0.5358 -0.5185
   21HK4     H5 1718   0.659   5.889   6.683 -1.8364  0.8570 -0.2033
   21HK4    C13 1719   0.529   5.861   6.863  0.3435 -0.3866 -0.0118
   21HK4     H6 1720   0.474   5.954   6.844 -0.3367 -0.9032 -0.6143
   21HK4     C7 1721   0.655   5.462   6.845  0.3421 -0.1036  0.3486
   21HK4     O2 1722   0.765   5.423   6.807  0.1555 -0.1742 -0.1190
   21HK4     C4 1723   0.558   5.362   6.894 -0.1704  0.2644  0.0832
   21HK4     C3 1724   0.571   5.232   6.849  0.0017  0.2488  0.1798
   21HK4     H3 1725   0.621   5.202   6.755 -0.1780 -0.9624  0.4546
   21HK4     C2 1726   0.524   5.128   6.928 -0.3493 -0.0497 -0.4141
   21HK4     H2 1727   0.538   5.020   6.909  2.4079 -0.2074  2.2658
   21HK4     C1 1728   0.463   5.154   7.050 -0.1140 -0.4109 -0.2175
   21HK4     H1 1729   0.435   5.080   7.126  0.6997 -1.5444 -1.0087
   21HK4     C6 1730   0.437   5.286   7.092 -0.1552 -0.3502 -0.4310
   21HK4     C5 1731   0.482   5.390   7.010 -0.7648  0.0585 -0.2486
   21HK4    C10 1732   0.444   5.533   7.029 -0.3015  0.1961 -0.3525
   21HK4     O1 1733   0.327   5.557   7.057 -0.3172 -0.1308 -0.1428
   21HK4    C16 1734   0.418   5.306   7.236  0.1926  0.2840 -0.4705
   21HK4    C15 1735   0.497   5.228   7.323  0.5020  0.4657 -0.5893
   21HK4     H7 1736   0.563   5.151   7.281 -0.2891 -1.0377  0.9103
   21HK4    C20 1737   0.489   5.234   7.461 -0.3330 -0.1131 -0.6113
   21HK4     H9 1738   0.570   5.188   7.517 -1.2221  1.1593  1.8225
   21HK4    C19 1739   0.402   5.326   7.518  0.7405  0.6112 -0.1140
   21HK4    C18 1740   0.314   5.403   7.431 -0.5495 -0.4186  0.2611
   21HK4    C17 1741   0.322   5.390   7.292  0.1919 -0.2160  0.2795
   21HK4     H8 1742   0.245   5.432   7.227 -0.6778 -2.2620 -0.0711
   21HK4     N1 1743   0.251   5.506   7.503  0.1723  0.3179 -0.1430
   21HK4    C21 1744   0.319   5.508   7.626 -0.7055 -0.1412  0.3538
   21HK4    C22 1745   0.402   5.391   7.647  0.3443  0.5218 -0.0669
   21HK4    C26 1746   0.468   5.366   7.767 -0.0987  0.2537  0.1204
   21HK4    H13 1747   0.509   5.269   7.796  0.2476  0.0074 -1.1866
   21HK4    C25 1748   0.478   5.469   7.860  0.2162 -0.1347  0.5145
   21HK4    H12 1749   0.540   5.447   7.947  1.0417 -2.8130 -0.6742
   21HK4    C24 1750   0.410   5.587   7.837  0.1420 -0.3434 -0.3435
   21HK4    H11 1751   0.428   5.675   7.901 -0.1680  0.2939 -1.1154
   21HK4    C23 1752   0.326   5.604   7.727 -0.2566  0.1598  0.0323
   21HK4    H10 1753   0.257   5.687   7.714  0.7084  0.8348 -0.9809
   21HK4    C39 1754   0.131   5.572   7.475 -0.0823 -0.0294  0.1074
   21HK4    C41 1755   0.087   5.697   7.524 -0.2045 -0.1186  0.2225
   21HK4    H21 1756   0.169   5.769   7.528 -1.0832  0.7746  3.3160
   21HK4    C42 1757  11.202   5.739   7.525  0.0008  0.5562 -0.4306
   21HK4    H22 1758  11.173   5.834   7.573 -1.8199  0.0389 -0.4785
   21HK4    C43 1759  11.110   5.654   7.467  0.1028 -0.0977  0.3556
   21HK4    H23 1760  11.005   5.678   7.447 -0.1392 -0.2809  1.3870
   21HK4    C44 1761  11.148   5.528   7.422 -0.2210  0.1134 -0.5191
   21HK4    H24 1762  11.079   5.449   7.388  0.9608 -1.6054  0.9639
   21HK4    C45 1763   0.033   5.488   7.418 -0.1846  0.1877 -0.0421
   21HK4    H25 1764   0.055   5.384   7.389 -1.9885 -0.3291  0.3631
   22HK4    H28 1765  10.339   0.106   7.920 -0.3866 -0.7570 -0.8997
   22HK4    C48 1766  10.239   0.144   7.941  0.2608  0.6850 -0.3818
   22HK4    C47 1767  10.224   0.269   8.001  0.5214  0.6149 -0.1672
   22HK4    H27 1768  10.315   0.329   8.016  0.7552  0.0193  0.8505
   22HK4    C46 1769  10.098   0.319   8.033 -0.0717 -0.9161 -0.0188
   22HK4    H26 1770  10.094   0.419   8.079 -1.3439 -0.9368 -0.0886
   22HK4    C40 1771   9.980   0.250   8.001 -0.3711 -0.4576  0.1002
   22HK4    C50 1772   9.997   0.125   7.940  0.0699  0.0577 -0.8387
   22HK4    H30 1773   9.915   0.055   7.917 -1.5309  1.1851  1.2827
   22HK4    C49 1774  10.123   0.075   7.910  0.4220 -0.3199  1.2187
   22HK4    H29 1775  10.127  11.219   7.873 -0.5551  0.6176 -1.6168
   22HK4     N2 1776   9.856   0.293   8.051 -0.2139 -0.2646  0.3285
   22HK4    C30 1777   9.733   0.257   7.992 -0.1271  0.1307 -0.0935
   22HK4    C29 1778   9.705   0.191   7.873  0.0895 -0.2347  0.0576
   22HK4    H15 1779   9.785   0.161   7.805 -0.4580 -4.0808  0.9773
   22HK4    C28 1780   9.573   0.165   7.839  0.1597 -0.5648  0.0347
   22HK4    C27 1781   9.471   0.212   7.924  0.1502  0.2985 -0.4439
   22HK4    H14 1782   9.368   0.182   7.901  0.8117 -1.0614 -1.7377
   22HK4    C32 1783   9.497   0.276   8.045 -0.3822  0.2212 -0.2854
   22HK4    H16 1784   9.411   0.312   8.102  0.4610  2.0078 -0.1134
   22HK4    C31 1785   9.628   0.310   8.077 -0.3010 -0.3610 -0.0044
   22HK4    C34 1786   9.687   0.377   8.191 -0.3119 -0.0803 -0.1651
   22HK4    C33 1787   9.830   0.357   8.174 -0.2919 -0.4646  0.4182
   22HK4    C35 1788   9.911   0.387   8.283  0.1752 -0.5669  0.1010
   22HK4    H17 1789  10.011   0.344   8.291  0.8407  0.6611 -1.4869
   22HK4    C36 1790   9.857   0.439   8.400  0.2714 -0.3013  0.0269
   22HK4    H18 1791   9.917   0.473   8.485  0.3292 -0.6345  0.1198
   22HK4    C37 1792   9.720   0.456   8.412  0.1763 -0.4215 -0.7923
   22HK4    H19 1793   9.682   0.463   8.514  1.1025 -1.2812 -0.3826
   22HK4    C38 1794   9.632   0.428   8.308 -0.4678  0.6093 -0.5363
   22HK4    H20 1795   9.526   0.453   8.310 -0.9466 -1.4200  1.2104
   22HK4    C14 1796   9.537   0.119   7.704 -0.1102 -0.0832 -0.0623
   22HK4     C9 1797   9.421   0.142   7.630 -0.1181  0.0654 -0.0050
   22HK4     C8 1798   9.366   0.048   7.541 -0.2475  0.2986 -0.1721
   22HK4    C11 1799   9.444  11.184   7.512 -0.1333  0.2632  0.2761
   22HK4     H4 1800   9.401  11.102   7.453  0.2435 -0.4414  0.9754
   22HK4    C12 1801   9.567  11.160   7.573 -0.2814 -0.0554  0.4556
   22HK4     H5 1802   9.624  11.072   7.542 -4.4182 -3.3312  1.6054
   22HK4    C13 1803   9.607   0.000   7.673  0.3919  0.2103 -0.0513
   22HK4     H6 1804   9.702  11.227   7.724  0.0577  0.5458  0.7101
   22HK4     C7 1805   9.223   0.056   7.503 -0.1947 -0.0091 -0.4455
   22HK4     O2 1806   9.184  11.234   7.410 -0.5497 -0.0133 -0.2934
   22HK4     C4 1807   9.145   0.173   7.549 -0.1627 -0.3754  0.5639
   22HK4     C3 1808   9.007   0.175   7.533 -0.0688  0.1450 -0.1875
   22HK4     H3 1809   8.947   0.084   7.516 -2.5190  1.8343 -0.9404
   22HK4     C2 1810   8.938   0.289   7.570 -0.1946  0.0091  0.0010
   22HK4     H2 1811   8.836   0.303   7.531  0.2731  1.9240 -0.6243
   22HK4     C1 1812   9.005   0.393   7.634 -0.5900  0.0974  0.2748
   22HK4     H1 1813   8.946   0.483   7.655  0.5967  0.5878  1.6259
   22HK4     C6 1814   9.141   0.387   7.671 -0.5410 -0.0205  0.0931
   22HK4     C5 1815   9.210   0.282   7.610 -0.4293 -0.1267  0.4045
   22HK4    C10 1816   9.356   0.276   7.640 -0.4308 -0.1181  0.4342
   22HK4     O1 1817   9.427   0.372   7.611 -0.0662 -0.3753  0.4789
   22HK4    C16 1818   9.171   0.431   7.808 -0.1392  0.3824 -0.1238
   22HK4    C15 1819   9.069   0.429   7.905 -0.1785 -0.2741 -0.1806
   22HK4     H7 1820   8.969   0.396   7.873 -0.5916 -0.6486  1.4281
   22HK4    C20 1821   9.074   0.499   8.025  0.2109 -0.5932 -0.0092
   22HK4     H9 1822   9.003   0.487   8.107  1.0099 -1.2835  0.5783
   22HK4    C19 1823   9.190   0.571   8.051  0.0043 -0.3515  0.2471
   22HK4    C18 1824   9.301   0.567   7.957 -0.0043  0.2563  0.2091
   22HK4    C17 1825   9.285   0.506   7.833 -0.0375  0.0952  0.2922
   22HK4     H8 1826   9.338   0.552   7.749 -1.8467  3.0701  0.7031
   22HK4     N1 1827   9.405   0.647   8.008  0.4280 -0.0382 -0.2122
   22HK4    C21 1828   9.374   0.679   8.142 -0.0910 -0.4178 -0.2405
   22HK4    C22 1829   9.237   0.638   8.170 -0.2372  0.2524  0.0064
   22HK4    C26 1830   9.199   0.624   8.303 -0.3680 -0.6364 -0.1228
   22HK4    H13 1831   9.097   0.594   8.327 -0.0211 -0.3869  1.7782
   22HK4    C25 1832   9.287   0.649   8.408  0.0751 -0.0155 -0.6402
   22HK4    H12 1833   9.258   0.621   8.509  0.9493  0.2129 -0.3171
   22HK4    C24 1834   9.418   0.687   8.383 -0.1569  0.7027 -0.7724
   22HK4    H11 1835   9.473   0.742   8.461 -0.3431 -0.3984  0.1472
   22HK4    C23 1836   9.460   0.692   8.250  0.3683 -0.0876 -0.6431
   22HK4    H10 1837   9.567   0.706   8.236  0.3897 -0.0986 -0.4862
   22HK4    C39 1838   9.528   0.663   7.943  0.2641 -0.0325 -0.5205
   22HK4    C41 1839   9.612   0.770   7.981 -0.0167 -0.2255  0.6592
   22HK4    H21 1840   9.572   0.862   8.027  0.2766 -0.4809  1.4334
   22HK4    C42 1841   9.743   0.774   7.935 -0.1724 -0.0021  0.2449
   22HK4    H22 1842   9.806   0.862   7.954  0.5002 -0.1135 -1.3674
   22HK4    C43 1843   9.800   0.674   7.857  0.2938 -0.0396  0.6313
   22HK4    H23 1844   9.904   0.672   7.824 -0.7574  0.5786 -2.9574
   22HK4    C44 1845   9.718   0.565   7.830  0.1691  0.3654 -0.6868
   22HK4    H24 1846   9.772   0.470   7.816  1.0202  1.0194 -1.8766
   22HK4    C45 1847   9.584   0.558   7.868  0.1079  0.1781 -0.9316
   22HK4    H25 1848   9.529   0.463   7.866 -2.8502  1.7688  1.0587
   23HK4    H28 1849   8.639   5.718  10.717 -0.0990 -0.0730  2.0853
   23HK4    C48 1850   8.583   5.808  10.693  0.2860 -0.3243  0.1635
   23HK4    C47 1851   8.455   5.810  10.640  0.4188 -0.0484 -0.1547
   23HK4    H27 1852   8.407   5.711  10.632  0.5021  0.0178 -1.5115
   23HK4    C46 1853   8.382   5.926  10.617  0.5972  0.0721 -0.1133
   23HK4    H26 1854   8.275   5.901  10.607  1.0363 -2.3099  0.8488
   23HK4    C40 1855   8.432   6.054  10.649 -0.1258  0.2778  0.1990
   23HK4    C50 1856   8.565   6.049  10.693 -0.1397 -0.4449  0.1787
   23HK4    H30 1857   8.620   6.144  10.702  0.3315 -0.6697 -0.2575
   23HK4    C49 1858   8.641   5.933  10.711  0.2543 -0.2526 -0.2418
   23HK4    H29 1859   8.739   5.948  10.759  0.2123  1.7002 -0.7291
   23HK4     N2 1860   8.356   6.170  10.631 -0.2538  0.2372  0.4963
   23HK4    C30 1861   8.239   6.178  10.553  0.0433 -0.2430 -0.0003
   23HK4    C29 1862   8.200   6.118  10.433  0.3052  0.7984 -0.6118
   23HK4    H15 1863   8.275   6.050  10.392 -0.1253 -1.2958  1.9575
   23HK4    C28 1864   8.073   6.127  10.377 -0.1427  0.0105  0.2670
   23HK4    C27 1865   7.977   6.200  10.451  0.3875 -0.0344  1.0136
   23HK4    H14 1866   7.873   6.209  10.418  0.9716  1.7711 -0.4456
   23HK4    C32 1867   8.018   6.271  10.562 -0.3117  0.4086  0.9885
   23HK4    H16 1868   7.942   6.334  10.610 -0.4134  1.1248 -0.1028
   23HK4    C31 1869   8.147   6.271  10.615  0.3169  0.3764 -0.5231
   23HK4    C34 1870   8.216   6.327  10.729 -0.0694  0.0139 -0.1048
   23HK4    C33 1871   8.350   6.271  10.729  0.0597  0.3069  0.4435
   23HK4    C35 1872   8.452   6.321  10.809  0.4958  0.2078 -0.0566
   23HK4    H17 1873   8.552   6.312  10.765 -0.1639  0.6589 -1.6866
   23HK4    C36 1874   8.414   6.417  10.901  0.6780 -0.5233  0.7930
   23HK4    H18 1875   8.490   6.454  10.971  1.3421 -1.8039  0.7681
   23HK4    C37 1876   8.286   6.471  10.905  0.7562 -0.2047 -0.5814
   23HK4    H19 1877   8.259   6.542  10.983  0.5328  0.9789 -1.7350
   23HK4    C38 1878   8.185   6.428  10.820  0.0699 -0.2491  0.2341
   23HK4    H20 1879   8.089   6.479  10.811  0.9808  1.4947  0.1063
   23HK4    C14 1880   8.068   6.110  10.231 -0.0318  0.2554  0.2330
   23HK4     C9 1881   7.974   6.174  10.150  0.1201 -0.0264 -0.1629
   23HK4     C8 1882   7.913   6.101  10.046  0.1124 -0.1972 -0.0407
   23HK4    C11 1883   7.956   5.972  10.016  0.2218 -0.0151 -0.6757
   23HK4     H4 1884   7.912   5.917   9.931 -1.5416 -0.0160  0.2165
   23HK4    C12 1885   8.058   5.912  10.090  0.2523 -0.0548 -0.7510
   23HK4     H5 1886   8.085   5.810  10.060 -0.7533 -0.8650  1.0501
   23HK4    C13 1887   8.116   5.983  10.194 -0.6829  0.1899 -0.3898
   23HK4     H6 1888   8.205   5.940  10.243 -0.8934  1.1038  0.8254
   23HK4     C7 1889   7.803   6.165   9.970 -0.0537  0.0053  0.3698
   23HK4     O2 1890   7.727   6.088   9.911  0.1956 -0.1032  0.1920
   23HK4     C4 1891   7.768   6.308   9.988  0.0479  0.0805 -0.0274
   23HK4     C3 1892   7.661   6.361   9.917  0.0663 -0.2864 -0.3329
   23HK4     H3 1893   7.634   6.340   9.813  1.2510  1.8841 -1.0881
   23HK4     C2 1894   7.604   6.481   9.956 -0.1370 -0.2442 -0.7665
   23HK4     H2 1895   7.538   6.527   9.881  0.0544  2.3882  0.6056
   23HK4     C1 1896   7.653   6.545  10.069 -0.2226 -0.6182 -0.5173
   23HK4     H1 1897   7.611   6.646  10.084 -0.8027 -0.4781 -2.8933
   23HK4     C6 1898   7.765   6.498  10.140 -0.0383 -0.0217 -0.4034
   23HK4     C5 1899   7.827   6.381  10.093  0.2941  0.0489 -0.1446
   23HK4    C10 1900   7.945   6.319  10.160 -0.4115 -0.2056  0.8755
   23HK4     O1 1901   8.032   6.390  10.209  0.3806 -0.6452  0.1102
   23HK4    C16 1902   7.764   6.533  10.283 -0.3259  0.5501 -0.5450
   23HK4    C15 1903   7.642   6.537  10.354  0.1203  0.0158  0.2469
   23HK4     H7 1904   7.560   6.476  10.312  0.8196 -0.0433 -1.0601
   23HK4    C20 1905   7.626   6.591  10.481 -0.5628 -0.2669  0.2799
   23HK4     H9 1906   7.528   6.585  10.529  0.1095 -0.7905  1.5999
   23HK4    C19 1907   7.739   6.641  10.544 -0.3783 -0.5067  0.1437
   23HK4    C18 1908   7.867   6.636  10.476 -0.1716 -0.4160  0.5239
   23HK4    C17 1909   7.874   6.593  10.344 -0.4553 -0.2260  0.4445
   23HK4     H8 1910   7.967   6.623  10.296  0.4811  2.3973  3.7260
   23HK4     N1 1911   7.972   6.678  10.561 -0.0092  0.1948  0.0241
   23HK4    C21 1912   7.913   6.706  10.685 -0.1052  0.1361 -0.0095
   23HK4    C22 1913   7.769   6.684  10.679  0.0256 -0.7575  0.1306
   23HK4    C26 1914   7.692   6.684  10.794 -0.2895  0.2683 -0.0826
   23HK4    H13 1915   7.583   6.687  10.782 -0.0727  1.1778 -1.9804
   23HK4    C25 1916   7.751   6.702  10.918 -0.2688  0.5869 -0.1383
   23HK4    H12 1917   7.700   6.677  11.011 -0.2049  1.4420  0.1331
   23HK4    C24 1918   7.888   6.724  10.928 -0.2472  0.4373 -0.1035
   23HK4    H11 1919   7.937   6.744  11.025 -4.3877  2.6960  1.6295
   23HK4    C23 1920   7.964   6.734  10.812 -0.0640  0.0849 -0.0145
   23HK4    H10 1921   8.061   6.782  10.819  0.0187 -0.1591  0.4880
   23HK4    C39 1922   8.107   6.682  10.524 -0.0555 -0.0957 -0.1814
   23HK4    C41 1923   8.201   6.772  10.579 -0.0564 -0.3826  0.3041
   23HK4    H21 1924   8.161   6.868  10.614 -0.4250  0.4725 -2.3435
   23HK4    C42 1925   8.336   6.740  10.590  0.2535  0.6376 -0.4878
   23HK4    H22 1926   8.404   6.812  10.639  0.6693  1.0082 -1.5754
   23HK4    C43 1927   8.389   6.622  10.537  0.1099  0.3927 -0.0845
   23HK4    H23 1928   8.489   6.587  10.560  0.1326  1.3933  1.4717
   23HK4    C44 1929   8.301   6.534  10.475  0.7168 -0.3699  0.1493
   23HK4    H24 1930   8.328   6.431  10.447 -1.1134 -1.1163  1.0625
   23HK4    C45 1931   8.165   6.562  10.478  0.8170  0.0729  0.4722
   23HK4    H25 1932   8.098   6.489  10.433  1.1928  0.1598 -0.2327
   24HK4    H28 1933   0.350   9.061   1.014 -0.0057  1.8721 -0.1182
   24HK4    C48 1934   0.371   9.076   0.908 -0.4883  0.9710 -0.3430
   24HK4    C47 1935   0.486   9.144   0.868  0.4117 -0.4374 -0.1845
   24HK4    H27 1936   0.516   9.228   0.932  0.1031 -1.7891  1.7919
   24HK4    C46 1937   0.534   9.123   0.740 -0.1788 -0.4043 -0.4147
   24HK4    H26 1938   0.629   9.176   0.720 -0.7362  0.9664  0.5181
   24HK4    C40 1939   0.465   9.043   0.646 -0.4115 -0.6095 -0.0661
   24HK4    C50 1940   0.342   8.983   0.683 -0.2001 -1.0216 -0.0295
   24HK4    H30 1941   0.269   8.952   0.607  0.4273 -1.3212 -0.5118
   24HK4    C49 1942   0.301   9.000   0.815  0.5312 -0.5882  0.1480
   24HK4    H29 1943   0.216   8.939   0.849 -1.1463  1.7409  0.2401
   24HK4     N2 1944   0.523   9.007   0.524  0.2006 -0.4838  0.1852
   24HK4    C30 1945   0.655   8.968   0.495  0.5048  0.7732 -0.1115
   24HK4    C29 1946   0.762   8.945   0.581  0.4708 -0.0171 -0.2753
   24HK4    H15 1947   0.725   8.912   0.678  0.1835 -0.3292 -0.4940
   24HK4    C28 1948   0.895   8.925   0.547  0.4267 -0.7275 -0.0345
   24HK4    C27 1949   0.914   8.904   0.409  0.2235 -0.2606 -0.1350
   24HK4    H14 1950   0.997   8.839   0.379  0.2715  0.0764 -0.7444
   24HK4    C32 1951   0.810   8.912   0.317  0.1194 -0.4599 -0.0337
   24HK4    H16 1952   0.822   8.870   0.218 -2.3978  1.8051 -1.3683
   24HK4    C31 1953   0.683   8.957   0.353  0.3942  0.3753 -0.1028
   24HK4    C34 1954   0.561   9.001   0.290 -0.0291 -0.2929  0.2467
   24HK4    C33 1955   0.467   9.031   0.397 -0.0221 -0.4305  0.2912
   24HK4    C35 1956   0.347   9.088   0.357 -0.0261 -0.7410 -0.1485
   24HK4    H17 1957   0.284   9.137   0.431 -3.2985 -1.1992 -2.5415
   24HK4    C36 1958   0.310   9.105   0.224 -0.4489 -0.2177  0.0319
   24HK4    H18 1959   0.210   9.137   0.193 -0.4845  1.6344  1.9571
   24HK4    C37 1960   0.402   9.075   0.124 -0.0553 -0.4076  0.4433
   24HK4    H19 1961   0.387   9.123   0.027  1.3903 -0.0486  0.3928
   24HK4    C38 1962   0.526   9.022   0.157  0.3479  0.4176  0.2588
   24HK4    H20 1963   0.601   9.005   0.080  0.1220 -0.4251  0.2198
   24HK4    C14 1964   1.006   8.969   0.633  0.1728  0.1280 -0.1339
   24HK4     C9 1965   1.126   9.013   0.577  0.1596  0.4391  0.0813
   24HK4     C8 1966   1.251   8.964   0.619 -0.0148  0.0155  0.1064
   24HK4    C11 1967   1.257   8.883   0.732 -0.1114  0.1095  0.1765
   24HK4     H4 1968   1.351   8.845   0.773 -0.0783  1.1444  1.0696
   24HK4    C12 1969   1.140   8.839   0.793 -0.2308 -0.1829 -0.2580
   24HK4     H5 1970   1.139   8.749   0.855  0.1418  1.7133  2.5820
   24HK4    C13 1971   1.018   8.892   0.751 -0.1001  0.3534  0.0383
   24HK4     H6 1972   0.924   8.856   0.796 -1.4649  1.3046 -1.9666
   24HK4     C7 1973   1.368   8.978   0.528  0.2108 -0.4369  0.3250
   24HK4     O2 1974   1.481   8.947   0.566  0.2056 -0.5784  0.2203
   24HK4     C4 1975   1.344   9.046   0.399 -0.1394  0.1451  0.6906
   24HK4     C3 1976   1.446   9.034   0.305 -0.6980 -0.2756  0.1331
   24HK4     H3 1977   1.549   9.002   0.326  0.4700  2.9805 -0.3252
   24HK4     C2 1978   1.439   9.088   0.177 -0.0735 -0.6451 -0.0603
   24HK4     H2 1979   1.513   9.068   0.098 -0.1612 -2.1301  0.2240
   24HK4     C1 1980   1.317   9.145   0.144  0.0752 -0.6009 -0.5324
   24HK4     H1 1981   1.299   9.174   0.039 -0.6965 -0.7827 -0.4572
   24HK4     C6 1982   1.208   9.162   0.232  0.3137  0.0140 -0.3524
   24HK4     C5 1983   1.227   9.115   0.363  0.2435  0.3261 -0.2314
   24HK4    C10 1984   1.120   9.114   0.467  0.1184 -0.0416 -0.3626
   24HK4     O1 1985   1.061   9.220   0.488 -0.0311 -0.1425 -0.2850
   24HK4    C16 1986   1.077   9.152   0.167 -0.0686 -0.1373  0.4284
   24HK4    C15 1987   1.051   9.063   0.061 -0.0321 -0.0405  0.3380
   24HK4     H7 1988   1.110   8.970   0.061  1.5091  0.9170 -0.8736
   24HK4    C20 1989   0.939   9.070  11.226  0.7760  1.0835 -0.6616
   24HK4     H9 1990   0.934   9.023  11.128  0.6160 -2.1039  0.8144
   24HK4    C19 1991   0.847   9.171  11.247  0.0425  0.2722  0.0465
   24HK4    C18 1992   0.872   9.270   0.102 -0.5589  0.5776 -0.0980
   24HK4    C17 1993   0.986   9.256   0.181 -0.0804  0.0373 -0.8860
   24HK4     H8 1994   0.998   9.329   0.260 -1.1009 -0.7864  0.0396
   24HK4     N1 1995   0.761   9.358   0.107 -0.5135  0.6334 -0.0463
   24HK4    C21 1996   0.665   9.314   0.014 -0.3739 -0.0309  0.1202
   24HK4    C22 1997   0.715   9.197  11.192 -0.3157 -0.3104  0.6222
   24HK4    C26 1998   0.652   9.147  11.079 -0.1991 -0.1594  0.4883
   24HK4    H13 1999   0.694   9.058  11.032 -1.0135 -0.5904  0.5678
   24HK4    C25 2000   0.543   9.215  11.026  0.5828  0.1816 -0.7090
   24HK4    H12 2001   0.514   9.189  10.924 -1.1234 -0.5215 -0.0622
   24HK4    C24 2002   0.498   9.327  11.095 -0.2519 -0.3103 -0.4411
   24HK4    H11 2003   0.397   9.366  11.078  0.4231  0.5703 -2.7148
   24HK4    C23 2004   0.551   9.377  11.213 -0.2848 -0.2995 -0.4277
   24HK4    H10 2005   0.490   9.428   0.039 -0.4582  1.1941 -1.5877
   24HK4    C39 2006   0.735   9.420   0.229 -0.1738  0.0204  0.3417
   24HK4    C41 2007   0.660   9.540   0.223 -0.4144 -0.1574 -0.1749
   24HK4    H21 2008   0.652   9.603   0.133 -0.1720  0.3211  0.1391
   24HK4    C42 2009   0.575   9.577   0.326 -0.0480 -0.2317  0.1562
   24HK4    H22 2010   0.517   9.670   0.316  1.7152  0.8975  0.2836
   24HK4    C43 2011   0.558   9.498   0.439  0.3731  0.2263  0.5445
   24HK4    H23 2012   0.507   9.531   0.529  1.8146 -1.1320  1.8876
   24HK4    C44 2013   0.636   9.384   0.451  0.0811  0.0130  0.3922
   24HK4    H24 2014   0.633   9.321   0.541 -0.5687 -1.2284 -0.4856
   24HK4    C45 2015   0.716   9.341   0.345  0.1276  0.0529  0.4115
   24HK4    H25 2016   0.771   9.246   0.354  0.4776  0.4329  2.4948
   25HK4    H28 2017   1.361  10.211   5.326  0.0524 -0.1043 -0.3086
   25HK4    C48 2018   1.319  10.118   5.364  0.0363 -0.1966 -0.5442
   25HK4    C47 2019   1.397  10.043   5.452 -0.1277 -0.2006 -0.4038
   25HK4    H27 2020   1.493  10.084   5.486 -0.2560 -0.3911  0.1821
   25HK4    C46 2021   1.345   9.930   5.514 -0.1632  0.0082 -0.0505
   25HK4    H26 2022   1.406   9.890   5.595  2.2287  1.7300 -0.9495
   25HK4    C40 2023   1.213   9.884   5.492 -0.1384 -0.0647 -0.0408
   25HK4    C50 2024   1.147   9.945   5.384 -0.6718  0.2950  0.4872
   25HK4    H30 2025   1.055   9.902   5.341  0.0416  1.4165 -2.2602
   25HK4    C49 2026   1.197  10.062   5.329 -0.5816  0.3518  0.6880
   25HK4    H29 2027   1.136  10.097   5.243 -0.7673 -1.6710 -0.0336
   25HK4     N2 2028   1.162   9.781   5.571  0.1912 -0.2031 -0.0088
   25HK4    C30 2029   1.032   9.776   5.625  0.1450  0.2697 -0.0759
   25HK4    C29 2030   0.923   9.861   5.613 -0.1265 -0.0656 -0.0080
   25HK4    H15 2031   0.946   9.967   5.599  1.9830 -0.3986  0.7590
   25HK4    C28 2032   0.798   9.817   5.657 -0.0023 -0.0604  0.3574
   25HK4    C27 2033   0.784   9.694   5.723 -0.7406 -0.2140 -0.0860
   25HK4    H14 2034   0.684   9.658   5.752 -1.2750  2.1799  1.0893
   25HK4    C32 2035   0.896   9.614   5.743 -0.0525  0.7731  0.0505
   25HK4    H16 2036   0.887   9.509   5.773 -0.6877  1.1462  1.2092
   25HK4    C31 2037   1.022   9.653   5.702  0.0604  0.2708 -0.0847
   25HK4    C34 2038   1.153   9.590   5.696 -0.0343  0.0693  0.0016
   25HK4    C33 2039   1.240   9.671   5.614  0.1136 -0.3573 -0.2645
   25HK4    C35 2040   1.370   9.633   5.582  0.3758  0.1867  0.1526
   25HK4    H17 2041   1.429   9.688   5.510 -0.6496 -1.0560 -1.6795
   25HK4    C36 2042   1.417   9.515   5.639 -0.1538 -0.2442 -0.3010
   25HK4    H18 2043   1.506   9.466   5.597  0.2146  1.3737 -1.4580
   25HK4    C37 2044   1.337   9.444   5.728 -0.1580  0.3766  0.2001
   25HK4    H19 2045   1.383   9.356   5.772 -0.6199  0.1326  0.1998
   25HK4    C38 2046   1.204   9.474   5.754 -0.3379 -0.1270 -0.1204
   25HK4    H20 2047   1.148   9.414   5.826  1.0882  1.1289  2.1005
   25HK4    C14 2048   0.684   9.909   5.669  0.0232  0.1029 -0.6124
   25HK4     C9 2049   0.588   9.904   5.770  0.7235  0.5170  0.0797
   25HK4     C8 2050   0.453   9.944   5.764  0.4785 -0.3144 -0.0495
   25HK4    C11 2051   0.423  10.011   5.645 -0.0701  0.2124  0.3766
   25HK4     H4 2052   0.323  10.054   5.636  1.2577  3.6586  1.2757
   25HK4    C12 2053   0.518  10.033   5.546 -0.1747  0.1185  0.2554
   25HK4     H5 2054   0.470  10.059   5.451 -0.4611  0.1837  0.4177
   25HK4    C13 2055   0.648   9.984   5.555 -0.0056  0.4535 -0.3744
   25HK4     H6 2056   0.725  10.002   5.478  1.1700 -0.6289  0.5197
   25HK4     C7 2057   0.348   9.906   5.861  0.0371  1.0142  0.0081
   25HK4     O2 2058   0.233   9.948   5.851 -0.1038  0.6708  0.1620
   25HK4     C4 2059   0.394   9.817   5.970  0.1146  0.1007 -0.7558
   25HK4     C3 2060   0.301   9.756   6.053  0.5519  0.4189 -0.0280
   25HK4     H3 2061   0.201   9.802   6.054 -0.2608 -1.2847 -0.9999
   25HK4     C2 2062   0.329   9.651   6.140 -0.2535 -0.5772 -0.9683
   25HK4     H2 2063   0.253   9.596   6.197  0.9712 -1.2714  0.0064
   25HK4     C1 2064   0.465   9.621   6.144 -0.1770 -0.0934  0.0317
   25HK4     H1 2065   0.497   9.540   6.211 -3.7866  0.5457  2.7147
   25HK4     C6 2066   0.569   9.693   6.081  0.0911 -0.1204  0.4450
   25HK4     C5 2067   0.532   9.797   5.995 -0.1166 -0.5764 -0.0166
   25HK4    C10 2068   0.633   9.855   5.903 -0.2978  0.3971  0.3925
   25HK4     O1 2069   0.724   9.918   5.958  0.0574  0.0712  0.1842
   25HK4    C16 2070   0.694   9.616   6.072  0.3110  0.3130 -0.1811
   25HK4    C15 2071   0.687   9.477   6.056  0.0865  0.3354 -0.3020
   25HK4     H7 2072   0.597   9.418   6.033 -0.7283  2.0439 -1.6174
   25HK4    C20 2073   0.802   9.400   6.074  0.2318  0.6271  0.0195
   25HK4     H9 2074   0.795   9.291   6.083 -1.5506  0.5719 -1.7214
   25HK4    C19 2075   0.925   9.457   6.106  0.3519  0.0792  0.5582
   25HK4    C18 2076   0.934   9.601   6.104 -0.1670  0.1107  0.0288
   25HK4    C17 2077   0.816   9.674   6.104  0.1711  0.6604 -0.2788
   25HK4     H8 2078   0.813   9.770   6.156  0.2463 -0.4682  1.8859
   25HK4     N1 2079   1.070   9.638   6.112 -0.1023  0.1281 -1.0144
   25HK4    C21 2080   1.149   9.521   6.118 -0.1113  0.1332 -0.7569
   25HK4    C22 2081   1.060   9.406   6.119  0.3132 -0.1941 -0.0878
   25HK4    C26 2082   1.112   9.278   6.104  0.0227 -0.3725  0.4623
   25HK4    H13 2083   1.036   9.201   6.091  0.5409 -1.1080  1.6501
   25HK4    C25 2084   1.246   9.257   6.077 -0.0358 -0.0131 -0.1164
   25HK4    H12 2085   1.275   9.152   6.078 -1.6588 -0.4779 -0.5765
   25HK4    C24 2086   1.333   9.366   6.077  0.3989 -0.3515 -0.2503
   25HK4    H11 2087   1.439   9.339   6.081  0.4942  0.2572  2.2884
   25HK4    C23 2088   1.283   9.495   6.091  0.0791 -0.5795  0.8150
   25HK4    H10 2089   1.338   9.577   6.046  1.0447 -0.2894  2.5103
   25HK4    C39 2090   1.116   9.764   6.072  0.0316  0.5134  0.3274
   25HK4    C41 2091   1.244   9.808   6.112  0.3750 -0.1522 -0.0352
   25HK4    H21 2092   1.281   9.777   6.211 -2.4166  0.0870  1.1392
   25HK4    C42 2093   1.306   9.921   6.059  0.0745 -0.0141 -0.0963
   25HK4    H22 2094   1.411   9.947   6.081  0.2419  1.3441 -2.3169
   25HK4    C43 2095   1.236  10.001   5.970 -0.1238  0.1845  0.2354
   25HK4    H23 2096   1.256  10.108   5.970  1.0946 -0.0353 -0.5598
   25HK4    C44 2097   1.116   9.954   5.917  0.1059  0.2608 -0.3533
   25HK4    H24 2098   1.061  10.020   5.848  0.7483  0.9471 -0.2099
   25HK4    C45 2099   1.057   9.839   5.968  0.6335 -0.0403 -0.4140
   25HK4    H25 2100   0.965   9.806   5.918  0.7960  1.6005 -1.8138
   26HK4    H28 2101   6.164   2.218   3.371 -0.3272 -1.9251  1.5897
   26HK4    C48 2102   6.265   2.236   3.408  0.0244  0.4307 -0.4033
   26HK4    C47 2103   6.374   2.181   3.340  0.1107 -0.1914  0.2293
   26HK4    H27 2104   6.354   2.135   3.242  0.8741  1.4930 -0.7377
   26HK4    C46 2105   6.500   2.190   3.398  0.3661  0.0950 -0.3665
   26HK4    H26 2106   6.575   2.124   3.351 -2.3257 -2.1037 -1.7122
   26HK4    C40 2107   6.529   2.258   3.518  0.3037  0.7189 -0.7025
   26HK4    C50 2108   6.415   2.306   3.584  0.1801 -0.3125 -0.1513
   26HK4    H30 2109   6.437   2.378   3.664  1.0870  4.0609 -4.0856
   26HK4    C49 2110   6.286   2.295   3.532  0.2012  0.1815 -0.3139
   26HK4    H29 2111   6.201   2.340   3.586  0.4350 -0.5941  0.7095
   26HK4     N2 2112   6.656   2.262   3.578  0.1842  0.0024 -0.3974
   26HK4    C30 2113   6.754   2.161   3.572  0.0370 -0.1745  0.1630
   26HK4    C29 2114   6.745   2.026   3.541  0.0928 -0.0927 -0.2091
   26HK4    H15 2115   6.656   1.992   3.488 -0.1251  1.1583 -0.6805
   26HK4    C28 2116   6.853   1.939   3.556  0.1463  0.0860  0.4496
   26HK4    C27 2117   6.966   1.998   3.616 -0.0099  0.1365  0.6956
   26HK4    H14 2118   7.043   1.927   3.650  2.0376  1.3140 -1.3158
   26HK4    C32 2119   6.988   2.134   3.636  0.5696  0.0821  0.4227
   26HK4    H16 2120   7.082   2.170   3.679  0.9621  2.4690 -2.2778
   26HK4    C31 2121   6.882   2.219   3.611  0.1338 -0.4908  0.3245
   26HK4    C34 2122   6.859   2.359   3.643  0.2068 -0.4369  0.1449
   26HK4    C33 2123   6.716   2.379   3.629  0.3295 -0.0176 -0.5228
   26HK4    C35 2124   6.666   2.507   3.643 -0.5579 -0.4606  0.4191
   26HK4    H17 2125   6.560   2.531   3.631 -0.1607  1.8157  1.1175
   26HK4    C36 2126   6.746   2.614   3.684  0.0705 -0.5797 -0.4857
   26HK4    H18 2127   6.698   2.711   3.701  0.0823 -0.8378  1.1051
   26HK4    C37 2128   6.882   2.593   3.701 -0.0917 -0.3173  1.2228
   26HK4    H19 2129   6.941   2.674   3.744 -0.1757  0.2728  0.2358
   26HK4    C38 2130   6.937   2.466   3.685 -0.0454 -0.1276 -0.1786
   26HK4    H20 2131   7.029   2.446   3.740  0.2186  2.6221  0.4319
   26HK4    C14 2132   6.827   1.795   3.552 -0.7942  0.2562  0.0964
   26HK4     C9 2133   6.898   1.699   3.625 -0.7501 -0.1133 -0.4242
   26HK4     C8 2134   6.936   1.575   3.568  0.4801  0.3056 -0.5253
   26HK4    C11 2135   6.879   1.540   3.447 -0.1855 -0.1972 -0.0688
   26HK4     H4 2136   6.902   1.446   3.396 -1.8647 -1.6710  1.8083
   26HK4    C12 2137   6.797   1.629   3.378  0.1309  0.0399 -0.1379
   26HK4     H5 2138   6.740   1.591   3.292  1.1955 -0.0549 -0.8163
   26HK4    C13 2139   6.771   1.756   3.428 -0.2280 -0.0620 -0.0651
   26HK4     H6 2140   6.695   1.816   3.376  1.0562  1.8334  0.1799
   26HK4     C7 2141   7.031   1.487   3.639  0.4595  0.6138 -0.1077
   26HK4     O2 2142   7.033   1.368   3.607 -0.3569  0.5106  0.2140
   26HK4     C4 2143   7.099   1.538   3.760  0.3879  0.3138  0.0572
   26HK4     C3 2144   7.219   1.475   3.794  0.3257  0.0488 -0.2109
   26HK4     H3 2145   7.263   1.410   3.717  0.0136  0.8770 -1.0818
   26HK4     C2 2146   7.278   1.516   3.913 -0.1587 -0.6241  0.2709
   26HK4     H2 2147   7.378   1.491   3.950  0.8694  0.0809 -1.9728
   26HK4     C1 2148   7.217   1.614   3.991 -0.0748 -0.4874  0.1636
   26HK4     H1 2149   7.263   1.623   4.090  0.8453 -1.5840 -0.1554
   26HK4     C6 2150   7.096   1.678   3.955 -0.0647 -0.5503  0.0178
   26HK4     C5 2151   7.039   1.643   3.832  0.0619  0.3776 -0.3077
   26HK4    C10 2152   6.933   1.725   3.768  0.5340  0.5663 -0.8560
   26HK4     O1 2153   6.846   1.774   3.840  0.5939  0.0384 -0.4249
   26HK4    C16 2154   7.086   1.806   4.026 -0.3366 -0.1082 -0.8153
   26HK4    C15 2155   7.199   1.879   4.069 -0.5425 -0.0788 -0.3216
   26HK4     H7 2156   7.279   1.891   3.994 -0.1002 -0.7037  0.0489
   26HK4    C20 2157   7.196   1.961   4.181  0.7824 -0.6999  0.1754
   26HK4     H9 2158   7.284   2.019   4.208  0.2785  0.8543 -1.4358
   26HK4    C19 2159   7.088   1.961   4.269  0.1119  0.4493 -0.6399
   26HK4    C18 2160   6.974   1.881   4.231  0.3192 -0.1874  0.0698
   26HK4    C17 2161   6.976   1.813   4.109  0.0464  0.5523 -0.3517
   26HK4     H8 2162   6.881   1.763   4.086 -1.1101  2.2513  0.5926
   26HK4     N1 2163   6.876   1.877   4.332  0.0913  0.2246 -0.1332
   26HK4    C21 2164   6.922   1.964   4.432  0.1222  0.1858 -0.1133
   26HK4    C22 2165   7.049   2.022   4.394  0.1572 -0.0618 -0.3754
   26HK4    C26 2166   7.119   2.110   4.477 -0.5819  0.3596 -0.1934
   26HK4    H13 2167   7.226   2.126   4.466 -0.2915 -0.8097  0.7510
   26HK4    C25 2168   7.061   2.145   4.598  0.1628  0.5525  0.1085
   26HK4    H12 2169   7.111   2.229   4.647 -0.7147 -0.0399  2.1047
   26HK4    C24 2170   6.938   2.094   4.637  0.3207  0.0643 -0.0337
   26HK4    H11 2171   6.893   2.113   4.736 -0.8703  0.5347 -0.6531
   26HK4    C23 2172   6.870   2.004   4.555  0.2899  0.0524  0.0027
   26HK4    H10 2173   6.768   1.974   4.582 -0.2539  0.9911 -0.9435
   26HK4    C39 2174   6.740   1.855   4.305  0.3496 -0.7781 -0.6315
   26HK4    C41 2175   6.654   1.816   4.410  0.1378  0.2216 -0.4347
   26HK4    H21 2176   6.701   1.766   4.496  0.1253  0.9574  0.0119
   26HK4    C42 2177   6.516   1.819   4.412  0.1389  0.2087 -0.3381
   26HK4    H22 2178   6.450   1.784   4.493 -0.3523 -2.5014 -1.8370
   26HK4    C43 2179   6.459   1.869   4.295 -0.6676 -0.4212 -0.2198
   26HK4    H23 2180   6.351   1.872   4.281 -0.3952  2.3900 -2.1758
   26HK4    C44 2181   6.535   1.907   4.185 -0.1263  0.4805  0.4618
   26HK4    H24 2182   6.487   1.957   4.100  0.1892  0.9011  0.5313
   26HK4    C45 2183   6.674   1.901   4.190 -0.1221  0.2026  0.0305
   26HK4    H25 2184   6.732   1.920   4.098  0.5001  1.1303  0.6039
   27HK4    H28 2185   0.223   3.265   5.990  0.8135 -1.5155  1.7652
   27HK4    C48 2186   0.285   3.200   5.928  0.1787 -0.4899  0.0294
   27HK4    C47 2187   0.259   3.065   5.942 -0.3953 -0.3648  0.1776
   27HK4    H27 2188   0.164   3.038   5.989 -1.1626  1.8419 -0.0633
   27HK4    C46 2189   0.352   2.970   5.900 -0.1383 -0.2303  0.4409
   27HK4    H26 2190   0.334   2.864   5.922 -2.3608 -0.5134 -2.4035
   27HK4    C40 2191   0.474   3.006   5.838  0.0310 -0.0894  0.8563
   27HK4    C50 2192   0.496   3.144   5.816  0.7633 -0.3165  0.1797
   27HK4    H30 2193   0.577   3.187   5.755  1.0242  0.4161  1.0316
   27HK4    C49 2194   0.403   3.236   5.863  0.3451 -0.7436  0.1924
   27HK4    H29 2195   0.438   3.340   5.871 -1.6466  0.1468 -2.1344
   27HK4     N2 2196   0.593   2.933   5.848  0.2156  0.1001  0.0774
   27HK4    C30 2197   0.623   2.837   5.947 -0.3532 -0.3652 -0.1960
   27HK4    C29 2198   0.568   2.822   6.073 -0.0161 -0.0334 -0.0060
   27HK4    H15 2199   0.538   2.916   6.119  0.7429  0.9178 -1.4654
   27HK4    C28 2200   0.594   2.712   6.155  0.4027  0.5026  0.5902
   27HK4    C27 2201   0.678   2.614   6.099 -0.3111  0.2669 -0.0803
   27HK4    H14 2202   0.689   2.514   6.145  0.7482 -0.3301 -1.5929
   27HK4    C32 2203   0.750   2.632   5.982 -0.4859 -0.0230 -0.2337
   27HK4    H16 2204   0.796   2.542   5.941 -0.9242 -0.3128 -0.0845
   27HK4    C31 2205   0.732   2.749   5.909  0.0200  0.0861 -0.1864
   27HK4    C34 2206   0.767   2.798   5.777  0.2907  0.5428  0.0549
   27HK4    C33 2207   0.688   2.916   5.747 -0.2137  0.1081 -0.3291
   27HK4    C35 2208   0.705   2.988   5.629 -0.4477 -0.2640 -0.5907
   27HK4    H17 2209   0.641   3.074   5.607 -0.9948 -0.0675  1.6371
   27HK4    C36 2210   0.806   2.943   5.546  0.3547  0.5863 -0.0825
   27HK4    H18 2211   0.834   3.018   5.470  2.7715 -1.0952 -0.9364
   27HK4    C37 2212   0.890   2.835   5.572 -0.2068  0.1351 -0.1212
   27HK4    H19 2213   0.979   2.811   5.513 -0.3622 -1.7260  0.3837
   27HK4    C38 2214   0.867   2.761   5.687  0.2214  0.3044  0.0768
   27HK4    H20 2215   0.932   2.678   5.714 -2.0707 -1.0316  1.6410
   27HK4    C14 2216   0.542   2.700   6.292 -0.2965 -0.2578  0.2605
   27HK4     C9 2217   0.582   2.605   6.386 -0.1658 -0.3648  0.0970
   27HK4     C8 2218   0.493   2.551   6.481 -0.2272  0.1917  0.3567
   27HK4    C11 2219   0.367   2.609   6.496 -0.2058  0.2696  0.2335
   27HK4     H4 2220   0.289   2.567   6.561 -1.7763  0.9646 -1.1489
   27HK4    C12 2221   0.330   2.712   6.411 -1.0305 -0.4260 -0.2547
   27HK4     H5 2222   0.244   2.778   6.432 -0.6832 -0.5475  1.6365
   27HK4    C13 2223   0.411   2.752   6.306 -0.4472 -0.5965  0.1309
   27HK4     H6 2224   0.367   2.817   6.229 -2.3590  0.2996  1.9467
   27HK4     C7 2225   0.527   2.454   6.588  0.7647 -0.2348 -0.3472
   27HK4     O2 2226   0.445   2.373   6.632  0.5208 -0.2035 -0.7425
   27HK4     C4 2227   0.669   2.416   6.605  0.7553  0.0028  0.2483
   27HK4     C3 2228   0.706   2.332   6.710  0.4722 -0.3572  0.0645
   27HK4     H3 2229   0.629   2.298   6.780  0.1042  0.4465  0.0569
   27HK4     C2 2230   0.840   2.296   6.722  0.5658  0.0538  0.2779
   27HK4     H2 2231   0.871   2.261   6.821 -1.5355  0.6012  1.1515
   27HK4     C1 2232   0.930   2.342   6.626  0.1861 -0.0614 -0.1367
   27HK4     H1 2233   1.033   2.304   6.640  0.6966  0.9944 -0.9383
   27HK4     C6 2234   0.891   2.409   6.508  0.3532  0.5427  0.1465
   27HK4     C5 2235   0.760   2.458   6.506  0.1216 -0.0811 -0.3739
   27HK4    C10 2236   0.723   2.564   6.408 -0.0288 -0.1651 -0.4077
   27HK4     O1 2237   0.809   2.647   6.381  0.3295 -0.2335  0.4915
   27HK4    C16 2238   0.990   2.399   6.400  0.1846  0.0664  0.0334
   27HK4    C15 2239   0.948   2.405   6.266  0.0186 -0.2470  0.0718
   27HK4     H7 2240   0.844   2.369   6.256 -1.0234  3.1806 -2.4531
   27HK4    C20 2241   1.029   2.420   6.154 -0.0523 -0.2273  0.0225
   27HK4     H9 2242   0.986   2.468   6.066  1.0366 -0.4507 -0.6348
   27HK4    C19 2243   1.165   2.426   6.181 -0.0842 -0.4354  0.2306
   27HK4    C18 2244   1.215   2.424   6.317 -0.1487  0.1908  0.2642
   27HK4    C17 2245   1.127   2.412   6.423  0.0523  0.6815  0.4881
   27HK4     H8 2246   1.163   2.404   6.525  0.6258  2.5658  0.4527
   27HK4     N1 2247   1.355   2.405   6.326 -0.1212  0.3935  0.2691
   27HK4    C21 2248   1.395   2.395   6.191 -0.4365  0.1615  0.1918
   27HK4    C22 2249   1.283   2.406   6.098 -0.1879  0.2864 -0.0939
   27HK4    C26 2250   1.307   2.416   5.962  0.5263 -0.2837 -0.0145
   27HK4    H13 2251   1.219   2.425   5.899  2.4114 -1.1766 -2.8747
   27HK4    C25 2252   1.438   2.410   5.914  0.2454 -0.3007 -0.7926
   27HK4    H12 2253   1.448   2.420   5.806  2.6387 -1.9089 -0.7475
   27HK4    C24 2254   1.547   2.406   6.001 -0.2534 -0.1297 -0.1494
   27HK4    H11 2255   1.646   2.391   5.955 -0.7861 -2.2264 -0.6796
   27HK4    C23 2256   1.523   2.398   6.137 -0.5952  0.0848 -0.1952
   27HK4    H10 2257   1.616   2.394   6.194  0.3620 -0.4456 -1.7936
   27HK4    C39 2258   1.439   2.452   6.427 -0.1483  0.1549  0.4029
   27HK4    C41 2259   1.550   2.384   6.482 -0.1622  0.0452  0.2953
   27HK4    H21 2260   1.559   2.276   6.464 -2.3481  0.3591 -3.2028
   27HK4    C42 2261   1.645   2.440   6.567  0.0240  0.1685  0.0088
   27HK4    H22 2262   1.708   2.377   6.631 -0.6559  1.1423  1.6703
   27HK4    C43 2263   1.642   2.576   6.592  0.1003  0.1454  0.1399
   27HK4    H23 2264   1.716   2.633   6.650  0.6144  0.1994 -0.5668
   27HK4    C44 2265   1.533   2.646   6.540  0.1629  0.2650  0.1687
   27HK4    H24 2266   1.530   2.755   6.552  1.2487  0.3614 -0.3918
   27HK4    C45 2267   1.434   2.589   6.462  0.2157  0.2436  0.1165
   27HK4    H25 2268   1.339   2.645   6.466  0.6834  1.1269 -0.7919
   28HK4    H28 2269   0.885   5.935   5.661 -1.5366  0.7707  1.6264
   28HK4    C48 2270   0.812   5.857   5.640 -0.1976  0.0762 -0.5308
   28HK4    C47 2271   0.679   5.888   5.614 -0.1361  0.5234 -0.3046
   28HK4    H27 2272   0.662   5.990   5.576 -0.4768  0.1393 -1.1876
   28HK4    C46 2273   0.584   5.793   5.581  0.4337 -0.0614 -0.2588
   28HK4    H26 2274   0.476   5.815   5.576  0.5163  0.0767 -1.4287
   28HK4    C40 2275   0.624   5.658   5.573 -0.0541 -0.2850  0.9755
   28HK4    C50 2276   0.759   5.628   5.601  0.2425 -0.0288 -0.1682
   28HK4    H30 2277   0.799   5.526   5.596  1.4539  0.4834 -1.1828
   28HK4    C49 2278   0.854   5.725   5.631 -0.0110  0.0811  0.2839
   28HK4    H29 2279   0.955   5.694   5.663 -0.1241 -0.2515  0.3246
   28HK4     N2 2280   0.551   5.561   5.502  0.0261  0.2949  0.1148
   28HK4    C30 2281   0.466   5.583   5.392  0.2001 -0.2381 -0.1276
   28HK4    C29 2282   0.439   5.701   5.323  0.1375 -0.1920 -0.0249
   28HK4    H15 2283   0.506   5.787   5.320 -0.1434 -0.0117 -1.3108
   28HK4    C28 2284   0.338   5.700   5.228  0.1364 -0.2341 -0.0243
   28HK4    C27 2285   0.272   5.578   5.203 -0.0439 -0.1709  0.1405
   28HK4    H14 2286   0.190   5.575   5.130  2.0256 -1.2239 -2.2127
   28HK4    C32 2287   0.292   5.458   5.270 -0.2516 -0.4796 -0.3433
   28HK4    H16 2288   0.228   5.371   5.256  0.1534 -0.7400 -0.5543
   28HK4    C31 2289   0.400   5.458   5.357 -0.4843  0.0979 -0.0504
   28HK4    C34 2290   0.455   5.355   5.443  0.0989  0.1871 -0.3097
   28HK4    C33 2291   0.540   5.425   5.537 -0.0530  0.2211 -0.1980
   28HK4    C35 2292   0.591   5.353   5.644 -0.4039 -0.1834 -0.3000
   28HK4    H17 2293   0.642   5.413   5.719 -1.1944  0.3475 -0.1821
   28HK4    C36 2294   0.578   5.215   5.651 -0.0032 -0.2059  0.0323
   28HK4    H18 2295   0.593   5.163   5.747 -0.8664 -2.1141 -0.8281
   28HK4    C37 2296   0.503   5.150   5.554  0.1551  0.1322 -0.3186
   28HK4    H19 2297   0.481   5.043   5.560 -0.2944  0.2625  0.5352
   28HK4    C38 2298   0.433   5.218   5.455 -0.0747  0.2306 -0.0910
   28HK4    H20 2299   0.379   5.162   5.378  0.3113 -0.3179  0.0300
   28HK4    C14 2300   0.272   5.828   5.198  0.2286 -0.2114 -0.1295
   28HK4     C9 2301   0.132   5.835   5.188  0.2235  0.3484  0.2908
   28HK4     C8 2302   0.075   5.914   5.087  0.1680 -0.4084 -0.2773
   28HK4    C11 2303   0.154   5.987   4.999 -0.0269  0.5995  0.3776
   28HK4     H4 2304   0.107   6.046   4.919 -0.6897  1.2460  1.2353
   28HK4    C12 2305   0.292   5.997   5.016  0.0265 -0.1531  0.3765
   28HK4     H5 2306   0.348   6.076   4.965 -0.6624 -1.1174 -1.9023
   28HK4    C13 2307   0.346   5.911   5.112  0.4593 -0.0339  0.2381
   28HK4     H6 2308   0.456   5.907   5.119  0.3585 -3.6012  0.3983
   28HK4     C7 2309  11.176   5.921   5.069  0.2074 -0.2163 -0.5352
   28HK4     O2 2310  11.129   6.011   5.000 -0.4066 -0.1771 -0.0580
   28HK4     C4 2311  11.095   5.846   5.167  0.2648  0.4241  0.0077
   28HK4     C3 2312  10.959   5.830   5.139  0.2153  0.8926 -0.0184
   28HK4     H3 2313  10.918   5.837   5.037 -1.0365 -0.5691  0.3650
   28HK4     C2 2314  10.870   5.779   5.232  0.4846 -0.2003 -0.3586
   28HK4     H2 2315  10.767   5.755   5.203  0.0279 -0.1980  1.1817
   28HK4     C1 2316  10.915   5.750   5.361  0.4559  0.1002 -0.2827
   28HK4     H1 2317  10.849   5.693   5.429  1.3750 -1.3119 -0.5641
   28HK4     C6 2318  11.049   5.776   5.396  0.2887 -0.1081  0.5321
   28HK4     C5 2319  11.140   5.814   5.296 -0.1619 -0.7380 -0.1256
   28HK4    C10 2320   0.039   5.789   5.296 -0.0212  0.1094 -0.0227
   28HK4     O1 2321   0.083   5.719   5.386 -0.1660  0.1028  0.0436
   28HK4    C16 2322  11.088   5.761   5.537  0.6706 -0.2124  0.4161
   28HK4    C15 2323  11.011   5.686   5.628 -0.0602 -0.0149 -0.0367
   28HK4     H7 2324  10.956   5.596   5.595  0.4466 -0.2369 -0.2756
   28HK4    C20 2325  11.020   5.709   5.764  0.1720 -0.1164 -0.0353
   28HK4     H9 2326  10.962   5.650   5.835  1.0992 -1.0226 -0.0186
   28HK4    C19 2327  11.111   5.799   5.821 -0.3327  0.0657  0.4901
   28HK4    C18 2328  11.192   5.876   5.729 -0.5181 -0.0088  0.2620
   28HK4    C17 2329  11.168   5.859   5.593  0.5451  0.1002  0.0566
   28HK4     H8 2330  11.216   5.928   5.523  0.4282 -0.4282 -0.5448
   28HK4     N1 2331   0.045   5.950   5.795 -0.2306  0.1534 -0.3541
   28HK4    C21 2332   0.030   5.921   5.932 -0.1435  0.4370 -0.2827
   28HK4    C22 2333  11.176   5.819   5.949  0.3490  0.0072  0.1563
   28HK4    C26 2334  11.150   5.763   6.073  0.0377  0.1397  0.1529
   28HK4    H13 2335  11.069   5.692   6.085 -0.3341  0.2196 -1.7308
   28HK4    C25 2336  11.212   5.807   6.190  0.5438 -0.1172 -0.0171
   28HK4    H12 2337  11.189   5.782   6.294  1.9756 -0.6236  0.1939
   28HK4    C24 2338   0.055   5.910   6.173 -0.1727  0.5171 -0.0366
   28HK4    H11 2339   0.106   5.949   6.262  0.3792 -0.6414  0.1636
   28HK4    C23 2340   0.086   5.967   6.050 -0.0887  0.1398 -0.1912
   28HK4    H10 2341   0.150   6.055   6.042  0.1968  0.0439  0.8779
   28HK4    C39 2342   0.152   6.013   5.731  0.1421 -0.1842 -0.0535
   28HK4    C41 2343   0.219   6.118   5.797  0.1975  0.1728 -0.6757
   28HK4    H21 2344   0.154   6.174   5.867  0.4616  1.3819 -1.3824
   28HK4    C42 2345   0.336   6.171   5.745  0.1220  0.9071 -0.1213
   28HK4    H22 2346   0.382   6.264   5.782  0.3271  1.0924 -0.8239
   28HK4    C43 2347   0.399   6.120   5.632  0.2702  0.2739  0.2435
   28HK4    H23 2348   0.483   6.176   5.588 -0.3877  1.3790  0.3749
   28HK4    C44 2349   0.336   6.014   5.569  0.3909  0.0689  0.4680
   28HK4    H24 2350   0.378   5.974   5.475 -2.4180 -0.1716 -0.7354
   28HK4    C45 2351   0.214   5.965   5.614 -0.0557  0.3759 -0.3913
   28HK4    H25 2352   0.191   5.870   5.563 -0.0079  0.8404 -1.2853
   29HK4    H28 2353   9.891   4.428   6.336 -0.8027 -1.4757 -0.7375
   29HK4    C48 2354   9.788   4.461   6.345 -0.2912 -0.0386  0.1316
   29HK4    C47 2355   9.758   4.591   6.306  0.2390  0.1492  0.3467
   29HK4    H27 2356   9.838   4.663   6.284 -0.3448  0.3901 -0.9895
   29HK4    C46 2357   9.626   4.635   6.316  0.2622  0.0744  1.0481
   29HK4    H26 2358   9.606   4.741   6.294 -0.3901 -0.3524 -0.4575
   29HK4    C40 2359   9.526   4.549   6.367 -0.1734 -0.2009 -0.2716
   29HK4    C50 2360   9.562   4.415   6.393 -0.0818 -0.0824  0.2194
   29HK4    H30 2361   9.482   4.339   6.386  0.2334 -0.2214 -2.4360
   29HK4    C49 2362   9.693   4.369   6.387 -0.1042 -0.1625  0.2746
   29HK4    H29 2363   9.727   4.268   6.416 -1.0651 -0.7636 -0.6587
   29HK4     N2 2364   9.393   4.590   6.376 -0.0683  0.1266 -0.2058
   29HK4    C30 2365   9.339   4.700   6.306 -0.6252  0.2553  0.4226
   29HK4    C29 2366   9.359   4.740   6.175 -0.3296 -0.1710  0.3370
   29HK4    H15 2367   9.449   4.703   6.126 -0.1020  0.3244  0.3726
   29HK4    C28 2368   9.273   4.828   6.110 -0.1986 -0.5089 -0.2986
   29HK4    C27 2369   9.169   4.881   6.189  0.3507  0.1196  0.0130
   29HK4    H14 2370   9.096   4.954   6.150  1.2100  0.8481 -0.2328
   29HK4    C32 2371   9.144   4.845   6.321 -0.4013  0.1226 -0.1273
   29HK4    H16 2372   9.065   4.891   6.381  0.7418 -1.0092  2.2970
   29HK4    C31 2373   9.228   4.753   6.383 -0.9481 -0.1383  0.2343
   29HK4    C34 2374   9.206   4.672   6.501  0.6823 -0.0680  0.5966
   29HK4    C33 2375   9.310   4.571   6.489  0.4285 -0.2753  0.0937
   29HK4    C35 2376   9.334   4.483   6.593  0.4162  0.0561  0.3777
   29HK4    H17 2377   9.409   4.404   6.584 -1.0958 -1.2689 -1.0209
   29HK4    C36 2378   9.256   4.497   6.707  0.4210  0.2017  0.3624
   29HK4    H18 2379   9.271   4.418   6.782  0.4840 -0.6070 -0.4993
   29HK4    C37 2380   9.157   4.593   6.724 -0.4875 -0.6068 -0.2768
   29HK4    H19 2381   9.102   4.596   6.818  0.0217  0.4213  0.0048
   29HK4    C38 2382   9.133   4.680   6.618 -0.2748 -0.1911  0.0164
   29HK4    H20 2383   9.082   4.776   6.628 -0.1562  0.1144 -2.1014
   29HK4    C14 2384   9.311   4.874   5.975 -0.0557  0.1989 -0.0165
   29HK4     C9 2385   9.276   4.998   5.920 -0.2423  0.2041  0.1118
   29HK4     C8 2386   9.262   5.015   5.780 -0.1586 -0.3379  0.0345
   29HK4    C11 2387   9.295   4.911   5.694  0.7990  0.1755 -0.2282
   29HK4     H4 2388   9.261   4.917   5.590  0.5028 -1.0906 -0.2074
   29HK4    C12 2389   9.338   4.790   5.745 -0.5912 -0.0339  0.4823
   29HK4     H5 2390   9.381   4.723   5.668 -1.8838 -0.4631  0.1137
   29HK4    C13 2391   9.337   4.771   5.883  0.1152 -0.1951  0.4662
   29HK4     H6 2392   9.370   4.676   5.928  1.4763 -0.3497 -0.7904
   29HK4     C7 2393   9.221   5.144   5.720  0.4715 -0.3258 -0.3703
   29HK4     O2 2394   9.169   5.146   5.608 -0.0848  0.8573 -0.0959
   29HK4     C4 2395   9.211   5.259   5.812  0.2949 -0.3823 -0.3198
   29HK4     C3 2396   9.195   5.384   5.754 -0.0122 -0.6046 -0.7129
   29HK4     H3 2397   9.207   5.401   5.646  1.7346  0.8515 -0.3134
   29HK4     C2 2398   9.150   5.490   5.832  0.4651 -0.5061 -0.5749
   29HK4     H2 2399   9.159   5.593   5.795 -0.2963 -1.0904 -2.4385
   29HK4     C1 2400   9.116   5.463   5.965  0.3360  0.0726 -0.4920
   29HK4     H1 2401   9.089   5.552   6.024 -1.6235  0.9649 -2.6471
   29HK4     C6 2402   9.119   5.334   6.020  0.2416  0.3025  0.0624
   29HK4     C5 2403   9.189   5.235   5.949  0.1420  0.4194 -0.2018
   29HK4    C10 2404   9.251   5.114   6.010 -0.2289  0.3175 -0.0264
   29HK4     O1 2405   9.328   5.133   6.103  0.2310  0.0559 -0.3530
   29HK4    C16 2406   9.012   5.293   6.111  0.2839  0.0013 -0.0249
   29HK4    C15 2407   8.904   5.384   6.110  0.6851  0.4819  0.3414
   29HK4     H7 2408   8.872   5.418   6.011  2.9401 -0.9354 -0.9167
   29HK4    C20 2409   8.837   5.425   6.225 -0.4673  0.2143 -0.2287
   29HK4     H9 2410   8.758   5.500   6.228  0.5663  1.3755 -1.0604
   29HK4    C19 2411   8.876   5.370   6.347  0.1901  0.2551 -0.4159
   29HK4    C18 2412   8.981   5.271   6.351  0.5845  0.7020  0.2082
   29HK4    C17 2413   9.046   5.236   6.233  0.4334  0.5258  0.1768
   29HK4     H8 2414   9.131   5.168   6.239 -1.1526 -1.4969  0.2003
   29HK4     N1 2415   8.988   5.211   6.479  0.1826  0.4352  0.1024
   29HK4    C21 2416   8.888   5.273   6.557 -0.2781 -0.4131  0.1899
   29HK4    C22 2417   8.821   5.376   6.481  0.4463 -0.2922 -0.2863
   29HK4    C26 2418   8.730   5.465   6.537  0.0052 -0.8986 -0.0327
   29HK4    H13 2419   8.677   5.544   6.483 -0.1643 -1.0876 -0.1439
   29HK4    C25 2420   8.699   5.445   6.671 -0.1990 -0.3392  0.0053
   29HK4    H12 2421   8.615   5.503   6.710  0.8115 -0.0740  1.8374
   29HK4    C24 2422   8.756   5.343   6.746 -0.2937 -0.3513  0.0607
   29HK4    H11 2423   8.760   5.349   6.855 -1.3322 -0.3173  0.1066
   29HK4    C23 2424   8.851   5.258   6.690 -0.5304 -0.6382  0.0953
   29HK4    H10 2425   8.901   5.181   6.750 -1.2231 -0.5306  0.8231
   29HK4    C39 2426   9.100   5.146   6.531 -0.0288 -0.5950 -0.7067
   29HK4    C41 2427   9.091   5.051   6.635  0.5638 -0.5404 -0.6064
   29HK4    H21 2428   8.995   5.005   6.662 -0.4153  1.2299 -1.0140
   29HK4    C42 2429   9.203   5.005   6.704 -0.0562 -1.0567  0.0597
   29HK4    H22 2430   9.203   4.935   6.789  3.4753 -1.2152  0.0047
   29HK4    C43 2431   9.330   5.050   6.671 -0.4135 -0.0829 -0.0127
   29HK4    H23 2432   9.413   5.026   6.737  0.4546  0.7664 -0.7804
   29HK4    C44 2433   9.344   5.141   6.567  0.2371 -0.4819 -0.2746
   29HK4    H24 2434   9.442   5.190   6.553 -0.9887  1.4867 -2.2704
   29HK4    C45 2435   9.231   5.188   6.501  0.0922 -0.4967 -0.0411
   29HK4    H25 2436   9.245   5.277   6.437  1.7011 -0.8443 -0.1933
   30HK4    H28 2437   6.814   1.750   1.297 -0.2190  0.7254 -0.3262
   30HK4    C48 2438   6.883   1.716   1.219  0.1657  0.0556  0.2931
   30HK4    C47 2439   6.962   1.813   1.158 -0.2501  0.0082 -0.3273
   30HK4    H27 2440   6.955   1.920   1.183  2.3332 -0.1211  1.0760
   30HK4    C46 2441   7.071   1.768   1.085  0.6173  0.2972  0.7770
   30HK4    H26 2442   7.122   1.848   1.030  1.4083 -1.0610 -0.5152
   30HK4    C40 2443   7.101   1.631   1.069  0.4000  0.3456 -0.0600
   30HK4    C50 2444   7.013   1.538   1.129  0.1987  0.4382 -0.2056
   30HK4    H30 2445   7.050   1.435   1.138 -0.7079 -0.2156 -3.3505
   30HK4    C49 2446   6.902   1.580   1.202  0.3016  0.0925  0.1512
   30HK4    H29 2447   6.821   1.513   1.233  0.2402 -0.8280 -1.9010
   30HK4     N2 2448   7.176   1.580   0.962  0.1149  0.2043 -0.1951
   30HK4    C30 2449   7.194   1.660   0.847  0.0534  0.2490 -0.1739
   30HK4    C29 2450   7.099   1.714   0.761 -0.5449  0.2342  0.4770
   30HK4    H15 2451   7.002   1.742   0.800  0.1458  3.3910  0.0250
   30HK4    C28 2452   7.142   1.760   0.638 -0.1911 -0.0040  0.5102
   30HK4    C27 2453   7.279   1.769   0.603 -0.2976  0.3291  0.1675
   30HK4    H14 2454   7.307   1.833   0.518 -1.8074  1.2468  0.3429
   30HK4    C32 2455   7.374   1.713   0.687 -0.2684 -0.3013 -0.2832
   30HK4    H16 2456   7.464   1.674   0.639  0.0483 -1.9341  1.5672
   30HK4    C31 2457   7.333   1.653   0.806 -0.0341 -0.5680 -0.3379
   30HK4    C34 2458   7.398   1.561   0.897  0.2575 -0.1620 -0.1345
   30HK4    C33 2459   7.295   1.509   0.985  0.1731  0.3911  0.0937
   30HK4    C35 2460   7.316   1.390   1.054 -0.6154 -0.0625 -0.4407
   30HK4    H17 2461   7.242   1.355   1.126 -0.3027 -2.6775 -1.3022
   30HK4    C36 2462   7.437   1.322   1.043 -0.4086  0.2348  0.0177
   30HK4    H18 2463   7.472   1.238   1.105  0.0747 -1.3554 -2.3429
   30HK4    C37 2464   7.536   1.374   0.960  0.2030 -0.5659  0.2411
   30HK4    H19 2465   7.632   1.321   0.960  0.8791  0.6207  1.7568
   30HK4    C38 2466   7.517   1.490   0.886  0.1810 -0.4008  0.5030
   30HK4    H20 2467   7.596   1.530   0.822 -1.1069  1.4784  0.0736
   30HK4    C14 2468   7.045   1.776   0.529  0.0384 -0.0908  0.2925
   30HK4     C9 2469   7.070   1.742   0.395  0.4096  0.6234  0.1781
   30HK4     C8 2470   7.006   1.806   0.287 -0.5672 -0.3695  0.1667
   30HK4    C11 2471   6.898   1.890   0.318 -0.5815 -0.3568  0.0811
   30HK4     H4 2472   6.833   1.919   0.234 -3.1497 -3.4152  0.9302
   30HK4    C12 2473   6.862   1.918   0.449 -0.8444  0.1639 -0.1026
   30HK4     H5 2474   6.762   1.961   0.468 -1.5235 -1.7248  0.6776
   30HK4    C13 2475   6.937   1.864   0.552 -0.3257 -0.2650 -0.6969
   30HK4     H6 2476   6.891   1.862   0.652 -1.3877 -0.3098 -1.1834
   30HK4     C7 2477   7.069   1.803   0.154  0.3474  0.1591  0.5880
   30HK4     O2 2478   7.003   1.837   0.056  0.2723 -0.3562  0.4628
   30HK4     C4 2479   7.206   1.748   0.135  0.4585  0.6705 -0.1260
   30HK4     C3 2480   7.271   1.765   0.014 -0.1566  0.7857 -0.4475
   30HK4     H3 2481   7.223   1.810  11.174 -0.0662  0.0274 -0.8953
   30HK4     C2 2482   7.384   1.687  11.237 -0.4484  0.0449  0.5440
   30HK4     H2 2483   7.409   1.676  11.131  0.3904  0.3081  0.7108
   30HK4     C1 2484   7.439   1.611   0.091 -0.1330  0.1089  0.4217
   30HK4     H1 2485   7.536   1.562   0.074 -0.7382 -1.1020  0.4179
   30HK4     C6 2486   7.374   1.593   0.215 -0.0446  0.1851  0.4791
   30HK4     C5 2487   7.250   1.656   0.232 -0.0726  0.3214 -0.2166
   30HK4    C10 2488   7.171   1.639   0.357 -0.4645  0.0158 -0.5031
   30HK4     O1 2489   7.141   1.529   0.403  0.5910 -0.0524  0.0227
   30HK4    C16 2490   7.465   1.572   0.328  0.0884 -0.3200  0.2788
   30HK4    C15 2491   7.587   1.643   0.340  0.1107 -0.2704 -0.2539
   30HK4     H7 2492   7.616   1.713   0.260  1.9734 -1.7889 -0.9583
   30HK4    C20 2493   7.685   1.609   0.432  0.0380  0.1580 -0.0167
   30HK4     H9 2494   7.777   1.667   0.441  0.0779  0.1403 -0.2836
   30HK4    C19 2495   7.663   1.506   0.522 -0.0215 -0.2206 -0.4610
   30HK4    C18 2496   7.540   1.429   0.508 -0.3576  0.1358  0.4975
   30HK4    C17 2497   7.447   1.462   0.410 -0.1815 -0.3598  0.1662
   30HK4     H8 2498   7.376   1.385   0.379  1.3236 -2.0799  0.8855
   30HK4     N1 2499   7.532   1.317   0.593  0.1738 -0.3553 -0.0910
   30HK4    C21 2500   7.659   1.318   0.653  0.1186  0.2992  0.0246
   30HK4    C22 2501   7.743   1.431   0.617  0.0881  0.2595 -0.1765
   30HK4    C26 2502   7.871   1.453   0.667  0.2587 -0.6898 -0.1864
   30HK4    H13 2503   7.926   1.543   0.639  0.9557 -0.9539  0.3289
   30HK4    C25 2504   7.932   1.361   0.751  0.3878 -0.1628  0.3029
   30HK4    H12 2505   8.036   1.365   0.783  0.9128  0.0390 -1.3978
   30HK4    C24 2506   7.858   1.247   0.781  0.1255 -0.0263  0.1681
   30HK4    H11 2507   7.919   1.158   0.797  1.2718  0.5789 -0.7720
   30HK4    C23 2508   7.729   1.227   0.732  0.3182  0.0870 -0.3947
   30HK4    H10 2509   7.678   1.133   0.755  0.1989  0.7316  2.1175
   30HK4    C39 2510   7.418   1.249   0.639 -0.1567  0.3065  0.0807
   30HK4    C41 2511   7.436   1.121   0.694  0.5515  0.3693 -0.0009
   30HK4    H21 2512   7.521   1.055   0.669 -0.2430 -0.4740 -0.4886
   30HK4    C42 2513   7.333   1.071   0.774  0.1865 -0.3192 -0.8986
   30HK4    H22 2514   7.349   0.979   0.831  1.7240 -0.1483 -1.0291
   30HK4    C43 2515   7.221   1.148   0.802  0.4738 -0.1969 -0.0587
   30HK4    H23 2516   7.129   1.107   0.843  0.9798 -0.4105  0.8808
   30HK4    C44 2517   7.201   1.277   0.752  0.3533 -0.1412  0.1330
   30HK4    H24 2518   7.119   1.340   0.788  1.5405  2.3140 -1.3692
   30HK4    C45 2519   7.298   1.320   0.662 -0.0249  0.5410  0.0482
   30HK4    H25 2520   7.276   1.406   0.598  1.0792  0.2573 -0.7420
   31HK4    H28 2521   8.985   2.731   5.993 -0.6972  0.0131  1.0751
   31HK4    C48 2522   9.009   2.836   5.980  0.0637 -0.2106  0.6615
   31HK4    C47 2523   8.927   2.927   6.046 -0.2279  0.0805 -0.1022
   31HK4    H27 2524   8.871   2.904   6.137 -0.2095  0.4008 -0.0079
   31HK4    C46 2525   8.943   3.063   6.021 -0.6559  0.0160 -0.7313
   31HK4    H26 2526   8.889   3.130   6.090  1.4278  0.0050  0.9730
   31HK4    C40 2527   9.031   3.115   5.924  0.2319 -0.3005 -0.0993
   31HK4    C50 2528   9.102   3.018   5.851  0.5601 -0.1271 -0.0140
   31HK4    H30 2529   9.170   3.045   5.769  0.2827  1.6724  0.3259
   31HK4    C49 2530   9.092   2.882   5.878  0.5660  0.1107  1.2109
   31HK4    H29 2531   9.164   2.810   5.837  0.0697 -0.2288  0.9339
   31HK4     N2 2532   9.042   3.252   5.894  0.0948 -0.1309  0.6129
   31HK4    C30 2533   8.947   3.350   5.929  0.0002 -0.0195  0.0434
   31HK4    C29 2534   8.815   3.327   5.964 -0.0569 -0.1194 -0.2409
   31HK4    H15 2535   8.776   3.227   5.946  0.9321 -0.1294 -2.4935
   31HK4    C28 2536   8.735   3.431   6.010  0.5129 -0.1019  0.7141
   31HK4    C27 2537   8.791   3.559   6.024  0.3026 -0.0390  1.0073
   31HK4    H14 2538   8.751   3.641   6.086  2.9354  0.8261  1.6738
   31HK4    C32 2539   8.920   3.584   5.977 -0.0882 -0.0006 -0.0405
   31HK4    H16 2540   8.961   3.685   5.982 -1.9916  0.9456 -2.5554
   31HK4    C31 2541   9.002   3.485   5.924 -0.2017  0.0500 -0.3127
   31HK4    C34 2542   9.137   3.466   5.874 -0.1671 -0.2200 -0.1153
   31HK4    C33 2543   9.156   3.324   5.854 -0.2998 -0.1690 -0.6060
   31HK4    C35 2544   9.285   3.276   5.834 -0.0846  0.1794 -0.0624
   31HK4    H17 2545   9.318   3.172   5.845  1.1369  0.4266 -1.3800
   31HK4    C36 2546   9.394   3.361   5.831  0.1208 -0.0779  0.0620
   31HK4    H18 2547   9.493   3.329   5.795 -1.2858 -2.9987 -1.3872
   31HK4    C37 2548   9.372   3.496   5.857 -0.4198 -0.3119  0.8348
   31HK4    H19 2549   9.445   3.572   5.831 -0.0289 -0.2171  2.2002
   31HK4    C38 2550   9.246   3.552   5.877 -0.4596  0.1761 -0.6533
   31HK4    H20 2551   9.237   3.656   5.907  2.2412  0.0539  0.7591
   31HK4    C14 2552   8.590   3.417   6.034  0.3892 -0.4954 -0.2341
   31HK4     C9 2553   8.504   3.527   6.037  0.8100 -0.1869  0.8810
   31HK4     C8 2554   8.402   3.540   6.133 -0.0681  0.6362 -0.1447
   31HK4    C11 2555   8.378   3.437   6.223 -0.1626  0.1850 -0.6884
   31HK4     H4 2556   8.300   3.437   6.301  0.3414 -1.4957 -0.1558
   31HK4    C12 2557   8.445   3.316   6.207 -0.0031  0.2093 -0.2155
   31HK4     H5 2558   8.406   3.222   6.249 -0.1436 -0.9363 -2.7878
   31HK4    C13 2559   8.553   3.311   6.119 -0.3005 -0.5092 -0.5511
   31HK4     H6 2560   8.614   3.221   6.105  2.0012  0.4916  2.4041
   31HK4     C7 2561   8.328   3.666   6.158 -0.7165  0.2833 -0.2924
   31HK4     O2 2562   8.268   3.686   6.263  0.3488  0.0339  0.3667
   31HK4     C4 2563   8.356   3.778   6.065 -0.0601  0.0764 -0.3393
   31HK4     C3 2564   8.280   3.894   6.067 -0.0946  0.0498  0.0113
   31HK4     H3 2565   8.176   3.880   6.099  0.4677 -0.9415  1.4735
   31HK4     C2 2566   8.321   4.013   6.008 -0.0642 -0.1816 -0.4378
   31HK4     H2 2567   8.259   4.103   6.012  0.3748  0.1116 -0.2803
   31HK4     C1 2568   8.450   4.014   5.956  0.2127  0.4802  0.2753
   31HK4     H1 2569   8.493   4.111   5.927 -0.1856  1.1890  1.9727
   31HK4     C6 2570   8.525   3.896   5.937 -0.6865 -0.0055 -0.2712
   31HK4     C5 2571   8.472   3.776   5.984  0.0394 -0.2998 -0.1924
   31HK4    C10 2572   8.531   3.644   5.948  0.4054 -0.3386  0.5543
   31HK4     O1 2573   8.560   3.618   5.832  0.2357 -0.0545  0.4469
   31HK4    C16 2574   8.670   3.916   5.921 -0.8114  0.5772 -0.7436
   31HK4    C15 2575   8.742   4.008   6.000  0.4253 -0.8991 -0.1331
   31HK4     H7 2576   8.693   4.054   6.086  0.9816  1.0351 -0.8301
   31HK4    C20 2577   8.873   4.049   5.978  0.2729 -0.3096  0.0533
   31HK4     H9 2578   8.915   4.131   6.037 -0.4255 -0.0174  0.1499
   31HK4    C19 2579   8.948   3.995   5.874  0.2486 -0.4990  0.1357
   31HK4    C18 2580   8.876   3.907   5.784  0.1253 -0.5278  0.2618
   31HK4    C17 2581   8.745   3.871   5.813 -0.3138  0.5248 -0.3746
   31HK4     H8 2582   8.696   3.806   5.740  0.3169  0.9530 -1.1969
   31HK4     N1 2583   8.959   3.871   5.676 -0.0318 -0.0558 -0.0132
   31HK4    C21 2584   9.084   3.933   5.701 -0.0606  0.0857 -0.1922
   31HK4    C22 2585   9.074   4.027   5.811  0.1070 -0.1508  0.0255
   31HK4    C26 2586   9.192   4.086   5.856  0.1501  0.3542 -0.7331
   31HK4    H13 2587   9.184   4.141   5.950 -1.8773 -1.6102  0.3020
   31HK4    C25 2588   9.317   4.058   5.801  0.3498 -0.3766  0.0881
   31HK4    H12 2589   9.403   4.100   5.854 -0.8707  1.8824  0.3528
   31HK4    C24 2590   9.323   3.965   5.698 -0.0996 -0.7038  0.3556
   31HK4    H11 2591   9.421   3.950   5.652 -0.4855 -1.0794 -0.3471
   31HK4    C23 2592   9.208   3.907   5.645 -0.2069  0.4606 -0.6826
   31HK4    H10 2593   9.211   3.839   5.560 -0.7593 -0.8395  0.3321
   31HK4    C39 2594   8.929   3.766   5.589 -0.2157  0.1503 -0.1996
   31HK4    C41 2595   8.987   3.766   5.460  0.3368  0.3797  0.0465
   31HK4    H21 2596   8.976   3.862   5.406 -1.9588  0.1485  0.0723
   31HK4    C42 2597   9.016   3.652   5.386 -0.1802  0.3398 -0.0966
   31HK4    H22 2598   9.071   3.668   5.293  1.5488  2.0562  1.1800
   31HK4    C43 2599   8.988   3.527   5.440 -0.1283  0.1781 -0.4492
   31HK4    H23 2600   9.035   3.434   5.407 -1.4841 -1.1371  1.2795
   31HK4    C44 2601   8.926   3.525   5.564  0.4765  0.5384 -0.1408
   31HK4    H24 2602   8.905   3.429   5.612  1.6711  0.7913  0.9056
   31HK4    C45 2603   8.891   3.639   5.637  0.0703  0.2077  0.1813
   31HK4    H25 2604   8.834   3.630   5.730 -1.2014  2.2258 -0.3814
   32HK4    H28 2605   3.020   0.610   2.102  0.7230 -0.4321  1.9195
   32HK4    C48 2606   3.088   0.540   2.054 -0.2765 -0.1861  0.1020
   32HK4    C47 2607   3.098   0.539   1.915  0.1913  0.9065  0.1248
   32HK4    H27 2608   3.041   0.612   1.855 -0.0083  1.8261  1.4075
   32HK4    C46 2609   3.179   0.445   1.852 -0.5356 -0.0059  0.5369
   32HK4    H26 2610   3.212   0.469   1.750  0.2198  1.5524  1.1309
   32HK4    C40 2611   3.251   0.349   1.925 -0.1201  0.0041  0.1400
   32HK4    C50 2612   3.247   0.362   2.065 -0.3540  0.0550  0.1281
   32HK4    H30 2613   3.327   0.314   2.124  1.1770  2.4402  0.0355
   32HK4    C49 2614   3.169   0.457   2.130 -0.2399  0.0319  0.2982
   32HK4    H29 2615   3.163   0.457   2.240  0.7125  1.6594  0.3722
   32HK4     N2 2616   3.280   0.226   1.864  0.3904  0.3467 -0.3076
   32HK4    C30 2617   3.384   0.147   1.918 -0.2243  0.2037  0.6692
   32HK4    C29 2618   3.516   0.184   1.941 -0.0329 -0.1951  0.2354
   32HK4    H15 2619   3.558   0.263   1.879 -0.8078 -1.0191 -1.3778
   32HK4    C28 2620   3.600   0.098   2.010  0.4808 -0.0849 -0.2543
   32HK4    C27 2621   3.544  11.219   2.039  0.3015  0.0758  0.1000
   32HK4    H14 2622   3.572  11.171   2.134  2.7164 -0.6738 -0.9455
   32HK4    C32 2623   3.426  11.168   1.988 -0.0672  0.5179  0.4967
   32HK4    H16 2624   3.393  11.065   2.003 -0.3228  0.3585 -1.0407
   32HK4    C31 2625   3.342   0.008   1.921 -0.1045  0.1524  0.0564
   32HK4    C34 2626   3.218  11.248   1.845 -0.0817 -0.2101  0.0584
   32HK4    C33 2627   3.180   0.137   1.819  0.2849 -0.0013  0.6156
   32HK4    C35 2628   3.065   0.166   1.747  0.8418 -0.3706 -0.4242
   32HK4    H17 2629   3.036   0.269   1.729 -0.4561 -0.1825  2.5671
   32HK4    C36 2630   2.984   0.061   1.706 -0.1401 -0.0055  0.5909
   32HK4    H18 2631   2.912   0.090   1.628  1.0650 -0.3882 -0.6667
   32HK4    C37 2632   3.012  11.177   1.740 -0.2524 -0.1145  0.2644
   32HK4    H19 2633   2.946  11.099   1.703 -1.7645  0.4314  1.7759
   32HK4    C38 2634   3.128  11.148   1.810 -0.0146 -0.1924 -0.1591
   32HK4    H20 2635   3.158  11.045   1.831 -0.2627 -0.1313  0.5198
   32HK4    C14 2636   3.720   0.141   2.083 -0.0230 -0.0017  0.5342
   32HK4     C9 2637   3.802   0.059   2.162 -0.1657 -0.3071  0.3671
   32HK4     C8 2638   3.881   0.118   2.262 -0.0718 -0.0792  0.1604
   32HK4    C11 2639   3.890   0.256   2.276  0.6756 -0.0277 -0.8367
   32HK4     H4 2640   3.916   0.288   2.378  0.4551 -2.9376  0.1602
   32HK4    C12 2641   3.822   0.342   2.190 -0.0727 -0.2926 -0.5166
   32HK4     H5 2642   3.836   0.451   2.190  0.8726 -0.3892  2.2304
   32HK4    C13 2643   3.741   0.280   2.096 -0.8734  0.1927 -0.1458
   32HK4     H6 2644   3.682   0.344   2.029  1.0395  1.2919 -0.7944
   32HK4     C7 2645   3.955   0.034   2.360 -0.2627 -0.1160  0.2739
   32HK4     O2 2646   4.037   0.081   2.438 -0.1241 -0.1013  0.1192
   32HK4     C4 2647   3.944  11.135   2.352 -0.5892 -0.0733 -0.0901
   32HK4     C3 2648   4.011  11.052   2.440  0.4023  0.1009 -0.6705
   32HK4     H3 2649   4.063  11.103   2.522  1.0974 -1.7839  0.1060
   32HK4     C2 2650   4.016  10.913   2.435 -0.1091  0.0350  0.3694
   32HK4     H2 2651   4.081  10.861   2.506  0.0082 -0.2034  0.0870
   32HK4     C1 2652   3.931  10.857   2.340  0.0219 -0.2311  0.4099
   32HK4     H1 2653   3.926  10.747   2.328 -1.3149  0.0009 -1.3961
   32HK4     C6 2654   3.842  10.933   2.262  0.0137 -0.1909  0.4608
   32HK4     C5 2655   3.866  11.070   2.254  0.3226 -0.3098 -0.6685
   32HK4    C10 2656   3.815  11.159   2.146 -0.5753 -0.2803 -0.2257
   32HK4     O1 2657   3.851  11.122   2.034 -0.1470  0.3224 -0.2892
   32HK4    C16 2658   3.704  10.881   2.257  0.0527 -0.3001  0.5140
   32HK4    C15 2659   3.666  10.779   2.346  0.0343 -0.4010  0.3911
   32HK4     H7 2660   3.699  10.784   2.451 -0.4226 -2.0093  0.6314
   32HK4    C20 2661   3.562  10.690   2.318  0.3321 -0.5821 -0.1393
   32HK4     H9 2662   3.524  10.619   2.391 -0.9366  0.8583  0.6272
   32HK4    C19 2663   3.500  10.701   2.194 -0.0109  0.1351  0.0889
   32HK4    C18 2664   3.535  10.807   2.102  0.0994 -0.0329 -0.0641
   32HK4    C17 2665   3.633  10.899   2.139  0.3011 -0.4123  0.3474
   32HK4     H8 2666   3.644  10.986   2.075 -1.8738  0.4686  1.1337
   32HK4     N1 2667   3.458  10.792   1.985  0.1100 -0.0433 -0.0708
   32HK4    C21 2668   3.398  10.665   1.998 -0.3600  0.1756 -0.0878
   32HK4    C22 2669   3.416  10.603   2.128  0.5306 -0.0595 -0.3187
   32HK4    C26 2670   3.359  10.483   2.168 -0.2860  0.3324 -0.2934
   32HK4    H13 2671   3.389  10.428   2.257  1.4917 -2.4746 -2.5517
   32HK4    C25 2672   3.274  10.424   2.075  0.1903 -0.4879 -0.2122
   32HK4    H12 2673   3.215  10.338   2.106  2.1577 -1.7015  0.2537
   32HK4    C24 2674   3.250  10.480   1.950 -0.2513  0.0736  0.1226
   32HK4    H11 2675   3.192  10.422   1.877  1.3326  0.8506 -1.7890
   32HK4    C23 2676   3.309  10.600   1.914 -0.5033  0.1796  0.0608
   32HK4    H10 2677   3.288  10.641   1.814 -2.8892 -1.0315  0.0194
   32HK4    C39 2678   3.488  10.858   1.865  0.2751 -0.3814 -0.2151
   32HK4    C41 2679   3.393  10.872   1.762  0.2118  0.7167 -0.0128
   32HK4    H21 2680   3.286  10.866   1.785  0.6390 -1.4800  1.5241
   32HK4    C42 2681   3.433  10.915   1.636 -0.2906  0.8121 -0.1420
   32HK4    H22 2682   3.360  10.918   1.554  0.0046 -1.0147 -0.4905
   32HK4    C43 2683   3.566  10.946   1.606 -0.0099 -0.1718  0.0605
   32HK4    H23 2684   3.584  10.977   1.503  0.3862 -6.3387 -1.9288
   32HK4    C44 2685   3.664  10.927   1.702  0.4986 -0.3657 -0.4979
   32HK4    H24 2686   3.768  10.963   1.690  0.3140  0.2587 -0.2364
   32HK4    C45 2687   3.622  10.874   1.823  0.1467 -0.5079 -0.6810
   32HK4    H25 2688   3.699  10.860   1.901 -0.7846  0.8380  0.5232
   33HK4    H28 2689   0.435   2.985   5.475 -0.9556  2.6601  1.3384
   33HK4    C48 2690   0.334   2.946   5.477  0.1262 -0.3417 -0.0976
   33HK4    C47 2691   0.239   3.014   5.552  0.3560 -0.1449  0.0151
   33HK4    H27 2692   0.270   3.095   5.621  1.1408  0.3927 -0.9533
   33HK4    C46 2693   0.104   2.981   5.565  0.2300  0.0002 -0.8977
   33HK4    H26 2694   0.052   3.026   5.650 -0.7242 -0.9561 -0.9660
   33HK4    C40 2695   0.051   2.876   5.487 -0.0708 -0.5486  0.0391
   33HK4    C50 2696   0.145   2.804   5.411  0.1464 -0.1233 -0.0950
   33HK4    H30 2697   0.112   2.742   5.326  3.6116 -0.1771 -1.5136
   33HK4    C49 2698   0.280   2.840   5.406  0.2133 -0.3780 -0.1100
   33HK4    H29 2699   0.345   2.764   5.361 -0.1501 -0.8824  0.2058
   33HK4     N2 2700  11.175   2.817   5.513 -0.2253 -0.3068 -0.1437
   33HK4    C30 2701  11.107   2.810   5.637 -0.1137 -0.1712 -0.0757
   33HK4    C29 2702  11.162   2.783   5.761 -0.4323  0.7038  0.2571
   33HK4    H15 2703   0.022   2.773   5.767 -0.0941  4.5726  3.4313
   33HK4    C28 2704  11.089   2.735   5.870 -0.1485  0.4019  0.3159
   33HK4    C27 2705  10.948   2.735   5.858 -0.1242 -0.3446 -0.0059
   33HK4    H14 2706  10.891   2.707   5.948 -0.9232 -0.0874 -0.4276
   33HK4    C32 2707  10.885   2.778   5.742  0.1175  0.3383  0.1124
   33HK4    H16 2708  10.777   2.791   5.737 -0.0223 -1.4692 -2.5718
   33HK4    C31 2709  10.962   2.805   5.630 -0.1300  0.2812 -0.0725
   33HK4    C34 2710  10.944   2.804   5.486 -0.0501  0.3546 -0.0841
   33HK4    C33 2711  11.071   2.807   5.417 -0.1174 -0.3956 -0.2510
   33HK4    C35 2712  11.073   2.768   5.284  0.3961 -0.5817 -0.1903
   33HK4    H17 2713  11.164   2.776   5.224  0.4935 -1.0466 -0.1045
   33HK4    C36 2714  10.963   2.735   5.206 -0.1215  0.1367  0.2353
   33HK4    H18 2715  10.974   2.721   5.098  1.1905  2.2180  0.0664
   33HK4    C37 2716  10.843   2.746   5.276 -0.2126 -0.0368  0.1072
   33HK4    H19 2717  10.751   2.730   5.220  1.8180 -1.9503 -2.7961
   33HK4    C38 2718  10.830   2.787   5.408 -0.0934  0.5321 -0.0561
   33HK4    H20 2719  10.735   2.795   5.461  1.1856  1.5961  2.1889
   33HK4    C14 2720  11.164   2.663   5.973  0.2997  0.0265 -0.2658
   33HK4     C9 2721  11.118   2.560   6.057 -0.1486  0.2868 -0.1837
   33HK4     C8 2722  11.169   2.543   6.187  0.1801  0.4412 -0.2879
   33HK4    C11 2723   0.032   2.618   6.223  0.6166 -0.3344 -0.0161
   33HK4     H4 2724   0.077   2.598   6.322 -0.3362 -0.7665  0.3430
   33HK4    C12 2725   0.087   2.719   6.145 -0.4121  0.1433 -0.1421
   33HK4     H5 2726   0.169   2.781   6.185  0.3831 -1.1310  0.2657
   33HK4    C13 2727   0.028   2.733   6.020  0.2009  0.2848 -0.4185
   33HK4     H6 2728   0.044   2.831   5.973 -0.7073  0.7436  0.2069
   33HK4     C7 2729  11.089   2.468   6.287  0.1315 -0.2528 -0.8463
   33HK4     O2 2730  11.150   2.419   6.383 -0.6990  0.2665 -0.0500
   33HK4     C4 2731  10.952   2.424   6.254 -0.3878  0.6224  0.1291
   33HK4     C3 2732  10.875   2.372   6.358  0.0435  0.0571  0.1697
   33HK4     H3 2733  10.919   2.362   6.458 -0.4034 -0.4759  0.3122
   33HK4     C2 2734  10.746   2.327   6.333 -0.2007  0.9339 -0.1799
   33HK4     H2 2735  10.696   2.269   6.412 -0.4778  0.5762 -0.6149
   33HK4     C1 2736  10.689   2.346   6.208 -0.0559 -0.0121 -0.3913
   33HK4     H1 2737  10.583   2.325   6.187  0.1312 -1.1881 -0.2032
   33HK4     C6 2738  10.764   2.406   6.105  0.2421  0.5081  0.1246
   33HK4     C5 2739  10.900   2.432   6.123  0.4428 -0.2434 -0.2596
   33HK4    C10 2740  10.994   2.485   6.020  0.0002  0.1690 -0.4547
   33HK4     O1 2741  10.988   2.434   5.909 -0.1236  0.3093 -0.5129
   33HK4    C16 2742  10.685   2.485   6.010 -0.4099 -0.0645  0.1828
   33HK4    C15 2743  10.565   2.551   6.045 -0.1546  0.6335 -0.2594
   33HK4     H7 2744  10.560   2.575   6.152 -1.1324  0.5692 -0.2912
   33HK4    C20 2745  10.466   2.585   5.954 -0.5863 -0.4498 -0.1961
   33HK4     H9 2746  10.376   2.637   5.986  1.2891  2.8424 -0.0371
   33HK4    C19 2747  10.479   2.551   5.819 -0.0112  0.1304 -0.2872
   33HK4    C18 2748  10.598   2.478   5.779  0.1513  0.3156 -0.1478
   33HK4    C17 2749  10.689   2.444   5.878 -0.4109 -0.1613  0.2118
   33HK4     H8 2750  10.758   2.362   5.862 -1.1612 -0.5111 -1.3204
   33HK4     N1 2751  10.595   2.456   5.639 -0.3093 -0.7565  0.0219
   33HK4    C21 2752  10.485   2.532   5.595  0.2144  0.1069  0.1766
   33HK4    C22 2753  10.403   2.588   5.702 -0.1221  0.2769 -0.1704
   33HK4    C26 2754  10.291   2.665   5.672  0.3455  1.1367  0.2910
   33HK4    H13 2755  10.211   2.668   5.745  0.1602  1.5801  0.0714
   33HK4    C25 2756  10.259   2.693   5.540  0.5440 -0.5167 -0.1200
   33HK4    H12 2757  10.154   2.715   5.522  0.7788 -0.2904 -1.2447
   33HK4    C24 2758  10.334   2.635   5.439  0.5738 -0.2955 -0.2257
   33HK4    H11 2759  10.315   2.667   5.335  0.1313  2.0013  0.5395
   33HK4    C23 2760  10.442   2.551   5.465  0.4392 -0.3916  0.0285
   33HK4    H10 2761  10.513   2.531   5.384 -0.7090 -0.1102 -1.0751
   33HK4    C39 2762  10.697   2.410   5.554  0.2306 -0.6959  0.6288
   33HK4    C41 2763  10.670   2.339   5.436  0.2345 -0.1293  0.2838
   33HK4    H21 2764  10.564   2.310   5.431  0.0402 -0.1768  3.4772
   33HK4    C42 2765  10.767   2.332   5.337  0.1087 -0.2174  0.1661
   33HK4    H22 2766  10.732   2.285   5.244 -1.4078 -1.0492  1.1483
   33HK4    C43 2767  10.886   2.402   5.351 -0.4355  0.6881  0.3578
   33HK4    H23 2768  10.964   2.403   5.275 -0.1383  0.9959  0.6653
   33HK4    C44 2769  10.922   2.466   5.469  0.5610 -0.1835  0.5342
   33HK4    H24 2770  11.020   2.514   5.486  1.1718 -1.2373  0.0137
   33HK4    C45 2771  10.824   2.470   5.567  0.2275 -0.5931  0.2155
   33HK4    H25 2772  10.858   2.507   5.665  0.5855  0.5116 -0.3284
   34HK4    H28 2773   5.941   0.107  10.792  1.2214  0.3843 -1.3505
   34HK4    C48 2774   5.902   0.196  10.743 -0.2879  0.3041 -0.3385
   34HK4    C47 2775   5.940   0.221  10.612  0.3260 -0.6388 -0.3449
   34HK4    H27 2776   6.034   0.170  10.586  0.0490  0.4854 -3.8659
   34HK4    C46 2777   5.845   0.273  10.525  0.1813 -0.0773  0.1450
   34HK4    H26 2778   5.869   0.288  10.419 -2.4348  0.2045 -0.4623
   34HK4    C40 2779   5.724   0.330  10.570  0.2774  0.3148 -0.0901
   34HK4    C50 2780   5.699   0.315  10.708 -0.6940 -0.1125 -0.3035
   34HK4    H30 2781   5.608   0.354  10.756  1.7019  3.1756  1.8348
   34HK4    C49 2782   5.784   0.247  10.796 -0.2564  0.3824 -0.3426
   34HK4    H29 2783   5.757   0.219  10.899  0.6971 -1.9384 -0.7086
   34HK4     N2 2784   5.611   0.338  10.488  0.0483 -0.0592  0.1851
   34HK4    C30 2785   5.573   0.271  10.369 -0.2865 -0.1233  0.3300
   34HK4    C29 2786   5.645   0.174  10.301  0.1010  0.7097 -0.4604
   34HK4    H15 2787   5.667   0.080  10.353 -1.3401  1.0832  0.8759
   34HK4    C28 2788   5.623   0.153  10.166 -0.3040 -0.2999 -0.2481
   34HK4    C27 2789   5.513   0.221  10.109  0.2322  0.0596 -0.8643
   34HK4    H14 2790   5.502   0.208  10.000  0.9022  0.1923 -0.9525
   34HK4    C32 2791   5.426   0.302  10.180  0.6360 -0.0797 -0.2061
   34HK4    H16 2792   5.334   0.339  10.133  0.8725  0.1329 -0.5055
   34HK4    C31 2793   5.455   0.334  10.312 -0.1362 -0.1496 -0.0164
   34HK4    C34 2794   5.424   0.448  10.396  0.0713 -0.1204  0.0245
   34HK4    C33 2795   5.527   0.450  10.499  0.5145  0.3571 -0.4214
   34HK4    C35 2796   5.523   0.541  10.604 -0.3876 -0.2980  0.1208
   34HK4    H17 2797   5.611   0.563  10.665 -0.9056 -2.2335  1.5994
   34HK4    C36 2798   5.413   0.625  10.612 -0.0305  0.2008 -0.1777
   34HK4    H18 2799   5.401   0.697  10.695  0.4350  1.1076 -0.8877
   34HK4    C37 2800   5.318   0.631  10.510 -0.3340 -0.1705  0.0841
   34HK4    H19 2801   5.237   0.704  10.511 -0.7697 -0.6118 -1.4600
   34HK4    C38 2802   5.321   0.542  10.403  0.3302  0.1819 -0.1938
   34HK4    H20 2803   5.245   0.536  10.326  0.2986  0.6252 -0.1958
   34HK4    C14 2804   5.738   0.116  10.082  0.0483  0.1295  0.0381
   34HK4     C9 2805   5.768   0.179   9.960 -0.1340  0.0763 -0.0348
   34HK4     C8 2806   5.809   0.099   9.851 -0.0070  0.1350 -0.0270
   34HK4    C11 2807   5.833  11.211   9.862  0.0213  0.1555  0.1760
   34HK4     H4 2808   5.836  11.140   9.777 -2.1047  0.0676  0.1473
   34HK4    C12 2809   5.812  11.153   9.986 -0.1598  0.0007  0.0756
   34HK4     H5 2810   5.849  11.050  10.002  2.2010  0.7795 -0.1500
   34HK4    C13 2811   5.776  11.229  10.097  0.6765  0.3168  0.1311
   34HK4     H6 2812   5.773  11.182  10.196 -4.1077 -0.2732 -0.2000
   34HK4     C7 2813   5.857   0.162   9.726 -0.0664  0.2007 -0.0178
   34HK4     O2 2814   5.903   0.099   9.631 -0.2067  0.2237 -0.1003
   34HK4     C4 2815   5.839   0.308   9.709  0.2396  0.2439  0.0227
   34HK4     C3 2816   5.899   0.376   9.604  0.1173  0.0269 -0.1858
   34HK4     H3 2817   5.966   0.323   9.534 -0.2358 -1.6883  0.7290
   34HK4     C2 2818   5.866   0.507   9.573 -0.5881 -0.2797 -0.7711
   34HK4     H2 2819   5.897   0.540   9.472  0.5809 -0.3219 -0.4398
   34HK4     C1 2820   5.777   0.578   9.654  0.3196 -0.2725  0.2335
   34HK4     H1 2821   5.750   0.680   9.624 -2.2696 -0.6297  1.2660
   34HK4     C6 2822   5.724   0.515   9.768 -0.0480 -0.1921  0.1065
   34HK4     C5 2823   5.761   0.384   9.799 -0.8292 -0.5035 -0.2680
   34HK4    C10 2824   5.750   0.325   9.936 -0.4092  0.0501  0.0078
   34HK4     O1 2825   5.775   0.405  10.025  0.2966 -0.3478  0.1711
   34HK4    C16 2826   5.622   0.598   9.833  0.3124  0.0755  0.3293
   34HK4    C15 2827   5.513   0.533   9.896 -0.3270  0.2935 -0.5393
   34HK4     H7 2828   5.509   0.429   9.861  0.3284 -0.2823  1.0863
   34HK4    C20 2829   5.420   0.601   9.973  0.0911  0.1662  0.0790
   34HK4     H9 2830   5.332   0.548  10.011  0.9022 -0.5591  0.9752
   34HK4    C19 2831   5.445   0.736   9.996 -0.2307  0.2735 -0.1952
   34HK4    C18 2832   5.550   0.807   9.926 -0.2863  0.0969 -0.4611
   34HK4    C17 2833   5.642   0.735   9.849  0.3178  0.0822  0.2661
   34HK4     H8 2834   5.738   0.781   9.831  0.1929  1.0302  1.8838
   34HK4     N1 2835   5.560   0.943   9.962 -0.0068 -0.0911  0.1653
   34HK4    C21 2836   5.453   0.959  10.053 -0.2471  0.1355 -0.1559
   34HK4    C22 2837   5.380   0.836  10.078 -0.1236  0.1118  0.0820
   34HK4    C26 2838   5.298   0.819  10.189 -0.0867 -0.4376  0.0303
   34HK4    H13 2839   5.235   0.730  10.193 -1.1643  0.1714 -2.3412
   34HK4    C25 2840   5.280   0.926  10.276  0.3929 -0.1514 -0.2225
   34HK4    H12 2841   5.211   0.915  10.360  0.0090  0.7787 -0.4152
   34HK4    C24 2842   5.344   1.048  10.254  0.0192  0.0610 -0.1301
   34HK4    H11 2843   5.345   1.137  10.318  1.7205 -0.2081  0.2408
   34HK4    C23 2844   5.422   1.062  10.140 -0.4079  0.2909 -0.3974
   34HK4    H10 2845   5.456   1.165  10.126 -1.0750  0.9356  2.4772
   34HK4    C39 2846   5.603   1.049   9.882 -0.7780  0.3427  0.3278
   34HK4    C41 2847   5.596   1.040   9.741 -0.0745 -0.2905  0.3308
   34HK4    H21 2848   5.546   0.961   9.683 -0.6368 -0.3463  0.8800
   34HK4    C42 2849   5.655   1.142   9.667 -0.3654 -0.1797  0.2462
   34HK4    H22 2850   5.648   1.140   9.557  2.2268  0.5639  0.0351
   34HK4    C43 2851   5.713   1.256   9.721  0.3029 -0.3981 -0.0017
   34HK4    H23 2852   5.778   1.311   9.652 -2.5657  1.2226 -1.4898
   34HK4    C44 2853   5.707   1.272   9.859 -0.0469 -0.5728  0.0002
   34HK4    H24 2854   5.711   1.370   9.909 -1.9275 -0.9036  0.8447
   34HK4    C45 2855   5.660   1.166   9.935 -0.2279 -0.0533  0.6147
   34HK4    H25 2856   5.692   1.164  10.041  1.1510  0.4258  0.2219
   35HK4    H28 2857   7.892   7.699  10.274 -0.2827 -0.0745 -0.3173
   35HK4    C48 2858   7.962   7.709  10.191  0.3420  0.1098  0.2300
   35HK4    C47 2859   8.084   7.643  10.190  0.2563 -0.0410 -0.4399
   35HK4    H27 2860   8.082   7.549  10.246 -0.8222  0.2645  0.0369
   35HK4    C46 2861   8.189   7.669  10.102  0.0887  0.1309 -0.5885
   35HK4    H26 2862   8.280   7.608  10.107  0.5124  0.6454 -1.7845
   35HK4    C40 2863   8.175   7.763   9.998 -0.6420 -0.4275 -0.9928
   35HK4    C50 2864   8.049   7.826  10.000 -0.3321  0.1651  0.5167
   35HK4    H30 2865   8.029   7.914   9.937  0.8325  0.8157  1.0500
   35HK4    C49 2866   7.944   7.801  10.088 -0.4816  0.0395  0.3059
   35HK4    H29 2867   7.841   7.834  10.073 -0.4347  1.1065  2.2325
   35HK4     N2 2868   8.284   7.811   9.924  0.1510 -0.1192  0.3746
   35HK4    C30 2869   8.418   7.810   9.966  0.4209 -0.2759 -0.4981
   35HK4    C29 2870   8.471   7.801  10.094  0.4427  0.0559 -0.4798
   35HK4    H15 2871   8.410   7.830  10.181 -0.3633 -0.4799 -0.8586
   35HK4    C28 2872   8.608   7.801  10.113  0.4247 -0.1638 -0.3446
   35HK4    C27 2873   8.685   7.810   9.995  0.1905 -0.4155 -0.5143
   35HK4    H14 2874   8.789   7.776   9.996  2.3026  5.4864 -0.2156
   35HK4    C32 2875   8.636   7.835   9.867 -0.1011 -0.1313 -0.3508
   35HK4    H16 2876   8.703   7.878   9.792 -0.4856 -1.2164 -1.3377
   35HK4    C31 2877   8.499   7.842   9.849 -0.0440  0.0353 -0.7341
   35HK4    C34 2878   8.407   7.855   9.738 -0.1989 -0.2873 -0.6433
   35HK4    C33 2879   8.272   7.845   9.788  0.1456 -1.0061  0.1553
   35HK4    C35 2880   8.167   7.873   9.701  0.5793  0.0331 -0.0310
   35HK4    H17 2881   8.061   7.868   9.726 -0.0495 -2.5266 -2.8676
   35HK4    C36 2882   8.200   7.916   9.573 -0.2420  0.0468 -0.2457
   35HK4    H18 2883   8.123   7.965   9.511 -0.7532 -1.7250 -1.0610
   35HK4    C37 2884   8.329   7.924   9.522 -0.1457  0.3561  0.0458
   35HK4    H19 2885   8.348   7.946   9.417 -1.4042 -3.9729 -1.2028
   35HK4    C38 2886   8.435   7.898   9.608  0.1820  0.7152 -0.2396
   35HK4    H20 2887   8.538   7.900   9.573 -0.5167  0.7984 -2.3321
   35HK4    C14 2888   8.673   7.794  10.245 -0.0650  0.2872 -0.0769
   35HK4     C9 2889   8.803   7.845  10.264 -0.0279  0.0409  0.3430
   35HK4     C8 2890   8.883   7.795  10.368  0.0716  0.0199  0.2588
   35HK4    C11 2891   8.827   7.704  10.457 -0.0909  0.0592  0.1976
   35HK4     H4 2892   8.892   7.655  10.531  0.6790  1.2897  0.3400
   35HK4    C12 2893   8.698   7.654  10.444  0.1209 -0.3788 -0.2514
   35HK4     H5 2894   8.643   7.588  10.513 -4.2902  2.0387 -1.2748
   35HK4    C13 2895   8.625   7.696  10.333 -0.0313  0.4949  0.1696
   35HK4     H6 2896   8.538   7.636  10.302  0.1808 -0.4403  1.3482
   35HK4     C7 2897   9.026   7.829  10.360  0.0684 -0.0391 -0.0606
   35HK4     O2 2898   9.103   7.766  10.433  0.3195  0.3236 -0.0066
   35HK4     C4 2899   9.074   7.934  10.268  0.3852  0.1120  0.2718
   35HK4     C3 2900   9.212   7.950  10.263  0.4004 -0.0577  0.1554
   35HK4     H3 2901   9.264   7.947  10.360 -0.1321  0.5736  0.4650
   35HK4     C2 2902   9.272   7.996  10.146 -0.0435  0.6312  0.1874
   35HK4     H2 2903   9.380   7.989  10.124 -0.4628 -3.3998 -1.0154
   35HK4     C1 2904   9.192   8.050  10.046 -0.2411 -0.4900 -0.2658
   35HK4     H1 2905   9.247   8.090   9.960 -1.2607 -1.8552 -1.5640
   35HK4     C6 2906   9.051   8.048  10.053 -0.2345 -0.9199 -0.1886
   35HK4     C5 2907   8.993   7.991  10.167  0.0867 -0.0356  0.4239
   35HK4    C10 2908   8.848   7.964  10.186  0.0714  0.1573  0.5783
   35HK4     O1 2909   8.769   8.057  10.170 -0.2397 -0.1108  0.5376
   35HK4    C16 2910   8.981   8.046   9.924 -0.6193 -0.3935  0.0070
   35HK4    C15 2911   9.033   7.975   9.814 -0.6265  0.1647 -0.3564
   35HK4     H7 2912   9.128   7.920   9.817 -0.3163  0.6771 -0.8080
   35HK4    C20 2913   8.972   7.989   9.689  0.3905 -0.0039 -0.8743
   35HK4     H9 2914   9.030   7.950   9.606  1.1521 -1.1096  0.1541
   35HK4    C19 2915   8.867   8.078   9.672  0.5304  0.2648 -0.3587
   35HK4    C18 2916   8.813   8.150   9.786  0.0884 -0.2748 -0.2257
   35HK4    C17 2917   8.879   8.138   9.907  0.3773  0.6777 -0.2850
   35HK4     H8 2918   8.865   8.215   9.984 -1.5583  0.4550 -0.3828
   35HK4     N1 2919   8.693   8.217   9.750  0.1968 -0.0483 -0.1674
   35HK4    C21 2920   8.674   8.192   9.613  0.4748  0.2536 -0.2638
   35HK4    C22 2921   8.777   8.104   9.561  0.3456  0.0870 -0.2478
   35HK4    C26 2922   8.759   8.045   9.436 -0.3402  0.2536 -0.2286
   35HK4    H13 2923   8.839   7.975   9.412 -1.5472 -1.0998 -0.3315
   35HK4    C25 2924   8.668   8.090   9.342 -0.2246 -0.1886 -0.5473
   35HK4    H12 2925   8.661   8.048   9.241 -0.4384  1.9639 -1.4494
   35HK4    C24 2926   8.571   8.176   9.393  0.0623 -0.1717 -0.0248
   35HK4    H11 2927   8.495   8.209   9.321 -0.0078 -1.8706 -0.7542
   35HK4    C23 2928   8.571   8.221   9.524  0.3498  0.1720 -0.1432
   35HK4    H10 2929   8.488   8.286   9.551 -0.2793 -0.5815 -0.2592
   35HK4    C39 2930   8.586   8.247   9.835  0.3739 -0.0133  0.0397
   35HK4    C41 2931   8.483   8.340   9.811 -0.0373 -0.3771  0.3855
   35HK4    H21 2932   8.511   8.415   9.736 -1.3844 -0.3755 -0.1343
   35HK4    C42 2933   8.361   8.342   9.877 -0.0643  0.0145  0.3233
   35HK4    H22 2934   8.274   8.409   9.866  0.4054  0.7855  1.2314
   35HK4    C43 2935   8.336   8.242   9.970 -0.1957 -0.3360 -0.0872
   35HK4    H23 2936   8.250   8.252  10.037 -0.1591  1.6466 -0.3114
   35HK4    C44 2937   8.431   8.144   9.996  0.3266  0.2769  0.3064
   35HK4    H24 2938   8.420   8.071  10.078 -0.3719  0.0510  0.0156
   35HK4    C45 2939   8.553   8.148   9.930  0.2512  0.1347  0.1524
   35HK4    H25 2940   8.635   8.082   9.963  0.1693 -0.3702 -0.6372
   36HK4    H28 2941   4.561   4.958   5.212 -0.0750 -0.4772  0.5022
   36HK4    C48 2942   4.555   5.041   5.282 -0.0287 -0.1349  0.1006
   36HK4    C47 2943   4.464   5.146   5.277 -0.2294 -0.3312 -0.4309
   36HK4    H27 2944   4.397   5.154   5.191  1.9815  1.1082 -2.0717
   36HK4    C46 2945   4.466   5.246   5.373  0.4739 -0.2376 -0.5388
   36HK4    H26 2946   4.376   5.309   5.369  0.5001 -0.1517  0.1537
   36HK4    C40 2947   4.552   5.239   5.485 -0.4544 -0.1011  0.1864
   36HK4    C50 2948   4.644   5.133   5.486  0.4403  0.6619 -0.7407
   36HK4    H30 2949   4.697   5.105   5.578 -0.2888  2.4649  0.2467
   36HK4    C49 2950   4.650   5.039   5.383  0.8394  0.6318 -0.6907
   36HK4    H29 2951   4.697   4.942   5.405 -0.1121  0.1890 -0.5752
   36HK4     N2 2952   4.518   5.302   5.606 -0.3651  0.0101  0.1533
   36HK4    C30 2953   4.619   5.323   5.702  0.2547 -1.1709 -0.2228
   36HK4    C29 2954   4.740   5.387   5.679 -0.1242 -0.1202  0.6428
   36HK4    H15 2955   4.763   5.420   5.578  2.1736 -3.9947 -0.2495
   36HK4    C28 2956   4.830   5.402   5.785  0.6500 -0.4183  0.0325
   36HK4    C27 2957   4.789   5.358   5.913 -0.3986  0.0680 -0.1277
   36HK4    H14 2958   4.873   5.347   5.984 -1.0951 -0.5577  0.5990
   36HK4    C32 2959   4.662   5.312   5.942 -0.4603  0.4272  0.1649
   36HK4    H16 2960   4.646   5.267   6.040 -0.9727  2.0432  0.8466
   36HK4    C31 2961   4.572   5.297   5.837 -0.1389  0.2306 -0.0843
   36HK4    C34 2962   4.430   5.270   5.821 -0.1346  0.3386 -0.2994
   36HK4    C33 2963   4.400   5.276   5.679 -0.5341 -0.3554 -0.2469
   36HK4    C35 2964   4.269   5.294   5.636 -0.5110  0.0213 -0.1641
   36HK4    H17 2965   4.246   5.293   5.529  1.7228  0.7072 -0.6703
   36HK4    C36 2966   4.162   5.311   5.723 -0.2250 -0.1401  0.2222
   36HK4    H18 2967   4.070   5.361   5.691  0.0862 -0.7757 -1.7429
   36HK4    C37 2968   4.193   5.300   5.858  0.2370  0.2153  0.1475
   36HK4    H19 2969   4.111   5.331   5.922 -0.3553  1.6375 -1.2789
   36HK4    C38 2970   4.321   5.276   5.906  0.2628  0.4552  0.1997
   36HK4    H20 2971   4.341   5.265   6.013 -0.6192 -0.6657  0.2555
   36HK4    C14 2972   4.970   5.427   5.748  0.4591 -0.2597 -0.5882
   36HK4     C9 2973   5.075   5.346   5.791  0.4831 -0.1627 -0.4660
   36HK4     C8 2974   5.194   5.405   5.839  0.1876  0.1866 -0.1614
   36HK4    C11 2975   5.214   5.541   5.819 -0.1334  0.3666  0.7028
   36HK4     H4 2976   5.317   5.579   5.826 -0.4009  1.3571 -0.3870
   36HK4    C12 2977   5.112   5.621   5.769 -0.2784 -0.3332 -0.1346
   36HK4     H5 2978   5.108   5.731   5.775  0.6782 -0.3100  0.0820
   36HK4    C13 2979   4.987   5.567   5.740 -0.4273 -0.1052  0.0732
   36HK4     H6 2980   4.896   5.628   5.734 -1.6493 -1.9875 -1.1354
   36HK4     C7 2981   5.297   5.323   5.906 -0.2982  0.1310  0.5139
   36HK4     O2 2982   5.366   5.370   5.996  0.6646  0.3603 -0.3418
   36HK4     C4 2983   5.287   5.175   5.903 -0.1745  0.1356 -0.3996
   36HK4     C3 2984   5.398   5.098   5.934 -0.3809  0.0802  0.2096
   36HK4     H3 2985   5.489   5.135   5.985  0.3889  1.2740 -1.9795
   36HK4     C2 2986   5.389   4.960   5.916  0.3074  0.0696 -0.0961
   36HK4     H2 2987   5.484   4.907   5.904 -0.4210 -1.1548 -0.4568
   36HK4     C1 2988   5.265   4.900   5.900  0.3086  0.1284 -0.3272
   36HK4     H1 2989   5.264   4.790   5.892  1.1971  0.1008 -0.1308
   36HK4     C6 2990   5.149   4.978   5.883  0.0166 -0.2728 -0.1721
   36HK4     C5 2991   5.165   5.115   5.864  0.1396 -0.3512 -0.6371
   36HK4    C10 2992   5.063   5.197   5.793  0.2582 -0.1470 -0.5731
   36HK4     O1 2993   5.009   5.146   5.695  0.0513  0.4825 -0.7861
   36HK4    C16 2994   5.022   4.903   5.880 -0.1304 -0.0504  0.4659
   36HK4    C15 2995   4.911   4.970   5.936  0.0786  0.1490  0.6462
   36HK4     H7 2996   4.925   5.014   6.036  1.1359  0.9008  0.1829
   36HK4    C20 2997   4.783   4.961   5.885  0.4207  0.3705 -0.2514
   36HK4     H9 2998   4.707   5.036   5.909 -0.9784 -0.6749 -1.2963
   36HK4    C19 2999   4.759   4.885   5.771 -0.4367  0.0055  0.1632
   36HK4    C18 3000   4.871   4.815   5.711 -0.2191  0.4155  0.0842
   36HK4    C17 3001   4.996   4.822   5.770 -0.2858  0.3013  0.2400
   36HK4     H8 3002   5.078   4.773   5.716 -1.6906 -0.0708 -1.5996
   36HK4     N1 3003   4.818   4.738   5.605 -0.1625  0.1402  0.2547
   36HK4    C21 3004   4.679   4.759   5.600 -0.1190  0.3108 -0.3233
   36HK4    C22 3005   4.637   4.857   5.699 -0.3811 -0.3312  0.2010
   36HK4    C26 3006   4.506   4.903   5.691 -0.5144 -0.7435 -0.0058
   36HK4    H13 3007   4.464   4.958   5.775  0.4696  0.0158 -0.0141
   36HK4    C25 3008   4.411   4.859   5.598 -0.9050 -0.3083  0.1858
   36HK4    H12 3009   4.316   4.909   5.585 -0.2678  0.9841  0.3532
   36HK4    C24 3010   4.454   4.763   5.508  0.1055  0.1285  0.1868
   36HK4    H11 3011   4.380   4.726   5.435 -0.2989  0.8723  0.2148
   36HK4    C23 3012   4.585   4.716   5.508  0.0168 -0.1207 -0.2582
   36HK4    H10 3013   4.606   4.629   5.446 -0.4113 -1.1521  1.0254
   36HK4    C39 3014   4.892   4.701   5.491 -0.2773  0.7477 -0.0172
   36HK4    C41 3015   4.842   4.603   5.404 -0.1070  0.9751 -0.3681
   36HK4    H21 3016   4.810   4.504   5.439  1.3322  0.2938 -0.9162
   36HK4    C42 3017   4.870   4.608   5.267 -0.3195 -0.2395 -0.4586
   36HK4    H22 3018   4.829   4.536   5.194 -0.2605  1.5010 -2.2532
   36HK4    C43 3019   4.959   4.705   5.224 -0.5373  0.2898  0.2620
   36HK4    H23 3020   4.991   4.702   5.120  0.8913  0.5925  0.6836
   36HK4    C44 3021   5.020   4.794   5.311 -0.2828  0.3133  0.0577
   36HK4    H24 3022   5.104   4.855   5.274 -0.1120  0.3597  0.5230
   36HK4    C45 3023   4.988   4.795   5.446  0.1302  0.4180  0.1597
   36HK4    H25 3024   5.047   4.850   5.521  0.7930 -2.5132  1.8669
   37HK4    H28 3025   4.541   9.579   3.044 -1.4860 -0.0014  0.9273
   37HK4    C48 3026   4.553   9.683   3.075 -0.3208  0.1196  0.1329
   37HK4    C47 3027   4.472   9.736   3.174 -0.6900  0.0143 -0.1117
   37HK4    H27 3028   4.395   9.666   3.209 -0.3088 -0.4592 -0.2179
   37HK4    C46 3029   4.476   9.870   3.211 -0.4343  0.0743 -0.3617
   37HK4    H26 3030   4.401   9.922   3.273  1.9061  2.8988  0.2177
   37HK4    C40 3031   4.560   9.961   3.143 -0.1656 -0.1090 -0.2740
   37HK4    C50 3032   4.649   9.902   3.051 -0.0024 -0.1730 -0.0753
   37HK4    H30 3033   4.725   9.966   3.004 -2.2096  1.3516 -1.7066
   37HK4    C49 3034   4.646   9.768   3.016 -0.1915 -0.1728 -0.0806
   37HK4    H29 3035   4.710   9.718   2.942  0.6754  0.0659  0.5023
   37HK4     N2 3036   4.568  10.096   3.178  0.0071 -0.1308 -0.2217
   37HK4    C30 3037   4.604  10.205   3.097  0.0805 -0.2267 -0.3188
   37HK4    C29 3038   4.632  10.207   2.961  0.6264 -0.4150 -0.2091
   37HK4    H15 3039   4.606  10.126   2.893  0.0436  0.4080 -0.9893
   37HK4    C28 3040   4.690  10.321   2.907 -0.0720 -0.1745 -0.4606
   37HK4    C27 3041   4.716  10.431   2.992 -0.6242 -0.2528 -0.1877
   37HK4    H14 3042   4.775  10.517   2.955  0.4684 -1.2055 -0.6777
   37HK4    C32 3043   4.670  10.442   3.122 -0.1985 -0.3348 -0.0319
   37HK4    H16 3044   4.681  10.534   3.180  0.8887 -0.1122 -0.5850
   37HK4    C31 3045   4.612  10.327   3.175 -0.0477 -0.4098 -0.0246
   37HK4    C34 3046   4.577  10.286   3.310 -0.0667  0.2579  0.1772
   37HK4    C33 3047   4.558  10.142   3.311 -0.3793  0.2893 -0.3940
   37HK4    C35 3048   4.549  10.077   3.434 -0.4945  0.1797 -0.4599
   37HK4    H17 3049   4.536   9.969   3.441  0.6621 -0.0564 -1.7466
   37HK4    C36 3050   4.552  10.153   3.550 -0.6290 -0.5864  0.0437
   37HK4    H18 3051   4.578  10.099   3.643 -1.0635 -1.6325 -0.4362
   37HK4    C37 3052   4.558  10.292   3.549  0.5809 -0.6322 -0.0489
   37HK4    H19 3053   4.554  10.355   3.638  0.2596  0.4527 -0.8294
   37HK4    C38 3054   4.575  10.358   3.428  0.0225  0.1005  0.2744
   37HK4    H20 3055   4.614  10.460   3.437 -0.3772  0.1363  1.7627
   37HK4    C14 3056   4.734  10.318   2.767  0.1564 -0.4331 -0.3838
   37HK4     C9 3057   4.836  10.396   2.712  0.4878 -0.6109 -0.0236
   37HK4     C8 3058   4.827  10.448   2.581 -0.1354  0.3899  0.4074
   37HK4    C11 3059   4.712  10.431   2.504  0.4650 -0.8435 -0.2372
   37HK4     H4 3060   4.677  10.496   2.423  0.0249 -1.4540 -0.5349
   37HK4    C12 3061   4.613  10.346   2.552 -0.0994  0.0715  0.2299
   37HK4     H5 3062   4.520  10.347   2.494 -0.0601  2.5136  0.1241
   37HK4    C13 3063   4.625  10.294   2.680 -0.1297 -0.5106 -0.0047
   37HK4     H6 3064   4.552  10.217   2.709  0.2383 -1.4583 -1.5321
   37HK4     C7 3065   4.943  10.501   2.507 -0.2008 -0.5237 -0.3697
   37HK4     O2 3066   4.948  10.496   2.385  0.1536 -0.4679 -0.3580
   37HK4     C4 3067   5.067  10.534   2.582 -0.3071 -0.0121 -0.4227
   37HK4     C3 3068   5.177  10.597   2.526 -0.4221  0.1183 -0.5095
   37HK4     H3 3069   5.196  10.594   2.418  0.0417 -0.9558 -0.4026
   37HK4     C2 3070   5.284  10.647   2.599 -0.1317 -0.5322 -0.4864
   37HK4     H2 3071   5.375  10.685   2.550 -0.9748  1.3564 -0.6140
   37HK4     C1 3072   5.272  10.646   2.738 -0.3876  0.4578 -0.4962
   37HK4     H1 3073   5.361  10.674   2.796 -0.5840 -0.8018  0.4561
   37HK4     C6 3074   5.163  10.581   2.800 -0.1833  0.6730  0.0975
   37HK4     C5 3075   5.064  10.519   2.722  0.5162  0.1513 -0.3856
   37HK4    C10 3076   4.965  10.424   2.781  0.5001  0.1819 -0.3626
   37HK4     O1 3077   5.000  10.343   2.866 -0.2085 -0.1079 -0.3476
   37HK4    C16 3078   5.131  10.641   2.930  0.1123  0.1064  0.4299
   37HK4    C15 3079   5.134  10.780   2.952  0.3856  0.1818 -0.0658
   37HK4     H7 3080   5.089  10.842   2.872  1.7798  0.6283 -0.5154
   37HK4    C20 3081   5.144  10.829   3.082  0.4183 -0.0963  0.0342
   37HK4     H9 3082   5.118  10.933   3.099 -0.9273 -0.1324 -1.5806
   37HK4    C19 3083   5.149  10.739   3.188 -0.6719  0.0698  0.2334
   37HK4    C18 3084   5.128  10.597   3.169  0.0951 -0.0567  0.3144
   37HK4    C17 3085   5.129  10.553   3.037  0.5267 -0.0462  0.3117
   37HK4     H8 3086   5.147  10.448   3.014 -0.7731 -0.4078  0.8955
   37HK4     N1 3087   5.119  10.528   3.291 -0.1231 -0.2647  0.1805
   37HK4    C21 3088   5.130  10.628   3.390 -0.3356  0.1425 -0.2049
   37HK4    C22 3089   5.147  10.759   3.332 -0.1508  0.3042  0.2111
   37HK4    C26 3090   5.170  10.874   3.407  0.0949  0.3622  0.0465
   37HK4    H13 3091   5.187  10.969   3.356 -0.8949  0.5856  0.1377
   37HK4    C25 3092   5.181  10.859   3.544 -0.3256  0.0087  0.0393
   37HK4    H12 3093   5.191  10.951   3.602 -0.6045 -0.7571  1.3346
   37HK4    C24 3094   5.160  10.733   3.600  0.5132 -0.0514  0.2266
   37HK4    H11 3095   5.148  10.749   3.708 -1.0673  0.7484 -0.0543
   37HK4    C23 3096   5.132  10.617   3.529 -0.2299  0.3761 -0.1874
   37HK4    H10 3097   5.120  10.521   3.580 -0.0836 -0.9755 -2.6260
   37HK4    C39 3098   5.086  10.395   3.319 -0.0639 -0.2394  0.3787
   37HK4    C41 3099   5.127  10.329   3.437 -0.2692  0.3961  0.8070
   37HK4    H21 3100   5.231  10.345   3.470 -0.3959  2.2741  0.3545
   37HK4    C42 3101   5.067  10.209   3.471 -0.3119  0.2084  0.0964
   37HK4    H22 3102   5.074  10.168   3.573  1.6919  1.3981  0.4790
   37HK4    C43 3103   4.978  10.155   3.380  0.3370 -0.1570 -0.3302
   37HK4    H23 3104   4.923  10.065   3.411 -0.2519  0.8437  1.6263
   37HK4    C44 3105   4.933  10.213   3.262 -0.3053  0.2776  0.1249
   37HK4    H24 3106   4.875  10.156   3.189 -2.8274  2.1597  0.6154
   37HK4    C45 3107   4.983  10.341   3.239  0.1524  0.0616 -0.1074
   37HK4    H25 3108   4.936  10.398   3.157  1.9376  0.1051 -1.1215
   38HK4    H28 3109   6.268   0.095   8.426 -0.4229 -0.4357 -2.8818
   38HK4    C48 3110   6.375   0.071   8.422 -0.2190 -0.2280 -0.0204
   38HK4    C47 3111   6.426  11.191   8.438  0.1638 -0.0370  0.2715
   38HK4    H27 3112   6.354  11.114   8.469  0.0526 -0.4302 -0.9378
   38HK4    C46 3113   6.562  11.166   8.425  0.1438 -0.0095  0.0018
   38HK4    H26 3114   6.600  11.065   8.450  2.4498  0.8738  0.1581
   38HK4    C40 3115   6.656   0.016   8.387  0.2824 -0.0880  0.1394
   38HK4    C50 3116   6.600   0.144   8.370  0.0559 -0.2350 -0.2451
   38HK4    H30 3117   6.658   0.215   8.309 -2.2860 -0.3665 -2.7066
   38HK4    C49 3118   6.466   0.172   8.393  0.1148 -0.4221  0.3520
   38HK4    H29 3119   6.431   0.274   8.410  0.4049 -0.6251  2.2203
   38HK4     N2 3120   6.783  11.242   8.332  0.1745  0.4726 -0.3367
   38HK4    C30 3121   6.820  11.120   8.271  0.0596  0.3088 -0.0839
   38HK4    C29 3122   6.739  11.052   8.181  0.3110 -0.6888  0.4353
   38HK4    H15 3123   6.631  11.065   8.178  0.1440 -1.9999 -0.0612
   38HK4    C28 3124   6.797  10.954   8.100  0.4835 -0.0290 -0.2401
   38HK4    C27 3125   6.931  10.914   8.117  0.5908  0.3470 -0.1897
   38HK4    H14 3126   6.987  10.845   8.053  0.6399 -0.5992  0.8621
   38HK4    C32 3127   7.008  10.980   8.212  0.4260  0.2237  0.0307
   38HK4    H16 3128   7.115  10.962   8.216  1.0488  3.6503  0.6420
   38HK4    C31 3129   6.961  11.089   8.285 -0.0690 -0.1324  0.2490
   38HK4    C34 3130   7.016  11.195   8.367  0.2345 -0.1751  0.1015
   38HK4    C33 3131   6.903   0.032   8.395  0.2201 -0.1520 -0.0351
   38HK4    C35 3132   6.934   0.159   8.441 -0.1992 -0.0741  0.0413
   38HK4    H17 3133   6.859   0.229   8.479  0.2445  1.6380 -2.1319
   38HK4    C36 3134   7.066   0.204   8.451 -0.4769  0.7939 -0.1171
   38HK4    H18 3135   7.079   0.310   8.477 -1.7835  0.8594  0.3139
   38HK4    C37 3136   7.174   0.126   8.412 -1.0797 -0.2819  0.3294
   38HK4    H19 3137   7.274   0.170   8.412 -1.3012  0.2381  1.0579
   38HK4    C38 3138   7.146  11.245   8.370  0.3045 -0.3139 -0.5359
   38HK4    H20 3139   7.231  11.184   8.339  1.0300  1.1349 -1.4683
   38HK4    C14 3140   6.702  10.879   8.016 -0.0393  0.3312  0.0243
   38HK4     C9 3141   6.730  10.748   7.975  0.0198  0.2930  0.1800
   38HK4     C8 3142   6.706  10.708   7.842 -0.4408  0.0186  0.3420
   38HK4    C11 3143   6.629  10.789   7.759  0.2518  0.5338  0.2022
   38HK4     H4 3144   6.616  10.761   7.653 -0.6161  3.4951 -0.5145
   38HK4    C12 3145   6.571  10.905   7.808 -0.0009  0.5879 -0.2079
   38HK4     H5 3146   6.481  10.947   7.759  0.3946  0.3170 -1.1731
   38HK4    C13 3147   6.612  10.949   7.933 -0.4949 -0.0614  0.1878
   38HK4     H6 3148   6.601  11.056   7.954  0.4019  0.0168  0.3029
   38HK4     C7 3149   6.767  10.581   7.796  0.4502  0.5146  0.1216
   38HK4     O2 3150   6.770  10.558   7.675  0.4999  0.4045  0.1427
   38HK4     C4 3151   6.831  10.487   7.891 -0.0756 -0.1612 -0.1912
   38HK4     C3 3152   6.881  10.363   7.852  0.4939  0.1081 -0.3206
   38HK4     H3 3153   6.895  10.347   7.745 -2.6127  2.5582 -1.1753
   38HK4     C2 3154   6.934  10.272   7.943  0.0817 -0.3576 -0.5414
   38HK4     H2 3155   6.990  10.181   7.915  2.1786  0.8214 -0.2625
   38HK4     C1 3156   6.942  10.308   8.077 -0.4456  0.1222 -0.6365
   38HK4     H1 3157   7.004  10.245   8.143  0.0865  1.3111  0.0113
   38HK4     C6 3158   6.894  10.433   8.120  0.1735  0.0216  0.3683
   38HK4     C5 3159   6.840  10.522   8.027  0.0643 -0.5299 -0.1030
   38HK4    C10 3160   6.776  10.648   8.075 -0.3774 -0.5942 -0.5130
   38HK4     O1 3161   6.720  10.646   8.184  0.1516  0.2776 -0.2156
   38HK4    C16 3162   6.897  10.438   8.267  0.5489 -0.2938  0.3722
   38HK4    C15 3163   6.863  10.334   8.355  0.2062 -0.2043  0.3450
   38HK4     H7 3164   6.806  10.243   8.330  0.3797 -0.7787  1.9546
   38HK4    C20 3165   6.919  10.332   8.482  0.1335 -0.8300  0.3696
   38HK4     H9 3166   6.893  10.251   8.551  1.3152  0.5307  2.4903
   38HK4    C19 3167   6.993  10.437   8.535 -0.3073 -0.2528 -0.1611
   38HK4    C18 3168   7.028  10.546   8.446  0.0410 -0.2521 -0.0268
   38HK4    C17 3169   6.975  10.542   8.318  0.1786  0.2147 -0.1014
   38HK4     H8 3170   7.001  10.623   8.250  1.4488 -1.0659 -1.1581
   38HK4     N1 3171   7.090  10.648   8.520 -0.0135  0.0475 -0.3903
   38HK4    C21 3172   7.099  10.608   8.655 -0.4182  0.3770 -0.2632
   38HK4    C22 3173   7.033  10.479   8.668 -0.8841  0.6146 -0.2554
   38HK4    C26 3174   7.018  10.420   8.793 -0.1334 -0.2615 -0.5681
   38HK4    H13 3175   6.970  10.323   8.796  0.2117 -0.5247 -2.6151
   38HK4    C25 3176   7.056  10.492   8.906 -0.1812 -0.2796 -0.5418
   38HK4    H12 3177   7.036  10.441   9.000 -0.4588 -2.0405 -1.5274
   38HK4    C24 3178   7.129  10.610   8.892  0.0593 -0.3997 -0.3041
   38HK4    H11 3179   7.183  10.646   8.980 -1.1130  1.0831 -0.1659
   38HK4    C23 3180   7.151  10.669   8.768  0.0800 -0.1727 -0.1917
   38HK4    H10 3181   7.208  10.762   8.768 -0.5720  0.2604  2.1778
   38HK4    C39 3182   7.174  10.746   8.465 -0.0327  0.1822 -0.1769
   38HK4    C41 3183   7.200  10.870   8.529 -0.0998 -0.1467  0.4963
   38HK4    H21 3184   7.134  10.893   8.613  1.6611  1.7350  1.3990
   38HK4    C42 3185   7.309  10.950   8.496 -0.8045  0.5907 -0.0642
   38HK4    H22 3186   7.323  11.042   8.554 -1.4385  0.6111  0.0578
   38HK4    C43 3187   7.388  10.918   8.386 -1.0906 -0.6546  0.0723
   38HK4    H23 3188   7.462  10.986   8.342 -0.2241 -0.5950  1.5856
   38HK4    C44 3189   7.362  10.801   8.317  0.1906 -0.9338  0.0454
   38HK4    H24 3190   7.427  10.765   8.235  0.1954 -0.1848 -0.2883
   38HK4    C45 3191   7.259  10.717   8.356 -0.5040 -0.2966 -0.4148
   38HK4    H25 3192   7.253  10.616   8.312 -0.4569 -0.6013  0.2703
   39HK4    H28 3193   7.096   7.037   0.468  0.8907 -1.0686  3.0259
   39HK4    C48 3194   7.100   7.142   0.494 -0.2688 -0.1266 -0.4356
   39HK4    C47 3195   7.116   7.176   0.628 -0.7512  0.4647 -0.5195
   39HK4    H27 3196   7.145   7.103   0.705 -1.2223  0.8486  0.0190
   39HK4    C46 3197   7.091   7.307   0.667  0.1484  0.3751  0.3904
   39HK4    H26 3198   7.153   7.339   0.752  0.5357  2.9954 -0.8321
   39HK4    C40 3199   7.041   7.400   0.573 -0.1445 -0.0047  0.1685
   39HK4    C50 3200   7.033   7.368   0.436  0.2006  0.1271  0.1165
   39HK4    H30 3201   7.005   7.442   0.359  1.1245  2.2627  1.7652
   39HK4    C49 3202   7.051   7.235   0.402 -0.2157  0.1483 -0.1881
   39HK4    H29 3203   7.050   7.205   0.296  0.5503 -1.8190  0.3385
   39HK4     N2 3204   7.004   7.529   0.612 -0.4282 -0.0439  0.0326
   39HK4    C30 3205   6.951   7.555   0.740 -0.8956 -0.0084 -0.1698
   39HK4    C29 3206   6.864   7.483   0.821 -0.8826  0.0165 -0.1364
   39HK4    H15 3207   6.841   7.386   0.777 -1.2594  0.2401 -0.4461
   39HK4    C28 3208   6.789   7.525   0.931 -0.4661 -0.0519  0.1729
   39HK4    C27 3209   6.824   7.656   0.969 -0.4582  0.1569 -0.5483
   39HK4    H14 3210   6.801   7.691   1.071 -0.8520  0.8995 -0.8946
   39HK4    C32 3211   6.895   7.740   0.884 -0.1121  0.2607 -0.1602
   39HK4    H16 3212   6.878   7.846   0.902 -1.2864  0.0613 -0.1103
   39HK4    C31 3213   6.958   7.697   0.767  0.3422 -0.1383  0.2235
   39HK4    C34 3214   7.017   7.757   0.649 -0.9974  0.1155 -0.3272
   39HK4    C33 3215   7.037   7.652   0.551 -0.3887 -0.0703  0.0002
   39HK4    C35 3216   7.118   7.685   0.443 -0.0243  0.0028  0.2936
   39HK4    H17 3217   7.107   7.626   0.352 -0.6313  0.2636  0.1984
   39HK4    C36 3218   7.184   7.807   0.431 -0.1845  0.1050  0.4463
   39HK4    H18 3219   7.260   7.839   0.359  0.6940 -1.1548  0.7956
   39HK4    C37 3220   7.157   7.907   0.523  0.4596  0.1832  0.5529
   39HK4    H19 3221   7.211   7.998   0.495 -0.3785 -0.5591 -3.8903
   39HK4    C38 3222   7.074   7.883   0.631 -0.0728 -0.2466  0.0507
   39HK4    H20 3223   7.023   7.965   0.682 -1.2080 -0.9000 -0.0207
   39HK4    C14 3224   6.668   7.459   0.982 -0.1929 -0.6017  0.1096
   39HK4     C9 3225   6.561   7.520   1.047  0.1718  0.3379 -0.1677
   39HK4     C8 3226   6.486   7.450   1.145 -0.2136  0.1971 -0.5621
   39HK4    C11 3227   6.522   7.317   1.161  0.0944  0.3484  0.0126
   39HK4     H4 3228   6.460   7.251   1.223  2.4572 -0.3560  1.6927
   39HK4    C12 3229   6.625   7.251   1.095  0.0554  0.1438  0.1571
   39HK4     H5 3230   6.667   7.161   1.144 -0.0099  1.2353  2.2911
   39HK4    C13 3231   6.700   7.323   1.003  0.6968 -0.3773  0.2654
   39HK4     H6 3232   6.778   7.272   0.944 -1.0909 -1.0354 -1.6162
   39HK4     C7 3233   6.351   7.492   1.189 -0.0926  0.0757 -0.0683
   39HK4     O2 3234   6.298   7.446   1.290  0.2206 -0.0344  0.0463
   39HK4     C4 3235   6.293   7.606   1.115 -0.0697 -0.2237 -0.5539
   39HK4     C3 3236   6.161   7.645   1.132 -0.1925 -0.8473 -0.0327
   39HK4     H3 3237   6.089   7.585   1.189 -1.2870 -0.4180 -0.9243
   39HK4     C2 3238   6.115   7.769   1.087  0.2607 -0.6919 -0.0645
   39HK4     H2 3239   6.013   7.803   1.110  1.0351  0.4057  1.8946
   39HK4     C1 3240   6.207   7.863   1.042 -0.1608  0.0758  0.6735
   39HK4     H1 3241   6.170   7.951   0.988 -0.2909 -0.3025  0.1453
   39HK4     C6 3242   6.345   7.835   1.041 -0.1911 -0.0563  0.0011
   39HK4     C5 3243   6.379   7.700   1.054  0.0764  0.0110  0.0067
   39HK4    C10 3244   6.502   7.645   0.991 -0.1312  0.0667 -0.4568
   39HK4     O1 3245   6.522   7.677   0.874 -0.7335  0.3409 -0.4842
   39HK4    C16 3246   6.441   7.946   1.043 -0.1377 -0.1069  0.1153
   39HK4    C15 3247   6.574   7.928   1.087 -0.2213 -0.6538  0.1567
   39HK4     H7 3248   6.602   7.839   1.145 -2.7077 -0.8247  1.1389
   39HK4    C20 3249   6.672   8.027   1.081 -0.6341 -0.2664 -0.1436
   39HK4     H9 3250   6.773   7.991   1.097 -0.6650 -1.6974 -2.8823
   39HK4    C19 3251   6.635   8.151   1.028  0.2629  0.0857  0.0476
   39HK4    C18 3252   6.501   8.172   0.977  0.2744 -0.3719 -0.1844
   39HK4    C17 3253   6.410   8.068   0.984 -0.2521  0.1375  0.6704
   39HK4     H8 3254   6.339   8.064   0.902  1.8806  0.2724 -1.2330
   39HK4     N1 3255   6.480   8.301   0.924 -0.1854 -0.3148  0.1360
   39HK4    C21 3256   6.604   8.367   0.936 -0.2576 -0.1869  0.1853
   39HK4    C22 3257   6.695   8.281   1.008 -0.0616  0.3089  0.5313
   39HK4    C26 3258   6.817   8.339   1.044  0.0046  0.2010  0.4843
   39HK4    H13 3259   6.880   8.284   1.114 -0.7899  1.5823  2.3442
   39HK4    C25 3260   6.841   8.472   1.014 -0.0953  0.1114  0.0087
   39HK4    H12 3261   6.934   8.519   1.046 -0.2930 -0.0142  0.7697
   39HK4    C24 3262   6.747   8.552   0.950 -0.0744  0.3013  0.2160
   39HK4    H11 3263   6.766   8.660   0.941  2.5077  0.0376  2.1610
   39HK4    C23 3264   6.624   8.502   0.909 -0.0386 -0.1296  0.6317
   39HK4    H10 3265   6.543   8.557   0.863 -1.4712 -1.1672  1.8537
   39HK4    C39 3266   6.392   8.325   0.818  0.1058 -0.0462 -0.0442
   39HK4    C41 3267   6.327   8.450   0.806  0.1476 -0.0130  0.0454
   39HK4    H21 3268   6.288   8.503   0.894 -3.4773 -2.2372 -0.0849
   39HK4    C42 3269   6.297   8.502   0.680  0.1606 -0.2268 -0.0464
   39HK4    H22 3270   6.269   8.608   0.670 -0.3613 -0.5193 -1.8408
   39HK4    C43 3271   6.322   8.429   0.564  1.1043 -0.0390  0.0348
   39HK4    H23 3272   6.305   8.480   0.469 -1.7579  0.6442  0.8479
   39HK4    C44 3273   6.377   8.302   0.574  0.4961 -0.2789  0.3822
   39HK4    H24 3274   6.355   8.232   0.492  1.0679  0.1537 -0.1377
   39HK4    C45 3275   6.408   8.251   0.699  0.0340 -0.6703  0.3374
   39HK4    H25 3276   6.447   8.148   0.702 -0.9852 -1.0322  2.2663
   40HK4    H28 3277   1.301   3.277  10.959  0.8967 -2.2476  1.7119
   40HK4    C48 3278   1.325   3.230  10.864  0.7435 -0.6126  0.8670
   40HK4    C47 3279   1.443   3.265  10.797  0.2079 -0.4893 -0.0253
   40HK4    H27 3280   1.500   3.355  10.823 -1.7593  0.7214  0.2137
   40HK4    C46 3281   1.494   3.184  10.697  0.4442 -0.3560 -0.0158
   40HK4    H26 3282   1.595   3.189  10.653 -0.0848  0.5350 -1.1511
   40HK4    C40 3283   1.428   3.065  10.657  0.0975 -0.1089 -0.1778
   40HK4    C50 3284   1.305   3.036  10.720  0.2443  0.3485  0.3320
   40HK4    H30 3285   1.247   2.952  10.679  2.4375 -0.8887 -0.3479
   40HK4    C49 3286   1.252   3.123  10.814 -0.1131  0.2709  0.2023
   40HK4    H29 3287   1.145   3.116  10.837 -0.7921 -0.0494 -2.8247
   40HK4     N2 3288   1.452   3.009  10.532  0.0946  0.2172 -0.3257
   40HK4    C30 3289   1.515   3.071  10.422  0.2359  0.3809 -0.1535
   40HK4    C29 3290   1.554   3.201  10.389  0.0811  0.3851 -0.3238
   40HK4    H15 3291   1.516   3.284  10.447  0.7694  1.0799 -0.8585
   40HK4    C28 3292   1.632   3.232  10.278  0.3313 -0.4039 -0.3733
   40HK4    C27 3293   1.667   3.123  10.196 -0.0686 -0.6879 -0.1643
   40HK4    H14 3294   1.747   3.132  10.121 -1.9646 -2.0360 -2.4263
   40HK4    C32 3295   1.620   2.994  10.223 -0.2197 -0.5374  0.3116
   40HK4    H16 3296   1.661   2.921  10.152  0.6354 -0.3581  0.6110
   40HK4    C31 3297   1.535   2.963  10.328 -0.5247 -0.0727  0.1997
   40HK4    C34 3298   1.488   2.835  10.376  0.3533 -0.4192  0.1473
   40HK4    C33 3299   1.438   2.870  10.507 -0.1313  0.2194 -0.2077
   40HK4    C35 3300   1.413   2.763  10.591 -0.4471  0.5061  0.0668
   40HK4    H17 3301   1.376   2.785  10.691 -0.9297 -0.8128  0.1917
   40HK4    C36 3302   1.421   2.631  10.549  0.0738  0.5507  0.0134
   40HK4    H18 3303   1.406   2.549  10.621  0.8693  0.0241 -0.4156
   40HK4    C37 3304   1.455   2.605  10.416  0.0679 -0.2565  0.1623
   40HK4    H19 3305   1.457   2.499  10.392  0.8721 -0.1639 -0.1731
   40HK4    C38 3306   1.490   2.705  10.326 -0.9418 -0.2908 -0.2734
   40HK4    H20 3307   1.551   2.678  10.240  0.4846 -0.7194  0.8461
   40HK4    C14 3308   1.660   3.372  10.242 -0.3642 -0.1669  0.0118
   40HK4     C9 3309   1.684   3.425  10.115 -0.3704  0.0230  0.0881
   40HK4     C8 3310   1.753   3.547  10.099 -0.4162  0.0010 -0.2783
   40HK4    C11 3311   1.798   3.613  10.213 -0.1903 -0.2555 -0.2140
   40HK4     H4 3312   1.876   3.690  10.206  0.3219 -0.9432 -2.7971
   40HK4    C12 3313   1.755   3.574  10.339  0.1186  0.1882  0.0276
   40HK4     H5 3314   1.784   3.637  10.424  1.6178 -2.6031  1.6468
   40HK4    C13 3315   1.689   3.453  10.354  0.4280 -0.0214 -0.2985
   40HK4     H6 3316   1.643   3.444  10.454  0.3657  2.4506 -0.0654
   40HK4     C7 3317   1.811   3.587   9.969 -0.3451  0.3129 -0.1510
   40HK4     O2 3318   1.857   3.700   9.952  0.2553  0.0736 -0.0953
   40HK4     C4 3319   1.803   3.486   9.861 -0.3745  0.4094 -0.2388
   40HK4     C3 3320   1.889   3.504   9.753  0.1809  0.1677  0.1586
   40HK4     H3 3321   1.979   3.567   9.761  1.4538 -1.6802  0.7818
   40HK4     C2 3322   1.881   3.423   9.640  0.1544  0.3196  0.0521
   40HK4     H2 3323   1.920   3.461   9.544 -1.1546  0.5133 -0.4231
   40HK4     C1 3324   1.784   3.324   9.640 -0.1025  0.5696 -0.2137
   40HK4     H1 3325   1.777   3.263   9.548  1.1908  0.9819 -0.5871
   40HK4     C6 3326   1.695   3.301   9.747  0.3374 -0.3271 -0.0403
   40HK4     C5 3327   1.706   3.384   9.859  0.1294 -0.0714 -0.2046
   40HK4    C10 3328   1.637   3.361   9.989  0.3674 -0.1637 -0.0950
   40HK4     O1 3329   1.517   3.334   9.996  0.3537 -0.0026  0.2816
   40HK4    C16 3330   1.572   3.230   9.710 -0.0957  0.3227  0.1495
   40HK4    C15 3331   1.520   3.249   9.580  0.8532  0.2880 -0.2417
   40HK4     H7 3332   1.563   3.332   9.522  0.3878  0.0728 -0.9055
   40HK4    C20 3333   1.441   3.154   9.516  1.0182  0.0068 -0.0286
   40HK4     H9 3334   1.389   3.170   9.422  0.9227  0.5937  0.1217
   40HK4    C19 3335   1.416   3.034   9.580 -0.4961  0.3787  0.0824
   40HK4    C18 3336   1.477   3.003   9.708  0.7426  0.2514 -0.5389
   40HK4    C17 3337   1.552   3.104   9.767  0.0955  0.3103  0.1873
   40HK4     H8 3338   1.569   3.100   9.874 -0.7806  3.5371  0.4876
   40HK4     N1 3339   1.453   2.869   9.743 -1.2195  0.8062  0.2685
   40HK4    C21 3340   1.385   2.809   9.635 -0.1152 -0.2993  0.1778
   40HK4    C22 3341   1.349   2.912   9.540  0.4373 -0.1517  0.1243
   40HK4    C26 3342   1.280   2.877   9.424  0.6231  0.2889 -0.1183
   40HK4    H13 3343   1.276   2.956   9.348  2.3115 -0.5311 -1.1064
   40HK4    C25 3344   1.253   2.744   9.394 -0.2338  0.2454  0.8307
   40HK4    H12 3345   1.171   2.720   9.326  0.2545 -0.9995  0.6744
   40HK4    C24 3346   1.290   2.644   9.483 -0.0426 -0.7201 -0.3124
   40HK4    H11 3347   1.272   2.537   9.466 -1.2215 -1.1015  2.9195
   40HK4    C23 3348   1.354   2.677   9.602  0.1561 -0.1751 -0.5706
   40HK4    H10 3349   1.399   2.594   9.656 -0.3958 -0.2251 -0.1903
   40HK4    C39 3350   1.432   2.836   9.878 -0.5429 -0.1301  0.1545
   40HK4    C41 3351   1.446   2.701   9.915  0.2486  0.0690  0.6038
   40HK4    H21 3352   1.522   2.637   9.868 -0.8122 -1.9535  1.5662
   40HK4    C42 3353   1.367   2.646  10.016 -0.1651 -0.3174  0.0745
   40HK4    H22 3354   1.383   2.540  10.038 -1.2208 -0.6679 -0.8217
   40HK4    C43 3355   1.279   2.722  10.092 -0.4445 -0.3051 -0.2560
   40HK4    H23 3356   1.224   2.681  10.177 -0.2276  1.8113  0.9525
   40HK4    C44 3357   1.273   2.858  10.063 -0.5866 -0.2906 -0.1586
   40HK4    H24 3358   1.217   2.922  10.132 -0.3980  2.8464 -2.7484
   40HK4    C45 3359   1.345   2.914   9.957 -0.7696 -0.0618 -0.1606
   40HK4    H25 3360   1.337   3.023   9.941  0.1497 -0.1923 -1.5432
   41HK4    H28 3361   9.637   6.014   3.864  1.5269  0.4296  1.1959
   41HK4    C48 3362   9.703   5.934   3.830 -0.2414 -0.5598  0.0578
   41HK4    C47 3363   9.745   5.840   3.923  0.8421  0.1677  0.3091
   41HK4    H27 3364   9.665   5.805   3.990 -1.9315  0.9476 -2.4845
   41HK4    C46 3365   9.859   5.763   3.904  0.2599 -0.5619 -0.2720
   41HK4    H26 3366   9.891   5.690   3.979  0.3688 -1.1288 -0.8635
   41HK4    C40 3367   9.933   5.774   3.784  0.2135 -0.1652 -0.2639
   41HK4    C50 3368   9.880   5.861   3.686  0.0834  0.1512  0.0906
   41HK4    H30 3369   9.918   5.857   3.583 -0.6899 -0.6604 -0.1582
   41HK4    C49 3370   9.766   5.938   3.706  0.1275  0.1726  0.2695
   41HK4    H29 3371   9.737   6.008   3.626  0.6754 -0.1913 -0.2474
   41HK4     N2 3372  10.070   5.745   3.790  0.2165 -0.1277 -0.0958
   41HK4    C30 3373  10.146   5.732   3.908 -0.3375  0.0333  0.2775
   41HK4    C29 3374  10.137   5.791   4.034  0.1931  0.2444  0.2196
   41HK4    H15 3375  10.037   5.822   4.066 -1.0577 -1.4166 -1.9092
   41HK4    C28 3376  10.242   5.798   4.124  0.0811  0.0329  0.3634
   41HK4    C27 3377  10.364   5.732   4.099  0.2513  0.5781 -0.2516
   41HK4    H14 3378  10.440   5.729   4.178  0.2807  1.6734 -0.2306
   41HK4    C32 3379  10.370   5.657   3.982  0.2834 -0.0661  0.1677
   41HK4    H16 3380  10.457   5.598   3.952 -0.3538 -1.3460  0.7589
   41HK4    C31 3381  10.268   5.656   3.889 -0.0678  0.3947  0.5477
   41HK4    C34 3382  10.262   5.617   3.749  0.0836 -0.0692  0.6706
   41HK4    C33 3383  10.148   5.684   3.690  0.2780 -0.2828  0.0480
   41HK4    C35 3384  10.104   5.646   3.563 -0.2473 -0.7055  0.3533
   41HK4    H17 3385  10.003   5.677   3.536 -0.1541  0.1365  0.9240
   41HK4    C36 3386  10.180   5.564   3.479 -0.0865 -0.2389  0.0445
   41HK4    H18 3387  10.147   5.531   3.380 -1.0223  0.7794 -0.0008
   41HK4    C37 3388  10.292   5.509   3.539  0.1381 -0.2155 -0.3528
   41HK4    H19 3389  10.342   5.432   3.480  0.7312 -0.2861  0.2436
   41HK4    C38 3390  10.334   5.529   3.670 -0.6773  0.0231 -0.1266
   41HK4    H20 3391  10.432   5.495   3.702 -1.6849 -2.4647  0.4572
   41HK4    C14 3392  10.225   5.886   4.241 -0.1671  0.4568  0.0100
   41HK4     C9 3393  10.335   5.936   4.311  0.1383 -0.6738  0.3479
   41HK4     C8 3394  10.332   5.957   4.451 -0.3390 -0.2208  0.2711
   41HK4    C11 3395  10.209   5.948   4.515 -0.2798 -0.7115  0.3232
   41HK4     H4 3396  10.204   5.985   4.619 -1.8579  1.4913 -0.4844
   41HK4    C12 3397  10.098   5.901   4.446 -0.2334 -0.2763 -0.0534
   41HK4     H5 3398  10.008   5.866   4.498 -0.6667  2.1134  0.8779
   41HK4    C13 3399  10.102   5.873   4.310 -0.2383  0.2196 -0.1568
   41HK4     H6 3400  10.011   5.833   4.262 -0.4090 -1.0282  1.1695
   41HK4     C7 3401  10.456   5.984   4.527 -0.1457  0.1753 -0.1802
   41HK4     O2 3402  10.455   5.970   4.649 -0.4352 -0.7004 -0.2751
   41HK4     C4 3403  10.582   6.005   4.453  0.3858 -1.0336  0.3652
   41HK4     C3 3404  10.700   6.042   4.518 -0.0262  0.0762  0.5015
   41HK4     H3 3405  10.715   6.006   4.621  1.1069  0.6367  0.5319
   41HK4     C2 3406  10.816   6.083   4.455 -0.2556 -0.1270 -0.0536
   41HK4     H2 3407  10.904   6.113   4.515 -1.8488 -1.7749  3.2208
   41HK4     C1 3408  10.820   6.070   4.316 -0.0100 -0.1975 -0.0422
   41HK4     H1 3409  10.912   6.108   4.269  0.3329 -1.2811 -0.2411
   41HK4     C6 3410  10.705   6.029   4.246 -0.3676  0.0582  0.3923
   41HK4     C5 3411  10.584   6.005   4.312 -0.3764 -0.0287  0.3527
   41HK4    C10 3412  10.455   5.987   4.239 -0.1260 -0.4837  0.0328
   41HK4     O1 3413  10.428   6.062   4.146  0.3048 -0.0443  0.2616
   41HK4    C16 3414  10.723   6.045   4.101 -0.3463  0.1786  0.4091
   41HK4    C15 3415  10.678   5.942   4.016  0.1818  0.3560 -0.0886
   41HK4     H7 3416  10.678   5.837   4.049 -0.0778 -0.1540 -1.6712
   41HK4    C20 3417  10.658   5.966   3.880  0.0090 -0.2793 -0.1777
   41HK4     H9 3418  10.662   5.880   3.813 -0.3373 -1.4981  1.3223
   41HK4    C19 3419  10.679   6.091   3.822 -0.1917  0.0377  0.4305
   41HK4    C18 3420  10.723   6.198   3.909 -0.1765  0.3251  0.0688
   41HK4    C17 3421  10.752   6.167   4.041 -0.6360  0.1069  0.1180
   41HK4     H8 3422  10.807   6.236   4.105 -0.9844  0.9028 -0.4450
   41HK4     N1 3423  10.728   6.320   3.839  0.7897  0.2299 -0.0424
   41HK4    C21 3424  10.690   6.290   3.706  0.6066  0.0269  0.0565
   41HK4    C22 3425  10.670   6.147   3.689  0.3450  0.0222  0.3885
   41HK4    C26 3426  10.654   6.090   3.563 -0.0888  0.4258  0.2598
   41HK4    H13 3427  10.646   5.982   3.552 -0.1698  0.4729 -0.1556
   41HK4    C25 3428  10.653   6.174   3.453 -0.0939 -0.1548 -0.1836
   41HK4    H12 3429  10.629   6.124   3.359 -0.2845 -0.3667 -0.0206
   41HK4    C24 3430  10.678   6.310   3.467  0.4194 -0.2502 -0.1372
   41HK4    H11 3431  10.674   6.376   3.378 -0.0420  0.4157  0.3681
   41HK4    C23 3432  10.698   6.368   3.592  0.5802 -0.2768 -0.1513
   41HK4    H10 3433  10.711   6.476   3.594  1.1782 -0.2994 -1.7441
   41HK4    C39 3434  10.702   6.444   3.898 -0.0321 -0.1512  0.3996
   41HK4    C41 3435  10.749   6.564   3.841  0.1560 -0.5874 -0.3693
   41HK4    H21 3436  10.824   6.560   3.762 -0.0418  2.7521 -0.8233
   41HK4    C42 3437  10.706   6.692   3.874  0.5097 -0.4931 -0.2694
   41HK4    H22 3438  10.743   6.784   3.826  0.8438  0.2706  1.4287
   41HK4    C43 3439  10.605   6.704   3.969  0.0595 -0.1450 -0.7898
   41HK4    H23 3440  10.578   6.798   4.017 -0.6708  0.4892 -2.3894
   41HK4    C44 3441  10.552   6.589   4.027  0.0476  0.1552 -0.2063
   41HK4    H24 3442  10.471   6.590   4.101 -2.0935 -3.6839 -2.3250
   41HK4    C45 3443  10.605   6.464   3.999 -0.0503 -0.0119  0.3560
   41HK4    H25 3444  10.581   6.380   4.067 -1.2841  1.2531  1.5111
   42HK4    H28 3445   3.892   3.031   9.931  0.1406  1.4380  0.8778
   42HK4    C48 3446   3.860   2.966  10.012  0.1769 -0.3065 -0.4735
   42HK4    C47 3447   3.930   2.984  10.131 -0.4122 -0.5815 -0.0842
   42HK4    H27 3448   3.995   3.071  10.147 -1.5158  0.3357 -0.5711
   42HK4    C46 3449   3.917   2.883  10.226  0.6342 -0.7948 -0.1614
   42HK4    H26 3450   3.972   2.895  10.320  0.8203 -0.3943 -0.3205
   42HK4    C40 3451   3.842   2.765  10.208 -0.2259 -0.2240 -0.3478
   42HK4    C50 3452   3.773   2.760  10.085 -0.3088 -0.1906 -0.3049
   42HK4    H30 3453   3.716   2.670  10.057  0.9573 -0.8293 -0.8572
   42HK4    C49 3454   3.780   2.856   9.985  0.1045 -0.2812 -0.3618
   42HK4    H29 3455   3.745   2.839   9.882  0.0569  0.1414 -0.4153
   42HK4     N2 3456   3.852   2.655  10.294  0.4005  0.2199  0.1503
   42HK4    C30 3457   3.754   2.556  10.317  0.0981  0.6210  0.5940
   42HK4    C29 3458   3.618   2.577  10.333 -0.0421 -0.0045  0.2242
   42HK4    H15 3459   3.580   2.659  10.273  1.6206 -0.6363 -1.7404
   42HK4    C28 3460   3.531   2.488  10.395 -0.0728 -0.2007 -0.0969
   42HK4    C27 3461   3.587   2.366  10.441  0.4960  0.0801 -0.0363
   42HK4    H14 3462   3.531   2.297  10.505 -0.8419  2.1748  1.1286
   42HK4    C32 3463   3.723   2.342  10.434  0.5721  0.4668  0.0927
   42HK4    H16 3464   3.761   2.248  10.475  0.6476  0.2448 -0.4860
   42HK4    C31 3465   3.808   2.435  10.377  0.4525  0.3262 -0.3154
   42HK4    C34 3466   3.952   2.455  10.373  0.5327 -0.1029  0.3523
   42HK4    C33 3467   3.972   2.594  10.336  0.2538 -0.1435  0.0470
   42HK4    C35 3468   4.101   2.646  10.337  0.1996 -0.0100  0.0713
   42HK4    H17 3469   4.108   2.751  10.364  0.0436  0.3368 -1.2408
   42HK4    C36 3470   4.210   2.565  10.370 -0.2266 -0.4042  0.5220
   42HK4    H18 3471   4.314   2.597  10.362 -0.2663 -0.9775 -3.7873
   42HK4    C37 3472   4.191   2.433  10.408 -0.2720 -0.6824 -0.4453
   42HK4    H19 3473   4.279   2.373  10.432 -1.6420 -1.2560  3.4495
   42HK4    C38 3474   4.062   2.382  10.416 -0.0753 -1.0712  0.2678
   42HK4    H20 3475   4.050   2.286  10.467  0.0804 -0.9767  0.4843
   42HK4    C14 3476   3.401   2.535  10.445 -0.0173 -0.2386  0.0840
   42HK4     C9 3477   3.345   2.481  10.562 -0.3720  0.4593  0.2385
   42HK4     C8 3478   3.206   2.461  10.571 -0.2804 -0.3263 -0.0462
   42HK4    C11 3479   3.132   2.514  10.466 -0.2304  0.1897  0.1787
   42HK4     H4 3480   3.028   2.541  10.489 -0.4294 -0.5662  0.1637
   42HK4    C12 3481   3.181   2.567  10.347  0.0056 -0.0349  0.1756
   42HK4     H5 3482   3.120   2.605  10.264  0.6561  1.0480  0.1864
   42HK4    C13 3483   3.319   2.581  10.340 -0.0218  0.3182  0.3335
   42HK4     H6 3484   3.366   2.639  10.259  2.5836 -1.7424  0.3147
   42HK4     C7 3485   3.142   2.398  10.688 -0.2355 -0.0313  0.1411
   42HK4     O2 3486   3.035   2.340  10.667 -0.1946  0.2491 -0.8622
   42HK4     C4 3487   3.227   2.375  10.807  0.0220  0.4340  0.0455
   42HK4     C3 3488   3.169   2.317  10.919  0.4978  0.6033  0.3831
   42HK4     H3 3489   3.063   2.289  10.922  0.4441  0.6999 -0.4374
   42HK4     C2 3490   3.250   2.269  11.021 -0.0250 -0.2794  0.3897
   42HK4     H2 3491   3.208   2.240  11.118 -1.3943 -2.0217 -0.7043
   42HK4     C1 3492   3.389   2.278  11.011 -0.0634 -0.6168 -0.5386
   42HK4     H1 3493   3.448   2.270  11.103  0.1140 -0.9699 -0.6796
   42HK4     C6 3494   3.449   2.343  10.902  0.0933  0.1796  0.0187
   42HK4     C5 3495   3.366   2.398  10.804  0.0622  0.1963  0.0551
   42HK4    C10 3496   3.426   2.470  10.687  0.2291 -0.3954 -0.2253
   42HK4     O1 3497   3.504   2.563  10.704 -0.1502 -0.1437  0.1507
   42HK4    C16 3498   3.580   2.287  10.867  0.0973 -0.1373  0.5352
   42HK4    C15 3499   3.604   2.149  10.882  0.8161 -0.0152  0.5317
   42HK4     H7 3500   3.516   2.089  10.909  0.5374  0.7107  1.2539
   42HK4    C20 3501   3.729   2.092  10.857  0.5724 -0.4998  0.4094
   42HK4     H9 3502   3.744   1.985  10.869 -0.7096 -0.9002 -1.3972
   42HK4    C19 3503   3.836   2.170  10.815  0.1827 -0.2796 -0.1803
   42HK4    C18 3504   3.817   2.314  10.809  0.3648 -0.2655 -0.4350
   42HK4    C17 3505   3.691   2.365  10.836  0.0692 -0.6799 -1.0179
   42HK4     H8 3506   3.679   2.471  10.860  1.4589 -1.1754  2.2081
   42HK4     N1 3507   3.943   2.378  10.810  0.2756 -0.0933 -0.1144
   42HK4    C21 3508   4.042   2.279  10.797  0.3943  0.1215 -0.8497
   42HK4    C22 3509   3.976   2.150  10.784  0.3160  0.0507  0.2104
   42HK4    C26 3510   4.048   2.039  10.742  0.5271  0.4786 -0.5743
   42HK4    H13 3511   3.993   1.948  10.718 -2.7723  2.2666 -0.1071
   42HK4    C25 3512   4.182   2.051  10.707  0.8423 -0.7965  0.1604
   42HK4    H12 3513   4.243   1.963  10.686 -0.3362 -1.6469  0.2594
   42HK4    C24 3514   4.247   2.172  10.727 -0.3989 -0.0475 -0.2826
   42HK4    H11 3515   4.356   2.177  10.717 -0.4985  0.4066 -1.1344
   42HK4    C23 3516   4.180   2.284  10.775  0.5247  0.3887  0.0147
   42HK4    H10 3517   4.237   2.367  10.816 -0.6587 -0.2649  3.1575
   42HK4    C39 3518   3.953   2.516  10.792 -0.0344 -0.0850 -0.2314
   42HK4    C41 3519   4.066   2.577  10.852 -0.1580  0.0875 -0.1745
   42HK4    H21 3520   4.098   2.545  10.952 -0.1181 -0.4441 -0.3564
   42HK4    C42 3521   4.110   2.700  10.804 -0.2536  0.3638  0.4363
   42HK4    H22 3522   4.205   2.734  10.849  0.2631  0.3923 -0.6450
   42HK4    C43 3523   4.040   2.763  10.701 -0.1971  0.0230  0.1831
   42HK4    H23 3524   4.080   2.851  10.651  1.7434 -1.3785 -0.7913
   42HK4    C44 3525   3.927   2.702  10.648 -0.2821  0.3930 -0.0536
   42HK4    H24 3526   3.859   2.756  10.580 -2.2404 -3.1098 -0.9435
   42HK4    C45 3527   3.878   2.580  10.691  0.5880 -0.2268 -0.7887
   42HK4    H25 3528   3.774   2.550  10.673 -0.2715  2.5413 -0.7312
   43HK4    H28 3529   3.968   8.558   0.574 -0.4307  0.0849  0.3862
   43HK4    C48 3530   4.050   8.508   0.624 -0.3301 -0.2063 -0.0692
   43HK4    C47 3531   4.066   8.517   0.762  0.1259 -0.2199 -0.1208
   43HK4    H27 3532   3.985   8.555   0.826  0.5267 -1.6609  1.2832
   43HK4    C46 3533   4.183   8.469   0.820 -0.0570 -0.0301  0.4069
   43HK4    H26 3534   4.190   8.476   0.929 -1.6991  1.2235  0.4420
   43HK4    C40 3535   4.280   8.401   0.744 -0.8356 -0.6748 -0.0214
   43HK4    C50 3536   4.257   8.394   0.605 -0.0191 -0.2410 -0.1829
   43HK4    H30 3537   4.310   8.314   0.552 -1.0054 -0.4315 -0.9020
   43HK4    C49 3538   4.146   8.450   0.542 -0.1755 -0.2164  0.1154
   43HK4    H29 3539   4.128   8.473   0.436 -0.9753  0.3499  0.3666
   43HK4     N2 3540   4.376   8.316   0.801 -0.2372 -0.0364 -0.0743
   43HK4    C30 3541   4.360   8.255   0.926 -0.0647  0.5089  0.2155
   43HK4    C29 3542   4.244   8.220   0.995 -0.0973  0.4410  0.1264
   43HK4    H15 3543   4.141   8.241   0.964  0.1439  0.8627 -0.4019
   43HK4    C28 3544   4.253   8.136   1.105 -0.5148 -0.1455 -0.2791
   43HK4    C27 3545   4.380   8.095   1.151 -0.1401  0.6309 -0.6031
   43HK4    H14 3546   4.388   8.019   1.231 -0.0848  1.2184 -0.0436
   43HK4    C32 3547   4.497   8.137   1.090  0.4093  0.2047  0.1472
   43HK4    H16 3548   4.593   8.130   1.140  0.8120  1.1119 -0.4862
   43HK4    C31 3549   4.490   8.214   0.974 -0.1637 -0.0578  0.0035
   43HK4    C34 3550   4.591   8.249   0.876 -0.1852  0.0163  0.0095
   43HK4    C33 3551   4.513   8.310   0.769 -0.0765  0.8985  0.4284
   43HK4    C35 3552   4.568   8.352   0.648  0.4149  0.6462  0.5618
   43HK4    H17 3553   4.510   8.389   0.564 -0.4938  3.5298  2.3662
   43HK4    C36 3554   4.706   8.337   0.642  0.3804  0.6884 -0.4174
   43HK4    H18 3555   4.746   8.371   0.546 -0.1818  0.0869 -0.8696
   43HK4    C37 3556   4.785   8.285   0.745 -0.4477 -0.6244 -0.4286
   43HK4    H19 3557   4.892   8.290   0.730 -0.5588  2.9028 -0.5311
   43HK4    C38 3558   4.727   8.230   0.859 -0.0058  0.8130  0.5079
   43HK4    H20 3559   4.790   8.178   0.931  1.4139  1.8797  0.0796
   43HK4    C14 3560   4.128   8.102   1.175 -0.5453  0.7433  0.1131
   43HK4     C9 3561   4.134   8.064   1.310 -0.5094 -0.6367 -0.2646
   43HK4     C8 3562   4.060   7.953   1.356 -0.3874 -0.4468  0.3942
   43HK4    C11 3563   3.972   7.888   1.270 -0.7601  0.3617  0.1511
   43HK4     H4 3564   3.922   7.792   1.291  1.7679 -0.8033  1.1067
   43HK4    C12 3565   3.960   7.938   1.141  0.9379  0.1650 -0.0986
   43HK4     H5 3566   3.871   7.908   1.084  1.4078  0.4351 -0.9858
   43HK4    C13 3567   4.035   8.043   1.087  0.2902  0.3954 -0.5562
   43HK4     H6 3568   3.999   8.078   0.989  1.2919  0.9573 -0.7226
   43HK4     C7 3569   4.104   7.887   1.480  0.2251  0.0447  0.4420
   43HK4     O2 3570   4.039   7.790   1.518 -0.0069  0.0368  0.0297
   43HK4     C4 3571   4.230   7.928   1.545  0.8646  0.1121 -0.8436
   43HK4     C3 3572   4.281   7.845   1.644  0.4260  0.1498 -0.5858
   43HK4     H3 3573   4.238   7.748   1.674 -0.4878  1.0521  1.0948
   43HK4     C2 3574   4.384   7.892   1.724  0.0484 -0.2621  0.1503
   43HK4     H2 3575   4.422   7.841   1.813  0.5027  0.9282  0.6508
   43HK4     C1 3576   4.437   8.019   1.700  0.2234 -0.3721 -0.0627
   43HK4     H1 3577   4.525   8.047   1.759  1.1226  0.5396 -1.8229
   43HK4     C6 3578   4.396   8.104   1.596  0.2657 -0.2131  0.0530
   43HK4     C5 3579   4.287   8.055   1.522 -0.2454  0.7942  0.1252
   43HK4    C10 3580   4.228   8.127   1.406 -0.4769 -0.3609 -0.4770
   43HK4     O1 3581   4.212   8.249   1.409 -0.2265 -0.3398  0.1000
   43HK4    C16 3582   4.474   8.227   1.580  0.3273 -0.3279 -0.5439
   43HK4    C15 3583   4.551   8.279   1.686 -0.1258  0.0816 -0.4144
   43HK4     H7 3584   4.536   8.241   1.788  0.1354 -1.1854 -0.8355
   43HK4    C20 3585   4.639   8.387   1.684  0.2171 -0.1956 -0.2589
   43HK4     H9 3586   4.667   8.450   1.768  1.3732 -0.0431 -0.7467
   43HK4    C19 3587   4.649   8.450   1.560 -0.5351  0.6467  0.1046
   43HK4    C18 3588   4.585   8.393   1.443 -0.1297 -0.2733  0.3251
   43HK4    C17 3589   4.497   8.286   1.455 -0.5901 -0.0025 -0.5646
   43HK4     H8 3590   4.465   8.232   1.366 -1.7397 -0.6721  0.2413
   43HK4     N1 3591   4.643   8.450   1.329 -0.3300 -0.1015  0.3069
   43HK4    C21 3592   4.746   8.539   1.365 -0.3593  0.1903 -0.3241
   43HK4    C22 3593   4.743   8.548   1.510  0.1146 -0.1766 -0.2909
   43HK4    C26 3594   4.819   8.648   1.570 -0.4655  0.2836 -0.3165
   43HK4    H13 3595   4.816   8.662   1.678 -0.4773 -0.5344 -0.2105
   43HK4    C25 3596   4.892   8.734   1.488  0.1856  0.2715  0.2581
   43HK4    H12 3597   4.952   8.813   1.533 -1.1462  0.5086  1.6780
   43HK4    C24 3598   4.907   8.712   1.352 -0.1822  0.0486  0.2505
   43HK4    H11 3599   4.991   8.769   1.308 -1.4533  1.9074  0.1672
   43HK4    C23 3600   4.834   8.614   1.287  0.5915 -0.4483  0.1257
   43HK4    H10 3601   4.852   8.581   1.185 -0.0829  0.1866 -0.1991
   43HK4    C39 3602   4.556   8.492   1.227 -0.0389  0.6076  0.3473
   43HK4    C41 3603   4.605   8.506   1.096  0.0335  0.9797  0.4146
   43HK4    H21 3604   4.705   8.473   1.064  0.1139  0.7169  0.9344
   43HK4    C42 3605   4.524   8.565   1.001 -0.4116 -0.2106  0.0440
   43HK4    H22 3606   4.555   8.592   0.899  0.6785  1.8440  0.8826
   43HK4    C43 3607   4.396   8.611   1.032 -0.0489  0.7176  0.2125
   43HK4    H23 3608   4.328   8.649   0.956  1.4624  1.8297 -0.6082
   43HK4    C44 3609   4.348   8.590   1.161  0.0959 -0.3183  0.1023
   43HK4    H24 3610   4.248   8.627   1.188 -0.2081 -0.5175 -0.7103
   43HK4    C45 3611   4.424   8.528   1.260 -0.3113 -0.3819  0.3768
   43HK4    H25 3612   4.374   8.478   1.344 -1.0055  0.3116  0.3876
   44HK4    H28 3613   6.345   7.039   0.074  2.5008  0.4732 -1.0169
   44HK4    C48 3614   6.309   7.004  11.225 -0.4909  0.8052 -0.0702
   44HK4    C47 3615   6.182   6.958  11.192 -0.1800  0.0542 -0.2296
   44HK4    H27 3616   6.112   6.949   0.029  1.1011 -2.4711  0.6077
   44HK4    C46 3617   6.139   6.921  11.065 -0.1250  0.4973 -0.3779
   44HK4    H26 3618   6.035   6.888  11.055  0.3422 -1.2660  0.3404
   44HK4    C40 3619   6.212   6.939  10.945  0.3168  0.1253 -0.1682
   44HK4    C50 3620   6.340   6.988  10.979  0.2062  0.2978 -0.0002
   44HK4    H30 3621   6.417   6.983  10.901 -1.1934  1.6621 -1.4954
   44HK4    C49 3622   6.385   7.008  11.109 -0.1671  0.3157  0.1268
   44HK4    H29 3623   6.489   7.042  11.117  0.1346 -0.2052 -1.4843
   44HK4     N2 3624   6.181   6.886  10.820  0.0889  0.3913 -0.2229
   44HK4    C30 3625   6.104   6.771  10.793  0.1160  0.2904  0.1361
   44HK4    C29 3626   6.066   6.671  10.881  0.7372 -0.6635 -0.6681
   44HK4    H15 3627   6.096   6.680  10.985 -0.1157 -0.1142 -0.4642
   44HK4    C28 3628   5.993   6.561  10.837 -0.9487  0.1553  0.0062
   44HK4    C27 3629   5.954   6.562  10.702 -0.2786  0.3176 -0.1893
   44HK4    H14 3630   5.876   6.492  10.668  0.2465 -1.6944  2.5377
   44HK4    C32 3631   5.995   6.656  10.608 -0.1179  0.0556 -0.3795
   44HK4    H16 3632   5.945   6.652  10.511  0.1565 -0.5403 -0.5013
   44HK4    C31 3633   6.072   6.763  10.652  0.0028 -0.2695  0.1960
   44HK4    C34 3634   6.137   6.874  10.587 -0.3188 -0.0153  0.3059
   44HK4    C33 3635   6.212   6.940  10.693  0.2005  0.2824 -0.2429
   44HK4    C35 3636   6.278   7.057  10.661  0.7363 -0.0421 -0.3296
   44HK4    H17 3637   6.330   7.124  10.730  0.0821  0.7480 -0.5908
   44HK4    C36 3638   6.284   7.106  10.530 -0.2477  0.1063 -0.3171
   44HK4    H18 3639   6.374   7.159  10.497 -0.3676 -0.7754 -2.0922
   44HK4    C37 3640   6.209   7.040  10.433  0.2242 -1.1586  0.1586
   44HK4    H19 3641   6.204   7.087  10.335 -0.1763  1.3688  1.3476
   44HK4    C38 3642   6.132   6.927  10.459 -0.2579 -0.8809 -0.0584
   44HK4    H20 3643   6.071   6.890  10.376  0.2141  2.2715 -1.9163
   44HK4    C14 3644   5.975   6.440  10.919  0.3969  0.0337  0.1411
   44HK4     C9 3645   5.956   6.313  10.864 -0.1977  0.0050  0.4028
   44HK4     C8 3646   5.855   6.229  10.916 -0.2307 -0.0908  0.1860
   44HK4    C11 3647   5.787   6.269  11.031  0.3214 -0.5840  0.6844
   44HK4     H4 3648   5.705   6.203  11.061 -0.4623  0.1238  0.1106
   44HK4    C12 3649   5.818   6.387  11.098  1.0359 -0.4852  0.1881
   44HK4     H5 3650   5.760   6.430  11.180  0.4670  1.9618 -1.4509
   44HK4    C13 3651   5.909   6.474  11.039  0.5524  0.0473  0.2234
   44HK4     H6 3652   5.949   6.551  11.107 -0.2603  2.4528 -1.9377
   44HK4     C7 3653   5.844   6.087  10.877 -0.0361 -0.0410 -0.0502
   44HK4     O2 3654   5.731   6.041  10.858  0.0051 -0.3029  0.3385
   44HK4     C4 3655   5.964   6.023  10.818  0.0632 -0.2196  0.3481
   44HK4     C3 3656   5.963   5.886  10.798 -0.1946 -0.2585  0.6242
   44HK4     H3 3657   5.877   5.817  10.808 -0.1012 -0.2545  1.4208
   44HK4     C2 3658   6.071   5.824  10.736 -0.1842  0.1240  0.2588
   44HK4     H2 3659   6.073   5.715  10.724 -0.4608  0.1435  0.0247
   44HK4     C1 3660   6.185   5.899  10.711 -0.1627 -0.0010 -0.0248
   44HK4     H1 3661   6.266   5.856  10.649 -0.4835 -0.4183 -0.1560
   44HK4     C6 3662   6.195   6.035  10.747 -0.2950  0.0582 -0.2167
   44HK4     C5 3663   6.081   6.099  10.795 -0.3365  0.1575 -0.4453
   44HK4    C10 3664   6.068   6.248  10.791 -0.1461  0.1965  0.3119
   44HK4     O1 3665   6.138   6.313  10.713  0.1817 -0.2730  0.2114
   44HK4    C16 3666   6.322   6.101  10.714 -0.0198 -0.2623  0.1931
   44HK4    C15 3667   6.403   6.063  10.605  0.3107 -0.5009  0.5179
   44HK4     H7 3668   6.352   6.012  10.522 -0.3456  1.9853 -0.6554
   44HK4    C20 3669   6.534   6.104  10.583  0.0137  0.2288  0.0986
   44HK4     H9 3670   6.568   6.116  10.480  0.9177  0.6789  0.4496
   44HK4    C19 3671   6.590   6.184  10.681  0.4161 -0.0430  0.0905
   44HK4    C18 3672   6.515   6.226  10.798  0.3189 -0.7827  0.2900
   44HK4    C17 3673   6.384   6.179  10.810 -0.2149  0.5312 -0.3212
   44HK4     H8 3674   6.327   6.226  10.890  0.0623  1.0657 -0.4309
   44HK4     N1 3675   6.597   6.307  10.878 -0.1582 -0.1812  0.1709
   44HK4    C21 3676   6.725   6.311  10.819 -0.4406  0.9945 -0.3938
   44HK4    C22 3677   6.724   6.239  10.693  0.2377  0.4341 -0.0837
   44HK4    C26 3678   6.828   6.238  10.601  0.1489 -0.3113 -0.1722
   44HK4    H13 3679   6.825   6.180  10.508  3.3730 -0.4481 -0.2486
   44HK4    C25 3680   6.935   6.323  10.625  0.0407 -0.1675 -0.2051
   44HK4    H12 3681   7.025   6.323  10.564  1.1562  2.0527  1.3669
   44HK4    C24 3682   6.930   6.404  10.738 -0.1405 -0.0445 -0.3004
   44HK4    H11 3683   7.018   6.466  10.764  0.7275 -2.0580  1.6882
   44HK4    C23 3684   6.832   6.398  10.836  0.0964  0.2731 -0.0407
   44HK4    H10 3685   6.841   6.456  10.927  1.1023  1.9268 -1.1669
   44HK4    C39 3686   6.541   6.409  10.957  1.0531  0.8344 -0.2661
   44HK4    C41 3687   6.619   6.459  11.063  1.0458  0.0883  0.0992
   44HK4    H21 3688   6.682   6.385  11.114 -1.9276 -1.3595  1.7508
   44HK4    C42 3689   6.602   6.583  11.123  0.4476 -0.5077  1.1633
   44HK4    H22 3690   6.664   6.611  11.210  2.5656 -3.1081  0.5556
   44HK4    C43 3691   6.503   6.665  11.071  0.8509 -0.8085 -0.0888
   44HK4    H23 3692   6.478   6.761  11.117  0.7587 -0.9416  0.1351
   44HK4    C44 3693   6.433   6.628  10.956 -0.0016 -0.5473  0.3370
   44HK4    H24 3694   6.388   6.706  10.892  0.9736 -0.5968 -0.4267
   44HK4    C45 3695   6.449   6.501  10.903  0.3719 -0.0783 -0.6774
   44HK4    H25 3696   6.378   6.475  10.823 -0.1104 -0.9881  0.0447
   45HK4    H28 3697   1.666   5.798   4.978 -0.5129 -0.5767 -0.4441
   45HK4    C48 3698   1.564   5.763   4.966 -0.8833  0.2478  0.3287
   45HK4    C47 3699   1.514   5.737   4.839  0.0668  0.3284 -0.0657
   45HK4    H27 3700   1.559   5.766   4.744  1.4936 -0.5217  0.3399
   45HK4    C46 3701   1.395   5.666   4.827  0.1827  0.0715  0.2888
   45HK4    H26 3702   1.367   5.628   4.728  0.0069  0.6032  0.1317
   45HK4    C40 3703   1.323   5.616   4.937  0.0848 -0.7244 -0.1383
   45HK4    C50 3704   1.376   5.647   5.064  0.2817 -0.6266 -0.2437
   45HK4    H30 3705   1.335   5.606   5.158 -0.3266  0.9153  0.1803
   45HK4    C49 3706   1.495   5.718   5.078  0.0212 -0.3608  0.6464
   45HK4    H29 3707   1.523   5.737   5.183 -1.3808 -0.0141  0.9683
   45HK4     N2 3708   1.192   5.571   4.912 -0.1990 -0.1201  0.2651
   45HK4    C30 3709   1.109   5.612   4.806  0.6739 -0.2992 -0.4993
   45HK4    C29 3710   1.124   5.723   4.725  0.0734 -0.2166 -0.5019
   45HK4    H15 3711   1.211   5.787   4.742  1.0375 -1.3713 -1.0442
   45HK4    C28 3712   1.023   5.761   4.638 -0.3087  0.0646  0.0598
   45HK4    C27 3713   0.908   5.680   4.631 -0.4724  0.2991  0.0211
   45HK4    H14 3714   0.840   5.694   4.545 -0.1594  2.5118  0.0901
   45HK4    C32 3715   0.890   5.569   4.713  0.5186  0.0157 -0.1464
   45HK4    H16 3716   0.798   5.512   4.698  1.5396 -1.5801 -0.4751
   45HK4    C31 3717   0.984   5.538   4.810  0.3913  0.1992  0.0348
   45HK4    C34 3718   0.994   5.447   4.923 -0.1731  0.0297 -0.0468
   45HK4    C33 3719   1.127   5.465   4.978 -0.5457  0.3864  0.7498
   45HK4    C35 3720   1.175   5.373   5.070 -0.3332 -0.2358  0.0247
   45HK4    H17 3721   1.274   5.395   5.112  0.0892  0.8860 -1.5322
   45HK4    C36 3722   1.097   5.265   5.112 -0.3484 -0.0290  0.5316
   45HK4    H18 3723   1.125   5.214   5.205  0.1780 -1.2207 -0.2739
   45HK4    C37 3724   0.976   5.242   5.048 -0.3692  0.1149  0.5199
   45HK4    H19 3725   0.923   5.150   5.074  0.9181  0.0588  3.0718
   45HK4    C38 3726   0.924   5.332   4.956 -0.1159  0.1147  0.3739
   45HK4    H20 3727   0.838   5.298   4.898  1.9544 -1.4576 -1.8840
   45HK4    C14 3728   1.012   5.898   4.585  0.2049  0.1624  0.2058
   45HK4     C9 3729   0.891   5.966   4.564  0.2171  0.1738  0.1744
   45HK4     C8 3730   0.866   6.043   4.448  0.2457 -0.4061 -0.2249
   45HK4    C11 3731   0.973   6.079   4.367 -0.1096  0.2695 -0.3916
   45HK4     H4 3732   0.963   6.159   4.292 -0.1446  1.0391  0.4277
   45HK4    C12 3733   1.095   6.023   4.401 -0.2383  0.0698 -0.2596
   45HK4     H5 3734   1.182   6.070   4.352  0.4486  0.9610  1.7763
   45HK4    C13 3735   1.122   5.935   4.505 -0.1050  0.1550 -0.2206
   45HK4     H6 3736   1.219   5.888   4.527 -0.7100 -0.7008  0.6631
   45HK4     C7 3737   0.735   6.103   4.414  0.3315 -0.1761 -0.1553
   45HK4     O2 3738   0.715   6.170   4.313  0.0504 -0.6667 -0.4263
   45HK4     C4 3739   0.623   6.078   4.508  0.3208 -0.1995 -0.1747
   45HK4     C3 3740   0.495   6.116   4.471  0.4123  0.2226 -0.0609
   45HK4     H3 3741   0.485   6.193   4.393  1.5064  0.7786  0.3335
   45HK4     C2 3742   0.383   6.069   4.539  0.3797 -0.2431 -0.4322
   45HK4     H2 3743   0.278   6.078   4.508 -0.0048  2.9038  1.5485
   45HK4     C1 3744   0.403   5.985   4.649 -0.3868  0.8864  0.5769
   45HK4     H1 3745   0.320   5.979   4.720  0.5488  0.1130  1.6112
   45HK4     C6 3746   0.532   5.952   4.695 -0.3710  0.2102  0.0621
   45HK4     C5 3747   0.643   6.004   4.627 -0.2316 -0.6324 -0.3523
   45HK4    C10 3748   0.782   5.966   4.664 -0.0200  0.3945 -0.0820
   45HK4     O1 3749   0.827   6.001   4.773  0.2375  0.5156 -0.2307
   45HK4    C16 3750   0.536   5.818   4.754  0.6148 -0.0101 -0.5044
   45HK4    C15 3751   0.446   5.716   4.716  0.1298  0.2674 -0.1050
   45HK4     H7 3752   0.391   5.730   4.621  1.5196  0.0289 -0.9669
   45HK4    C20 3753   0.442   5.593   4.780  0.4154  0.1908 -0.2314
   45HK4     H9 3754   0.386   5.519   4.724  0.9073 -0.5112  0.2060
   45HK4    C19 3755   0.522   5.556   4.887  0.6208  0.1454 -0.3994
   45HK4    C18 3756   0.606   5.665   4.933 -0.3120  0.4192  0.6793
   45HK4    C17 3757   0.604   5.790   4.872 -0.0087  0.0338 -0.1322
   45HK4     H8 3758   0.648   5.878   4.920 -0.2414  0.2688 -0.3554
   45HK4     N1 3759   0.680   5.621   5.045  0.7858 -0.3300 -0.3299
   45HK4    C21 3760   0.653   5.484   5.065 -0.3601 -0.0497  0.1089
   45HK4    C22 3761   0.555   5.440   4.968 -0.2408  0.1209 -0.0877
   45HK4    C26 3762   0.499   5.316   4.994 -0.0302  0.1429  0.4863
   45HK4    H13 3763   0.425   5.286   4.920  1.8623 -1.0426 -0.9844
   45HK4    C25 3764   0.547   5.224   5.087 -0.2935 -0.3006  0.1867
   45HK4    H12 3765   0.492   5.133   5.110 -2.7215  1.7580  2.8849
   45HK4    C24 3766   0.644   5.267   5.176 -0.2927 -0.1443  0.1115
   45HK4    H11 3767   0.650   5.205   5.267 -0.4025  0.2494  0.3904
   45HK4    C23 3768   0.691   5.398   5.167 -0.2394 -0.1738 -0.0394
   45HK4    H10 3769   0.779   5.415   5.230  0.0167 -2.6403  0.3433
   45HK4    C39 3770   0.786   5.691   5.102  0.2919 -0.3068  0.5748
   45HK4    C41 3771   0.829   5.673   5.235 -0.7721  0.5763  1.0420
   45HK4    H21 3772   0.761   5.633   5.312  0.2851 -3.2495  0.1264
   45HK4    C42 3773   0.958   5.701   5.278 -0.1623 -0.7720  0.1328
   45HK4    H22 3774   0.985   5.680   5.382  3.0537  0.6252 -0.3597
   45HK4    C43 3775   1.048   5.773   5.200 -0.1154 -1.0266 -0.0496
   45HK4    H23 3776   1.146   5.799   5.240 -0.3300  2.5086 -1.6420
   45HK4    C44 3777   1.009   5.799   5.070  0.6494 -0.8016 -0.2383
   45HK4    H24 3778   1.066   5.867   5.005  2.1000  0.5750  2.3938
   45HK4    C45 3779   0.885   5.755   5.024  0.2353 -0.3668  0.4527
   45HK4    H25 3780   0.870   5.769   4.916  1.0663  0.4037  0.4296
   46HK4    H28 3781  10.522   8.116  10.603 -2.0743  0.9717  1.0524
   46HK4    C48 3782  10.484   8.180  10.524 -0.0021  0.2817 -0.5344
   46HK4    C47 3783  10.538   8.308  10.519  0.1499  0.2378 -0.0282
   46HK4    H27 3784  10.598   8.343  10.604  0.3673 -0.9973  0.3399
   46HK4    C46 3785  10.497   8.395  10.418 -0.2803 -0.0401 -0.0938
   46HK4    H26 3786  10.542   8.495  10.408 -0.6066 -0.0517 -1.7507
   46HK4    C40 3787  10.394   8.361  10.328 -0.0206 -0.0266 -0.3976
   46HK4    C50 3788  10.343   8.230  10.337 -0.3746  0.1375  0.0521
   46HK4    H30 3789  10.278   8.197  10.254 -0.8246 -0.3337  0.5857
   46HK4    C49 3790  10.384   8.141  10.436 -0.2629  0.0008 -0.1160
   46HK4    H29 3791  10.323   8.050  10.450 -2.0263  0.9957 -1.1163
   46HK4     N2 3792  10.334   8.460  10.250  0.1854  0.1868 -0.2858
   46HK4    C30 3793  10.337   8.596  10.289  0.4047  0.0107  0.3026
   46HK4    C29 3794  10.318   8.646  10.417 -0.3722  0.1310  0.1465
   46HK4    H15 3795  10.286   8.577  10.495 -0.8806 -1.5630 -1.5320
   46HK4    C28 3796  10.318   8.782  10.446  0.3210  0.1356  0.1210
   46HK4    C27 3797  10.322   8.871  10.336  0.5496  0.1369  0.1295
   46HK4    H14 3798  10.351   8.975  10.355  0.8240 -0.3095  2.3956
   46HK4    C32 3799  10.329   8.828  10.204 -0.1830 -0.2161  0.2013
   46HK4    H16 3800  10.318   8.891  10.116 -1.4288  0.5070  0.8517
   46HK4    C31 3801  10.332   8.691  10.180 -0.2086 -0.2040  0.1386
   46HK4    C34 3802  10.322   8.605  10.063 -0.0284 -0.0814  0.0314
   46HK4    C33 3803  10.319   8.468  10.110 -0.2522 -0.1777 -0.2645
   46HK4    C35 3804  10.295   8.364  10.020  0.1774 -0.3671 -0.1597
   46HK4    H17 3805  10.312   8.262  10.052  1.8171 -0.2186 -0.5425
   46HK4    C36 3806  10.271   8.393   9.886  0.5005 -0.4561 -0.2356
   46HK4    H18 3807  10.210   8.325   9.824  0.2814 -2.8228  2.4682
   46HK4    C37 3808  10.298   8.521   9.839 -0.4740 -0.0106  0.3947
   46HK4    H19 3809  10.281   8.549   9.735 -0.3846  2.3069  0.9736
   46HK4    C38 3810  10.321   8.627   9.926  0.1698  0.1254  0.0623
   46HK4    H20 3811  10.340   8.727   9.889 -0.0487  1.4346  3.3793
   46HK4    C14 3812  10.329   8.838  10.581  0.1109 -0.1782  0.2693
   46HK4     C9 3813  10.314   8.972  10.621  0.1038  0.0586 -0.4996
   46HK4     C8 3814  10.383   9.020  10.734  0.0693 -0.0822 -0.4241
   46HK4    C11 3815  10.453   8.934  10.818 -0.7356 -0.1831  0.1625
   46HK4     H4 3816  10.526   8.969  10.893 -1.5183 -1.1800  1.3912
   46HK4    C12 3817  10.445   8.798  10.791 -0.7214 -0.2011  0.2612
   46HK4     H5 3818  10.470   8.729  10.873  2.0392 -0.4983 -0.7837
   46HK4    C13 3819  10.390   8.751  10.673  0.0255 -0.4933  0.0266
   46HK4     H6 3820  10.400   8.642  10.658  0.4679 -0.9019  2.9968
   46HK4     C7 3821  10.379   9.160  10.783 -0.4710 -0.2288 -0.0297
   46HK4     O2 3822  10.423   9.195  10.892  0.0778 -0.0897 -0.2958
   46HK4     C4 3823  10.303   9.254  10.698  0.1167  0.1697 -0.1145
   46HK4     C3 3824  10.319   9.391  10.720 -0.2449  0.1132  0.5022
   46HK4     H3 3825  10.393   9.433  10.790  0.6684  1.3193 -1.1698
   46HK4     C2 3826  10.259   9.486  10.638 -0.4672  0.0208  0.5552
   46HK4     H2 3827  10.306   9.585  10.636 -3.1064  1.2842 -0.1343
   46HK4     C1 3828  10.181   9.442  10.531 -0.3329  0.4280  0.2902
   46HK4     H1 3829  10.157   9.525  10.462 -0.0087  0.2374 -0.0560
   46HK4     C6 3830  10.164   9.306  10.501 -0.3491  0.3082  0.8368
   46HK4     C5 3831  10.226   9.215  10.587 -0.7665 -0.1892  0.6176
   46HK4    C10 3832  10.215   9.068  10.564 -0.2314 -0.1016 -0.1988
   46HK4     O1 3833  10.105   9.022  10.535 -0.2781 -0.1751  0.0930
   46HK4    C16 3834  10.044   9.278  10.420  0.5436  0.6233 -0.6082
   46HK4    C15 3835   9.934   9.366  10.429 -0.2903 -0.5300  0.6094
   46HK4     H7 3836   9.926   9.439  10.511  1.1060  1.0562 -0.6463
   46HK4    C20 3837   9.832   9.369  10.335  0.1289  0.1065  0.1760
   46HK4     H9 3838   9.751   9.441  10.350 -0.7134 -0.8484  0.2579
   46HK4    C19 3839   9.840   9.282  10.227 -0.2586 -0.1003  0.3155
   46HK4    C18 3840   9.946   9.183  10.221 -0.1457  0.0595 -0.3322
   46HK4    C17 3841  10.051   9.191  10.312 -0.0989  0.3167 -0.4084
   46HK4     H8 3842  10.144   9.135  10.299  0.5762  1.5322 -0.9600
   46HK4     N1 3843   9.916   9.089  10.121 -0.3562  0.0337 -0.2483
   46HK4    C21 3844   9.801   9.137  10.055 -0.3482  0.4184  0.0141
   46HK4    C22 3845   9.739   9.244  10.131 -0.4340  0.0705  0.4320
   46HK4    C26 3846   9.633   9.309  10.069  0.6067  0.4948 -0.9302
   46HK4    H13 3847   9.582   9.390  10.123  1.0761  0.6982 -0.7976
   46HK4    C25 3848   9.600   9.291   9.935 -0.1585  0.3121 -0.7267
   46HK4    H12 3849   9.537   9.363   9.884  1.0840  0.7540 -1.6702
   46HK4    C24 3850   9.657   9.186   9.864  0.2580  0.2682 -0.3305
   46HK4    H11 3851   9.657   9.176   9.754  2.3398 -0.1074 -0.3117
   46HK4    C23 3852   9.753   9.109   9.928  0.1596  0.2941 -0.1514
   46HK4    H10 3853   9.808   9.034   9.870  1.2127  1.4273 -0.6455
   46HK4    C39 3854   9.949   8.953  10.117 -0.8690 -0.0891 -0.2801
   46HK4    C41 3855   9.983   8.887   9.997 -0.5863  0.2521 -0.3877
   46HK4    H21 3856  10.002   8.954   9.912  0.9975  2.1238  1.3799
   46HK4    C42 3857  10.003   8.749   9.998 -0.1113  0.3220  0.3996
   46HK4    H22 3858  10.024   8.705   9.900 -1.0270 -0.0103  0.3499
   46HK4    C43 3859   9.987   8.673  10.113  0.3682 -0.1168  0.1760
   46HK4    H23 3860   9.995   8.566  10.095 -0.7438 -0.2067  0.1804
   46HK4    C44 3861   9.954   8.739  10.231 -0.1360  0.2162 -0.1514
   46HK4    H24 3862   9.967   8.687  10.327  1.6215  0.1498 -0.3947
   46HK4    C45 3863   9.935   8.876  10.235  0.3430  0.2787  0.1055
   46HK4    H25 3864   9.912   8.919  10.334 -0.4209 -0.7432  0.3749
   47HK4    H28 3865   5.633   9.615   7.290 -1.2381  2.0344 -0.6553
   47HK4    C48 3866   5.675   9.649   7.384 -0.5814 -0.7048  0.0839
   47HK4    C47 3867   5.724   9.565   7.484 -0.3769 -0.3175  0.3094
   47HK4    H27 3868   5.696   9.460   7.471  1.7089 -0.9899  1.1192
   47HK4    C46 3869   5.777   9.614   7.603 -0.2952  0.5451 -0.0736
   47HK4    H26 3870   5.824   9.542   7.672 -1.7543  0.3190  0.7065
   47HK4    C40 3871   5.791   9.752   7.625 -0.2909  0.5144  0.1253
   47HK4    C50 3872   5.729   9.832   7.526 -0.4410  0.0658 -0.1444
   47HK4    H30 3873   5.709   9.939   7.545  3.3779  0.6680  0.9699
   47HK4    C49 3874   5.668   9.785   7.411 -0.3596 -0.6972  0.1183
   47HK4    H29 3875   5.624   9.858   7.341 -1.9565 -0.6437  1.1485
   47HK4     N2 3876   5.836   9.811   7.744  0.3671 -0.2904  0.2745
   47HK4    C30 3877   5.828   9.751   7.871 -0.4442 -0.1510  0.2927
   47HK4    C29 3878   5.756   9.642   7.919 -0.2996 -0.4779 -0.2187
   47HK4    H15 3879   5.691   9.586   7.851  0.5081  0.4128 -1.7419
   47HK4    C28 3880   5.755   9.602   8.052  0.3835 -0.0324 -0.0808
   47HK4    C27 3881   5.852   9.668   8.131  0.1268  0.2229  0.0201
   47HK4    H14 3882   5.886   9.619   8.224  0.8401 -0.2458 -0.4783
   47HK4    C32 3883   5.927   9.777   8.091  0.1562  0.1013 -0.2749
   47HK4    H16 3884   5.998   9.824   8.160 -0.6797  2.6938 -1.1100
   47HK4    C31 3885   5.928   9.812   7.956 -0.0272 -0.0008 -0.3032
   47HK4    C34 3886   5.990   9.923   7.886  0.1230 -0.0295 -0.2150
   47HK4    C33 3887   5.929   9.916   7.755  0.0658  0.0300 -0.1923
   47HK4    C35 3888   5.981  10.006   7.662  0.3844 -0.6687 -0.6838
   47HK4    H17 3889   5.958   9.995   7.556 -2.2545 -2.9536  0.0545
   47HK4    C36 3890   6.080  10.098   7.692 -0.3109 -0.0104 -0.4086
   47HK4    H18 3891   6.118  10.164   7.613 -1.6609  0.6826 -0.5036
   47HK4    C37 3892   6.135  10.112   7.819 -0.8162 -0.2052 -0.1688
   47HK4    H19 3893   6.179  10.206   7.850 -2.6912  0.8661 -0.6777
   47HK4    C38 3894   6.090  10.016   7.910  0.3834 -0.4142  0.2035
   47HK4    H20 3895   6.122  10.012   8.014 -1.7672  0.2380  0.9157
   47HK4    C14 3896   5.641   9.541   8.122 -0.0903  0.4962 -0.3889
   47HK4     C9 3897   5.596   9.569   8.251 -0.3012  0.2843 -0.4137
   47HK4     C8 3898   5.537   9.470   8.332  0.0579  0.2977 -0.1307
   47HK4    C11 3899   5.508   9.348   8.271 -0.1129  0.3038 -0.0637
   47HK4     H4 3900   5.438   9.286   8.329  1.1731 -2.3772 -1.3045
   47HK4    C12 3901   5.537   9.321   8.138  0.0694 -0.6437  0.1637
   47HK4     H5 3902   5.522   9.222   8.092 -0.6434 -0.7327  0.5789
   47HK4    C13 3903   5.603   9.418   8.064  0.5457 -0.3527  0.9715
   47HK4     H6 3904   5.601   9.412   7.954  1.6415  1.0390  0.8573
   47HK4     C7 3905   5.532   9.498   8.477 -0.3159 -0.4891  0.0134
   47HK4     O2 3906   5.486   9.405   8.543 -0.8138 -0.3662 -0.1584
   47HK4     C4 3907   5.582   9.622   8.540 -0.1995 -0.5575  0.0550
   47HK4     C3 3908   5.588   9.627   8.679 -0.1206  0.4054  0.0213
   47HK4     H3 3909   5.550   9.546   8.743 -1.3999  1.2300  0.3456
   47HK4     C2 3910   5.642   9.739   8.742  1.2469 -0.3140  0.1388
   47HK4     H2 3911   5.644   9.746   8.851 -1.1235  0.8831  0.1371
   47HK4     C1 3912   5.702   9.835   8.662  0.4484 -0.1139 -0.2282
   47HK4     H1 3913   5.766   9.911   8.709 -0.6873  1.2130 -0.7831
   47HK4     C6 3914   5.690   9.834   8.521 -0.4880  0.6625 -0.1628
   47HK4     C5 3915   5.622   9.729   8.458 -0.0369 -0.1421  0.6696
   47HK4    C10 3916   5.622   9.703   8.311  0.2350 -0.3083  0.6999
   47HK4     O1 3917   5.583   9.792   8.235 -0.4053 -0.6657  0.6086
   47HK4    C16 3918   5.788   9.923   8.457  0.1349  0.3747  0.3829
   47HK4    C15 3919   5.926   9.912   8.485  0.2429  0.4704 -0.1163
   47HK4     H7 3920   5.966   9.836   8.554  1.3321 -0.3751 -1.6498
   47HK4    C20 3921   6.011   9.994   8.413  0.7491  0.2006  0.1780
   47HK4     H9 3922   6.117   9.997   8.438  0.0800  0.6819  3.1351
   47HK4    C19 3923   5.970  10.084   8.315  0.1586 -0.9146 -0.6036
   47HK4    C18 3924   5.827  10.102   8.298  0.1780  0.4219  0.5186
   47HK4    C17 3925   5.741  10.017   8.366  0.1284  0.3069  0.3146
   47HK4     H8 3926   5.633  10.023   8.354 -0.0823 -1.0403  1.3541
   47HK4     N1 3927   5.800  10.209   8.210  0.0861 -0.3024 -0.3481
   47HK4    C21 3928   5.925  10.258   8.167  0.0528  0.6629  0.6385
   47HK4    C22 3929   6.032  10.184   8.230 -0.1667 -0.1656  0.0400
   47HK4    C26 3930   6.164  10.225   8.217 -0.0346 -0.5162  0.2493
   47HK4    H13 3931   6.251  10.176   8.261  1.9193  2.9177  0.3990
   47HK4    C25 3932   6.191  10.341   8.146  0.2883 -0.3590  0.6332
   47HK4    H12 3933   6.294  10.368   8.120  0.8568 -0.9205  2.2639
   47HK4    C24 3934   6.089  10.418   8.091  0.5050  0.0345  0.7753
   47HK4    H11 3935   6.108  10.507   8.030 -0.0339  0.3125  1.0131
   47HK4    C23 3936   5.958  10.372   8.094  0.3474  0.4602  0.4495
   47HK4    H10 3937   5.883  10.428   8.037  0.4911 -0.1444 -0.3489
   47HK4    C39 3938   5.675  10.228   8.151  0.2728  0.2487 -0.5717
   47HK4    C41 3939   5.637  10.353   8.099  0.0903  0.3634 -0.1559
   47HK4    H21 3940   5.651  10.434   8.172 -0.1316  0.8233 -0.6203
   47HK4    C42 3941   5.557  10.365   7.986 -0.7906  0.0801  0.4319
   47HK4    H22 3942   5.552  10.464   7.938 -1.4449 -0.6191 -0.9803
   47HK4    C43 3943   5.506  10.252   7.923  0.1791  0.0990 -0.3968
   47HK4    H23 3944   5.455  10.258   7.827 -0.4535  2.7096  0.0592
   47HK4    C44 3945   5.534  10.127   7.978  1.0475  0.3213 -0.3378
   47HK4    H24 3946   5.483  10.037   7.941 -0.3553  0.9895 -0.0677
   47HK4    C45 3947   5.622  10.115   8.085  0.1799 -0.2295  0.3223
   47HK4    H25 3948   5.645  10.012   8.118  1.0572 -0.6914 -1.6144
   48HK4    H28 3949   8.946   0.693   1.929 -2.3537 -0.1585  0.7053
   48HK4    C48 3950   8.937   0.639   1.834  0.1901 -0.3912  0.5570
   48HK4    C47 3951   8.990   0.681   1.713 -0.0235 -0.1262  0.5549
   48HK4    H27 3952   9.039   0.779   1.701 -0.4636  0.1428  0.8910
   48HK4    C46 3953   8.961   0.612   1.596  0.5190 -0.2705  0.5040
   48HK4    H26 3954   8.996   0.656   1.501 -2.4562 -0.8534 -0.9154
   48HK4    C40 3955   8.886   0.493   1.592 -0.1737  0.1783 -0.2583
   48HK4    C50 3956   8.838   0.454   1.718  0.2594  0.2408 -0.0732
   48HK4    H30 3957   8.770   0.370   1.735 -1.6635  2.1890  2.3226
   48HK4    C49 3958   8.864   0.521   1.838  0.8138 -0.7827  0.3884
   48HK4    H29 3959   8.832   0.482   1.935 -0.4535  0.7054  0.6001
   48HK4     N2 3960   8.842   0.431   1.474  0.5952 -0.2761 -0.3150
   48HK4    C30 3961   8.823   0.498   1.351  0.5291 -0.0290 -0.1709
   48HK4    C29 3962   8.772   0.627   1.340  0.0764 -0.2286 -0.4335
   48HK4    H15 3963   8.811   0.699   1.411  1.0185 -0.4374 -0.7238
   48HK4    C28 3964   8.729   0.681   1.219  0.3706 -0.0468 -0.4584
   48HK4    C27 3965   8.739   0.595   1.108  0.2122 -0.2874 -0.2865
   48HK4    H14 3966   8.743   0.644   1.010 -0.4137 -0.5412 -0.4378
   48HK4    C32 3967   8.776   0.461   1.114  0.5641 -0.2062 -0.6729
   48HK4    H16 3968   8.785   0.400   1.025  0.9522 -1.5843  0.2919
   48HK4    C31 3969   8.814   0.408   1.237  0.4865  0.3035 -0.4289
   48HK4    C34 3970   8.851   0.282   1.298 -0.4406  0.2315 -0.0053
   48HK4    C33 3971   8.848   0.294   1.442  0.1142 -0.3842  0.0601
   48HK4    C35 3972   8.878   0.184   1.521  0.5529 -0.2690  0.0556
   48HK4    H17 3973   8.860   0.188   1.629  1.5114 -0.6855  0.2389
   48HK4    C36 3974   8.915   0.064   1.461 -0.1539 -0.3766 -0.1812
   48HK4    H18 3975   8.912  11.225   1.528 -2.2890  1.7079  2.5471
   48HK4    C37 3976   8.925   0.053   1.323 -0.8125  0.2954 -0.2822
   48HK4    H19 3977   8.942  11.201   1.282  2.2604  0.2231  1.1066
   48HK4    C38 3978   8.889   0.160   1.242 -0.4038  0.3927 -0.3339
   48HK4    H20 3979   8.889   0.150   1.134  2.7892  0.2585 -0.3752
   48HK4    C14 3980   8.630   0.790   1.224  0.1489 -0.2657 -0.0125
   48HK4     C9 3981   8.512   0.806   1.150 -0.3774 -0.0678  0.8556
   48HK4     C8 3982   8.456   0.933   1.130 -0.2163 -0.1977 -0.5087
   48HK4    C11 3983   8.509   1.042   1.199  0.2515 -0.3982 -0.5511
   48HK4     H4 3984   8.472   1.144   1.179  2.3340  0.5150  0.1050
   48HK4    C12 3985   8.611   1.025   1.291 -0.5015 -0.0110  0.3645
   48HK4     H5 3986   8.640   1.097   1.369 -0.6645 -0.9626  1.3115
   48HK4    C13 3987   8.673   0.901   1.301  0.0339  0.1762 -0.5831
   48HK4     H6 3988   8.763   0.892   1.363 -1.4822  0.5993  1.7617
   48HK4     C7 3989   8.345   0.956   1.035 -0.5790 -0.0060 -0.0393
   48HK4     O2 3990   8.336   1.056   0.963  0.1867 -0.0947 -0.2628
   48HK4     C4 3991   8.280   0.837   0.976  0.0432 -0.3546 -0.0293
   48HK4     C3 3992   8.161   0.852   0.905  0.1703  0.1440 -0.1337
   48HK4     H3 3993   8.125   0.949   0.866 -1.4825 -0.5545 -0.3804
   48HK4     C2 3994   8.089   0.744   0.856  0.4229 -0.0397 -0.0992
   48HK4     H2 3995   8.003   0.761   0.791 -1.4931  1.5298  2.7468
   48HK4     C1 3996   8.140   0.615   0.870 -0.2765 -0.3659 -0.5438
   48HK4     H1 3997   8.092   0.529   0.821  1.1625 -1.4919 -0.0299
   48HK4     C6 3998   8.264   0.600   0.935 -0.3690  0.2387 -0.2206
   48HK4     C5 3999   8.327   0.707   1.000 -0.1227 -0.3241  0.4660
   48HK4    C10 4000   8.440   0.688   1.095  0.5440 -0.1052 -0.2921
   48HK4     O1 4001   8.420   0.598   1.176  0.5343 -0.2309 -0.4336
   48HK4    C16 4002   8.317   0.463   0.926 -0.2554  0.2866 -0.2992
   48HK4    C15 4003   8.456   0.440   0.920 -0.2011  0.5424  0.0619
   48HK4     H7 4004   8.513   0.532   0.901 -1.5192  1.2238 -0.6408
   48HK4    C20 4005   8.521   0.321   0.951 -0.0168  0.4702 -0.5953
   48HK4     H9 4006   8.629   0.308   0.941  0.4081  1.3197  2.5577
   48HK4    C19 4007   8.446   0.206   0.972  0.0461  0.4883 -0.2640
   48HK4    C18 4008   8.302   0.223   0.971 -0.0176 -0.0142  0.0042
   48HK4    C17 4009   8.244   0.347   0.951  0.1959  0.1608  0.4531
   48HK4     H8 4010   8.140   0.362   0.982 -0.0845 -1.2581  0.2485
   48HK4     N1 4011   8.231   0.116   1.028  0.3092 -0.2525 -0.0350
   48HK4    C21 4012   8.333   0.026   1.064  0.2171 -0.0786  0.6550
   48HK4    C22 4013   8.466   0.077   1.036 -0.1736  0.5890  0.0056
   48HK4    C26 4014   8.580   0.014   1.084 -0.7706 -0.5778 -0.1070
   48HK4    H13 4015   8.680   0.053   1.068  0.1593 -2.8826 -0.2083
   48HK4    C25 4016   8.571  11.137   1.146 -0.6219 -0.7051 -0.3397
   48HK4    H12 4017   8.662  11.087   1.176  1.0976  1.8542 -1.0871
   48HK4    C24 4018   8.445  11.084   1.172 -0.8249  0.1588  0.5050
   48HK4    H11 4019   8.442  11.004   1.247  0.8225  0.4114  0.8573
   48HK4    C23 4020   8.331  11.152   1.131 -0.9985 -0.2329  0.3463
   48HK4    H10 4021   8.244  11.092   1.103 -0.6788 -0.8772  0.7239
   48HK4    C39 4022   8.096   0.093   0.997  0.0700  0.3290  0.5758
   48HK4    C41 4023   8.027   0.016   1.094 -0.1960 -0.2079 -0.0342
   48HK4    H21 4024   8.061   0.029   1.198 -3.0223  1.8209  0.6746
   48HK4    C42 4025   7.922  11.181   1.058 -0.1584 -0.2074 -0.1442
   48HK4    H22 4026   7.849  11.142   1.131  0.6769 -1.0810  0.2465
   48HK4    C43 4027   7.881  11.158   0.927 -0.3306  0.5663 -0.2276
   48HK4    H23 4028   7.794  11.097   0.904 -0.0636 -0.1901  0.7260
   48HK4    C44 4029   7.951  11.229   0.831 -0.3008  0.4388 -0.2993
   48HK4    H24 4030   7.924  11.225   0.724 -2.3712 -1.7096  0.2822
   48HK4    C45 4031   8.049   0.073   0.866  0.2519 -0.4877  0.6265
   48HK4    H25 4032   8.081   0.147   0.790 -2.1119 -0.4338 -0.3556
   49HK4    H28 4033  10.141   3.232   7.796 -0.7018  1.8797  0.5380
   49HK4    C48 4034  10.243   3.257   7.766 -0.2431 -0.4447  0.0538
   49HK4    C47 4035  10.342   3.281   7.861  0.0053 -0.6488 -0.1577
   49HK4    H27 4036  10.318   3.270   7.967 -0.1638  1.3766  0.0280
   49HK4    C46 4037  10.464   3.324   7.810 -0.2165  0.0349 -0.1149
   49HK4    H26 4038  10.550   3.315   7.879 -0.4386 -1.7420 -0.0309
   49HK4    C40 4039  10.491   3.351   7.675 -0.1368 -0.4400 -0.1986
   49HK4    C50 4040  10.382   3.326   7.589  0.0115 -0.2702 -0.4403
   49HK4    H30 4041  10.389   3.356   7.483  1.3820  0.8343 -0.0570
   49HK4    C49 4042  10.260   3.273   7.629  0.0933 -0.0179  0.1432
   49HK4    H29 4043  10.189   3.290   7.547  0.9007 -1.7941 -0.9681
   49HK4     N2 4044  10.599   3.427   7.628  0.1532 -0.1550  0.9098
   49HK4    C30 4045  10.665   3.528   7.701 -0.0447  0.2657  0.5111
   49HK4    C29 4046  10.623   3.604   7.809  0.0674 -0.7809  1.2967
   49HK4    H15 4047  10.528   3.575   7.854 -0.0725 -1.7654  0.3830
   49HK4    C28 4048  10.702   3.708   7.857 -0.2159  0.2942 -0.5066
   49HK4    C27 4049  10.827   3.729   7.796  0.3080 -0.2950  0.3376
   49HK4    H14 4050  10.896   3.800   7.842  0.3828 -0.9715  1.2781
   49HK4    C32 4051  10.870   3.661   7.683  0.5110 -0.9728  0.8225
   49HK4    H16 4052  10.976   3.661   7.657  0.7965  1.8133  1.8696
   49HK4    C31 4053  10.792   3.556   7.637 -0.1224 -0.2097  0.1418
   49HK4    C34 4054  10.801   3.467   7.522  0.0622 -0.2276  0.1701
   49HK4    C33 4055  10.680   3.387   7.519 -0.2737  0.2678  0.4306
   49HK4    C35 4056  10.680   3.273   7.440 -0.4115  0.7642 -0.2840
   49HK4    H17 4057  10.592   3.211   7.428 -0.3283  0.5463  0.2580
   49HK4    C36 4058  10.788   3.244   7.356 -0.2161 -0.0837  0.2514
   49HK4    H18 4059  10.782   3.167   7.278 -0.9412  0.1897  0.0323
   49HK4    C37 4060  10.902   3.324   7.355 -0.0722 -0.2919  0.1855
   49HK4    H19 4061  10.988   3.304   7.292  0.2721  0.7842  0.2944
   49HK4    C38 4062  10.909   3.432   7.442 -0.1293  0.0240 -0.1978
   49HK4    H20 4063  10.988   3.506   7.430 -1.4542  1.3539 -0.8995
   49HK4    C14 4064  10.635   3.796   7.954  0.4122  0.1738  0.0373
   49HK4     C9 4065  10.659   3.934   7.961  0.6158  0.1314  0.1722
   49HK4     C8 4066  10.634   4.010   8.077 -0.5087  0.3813 -0.2267
   49HK4    C11 4067  10.580   3.949   8.189 -0.2085  0.1013 -0.2337
   49HK4     H4 4068  10.534   4.005   8.272  0.8117 -0.8128  0.9617
   49HK4    C12 4069  10.560   3.811   8.185  0.2362  0.0419 -0.4134
   49HK4     H5 4070  10.517   3.761   8.273 -1.4715  0.0562 -1.2201
   49HK4    C13 4071  10.586   3.735   8.072 -0.3227 -0.1335 -0.4237
   49HK4     H6 4072  10.551   3.631   8.070  1.5477 -0.8424  1.4982
   49HK4     C7 4073  10.692   4.146   8.087 -0.2941  0.2825 -0.0822
   49HK4     O2 4074  10.653   4.224   8.174  0.3128  0.0465  0.4058
   49HK4     C4 4075  10.795   4.190   7.991  0.0929 -0.2383  0.0969
   49HK4     C3 4076  10.880   4.291   8.035 -0.0020 -0.1135 -0.0111
   49HK4     H3 4077  10.856   4.352   8.123 -1.2193 -1.1790  0.4027
   49HK4     C2 4078  10.987   4.327   7.953 -0.2423 -0.0354 -0.2940
   49HK4     H2 4079  11.073   4.382   7.995 -0.3971 -0.9769  1.2750
   49HK4     C1 4080  10.998   4.265   7.829 -0.5662  0.0598 -0.3711
   49HK4     H1 4081  11.079   4.306   7.767 -0.7977 -0.3161 -0.9192
   49HK4     C6 4082  10.917   4.158   7.786  0.0500 -0.5495 -0.0171
   49HK4     C5 4083  10.807   4.125   7.866 -0.2728  0.1760 -0.1563
   49HK4    C10 4084  10.722   4.005   7.846  0.5637 -0.4173 -0.2009
   49HK4     O1 4085  10.655   4.003   7.743 -0.0406 -0.3105  0.1872
   49HK4    C16 4086  10.979   4.059   7.697  0.5128  0.0201 -0.3336
   49HK4    C15 4087  11.114   4.020   7.715  0.2618 -0.4637  0.5804
   49HK4     H7 4088  11.160   4.002   7.813  0.2689 -1.7789  0.3526
   49HK4    C20 4089  11.193   3.969   7.612  0.1027 -0.0350  0.2489
   49HK4     H9 4090   0.047   3.946   7.641  0.5048 -0.3137 -1.3604
   49HK4    C19 4091  11.136   3.946   7.487 -0.0565  0.9082  0.1454
   49HK4    C18 4092  10.996   3.980   7.467 -0.4965 -1.0058 -0.0978
   49HK4    C17 4093  10.922   4.029   7.574 -0.0368 -0.7384  0.0983
   49HK4     H8 4094  10.815   4.039   7.560  0.0750 -0.9427 -0.9466
   49HK4     N1 4095  10.968   3.971   7.329  0.2311 -0.8880 -0.2576
   49HK4    C21 4096  11.092   3.957   7.264  0.1958 -0.7788 -0.3491
   49HK4    C22 4097  11.197   3.924   7.357 -0.0146  0.2745  0.2727
   49HK4    C26 4098   0.082   3.926   7.315 -0.0186 -0.0468  0.2515
   49HK4    H13 4099   0.152   3.866   7.374  1.6116  0.6392 -0.9489
   49HK4    C25 4100   0.121   3.949   7.184 -0.1319 -0.1482  0.1977
   49HK4    H12 4101   0.220   3.932   7.142  0.0045  0.5612  0.2229
   49HK4    C24 4102   0.021   3.992   7.097  0.4286 -0.0554 -0.4040
   49HK4    H11 4103   0.053   4.001   6.992 -0.9604 -1.2037 -0.9519
   49HK4    C23 4104  11.137   3.999   7.139  0.5237 -0.2634 -0.0605
   49HK4    H10 4105  11.060   4.040   7.074 -0.0591 -2.7078 -0.9561
   49HK4    C39 4106  10.850   3.989   7.256  0.2147  0.4137  0.0738
   49HK4    C41 4107  10.825   3.936   7.128 -0.3775  0.3511  0.2098
   49HK4    H21 4108  10.902   3.872   7.081  2.6027  1.7588  2.9600
   49HK4    C42 4109  10.705   3.957   7.060  0.1727  1.1186 -0.5400
   49HK4    H22 4110  10.681   3.902   6.968 -3.1206 -0.7265  1.3420
   49HK4    C43 4111  10.611   4.040   7.120 -0.1461  0.6420 -0.3782
   49HK4    H23 4112  10.520   4.069   7.068  0.1186  0.5827 -0.8780
   49HK4    C44 4113  10.631   4.095   7.246 -0.4626  0.3196 -0.1872
   49HK4    H24 4114  10.539   4.138   7.288 -0.5727  1.3815 -1.4652
   49HK4    C45 4115  10.753   4.076   7.310 -0.2911  0.2290 -0.5368
   49HK4    H25 4116  10.792   4.154   7.377 -1.8499  1.0131 -0.5156
   50HK4    H28 4117   8.566   1.189   0.087  1.0554 -1.1794 -0.0546
   50HK4    C48 4118   8.496   1.114   0.049  0.0168 -0.0138 -0.4416
   50HK4    C47 4119   8.429   1.041   0.147 -0.4887  0.4182 -0.4608
   50HK4    H27 4120   8.467   1.031   0.249 -2.6327  0.7610  0.4060
   50HK4    C46 4121   8.305   0.983   0.125 -0.1169 -0.7002  0.3618
   50HK4    H26 4122   8.270   0.918   0.207 -0.0812 -0.6331  0.4293
   50HK4    C40 4123   8.244   0.995  11.246 -0.3111  0.1463  0.5350
   50HK4    C50 4124   8.318   1.060  11.146 -0.0610 -0.4184  0.3548
   50HK4    H30 4125   8.291   1.045  11.041  1.1426 -1.1316  0.1304
   50HK4    C49 4126   8.438   1.126  11.171 -0.0248 -0.1718 -0.4377
   50HK4    H29 4127   8.493   1.175  11.090  0.1700  0.8092  0.2775
   50HK4     N2 4128   8.124   0.935  11.205 -0.0724  0.2232 -0.2776
   50HK4    C30 4129   8.058   0.822   0.010  0.3587  0.2093  0.2293
   50HK4    C29 4130   8.101   0.739   0.112  0.5740 -0.0612 -0.0815
   50HK4    H15 4131   8.208   0.717   0.123  0.4353  0.2156  2.1212
   50HK4    C28 4132   8.018   0.651   0.181 -0.1462  0.7309  0.0683
   50HK4    C27 4133   7.884   0.650   0.136  0.0477  0.3336 -0.5119
   50HK4    H14 4134   7.814   0.610   0.211  0.3343  1.6949  0.5062
   50HK4    C32 4135   7.838   0.725   0.029 -0.1641 -0.0883 -0.7162
   50HK4    H16 4136   7.737   0.699  11.243  0.3869 -3.0650 -0.2007
   50HK4    C31 4137   7.922   0.814  11.210  0.4666 -0.1600 -0.0226
   50HK4    C34 4138   7.903   0.920  11.113 -0.4672 -0.0884  0.2324
   50HK4    C33 4139   8.030   0.990  11.116 -0.4755 -0.0624 -0.0254
   50HK4    C35 4140   8.035   1.105  11.039  0.0731  0.2726  0.5110
   50HK4    H17 4141   8.115   1.177  11.059 -0.9055  1.1630  1.2223
   50HK4    C36 4142   7.920   1.157  10.980 -0.0338  0.1994  0.6570
   50HK4    H18 4143   7.930   1.246  10.916  2.5081 -1.4457 -1.3663
   50HK4    C37 4144   7.798   1.091  10.983  0.1821 -0.2035  0.7503
   50HK4    H19 4145   7.712   1.128  10.926  0.5079 -1.9979 -0.9516
   50HK4    C38 4146   7.791   0.968  11.046 -0.7212 -0.2754  0.5222
   50HK4    H20 4147   7.704   0.903  11.033  0.6694 -2.6012  2.2913
   50HK4    C14 4148   8.076   0.557   0.278  0.5644  0.0651 -0.9914
   50HK4     C9 4149   8.017   0.433   0.304 -0.1062  0.6461  0.2986
   50HK4     C8 4150   8.022   0.368   0.429  0.0258  0.2634  0.0974
   50HK4    C11 4151   8.098   0.427   0.529  0.7914 -0.0932 -0.2685
   50HK4     H4 4152   8.088   0.398   0.635 -1.5714  3.7321  0.6661
   50HK4    C12 4153   8.163   0.548   0.503  0.0906  0.2697 -0.3360
   50HK4     H5 4154   8.237   0.580   0.577 -0.9703 -0.4291  1.0507
   50HK4    C13 4155   8.155   0.613   0.381 -0.0420 -0.0181 -0.4810
   50HK4     H6 4156   8.193   0.713   0.355 -0.1794  0.0908 -0.2672
   50HK4     C7 4157   7.937   0.252   0.462  0.0002  0.1378 -0.4197
   50HK4     O2 4158   7.973   0.174   0.550 -0.3221  0.3828 -0.0698
   50HK4     C4 4159   7.835   0.205   0.365  0.1634 -0.5285 -0.2747
   50HK4     C3 4160   7.751   0.100   0.401 -0.0931 -0.2824 -0.1530
   50HK4     H3 4161   7.759   0.049   0.499 -1.1068 -0.9120 -0.3973
   50HK4     C2 4162   7.665   0.045   0.308 -0.0604 -0.6746  0.0470
   50HK4     H2 4163   7.599  11.206   0.327 -0.4729 -0.0662  1.4267
   50HK4     C1 4164   7.662   0.106   0.183  0.0305  0.2248  0.4800
   50HK4     H1 4165   7.581   0.081   0.113 -0.3029 -0.0209  0.9515
   50HK4     C6 4166   7.745   0.213   0.144  0.1020 -0.1821 -0.5069
   50HK4     C5 4167   7.843   0.257   0.234 -0.5562  0.2701 -0.0093
   50HK4    C10 4168   7.945   0.358   0.197  0.0963 -0.1252  0.6969
   50HK4     O1 4169   7.999   0.346   0.087 -0.1458  0.2277  0.5403
   50HK4    C16 4170   7.678   0.301   0.047  0.1940  0.5300  0.0792
   50HK4    C15 4171   7.540   0.324   0.061  0.0665 -0.1848  0.0006
   50HK4     H7 4172   7.486   0.299   0.154 -1.1942 -0.8987 -0.9163
   50HK4    C20 4173   7.462   0.369  11.203 -0.1148 -0.2594  0.1035
   50HK4     H9 4174   7.359   0.397  11.226 -0.2185 -2.0650  2.0903
   50HK4    C19 4175   7.522   0.402  11.083  0.2684 -0.3604  0.2662
   50HK4    C18 4176   7.664   0.378  11.066  0.3676  0.1375  0.3772
   50HK4    C17 4177   7.737   0.325  11.172  0.4152 -0.6385 -0.0413
   50HK4     H8 4178   7.826   0.265  11.149  0.2050 -2.9922  4.7350
   50HK4     N1 4179   7.708   0.437  10.946 -0.0759 -0.1566  0.0688
   50HK4    C21 4180   7.598   0.506  10.892 -0.0986  0.0187  0.3372
   50HK4    C22 4181   7.481   0.492  10.977 -0.1959 -0.7893  0.0785
   50HK4    C26 4182   7.375   0.580  10.958  0.1587 -0.3776 -0.0060
   50HK4    H13 4183   7.282   0.574  11.015 -0.8510 -1.5289 -1.6997
   50HK4    C25 4184   7.384   0.675  10.857 -0.0809 -0.3225  0.0253
   50HK4    H12 4185   7.295   0.728  10.824  0.2041 -0.1021 -0.3936
   50HK4    C24 4186   7.491   0.688  10.769 -0.2176 -0.2148 -0.1295
   50HK4    H11 4187   7.494   0.756  10.683  0.7715 -0.3771 -0.2268
   50HK4    C23 4188   7.595   0.597  10.787 -0.1947 -0.1202  0.2167
   50HK4    H10 4189   7.674   0.592  10.713 -1.3889  1.0472 -1.1637
   50HK4    C39 4190   7.842   0.447  10.906 -0.1320  0.3819  0.0116
   50HK4    C41 4191   7.951   0.458  10.995  0.2670 -0.0729 -0.4102
   50HK4    H21 4192   7.937   0.492  11.099  1.7392  1.7599 -0.7778
   50HK4    C42 4193   8.079   0.423  10.955  0.4158 -0.1219  0.1030
   50HK4    H22 4194   8.166   0.420  11.022  1.8962 -0.1413 -1.7698
   50HK4    C43 4195   8.105   0.379  10.825  0.2435  0.0092  0.0242
   50HK4    H23 4196   8.208   0.362  10.797 -0.1498 -2.0848 -0.2180
   50HK4    C44 4197   8.000   0.368  10.735 -0.0555  0.9238  0.2461
   50HK4    H24 4198   8.021   0.329  10.634 -1.2109 -0.2162  0.4424
   50HK4    C45 4199   7.871   0.399  10.777 -0.2593  0.5110 -0.0633
   50HK4    H25 4200   7.792   0.402  10.701  0.6791  0.4852 -1.0575
   51HK4    H28 4201   5.729   5.000  10.057  0.8370 -0.7102 -0.3277
   51HK4    C48 4202   5.787   5.063  10.124 -0.1044 -0.2748  0.0982
   51HK4    C47 4203   5.889   5.004  10.198  0.0755 -0.2404 -0.1234
   51HK4    H27 4204   5.872   4.899  10.223 -1.7929  0.8384  3.4445
   51HK4    C46 4205   5.982   5.087  10.261 -0.2011  0.0837 -0.1370
   51HK4    H26 4206   6.053   5.029  10.322 -0.6508 -0.0516  0.2667
   51HK4    C40 4207   5.983   5.227  10.250  0.0662  0.1219  0.3249
   51HK4    C50 4208   5.877   5.285  10.176  0.1473 -0.0541  0.0740
   51HK4    H30 4209   5.848   5.390  10.167 -0.5545 -0.0906  1.7025
   51HK4    C49 4210   5.785   5.201  10.113  0.4069 -0.2752 -0.0104
   51HK4    H29 4211   5.703   5.244  10.054 -0.5516 -0.2541  1.3022
   51HK4     N2 4212   6.064   5.298  10.339 -0.0916  0.1695  0.4298
   51HK4    C30 4213   6.120   5.259  10.463  0.4240 -0.1396  0.1001
   51HK4    C29 4214   6.106   5.143  10.537 -0.5834  0.3082  0.6148
   51HK4    H15 4215   6.011   5.091  10.523 -0.6568  0.6757 -0.2825
   51HK4    C28 4216   6.203   5.102  10.628 -0.0327 -0.0208 -0.1149
   51HK4    C27 4217   6.317   5.183  10.650  0.2933 -0.4853 -0.0874
   51HK4    H14 4218   6.401   5.131  10.699 -0.9701 -1.4130  1.1438
   51HK4    C32 4219   6.326   5.308  10.591  0.2151 -0.4059  0.0664
   51HK4    H16 4220   6.418   5.364  10.607 -0.5852  1.2206 -0.8394
   51HK4    C31 4221   6.229   5.348  10.499  0.1236  0.1119  0.3870
   51HK4    C34 4222   6.220   5.453  10.400 -0.2066 -0.2891 -0.0079
   51HK4    C33 4223   6.121   5.420  10.299  0.0409 -0.1304 -0.3073
   51HK4    C35 4224   6.069   5.525  10.224  1.1526  0.4004 -0.3345
   51HK4    H17 4225   6.007   5.511  10.135  2.6108 -4.2300 -0.7960
   51HK4    C36 4226   6.097   5.657  10.256 -0.0073  0.4999  0.2779
   51HK4    H18 4227   6.045   5.733  10.195 -0.1486  1.9639  2.1988
   51HK4    C37 4228   6.196   5.688  10.349 -0.0680  0.1786  0.4500
   51HK4    H19 4229   6.215   5.793  10.372 -0.7112  0.0840  1.4334
   51HK4    C38 4230   6.265   5.585  10.411 -0.5269 -0.2077  0.3138
   51HK4    H20 4231   6.338   5.611  10.487 -0.6223  1.4604 -0.1545
   51HK4    C14 4232   6.170   4.982  10.705  0.6095 -0.2400 -0.1830
   51HK4     C9 4233   6.220   4.953  10.833 -0.0472  0.2724  0.1869
   51HK4     C8 4234   6.203   4.825  10.889 -0.3429  0.3275  0.2243
   51HK4    C11 4235   6.134   4.727  10.818  0.0545  0.0538  0.2098
   51HK4     H4 4236   6.101   4.636  10.871 -0.6387 -0.6209 -1.3680
   51HK4    C12 4237   6.075   4.753  10.695  0.0086  0.3270  0.2904
   51HK4     H5 4238   6.006   4.681  10.650 -2.2394  2.4242  0.2582
   51HK4    C13 4239   6.095   4.880  10.643  0.0066  0.1618 -0.1134
   51HK4     H6 4240   6.074   4.877  10.535  0.8526 -0.6579 -0.2524
   51HK4     C7 4241   6.279   4.784  11.009  0.3320  0.0175 -0.3042
   51HK4     O2 4242   6.235   4.696  11.083  0.3172  0.1956 -0.0996
   51HK4     C4 4243   6.386   4.874  11.059  0.1190 -0.2118  0.5830
   51HK4     C3 4244   6.468   4.819  11.157 -0.4982 -0.4021  0.9943
   51HK4     H3 4245   6.452   4.721  11.203 -0.2101 -0.8981  0.0606
   51HK4     C2 4246   6.577   4.892  11.204 -0.4262  0.0038  0.2184
   51HK4     H2 4247   6.643   4.851   0.034  1.2114  2.9045  0.4217
   51HK4     C1 4248   6.590   5.023  11.161 -0.1682  0.1031  0.5932
   51HK4     H1 4249   6.676   5.078  11.201 -1.0626  0.9842  1.3285
   51HK4     C6 4250   6.505   5.083  11.065  0.1297  0.0337  0.2828
   51HK4     C5 4251   6.401   5.006  11.011  0.6855 -0.4975 -0.0400
   51HK4    C10 4252   6.300   5.051  10.911  0.2714 -0.2292  0.4938
   51HK4     O1 4253   6.246   5.154  10.952 -0.6502 -0.4903 -0.0649
   51HK4    C16 4254   6.570   5.189  10.987  0.2987  0.1675  0.6085
   51HK4    C15 4255   6.710   5.196  10.973  0.2259 -0.1410 -0.2710
   51HK4     H7 4256   6.767   5.102  10.980  0.7820  0.2700  0.8291
   51HK4    C20 4257   6.778   5.315  10.950  0.1388  0.0443  0.4244
   51HK4     H9 4258   6.885   5.326  10.934 -0.0814  0.8763 -0.4648
   51HK4    C19 4259   6.701   5.430  10.939  0.3099  0.1047 -0.1778
   51HK4    C18 4260   6.558   5.431  10.967  0.2437  0.5711 -0.5333
   51HK4    C17 4261   6.497   5.308  10.986  0.6836  0.4002 -0.2188
   51HK4     H8 4262   6.391   5.309  11.013  0.7686 -0.1352  0.1457
   51HK4     N1 4263   6.500   5.558  10.951 -0.1537  0.4524 -0.0397
   51HK4    C21 4264   6.602   5.637  10.892 -0.1273  0.2639 -0.2439
   51HK4    C22 4265   6.728   5.566  10.896 -0.1539  0.2229 -0.1020
   51HK4    C26 4266   6.843   5.616  10.836  0.1617 -0.2132  0.1350
   51HK4    H13 4267   6.929   5.550  10.837 -0.0119 -0.4364  0.1933
   51HK4    C25 4268   6.835   5.732  10.760 -0.0363 -0.2936  0.0312
   51HK4    H12 4269   6.905   5.755  10.680  0.0772  3.1756  1.0278
   51HK4    C24 4270   6.713   5.798  10.753 -0.0370 -0.3409 -0.3992
   51HK4    H11 4271   6.696   5.876  10.678  1.2410  0.5077  0.1789
   51HK4    C23 4272   6.597   5.753  10.816 -0.0432  0.6199  0.2867
   51HK4    H10 4273   6.513   5.818  10.837  0.0395  0.3614  1.4349
   51HK4    C39 4274   6.400   5.616  11.031 -0.6274 -0.6919  0.2001
   51HK4    C41 4275   6.320   5.717  10.975  0.4979 -0.0862 -0.3349
   51HK4    H21 4276   6.298   5.710  10.867 -0.0656  1.3706 -0.3244
   51HK4    C42 4277   6.253   5.809  11.054  0.3785 -0.1937 -0.3072
   51HK4    H22 4278   6.185   5.879  11.003 -1.7767 -1.2125  1.0804
   51HK4    C43 4279   6.265   5.801  11.192 -0.0733 -0.1646 -0.2653
   51HK4    H23 4280   6.251   5.886   0.012  2.1974 -1.6067  2.1055
   51HK4    C44 4281   6.340   5.699   0.002 -0.0838 -0.1269 -0.1861
   51HK4    H24 4282   6.326   5.672   0.108  0.0469  1.0945  0.1467
   51HK4    C45 4283   6.414   5.612  11.171  0.0180 -0.3441  0.1484
   51HK4    H25 4284   6.466   5.527  11.217 -0.4935 -0.1207  1.1537
   52HK4    H28 4285   4.293   9.787   5.769 -0.6919 -0.3617  0.8752
   52HK4    C48 4286   4.302   9.692   5.718 -0.3232  0.0985  0.0752
   52HK4    C47 4287   4.296   9.694   5.579  0.2341  0.2525  0.0502
   52HK4    H27 4288   4.287   9.796   5.540 -0.3485  1.0425  2.1965
   52HK4    C46 4289   4.277   9.578   5.504  0.5840  0.2637 -0.0546
   52HK4    H26 4290   4.256   9.591   5.396 -0.1782 -0.0062  0.0628
   52HK4    C40 4291   4.269   9.454   5.570  0.0899  0.1772 -0.2716
   52HK4    C50 4292   4.279   9.453   5.711  0.1436  0.1588 -0.2756
   52HK4    H30 4293   4.303   9.357   5.758  1.3250  0.1688 -0.8345
   52HK4    C49 4294   4.295   9.570   5.785 -0.1035  0.0331 -0.0222
   52HK4    H29 4295   4.342   9.557   5.883  3.9021 -0.2888 -1.8687
   52HK4     N2 4296   4.281   9.337   5.495  0.6714 -0.0755  0.2124
   52HK4    C30 4297   4.335   9.325   5.365  0.1088  0.0366 -0.0331
   52HK4    C29 4298   4.413   9.408   5.286 -0.2505  0.4329  0.0257
   52HK4    H15 4299   4.460   9.493   5.336  0.2710  0.4331 -0.4565
   52HK4    C28 4300   4.465   9.378   5.160 -0.3045  0.4941 -0.0113
   52HK4    C27 4301   4.443   9.245   5.119  0.1326  0.2501  0.5463
   52HK4    H14 4302   4.498   9.205   5.033  3.7925  0.6220  2.6193
   52HK4    C32 4303   4.369   9.152   5.192  0.3431  0.0016  0.4482
   52HK4    H16 4304   4.378   9.047   5.165 -0.6423  0.3293 -1.2268
   52HK4    C31 4305   4.308   9.193   5.310 -0.2945  0.0656  0.0950
   52HK4    C34 4306   4.239   9.122   5.416 -0.2070  0.3958  0.3702
   52HK4    C33 4307   4.223   9.213   5.528  0.0964  0.2691  0.5137
   52HK4    C35 4308   4.143   9.171   5.633  0.0835 -0.0210  0.3869
   52HK4    H17 4309   4.132   9.235   5.720  0.6474 -0.3915  0.7370
   52HK4    C36 4310   4.072   9.052   5.623 -0.2863  0.2313 -0.0022
   52HK4    H18 4311   3.992   9.029   5.696 -2.2233 -1.9705 -2.7090
   52HK4    C37 4312   4.094   8.960   5.521  0.3479  0.4363 -0.0526
   52HK4    H19 4313   4.025   8.876   5.512  0.2689  0.3077  1.6024
   52HK4    C38 4314   4.183   8.995   5.421 -0.1066  0.3097 -0.5053
   52HK4    H20 4315   4.224   8.917   5.357 -2.7839 -2.6167  1.2277
   52HK4    C14 4316   4.535   9.473   5.074 -0.0839  0.4753  0.1489
   52HK4     C9 4317   4.541   9.453   4.935 -0.1482 -0.5607  0.2927
   52HK4     C8 4318   4.665   9.473   4.871 -0.5952  0.6866 -0.1808
   52HK4    C11 4319   4.761   9.550   4.938  0.1967 -0.0238 -0.4947
   52HK4     H4 4320   4.862   9.554   4.893  0.2951  1.4617 -0.1430
   52HK4    C12 4321   4.750   9.594   5.069  0.2304 -0.5360 -0.3177
   52HK4     H5 4322   4.825   9.668   5.099 -1.8536  1.5152 -0.0365
   52HK4    C13 4323   4.639   9.545   5.137  0.1826  0.1423  0.0944
   52HK4     H6 4324   4.630   9.558   5.246  2.2662 -0.3036  0.3438
   52HK4     C7 4325   4.690   9.437   4.730  0.3115  0.4370  0.0362
   52HK4     O2 4326   4.806   9.416   4.695  0.1519 -0.1183 -0.1684
   52HK4     C4 4327   4.574   9.395   4.648  0.3335 -0.2199  0.3405
   52HK4     C3 4328   4.601   9.367   4.514 -0.3430 -0.3113  0.2230
   52HK4     H3 4329   4.704   9.372   4.476  0.3618 -0.9142  2.0023
   52HK4     C2 4330   4.493   9.334   4.433 -0.1801 -0.4731  0.0708
   52HK4     H2 4331   4.525   9.282   4.341 -0.6065  3.2144 -2.2513
   52HK4     C1 4332   4.364   9.337   4.484 -0.2235 -0.0585 -0.0615
   52HK4     H1 4333   4.282   9.362   4.415 -0.6880 -1.2344  0.0425
   52HK4     C6 4334   4.336   9.361   4.620  0.0706  0.3466 -0.0721
   52HK4     C5 4335   4.444   9.396   4.702  0.2613 -0.8157  0.1949
   52HK4    C10 4336   4.425   9.442   4.842  0.1784  0.5435 -0.2491
   52HK4     O1 4337   4.332   9.518   4.866 -0.4201  0.0020 -0.8542
   52HK4    C16 4338   4.208   9.301   4.662  0.1580 -0.0177 -0.3261
   52HK4    C15 4339   4.153   9.305   4.792  0.2107 -0.0517 -0.3027
   52HK4     H7 4340   4.220   9.302   4.879 -1.6272  0.6985  1.1682
   52HK4    C20 4341   4.026   9.257   4.821 -0.0846  0.8284 -0.1251
   52HK4     H9 4342   3.983   9.256   4.921 -2.5380  0.3732 -1.1398
   52HK4    C19 4343   3.946   9.206   4.719  0.3271 -0.1929  0.0563
   52HK4    C18 4344   3.996   9.198   4.584 -0.2387  0.4763 -0.1939
   52HK4    C17 4345   4.128   9.237   4.567 -0.2361  0.4268 -0.2922
   52HK4     H8 4346   4.189   9.177   4.500  0.1515 -0.2905  0.6803
   52HK4     N1 4347   3.913   9.130   4.492  0.0774 -0.2222  0.0332
   52HK4    C21 4348   3.811   9.087   4.579 -0.2008  0.4256  0.0340
   52HK4    C22 4349   3.818   9.137   4.715  0.0508  0.3199  0.0614
   52HK4    C26 4350   3.709   9.128   4.801  0.1480  0.0700  0.1571
   52HK4    H13 4351   3.695   9.201   4.881 -1.8613 -1.0713  0.8835
   52HK4    C25 4352   3.599   9.053   4.760  0.1940  0.3556 -0.4886
   52HK4    H12 4353   3.519   9.036   4.831  1.1612 -0.8758  0.3363
   52HK4    C24 4354   3.592   8.995   4.634 -0.7097 -0.6666  0.0308
   52HK4    H11 4355   3.499   8.944   4.606 -0.4189 -1.6402  0.7978
   52HK4    C23 4356   3.698   9.013   4.547  0.1668 -0.6184  1.0956
   52HK4    H10 4357   3.690   8.950   4.458  2.2134  0.2460  0.2565
   52HK4    C39 4358   3.890   9.158   4.357 -0.1192  0.2369  0.1582
   52HK4    C41 4359   3.853   9.051   4.273 -0.6213 -0.0655  0.7612
   52HK4    H21 4360   3.852   8.947   4.309  3.4657 -0.4781 -0.0516
   52HK4    C42 4361   3.849   9.077   4.136  0.9892 -0.1358  0.6845
   52HK4    H22 4362   3.820   9.003   4.060  0.7115  0.4753  0.1905
   52HK4    C43 4363   3.866   9.204   4.084  0.2876 -0.1655  0.3661
   52HK4    H23 4364   3.858   9.215   3.976  0.2357 -1.2337  0.2562
   52HK4    C44 4365   3.897   9.311   4.169  0.6088  0.1578 -0.1554
   52HK4    H24 4366   3.932   9.406   4.126  0.4033  0.7162  0.9103
   52HK4    C45 4367   3.903   9.289   4.306  0.1224  0.0966 -0.1401
   52HK4    H25 4368   3.880   9.371   4.375 -1.4199  0.6291 -1.2686
   53HK4    H28 4369   9.215   0.019   6.948  0.6335 -0.4875  2.1423
   53HK4    C48 4370   9.155   0.101   6.989 -0.0735 -0.0648  0.3045
   53HK4    C47 4371   9.198   0.154   7.109  0.2281 -0.3140  0.3081
   53HK4    H27 4372   9.294   0.125   7.154  0.3308 -0.5057 -0.0351
   53HK4    C46 4373   9.110   0.232   7.184  0.1399  0.0042 -0.1236
   53HK4    H26 4374   9.137   0.244   7.290  2.2776 -0.8554 -0.5405
   53HK4    C40 4375   8.979   0.262   7.141  0.0334 -0.2464  0.0261
   53HK4    C50 4376   8.941   0.205   7.018 -0.1926  0.1749 -0.0977
   53HK4    H30 4377   8.837   0.218   6.984  0.5862  0.5877 -2.4180
   53HK4    C49 4378   9.025   0.123   6.944  0.1231  0.4331 -0.0254
   53HK4    H29 4379   8.996   0.082   6.846  3.8562 -3.2254  0.2566
   53HK4     N2 4380   8.899   0.355   7.208 -0.1130 -0.5236  0.2376
   53HK4    C30 4381   8.758   0.358   7.212 -0.1239  0.2816 -0.5054
   53HK4    C29 4382   8.659   0.270   7.169  0.1209 -0.2847  0.0736
   53HK4    H15 4383   8.694   0.175   7.130  2.2170  0.3953  0.2406
   53HK4    C28 4384   8.522   0.294   7.176  0.2015  0.1355  0.2798
   53HK4    C27 4385   8.493   0.421   7.230  0.1961 -0.0157  0.6314
   53HK4    H14 4386   8.386   0.446   7.233  0.4075  0.7769  4.8328
   53HK4    C32 4387   8.580   0.516   7.283  0.1097  0.4380 -0.0306
   53HK4    H16 4388   8.550   0.615   7.317 -1.4083  0.2008 -0.6408
   53HK4    C31 4389   8.713   0.478   7.280  0.1385  0.6209 -0.9291
   53HK4    C34 4390   8.833   0.545   7.328  0.0542  0.2677 -0.2176
   53HK4    C33 4391   8.945   0.471   7.273 -0.1881 -0.6286  0.4769
   53HK4    C35 4392   9.072   0.516   7.309  0.0768 -0.3585 -0.7714
   53HK4    H17 4393   9.149   0.493   7.236  1.8343  1.9017  0.3351
   53HK4    C36 4394   9.098   0.612   7.406 -0.5370 -0.3586 -0.6016
   53HK4    H18 4395   9.196   0.662   7.416 -1.8135  1.9470  0.6769
   53HK4    C37 4396   8.989   0.671   7.469 -0.1972 -0.1130 -0.2429
   53HK4    H19 4397   9.006   0.762   7.526  2.3562 -1.5153  1.3822
   53HK4    C38 4398   8.861   0.634   7.430 -0.3574  0.4921 -0.3003
   53HK4    H20 4399   8.780   0.663   7.498 -2.4870 -1.2179 -2.0363
   53HK4    C14 4400   8.421   0.197   7.130  0.0431  0.4747 -0.0946
   53HK4     C9 4401   8.289   0.234   7.103 -0.0896  0.8488  1.0286
   53HK4     C8 4402   8.184   0.175   7.177  0.4141  0.4050  1.3935
   53HK4    C11 4403   8.215   0.069   7.261  0.1245 -0.3798  0.5153
   53HK4     H4 4404   8.136   0.035   7.330  0.0051 -1.9830 -0.3878
   53HK4    C12 4405   8.342   0.015   7.274  0.0788 -0.6085  0.0183
   53HK4     H5 4406   8.353  11.166   7.323  0.7350 -1.8360 -2.4685
   53HK4    C13 4407   8.445   0.082   7.208 -0.6824  0.0258 -0.5348
   53HK4     H6 4408   8.546   0.039   7.213 -0.7510  0.0435  1.5095
   53HK4     C7 4409   8.052   0.242   7.175 -0.1516 -0.7202 -0.2761
   53HK4     O2 4410   7.968   0.211   7.260 -0.2880  0.1685 -0.0797
   53HK4     C4 4411   8.034   0.358   7.085  0.6773 -0.0038  0.4690
   53HK4     C3 4412   7.921   0.438   7.096  0.0742 -0.7610 -0.2102
   53HK4     H3 4413   7.857   0.435   7.185  1.3385 -3.1181  0.6578
   53HK4     C2 4414   7.878   0.519   6.990  0.2664 -0.1694  0.1595
   53HK4     H2 4415   7.775   0.553   6.978  0.0992 -1.7155 -3.3332
   53HK4     C1 4416   7.954   0.511   6.874  0.1816  0.1110  0.0869
   53HK4     H1 4417   7.941   0.592   6.800 -0.0798 -0.2134 -0.2245
   53HK4     C6 4418   8.063   0.426   6.848  0.2853  0.1822  0.2955
   53HK4     C5 4419   8.108   0.365   6.966  0.3297  0.1410  0.2598
   53HK4    C10 4420   8.249   0.324   6.991  0.2715 -0.1741  0.0702
   53HK4     O1 4421   8.339   0.389   6.939  0.8312 -0.4133  0.7222
   53HK4    C16 4422   8.109   0.376   6.717 -0.0570  0.2858  0.1352
   53HK4    C15 4423   8.065   0.444   6.602 -0.7408 -0.4226 -0.0259
   53HK4     H7 4424   8.014   0.540   6.619 -1.4830 -0.9437  0.7138
   53HK4    C20 4425   8.085   0.385   6.478  0.3101 -0.1703  0.0152
   53HK4     H9 4426   8.060   0.449   6.393  3.2097 -1.1350 -1.6203
   53HK4    C19 4427   8.154   0.266   6.457 -0.1499 -0.3903 -0.2745
   53HK4    C18 4428   8.185   0.191   6.577  0.3122  0.3268  0.0604
   53HK4    C17 4429   8.164   0.249   6.701 -0.2207  0.2314  0.0139
   53HK4     H8 4430   8.166   0.189   6.792 -1.6141  1.0071  0.5924
   53HK4     N1 4431   8.266   0.081   6.538  0.6522  0.6107 -0.0406
   53HK4    C21 4432   8.280   0.086   6.398 -0.0309 -0.2041 -0.1441
   53HK4    C22 4433   8.213   0.201   6.342  0.7625  0.2492 -0.1734
   53HK4    C26 4434   8.203   0.213   6.204 -0.1334 -0.0749 -0.1409
   53HK4    H13 4435   8.170   0.306   6.156 -1.2289 -1.6763 -2.6110
   53HK4    C25 4436   8.262   0.118   6.121  0.2002 -0.1732  0.2082
   53HK4    H12 4437   8.254   0.129   6.013  0.8238  3.9930  0.4795
   53HK4    C24 4438   8.320   0.004   6.174  0.5525 -0.1007 -0.0153
   53HK4    H11 4439   8.363  11.180   6.102  0.2026 -0.1732 -0.1568
   53HK4    C23 4440   8.330  11.237   6.312  0.7994  0.0981 -0.0131
   53HK4    H10 4441   8.360  11.142   6.355 -2.0873 -0.1747  1.5419
   53HK4    C39 4442   8.365   0.034   6.625 -0.4345 -0.2741  0.7382
   53HK4    C41 4443   8.401  11.146   6.632 -0.4408 -0.3041  0.1605
   53HK4    H21 4444   8.339  11.066   6.588  2.0897 -1.8101 -0.7605
   53HK4    C42 4445   8.499  11.094   6.714 -0.3612 -0.2935  0.0709
   53HK4    H22 4446   8.534  10.989   6.711  0.0918 -0.1813  0.9312
   53HK4    C43 4447   8.572  11.182   6.793 -0.6141 -0.3970  0.4217
   53HK4    H23 4448   8.651  11.146   6.858 -1.8334 -1.1651  1.4812
   53HK4    C44 4449   8.537   0.069   6.797  0.3145 -0.1233 -0.3307
   53HK4    H24 4450   8.590   0.128   6.872 -0.8490  1.6891 -0.8999
   53HK4    C45 4451   8.436   0.117   6.714  0.2796  0.0838 -0.1694
   53HK4    H25 4452   8.427   0.225   6.694 -0.9581  0.2446  1.2313
   54HK4    H28 4453   5.762   7.946   7.028  0.1086  0.0120 -0.7945
   54HK4    C48 4454   5.728   8.041   6.988 -0.2106  0.2466  0.0193
   54HK4    C47 4455   5.764   8.074   6.858 -0.6052  0.1332 -0.1177
   54HK4    H27 4456   5.829   8.005   6.801 -2.0690 -1.4457  0.0769
   54HK4    C46 4457   5.732   8.198   6.804 -0.2446  0.2717 -0.0090
   54HK4    H26 4458   5.760   8.223   6.700 -1.4394  1.1814 -0.1145
   54HK4    C40 4459   5.657   8.293   6.876  0.2619  0.0632  0.7987
   54HK4    C50 4460   5.610   8.252   7.002 -0.6795 -0.0203  0.4273
   54HK4    H30 4461   5.549   8.325   7.056 -1.7035 -0.2072 -0.4728
   54HK4    C49 4462   5.658   8.135   7.062  0.2569  0.3257  0.3658
   54HK4    H29 4463   5.624   8.113   7.164  0.7449  0.1079  0.4820
   54HK4     N2 4464   5.646   8.426   6.836 -0.1594 -0.2020  0.0234
   54HK4    C30 4465   5.741   8.489   6.753 -0.1796  0.0846  0.2173
   54HK4    C29 4466   5.878   8.469   6.745 -0.0508  0.7713  0.6116
   54HK4    H15 4467   5.915   8.377   6.791  1.5579  1.4736  0.7267
   54HK4    C28 4468   5.960   8.545   6.663 -0.3002  0.3646 -0.0220
   54HK4    C27 4469   5.896   8.637   6.578 -0.0031  0.2894 -0.3303
   54HK4    H14 4470   5.955   8.690   6.502 -2.6867  0.8646 -2.0605
   54HK4    C32 4471   5.758   8.657   6.584  0.0139  0.4686 -0.5113
   54HK4    H16 4472   5.711   8.744   6.540 -0.7083 -0.1522 -0.9648
   54HK4    C31 4473   5.677   8.596   6.679  0.4133 -0.0470 -0.4908
   54HK4    C34 4474   5.535   8.587   6.711  0.4910  0.0462 -0.1251
   54HK4    C33 4475   5.520   8.486   6.814  0.0592  0.2561  0.0178
   54HK4    C35 4476   5.396   8.462   6.872  0.0676  0.1038 -0.0306
   54HK4    H17 4477   5.380   8.376   6.937  2.3047 -0.8330 -0.6768
   54HK4    C36 4478   5.287   8.539   6.832  0.0133  0.1046  0.1181
   54HK4    H18 4479   5.196   8.533   6.892  0.0384  0.7177  0.2227
   54HK4    C37 4480   5.295   8.628   6.725  0.4234 -0.6175 -0.4654
   54HK4    H19 4481   5.206   8.673   6.681  0.5274  0.8662  0.7793
   54HK4    C38 4482   5.421   8.656   6.673  0.3926 -0.2348 -0.3375
   54HK4    H20 4483   5.429   8.740   6.604  1.5422 -0.4752 -0.5097
   54HK4    C14 4484   6.107   8.542   6.671 -0.2558  0.1226 -0.8880
   54HK4     C9 4485   6.194   8.643   6.629 -0.8651  0.4772 -1.2998
   54HK4     C8 4486   6.314   8.618   6.560 -0.2270  0.2153 -0.1068
   54HK4    C11 4487   6.365   8.489   6.553 -0.2682  0.2103 -0.3593
   54HK4     H4 4488   6.473   8.478   6.538 -0.4799 -1.6552 -0.5812
   54HK4    C12 4489   6.289   8.385   6.605  0.5935 -0.1396  0.2213
   54HK4     H5 4490   6.324   8.281   6.602 -1.6666 -0.9360 -0.1794
   54HK4    C13 4491   6.168   8.415   6.668  0.6493  0.5316  0.0196
   54HK4     H6 4492   6.115   8.333   6.719 -1.4161  1.6060 -0.3922
   54HK4     C7 4493   6.399   8.723   6.498 -0.0420  0.2942  0.2786
   54HK4     O2 4494   6.446   8.715   6.384 -0.2070 -0.0319  0.2327
   54HK4     C4 4495   6.379   8.859   6.552  0.2689  0.1763  0.7020
   54HK4     C3 4496   6.444   8.972   6.504  0.0933 -0.0226 -0.0041
   54HK4     H3 4497   6.495   8.961   6.406 -0.6457 -0.0211 -0.3893
   54HK4     C2 4498   6.455   9.090   6.576  1.3131 -0.2455  0.1995
   54HK4     H2 4499   6.517   9.176   6.547 -0.5803  1.2291  0.3958
   54HK4     C1 4500   6.400   9.086   6.704 -0.1889 -0.2182 -0.4299
   54HK4     H1 4501   6.436   9.172   6.762  2.4999 -2.5297  1.4513
   54HK4     C6 4502   6.338   8.974   6.763 -0.4110  0.4048  0.5293
   54HK4     C5 4503   6.310   8.870   6.674 -0.4038  0.6106  0.2866
   54HK4    C10 4504   6.197   8.775   6.698 -0.0443  0.0003 -0.4030
   54HK4     O1 4505   6.099   8.820   6.758  0.1128 -0.0348 -0.1209
   54HK4    C16 4506   6.337   8.965   6.909 -0.0862  0.4154  0.5299
   54HK4    C15 4507   6.353   9.079   6.991  0.0347  0.5347  0.3406
   54HK4     H7 4508   6.314   9.176   6.958  0.9138  1.5258  2.0791
   54HK4    C20 4509   6.380   9.064   7.127  0.4139  0.3181  0.2447
   54HK4     H9 4510   6.406   9.150   7.189 -1.5039 -0.1015  1.6907
   54HK4    C19 4511   6.382   8.942   7.193 -0.6910 -0.0975 -0.4616
   54HK4    C18 4512   6.377   8.823   7.110  0.1933 -0.3802 -0.1194
   54HK4    C17 4513   6.352   8.844   6.975  0.1844  0.1399 -0.0382
   54HK4     H8 4514   6.339   8.756   6.912  2.0918  0.1391 -0.4672
   54HK4     N1 4515   6.369   8.708   7.191  0.1168 -0.1917  0.1428
   54HK4    C21 4516   6.382   8.750   7.325  0.5141  0.0402  0.0320
   54HK4    C22 4517   6.378   8.895   7.331  0.2820  0.0523 -0.3728
   54HK4    C26 4518   6.406   8.955   7.453  1.1569  0.1188 -0.6092
   54HK4    H13 4519   6.398   9.064   7.459  0.7042  0.0352  0.3053
   54HK4    C25 4520   6.426   8.875   7.564  0.5153 -0.2501 -0.7598
   54HK4    H12 4521   6.483   8.916   7.647  2.9851 -0.1002 -2.4618
   54HK4    C24 4522   6.421   8.736   7.561  0.1341 -0.2549 -0.1137
   54HK4    H11 4523   6.445   8.685   7.655 -0.0982  0.7699  0.5106
   54HK4    C23 4524   6.393   8.673   7.440  0.3705 -0.2670 -0.1615
   54HK4    H10 4525   6.414   8.567   7.433  0.2817 -0.4387  1.9319
   54HK4    C39 4526   6.311   8.591   7.140 -0.3065  0.0364  0.1002
   54HK4    C41 4527   6.350   8.469   7.200 -0.3530 -0.0298 -0.0000
   54HK4    H21 4528   6.457   8.449   7.215 -0.3984 -0.9029 -0.7878
   54HK4    C42 4529   6.268   8.357   7.191 -0.1691 -0.1820  0.2131
   54HK4    H22 4530   6.298   8.265   7.243  1.7773  0.1052 -0.3535
   54HK4    C43 4531   6.160   8.355   7.104  0.1478  0.4853 -0.1978
   54HK4    H23 4532   6.117   8.259   7.075  1.2742 -0.3156  0.7478
   54HK4    C44 4533   6.128   8.471   7.034  0.0639  0.4099 -0.2837
   54HK4    H24 4534   6.059   8.477   6.948  0.2562 -0.3963 -0.4895
   54HK4    C45 4535   6.205   8.586   7.049 -0.2928  0.6068  0.0523
   54HK4    H25 4536   6.163   8.685   7.023 -2.9322 -0.1684  1.1566
   55HK4    H28 4537   0.573   0.785   1.405  3.0613  0.8967  0.2475
   55HK4    C48 4538   0.531   0.868   1.462  0.0151 -0.4194  0.0099
   55HK4    C47 4539   0.566   1.001   1.442 -0.3668 -0.2913  0.1785
   55HK4    H27 4540   0.651   1.023   1.374 -2.1922  0.1781 -2.0109
   55HK4    C46 4541   0.496   1.101   1.507 -0.6176 -0.2139 -0.2097
   55HK4    H26 4542   0.502   1.198   1.454 -1.5124  0.1790  0.3944
   55HK4    C40 4543   0.379   1.083   1.584 -0.2522  0.1317  0.4336
   55HK4    C50 4544   0.347   0.947   1.599  0.1798  0.0217  0.3545
   55HK4    H30 4545   0.263   0.919   1.665  0.0597  3.9230  1.9401
   55HK4    C49 4546   0.423   0.843   1.546  0.1595  0.0186  0.3315
   55HK4    H29 4547   0.397   0.743   1.584 -1.8063  0.0655 -0.7862
   55HK4     N2 4548   0.335   1.181   1.674 -0.3617  0.6170 -0.1443
   55HK4    C30 4549   0.410   1.285   1.732 -0.1048 -0.0206  0.6671
   55HK4    C29 4550   0.548   1.306   1.728 -0.1095 -0.0777  0.1731
   55HK4    H15 4551   0.610   1.273   1.645 -1.0085 -0.0373 -0.5280
   55HK4    C28 4552   0.604   1.390   1.823  0.4499 -0.2943  0.0359
   55HK4    C27 4553   0.526   1.464   1.915  0.1285 -0.0503 -0.4320
   55HK4    H14 4554   0.568   1.540   1.983 -1.9276 -0.6908  1.6153
   55HK4    C32 4555   0.388   1.451   1.906  0.1235 -0.4165  0.1435
   55HK4    H16 4556   0.326   1.526   1.955  0.8718  1.1098 -1.1533
   55HK4    C31 4557   0.325   1.362   1.821 -0.5824  0.1584  0.0575
   55HK4    C34 4558   0.195   1.298   1.821 -0.5003 -0.0113 -0.1876
   55HK4    C33 4559   0.204   1.189   1.725 -0.1632 -0.6692  0.5851
   55HK4    C35 4560   0.087   1.116   1.706 -0.1272 -0.5115 -0.2537
   55HK4    H17 4561   0.081   1.045   1.623  1.8945 -0.1862 -0.7054
   55HK4    C36 4562  11.221   1.134   1.784  0.4399 -0.4430  0.5748
   55HK4    H18 4563  11.127   1.081   1.763  1.4279 -0.8614 -3.2385
   55HK4    C37 4564  11.217   1.238   1.875 -0.0477 -0.0214  0.0742
   55HK4    H19 4565  11.129   1.251   1.939  0.7828  1.1968  0.9903
   55HK4    C38 4566   0.077   1.325   1.889 -0.2946  0.2901  0.0529
   55HK4    H20 4567   0.082   1.411   1.955 -0.1020 -0.5935  1.2070
   55HK4    C14 4568   0.733   1.353   1.884  0.1333 -0.8094  0.4022
   55HK4     C9 4569   0.758   1.338   2.021 -0.3735  0.2209  0.6098
   55HK4     C8 4570   0.886   1.369   2.069 -0.2003  0.2361  0.1422
   55HK4    C11 4571   0.987   1.391   1.976 -0.1328  0.0256  0.1655
   55HK4     H4 4572   1.088   1.411   2.015  0.5211 -3.0106  0.1031
   55HK4    C12 4573   0.967   1.397   1.838 -0.4326 -0.2313  0.1974
   55HK4     H5 4574   1.046   1.402   1.762  0.7850 -1.0892  1.3772
   55HK4    C13 4575   0.837   1.382   1.793 -0.3978 -0.0426  0.0340
   55HK4     H6 4576   0.821   1.385   1.684 -1.7000  1.2045  0.2432
   55HK4     C7 4577   0.902   1.387   2.215  0.0861  0.3531  0.0973
   55HK4     O2 4578   1.017   1.379   2.260  0.1632 -0.1402 -0.1847
   55HK4     C4 4579   0.785   1.387   2.306  0.2385 -0.0310  0.2964
   55HK4     C3 4580   0.810   1.438   2.432 -0.1555  0.6984  0.0848
   55HK4     H3 4581   0.910   1.463   2.471 -0.2646  0.6352  0.4100
   55HK4     C2 4582   0.703   1.468   2.516 -0.2023  0.1105  0.2381
   55HK4     H2 4583   0.702   1.518   2.614 -1.3513 -1.6395  1.1306
   55HK4     C1 4584   0.576   1.442   2.465 -0.1517  0.6542 -0.1740
   55HK4     H1 4585   0.493   1.488   2.520 -1.3667 -1.8373  0.1377
   55HK4     C6 4586   0.544   1.377   2.344  0.1711  0.1387  0.0181
   55HK4     C5 4587   0.655   1.354   2.262  0.2981 -0.2704  0.2998
   55HK4    C10 4588   0.649   1.311   2.119 -0.3313 -0.6115  0.4287
   55HK4     O1 4589   0.597   1.202   2.092 -0.1813 -0.5157 -0.2577
   55HK4    C16 4590   0.404   1.374   2.300  0.0559  0.4976  0.3532
   55HK4    C15 4591   0.313   1.471   2.346 -0.4761  0.2381 -0.1456
   55HK4     H7 4592   0.351   1.555   2.406 -3.6769  2.4158 -1.0558
   55HK4    C20 4593   0.175   1.454   2.352 -0.4445  0.1927  0.4778
   55HK4     H9 4594   0.104   1.536   2.359 -0.4166  0.3183 -0.6999
   55HK4    C19 4595   0.129   1.337   2.292  0.0232  0.0091  0.4702
   55HK4    C18 4596   0.216   1.229   2.253 -0.3073  0.0568 -0.4041
   55HK4    C17 4597   0.353   1.251   2.259 -0.4462  0.8190  0.0127
   55HK4     H8 4598   0.415   1.162   2.272  0.5552  1.2932 -1.3328
   55HK4     N1 4599   0.151   1.117   2.197 -0.2979 -0.3030  0.2974
   55HK4    C21 4600   0.016   1.156   2.201 -0.2357 -0.0234 -0.2747
   55HK4    C22 4601  11.245   1.289   2.255  0.2322  0.0904 -0.3903
   55HK4    C26 4602  11.115   1.334   2.275  0.0529 -0.4419 -0.3442
   55HK4    H13 4603  11.100   1.421   2.339  0.2418 -1.2488  0.7932
   55HK4    C25 4604  11.005   1.252   2.254 -0.4416 -0.0162  0.5574
   55HK4    H12 4605  10.906   1.296   2.262  0.2352  1.4049  1.2856
   55HK4    C24 4606  11.025   1.122   2.207  0.4320  0.0452  0.7639
   55HK4    H11 4607  10.942   1.053   2.190 -0.0483  0.6424  0.6601
   55HK4    C23 4608  11.152   1.078   2.173 -0.0210 -0.2190 -0.5843
   55HK4    H10 4609  11.173   0.983   2.123 -0.5992 -1.3739  1.2990
   55HK4    C39 4610   0.207   1.026   2.106  0.2702  0.3714 -0.0316
   55HK4    C41 4611   0.157   0.895   2.097  0.4318  0.3142 -0.0893
   55HK4    H21 4612   0.082   0.867   2.173 -0.4061 -2.2162 -1.8016
   55HK4    C42 4613   0.212   0.803   2.008 -0.0054 -0.5400  0.5151
   55HK4    H22 4614   0.159   0.706   2.008 -1.5654  0.2982 -1.1438
   55HK4    C43 4615   0.318   0.838   1.926 -0.4998 -0.1291  0.0525
   55HK4    H23 4616   0.373   0.773   1.858  0.5134 -0.2497  0.9773
   55HK4    C44 4617   0.373   0.965   1.933 -0.4745 -0.0941 -0.6767
   55HK4    H24 4618   0.460   0.994   1.872 -0.7691 -0.7911 -1.4328
   55HK4    C45 4619   0.316   1.056   2.022  0.5023 -0.2052  0.0660
   55HK4    H25 4620   0.380   1.144   2.040  1.2843 -0.7503 -0.0425
   56HK4    H28 4621   6.782  11.199   7.892  1.2902  0.1805 -1.5987
   56HK4    C48 4622   6.778   0.059   7.907  0.0937 -0.0685 -0.0259
   56HK4    C47 4623   6.868   0.142   7.842  0.5198 -0.1294  0.4926
   56HK4    H27 4624   6.923   0.103   7.754  1.5219  0.5120  0.8190
   56HK4    C46 4625   6.885   0.276   7.875  0.7217 -0.0943  0.2476
   56HK4    H26 4626   6.953   0.333   7.809  2.4933 -1.3340  0.9700
   56HK4    C40 4627   6.818   0.336   7.983 -0.1705 -0.0203 -0.3373
   56HK4    C50 4628   6.732   0.245   8.048  0.0898 -0.2001 -0.2417
   56HK4    H30 4629   6.675   0.291   8.130  0.8095  0.7051 -0.2456
   56HK4    C49 4630   6.703   0.114   8.010 -0.3288 -0.0845 -0.3223
   56HK4    H29 4631   6.625   0.054   8.061  1.2242 -1.8525  0.0124
   56HK4     N2 4632   6.876   0.439   8.058 -0.4302  0.1466 -0.3683
   56HK4    C30 4633   7.012   0.474   8.048 -0.3954  0.1509  0.0994
   56HK4    C29 4634   7.122   0.393   8.072  0.1506  0.5331 -1.0688
   56HK4    H15 4635   7.110   0.285   8.066 -0.4221  0.5984 -1.0839
   56HK4    C28 4636   7.251   0.436   8.103  0.3505 -0.5038 -0.4267
   56HK4    C27 4637   7.267   0.576   8.102 -0.0449 -0.4482  0.4047
   56HK4    H14 4638   7.369   0.617   8.092 -0.1716 -0.1561  0.2932
   56HK4    C32 4639   7.159   0.663   8.093  0.1347 -0.3236 -0.5308
   56HK4    H16 4640   7.168   0.766   8.128 -2.9867  0.5770 -2.1581
   56HK4    C31 4641   7.030   0.615   8.078 -0.0995  0.1484 -0.0622
   56HK4    C34 4642   6.898   0.671   8.103 -0.2120  0.1757 -0.7037
   56HK4    C33 4643   6.808   0.557   8.098 -0.2369  0.1658 -0.0962
   56HK4    C35 4644   6.671   0.574   8.112 -0.2173  0.0742  0.2155
   56HK4    H17 4645   6.613   0.484   8.092  3.3954 -2.1303 -0.8134
   56HK4    C36 4646   6.616   0.700   8.132  0.4341  0.3687  0.1586
   56HK4    H18 4647   6.511   0.727   8.148  0.2736  0.1982 -0.5713
   56HK4    C37 4648   6.707   0.805   8.142  0.1779  0.6959 -0.8419
   56HK4    H19 4649   6.658   0.902   8.137 -3.1517 -0.8530  0.1995
   56HK4    C38 4650   6.845   0.795   8.134  0.1898  0.1946 -0.0867
   56HK4    H20 4651   6.919   0.861   8.179  0.8714 -1.3428  1.0910
   56HK4    C14 4652   7.343   0.356   8.184 -0.4683 -0.5109  0.5103
   56HK4     C9 4653   7.421   0.406   8.289 -0.4890  0.2500  0.1646
   56HK4     C8 4654   7.551   0.360   8.317 -0.3320  0.5916  0.0023
   56HK4    C11 4655   7.590   0.240   8.259  0.1963  0.7393  0.0553
   56HK4     H4 4656   7.691   0.198   8.277  2.1817  3.3192 -4.2964
   56HK4    C12 4657   7.509   0.174   8.168  0.7514  0.2554 -0.0974
   56HK4     H5 4658   7.522   0.068   8.141  0.3486  0.1823 -0.0006
   56HK4    C13 4659   7.390   0.235   8.129  0.0845 -0.4465  0.8305
   56HK4     H6 4660   7.347   0.197   8.035 -0.4807 -0.8111  1.2340
   56HK4     C7 4661   7.647   0.447   8.389 -0.0091 -0.3344  0.7073
   56HK4     O2 4662   7.755   0.399   8.423  0.3255  0.5167  0.8620
   56HK4     C4 4663   7.599   0.579   8.434  0.1819  0.0754 -0.2735
   56HK4     C3 4664   7.691   0.675   8.474  0.4894 -0.5630  0.5423
   56HK4     H3 4665   7.795   0.642   8.475  1.0839  1.1646  3.3723
   56HK4     C2 4666   7.656   0.801   8.522  0.2491 -0.6690  0.6490
   56HK4     H2 4667   7.734   0.858   8.574 -1.2026  0.2958  1.8160
   56HK4     C1 4668   7.521   0.836   8.521  0.2693 -0.5867  0.6375
   56HK4     H1 4669   7.492   0.942   8.523  0.2387 -0.5610 -0.4878
   56HK4     C6 4670   7.426   0.744   8.472 -0.0901 -0.1733  0.5610
   56HK4     C5 4671   7.462   0.614   8.437  0.1362 -0.1874  0.8434
   56HK4    C10 4672   7.369   0.511   8.382  0.0541 -0.1635  0.9382
   56HK4     O1 4673   7.265   0.485   8.442 -0.6387 -0.2173 -0.2815
   56HK4    C16 4674   7.316   0.813   8.403  0.4757  0.4001  0.2314
   56HK4    C15 4675   7.327   0.932   8.327 -0.1061  0.4343  0.1958
   56HK4     H7 4676   7.420   0.956   8.272 -0.2440  1.9659  0.6321
   56HK4    C20 4677   7.226   1.026   8.328 -0.4702  0.0510 -0.2026
   56HK4     H9 4678   7.228   1.115   8.264  1.0636  1.0544  1.1912
   56HK4    C19 4679   7.106   0.993   8.391 -0.2386 -0.5394 -0.0689
   56HK4    C18 4680   7.077   0.862   8.445  0.2987 -0.4152  0.5273
   56HK4    C17 4681   7.192   0.786   8.460  0.4590 -0.3034 -0.1421
   56HK4     H8 4682   7.183   0.707   8.535  1.0934  1.2865  1.6324
   56HK4     N1 4683   6.944   0.842   8.489  0.0876 -0.1296  0.0279
   56HK4    C21 4684   6.890   0.971   8.469 -0.0929 -0.1681  0.2759
   56HK4    C22 4685   6.984   1.067   8.415 -0.2507 -0.4278 -0.4687
   56HK4    C26 4686   6.953   1.202   8.423  0.0972 -0.3951  0.4038
   56HK4    H13 4687   7.026   1.270   8.377 -0.3884 -0.1382  0.0177
   56HK4    C25 4688   6.835   1.242   8.484 -0.1870  0.1968 -0.5282
   56HK4    H12 4689   6.823   1.350   8.496 -1.4236  0.4014 -3.1474
   56HK4    C24 4690   6.738   1.156   8.534 -0.3446 -0.0491 -1.2408
   56HK4    H11 4691   6.641   1.193   8.571 -0.6030 -0.1150 -1.8623
   56HK4    C23 4692   6.774   1.022   8.527 -0.0799 -0.0670  0.2126
   56HK4    H10 4693   6.695   0.951   8.549  0.9776 -1.0334  0.9266
   56HK4    C39 4694   6.883   0.717   8.505  0.2203 -0.1972  0.0064
   56HK4    C41 4695   6.754   0.707   8.561  0.2750 -0.0391  0.1612
   56HK4    H21 4696   6.731   0.764   8.652 -2.2323 -1.5627  0.5484
   56HK4    C42 4697   6.663   0.604   8.541  0.2593 -0.0635  0.3553
   56HK4    H22 4698   6.564   0.596   8.587 -0.5901  1.3227 -1.1971
   56HK4    C43 4699   6.705   0.495   8.465  0.5106  0.2301  0.0747
   56HK4    H23 4700   6.632   0.418   8.445 -0.0172 -0.4934  4.2880
   56HK4    C44 4701   6.836   0.496   8.418  0.1980  0.2098 -0.8145
   56HK4    H24 4702   6.872   0.408   8.363  0.0424 -3.4893  4.5861
   56HK4    C45 4703   6.925   0.601   8.438  0.2759  0.0748 -0.4302
   56HK4    H25 4704   7.027   0.594   8.396  0.3017  1.8739 -0.7108
   57HK4    H28 4705   9.847   3.354   9.027  0.1561  0.4194 -0.0407
   57HK4    C48 4706   9.904   3.267   8.995 -0.3889  0.0191  0.0739
   57HK4    C47 4707  10.030   3.238   9.045  0.1196  0.6479 -0.8298
   57HK4    H27 4708  10.078   3.320   9.100  1.0519 -0.2682 -0.2537
   57HK4    C46 4709  10.076   3.106   9.041 -0.7651  0.2996  0.3401
   57HK4    H26 4710  10.158   3.077   9.108 -0.5485  0.4161  0.1250
   57HK4    C40 4711  10.007   3.001   8.979  0.0387 -0.1049  0.1241
   57HK4    C50 4712   9.880   3.035   8.927  0.3046  0.1523 -0.3663
   57HK4    H30 4713   9.814   2.960   8.881  0.2257  0.5426 -0.8863
   57HK4    C49 4714   9.833   3.165   8.933 -0.1835 -0.0390 -0.0626
   57HK4    H29 4715   9.726   3.186   8.915  0.0732  0.3429 -1.1656
   57HK4     N2 4716  10.082   2.900   8.917  0.0364  0.0492 -0.1299
   57HK4    C30 4717  10.221   2.898   8.892 -0.0280  0.0332 -0.4768
   57HK4    C29 4718  10.310   3.005   8.881  0.5030 -0.3863 -0.2567
   57HK4    H15 4719  10.274   3.103   8.849  0.9879 -0.0737  0.1556
   57HK4    C28 4720  10.448   2.993   8.889  0.5259  0.0869  0.1710
   57HK4    C27 4721  10.502   2.863   8.890  0.2649 -0.0403 -1.0987
   57HK4    H14 4722  10.609   2.846   8.874 -0.0184 -1.3496 -1.7240
   57HK4    C32 4723  10.422   2.749   8.886 -0.0545  0.1564 -0.3454
   57HK4    H16 4724  10.468   2.652   8.905  2.5581  1.1528 -1.3725
   57HK4    C31 4725  10.284   2.768   8.888 -0.0718 -0.0252  0.6166
   57HK4    C34 4726  10.171   2.677   8.897  0.0525 -0.2272  0.2084
   57HK4    C33 4727  10.054   2.762   8.913  0.1912  0.0153 -0.0675
   57HK4    C35 4728   9.931   2.699   8.904  0.2543 -0.0395 -0.5790
   57HK4    H17 4729   9.843   2.747   8.947  1.1289  0.0001  1.1680
   57HK4    C36 4730   9.924   2.563   8.876 -0.3019 -0.1838  0.2487
   57HK4    H18 4731   9.826   2.524   8.847  1.0100 -1.8539 -2.1645
   57HK4    C37 4732  10.036   2.482   8.860 -0.1393  0.1463 -0.2762
   57HK4    H19 4733  10.031   2.380   8.823  1.0513 -0.3880  0.9808
   57HK4    C38 4734  10.162   2.541   8.869 -0.0034 -0.1887  0.0429
   57HK4    H20 4735  10.254   2.490   8.843  0.2026  0.3752 -0.3324
   57HK4    C14 4736  10.540   3.104   8.860  0.0863  0.4167  0.0488
   57HK4     C9 4737  10.660   3.088   8.791  0.1415  0.0438  0.2367
   57HK4     C8 4738  10.775   3.163   8.825  0.1343  0.1454  0.0460
   57HK4    C11 4739  10.765   3.257   8.926  0.4673 -0.1774  0.3844
   57HK4     H4 4740  10.858   3.306   8.960  1.7875 -1.9592 -0.6185
   57HK4    C12 4741  10.641   3.290   8.980  0.5523 -0.1793  0.5818
   57HK4     H5 4742  10.633   3.385   9.034  1.3780  0.4644 -0.4190
   57HK4    C13 4743  10.529   3.211   8.951  0.1502  0.6871 -0.2600
   57HK4     H6 4744  10.435   3.268   8.953  0.6393  1.6690 -3.0126
   57HK4     C7 4745  10.900   3.157   8.746  0.0167 -0.0352 -0.1265
   57HK4     O2 4746  10.991   3.238   8.763 -0.0110 -0.0057 -0.1214
   57HK4     C4 4747  10.906   3.064   8.631  0.2173  0.0023 -0.1481
   57HK4     C3 4748  11.029   3.038   8.573  0.2203 -0.0383 -0.1241
   57HK4     H3 4749  11.093   3.127   8.563  0.3242 -0.0480  0.4479
   57HK4     C2 4750  11.049   2.935   8.482 -0.6071  0.3872 -0.7941
   57HK4     H2 4751  11.147   2.935   8.433  0.3636 -1.4713  1.0874
   57HK4     C1 4752  10.939   2.852   8.459 -0.4044 -0.0937 -0.0499
   57HK4     H1 4753  10.954   2.781   8.377  0.2767  0.6983 -0.6269
   57HK4     C6 4754  10.811   2.881   8.511 -0.5436  0.1644 -0.5202
   57HK4     C5 4755  10.792   2.988   8.599  0.2558 -0.1245  0.0217
   57HK4    C10 4756  10.659   3.016   8.660  0.3948 -0.1143  0.3181
   57HK4     O1 4757  10.559   3.035   8.591  0.5123 -0.1992  0.1289
   57HK4    C16 4758  10.729   2.759   8.521 -0.2210 -0.0001  0.1853
   57HK4    C15 4759  10.795   2.642   8.562 -0.1620  0.0389  0.2007
   57HK4     H7 4760  10.899   2.647   8.597  0.7261  1.4520 -2.5275
   57HK4    C20 4761  10.726   2.521   8.574 -0.2682  0.1244  0.4659
   57HK4     H9 4762  10.776   2.425   8.563 -0.4513  0.1906 -1.1265
   57HK4    C19 4763  10.588   2.521   8.556 -0.1479  0.0887 -0.4908
   57HK4    C18 4764  10.517   2.640   8.512 -0.2790 -0.0767 -0.7215
   57HK4    C17 4765  10.592   2.755   8.496 -0.1386 -0.1042 -0.2616
   57HK4     H8 4766  10.537   2.839   8.454  3.0566  1.5096 -1.4084
   57HK4     N1 4767  10.377   2.620   8.510 -0.3391  0.1533  0.4677
   57HK4    C21 4768  10.357   2.484   8.540  0.2721  0.0101  0.2342
   57HK4    C22 4769  10.483   2.424   8.581  0.2382 -0.1959  0.0385
   57HK4    C26 4770  10.489   2.295   8.631 -0.2967 -0.2578 -0.0554
   57HK4    H13 4771  10.584   2.243   8.645 -0.6683 -1.3512 -1.4057
   57HK4    C25 4772  10.373   2.218   8.631 -0.1916 -0.4172  0.0149
   57HK4    H12 4773  10.379   2.120   8.677  1.4952 -0.5667 -0.4933
   57HK4    C24 4774  10.251   2.271   8.591  0.2551  0.4152 -0.2668
   57HK4    H11 4775  10.163   2.204   8.591  0.2858  0.2634  3.4888
   57HK4    C23 4776  10.244   2.405   8.556 -0.0804  0.4700  0.0023
   57HK4    H10 4777  10.148   2.437   8.515  0.1956  0.6283 -0.5284
   57HK4    C39 4778  10.273   2.713   8.504 -0.6539 -0.2269 -0.0160
   57HK4    C41 4779  10.145   2.686   8.451 -0.3025 -0.3058 -0.8500
   57HK4    H21 4780  10.127   2.596   8.390 -1.3118 -1.6676  1.3561
   57HK4    C42 4781  10.038   2.769   8.482  0.1429 -0.2606  0.6512
   57HK4    H22 4782   9.938   2.729   8.457  0.6677 -1.0846 -0.1844
   57HK4    C43 4783  10.054   2.891   8.545  0.3065  0.1982 -0.2610
   57HK4    H23 4784   9.967   2.957   8.555 -0.7732 -0.9448 -1.8856
   57HK4    C44 4785  10.182   2.923   8.589  0.1289 -0.1950  0.5781
   57HK4    H24 4786  10.209   3.021   8.631  0.9139 -0.9546  1.8626
   57HK4    C45 4787  10.289   2.836   8.571 -0.2372 -0.6697  0.6985
   57HK4    H25 4788  10.387   2.859   8.615  1.0676 -1.0000 -1.9826
   58HK4    H28 4789   2.206   8.946   1.708 -0.4412 -0.2336  0.5627
   58HK4    C48 4790   2.266   8.863   1.743  0.4461 -0.0641 -0.5208
   58HK4    C47 4791   2.200   8.741   1.741 -0.2234  0.2964 -0.3502
   58HK4    H27 4792   2.090   8.733   1.742 -0.2783  1.0204  0.9188
   58HK4    C46 4793   2.274   8.624   1.744 -0.5776  0.0850  0.4332
   58HK4    H26 4794   2.216   8.531   1.732 -0.5602 -0.0441  1.3168
   58HK4    C40 4795   2.415   8.624   1.748 -0.5426 -0.4033 -0.5344
   58HK4    C50 4796   2.477   8.751   1.748 -0.1333 -0.6005 -0.3317
   58HK4    H30 4797   2.581   8.751   1.785 -0.5738 -0.8509  0.9388
   58HK4    C49 4798   2.405   8.869   1.743  0.4582 -0.2164  0.1156
   58HK4    H29 4799   2.459   8.961   1.714 -1.6429  1.5617  1.6509
   58HK4     N2 4800   2.485   8.504   1.770  0.2469  0.1824  0.2144
   58HK4    C30 4801   2.436   8.391   1.838  0.3455  0.2451  0.3849
   58HK4    C29 4802   2.317   8.370   1.907  0.1314 -0.1417 -0.1007
   58HK4    H15 4803   2.244   8.450   1.920  1.6227  1.0467  1.2312
   58HK4    C28 4804   2.292   8.251   1.975 -0.2260 -0.3460 -0.5897
   58HK4    C27 4805   2.398   8.159   1.978  0.2488  0.2152 -0.2416
   58HK4    H14 4806   2.377   8.072   2.042  1.0776 -0.7641 -1.2755
   58HK4    C32 4807   2.516   8.170   1.905  0.2152 -0.3895 -0.3887
   58HK4    H16 4808   2.575   8.080   1.890 -0.0875 -0.4479 -1.2382
   58HK4    C31 4809   2.539   8.289   1.836  0.3034  0.1958  0.6415
   58HK4    C34 4810   2.646   8.334   1.751 -0.1714  0.0966 -0.0152
   58HK4    C33 4811   2.612   8.471   1.719  0.3512  0.3202  0.3874
   58HK4    C35 4812   2.695   8.530   1.625 -0.1583  0.0478 -0.2350
   58HK4    H17 4813   2.671   8.634   1.603  0.4905  0.4543  0.9374
   58HK4    C36 4814   2.797   8.463   1.557  0.2157  0.1668  0.2109
   58HK4    H18 4815   2.832   8.504   1.461 -1.2993  0.0187 -0.4145
   58HK4    C37 4816   2.838   8.337   1.598  0.0264  0.1464  0.3427
   58HK4    H19 4817   2.931   8.296   1.558 -1.0908  0.1646 -2.3841
   58HK4    C38 4818   2.759   8.275   1.694 -0.1700  0.0034  0.0863
   58HK4    H20 4819   2.775   8.167   1.693  2.4106  0.3692 -2.0967
   58HK4    C14 4820   2.171   8.239   2.058 -0.0208 -0.5591 -0.3252
   58HK4     C9 4821   2.176   8.169   2.179 -0.0504 -0.1494 -0.0875
   58HK4     C8 4822   2.075   8.071   2.196 -0.4741  0.2937 -0.0168
   58HK4    C11 4823   1.973   8.055   2.103 -0.1779 -0.2354 -0.2501
   58HK4     H4 4824   1.914   7.962   2.102 -0.4004 -0.0954  0.0803
   58HK4    C12 4825   1.960   8.140   1.994 -0.0637 -0.3206 -0.3287
   58HK4     H5 4826   1.861   8.167   1.954  1.2062 -0.4627 -3.7849
   58HK4    C13 4827   2.062   8.232   1.970 -0.3431  0.0820  0.0210
   58HK4     H6 4828   2.065   8.287   1.875  1.7054  2.0144  1.1849
   58HK4     C7 4829   2.071   7.998   2.325 -0.1790 -0.2002 -0.2815
   58HK4     O2 4830   1.994   7.903   2.336 -0.4485  0.0930  0.3891
   58HK4     C4 4831   2.158   8.040   2.437  0.2153 -0.2517 -0.5686
   58HK4     C3 4832   2.140   7.973   2.557  0.0077  0.2966 -0.2942
   58HK4     H3 4833   2.056   7.903   2.574  0.9556 -0.8678 -0.3938
   58HK4     C2 4834   2.244   7.976   2.649 -0.3727  0.3489  0.1359
   58HK4     H2 4835   2.242   7.942   2.754  1.4882  1.1269  0.4362
   58HK4     C1 4836   2.362   8.038   2.613 -0.3953  0.4192  0.1827
   58HK4     H1 4837   2.421   8.058   2.703 -0.7689  0.5393  0.3979
   58HK4     C6 4838   2.390   8.097   2.487  0.2025 -0.6391 -0.1881
   58HK4     C5 4839   2.277   8.107   2.405  0.0530  0.3820  0.1341
   58HK4    C10 4840   2.276   8.197   2.286 -0.3615  0.3102  0.0828
   58HK4     O1 4841   2.314   8.313   2.303  0.0739  0.3198 -0.9416
   58HK4    C16 4842   2.517   8.061   2.423  0.0840 -0.4513 -0.5323
   58HK4    C15 4843   2.581   7.939   2.455  0.2518 -0.0930  0.5175
   58HK4     H7 4844   2.535   7.872   2.528 -2.2234  1.0939  0.0905
   58HK4    C20 4845   2.704   7.905   2.398  0.0935 -0.5274  0.4333
   58HK4     H9 4846   2.747   7.805   2.402  1.6481  0.0892 -0.4416
   58HK4    C19 4847   2.764   7.989   2.305 -0.8628 -0.3888 -0.0706
   58HK4    C18 4848   2.707   8.121   2.284  0.3449  0.2863  0.7725
   58HK4    C17 4849   2.583   8.151   2.340 -0.2154 -0.0078 -0.2955
   58HK4     H8 4850   2.567   8.258   2.353 -1.2520 -0.3417  1.2874
   58HK4     N1 4851   2.774   8.181   2.176 -0.3416  0.3065  0.3531
   58HK4    C21 4852   2.855   8.082   2.116 -0.5209  0.3294  0.0701
   58HK4    C22 4853   2.856   7.961   2.197 -1.3103 -0.0829 -0.5316
   58HK4    C26 4854   2.938   7.855   2.161  0.0563  0.6873  0.2683
   58HK4    H13 4855   2.918   7.767   2.222 -1.8984  0.0424 -1.2310
   58HK4    C25 4856   3.016   7.859   2.046 -0.0136  0.0041  0.1931
   58HK4    H12 4857   3.083   7.779   2.016 -1.2082 -0.6584 -0.7685
   58HK4    C24 4858   3.005   7.969   1.961 -0.1340 -0.2133 -0.0759
   58HK4    H11 4859   3.055   7.967   1.863  0.5421  0.4169  0.2445
   58HK4    C23 4860   2.927   8.078   1.997 -0.0609 -0.3055  0.3691
   58HK4    H10 4861   2.916   8.164   1.931  0.9608  0.3080  0.9873
   58HK4    C39 4862   2.757   8.313   2.134  0.2805  0.1398 -0.4528
   58HK4    C41 4863   2.874   8.372   2.083  0.3666 -0.0769 -0.5054
   58HK4    H21 4864   2.972   8.323   2.094  0.1172  0.1435  3.2103
   58HK4    C42 4865   2.873   8.502   2.034  0.3271  0.2929  0.4656
   58HK4    H22 4866   2.964   8.547   1.990  0.5071  2.2967  2.7540
   58HK4    C43 4867   2.753   8.572   2.034  0.0799 -0.1261  0.3681
   58HK4    H23 4868   2.741   8.663   1.975  1.5699 -0.2584 -0.1483
   58HK4    C44 4869   2.635   8.522   2.088 -0.3505  0.1806 -0.2897
   58HK4    H24 4870   2.544   8.582   2.079 -1.4936 -1.6038 -0.9810
   58HK4    C45 4871   2.638   8.390   2.131  0.3821  0.3276  0.1162
   58HK4    H25 4872   2.545   8.335   2.150 -0.6401  2.4926  1.4561
   59HK4    H28 4873   8.102   6.099   8.120  1.5787  2.1413 -0.2437
   59HK4    C48 4874   8.149   6.072   8.215  0.7851  0.2693 -0.3541
   59HK4    C47 4875   8.131   5.949   8.276  0.5127  0.1425 -0.6851
   59HK4    H27 4876   8.057   5.881   8.233 -0.9479  0.5305  1.1145
   59HK4    C46 4877   8.201   5.909   8.390 -0.0148  0.0029 -0.4097
   59HK4    H26 4878   8.201   5.803   8.417 -1.4595  0.0009 -0.3627
   59HK4    C40 4879   8.288   5.996   8.459  0.1613 -0.2533 -0.3044
   59HK4    C50 4880   8.297   6.123   8.398 -0.0169  0.0825  0.3670
   59HK4    H30 4881   8.343   6.210   8.448  1.3061 -0.4925  0.1670
   59HK4    C49 4882   8.240   6.157   8.276  0.8807 -0.0261 -0.0881
   59HK4    H29 4883   8.276   6.248   8.226  0.3043  0.1295 -0.2192
   59HK4     N2 4884   8.372   5.960   8.566 -0.0841  0.0586 -0.0079
   59HK4    C30 4885   8.420   6.045   8.667  0.0158 -0.2087  0.1687
   59HK4    C29 4886   8.370   6.166   8.712  0.2891  0.2579 -0.7696
   59HK4    H15 4887   8.270   6.198   8.681 -0.1219  1.5146  1.6949
   59HK4    C28 4888   8.425   6.232   8.821 -0.0997 -0.1688 -0.3129
   59HK4    C27 4889   8.528   6.170   8.895 -0.0420  0.1296 -0.1399
   59HK4    H14 4890   8.564   6.215   8.989  1.5975  2.3904 -1.7939
   59HK4    C32 4891   8.586   6.052   8.849  0.4852  0.2850  0.1294
   59HK4    H16 4892   8.674   6.019   8.905  0.4594 -0.2382 -0.1407
   59HK4    C31 4893   8.540   5.995   8.731  0.4546  0.6008 -0.0151
   59HK4    C34 4894   8.575   5.873   8.661  0.0437  0.4812 -0.0107
   59HK4    C33 4895   8.469   5.858   8.563  0.0847  0.2201 -0.0184
   59HK4    C35 4896   8.460   5.742   8.487  0.0437  0.4841 -0.4195
   59HK4    H17 4897   8.391   5.734   8.403 -1.0690  2.0788  0.3333
   59HK4    C36 4898   8.550   5.639   8.514 -0.9412 -0.2382  0.1522
   59HK4    H18 4899   8.519   5.539   8.482  1.9250 -1.9263  2.3324
   59HK4    C37 4900   8.647   5.652   8.614 -0.5881  0.9342 -0.3333
   59HK4    H19 4901   8.712   5.565   8.620  0.2648  1.1917 -4.2802
   59HK4    C38 4902   8.663   5.769   8.688 -0.4646  0.2430  0.7426
   59HK4    H20 4903   8.721   5.758   8.779  0.1574  0.4119  0.3710
   59HK4    C14 4904   8.391   6.373   8.849 -0.0034 -0.2101  0.0206
   59HK4     C9 4905   8.483   6.470   8.888 -0.2487  0.0346 -0.0139
   59HK4     C8 4906   8.441   6.574   8.973 -0.1004 -0.2761  0.4396
   59HK4    C11 4907   8.305   6.589   8.997 -0.2399  0.2195 -0.5924
   59HK4     H4 4908   8.264   6.673   9.054 -1.3989 -0.4253 -0.4594
   59HK4    C12 4909   8.212   6.498   8.949  0.0948 -0.4783  0.0568
   59HK4     H5 4910   8.107   6.531   8.950  0.4640  0.7085  1.2784
   59HK4    C13 4911   8.253   6.389   8.873 -0.0331 -0.5228  0.0525
   59HK4     H6 4912   8.193   6.303   8.837  0.0784 -0.7137  0.3159
   59HK4     C7 4913   8.540   6.669   9.029  0.2867 -0.2360 -0.3026
   59HK4     O2 4914   8.512   6.723   9.136  0.0556 -0.0486 -0.4528
   59HK4     C4 4915   8.682   6.660   8.989  0.3660 -0.4648  0.0298
   59HK4     C3 4916   8.779   6.730   9.060  0.5944 -0.7089 -0.0416
   59HK4     H3 4917   8.747   6.798   9.140  1.6109  1.0422 -1.0791
   59HK4     C2 4918   8.914   6.718   9.031  0.6031  0.4349 -0.4764
   59HK4     H2 4919   8.993   6.761   9.094  2.6633 -0.4879 -2.3400
   59HK4     C1 4920   8.950   6.647   8.917 -0.1599  0.0684 -0.4872
   59HK4     H1 4921   9.057   6.625   8.903 -0.0615  0.0999  0.2069
   59HK4     C6 4922   8.851   6.582   8.840 -0.0967 -0.1706 -0.3679
   59HK4     C5 4923   8.718   6.574   8.883 -0.0644 -0.2631 -0.2802
   59HK4    C10 4924   8.620   6.476   8.829 -0.2429 -0.2243 -0.0301
   59HK4     O1 4925   8.633   6.431   8.715  0.6415  0.1877 -0.0919
   59HK4    C16 4926   8.906   6.562   8.706  0.5635  0.0740 -0.1375
   59HK4    C15 4927   8.999   6.649   8.644 -0.5336  0.7618 -0.8498
   59HK4     H7 4928   8.992   6.755   8.671 -1.5986  0.8608 -1.5035
   59HK4    C20 4929   9.103   6.609   8.561  0.0334  0.3087  0.0593
   59HK4     H9 4930   9.188   6.675   8.544  0.3533  0.3051  1.5462
   59HK4    C19 4931   9.104   6.478   8.514 -0.1435  0.3083  0.0585
   59HK4    C18 4932   8.997   6.389   8.555  0.3025 -0.0311  0.4889
   59HK4    C17 4933   8.913   6.432   8.657 -0.2491 -0.0425  0.0457
   59HK4     H8 4934   8.864   6.355   8.717  1.9084 -0.0773  1.8367
   59HK4     N1 4935   9.018   6.257   8.511  0.0268  0.1592 -0.2336
   59HK4    C21 4936   9.150   6.257   8.462  0.1367 -0.2169  0.0611
   59HK4    C22 4937   9.199   6.392   8.445 -0.5272  0.0005 -0.0878
   59HK4    C26 4938   9.328   6.416   8.401 -0.6219  0.0308 -0.3553
   59HK4    H13 4939   9.362   6.517   8.379 -1.4653  0.3147 -0.3446
   59HK4    C25 4940   9.411   6.307   8.375 -0.2421  0.1830  0.1917
   59HK4    H12 4941   9.512   6.317   8.336 -0.2520 -0.3117  0.0368
   59HK4    C24 4942   9.360   6.178   8.375  0.2101  0.0055 -0.0621
   59HK4    H11 4943   9.424   6.092   8.350  0.0123 -0.9974  2.7020
   59HK4    C23 4944   9.232   6.152   8.422  0.2037 -0.0929 -0.1293
   59HK4    H10 4945   9.191   6.051   8.413  3.6455 -1.4245 -1.8258
   59HK4    C39 4946   8.911   6.171   8.481  0.3285 -0.2775 -0.0679
   59HK4    C41 4947   8.927   6.031   8.492 -0.3071 -0.3589 -0.2059
   59HK4    H21 4948   9.014   5.994   8.547  0.4764  2.6947  0.7027
   59HK4    C42 4949   8.835   5.938   8.444 -0.2191 -0.9460  0.7484
   59HK4    H22 4950   8.860   5.832   8.430 -0.4698 -0.9723  0.4814
   59HK4    C43 4951   8.720   5.990   8.386  0.5556  0.1522  0.1754
   59HK4    H23 4952   8.637   5.922   8.366  2.1818 -1.1460 -2.4933
   59HK4    C44 4953   8.693   6.126   8.378  0.1577  0.0536 -0.2013
   59HK4    H24 4954   8.597   6.151   8.331 -1.0968 -1.0236  1.7204
   59HK4    C45 4955   8.785   6.214   8.434  0.1191 -0.3238  0.4513
   59HK4    H25 4956   8.754   6.315   8.464 -1.6657 -0.2765 -1.4726
   60HK4    H28 4957   4.732   8.325  10.884  1.4596 -0.5075 -0.3276
   60HK4    C48 4958   4.771   8.368  10.976  0.0153 -0.1386  0.1291
   60HK4    C47 4959   4.717   8.486  11.027 -0.1074 -0.0202 -0.2585
   60HK4    H27 4960   4.630   8.533  10.980  0.8174  0.6948 -1.2857
   60HK4    C46 4961   4.766   8.538  11.147 -0.5979  0.1385 -0.1293
   60HK4    H26 4962   4.725   8.632  11.185  1.8284  1.0357  0.2929
   60HK4    C40 4963   4.858   8.461  11.220 -0.7228  0.1765  0.0687
   60HK4    C50 4964   4.905   8.338  11.168  0.1736  0.5072  0.0846
   60HK4    H30 4965   4.991   8.284  11.210 -1.0569 -0.4807  1.3788
   60HK4    C49 4966   4.858   8.287  11.048  0.0669  0.0806  0.3081
   60HK4    H29 4967   4.897   8.193  11.006  0.4813 -0.3831  1.7036
   60HK4     N2 4968   4.915   8.519   0.086 -0.3992 -0.1878  0.0964
   60HK4    C30 4969   4.927   8.656   0.116  0.4548 -0.2199 -0.0831
   60HK4    C29 4970   4.926   8.764   0.027 -0.2589 -0.0379  0.1428
   60HK4    H15 4971   4.951   8.748  11.170  1.5257  2.2102  0.1810
   60HK4    C28 4972   4.923   8.894   0.076 -0.0585 -0.0869  0.2947
   60HK4    C27 4973   4.918   8.909   0.216  0.5188 -0.3235  0.3429
   60HK4    H14 4974   4.906   9.012   0.252 -3.5027 -0.3576 -0.6194
   60HK4    C32 4975   4.933   8.803   0.305  0.4213 -0.3128  0.3702
   60HK4    H16 4976   4.944   8.819   0.412 -0.5353 -0.6468  0.5214
   60HK4    C31 4977   4.954   8.674   0.257  0.2441 -0.1879 -0.0469
   60HK4    C34 4978   4.960   8.542   0.317 -0.5126  0.0785  0.6251
   60HK4    C33 4979   4.938   8.450   0.207 -0.1137  0.3305  0.3387
   60HK4    C35 4980   4.934   8.314   0.231 -0.2146  0.2339 -0.1933
   60HK4    H17 4981   4.934   8.236   0.155  2.2291 -1.7601  1.7607
   60HK4    C36 4982   4.951   8.264   0.360  0.2206  0.1044 -0.3012
   60HK4    H18 4983   4.929   8.157   0.376 -0.4610 -0.0672 -2.3044
   60HK4    C37 4984   4.989   8.354   0.459 -0.0810 -0.0414 -0.0545
   60HK4    H19 4985   5.036   8.321   0.552 -1.0629 -1.0651  0.0983
   60HK4    C38 4986   4.991   8.492   0.443 -0.4377  0.0429  0.5910
   60HK4    H20 4987   4.990   8.560   0.528  1.8448  1.7444 -0.6677
   60HK4    C14 4988   4.930   9.009  11.233  0.0107 -0.2193  0.1357
   60HK4     C9 4989   4.976   9.139   0.009 -0.3905 -0.1943  0.7841
   60HK4     C8 4990   4.931   9.244  11.175  0.4973 -0.0957  0.4077
   60HK4    C11 4991   4.843   9.223  11.069  0.1756 -0.0392  0.6629
   60HK4     H4 4992   4.834   9.292  10.984  0.5604 -1.4026 -0.5032
   60HK4    C12 4993   4.797   9.095  11.044 -0.2826  0.2570 -0.0356
   60HK4     H5 4994   4.721   9.076  10.966 -0.0815  1.6507 -0.5747
   60HK4    C13 4995   4.846   8.990  11.122 -0.1862  0.4554  0.1693
   60HK4     H6 4996   4.812   8.890  11.092 -1.0632 -0.2365  3.3362
   60HK4     C7 4997   4.981   9.383  11.186 -0.0143  0.1591 -0.3728
   60HK4     O2 4998   4.919   9.477  11.138 -0.0566  0.0209 -0.5878
   60HK4     C4 4999   5.099   9.409   0.024  0.0444  0.0751 -0.4263
   60HK4     C3 5000   5.149   9.538   0.042 -0.1112  0.1220 -0.3423
   60HK4     H3 5001   5.078   9.622   0.045 -1.9454 -1.2646 -2.8158
   60HK4     C2 5002   5.283   9.555   0.076  0.0275 -0.2762 -0.6776
   60HK4     H2 5003   5.318   9.659   0.076 -0.1775 -0.2088 -0.0830
   60HK4     C1 5004   5.355   9.445   0.120 -0.4538 -0.2319  0.2341
   60HK4     H1 5005   5.464   9.449   0.135 -0.3682 -2.0072  0.1722
   60HK4     C6 5006   5.304   9.314   0.106 -0.2456 -0.2150 -0.7202
   60HK4     C5 5007   5.172   9.295   0.065 -0.3889 -0.1502 -0.2912
   60HK4    C10 5008   5.100   9.167   0.088 -0.0746 -0.2216  0.3059
   60HK4     O1 5009   5.122   9.103   0.191 -0.0514 -0.1301  0.3577
   60HK4    C16 5010   5.401   9.211   0.148  0.0991  0.3211 -0.1929
   60HK4    C15 5011   5.502   9.226   0.244 -0.4823  0.2758  0.4284
   60HK4     H7 5012   5.494   9.316   0.307 -0.0062  0.0765  0.7889
   60HK4    C20 5013   5.601   9.134   0.277 -0.1139  0.3475 -0.4731
   60HK4     H9 5014   5.675   9.150   0.355  0.7575  0.7490 -1.3766
   60HK4    C19 5015   5.601   9.014   0.206 -0.1422 -0.2484  0.5278
   60HK4    C18 5016   5.497   8.988   0.109 -0.2451 -0.0663  0.5886
   60HK4    C17 5017   5.409   9.091   0.078  0.4148  0.2943 -0.1166
   60HK4     H8 5018   5.339   9.065  11.247  0.7369 -0.8261 -0.0445
   60HK4     N1 5019   5.519   8.866   0.041 -0.0556  0.3407 -0.0840
   60HK4    C21 5020   5.642   8.819   0.091 -0.3617 -0.4956 -0.1186
   60HK4    C22 5021   5.695   8.904   0.195 -0.3756 -0.3779 -0.2093
   60HK4    C26 5022   5.787   8.855   0.287  0.2302  0.0658 -0.5793
   60HK4    H13 5023   5.808   8.910   0.378  2.3061  0.9381 -1.5398
   60HK4    C25 5024   5.846   8.730   0.269  0.8332  0.2822 -0.1181
   60HK4    H12 5025   5.907   8.680   0.344  1.1882 -0.8378 -1.1342
   60HK4    C24 5026   5.812   8.659   0.155  0.2478  0.6011 -0.1453
   60HK4    H11 5027   5.859   8.563   0.129  0.5271  1.1453 -1.6927
   60HK4    C23 5028   5.709   8.698   0.070  0.2817 -0.0738 -0.5029
   60HK4    H10 5029   5.692   8.641  11.227 -0.2750  2.1198 -1.8245
   60HK4    C39 5030   5.411   8.782   0.012  0.7403 -0.6500 -0.1720
   60HK4    C41 5031   5.436   8.701  11.147  0.1790 -0.2765 -0.5651
   60HK4    H21 5032   5.518   8.716  11.076 -0.2133 -2.4091 -1.5078
   60HK4    C42 5033   5.371   8.578  11.145  0.1941 -0.2893 -0.2771
   60HK4    H22 5034   5.390   8.528  11.049 -0.2489  3.7107 -2.5895
   60HK4    C43 5035   5.272   8.543  11.236  0.4318  0.1697  0.1629
   60HK4    H23 5036   5.223   8.445  11.231  1.8872 -0.5708  0.3113
   60HK4    C44 5037   5.244   8.627   0.095  0.3549  0.5089 -0.1240
   60HK4    H24 5038   5.180   8.596   0.179  1.5331 -2.0187 -0.1224
   60HK4    C45 5039   5.315   8.746   0.108  0.2313  0.5916 -0.2195
   60HK4    H25 5040   5.298   8.817   0.191 -1.8238 -0.8508  0.6374
   61HK4    H28 5041   3.340   1.627   3.866  0.4165 -0.8727  1.8658
   61HK4    C48 5042   3.356   1.528   3.825  0.4028 -0.2661  0.3508
   61HK4    C47 5043   3.297   1.422   3.894 -0.3645 -0.0976 -0.0453
   61HK4    H27 5044   3.239   1.446   3.983 -0.6802  0.6307 -0.4419
   61HK4    C46 5045   3.318   1.291   3.851  0.0681  0.0639 -0.3416
   61HK4    H26 5046   3.267   1.213   3.910 -1.2908  1.5849  0.5756
   61HK4    C40 5047   3.395   1.260   3.738  0.5134  0.2075 -0.0814
   61HK4    C50 5048   3.448   1.374   3.674  0.1450  0.2554 -0.3060
   61HK4    H30 5049   3.499   1.355   3.579  2.1381  1.0613  0.5822
   61HK4    C49 5050   3.440   1.506   3.716  0.1064  0.1433  0.0391
   61HK4    H29 5051   3.485   1.596   3.672  0.2157  0.2034  0.2758
   61HK4     N2 5052   3.455   1.135   3.720  0.5045  0.1543  0.2709
   61HK4    C30 5053   3.491   1.039   3.818 -0.2722 -0.1462  0.2696
   61HK4    C29 5054   3.527   1.056   3.951  0.7452  0.7838 -0.1153
   61HK4    H15 5055   3.503   1.151   3.998  1.3911  0.8711  0.0493
   61HK4    C28 5056   3.578   0.951   4.028 -0.0528  0.3987 -0.1113
   61HK4    C27 5057   3.588   0.826   3.964 -0.2461  0.4539 -0.2538
   61HK4    H14 5058   3.618   0.739   4.025 -1.5138  0.3320  0.2039
   61HK4    C32 5059   3.547   0.803   3.833  0.1262 -0.3981 -0.2238
   61HK4    H16 5060   3.546   0.706   3.783 -0.0370 -0.5343  0.0414
   61HK4    C31 5061   3.502   0.909   3.755 -0.1065 -0.1326  0.2694
   61HK4    C34 5062   3.484   0.927   3.613  0.2680 -0.0347  0.2343
   61HK4    C33 5063   3.457   1.068   3.596 -1.0139 -0.2452  0.4462
   61HK4    C35 5064   3.435   1.104   3.463 -0.3998  0.3961  0.5092
   61HK4    H17 5065   3.434   1.207   3.430  0.7533 -0.0764 -1.0541
   61HK4    C36 5066   3.437   1.017   3.354  0.6106  0.1031  0.7565
   61HK4    H18 5067   3.416   1.059   3.255  1.1956 -3.3657 -0.9000
   61HK4    C37 5068   3.455   0.881   3.375 -0.3098 -0.0741  0.4234
   61HK4    H19 5069   3.420   0.804   3.306  0.3939 -0.7448  0.8118
   61HK4    C38 5070   3.483   0.839   3.505  0.5152 -0.0571  0.2511
   61HK4    H20 5071   3.532   0.743   3.520  0.3658 -0.0706  0.6396
   61HK4    C14 5072   3.641   0.969   4.159  0.5570  0.2802 -0.3905
   61HK4     C9 5073   3.744   0.888   4.210 -0.2631 -0.4288  0.1538
   61HK4     C8 5074   3.762   0.871   4.349 -0.1037 -0.0057  0.1858
   61HK4    C11 5075   3.683   0.947   4.434 -0.5937 -0.6046  0.2714
   61HK4     H4 5076   3.731   0.973   4.530  0.9613 -0.7451 -0.4482
   61HK4    C12 5077   3.587   1.036   4.388 -0.0961 -0.0049  0.3721
   61HK4     H5 5078   3.516   1.093   4.450 -1.0717 -0.3076 -0.4344
   61HK4    C13 5079   3.567   1.046   4.251  0.7763 -0.2368  0.2282
   61HK4     H6 5080   3.492   1.117   4.214 -1.2513 -1.3681  2.0601
   61HK4     C7 5081   3.842   0.758   4.401  0.1413  0.1012  0.0431
   61HK4     O2 5082   3.899   0.768   4.509  0.4894 -0.2228 -0.1057
   61HK4     C4 5083   3.885   0.652   4.306  0.2967  0.1940  0.0111
   61HK4     C3 5084   3.933   0.529   4.350  0.0239  0.0373 -0.1287
   61HK4     H3 5085   3.907   0.491   4.450 -1.3719  0.8454 -0.1714
   61HK4     C2 5086   3.985   0.432   4.266  0.1464 -0.1793  0.1956
   61HK4     H2 5087   4.018   0.333   4.302 -1.8365 -0.4863  1.2609
   61HK4     C1 5088   3.970   0.454   4.130  0.1548 -0.3035  0.1740
   61HK4     H1 5089   4.012   0.378   4.062  1.2055 -0.6190  1.1535
   61HK4     C6 5090   3.916   0.573   4.078 -0.2106 -0.4448  0.2321
   61HK4     C5 5091   3.885   0.676   4.167  0.1864 -0.0899 -0.0382
   61HK4    C10 5092   3.837   0.810   4.123  0.0852 -0.0528  0.1857
   61HK4     O1 5093   3.908   0.880   4.051  0.4717 -0.0515  0.5648
   61HK4    C16 5094   3.845   0.554   3.951 -0.3813  0.4849  0.1878
   61HK4    C15 5095   3.773   0.436   3.925  0.4813 -0.1069  0.4876
   61HK4     H7 5096   3.765   0.365   4.009  2.2322  0.0235  0.7887
   61HK4    C20 5097   3.731   0.402   3.797  0.3668  0.4028  0.3910
   61HK4     H9 5098   3.692   0.303   3.775 -1.5514  0.8555  1.5481
   61HK4    C19 5099   3.744   0.485   3.687 -0.0107  0.0002  0.0408
   61HK4    C18 5100   3.813   0.609   3.717  0.6537 -0.2853 -0.2925
   61HK4    C17 5101   3.862   0.641   3.843 -0.4647  0.2769  0.0079
   61HK4     H8 5102   3.929   0.725   3.857 -1.1655  0.7257  0.6977
   61HK4     N1 5103   3.839   0.678   3.596  0.5299  0.0853 -0.1084
   61HK4    C21 5104   3.791   0.598   3.491  0.0629 -0.2550  0.3663
   61HK4    C22 5105   3.736   0.474   3.542  0.2890 -0.4813  0.0614
   61HK4    C26 5106   3.675   0.392   3.448 -0.2634 -0.3084  0.2669
   61HK4    H13 5107   3.626   0.302   3.485  0.7900 -0.4205  1.4255
   61HK4    C25 5108   3.659   0.430   3.315  1.0372  0.1153  0.2238
   61HK4    H12 5109   3.639   0.351   3.242 -0.1246 -0.5414  1.2265
   61HK4    C24 5110   3.706   0.553   3.273  0.1946  0.4056  0.1267
   61HK4    H11 5111   3.652   0.591   3.184 -1.8596 -2.7081 -0.0120
   61HK4    C23 5112   3.780   0.635   3.358  0.1481  0.1033  0.4576
   61HK4    H10 5113   3.808   0.734   3.324  0.7302  0.2560  1.3611
   61HK4    C39 5114   3.897   0.806   3.591  0.0626  0.3010  0.0246
   61HK4    C41 5115   3.962   0.838   3.470 -0.0306 -0.1842 -0.1572
   61HK4    H21 5116   4.014   0.759   3.415  1.7455  1.0279 -0.2610
   61HK4    C42 5117   3.965   0.962   3.407  0.5782 -0.1353 -0.0307
   61HK4    H22 5118   4.030   0.987   3.321 -1.3520  0.5996 -1.2954
   61HK4    C43 5119   3.898   1.063   3.475 -0.0301 -0.6607  0.1547
   61HK4    H23 5120   3.891   1.162   3.431 -0.0714  0.2464  2.1306
   61HK4    C44 5121   3.844   1.047   3.602 -0.6088  0.0883  0.0063
   61HK4    H24 5122   3.827   1.133   3.668 -1.1233  0.8360 -1.1002
   61HK4    C45 5123   3.844   0.919   3.657 -0.0030  0.1695  0.1979
   61HK4    H25 5124   3.798   0.902   3.756 -1.7503  0.9222 -0.4777
   62HK4    H28 5125   0.825   0.279   5.349  1.1924 -0.2331  1.0399
   62HK4    C48 5126   0.842   0.175   5.323 -0.3738 -0.2523  0.0455
   62HK4    C47 5127   0.740   0.088   5.286 -0.1620 -0.3869 -0.2181
   62HK4    H27 5128   0.638   0.114   5.318 -0.1094  1.8536 -1.7503
   62HK4    C46 5129   0.771  11.213   5.228 -0.0339 -0.5024  0.0922
   62HK4    H26 5130   0.686  11.143   5.216 -0.5114  0.1280 -0.2573
   62HK4    C40 5131   0.903  11.170   5.207 -0.1068 -0.8824  0.3945
   62HK4    C50 5132   1.004   0.010   5.252 -0.3666 -0.0430 -0.6383
   62HK4    H30 5133   1.106  11.244   5.212 -0.2506 -0.5478 -0.1755
   62HK4    C49 5134   0.973   0.133   5.308 -0.3967 -0.1930 -0.3280
   62HK4    H29 5135   1.059   0.182   5.356 -0.1581 -1.1133  0.2137
   62HK4     N2 5136   0.945  11.075   5.113  0.0222  0.0937 -0.5538
   62HK4    C30 5137   0.863  11.018   5.013 -0.6739  0.1207 -0.0064
   62HK4    C29 5138   0.759  11.074   4.940 -0.2045  0.4837 -0.4078
   62HK4    H15 5139   0.696  11.144   4.996 -2.3171 -0.2968 -1.7639
   62HK4    C28 5140   0.710  11.020   4.822 -0.5198 -0.2181  0.0403
   62HK4    C27 5141   0.773  10.907   4.764  0.0262  0.0329  0.1418
   62HK4    H14 5142   0.736  10.866   4.669 -0.8808  2.7108 -0.7076
   62HK4    C32 5143   0.874  10.846   4.838 -0.2325 -0.4702  0.0797
   62HK4    H16 5144   0.928  10.756   4.810  0.8165 -0.2781  1.4673
   62HK4    C31 5145   0.923  10.899   4.956 -0.6477  0.1367 -0.0129
   62HK4    C34 5146   1.039  10.871   5.039  0.0341  0.0395 -1.0030
   62HK4    C33 5147   1.054  10.986   5.126 -0.1490 -0.1431 -0.7331
   62HK4    C35 5148   1.161  10.977   5.215 -0.0874 -0.1275 -0.8064
   62HK4    H17 5149   1.199  11.070   5.257 -1.2324  0.2247 -0.5141
   62HK4    C36 5150   1.244  10.866   5.214  0.1744  0.0464  0.4131
   62HK4    H18 5151   1.335  10.870   5.274  1.3742  0.4372 -1.3796
   62HK4    C37 5152   1.227  10.757   5.129  0.3725  0.4927 -0.2021
   62HK4    H19 5153   1.302  10.677   5.130  1.0680  1.1220  2.9357
   62HK4    C38 5154   1.120  10.759   5.040 -0.1958 -0.1087  0.4636
   62HK4    H20 5155   1.089  10.674   4.979  0.5495  1.8140 -2.6587
   62HK4    C14 5156   0.578  11.061   4.773 -0.3548  0.0265 -0.2018
   62HK4     C9 5157   0.495  10.970   4.706 -0.1486 -0.0964 -0.2899
   62HK4     C8 5158   0.400  11.009   4.609 -0.0419  0.2330 -0.2626
   62HK4    C11 5159   0.374  11.145   4.606 -0.4522  0.1593 -0.1604
   62HK4     H4 5160   0.294  11.178   4.539  0.0754  0.8186 -0.4779
   62HK4    C12 5161   0.449  11.241   4.675  0.0834 -0.1879 -0.2567
   62HK4     H5 5162   0.436   0.101   4.658 -3.6442 -0.5665 -0.4056
   62HK4    C13 5163   0.550  11.199   4.760  0.5177  0.1712 -0.5943
   62HK4     H6 5164   0.583   0.012   4.845 -3.4001  1.3691  0.1461
   62HK4     C7 5165   0.316  10.915   4.531  0.0035 -0.3630  0.4076
   62HK4     O2 5166   0.241  10.950   4.441  0.4402 -0.1007  0.1432
   62HK4     C4 5167   0.332  10.770   4.555  0.1088 -0.4452 -0.1453
   62HK4     C3 5168   0.256  10.675   4.487 -0.2484 -0.0237 -0.3403
   62HK4     H3 5169   0.200  10.704   4.397  1.6321  0.2575 -1.4444
   62HK4     C2 5170   0.251  10.539   4.517  0.2276  0.1620  0.6060
   62HK4     H2 5171   0.194  10.469   4.455 -1.1792 -0.5046  2.5831
   62HK4     C1 5172   0.337  10.494   4.617  0.2086 -0.4554  0.3489
   62HK4     H1 5173   0.349  10.387   4.638 -1.7600 -0.7383  0.0551
   62HK4     C6 5174   0.426  10.586   4.676  0.1333  0.0060 -0.2466
   62HK4     C5 5175   0.415  10.725   4.660 -0.0315  0.0421  0.1758
   62HK4    C10 5176   0.491  10.825   4.740  0.1910 -0.0295  0.0569
   62HK4     O1 5177   0.493  10.796   4.859  0.2734  0.5435  0.1980
   62HK4    C16 5178   0.526  10.510   4.753 -0.0333 -0.3304 -0.3615
   62HK4    C15 5179   0.658  10.558   4.760 -0.1053 -0.2161  0.2144
   62HK4     H7 5180   0.693  10.613   4.671 -0.1565 -1.1485 -0.3778
   62HK4    C20 5181   0.745  10.519   4.862 -0.0169  0.3993  0.3766
   62HK4     H9 5182   0.854  10.524   4.858  0.1047 -2.6864 -0.6684
   62HK4    C19 5183   0.697  10.439   4.965 -0.5081  0.1062 -0.0763
   62HK4    C18 5184   0.557  10.402   4.974 -0.3380 -0.7773 -0.9957
   62HK4    C17 5185   0.482  10.437   4.863 -0.8007  0.0348 -0.4259
   62HK4     H8 5186   0.377  10.407   4.859 -1.2145  1.2385  0.8485
   62HK4     N1 5187   0.537  10.310   5.079  0.0202  0.2221 -0.0455
   62HK4    C21 5188   0.665  10.274   5.127  0.0618  0.1420 -0.2138
   62HK4    C22 5189   0.763  10.364   5.070 -0.1550  0.5070 -0.0120
   62HK4    C26 5190   0.887  10.379   5.132 -0.1903  0.2104  0.1315
   62HK4    H13 5191   0.957  10.453   5.094 -0.2774  0.1945 -0.0589
   62HK4    C25 5192   0.910  10.304   5.247  0.1384  0.1172  0.0048
   62HK4    H12 5193   1.001  10.304   5.307  2.3874 -1.9881 -3.2358
   62HK4    C24 5194   0.821  10.211   5.300  0.8017 -0.7598 -0.4096
   62HK4    H11 5195   0.835  10.160   5.396 -0.0939  1.3950  0.9163
   62HK4    C23 5196   0.698  10.196   5.237  0.3580  0.7016  0.0942
   62HK4    H10 5197   0.625  10.121   5.269  2.0407 -0.2433  1.8386
   62HK4    C39 5198   0.418  10.315   5.152 -0.4567  0.2853 -0.8251
   62HK4    C41 5199   0.367  10.201   5.219  0.3536  0.3858 -0.0350
   62HK4    H21 5200   0.409  10.102   5.197 -1.7292 -0.2979 -1.0642
   62HK4    C42 5201   0.255  10.208   5.301  0.5959  0.1880  0.3135
   62HK4    H22 5202   0.208  10.123   5.351  1.1559 -1.0009 -1.1482
   62HK4    C43 5203   0.185  10.328   5.311  0.0996 -0.1081  0.3948
   62HK4    H23 5204   0.087  10.339   5.358 -0.1603  1.2482 -0.4459
   62HK4    C44 5205   0.233  10.442   5.248  0.0054 -0.0913  0.3569
   62HK4    H24 5206   0.178  10.534   5.270 -0.9329 -0.5667  0.0307
   62HK4    C45 5207   0.349  10.436   5.172 -0.1294  0.3220  0.1174
   62HK4    H25 5208   0.401  10.528   5.142  0.9901 -0.2100  0.4124
   63HK4    H28 5209   1.814   9.827   2.146  2.0313  1.7886  2.5082
   63HK4    C48 5210   1.856   9.880   2.061 -0.1885  0.2613  0.3889
   63HK4    C47 5211   1.988   9.922   2.074  0.2454 -0.7750 -0.6167
   63HK4    H27 5212   2.040   9.894   2.167 -1.2433 -0.4394  0.3284
   63HK4    C46 5213   2.051   9.992   1.972  0.3591 -0.1471 -0.1180
   63HK4    H26 5214   2.150  10.037   1.991  0.3100  0.3643 -1.0573
   63HK4    C40 5215   1.988  10.011   1.848 -0.4265  0.3011  0.3436
   63HK4    C50 5216   1.854   9.966   1.839 -0.5943  0.8513  0.0375
   63HK4    H30 5217   1.788   9.993   1.756  0.5514  0.2358 -1.0909
   63HK4    C49 5218   1.786   9.905   1.944  0.1922  0.1209  0.1317
   63HK4    H29 5219   1.683   9.867   1.941  0.4247 -0.6451  1.5841
   63HK4     N2 5220   2.051  10.086   1.747 -0.0806 -0.0706  0.2829
   63HK4    C30 5221   2.154  10.181   1.759 -0.4194  0.3532 -0.1444
   63HK4    C29 5222   2.224  10.237   1.865 -0.3349  0.5556 -0.3049
   63HK4    H15 5223   2.189  10.231   1.969  1.7771  1.3642  0.4621
   63HK4    C28 5224   2.336  10.317   1.849  0.1203  0.0150  0.1218
   63HK4    C27 5225   2.366  10.366   1.720 -0.9892  0.8711  0.1753
   63HK4    H14 5226   2.443  10.439   1.694  0.0598 -0.5660 -0.8441
   63HK4    C32 5227   2.296  10.318   1.610 -0.0022  0.2299 -0.1739
   63HK4    H16 5228   2.300  10.357   1.508 -0.6098 -0.5220 -0.4908
   63HK4    C31 5229   2.196  10.223   1.627  0.1489  0.0915 -0.0493
   63HK4    C34 5230   2.119  10.143   1.533  0.1551 -0.2675  0.2481
   63HK4    C33 5231   2.021  10.070   1.610  0.2108 -0.3386  0.2498
   63HK4    C35 5232   1.955   9.967   1.544  0.3239 -0.3792  0.1960
   63HK4    H17 5233   1.877   9.915   1.599 -0.5550  2.2552  1.5752
   63HK4    C36 5234   1.981   9.939   1.411 -0.2747  0.4441 -0.0975
   63HK4    H18 5235   1.917   9.877   1.346 -0.3524  1.5431 -1.0926
   63HK4    C37 5236   2.082  10.002   1.340  0.0074  0.0506 -0.0487
   63HK4    H19 5237   2.113   9.971   1.240 -1.8181 -2.0741 -0.0030
   63HK4    C38 5238   2.149  10.107   1.402 -0.2391  0.1560  0.0412
   63HK4    H20 5239   2.205  10.170   1.333 -0.9747 -1.8067 -2.4174
   63HK4    C14 5240   2.426  10.348   1.961  0.4464 -0.1230 -0.1025
   63HK4     C9 5241   2.510  10.460   1.968 -0.2102  0.3429  0.5152
   63HK4     C8 5242   2.627  10.460   2.046  0.3369  0.0899 -0.2966
   63HK4    C11 5243   2.655  10.348   2.124 -0.2751 -0.1173 -0.3753
   63HK4     H4 5244   2.737  10.343   2.197 -0.3615  1.6289 -0.1411
   63HK4    C12 5245   2.563  10.244   2.131 -0.1754 -0.1551  0.3859
   63HK4     H5 5246   2.574  10.168   2.210  1.9052 -1.2548 -0.9340
   63HK4    C13 5247   2.450  10.242   2.050  0.1331 -0.1425 -0.0411
   63HK4     H6 5248   2.383  10.156   2.061 -0.0104  0.0264  0.4080
   63HK4     C7 5249   2.731  10.561   2.015  0.1660  0.5365  0.5823
   63HK4     O2 5250   2.847  10.542   2.053  0.2381 -0.4982 -0.1407
   63HK4     C4 5251   2.707  10.661   1.909 -0.2785 -0.3781 -0.1821
   63HK4     C3 5252   2.811  10.717   1.835 -0.5907 -0.2834 -0.5493
   63HK4     H3 5253   2.917  10.694   1.850 -1.0033 -2.4526 -0.6621
   63HK4     C2 5254   2.787  10.820   1.745 -0.0706  0.0179 -0.3478
   63HK4     H2 5255   2.874  10.869   1.700 -0.0924 -0.2319 -0.6661
   63HK4     C1 5256   2.660  10.877   1.743 -0.0662  0.0248 -0.3109
   63HK4     H1 5257   2.639  10.955   1.669  0.1233  0.6471  0.2768
   63HK4     C6 5258   2.556  10.829   1.826  0.0782  0.3367  0.0549
   63HK4     C5 5259   2.575  10.707   1.891 -0.0937  0.1053 -0.3204
   63HK4    C10 5260   2.479  10.595   1.913  0.0271 -0.0601 -0.6350
   63HK4     O1 5261   2.360  10.624   1.925  0.1557  0.4388 -0.5398
   63HK4    C16 5262   2.435  10.912   1.829 -0.3932 -0.3403 -0.1526
   63HK4    C15 5263   2.369  10.923   1.953  0.7858  0.6431  0.3970
   63HK4     H7 5264   2.421  10.903   2.048 -0.6165  2.2129  1.5197
   63HK4    C20 5265   2.241  10.977   1.959  0.4590 -0.0989  0.1778
   63HK4     H9 5266   2.194  10.984   2.057 -0.6877 -1.6531 -0.2334
   63HK4    C19 5267   2.177  11.011   1.840  0.1583  0.2332  0.4359
   63HK4    C18 5268   2.240  10.986   1.712 -0.1796  0.4324  0.2299
   63HK4    C17 5269   2.372  10.943   1.708 -0.2832  0.1375 -0.0854
   63HK4     H8 5270   2.427  10.969   1.618 -0.6438  0.2801 -0.2650
   63HK4     N1 5271   2.153  11.005   1.603 -0.1566  0.3518  0.1979
   63HK4    C21 5272   2.040  11.066   1.661 -0.0639  0.7152 -0.0002
   63HK4    C22 5273   2.043  11.055   1.805  0.1005 -0.3549 -0.0795
   63HK4    C26 5274   1.935  11.100   1.880  0.1509 -0.1628 -0.1236
   63HK4    H13 5275   1.963  11.119   1.984 -1.0411  2.2619 -0.2318
   63HK4    C25 5276   1.817  11.140   1.820  0.0367  0.0402  0.2364
   63HK4    H12 5277   1.724  11.147   1.878  0.1540  1.0429  0.3228
   63HK4    C24 5278   1.812  11.146   1.682 -0.2089 -0.1062  0.2382
   63HK4    H11 5279   1.730  11.205   1.638  1.6104  2.2958 -0.0203
   63HK4    C23 5280   1.919  11.105   1.603 -0.4560 -0.3967  0.0501
   63HK4    H10 5281   1.906  11.098   1.495  0.4826 -0.2150 -0.0774
   63HK4    C39 5282   2.153  10.929   1.485 -0.7748  0.3426  0.2012
   63HK4    C41 5283   2.114  10.994   1.367 -0.6240 -0.2640 -0.1875
   63HK4    H21 5284   2.131  11.103   1.359 -1.8290 -0.0621 -0.0836
   63HK4    C42 5285   2.077  10.923   1.253 -0.2050  0.0244 -0.5081
   63HK4    H22 5286   2.032  10.983   1.172 -0.3969 -0.8809 -1.0759
   63HK4    C43 5287   2.076  10.784   1.253 -0.2196  0.0214 -0.6245
   63HK4    H23 5288   2.061  10.729   1.160  1.0899  0.3777 -1.0524
   63HK4    C44 5289   2.119  10.715   1.365 -0.2812  0.5689 -0.2678
   63HK4    H24 5290   2.113  10.606   1.375 -1.5087  0.4632 -1.9879
   63HK4    C45 5291   2.155  10.788   1.479 -0.5647  0.3567 -0.0416
   63HK4    H25 5292   2.179  10.728   1.568  1.4370  1.1404 -0.0350
   64HK4    H28 5293   5.828  10.416   1.084 -0.3509 -3.3584  0.4371
   64HK4    C48 5294   5.861  10.417   1.188 -0.2100 -0.3322  0.4174
   64HK4    C47 5295   5.844  10.308   1.274  0.0749 -0.5000  0.2642
   64HK4    H27 5296   5.843  10.206   1.232  1.3158 -1.0352  1.4971
   64HK4    C46 5297   5.865  10.324   1.410  0.1229 -0.2095  0.2245
   64HK4    H26 5298   5.883  10.228   1.461 -0.4645 -0.7685 -0.5972
   64HK4    C40 5299   5.916  10.445   1.462  0.3846 -0.0890 -0.3170
   64HK4    C50 5300   5.935  10.555   1.376 -0.3448  0.1198 -0.2137
   64HK4    H30 5301   5.977  10.650   1.413 -2.9024  1.2234 -0.0492
   64HK4    C49 5302   5.910  10.536   1.240  0.2346 -0.2078 -0.2772
   64HK4    H29 5303   5.933  10.621   1.174  3.9737  0.2223  1.4321
   64HK4     N2 5304   5.925  10.460   1.600 -0.1017  0.1863 -0.3128
   64HK4    C30 5305   5.852  10.389   1.698  0.6346 -0.3480 -0.1458
   64HK4    C29 5306   5.729  10.325   1.685  0.3665  0.0559  0.3842
   64HK4    H15 5307   5.676  10.343   1.592  3.9706 -0.1630 -1.8138
   64HK4    C28 5308   5.668  10.260   1.792  0.5692 -0.1380  0.3838
   64HK4    C27 5309   5.742  10.251   1.912 -0.0924  0.3990  0.8410
   64HK4    H14 5310   5.711  10.200   2.004  0.8817  0.7129  1.3479
   64HK4    C32 5311   5.860  10.323   1.929  0.2550 -0.0803  0.4852
   64HK4    H16 5312   5.913  10.322   2.024  1.1708  2.9717  0.0311
   64HK4    C31 5313   5.918  10.397   1.827 -0.1723 -0.0723  0.2497
   64HK4    C34 5314   6.033  10.484   1.816 -0.2795  0.0390 -0.0191
   64HK4    C33 5315   6.031  10.515   1.675  0.2393 -0.6414 -0.1781
   64HK4    C35 5316   6.154  10.563   1.630  0.0346  0.1921  0.1417
   64HK4    H17 5317   6.168  10.583   1.524  2.7935 -0.6356  0.3030
   64HK4    C36 5318   6.268  10.577   1.709  0.2162  0.3003 -0.1413
   64HK4    H18 5319   6.364  10.595   1.658 -0.9691 -1.0961 -2.9544
   64HK4    C37 5320   6.266  10.544   1.844 -0.0077  0.2289 -0.1618
   64HK4    H19 5321   6.357  10.531   1.902 -1.2578  1.2220  2.0968
   64HK4    C38 5322   6.146  10.498   1.897 -0.2078  0.6676 -0.2301
   64HK4    H20 5323   6.142  10.485   2.005 -1.0155  1.3826 -0.1659
   64HK4    C14 5324   5.524  10.234   1.788  0.5500  0.0729 -0.2206
   64HK4     C9 5325   5.439  10.227   1.899  0.0585  0.1613 -0.5878
   64HK4     C8 5326   5.344  10.123   1.912  0.4335 -0.0916  0.1133
   64HK4    C11 5327   5.316  10.050   1.797 -0.6573  0.4239  0.0498
   64HK4     H4 5328   5.252   9.960   1.798  0.5775 -0.4798 -0.1174
   64HK4    C12 5329   5.390  10.069   1.681 -0.2898  0.2534  0.2535
   64HK4     H5 5330   5.378   9.994   1.602 -1.6244  1.1802 -0.4450
   64HK4    C13 5331   5.491  10.164   1.670 -0.2643  0.1892 -0.0637
   64HK4     H6 5332   5.536  10.170   1.570  2.6229  0.2664  1.2102
   64HK4     C7 5333   5.277  10.099   2.042 -0.0387 -0.3585 -0.1810
   64HK4     O2 5334   5.166  10.047   2.049 -0.2543  0.2013  0.6138
   64HK4     C4 5335   5.319  10.177   2.160  0.0368  0.0124 -0.4532
   64HK4     C3 5336   5.268  10.140   2.284 -0.3140  0.6508 -0.4020
   64HK4     H3 5337   5.192  10.061   2.297  1.6136 -1.1303  0.3979
   64HK4     C2 5338   5.298  10.215   2.397  0.1922  0.3633 -0.3445
   64HK4     H2 5339   5.271  10.177   2.496  1.3605 -0.4602 -0.3409
   64HK4     C1 5340   5.386  10.322   2.382 -0.3030  0.8917  0.4242
   64HK4     H1 5341   5.395  10.380   2.475 -1.4652  1.3843  0.2253
   64HK4     C6 5342   5.454  10.356   2.263 -0.3434 -0.4743  0.0007
   64HK4     C5 5343   5.404  10.290   2.150  0.3982 -0.2603 -0.4579
   64HK4    C10 5344   5.453  10.321   2.013 -0.0663  0.1190 -0.5378
   64HK4     O1 5345   5.478  10.439   1.990  0.1053 -0.0180 -1.0531
   64HK4    C16 5346   5.597  10.387   2.277 -0.4881  0.2102 -0.0141
   64HK4    C15 5347   5.671  10.311   2.369 -0.4297  0.2362 -0.0404
   64HK4     H7 5348   5.628  10.224   2.422 -1.1464  0.1304 -0.7897
   64HK4    C20 5349   5.801  10.352   2.399 -0.3267 -0.0134 -0.1586
   64HK4     H9 5350   5.853  10.308   2.484 -1.8728 -0.7304  0.4398
   64HK4    C19 5351   5.861  10.460   2.335  0.2496 -0.0044  0.3951
   64HK4    C18 5352   5.780  10.546   2.252  0.5124 -0.4636 -0.3352
   64HK4    C17 5353   5.651  10.502   2.222  0.2255 -0.0094  0.2295
   64HK4     H8 5354   5.588  10.574   2.170  0.7740  3.0606  3.5515
   64HK4     N1 5355   5.847  10.667   2.225 -0.0276 -0.0414  0.2118
   64HK4    C21 5356   5.972  10.661   2.289  0.2542  0.0795 -0.3222
   64HK4    C22 5357   5.978  10.539   2.368  0.0751  0.3615  0.1340
   64HK4    C26 5358   6.073  10.534   2.469 -0.0320  0.4683  0.2389
   64HK4    H13 5359   6.046  10.476   2.558 -1.4296  0.7903  0.0393
   64HK4    C25 5360   6.170  10.632   2.486  0.0349  0.4043  0.2123
   64HK4    H12 5361   6.239  10.629   2.570 -0.1935 -0.7888  0.3606
   64HK4    C24 5362   6.170  10.743   2.402  0.0558  0.1207 -0.1671
   64HK4    H11 5363   6.237  10.828   2.422  0.8928 -1.3071  3.6546
   64HK4    C23 5364   6.073  10.756   2.303  0.0477  0.2749 -0.1397
   64HK4    H10 5365   6.075  10.833   2.226  0.6774  0.8006  0.3977
   64HK4    C39 5366   5.806  10.757   2.126  0.6095 -0.0777 -0.0833
   64HK4    C41 5367   5.850  10.891   2.140 -0.1984  0.1870 -0.0433
   64HK4    H21 5368   5.829  10.942   2.235  2.1061  0.4896  0.3353
   64HK4    C42 5369   5.879  10.968   2.028  0.2768 -0.0882 -0.1137
   64HK4    H22 5370   5.926  11.067   2.040  0.4522  0.0765 -2.0461
   64HK4    C43 5371   5.857  10.915   1.902 -0.2415  0.0008 -0.0627
   64HK4    H23 5372   5.877  10.976   1.813  0.5681 -0.6807 -0.3556
   64HK4    C44 5373   5.808  10.787   1.882  0.6007 -0.2612 -0.4889
   64HK4    H24 5374   5.791  10.740   1.784  0.4697  1.2748 -1.2122
   64HK4    C45 5375   5.783  10.710   1.995  0.3749  0.2832 -0.1709
   64HK4    H25 5376   5.733  10.613   1.985 -0.9851  0.7728  1.6626
   65HK4    H28 5377   9.153   5.012   4.279  0.4134 -0.2675 -0.2761
   65HK4    C48 5378   9.246   5.065   4.300  0.0522  0.1704  0.2229
   65HK4    C47 5379   9.314   5.036   4.418 -0.2272 -0.0520  0.3312
   65HK4    H27 5380   9.275   4.961   4.489 -1.7929  0.7036  0.2900
   65HK4    C46 5381   9.415   5.118   4.466 -0.2133  0.0410  0.1446
   65HK4    H26 5382   9.478   5.087   4.551 -0.1028 -0.3057 -0.0616
   65HK4    C40 5383   9.459   5.228   4.391  0.5094 -0.4083 -0.0882
   65HK4    C50 5384   9.382   5.257   4.276 -0.4101 -0.6035  0.4769
   65HK4    H30 5385   9.392   5.355   4.228  0.3064 -0.4588  0.9176
   65HK4    C49 5386   9.273   5.183   4.232 -0.9102  0.3391  0.1293
   65HK4    H29 5387   9.196   5.227   4.168 -1.7929  1.7074  2.0715
   65HK4     N2 5388   9.543   5.322   4.451  0.4865 -0.1603 -0.4417
   65HK4    C30 5389   9.640   5.399   4.383  0.4672  0.3955  0.1484
   65HK4    C29 5390   9.687   5.379   4.254 -0.3539  0.6175 -0.1947
   65HK4    H15 5391   9.628   5.326   4.179 -2.3842  2.1134  0.3300
   65HK4    C28 5392   9.807   5.438   4.216  0.2052 -0.3872 -0.0154
   65HK4    C27 5393   9.864   5.531   4.306 -0.0811 -0.1898 -0.0366
   65HK4    H14 5394   9.961   5.577   4.281  0.9600 -1.8152  0.9023
   65HK4    C32 5395   9.813   5.563   4.431  0.3794  0.2117  0.0520
   65HK4    H16 5396   9.876   5.614   4.502 -0.9992  2.1516 -0.0811
   65HK4    C31 5397   9.689   5.508   4.464  0.5288  0.1320  0.4647
   65HK4    C34 5398   9.596   5.521   4.574 -0.5404  0.1230 -0.4340
   65HK4    C33 5399   9.518   5.399   4.567 -0.1229 -0.1364 -0.5905
   65HK4    C35 5400   9.420   5.384   4.665  0.7332  0.6653  0.3914
   65HK4    H17 5401   9.374   5.286   4.678  0.8098  0.6668  0.6716
   65HK4    C36 5402   9.394   5.487   4.755 -0.8341  0.3400  0.3267
   65HK4    H18 5403   9.344   5.454   4.847 -0.6310 -0.1746  0.2543
   65HK4    C37 5404   9.473   5.601   4.761  0.1734 -0.3426  0.2243
   65HK4    H19 5405   9.433   5.678   4.826 -0.4327 -1.0675  0.7187
   65HK4    C38 5406   9.580   5.617   4.674  0.3433 -0.5756  0.3896
   65HK4    H20 5407   9.631   5.713   4.669  2.5309 -1.7823 -2.1132
   65HK4    C14 5408   9.890   5.378   4.110  0.2321 -0.2350 -0.0779
   65HK4     C9 5409  10.028   5.356   4.123  0.2462  0.0780  0.3210
   65HK4     C8 5410  10.112   5.354   4.011 -0.0086 -0.2292  0.1360
   65HK4    C11 5411  10.055   5.362   3.884  0.0130 -0.2146  0.1273
   65HK4     H4 5412  10.119   5.376   3.796 -0.9269 -0.4718 -0.6075
   65HK4    C12 5413   9.917   5.379   3.873  0.1357  1.0391  0.4682
   65HK4     H5 5414   9.871   5.385   3.773 -1.2836  0.4289  1.0759
   65HK4    C13 5415   9.832   5.386   3.982 -0.3363 -0.1851  0.1822
   65HK4     H6 5416   9.726   5.408   3.962 -0.0428  1.4505  0.3437
   65HK4     C7 5417  10.258   5.336   4.032  0.0179 -0.4043 -0.1874
   65HK4     O2 5418  10.331   5.328   3.934  0.0439 -0.0759 -0.1959
   65HK4     C4 5419  10.324   5.348   4.164 -0.0642 -0.3797 -0.1490
   65HK4     C3 5420  10.462   5.348   4.171 -0.0687  0.8763  0.2914
   65HK4     H3 5421  10.515   5.288   4.095  0.2782 -0.4293  1.5452
   65HK4     C2 5422  10.523   5.388   4.289  0.8372 -0.2641  0.2291
   65HK4     H2 5423  10.632   5.388   4.306  0.8276 -0.3702  0.2888
   65HK4     C1 5424  10.435   5.427   4.389 -0.1236 -1.2418 -0.2173
   65HK4     H1 5425  10.473   5.442   4.492 -1.0747 -1.5150  0.1847
   65HK4     C6 5426  10.294   5.423   4.390 -0.1435 -0.6679  0.5325
   65HK4     C5 5427  10.237   5.370   4.273  0.3610 -0.5419  0.2207
   65HK4    C10 5428  10.091   5.343   4.258  0.3364 -0.4209  0.2305
   65HK4     O1 5429  10.032   5.270   4.337 -0.7196  0.0416 -0.1129
   65HK4    C16 5430  10.218   5.507   4.482  0.1154  0.0580  0.0846
   65HK4    C15 5431  10.276   5.625   4.536  0.2675 -0.1853  0.4600
   65HK4     H7 5432  10.359   5.671   4.480  1.0348 -1.4078  0.5709
   65HK4    C20 5433  10.229   5.684   4.652 -0.0950  0.1595  0.1416
   65HK4     H9 5434  10.275   5.773   4.696  0.6404  0.2356 -0.7729
   65HK4    C19 5435  10.133   5.622   4.732 -0.1457  0.3581  0.2373
   65HK4    C18 5436  10.078   5.495   4.688  0.3045  0.2271  0.0484
   65HK4    C17 5437  10.121   5.450   4.564 -0.0422  0.1434 -0.0418
   65HK4     H8 5438  10.081   5.351   4.543  0.0263  0.3843 -1.3347
   65HK4     N1 5439   9.988   5.441   4.783 -0.4268  0.5295 -0.4637
   65HK4    C21 5440   9.984   5.537   4.886 -0.4946 -0.2190  0.2275
   65HK4    C22 5441  10.070   5.650   4.859 -0.4029 -0.2832  0.2538
   65HK4    C26 5442  10.090   5.758   4.945 -0.3467  0.1881 -0.3450
   65HK4    H13 5443  10.165   5.836   4.936  1.6705 -1.5860  0.5787
   65HK4    C25 5444  10.022   5.760   5.067 -0.0820  0.2314 -0.1969
   65HK4    H12 5445  10.039   5.840   5.138  1.4013  0.4486 -0.7660
   65HK4    C24 5446   9.940   5.651   5.093  0.5809 -0.3824 -0.6446
   65HK4    H11 5447   9.875   5.665   5.180  1.9164  2.2441 -0.0392
   65HK4    C23 5448   9.925   5.538   5.012 -0.2800 -0.9821  0.3405
   65HK4    H10 5449   9.875   5.446   5.042 -0.0807 -1.6780 -1.4275
   65HK4    C39 5450   9.944   5.309   4.794 -0.2686  0.5046 -0.1004
   65HK4    C41 5451  10.009   5.192   4.751 -0.1138  0.4450  0.3039
   65HK4    H21 5452  10.114   5.207   4.723  0.0465  1.2026  1.2727
   65HK4    C42 5453   9.950   5.066   4.754  0.4504  0.1746  0.0195
   65HK4    H22 5454  10.003   4.977   4.716  1.0122  0.4967  0.0506
   65HK4    C43 5455   9.819   5.050   4.796  0.4045  0.3148 -0.0512
   65HK4    H23 5456   9.776   4.950   4.809  1.7891 -0.2539  0.1647
   65HK4    C44 5457   9.750   5.163   4.838  0.4076  0.0993  0.5239
   65HK4    H24 5458   9.647   5.147   4.873  1.1121 -0.5282  2.3648
   65HK4    C45 5459   9.811   5.288   4.837 -0.1898  0.3874  0.0898
   65HK4    H25 5460   9.755   5.372   4.880  0.1145  0.5858  0.0939
   66HK4    H28 5461   4.667   1.373   7.609 -0.7459  2.8387  2.9791
   66HK4    C48 5462   4.567   1.330   7.621  0.1392 -0.4079 -0.3458
   66HK4    C47 5463   4.463   1.396   7.558  0.2138  0.0890  0.0513
   66HK4    H27 5464   4.482   1.495   7.515  1.1955 -0.5350 -0.9734
   66HK4    C46 5465   4.333   1.351   7.577  0.2954 -0.1905 -0.0583
   66HK4    H26 5466   4.242   1.396   7.534  0.0590  1.3409  1.9908
   66HK4    C40 5467   4.305   1.231   7.647 -0.2590  0.0560  0.1447
   66HK4    C50 5468   4.417   1.161   7.697  0.0151  0.0690 -0.4416
   66HK4    H30 5469   4.390   1.058   7.723 -2.1569  0.6807 -0.1278
   66HK4    C49 5470   4.547   1.210   7.690  0.0932 -0.0275  0.3035
   66HK4    H29 5471   4.625   1.143   7.727 -0.1741 -0.1658  0.6123
   66HK4     N2 5472   4.181   1.167   7.651 -0.1419 -0.2208 -0.5527
   66HK4    C30 5473   4.091   1.184   7.543 -0.2162 -0.2653 -0.4968
   66HK4    C29 5474   4.117   1.163   7.408  0.0282 -0.6150 -0.3977
   66HK4    H15 5475   4.220   1.171   7.374 -0.6844  2.3863 -2.0938
   66HK4    C28 5476   4.020   1.138   7.312  0.1073  0.1893 -0.6902
   66HK4    C27 5477   3.886   1.145   7.358  0.2500 -0.0934 -0.2316
   66HK4    H14 5478   3.806   1.139   7.283  0.1376 -0.2312 -0.0998
   66HK4    C32 5479   3.856   1.169   7.491 -0.1518 -0.4050 -0.2668
   66HK4    H16 5480   3.750   1.174   7.515 -0.2993  2.5150 -1.3329
   66HK4    C31 5481   3.953   1.185   7.589 -0.1399 -0.4935 -0.2630
   66HK4    C34 5482   3.963   1.167   7.733 -0.1212 -0.1951 -0.2270
   66HK4    C33 5483   4.102   1.140   7.764 -0.0758 -0.3097 -0.5271
   66HK4    C35 5484   4.137   1.110   7.895 -0.5223 -0.6342 -0.4806
   66HK4    H17 5485   4.242   1.099   7.919 -0.7790 -1.5333  0.2922
   66HK4    C36 5486   4.039   1.110   7.995  0.0838 -0.2587  0.1208
   66HK4    H18 5487   4.055   1.084   8.101 -1.2075 -0.7602  0.1926
   66HK4    C37 5488   3.904   1.127   7.968  0.0805  0.1669  0.4207
   66HK4    H19 5489   3.829   1.154   8.043 -1.4290  0.5275 -1.1786
   66HK4    C38 5490   3.871   1.155   7.836  0.3197 -1.3930  0.0263
   66HK4    H20 5491   3.767   1.149   7.802  0.3931  1.2355 -0.7082
   66HK4    C14 5492   4.054   1.150   7.170  0.5022  1.1176 -0.5256
   66HK4     C9 5493   3.969   1.202   7.071 -0.3064  0.0566 -0.3950
   66HK4     C8 5494   3.980   1.159   6.937  0.4373  0.7813 -0.5684
   66HK4    C11 5495   4.084   1.077   6.896  0.1695  0.1514  0.0061
   66HK4     H4 5496   4.096   1.062   6.788 -0.2663  1.8245 -0.2846
   66HK4    C12 5497   4.170   1.027   6.993  0.1590  0.5516  0.2232
   66HK4     H5 5498   4.229   0.936   6.970 -0.4228  0.6914 -1.9840
   66HK4    C13 5499   4.156   1.063   7.126  0.2363  0.3984  0.2735
   66HK4     H6 5500   4.222   1.012   7.198  0.1851 -1.2430 -0.7983
   66HK4     C7 5501   3.863   1.188   6.852 -0.5029 -0.1208  0.4051
   66HK4     O2 5502   3.863   1.161   6.732 -0.0232  0.6346  0.2316
   66HK4     C4 5503   3.757   1.277   6.905 -0.3781  0.0989  0.2863
   66HK4     C3 5504   3.649   1.308   6.823  0.1016  0.4028 -0.2318
   66HK4     H3 5505   3.637   1.263   6.723  0.8170 -1.7492  0.6153
   66HK4     C2 5506   3.561   1.411   6.852 -0.3460  0.0061 -0.1704
   66HK4     H2 5507   3.521   1.459   6.761  0.5359  1.4586  0.1946
   66HK4     C1 5508   3.581   1.482   6.970 -0.3614 -0.3887  0.0691
   66HK4     H1 5509   3.505   1.555   7.003  0.6667  0.5537  0.3772
   66HK4     C6 5510   3.688   1.458   7.059 -0.0493  0.0888 -0.1755
   66HK4     C5 5511   3.775   1.355   7.021  0.0031 -0.0540  0.3307
   66HK4    C10 5512   3.901   1.331   7.098  0.1122  0.1536  0.2163
   66HK4     O1 5513   3.970   1.423   7.141 -0.5108  0.2214  1.0976
   66HK4    C16 5514   3.688   1.535   7.184 -0.1414 -0.2115  0.0135
   66HK4    C15 5515   3.733   1.484   7.307 -0.2734 -0.5339 -0.0726
   66HK4     H7 5516   3.732   1.374   7.315 -3.9314 -0.7279 -2.0360
   66HK4    C20 5517   3.746   1.556   7.424 -0.3953 -0.3362 -0.1814
   66HK4     H9 5518   3.801   1.515   7.509 -0.3262 -1.7455 -0.9070
   66HK4    C19 5519   3.713   1.691   7.423  0.0406 -0.2223  0.3591
   66HK4    C18 5520   3.666   1.752   7.300  0.1651 -0.5158  0.1676
   66HK4    C17 5521   3.657   1.671   7.187  0.3336 -0.0989 -0.1462
   66HK4     H8 5522   3.645   1.724   7.093  0.5370  1.6211  0.7704
   66HK4     N1 5523   3.625   1.886   7.316 -0.2496 -0.5940 -0.2108
   66HK4    C21 5524   3.641   1.912   7.454  0.6119  0.3544 -0.4865
   66HK4    C22 5525   3.694   1.796   7.522  0.1597  0.3213 -0.1886
   66HK4    C26 5526   3.738   1.808   7.654 -0.0091 -0.9358 -0.0131
   66HK4    H13 5527   3.739   1.722   7.721 -2.1956  0.4882  1.8869
   66HK4    C25 5528   3.735   1.932   7.716  0.2908 -0.7337 -0.3967
   66HK4    H12 5529   3.786   1.936   7.812 -0.3562 -1.0446 -0.0344
   66HK4    C24 5530   3.682   2.046   7.658 -0.1527 -0.6166  0.2315
   66HK4    H11 5531   3.696   2.138   7.716  0.4020 -0.3679 -0.2901
   66HK4    C23 5532   3.636   2.030   7.528  0.1236 -0.0040  0.0551
   66HK4    H10 5533   3.602   2.119   7.475  0.1460 -0.4865 -0.7919
   66HK4    C39 5534   3.572   1.976   7.223 -0.2162 -0.2764  0.0760
   66HK4    C41 5535   3.489   2.081   7.267 -0.6141 -0.1653 -0.9182
   66HK4    H21 5536   3.407   2.046   7.332  0.3881 -4.4089 -1.7697
   66HK4    C42 5537   3.479   2.200   7.196  0.6173  0.7952  0.4672
   66HK4    H22 5538   3.397   2.269   7.218  0.0957  0.3774 -0.1116
   66HK4    C43 5539   3.544   2.210   7.073 -0.0841 -0.1605  0.0030
   66HK4    H23 5540   3.521   2.294   7.007  0.2218  1.3623  1.7686
   66HK4    C44 5541   3.627   2.109   7.027 -0.2300 -0.4416  0.3558
   66HK4    H24 5542   3.690   2.131   6.939  1.8332 -1.8901  1.4314
   66HK4    C45 5543   3.638   1.991   7.099  0.8071 -0.1780  0.6306
   66HK4    H25 5544   3.720   1.922   7.073  0.9842 -0.5041  1.9700
   67HK4    H28 5545   4.429   2.708   6.418  1.5138 -0.8779 -1.6305
   67HK4    C48 5546   4.370   2.617   6.431 -0.4220  0.5553 -0.1473
   67HK4    C47 5547   4.377   2.508   6.346 -0.1445  0.0464  0.5223
   67HK4    H27 5548   4.438   2.516   6.255 -0.4507 -0.0482  0.3053
   67HK4    C46 5549   4.282   2.407   6.355 -0.5275  0.2905 -0.6237
   67HK4    H26 5550   4.289   2.335   6.272  2.6835 -0.3641  0.1200
   67HK4    C40 5551   4.172   2.412   6.443  0.1769 -0.0055  0.2846
   67HK4    C50 5552   4.161   2.531   6.517 -0.2657 -0.0098  0.2289
   67HK4    H30 5553   4.063   2.557   6.559 -0.2595  0.9765 -0.3549
   67HK4    C49 5554   4.261   2.629   6.516 -0.5274  0.2539 -0.2459
   67HK4    H29 5555   4.262   2.695   6.603 -3.0498  1.8807 -1.3783
   67HK4     N2 5556   4.071   2.315   6.439  0.1452  0.0461 -0.1733
   67HK4    C30 5557   4.061   2.215   6.340 -0.2801 -0.3148  0.2347
   67HK4    C29 5558   4.071   2.224   6.202  0.4929 -0.3997  0.2825
   67HK4    H15 5559   4.077   2.327   6.166  2.1030 -0.0489  1.4739
   67HK4    C28 5560   4.046   2.125   6.108  0.3962  0.1357 -0.2614
   67HK4    C27 5561   3.995   2.006   6.164  0.8078 -0.2024 -0.6023
   67HK4    H14 5562   3.962   1.929   6.092 -0.3385  0.0616 -0.3619
   67HK4    C32 5563   3.983   1.990   6.302  0.6146  0.0489 -0.5899
   67HK4    H16 5564   3.953   1.892   6.339 -0.3807  0.9834  1.1357
   67HK4    C31 5565   4.020   2.087   6.395 -0.6084 -0.2280  0.1963
   67HK4    C34 5566   4.000   2.111   6.537  0.5035 -0.0998  0.3368
   67HK4    C33 5567   4.027   2.252   6.557 -0.1992  0.1236 -0.2594
   67HK4    C35 5568   4.001   2.304   6.683 -0.4926  0.2538 -0.3740
   67HK4    H17 5569   4.049   2.398   6.711  1.6327 -1.0196  0.3739
   67HK4    C36 5570   3.951   2.220   6.782  0.8407 -0.4630 -0.2932
   67HK4    H18 5571   3.936   2.262   6.883 -1.3258 -2.8920  0.4497
   67HK4    C37 5572   3.925   2.085   6.760 -0.1869 -0.2920 -0.1620
   67HK4    H19 5573   3.920   2.020   6.847  0.9962  0.3973  0.4454
   67HK4    C38 5574   3.945   2.029   6.635  0.3494 -0.4284 -0.0196
   67HK4    H20 5575   3.934   1.922   6.618 -0.5032 -0.4139  0.4339
   67HK4    C14 5576   4.034   2.154   5.965 -0.3018 -0.2577 -0.2901
   67HK4     C9 5577   3.933   2.105   5.882 -0.0642 -0.3909 -0.5042
   67HK4     C8 5578   3.952   2.100   5.743  0.3914 -0.6095 -0.4347
   67HK4    C11 5579   4.075   2.139   5.690  0.3674 -0.4446 -0.3715
   67HK4     H4 5580   4.076   2.173   5.585 -1.5120 -2.1896 -0.9864
   67HK4    C12 5581   4.179   2.184   5.769 -0.5475  0.3416  0.3930
   67HK4     H5 5582   4.280   2.204   5.730 -0.2129 -2.4442 -0.2027
   67HK4    C13 5583   4.158   2.190   5.906 -0.2646  0.7933  0.4214
   67HK4     H6 5584   4.239   2.209   5.978 -1.5031  1.7214  1.5827
   67HK4     C7 5585   3.848   2.044   5.653 -0.2407 -0.2582  0.0763
   67HK4     O2 5586   3.826   2.114   5.555  0.5496 -0.4417 -0.2366
   67HK4     C4 5587   3.746   1.954   5.712 -0.0255 -0.4306  0.1864
   67HK4     C3 5588   3.685   1.863   5.625 -0.4042  0.0306 -0.0336
   67HK4     H3 5589   3.697   1.873   5.517 -0.6765 -3.2402 -0.4165
   67HK4     C2 5590   3.608   1.767   5.689  0.1561 -0.4980 -0.1436
   67HK4     H2 5591   3.542   1.693   5.641 -1.4299 -0.0059  1.2143
   67HK4     C1 5592   3.586   1.762   5.826  0.1346 -0.0698 -0.1301
   67HK4     H1 5593   3.522   1.683   5.867  2.5669 -2.3838 -0.6995
   67HK4     C6 5594   3.645   1.856   5.913  0.2484 -0.3870  0.1380
   67HK4     C5 5595   3.723   1.955   5.851 -0.3421  0.0736  0.1291
   67HK4    C10 5596   3.803   2.051   5.932  0.1510 -0.3320  0.1286
   67HK4     O1 5597   3.752   2.129   6.012  0.3026 -0.1752  0.0726
   67HK4    C16 5598   3.675   1.808   6.048  0.0485 -0.0607  0.3006
   67HK4    C15 5599   3.737   1.682   6.064 -0.2112 -0.1583  0.5308
   67HK4     H7 5600   3.749   1.613   5.979 -1.7988 -0.0782  0.2218
   67HK4    C20 5601   3.780   1.640   6.190  0.1817 -0.4444  0.3013
   67HK4     H9 5602   3.827   1.541   6.193 -0.4156 -0.7573 -0.4293
   67HK4    C19 5603   3.754   1.717   6.302  0.1248  0.1198 -0.0990
   67HK4    C18 5604   3.668   1.833   6.289 -0.1934 -0.1072 -0.0143
   67HK4    C17 5605   3.633   1.875   6.162 -0.2093  0.1547  0.0771
   67HK4     H8 5606   3.557   1.952   6.148 -0.2129  0.3683  1.2168
   67HK4     N1 5607   3.641   1.892   6.414 -0.1370  0.2739 -0.1824
   67HK4    C21 5608   3.701   1.807   6.509 -0.2511  0.3366 -0.0540
   67HK4    C22 5609   3.779   1.704   6.444 -0.1081  0.4277 -0.0277
   67HK4    C26 5610   3.843   1.608   6.522  0.0296  0.3911 -0.1853
   67HK4    H13 5611   3.902   1.528   6.477  1.1307  0.6778  0.7228
   67HK4    C25 5612   3.840   1.619   6.661  0.1074 -0.1727 -0.1373
   67HK4    H12 5613   3.897   1.549   6.722  0.5452 -0.1120 -0.4713
   67HK4    C24 5614   3.765   1.718   6.724 -0.1218 -0.1504 -0.4450
   67HK4    H11 5615   3.765   1.722   6.834 -1.3799 -1.3416 -0.3820
   67HK4    C23 5616   3.687   1.804   6.648  0.0967  0.4343 -0.0138
   67HK4    H10 5617   3.604   1.857   6.694  0.2532  1.6371 -1.1014
   67HK4    C39 5618   3.609   2.028   6.426  0.0307  0.3046 -0.0803
   67HK4    C41 5619   3.531   2.073   6.535  0.0394  0.2998 -0.0717
   67HK4    H21 5620   3.471   2.001   6.592  0.2281 -1.2894 -1.8342
   67HK4    C42 5621   3.523   2.208   6.564  0.0390  0.2170  0.3115
   67HK4    H22 5622   3.433   2.229   6.624 -0.9921 -0.7627 -0.8874
   67HK4    C43 5623   3.587   2.307   6.490 -0.5736 -0.0444 -0.5740
   67HK4    H23 5624   3.566   2.411   6.515  1.4767  0.1083  0.6835
   67HK4    C44 5625   3.670   2.264   6.387  0.3400  0.1250  0.0848
   67HK4    H24 5626   3.757   2.326   6.360  0.2106  1.0288  1.6879
   67HK4    C45 5627   3.671   2.130   6.351 -0.2699  0.2530 -0.3984
   67HK4    H25 5628   3.722   2.108   6.256 -1.2544 -0.1681 -0.8441
   68HK4    H28 5629   4.803   2.065   5.614 -0.2416  1.2311  0.2982
   68HK4    C48 5630   4.702   2.023   5.616  0.1216  0.3514  0.1752
   68HK4    C47 5631   4.675   1.916   5.701  0.2008  0.1290 -0.0783
   68HK4    H27 5632   4.756   1.869   5.758 -0.9386 -1.3218  0.3732
   68HK4    C46 5633   4.545   1.871   5.722  0.0827  0.7370  0.5296
   68HK4    H26 5634   4.531   1.787   5.792 -0.6461  0.2016 -0.2504
   68HK4    C40 5635   4.435   1.918   5.648  0.2106 -0.4656 -0.4315
   68HK4    C50 5636   4.465   2.030   5.568 -0.5722  0.1643  0.1592
   68HK4    H30 5637   4.389   2.079   5.505 -0.2334  0.0790 -0.3177
   68HK4    C49 5638   4.593   2.083   5.555 -0.4213 -0.0593  0.7353
   68HK4    H29 5639   4.622   2.162   5.484  2.3789 -0.7632  1.0308
   68HK4     N2 5640   4.308   1.874   5.686  0.1982  0.1211  0.1953
   68HK4    C30 5641   4.261   1.825   5.810 -0.0171 -0.2127 -0.0180
   68HK4    C29 5642   4.305   1.860   5.937 -0.1095 -0.3713  0.0591
   68HK4    H15 5643   4.391   1.927   5.945 -1.8481  2.2080 -1.8960
   68HK4    C28 5644   4.248   1.806   6.051 -0.3098  0.1230  0.1963
   68HK4    C27 5645   4.141   1.714   6.037 -0.1004 -0.1208  0.1923
   68HK4    H14 5646   4.097   1.652   6.117  0.6594  1.6432  2.0405
   68HK4    C32 5647   4.084   1.687   5.914 -0.0160  0.3845  0.0398
   68HK4    H16 5648   3.997   1.623   5.899  1.8135 -2.1721 -0.0855
   68HK4    C31 5649   4.140   1.746   5.801 -0.1256 -0.0231 -0.2288
   68HK4    C34 5650   4.108   1.753   5.660  0.3261  0.3660 -0.3114
   68HK4    C33 5651   4.206   1.839   5.596  0.6547  0.0176 -0.2820
   68HK4    C35 5652   4.179   1.873   5.464 -0.0981  0.2708 -0.0661
   68HK4    H17 5653   4.247   1.936   5.407 -0.2518 -0.8901 -1.5725
   68HK4    C36 5654   4.064   1.831   5.397 -0.1378  0.1426  0.0804
   68HK4    H18 5655   4.048   1.857   5.291  3.0188 -0.5361 -0.6172
   68HK4    C37 5656   3.974   1.745   5.458 -0.2990  0.0764 -0.2551
   68HK4    H19 5657   3.878   1.721   5.412 -0.2172  0.9893 -0.9188
   68HK4    C38 5658   3.997   1.708   5.589  0.2996  0.3738 -0.2753
   68HK4    H20 5659   3.912   1.662   5.640  1.0952 -1.7529 -0.7982
   68HK4    C14 5660   4.312   1.831   6.181 -0.5071  0.1418  0.2921
   68HK4     C9 5661   4.289   1.756   6.296  0.0219 -0.1153  0.2320
   68HK4     C8 5662   4.278   1.819   6.422 -0.3894 -0.0754  0.1781
   68HK4    C11 5663   4.313   1.954   6.431  0.1980 -0.2030 -0.2388
   68HK4     H4 5664   4.332   2.005   6.526 -3.2790  1.1999 -0.2532
   68HK4    C12 5665   4.351   2.027   6.319  0.1885 -0.1240 -0.1896
   68HK4     H5 5666   4.372   2.134   6.331  1.9152 -0.5282  0.4757
   68HK4    C13 5667   4.340   1.969   6.193  0.3381  0.0242 -0.2718
   68HK4     H6 5668   4.336   2.040   6.108  0.2762 -0.3542 -0.5885
   68HK4     C7 5669   4.249   1.738   6.542  1.0083 -0.2326  0.4101
   68HK4     O2 5670   4.216   1.788   6.649 -0.0870 -0.1213  0.0242
   68HK4     C4 5671   4.231   1.592   6.523  0.2140 -0.1112  0.2024
   68HK4     C3 5672   4.176   1.516   6.626 -0.4142 -0.5210 -0.4387
   68HK4     H3 5673   4.105   1.555   6.700 -2.2483  0.1834 -2.5170
   68HK4     C2 5674   4.198   1.379   6.639 -0.1112 -0.4649 -0.3603
   68HK4     H2 5675   4.126   1.330   6.706  0.8213 -1.9293 -0.4130
   68HK4     C1 5676   4.281   1.325   6.541  0.3028 -0.1419 -0.1884
   68HK4     H1 5677   4.321   1.223   6.553  2.1146  0.3686 -1.5281
   68HK4     C6 5678   4.340   1.394   6.433  0.1577 -0.1367 -0.2625
   68HK4     C5 5679   4.308   1.530   6.422  0.0182 -0.1418  0.0688
   68HK4    C10 5680   4.315   1.610   6.296  0.1653 -0.0894  0.1109
   68HK4     O1 5681   4.321   1.548   6.190  0.0375 -0.2589  0.2016
   68HK4    C16 5682   4.415   1.311   6.339 -0.1063  0.2420 -0.8100
   68HK4    C15 5683   4.399   1.171   6.331 -0.0862  0.1973 -0.1077
   68HK4     H7 5684   4.309   1.129   6.378 -0.1284 -0.4135 -0.7277
   68HK4    C20 5685   4.489   1.087   6.268 -0.2044 -0.1295  0.1608
   68HK4     H9 5686   4.470   0.980   6.254 -0.0424 -0.3350  1.4635
   68HK4    C19 5687   4.605   1.139   6.212 -0.2987 -0.1180 -0.0293
   68HK4    C18 5688   4.628   1.282   6.223  0.2321 -0.2253  0.3018
   68HK4    C17 5689   4.530   1.363   6.280  0.1419  0.1618 -0.3947
   68HK4     H8 5690   4.556   1.465   6.308  3.2719 -0.3144 -1.3191
   68HK4     N1 5691   4.755   1.309   6.168  0.0648 -0.1476 -0.0479
   68HK4    C21 5692   4.809   1.189   6.118 -0.1619 -0.1974 -0.1745
   68HK4    C22 5693   4.711   1.083   6.131 -0.5180  0.0945 -0.4630
   68HK4    C26 5694   4.740   0.954   6.089 -0.4788  0.0077 -0.1735
   68HK4    H13 5695   4.678   0.868   6.113  1.5264 -1.0136  1.5394
   68HK4    C25 5696   4.867   0.936   6.033 -0.2072  0.2401  0.3697
   68HK4    H12 5697   4.898   0.840   5.992  2.1528  1.6118 -1.1145
   68HK4    C24 5698   4.958   1.039   6.020 -0.0895  0.0088 -0.6564
   68HK4    H11 5699   5.059   1.017   5.983  0.9555  2.2611  0.7141
   68HK4    C23 5700   4.938   1.167   6.070 -0.3601  0.0254 -0.8106
   68HK4    H10 5701   5.021   1.233   6.094 -1.5905  1.1293  0.5544
   68HK4    C39 5702   4.832   1.423   6.193  0.6185 -0.4719 -0.2731
   68HK4    C41 5703   4.816   1.499   6.311  0.1867 -0.1295 -0.5482
   68HK4    H21 5704   4.808   1.445   6.406  0.8131  0.1791 -0.3180
   68HK4    C42 5705   4.837   1.636   6.312 -0.0868 -0.0894 -0.4404
   68HK4    H22 5706   4.834   1.697   6.404  1.5226 -1.2521  0.4069
   68HK4    C43 5707   4.876   1.708   6.200  0.0898  0.0018 -0.3210
   68HK4    H23 5708   4.866   1.816   6.193  3.4932  0.4935  1.2700
   68HK4    C44 5709   4.905   1.636   6.084 -0.3725  0.3989 -0.6805
   68HK4    H24 5710   4.924   1.688   5.989 -1.2833 -0.1565 -1.1774
   68HK4    C45 5711   4.880   1.499   6.084  0.2395  0.2901  0.0867
   68HK4    H25 5712   4.894   1.447   5.989 -3.0260 -0.1220 -0.2176
   69HK4    H28 5713  11.210  10.160   2.844 -0.4886 -0.8064 -0.5942
   69HK4    C48 5714   0.064  10.198   2.840 -0.5200 -0.6492  0.0277
   69HK4    C47 5715   0.166  10.104   2.827  0.0844 -0.0519  0.4723
   69HK4    H27 5716   0.168  10.005   2.876  0.9603 -1.1057 -1.6336
   69HK4    C46 5717   0.290  10.160   2.799 -0.0320  0.0981  0.2710
   69HK4    H26 5718   0.366  10.089   2.763 -0.9587 -1.3890  1.1997
   69HK4    C40 5719   0.320  10.298   2.790 -0.3913  0.1382 -0.4215
   69HK4    C50 5720   0.216  10.389   2.817 -0.5410 -0.3649  0.7490
   69HK4    H30 5721   0.223  10.496   2.792  0.5664 -0.2725  1.4425
   69HK4    C49 5722   0.091  10.334   2.846 -0.7059 -0.5942 -0.3714
   69HK4    H29 5723   0.013  10.402   2.883 -1.6452 -1.7946 -0.1063
   69HK4     N2 5724   0.450  10.351   2.786 -0.2103 -0.2059  0.5722
   69HK4    C30 5725   0.560  10.277   2.832  0.0878 -0.3624 -0.3767
   69HK4    C29 5726   0.578  10.213   2.954 -0.3479  0.1615 -0.0328
   69HK4    H15 5727   0.491  10.207   3.020  0.2613  1.5806  0.9279
   69HK4    C28 5728   0.701  10.164   2.996 -0.3714 -0.0400 -0.1998
   69HK4    C27 5729   0.812  10.171   2.909 -0.2863 -0.2801 -0.1126
   69HK4    H14 5730   0.910  10.127   2.932  1.2569  1.9357 -2.1971
   69HK4    C32 5731   0.802  10.243   2.791 -0.1047 -0.2744 -0.1231
   69HK4    H16 5732   0.872  10.214   2.713 -1.2899  0.0355 -1.2994
   69HK4    C31 5733   0.682  10.304   2.759  0.1640  0.3297  0.0088
   69HK4    C34 5734   0.639  10.405   2.663  0.1697  0.7681  0.4599
   69HK4    C33 5735   0.498  10.435   2.684 -0.0624 -0.3312  0.5388
   69HK4    C35 5736   0.441  10.539   2.610  0.2499 -0.4001  0.1965
   69HK4    H17 5737   0.335  10.564   2.615  0.2366  0.0703 -2.0848
   69HK4    C36 5738   0.513  10.619   2.523 -0.1215 -0.4868 -0.1913
   69HK4    H18 5739   0.457  10.687   2.457  1.5878 -0.6854 -1.8885
   69HK4    C37 5740   0.648  10.592   2.503 -0.1152 -0.6134  0.0173
   69HK4    H19 5741   0.710  10.642   2.428 -0.1259 -0.5389  0.0591
   69HK4    C38 5742   0.705  10.487   2.573  0.8028  0.0460  0.2675
   69HK4    H20 5743   0.814  10.478   2.572  0.6536 -2.2925  0.8238
   69HK4    C14 5744   0.721  10.137   3.140  0.4817  0.4794 -0.2139
   69HK4     C9 5745   0.842  10.156   3.206  0.7215 -0.0930 -0.4835
   69HK4     C8 5746   0.874  10.059   3.304  0.0154  0.3324  0.1688
   69HK4    C11 5747   0.781   9.970   3.358 -0.0503 -0.1024 -0.6565
   69HK4     H4 5748   0.816   9.900   3.435  0.3577  0.5165 -0.2662
   69HK4    C12 5749   0.651   9.971   3.310 -0.3541 -0.3155  0.1457
   69HK4     H5 5750   0.564   9.932   3.365 -2.2588  2.5552 -0.6986
   69HK4    C13 5751   0.624  10.053   3.201  0.8665  0.5273  0.4693
   69HK4     H6 5752   0.519  10.046   3.168  0.2682 -0.2549  2.5267
   69HK4     C7 5753   1.005  10.070   3.370 -0.3048  0.2243  0.8267
   69HK4     O2 5754   1.060   9.970   3.415 -0.0888  0.0177  0.0973
   69HK4     C4 5755   1.084  10.194   3.350 -0.2819  0.1364  0.3912
   69HK4     C3 5756   1.215  10.197   3.396  0.0399  0.0864 -0.5142
   69HK4     H3 5757   1.263  10.107   3.437  0.0785 -0.2031 -1.1902
   69HK4     C2 5758   1.283  10.318   3.402  0.1749 -0.0205  0.1636
   69HK4     H2 5759   1.393  10.316   3.399  0.2483  2.8078 -0.2059
   69HK4     C1 5760   1.216  10.439   3.388 -0.4883 -0.3537  0.3882
   69HK4     H1 5761   1.256  10.533   3.429 -2.4113 -0.5615  2.7837
   69HK4     C6 5762   1.081  10.437   3.347 -0.3906  0.1037  0.0366
   69HK4     C5 5763   1.024  10.315   3.309 -0.5947  0.0374  0.5480
   69HK4    C10 5764   0.916  10.285   3.211 -0.0815  0.3534 -0.1249
   69HK4     O1 5765   0.879  10.378   3.139  0.3903  0.5363 -0.1338
   69HK4    C16 5766   1.001  10.559   3.361  0.2928  0.5802 -0.1437
   69HK4    C15 5767   1.060  10.685   3.382  0.9450  0.1468  0.6922
   69HK4     H7 5768   1.154  10.700   3.327  0.0684  1.0967 -0.5933
   69HK4    C20 5769   0.999  10.793   3.445 -0.1405 -0.0099 -0.0832
   69HK4     H9 5770   1.056  10.880   3.475 -0.0471 -0.7724  2.0520
   69HK4    C19 5771   0.863  10.784   3.475 -0.2361  0.1616 -0.4688
   69HK4    C18 5772   0.794  10.660   3.446  0.0955 -0.1463  0.0504
   69HK4    C17 5773   0.867  10.552   3.400  0.2458  0.1375 -0.3847
   69HK4     H8 5774   0.809  10.461   3.384  1.4015 -0.5279 -0.8543
   69HK4     N1 5775   0.654  10.677   3.454  0.0939 -0.1197 -0.0407
   69HK4    C21 5776   0.628  10.808   3.497  0.3376 -0.0425 -0.1259
   69HK4    C22 5777   0.756  10.876   3.507  0.1018  0.3796  0.0224
   69HK4    C26 5778   0.758  11.009   3.550  0.6111  0.3347  0.1377
   69HK4    H13 5779   0.851  11.065   3.540  0.0523  0.5145 -5.6011
   69HK4    C25 5780   0.641  11.076   3.580  0.2798 -0.4059  0.5229
   69HK4    H12 5781   0.654  11.180   3.611 -2.1345 -0.1661  0.8639
   69HK4    C24 5782   0.519  11.010   3.571  0.1066 -0.0873  0.5262
   69HK4    H11 5783   0.426  11.068   3.583  0.8508  1.4129 -0.6986
   69HK4    C23 5784   0.514  10.875   3.540  0.4555 -0.0208  0.1504
   69HK4    H10 5785   0.418  10.825   3.524  0.2474 -0.0432  1.3589
   69HK4    C39 5786   0.563  10.613   3.368 -0.3762  0.5054 -0.0163
   69HK4    C41 5787   0.426  10.596   3.395 -0.3518  0.4452  0.0689
   69HK4    H21 5788   0.405  10.591   3.503  0.2318 -1.1454  0.1250
   69HK4    C42 5789   0.334  10.555   3.299 -0.3334  0.9830 -0.1801
   69HK4    H22 5790   0.228  10.547   3.326 -0.5557  2.7158 -0.5315
   69HK4    C43 5791   0.378  10.528   3.170 -0.3060 -0.1375  0.0552
   69HK4    H23 5792   0.305  10.497   3.094 -0.2244  0.6254 -0.3430
   69HK4    C44 5793   0.511  10.550   3.139 -0.2740  0.0555  0.3312
   69HK4    H24 5794   0.552  10.544   3.037  1.8977  0.5118  1.1406
   69HK4    C45 5795   0.602  10.596   3.234 -0.0734  0.0946  0.1196
   69HK4    H25 5796   0.704  10.626   3.205 -0.5805  0.3913 -1.4038
   70HK4    H28 5797   5.617  11.193   7.242 -1.4089 -0.2754 -0.4497
   70HK4    C48 5798   5.644  11.098   7.194 -0.1700 -0.2893  0.2562
   70HK4    C47 5799   5.677  10.979   7.258 -0.2006 -0.0253  0.7799
   70HK4    H27 5800   5.670  10.979   7.367 -1.1115  0.4423  0.7217
   70HK4    C46 5801   5.701  10.862   7.187  0.1137  0.4387  0.1100
   70HK4    H26 5802   5.689  10.769   7.245  0.0749 -0.5905 -1.4989
   70HK4    C40 5803   5.700  10.850   7.047 -0.0736 -0.0949  0.1534
   70HK4    C50 5804   5.669  10.974   6.987 -0.2636 -0.0606  0.3206
   70HK4    H30 5805   5.665  10.970   6.877 -1.2853  0.3672  0.3363
   70HK4    C49 5806   5.648  11.094   7.055 -0.2229 -0.0133  0.2466
   70HK4    H29 5807   5.642  11.184   6.992  2.2086  0.2818  0.3595
   70HK4     N2 5808   5.772  10.764   6.963 -0.0493  0.3319 -0.2694
   70HK4    C30 5809   5.886  10.699   7.014 -0.0871  0.3877 -0.1102
   70HK4    C29 5810   5.984  10.730   7.107 -0.0357  0.0485 -0.0527
   70HK4    H15 5811   5.971  10.814   7.175  0.0641  0.9642 -1.1487
   70HK4    C28 5812   6.090  10.644   7.139 -0.1164 -0.0297 -0.0013
   70HK4    C27 5813   6.090  10.514   7.086  0.3226 -0.0210 -0.0255
   70HK4    H14 5814   6.163  10.442   7.127  0.7017 -0.4715 -1.4497
   70HK4    C32 5815   5.994  10.471   6.995 -0.2945  0.0506  0.5916
   70HK4    H16 5816   5.985  10.372   6.951 -0.1721  1.1060 -1.8931
   70HK4    C31 5817   5.895  10.563   6.963  0.0089  0.2560  0.2520
   70HK4    C34 5818   5.787  10.547   6.867 -0.0708 -0.2231  0.4229
   70HK4    C33 5819   5.722  10.677   6.864 -0.0875 -0.2393  0.2511
   70HK4    C35 5820   5.627  10.708   6.768 -0.0724 -0.1567  0.2639
   70HK4    H17 5821   5.577  10.804   6.754  1.7587  0.8229  0.1818
   70HK4    C36 5822   5.592  10.606   6.680 -0.1429  0.0046  0.1060
   70HK4    H18 5823   5.495  10.618   6.629 -0.8191 -0.7541  1.1798
   70HK4    C37 5824   5.652  10.481   6.677  0.1110  0.1260  0.2038
   70HK4    H19 5825   5.633  10.420   6.589 -0.2965 -0.5639  0.7615
   70HK4    C38 5826   5.755  10.456   6.767  0.1357  0.0071  0.1452
   70HK4    H20 5827   5.816  10.366   6.767 -2.0958 -1.5583  1.7767
   70HK4    C14 5828   6.218  10.698   7.186  0.1033 -0.2374 -0.3629
   70HK4     C9 5829   6.340  10.648   7.137  0.1131 -0.6449  0.0685
   70HK4     C8 5830   6.451  10.656   7.223  0.2648  0.3832 -0.2190
   70HK4    C11 5831   6.438  10.708   7.351 -0.0360  0.0118 -0.0984
   70HK4     H4 5832   6.511  10.696   7.432 -1.5962 -0.5679  1.2633
   70HK4    C12 5833   6.318  10.762   7.396 -0.1621 -0.7481  0.4812
   70HK4     H5 5834   6.328  10.817   7.491 -0.4175 -0.4293  0.3270
   70HK4    C13 5835   6.207  10.759   7.313  0.5404  0.1186 -0.4946
   70HK4     H6 5836   6.113  10.806   7.346  0.6466 -0.6708  0.9606
   70HK4     C7 5837   6.564  10.574   7.173  0.2539  0.4300 -0.3215
   70HK4     O2 5838   6.674  10.620   7.201  0.3062 -0.0508  0.2699
   70HK4     C4 5839   6.554  10.492   7.050 -0.1747 -0.0576  0.0368
   70HK4     C3 5840   6.660  10.405   7.027  0.3955  0.7425 -0.4095
   70HK4     H3 5841   6.740  10.395   7.102 -1.3350 -2.4145  1.1296
   70HK4     C2 5842   6.652  10.324   6.915 -0.5414 -0.4266  0.4866
   70HK4     H2 5843   6.725  10.242   6.913 -0.2064 -0.1658  1.6825
   70HK4     C1 5844   6.546  10.331   6.825 -0.0681 -0.5170 -0.0846
   70HK4     H1 5845   6.545  10.257   6.744 -0.3881 -2.1374  1.3598
   70HK4     C6 5846   6.442  10.425   6.842  0.1815 -0.3069  0.2725
   70HK4     C5 5847   6.452  10.509   6.954 -0.0666  0.1484 -0.0421
   70HK4    C10 5848   6.348  10.608   6.994 -0.2644 -0.0192 -0.1325
   70HK4     O1 5849   6.323  10.701   6.917 -0.0090  0.2094  0.0626
   70HK4    C16 5850   6.313  10.392   6.781  0.4379 -0.0090 -0.4329
   70HK4    C15 5851   6.279  10.257   6.758 -0.0784  0.0026  0.2776
   70HK4     H7 5852   6.333  10.179   6.813  1.8191  0.1159 -1.3880
   70HK4    C20 5853   6.182  10.219   6.666  0.1258  0.4386 -0.1212
   70HK4     H9 5854   6.159  10.117   6.634 -0.3247  0.6851 -0.5899
   70HK4    C19 5855   6.113  10.318   6.597 -0.0640  0.1432 -0.3527
   70HK4    C18 5856   6.141  10.459   6.618 -0.1760  0.0725  0.3017
   70HK4    C17 5857   6.247  10.487   6.704  0.1419  0.0625 -0.0882
   70HK4     H8 5858   6.296  10.583   6.692  2.3538 -0.4771  3.7382
   70HK4     N1 5859   6.060  10.542   6.538  0.7556  0.1605 -0.5578
   70HK4    C21 5860   5.969  10.455   6.474  0.1221 -0.0098  0.5489
   70HK4    C22 5861   6.003  10.317   6.502  0.2548 -0.2505 -0.7222
   70HK4    C26 5862   5.919  10.215   6.459  0.1927 -0.5186  0.0455
   70HK4    H13 5863   5.919  10.121   6.515  3.2395 -0.8468 -0.3738
   70HK4    C25 5864   5.807  10.246   6.383  0.5422  0.1046 -0.2221
   70HK4    H12 5865   5.741  10.162   6.361 -0.3364  0.6152  0.4402
   70HK4    C24 5866   5.775  10.377   6.348  0.3953  0.1366  0.0254
   70HK4    H11 5867   5.721  10.392   6.254 -0.8071 -1.6153  0.4067
   70HK4    C23 5868   5.855  10.479   6.397  0.4727  0.0634  0.0448
   70HK4    H10 5869   5.822  10.579   6.370 -0.2691 -0.4622 -0.9930
   70HK4    C39 5870   6.043  10.680   6.556 -0.0755 -0.0365  0.2615
   70HK4    C41 5871   5.977  10.756   6.457 -0.3356 -0.5998  0.0034
   70HK4    H21 5872   5.988  10.725   6.352 -2.0635  0.9384 -0.6548
   70HK4    C42 5873   5.915  10.878   6.482  0.5203 -0.1775  0.0738
   70HK4    H22 5874   5.844  10.926   6.415  1.7869  0.2859 -0.9535
   70HK4    C43 5875   5.927  10.930   6.611  0.1551 -0.2107  0.1213
   70HK4    H23 5876   5.884  11.029   6.627  2.2794  0.7085  0.3802
   70HK4    C44 5877   5.988  10.859   6.714  0.0296 -0.4776  0.0107
   70HK4    H24 5878   5.988  10.911   6.811  0.7739  0.8777 -0.7025
   70HK4    C45 5879   6.044  10.735   6.685  0.2002 -0.5047  0.4608
   70HK4    H25 5880   6.116  10.696   6.758 -0.2386  0.1187  1.2398
   71HK4    H28 5881   6.229  11.246   1.956 -2.8140  0.5182 -1.7850
   71HK4    C48 5882   6.259  11.174   1.879  0.0792  0.0383 -0.2764
   71HK4    C47 5883   6.240  11.041   1.916  0.1173  0.1316  0.0869
   71HK4    H27 5884   6.158  11.018   1.985  1.4334  1.2541  2.0774
   71HK4    C46 5885   6.286  10.940   1.832 -0.1383 -0.0386  0.1506
   71HK4    H26 5886   6.236  10.843   1.820 -1.2393  0.3122  1.6781
   71HK4    C40 5887   6.368  10.969   1.721  0.2754 -0.0905  0.4396
   71HK4    C50 5888   6.377  11.105   1.685 -0.0704 -0.2336 -0.1956
   71HK4    H30 5889   6.440  11.134   1.599 -1.3367  1.6283 -0.5244
   71HK4    C49 5890   6.323  11.208   1.761  0.0201 -0.0783 -0.3431
   71HK4    H29 5891   6.317   0.064   1.723  3.3104 -0.1791 -1.2718
   71HK4     N2 5892   6.474  10.883   1.692 -0.1035 -0.3700 -0.1242
   71HK4    C30 5893   6.525  10.792   1.787 -0.0876  0.1627  0.3795
   71HK4    C29 5894   6.514  10.777   1.925 -0.4950 -0.0401  0.3268
   71HK4    H15 5895   6.487  10.870   1.974  2.7074  1.6745 -0.9932
   71HK4    C28 5896   6.573  10.680   2.005 -0.3240 -0.0238  0.2204
   71HK4    C27 5897   6.640  10.580   1.933 -0.3989  0.0266  0.0809
   71HK4    H14 5898   6.642  10.478   1.976  1.5245 -0.6548 -1.5328
   71HK4    C32 5899   6.658  10.591   1.795  0.2073 -0.2158  0.1400
   71HK4    H16 5900   6.697  10.515   1.728  1.4443  0.6622 -0.1515
   71HK4    C31 5901   6.611  10.698   1.720 -0.5661 -0.3316  0.4551
   71HK4    C34 5902   6.619  10.740   1.581  0.1071  0.2923  0.6799
   71HK4    C33 5903   6.531  10.854   1.566 -0.3389 -0.1726 -0.2762
   71HK4    C35 5904   6.504  10.914   1.444 -0.1661  0.2029 -0.1314
   71HK4    H17 5905   6.435  10.998   1.441 -1.5106 -0.8181  1.5008
   71HK4    C36 5906   6.567  10.864   1.330 -0.0399  0.1535 -0.0412
   71HK4    H18 5907   6.548  10.924   1.240  0.8128  0.7755  0.1965
   71HK4    C37 5908   6.656  10.759   1.347 -0.3038 -0.0314  0.2029
   71HK4    H19 5909   6.732  10.745   1.270 -0.1522  0.5999  0.2351
   71HK4    C38 5910   6.683  10.694   1.467 -0.3817  0.3039  0.4015
   71HK4    H20 5911   6.737  10.599   1.460 -0.4208  0.4449 -2.3222
   71HK4    C14 5912   6.617  10.718   2.140  0.0473 -0.0562  0.1088
   71HK4     C9 5913   6.724  10.665   2.213 -0.1209 -0.1756  0.2670
   71HK4     C8 5914   6.747  10.690   2.350 -0.2258 -0.1189  0.2734
   71HK4    C11 5915   6.662  10.780   2.414  0.0313 -0.0376  0.4949
   71HK4     H4 5916   6.700  10.824   2.508  0.2490 -1.7742  1.2433
   71HK4    C12 5917   6.554  10.836   2.346  0.3009 -0.2791 -0.1343
   71HK4     H5 5918   6.484  10.894   2.408  0.1613 -1.3169  0.6974
   71HK4    C13 5919   6.534  10.806   2.212 -0.5039 -0.5215  0.0415
   71HK4     H6 5920   6.435  10.825   2.167  0.3909 -0.4233 -1.9447
   71HK4     C7 5921   6.819  10.596   2.437  0.2023  0.3333  0.4141
   71HK4     O2 5922   6.850  10.622   2.553  0.4182 -0.5788  0.5729
   71HK4     C4 5923   6.869  10.470   2.377  0.3174  0.5612  0.0272
   71HK4     C3 5924   6.894  10.365   2.466 -0.3749  0.2864 -0.0940
   71HK4     H3 5925   6.888  10.391   2.572  1.1411  1.7755 -0.3323
   71HK4     C2 5926   6.936  10.241   2.419  0.0805  0.3826  0.0531
   71HK4     H2 5927   6.980  10.163   2.482  0.4108 -1.6018 -2.5553
   71HK4     C1 5928   6.935  10.226   2.281  0.5888 -0.5020  0.1436
   71HK4     H1 5929   6.943  10.127   2.234  2.9521 -0.2331 -0.1101
   71HK4     C6 5930   6.901  10.328   2.189  0.5834 -0.1631  0.5219
   71HK4     C5 5931   6.871  10.456   2.237 -0.5500 -0.2665  0.0920
   71HK4    C10 5932   6.820  10.567   2.153 -0.1978 -0.1264  0.0633
   71HK4     O1 5933   6.905  10.620   2.082  0.0672 -0.2002  0.3255
   71HK4    C16 5934   6.856  10.281   2.057  0.7294  0.2888  0.3115
   71HK4    C15 5935   6.790  10.159   2.034  0.0141  0.7021  0.1347
   71HK4     H7 5936   6.743  10.107   2.119 -3.2985  3.3800  0.0701
   71HK4    C20 5937   6.767  10.113   1.904  0.6892 -0.2832  0.3593
   71HK4     H9 5938   6.736  10.011   1.884 -1.6301  1.0199 -3.1009
   71HK4    C19 5939   6.808  10.187   1.794  0.0764 -0.3162  0.1117
   71HK4    C18 5940   6.889  10.305   1.815  0.1012 -0.3014 -0.0765
   71HK4    C17 5941   6.910  10.346   1.946  0.8360 -0.5277 -0.1160
   71HK4     H8 5942   6.991  10.418   1.949  0.1449  0.3691 -2.1395
   71HK4     N1 5943   6.935  10.356   1.692  0.1492  0.2047  0.1512
   71HK4    C21 5944   6.885  10.269   1.593  0.2267  0.3894 -0.0530
   71HK4    C22 5945   6.808  10.161   1.651  0.5736  0.1794  0.0200
   71HK4    C26 5946   6.714  10.098   1.570  0.4731  0.2822  0.0574
   71HK4    H13 5947   6.633  10.046   1.622  0.1950  0.8484  0.1937
   71HK4    C25 5948   6.690  10.140   1.440 -0.5098 -0.1168  0.1067
   71HK4    H12 5949   6.633  10.081   1.368 -1.2558  0.1202  0.4968
   71HK4    C24 5950   6.760  10.250   1.392  0.0709 -0.5058  0.0433
   71HK4    H11 5951   6.742  10.284   1.289  1.0395  0.7297  0.2683
   71HK4    C23 5952   6.867  10.306   1.461 -0.1003  0.0191 -0.1116
   71HK4    H10 5953   6.940  10.370   1.412 -0.0286  1.4306  1.8243
   71HK4    C39 5954   7.007  10.475   1.672 -0.1215  0.2241 -0.7221
   71HK4    C41 5955   7.088  10.496   1.558  0.9516 -0.2355 -0.0585
   71HK4    H21 5956   7.154  10.415   1.524 -0.9904 -2.3252  0.9721
   71HK4    C42 5957   7.096  10.618   1.492 -0.1354 -0.3121 -0.3452
   71HK4    H22 5958   7.142  10.626   1.393  0.0271 -0.1176 -0.2533
   71HK4    C43 5959   7.030  10.727   1.548  0.0726 -0.3502 -0.0258
   71HK4    H23 5960   7.034  10.818   1.489 -0.5655 -1.1635 -1.3459
   71HK4    C44 5961   6.957  10.712   1.666 -0.6367  0.2681 -0.3806
   71HK4    H24 5962   6.899  10.796   1.706  0.4203  1.2218 -0.8103
   71HK4    C45 5963   6.951  10.589   1.731 -0.1560  0.1366 -0.5801
   71HK4    H25 5964   6.901  10.587   1.829  3.5228  3.5753  1.5065
   72HK4    H28 5965   2.418   8.236   9.963  2.9723  0.8786 -1.3512
   72HK4    C48 5966   2.458   8.135   9.979 -0.0868 -0.0454  0.8605
   72HK4    C47 5967   2.378   8.022   9.967 -0.2404  0.1752 -0.2037
   72HK4    H27 5968   2.278   8.027   9.921 -0.2271 -0.5446 -0.3208
   72HK4    C46 5969   2.418   7.893  10.000  0.1352  0.5340  0.7563
   72HK4    H26 5970   2.355   7.804   9.983 -0.7493  1.0409  1.3346
   72HK4    C40 5971   2.551   7.877  10.044  0.4098 -0.3878 -0.3821
   72HK4    C50 5972   2.624   7.995  10.070 -0.2911  0.0368 -0.3162
   72HK4    H30 5973   2.707   7.982  10.140 -0.1519 -1.7299 -0.7667
   72HK4    C49 5974   2.586   8.123  10.030  0.4038  0.2483 -0.2988
   72HK4    H29 5975   2.654   8.209  10.032 -0.3715  0.8892 -1.2942
   72HK4     N2 5976   2.593   7.755  10.097  0.1584 -0.4290 -0.2736
   72HK4    C30 5977   2.504   7.652  10.134 -0.1120 -0.1967 -0.2869
   72HK4    C29 5978   2.390   7.666  10.213 -0.3550 -0.2253 -0.6273
   72HK4    H15 5979   2.347   7.763  10.239  0.2935 -0.3079  0.8365
   72HK4    C28 5980   2.323   7.558  10.269 -0.1152  0.1061  0.3028
   72HK4    C27 5981   2.381   7.433  10.239  0.4550  0.3242  0.4758
   72HK4    H14 5982   2.306   7.354  10.253  0.5501 -0.1847 -1.8254
   72HK4    C32 5983   2.497   7.407  10.168  0.2124 -0.1262  0.2412
   72HK4    H16 5984   2.545   7.309  10.165  0.6747  0.1230 -0.8036
   72HK4    C31 5985   2.558   7.519  10.114  0.1880 -0.1455  0.1761
   72HK4    C34 5986   2.697   7.544  10.080  0.1408 -0.3755 -0.1858
   72HK4    C33 5987   2.715   7.688  10.073  0.2418 -0.3790 -0.0011
   72HK4    C35 5988   2.846   7.735  10.070 -0.0128  0.3220 -0.2608
   72HK4    H17 5989   2.861   7.842  10.081  1.1069  0.1753 -0.3437
   72HK4    C36 5990   2.951   7.644  10.066 -0.4371 -0.1890  0.2263
   72HK4    H18 5991   3.049   7.692  10.053 -0.8692  0.6890  0.2259
   72HK4    C37 5992   2.932   7.506  10.071  0.1712 -0.3083 -0.5601
   72HK4    H19 5993   3.015   7.442  10.099 -0.1715  0.4124  2.3111
   72HK4    C38 5994   2.802   7.455  10.070  0.1763 -0.3352 -0.1707
   72HK4    H20 5995   2.789   7.347  10.076 -0.7727 -0.2128 -0.0872
   72HK4    C14 5996   2.215   7.591  10.364 -0.0810  0.0114  0.3730
   72HK4     C9 5997   2.174   7.494  10.457 -0.0919  0.0371  0.3944
   72HK4     C8 5998   2.041   7.449  10.470 -0.1585  0.2114  0.3208
   72HK4    C11 5999   1.943   7.521  10.402  0.1071  0.3023  0.0340
   72HK4     H4 6000   1.837   7.494  10.390 -0.2241  0.3492  2.6130
   72HK4    C12 6001   1.978   7.639  10.337 -0.1392  0.2507 -0.1936
   72HK4     H5 6002   1.896   7.694  10.287 -2.6638 -1.6203  1.7124
   72HK4    C13 6003   2.111   7.669  10.310  0.0085  0.2180  0.4980
   72HK4     H6 6004   2.133   7.751  10.240 -1.9358 -1.2147 -1.8636
   72HK4     C7 6005   2.001   7.334  10.553 -0.1149 -0.2065 -0.2364
   72HK4     O2 6006   1.893   7.282  10.527 -0.1173 -0.1014 -0.4345
   72HK4     C4 6007   2.104   7.275  10.641  0.0932  0.5450  0.0228
   72HK4     C3 6008   2.066   7.173  10.728  0.3257  0.3599 -0.0879
   72HK4     H3 6009   1.962   7.167  10.765  0.8454 -1.2105  1.1457
   72HK4     C2 6010   2.163   7.099  10.793  0.4919  0.6745  0.0246
   72HK4     H2 6011   2.136   7.033  10.877 -0.7595 -0.2489 -1.0915
   72HK4     C1 6012   2.298   7.117  10.764  0.5810 -0.0413 -0.0132
   72HK4     H1 6013   2.371   7.063  10.826  1.7402  0.7979 -0.6325
   72HK4     C6 6014   2.338   7.216  10.672  0.1153  0.2038  0.0431
   72HK4     C5 6015   2.241   7.303  10.621  0.1784  0.8047  0.9418
   72HK4    C10 6016   2.273   7.426  10.544  0.5011 -0.0900 -0.3741
   72HK4     O1 6017   2.365   7.497  10.586  0.0512  0.2469  0.0339
   72HK4    C16 6018   2.450   7.169  10.588 -0.0404  0.0462 -0.0748
   72HK4    C15 6019   2.473   7.033  10.560  0.2845  0.0546  0.1515
   72HK4     H7 6020   2.395   6.963  10.593 -0.4679 -0.0283 -1.7628
   72HK4    C20 6021   2.578   6.980  10.486  0.4446 -0.1511  0.5246
   72HK4     H9 6022   2.585   6.871  10.488 -2.6467 -0.3661  2.7049
   72HK4    C19 6023   2.674   7.066  10.435  0.6195 -0.1976  0.7737
   72HK4    C18 6024   2.663   7.202  10.484  0.6426  0.1784 -0.2419
   72HK4    C17 6025   2.556   7.253  10.557  0.4050 -0.5216 -0.0904
   72HK4     H8 6026   2.547   7.359  10.582 -0.7500 -0.4879 -0.6127
   72HK4     N1 6027   2.767   7.280  10.429  0.1741  0.5622 -0.5857
   72HK4    C21 6028   2.840   7.196  10.343  0.0805 -0.0906 -0.0360
   72HK4    C22 6029   2.789   7.061  10.346 -0.3478  0.0555 -0.4954
   72HK4    C26 6030   2.854   6.961  10.274 -0.3266 -0.1692 -0.1633
   72HK4    H13 6031   2.809   6.862  10.268  2.8811 -1.7105  0.1504
   72HK4    C25 6032   2.956   7.001  10.190 -0.5792  0.1948 -0.2946
   72HK4    H12 6033   2.994   6.920  10.127 -0.8120  0.4832 -0.8143
   72HK4    C24 6034   2.997   7.133  10.177 -0.2150  0.1034 -0.0892
   72HK4    H11 6035   3.087   7.165  10.122 -0.8658 -1.6643 -2.2314
   72HK4    C23 6036   2.942   7.233  10.257 -0.1098  0.1997 -0.1391
   72HK4    H10 6037   3.012   7.314  10.280 -1.2271  1.3376 -0.6837
   72HK4    C39 6038   2.815   7.391  10.499  0.4755  0.3084 -0.3905
   72HK4    C41 6039   2.814   7.414  10.638  0.0583  0.1776 -0.3700
   72HK4    H21 6040   2.789   7.324  10.696 -1.8947  0.7898 -0.2417
   72HK4    C42 6041   2.826   7.541  10.694 -0.3607 -0.0319  0.1899
   72HK4    H22 6042   2.813   7.556  10.802 -1.4281  2.2524 -0.2412
   72HK4    C43 6043   2.846   7.652  10.614  0.3737 -0.3332 -0.0510
   72HK4    H23 6044   2.831   7.750  10.661  2.4186  0.1733 -0.3977
   72HK4    C44 6045   2.870   7.632  10.479 -0.6685  0.9913 -0.4459
   72HK4    H24 6046   2.907   7.714  10.416 -2.0866  0.8649 -1.4536
   72HK4    C45 6047   2.846   7.507  10.424  0.3568  0.5925 -0.0003
   72HK4    H25 6048   2.850   7.497  10.314  2.2021 -0.6989  0.1434
   73HK4    H28 6049   7.537   8.934   3.655  0.3777 -0.5665 -0.7852
   73HK4    C48 6050   7.470   8.993   3.593 -0.5919 -0.6640  0.1530
   73HK4    C47 6051   7.478   8.990   3.454 -0.2796  0.0241  0.1535
   73HK4    H27 6052   7.554   8.927   3.405  0.6941  0.6222  0.8778
   73HK4    C46 6053   7.391   9.071   3.382 -0.1548  0.1146  0.1067
   73HK4    H26 6054   7.390   9.049   3.274  3.0146  2.1879 -0.4221
   73HK4    C40 6055   7.298   9.160   3.439 -0.3912 -0.1999  0.2141
   73HK4    C50 6056   7.305   9.158   3.579 -0.0957  0.1362  0.2069
   73HK4    H30 6057   7.271   9.249   3.632 -0.6120  0.3579 -0.4993
   73HK4    C49 6058   7.380   9.074   3.661  0.2068  0.2934  0.0885
   73HK4    H29 6059   7.370   9.063   3.770 -0.9505 -0.4143 -0.0744
   73HK4     N2 6060   7.175   9.192   3.379 -0.3280 -0.5009 -0.0765
   73HK4    C30 6061   7.109   9.117   3.279 -0.4521 -0.0112 -0.3585
   73HK4    C29 6062   7.099   8.979   3.274  0.4194 -0.0968  0.1108
   73HK4    H15 6063   7.149   8.916   3.347  0.7671  0.5802  0.4565
   73HK4    C28 6064   7.012   8.917   3.185  0.0243  0.2298  0.2691
   73HK4    C27 6065   6.943   9.000   3.093 -0.5801 -0.1963  0.3391
   73HK4    H14 6066   6.864   8.948   3.037  2.1688 -1.4248 -2.5563
   73HK4    C32 6067   6.964   9.137   3.085  0.1929 -0.3126  0.3106
   73HK4    H16 6068   6.912   9.186   3.003 -1.5414 -2.3149  0.1618
   73HK4    C31 6069   7.049   9.200   3.176  0.5791  0.4718 -0.5820
   73HK4    C34 6070   7.046   9.330   3.239  0.5766  0.2355 -0.0884
   73HK4    C33 6071   7.137   9.325   3.351  0.8064 -0.2152 -0.2975
   73HK4    C35 6072   7.162   9.443   3.419  0.2890 -0.0879 -0.3314
   73HK4    H17 6073   7.230   9.438   3.505  1.4448  1.1211 -1.1587
   73HK4    C36 6074   7.101   9.562   3.382 -0.4336 -0.2538  0.3025
   73HK4    H18 6075   7.110   9.650   3.448  1.2716 -0.4154  0.2788
   73HK4    C37 6076   7.010   9.565   3.277 -0.0020  0.0861 -0.0574
   73HK4    H19 6077   6.967   9.658   3.239 -0.7399 -0.3982 -0.4329
   73HK4    C38 6078   6.980   9.449   3.207 -0.0569 -0.0423  0.1839
   73HK4    H20 6079   6.897   9.443   3.137  0.4433 -3.4643 -0.2318
   73HK4    C14 6080   7.008   8.772   3.167 -0.0633  0.2514  0.0978
   73HK4     C9 6081   6.984   8.697   3.051 -0.3599  0.2646  0.1492
   73HK4     C8 6082   6.954   8.559   3.046  0.3885  0.0940  0.3639
   73HK4    C11 6083   6.942   8.496   3.169 -0.0292 -0.3619  0.0925
   73HK4     H4 6084   6.908   8.392   3.179 -0.6276 -0.1498  0.2512
   73HK4    C12 6085   6.963   8.563   3.289  0.2879  0.2046 -0.2807
   73HK4     H5 6086   6.985   8.503   3.378 -1.9724  0.4341  0.4605
   73HK4    C13 6087   6.988   8.700   3.287  0.7442  0.1273  0.1597
   73HK4     H6 6088   6.999   8.746   3.386  0.2451  2.0800 -0.6562
   73HK4     C7 6089   6.914   8.487   2.923 -0.0411  0.2947  0.3868
   73HK4     O2 6090   6.918   8.365   2.922 -0.3571  0.2871 -0.6219
   73HK4     C4 6091   6.895   8.564   2.797 -0.1589  0.0654  0.2665
   73HK4     C3 6092   6.831   8.508   2.687 -0.1187 -0.2010  0.3765
   73HK4     H3 6093   6.804   8.402   2.683 -0.7008 -0.0115 -1.4960
   73HK4     C2 6094   6.810   8.581   2.570  0.2372 -0.1312  0.3579
   73HK4     H2 6095   6.761   8.537   2.482  0.9844  1.8363 -1.0648
   73HK4     C1 6096   6.854   8.713   2.570  0.0484 -0.0665  0.3515
   73HK4     H1 6097   6.818   8.778   2.489  0.5605 -0.9560 -0.6103
   73HK4     C6 6098   6.916   8.777   2.679 -0.7091  0.1330  0.6710
   73HK4     C5 6099   6.938   8.698   2.793  0.6893 -0.2066  0.1755
   73HK4    C10 6100   7.004   8.753   2.915  0.2387  0.2317  0.2236
   73HK4     O1 6101   7.119   8.794   2.896  0.3879 -0.3148 -0.0991
   73HK4    C16 6102   6.905   8.923   2.682 -0.3820  0.1690  0.2337
   73HK4    C15 6103   6.791   8.993   2.637 -0.2153  0.1135 -0.2870
   73HK4     H7 6104   6.705   8.924   2.625  0.6938 -0.8221 -1.4685
   73HK4    C20 6105   6.785   9.125   2.594  0.1999  0.1861 -0.1194
   73HK4     H9 6106   6.686   9.164   2.571 -0.2007 -1.3944 -1.1718
   73HK4    C19 6107   6.901   9.201   2.605  0.0037  0.3694  0.7667
   73HK4    C18 6108   7.024   9.139   2.652  0.0550 -0.2422 -0.1586
   73HK4    C17 6109   7.018   9.004   2.685 -0.0525 -0.2677 -0.2742
   73HK4     H8 6110   7.113   8.952   2.690 -1.7623 -3.4105  1.4455
   73HK4     N1 6111   7.141   9.214   2.632  0.0103 -0.1608 -0.1157
   73HK4    C21 6112   7.095   9.325   2.558  0.2181 -0.0693 -0.1085
   73HK4    C22 6113   6.952   9.316   2.534  0.0882  0.1962  0.5414
   73HK4    C26 6114   6.887   9.411   2.456 -0.3241 -0.0777  0.5527
   73HK4    H13 6115   6.778   9.411   2.452 -0.3131  0.8730  0.0691
   73HK4    C25 6116   6.955   9.518   2.399 -0.1439 -0.3818  0.2020
   73HK4    H12 6117   6.903   9.594   2.341  0.3711 -0.8562 -0.8907
   73HK4    C24 6118   7.092   9.523   2.418 -0.1201 -0.1476 -0.0352
   73HK4    H11 6119   7.148   9.610   2.381 -0.3574  0.0007 -0.0459
   73HK4    C23 6120   7.161   9.427   2.492  0.1622 -0.2005 -0.3642
   73HK4    H10 6121   7.270   9.428   2.493  0.2391 -0.9121 -3.0164
   73HK4    C39 6122   7.258   9.199   2.708  0.2701  0.2688 -0.4229
   73HK4    C41 6123   7.376   9.261   2.664  0.2257  0.6770  0.0215
   73HK4    H21 6124   7.401   9.277   2.558 -0.7619  0.8937 -0.1799
   73HK4    C42 6125   7.470   9.313   2.752  0.0784  0.4489  0.3127
   73HK4    H22 6126   7.551   9.373   2.707  1.0932 -0.0190  1.4840
   73HK4    C43 6127   7.468   9.280   2.887 -0.0129 -0.4543  0.0917
   73HK4    H23 6128   7.544   9.318   2.956  0.9908 -2.1398 -0.0497
   73HK4    C44 6129   7.359   9.209   2.935 -0.4011  0.1566  0.1046
   73HK4    H24 6130   7.354   9.199   3.044 -0.6966  0.7848  0.1515
   73HK4    C45 6131   7.261   9.167   2.846  0.1748  0.0367 -0.4751
   73HK4    H25 6132   7.189   9.088   2.873  1.2841 -0.6253  0.5965
   74HK4    H28 6133   4.154   5.361   4.163  0.5606 -0.3410  0.0878
   74HK4    C48 6134   4.139   5.316   4.065 -0.3121 -0.1572  0.1282
   74HK4    C47 6135   4.014   5.312   4.005 -0.2914  0.5276  0.0300
   74HK4    H27 6136   3.935   5.371   4.054 -0.4425 -0.2199  0.6914
   74HK4    C46 6137   3.990   5.250   3.883 -0.0522  0.5916 -0.0491
   74HK4    H26 6138   3.898   5.280   3.830  1.4492  2.8988 -1.4696
   74HK4    C40 6139   4.094   5.184   3.815 -0.5026 -0.1484 -0.0236
   74HK4    C50 6140   4.221   5.186   3.875 -0.5243  0.2649  0.0102
   74HK4    H30 6141   4.305   5.124   3.839 -0.2739 -0.0804  1.1505
   74HK4    C49 6142   4.241   5.250   3.997 -0.2059  0.0763  0.0585
   74HK4    H29 6143   4.343   5.249   4.039  0.2691  0.8144 -1.0413
   74HK4     N2 6144   4.093   5.153   3.678 -0.4493 -0.2432 -0.0025
   74HK4    C30 6145   4.019   5.225   3.582 -0.0564 -0.0433 -0.1584
   74HK4    C29 6146   3.959   5.351   3.585 -0.1837 -0.1115  0.2615
   74HK4    H15 6147   3.980   5.414   3.671  0.5448 -1.3869  1.0440
   74HK4    C28 6148   3.883   5.385   3.474 -0.0393 -0.1419  0.1520
   74HK4    C27 6149   3.863   5.298   3.365  0.2993  0.3071 -0.2730
   74HK4    H14 6150   3.816   5.337   3.274 -1.9256  0.3579  0.8654
   74HK4    C32 6151   3.917   5.170   3.359 -0.0716  0.1233  0.1948
   74HK4    H16 6152   3.896   5.096   3.281 -1.4866 -0.7462  1.3888
   74HK4    C31 6153   3.995   5.138   3.469  0.1197 -0.2395 -0.0446
   74HK4    C34 6154   4.057   5.009   3.497  0.1296 -0.1666  0.2707
   74HK4    C33 6155   4.123   5.026   3.625  0.6830  0.0261 -0.0369
   74HK4    C35 6156   4.172   4.911   3.685  0.2347 -0.3113 -0.3056
   74HK4    H17 6157   4.199   4.913   3.791  0.4504 -0.0723 -0.3647
   74HK4    C36 6158   4.163   4.784   3.631  0.3633 -0.4337 -0.0384
   74HK4    H18 6159   4.220   4.701   3.677 -1.3196 -0.6863  1.6956
   74HK4    C37 6160   4.093   4.775   3.512  0.2384  0.0775 -0.0050
   74HK4    H19 6161   4.063   4.674   3.483 -0.2593 -0.6553  2.9727
   74HK4    C38 6162   4.040   4.883   3.442  0.1105 -0.0197 -0.0610
   74HK4    H20 6163   3.979   4.859   3.355 -2.7758 -0.0687  1.9261
   74HK4    C14 6164   3.789   5.499   3.473  0.3417  0.1842  0.8424
   74HK4     C9 6165   3.659   5.511   3.424  0.6273 -0.2553 -0.0468
   74HK4     C8 6166   3.607   5.633   3.377  0.2308 -0.4838 -0.2160
   74HK4    C11 6167   3.680   5.750   3.394 -0.1701 -0.3058  0.2861
   74HK4     H4 6168   3.641   5.845   3.353  1.7411  0.1470 -0.5666
   74HK4    C12 6169   3.807   5.747   3.451  0.2402 -0.7356 -0.6452
   74HK4     H5 6170   3.858   5.839   3.479 -1.2223  0.3177 -1.3743
   74HK4    C13 6171   3.857   5.622   3.487  0.7353 -0.0553  1.0604
   74HK4     H6 6172   3.958   5.614   3.529  0.3515 -3.4635  1.4705
   74HK4     C7 6173   3.483   5.638   3.297  0.4209  0.0528 -0.4849
   74HK4     O2 6174   3.443   5.748   3.259 -0.0477 -0.0103 -0.1827
   74HK4     C4 6175   3.418   5.513   3.251 -0.2101  0.1728  0.0562
   74HK4     C3 6176   3.318   5.523   3.155 -0.3297 -0.3201  0.1292
   74HK4     H3 6177   3.248   5.607   3.142 -1.2123 -1.3199 -1.6893
   74HK4     C2 6178   3.293   5.404   3.087  0.1005 -0.0218 -0.5543
   74HK4     H2 6179   3.218   5.404   3.007 -0.6076  1.0196  0.1016
   74HK4     C1 6180   3.348   5.283   3.128 -0.1673  0.1568  0.3625
   74HK4     H1 6181   3.313   5.194   3.073  2.5893  1.0071 -2.9416
   74HK4     C6 6182   3.437   5.267   3.236 -0.1265 -0.0395  0.3004
   74HK4     C5 6183   3.467   5.389   3.298  0.5614  0.2344 -0.5708
   74HK4    C10 6184   3.575   5.390   3.401  0.0811  0.1260 -0.0645
   74HK4     O1 6185   3.562   5.311   3.494 -0.2715  0.4273  0.1447
   74HK4    C16 6186   3.518   5.145   3.231 -0.5198 -0.2916  0.0228
   74HK4    C15 6187   3.552   5.093   3.105  0.9328  1.0416 -0.1550
   74HK4     H7 6188   3.527   5.155   3.018 -2.0111  1.8235  1.1821
   74HK4    C20 6189   3.628   4.978   3.085 -0.4194  0.0783  0.1490
   74HK4     H9 6190   3.678   4.963   2.989 -0.1100 -1.8729  0.5964
   74HK4    C19 6191   3.673   4.905   3.195 -0.2384 -0.1421 -0.0715
   74HK4    C18 6192   3.623   4.943   3.326  0.3610  0.1693  0.0659
   74HK4    C17 6193   3.548   5.060   3.337  0.2576  0.0978  0.1209
   74HK4     H8 6194   3.492   5.070   3.430 -2.1264 -0.6691 -1.2032
   74HK4     N1 6195   3.638   4.841   3.422  0.0594 -0.0346 -0.1008
   74HK4    C21 6196   3.706   4.738   3.354 -0.1320 -0.2897  0.0979
   74HK4    C22 6197   3.731   4.774   3.216 -0.0364 -0.0099  0.1883
   74HK4    C26 6198   3.784   4.680   3.128 -0.2225  0.1386 -0.0839
   74HK4    H13 6199   3.796   4.703   3.022  0.0976  0.6136  0.0527
   74HK4    C25 6200   3.827   4.555   3.169 -0.6973 -0.1420 -0.4311
   74HK4    H12 6201   3.896   4.493   3.113 -0.1858 -0.7381  0.8204
   74HK4    C24 6202   3.805   4.525   3.303 -0.0219  0.3424 -0.2073
   74HK4    H11 6203   3.838   4.430   3.349  1.1419  0.7735 -0.1295
   74HK4    C23 6204   3.743   4.610   3.395 -0.0752 -0.2158  0.2806
   74HK4    H10 6205   3.738   4.584   3.500  3.1694 -1.0723  0.3065
   74HK4    C39 6206   3.635   4.861   3.561 -0.0413 -0.7438  0.0002
   74HK4    C41 6207   3.595   4.759   3.649  0.6310 -0.8039  0.2357
   74HK4    H21 6208   3.536   4.679   3.602 -0.1984 -0.2840  0.3751
   74HK4    C42 6209   3.616   4.768   3.786 -0.0094  0.1151  0.2789
   74HK4    H22 6210   3.569   4.701   3.860  2.8416 -1.1122  1.0415
   74HK4    C43 6211   3.678   4.882   3.836 -0.1276  0.2973  0.0130
   74HK4    H23 6212   3.704   4.889   3.942 -0.3752  0.9643  0.0324
   74HK4    C44 6213   3.727   4.983   3.755  0.0508  0.0831 -0.1425
   74HK4    H24 6214   3.784   5.066   3.799  0.4677  0.5334 -1.5085
   74HK4    C45 6215   3.701   4.972   3.619 -0.0089 -0.7278 -0.0656
   74HK4    H25 6216   3.727   5.059   3.556 -1.2428 -0.8963 -0.8293
   75HK4    H28 6217   2.725   1.464   9.821 -1.9060 -1.1398 -0.1900
   75HK4    C48 6218   2.771   1.389   9.755  0.0561 -0.4390  0.3490
   75HK4    C47 6219   2.695   1.293   9.689 -0.2684  0.1705 -0.1682
   75HK4    H27 6220   2.591   1.279   9.719 -0.8500  2.3029 -1.0712
   75HK4    C46 6221   2.750   1.210   9.593 -0.2004  0.0348 -0.0126
   75HK4    H26 6222   2.689   1.137   9.537  0.3456 -0.3293 -0.1399
   75HK4    C40 6223   2.884   1.224   9.552 -0.1644 -0.0728  0.0685
   75HK4    C50 6224   2.963   1.321   9.618 -0.4265  0.3714 -0.2675
   75HK4    H30 6225   3.050   1.366   9.566 -1.1951 -0.6195 -2.4851
   75HK4    C49 6226   2.906   1.394   9.721 -0.1268  0.6062 -0.2649
   75HK4    H29 6227   2.966   1.432   9.805  0.1566  1.8642 -1.0227
   75HK4     N2 6228   2.919   1.182   9.423  0.1317  0.0560  0.1029
   75HK4    C30 6229   2.830   1.153   9.318  0.1189  0.4527  0.0028
   75HK4    C29 6230   2.713   1.216   9.278 -0.1722 -0.1224 -0.0613
   75HK4    H15 6231   2.667   1.290   9.344  1.4682  0.5729  0.3067
   75HK4    C28 6232   2.659   1.205   9.150 -0.3797 -0.2049  0.0305
   75HK4    C27 6233   2.711   1.099   9.073  0.6298  0.1622  0.1929
   75HK4    H14 6234   2.648   1.048   8.998 -1.7828  0.3987  2.0074
   75HK4    C32 6235   2.833   1.040   9.103  0.3932 -0.4454 -0.0216
   75HK4    H16 6236   2.882   0.973   9.032 -0.7909  0.3058 -1.5765
   75HK4    C31 6237   2.897   1.066   9.223 -0.5515 -0.6498  0.5267
   75HK4    C34 6238   3.033   1.049   9.271 -0.2815 -0.2150 -0.0886
   75HK4    C33 6239   3.047   1.141   9.381 -0.0241 -0.1600 -0.1675
   75HK4    C35 6240   3.177   1.178   9.414  0.2842 -0.6218 -0.8579
   75HK4    H17 6241   3.197   1.241   9.501 -0.0739 -1.2755 -0.2987
   75HK4    C36 6242   3.290   1.140   9.342  0.6720  0.1591 -0.6715
   75HK4    H18 6243   3.383   1.189   9.373  0.5076 -0.0671  0.1895
   75HK4    C37 6244   3.272   1.049   9.239 -0.1395  0.0360 -0.4340
   75HK4    H19 6245   3.361   1.016   9.184 -0.0634  0.7495 -0.7438
   75HK4    C38 6246   3.145   1.012   9.196 -0.1873 -0.5561  0.2192
   75HK4    H20 6247   3.140   0.961   9.100 -1.0911  1.2196 -0.7102
   75HK4    C14 6248   2.553   1.292   9.098  0.1011  0.0582 -0.5162
   75HK4     C9 6249   2.480   1.259   8.983 -0.2727 -0.0412 -0.2520
   75HK4     C8 6250   2.474   1.346   8.872  0.1081 -0.0702 -0.3000
   75HK4    C11 6251   2.517   1.478   8.889  0.1507 -0.1972  0.6253
   75HK4     H4 6252   2.527   1.539   8.798  1.1355 -3.3931 -1.5274
   75HK4    C12 6253   2.570   1.519   9.011  0.2500  0.3774  0.3865
   75HK4     H5 6254   2.596   1.625   9.025  1.9348 -0.4102  3.4821
   75HK4    C13 6255   2.586   1.428   9.114  0.4582 -0.0856 -0.0487
   75HK4     H6 6256   2.621   1.454   9.215 -1.8691 -0.7886  0.9780
   75HK4     C7 6257   2.410   1.314   8.743 -0.0666 -0.1789 -0.1834
   75HK4     O2 6258   2.467   1.336   8.636  0.1357  0.4110  0.0463
   75HK4     C4 6259   2.309   1.206   8.752 -0.4604  0.2111  0.0865
   75HK4     C3 6260   2.215   1.207   8.649 -0.5752  0.3131  0.1938
   75HK4     H3 6261   2.223   1.278   8.566 -1.2983 -0.3791 -0.4710
   75HK4     C2 6262   2.107   1.120   8.656 -0.3702  0.0514  0.1266
   75HK4     H2 6263   2.035   1.119   8.573 -0.7961  0.1091  0.5008
   75HK4     C1 6264   2.105   1.025   8.757  0.1309 -0.3413 -0.2276
   75HK4     H1 6265   2.038   0.940   8.738  0.8994 -0.8567 -0.6794
   75HK4     C6 6266   2.204   1.011   8.857  0.0498 -0.0975 -0.1128
   75HK4     C5 6267   2.298   1.115   8.860 -0.5845  0.4728  0.2975
   75HK4    C10 6268   2.383   1.146   8.978 -0.4536  0.0929  0.3055
   75HK4     O1 6269   2.349   1.099   9.087 -0.5759  0.0967  0.2696
   75HK4    C16 6270   2.186   0.906   8.957  0.3704  0.1007  0.1558
   75HK4    C15 6271   2.056   0.872   9.000  0.5126 -0.2245  0.3304
   75HK4     H7 6272   1.975   0.945   8.982 -0.6475 -0.5570  3.8546
   75HK4    C20 6273   2.035   0.752   9.068  0.1371 -0.4540 -0.1818
   75HK4     H9 6274   1.935   0.738   9.108 -0.9416 -1.2987 -3.1000
   75HK4    C19 6275   2.137   0.660   9.094 -0.2040 -0.6979  0.3007
   75HK4    C18 6276   2.267   0.694   9.040 -0.4011 -0.1908  0.1350
   75HK4    C17 6277   2.289   0.814   8.973  0.0086 -0.3360  0.0101
   75HK4     H8 6278   2.388   0.850   8.945 -0.7946  0.5912 -1.6572
   75HK4     N1 6279   2.360   0.591   9.065 -0.0676  0.2156  0.5830
   75HK4    C21 6280   2.287   0.492   9.135  0.0541 -0.2540  0.0529
   75HK4    C22 6281   2.146   0.526   9.148  0.0104 -0.6026  0.4989
   75HK4    C26 6282   2.051   0.428   9.168 -0.5744 -0.1544 -0.0616
   75HK4    H13 6283   1.950   0.462   9.194 -0.7928 -0.7110 -0.1593
   75HK4    C25 6284   2.085   0.293   9.173  0.0065 -0.0085 -0.0634
   75HK4    H12 6285   2.006   0.218   9.163 -0.6258  0.1750  3.2365
   75HK4    C24 6286   2.220   0.261   9.169 -0.0676 -0.2919 -0.3296
   75HK4    H11 6287   2.253   0.157   9.186  1.9461 -0.0831 -2.7618
   75HK4    C23 6288   2.318   0.358   9.151 -0.0288 -0.2990 -0.1579
   75HK4    H10 6289   2.422   0.333   9.168  0.6794  0.5082 -2.9739
   75HK4    C39 6290   2.498   0.605   9.077  0.0424  0.1893 -0.5962
   75HK4    C41 6291   2.583   0.495   9.050 -0.1094 -0.2053  0.5205
   75HK4    H21 6292   2.541   0.424   8.976  1.5932  1.6057 -2.2821
   75HK4    C42 6293   2.718   0.502   9.080 -0.0859 -0.3548  0.4502
   75HK4    H22 6294   2.786   0.437   9.022  2.6632  1.7177  1.2962
   75HK4    C43 6295   2.773   0.621   9.125  0.3202 -0.0864 -0.7456
   75HK4    H23 6296   2.878   0.645   9.109  0.7340 -0.1909  1.6112
   75HK4    C44 6297   2.691   0.727   9.161 -0.0549 -0.3747 -0.7502
   75HK4    H24 6298   2.743   0.811   9.209  3.0953 -1.4302 -2.2406
   75HK4    C45 6299   2.554   0.720   9.136 -0.0680  0.4074 -0.9109
   75HK4    H25 6300   2.489   0.803   9.166 -1.2131  0.0552 -2.3458
   76HK4    H28 6301   2.742   4.395  10.876  0.1005 -0.0044  0.8712
   76HK4    C48 6302   2.747   4.300  10.823 -0.0197  0.2907  0.3361
   76HK4    C47 6303   2.779   4.182  10.889 -0.5520 -0.0799 -0.0658
   76HK4    H27 6304   2.805   4.186  10.996 -2.9514  1.1127  0.5079
   76HK4    C46 6305   2.762   4.063  10.820  0.5016 -0.1470 -0.2211
   76HK4    H26 6306   2.784   3.967  10.870 -0.5626  0.8358  2.1943
   76HK4    C40 6307   2.706   4.061  10.690  0.3811  0.3210 -0.1793
   76HK4    C50 6308   2.679   4.183  10.626 -0.0473 -0.1546 -0.9075
   76HK4    H30 6309   2.620   4.187  10.533 -0.4815  0.8142 -0.6003
   76HK4    C49 6310   2.703   4.304  10.691 -0.2746 -0.7998  0.3850
   76HK4    H29 6311   2.670   4.401  10.652 -0.8492 -0.0420  2.7028
   76HK4     N2 6312   2.635   3.953  10.637 -0.2974  0.7519 -0.1501
   76HK4    C30 6313   2.576   3.854  10.718  0.2193  0.1713 -0.4756
   76HK4    C29 6314   2.516   3.857  10.844 -0.1553 -0.2802 -0.6451
   76HK4    H15 6315   2.520   3.949  10.902 -0.8101 -0.0573 -0.9355
   76HK4    C28 6316   2.447   3.753  10.905 -0.4171  0.3419  0.1257
   76HK4    C27 6317   2.441   3.632  10.834  0.6434  0.2936  0.1061
   76HK4    H14 6318   2.376   3.547  10.860  0.6282  1.1978  3.1803
   76HK4    C32 6319   2.488   3.624  10.704 -0.1722 -0.1506 -0.1680
   76HK4    H16 6320   2.454   3.539  10.645  1.1685 -1.2223  0.5697
   76HK4    C31 6321   2.557   3.730  10.646 -0.3062 -0.0002 -0.0504
   76HK4    C34 6322   2.601   3.761  10.511  0.3135 -0.1672  0.1085
   76HK4    C33 6323   2.644   3.900  10.506  0.3372 -0.1688  0.2652
   76HK4    C35 6324   2.706   3.951  10.393 -0.5764  0.5484  0.0826
   76HK4    H17 6325   2.760   4.046  10.383  3.7265 -1.9449 -1.6643
   76HK4    C36 6326   2.717   3.866  10.284  0.2534 -0.0075  0.6020
   76HK4    H18 6327   2.739   3.905  10.184 -1.1105 -0.6955  0.0094
   76HK4    C37 6328   2.676   3.733  10.287  0.1048  0.0160 -0.2993
   76HK4    H19 6329   2.679   3.679  10.192  3.0756 -0.0579 -0.2345
   76HK4    C38 6330   2.611   3.681  10.398  0.4141  0.1051 -0.0746
   76HK4    H20 6331   2.581   3.577  10.408  0.3342  0.1350  0.0000
   76HK4    C14 6332   2.419   3.751  11.049 -0.2473 -0.5074  0.1442
   76HK4     C9 6333   2.398   3.633  11.123  0.2362 -0.2692  0.6622
   76HK4     C8 6334   2.311   3.633  11.234 -0.3649  0.3845  0.2023
   76HK4    C11 6335   2.246   3.752   0.016 -0.7363  0.2588 -0.1092
   76HK4     H4 6336   2.158   3.750   0.081 -0.4444 -1.4937  0.2518
   76HK4    C12 6337   2.273   3.874  11.202  0.1230  0.6272  0.9731
   76HK4     H5 6338   2.213   3.964  11.225  1.0119  2.0535 -2.0630
   76HK4    C13 6339   2.364   3.871  11.097 -0.7042 -0.7673  0.2752
   76HK4     H6 6340   2.420   3.962  11.071  2.1695 -2.3698  0.5931
   76HK4     C7 6341   2.283   3.506   0.057 -0.0994  0.2781  0.1188
   76HK4     O2 6342   2.203   3.508   0.151  0.2460 -0.7321  0.4421
   76HK4     C4 6343   2.343   3.380   0.008 -0.0404  0.3070  0.1172
   76HK4     C3 6344   2.301   3.260   0.065  0.1033  0.0011 -0.4197
   76HK4     H3 6345   2.207   3.260   0.122 -1.7403  0.6204 -3.3780
   76HK4     C2 6346   2.345   3.138   0.016  0.5681 -0.1502  0.3619
   76HK4     H2 6347   2.295   3.046   0.051 -0.8471  0.2558 -0.5447
   76HK4     C1 6348   2.424   3.143  11.150  0.0817  0.0625  0.0311
   76HK4     H1 6349   2.460   3.044  11.119  0.6088 -0.3376  1.9122
   76HK4     C6 6350   2.477   3.259  11.089  0.5071  0.1370  0.5502
   76HK4     C5 6351   2.440   3.377  11.154  0.2084  0.1493  0.3524
   76HK4    C10 6352   2.482   3.512  11.105  0.4895 -0.0169  0.1403
   76HK4     O1 6353   2.603   3.531  11.093  0.4402  0.2630  0.0967
   76HK4    C16 6354   2.522   3.241  10.950 -0.3650 -0.6201  0.3645
   76HK4    C15 6355   2.462   3.152  10.859 -0.7500  0.6152 -0.5914
   76HK4     H7 6356   2.370   3.097  10.884 -0.9002  1.7430  1.4126
   76HK4    C20 6357   2.513   3.133  10.731 -0.2132  0.0873 -0.3020
   76HK4     H9 6358   2.477   3.050  10.669  1.6505 -1.3874  0.5381
   76HK4    C19 6359   2.629   3.197  10.691 -0.0694  0.0816  0.1067
   76HK4    C18 6360   2.701   3.281  10.785 -0.1584  0.1196  0.1373
   76HK4    C17 6361   2.644   3.295  10.911 -0.5109 -0.5225  0.0494
   76HK4     H8 6362   2.703   3.336  10.992 -0.9546  1.4523 -0.6021
   76HK4     N1 6363   2.819   3.327  10.723 -0.0506  0.0633  0.3040
   76HK4    C21 6364   2.823   3.272  10.594  0.1672  0.4623  0.1386
   76HK4    C22 6365   2.699   3.203  10.564  0.1274  0.4929  0.2305
   76HK4    C26 6366   2.669   3.149  10.439 -0.6271  1.1235  0.1335
   76HK4    H13 6367   2.594   3.071  10.439  1.1124 -0.5828  0.5491
   76HK4    C25 6368   2.760   3.168  10.336 -0.4113  0.3942  0.1848
   76HK4    H12 6369   2.739   3.136  10.234  1.7193  0.2606 -0.2473
   76HK4    C24 6370   2.880   3.234  10.364 -0.1366 -0.2254  0.4796
   76HK4    H11 6371   2.954   3.243  10.284 -1.3306  0.3236 -0.5867
   76HK4    C23 6372   2.916   3.278  10.491  0.1466  0.5710  0.1266
   76HK4    H10 6373   3.022   3.295  10.512 -0.4964  0.5185  3.6896
   76HK4    C39 6374   2.889   3.437  10.776  0.3850 -0.0761  0.0133
   76HK4    C41 6375   3.027   3.449  10.747  0.3203 -0.0777 -0.2993
   76HK4    H21 6376   3.080   3.353  10.738 -0.5016 -0.5937  0.2114
   76HK4    C42 6377   3.100   3.567  10.740  0.5059 -0.1743 -0.0036
   76HK4    H22 6378   3.203   3.572  10.703  0.1942  4.0536 -0.4805
   76HK4    C43 6379   3.029   3.686  10.753 -0.1385 -0.4507 -0.9440
   76HK4    H23 6380   3.077   3.783  10.735  1.1020 -0.0962  3.5932
   76HK4    C44 6381   2.895   3.683  10.786  0.2591 -0.0624  0.7531
   76HK4    H24 6382   2.841   3.778  10.799  1.1410  0.6443 -0.7075
   76HK4    C45 6383   2.828   3.562  10.798  0.2380 -0.1335 -0.0687
   76HK4    H25 6384   2.720   3.554  10.819  0.7844 -1.8004  2.3179
   77HK4    H28 6385   2.921   5.632   2.983 -0.3519 -0.2474 -1.6296
   77HK4    C48 6386   3.020   5.675   2.970 -0.1501 -0.0676  0.3282
   77HK4    C47 6387   3.110   5.604   2.891  0.0354  0.4583  0.0632
   77HK4    H27 6388   3.084   5.499   2.872  1.6078 -0.3333  2.1727
   77HK4    C46 6389   3.220   5.668   2.836  0.2570 -0.1466 -0.2019
   77HK4    H26 6390   3.311   5.613   2.810 -0.0723 -0.9601  0.3537
   77HK4    C40 6391   3.239   5.806   2.858 -0.3174 -0.0581 -0.2603
   77HK4    C50 6392   3.153   5.874   2.947  0.6651  0.3983  0.3386
   77HK4    H30 6393   3.165   5.976   2.987 -0.0566 -0.0981  1.8698
   77HK4    C49 6394   3.045   5.808   3.004  0.5062  0.0054 -0.4221
   77HK4    H29 6395   2.970   5.868   3.056  1.0884 -0.5946  1.1478
   77HK4     N2 6396   3.324   5.884   2.778 -0.1149  0.1077  0.1159
   77HK4    C30 6397   3.398   5.995   2.823  1.0370 -0.6240  0.0539
   77HK4    C29 6398   3.429   6.034   2.953  0.0835  0.0830  0.0764
   77HK4    H15 6399   3.391   5.978   3.039  1.6390 -1.5868 -0.2929
   77HK4    C28 6400   3.537   6.118   2.979  0.0794  0.1714 -0.1854
   77HK4    C27 6401   3.611   6.171   2.871  0.1055  0.0620 -0.2209
   77HK4    H14 6402   3.695   6.241   2.881 -0.3711  0.4906  0.9690
   77HK4    C32 6403   3.573   6.146   2.740 -0.1202  0.3783 -0.2175
   77HK4    H16 6404   3.644   6.169   2.661  0.6574 -0.2782  0.2847
   77HK4    C31 6405   3.468   6.058   2.714  0.4797 -0.3636 -0.1563
   77HK4    C34 6406   3.451   5.973   2.597 -0.2826 -0.0535 -0.2711
   77HK4    C33 6407   3.359   5.871   2.642  0.1706 -0.2498  0.2227
   77HK4    C35 6408   3.341   5.761   2.559  0.0255 -0.1365  0.1017
   77HK4    H17 6409   3.288   5.670   2.588  1.9903 -1.4437 -0.3372
   77HK4    C36 6410   3.407   5.756   2.436 -0.0596  0.1907  0.0425
   77HK4    H18 6411   3.378   5.689   2.354  0.7104 -0.5773  0.3806
   77HK4    C37 6412   3.497   5.853   2.394 -0.0760  0.0717 -0.2673
   77HK4    H19 6413   3.561   5.835   2.308 -1.8009  1.6018 -1.9125
   77HK4    C38 6414   3.514   5.966   2.474 -0.1012  0.0165 -0.1815
   77HK4    H20 6415   3.590   6.042   2.455 -0.9545  0.5235 -1.6056
   77HK4    C14 6416   3.539   6.185   3.110  0.2150 -0.2147  0.0086
   77HK4     C9 6417   3.582   6.316   3.130 -0.4582  0.0143 -0.0329
   77HK4     C8 6418   3.639   6.346   3.255 -0.0937  0.5001 -0.3110
   77HK4    C11 6419   3.643   6.251   3.356 -0.7095  0.3158 -0.4583
   77HK4     H4 6420   3.700   6.269   3.448  0.4178 -0.3532 -1.0103
   77HK4    C12 6421   3.596   6.121   3.340  0.3071 -0.1411  0.1857
   77HK4     H5 6422   3.619   6.041   3.411  2.2000  0.8074  0.6864
   77HK4    C13 6423   3.542   6.091   3.215  0.5671 -0.1365  0.0702
   77HK4     H6 6424   3.490   5.994   3.215 -1.3985  0.8801 -0.8732
   77HK4     C7 6425   3.680   6.485   3.285  0.4438  0.3222 -0.2175
   77HK4     O2 6426   3.770   6.506   3.366  0.4601 -0.5317 -0.0138
   77HK4     C4 6427   3.641   6.591   3.190 -0.4666  0.3287  0.1593
   77HK4     C3 6428   3.659   6.722   3.233 -0.6214  0.2073  0.5945
   77HK4     H3 6429   3.703   6.751   3.329 -0.9428 -0.0581  0.8190
   77HK4     C2 6430   3.611   6.829   3.157  0.1859 -0.1425 -0.4355
   77HK4     H2 6431   3.637   6.930   3.192 -2.2382 -0.1300  1.5322
   77HK4     C1 6432   3.555   6.797   3.034 -0.6226 -0.2270 -0.0512
   77HK4     H1 6433   3.494   6.874   2.986 -1.2199 -0.2478  0.6706
   77HK4     C6 6434   3.549   6.667   2.979  0.0448 -0.3319  0.1207
   77HK4     C5 6435   3.586   6.561   3.063  0.4917 -0.3526 -0.1008
   77HK4    C10 6436   3.541   6.422   3.034  0.0990 -0.1503 -0.4548
   77HK4     O1 6437   3.436   6.402   2.974  0.0513 -0.4352 -0.2754
   77HK4    C16 6438   3.568   6.668   2.833  0.3041 -0.1017  0.1540
   77HK4    C15 6439   3.655   6.762   2.774  0.3421 -0.1554  0.1253
   77HK4     H7 6440   3.728   6.805   2.844  1.1759  0.9173 -1.3751
   77HK4    C20 6441   3.636   6.804   2.643 -0.6324  0.2164  0.3759
   77HK4     H9 6442   3.698   6.888   2.611  0.8615 -0.7317  0.7005
   77HK4    C19 6443   3.539   6.750   2.559 -0.4997 -0.2221  0.5027
   77HK4    C18 6444   3.455   6.643   2.611 -0.2374 -0.4269  0.5077
   77HK4    C17 6445   3.472   6.617   2.746  0.3526 -0.6189  0.4007
   77HK4     H8 6446   3.396   6.547   2.780 -1.3435  0.6728 -0.6548
   77HK4     N1 6447   3.336   6.635   2.535  0.1141  0.1440 -0.1149
   77HK4    C21 6448   3.344   6.738   2.440  0.0453  0.3242  0.0721
   77HK4    C22 6449   3.473   6.803   2.441  0.1025  0.2033  0.3602
   77HK4    C26 6450   3.522   6.886   2.341 -0.3793  0.0187 -0.0231
   77HK4    H13 6451   3.628   6.911   2.342 -0.4997  0.4775  1.1063
   77HK4    C25 6452   3.436   6.913   2.235  0.1018  1.0919 -0.1438
   77HK4    H12 6453   3.465   6.972   2.148  1.6721 -1.4943 -1.4511
   77HK4    C24 6454   3.307   6.860   2.234  0.4852  0.1482 -0.4138
   77HK4    H11 6455   3.248   6.874   2.143  1.5615  0.8148 -1.0209
   77HK4    C23 6456   3.262   6.773   2.332  0.4536  0.3800 -0.2210
   77HK4    H10 6457   3.160   6.737   2.324  0.9796 -1.2360  0.0492
   77HK4    C39 6458   3.252   6.523   2.530  0.4632 -0.0893 -0.7546
   77HK4    C41 6459   3.120   6.540   2.485 -0.2252  0.4527  1.3950
   77HK4    H21 6460   3.075   6.641   2.479 -2.9628 -0.8332 -1.0745
   77HK4    C42 6461   3.034   6.439   2.443 -0.1635  0.6413  0.8099
   77HK4    H22 6462   2.935   6.457   2.398 -0.2950 -0.6139  0.5815
   77HK4    C43 6463   3.083   6.310   2.437  0.4885  0.9143  0.1865
   77HK4    H23 6464   3.024   6.224   2.405  0.2783  0.8740  0.6798
   77HK4    C44 6465   3.214   6.286   2.475  0.3016 -0.0021  0.2777
   77HK4    H24 6466   3.258   6.185   2.485  0.1418 -0.0976  0.0100
   77HK4    C45 6467   3.293   6.388   2.528  0.2149 -0.2068  0.8087
   77HK4    H25 6468   3.391   6.367   2.573  0.9845 -0.6250 -1.0122
   78HK4    H28 6469   7.509   5.647   4.839 -0.2585  0.1001  0.9634
   78HK4    C48 6470   7.440   5.708   4.781 -0.2179 -0.4341  0.3387
   78HK4    C47 6471   7.341   5.773   4.854  0.3660  0.1401  0.6261
   78HK4    H27 6472   7.357   5.790   4.961 -0.2469 -1.9692  1.0840
   78HK4    C46 6473   7.218   5.802   4.797  0.3176 -0.7941  0.2492
   78HK4    H26 6474   7.143   5.848   4.863  0.8702  1.9291 -0.9654
   78HK4    C40 6475   7.191   5.777   4.660  0.0481 -0.2183  0.1977
   78HK4    C50 6476   7.299   5.724   4.587  0.0325 -0.1164  0.1013
   78HK4    H30 6477   7.295   5.706   4.479 -1.0397 -2.7083  0.5296
   78HK4    C49 6478   7.418   5.682   4.646 -0.0688 -0.1777  0.2635
   78HK4    H29 6479   7.472   5.605   4.590  0.1733  1.1313 -1.3278
   78HK4     N2 6480   7.062   5.779   4.606  0.0043  0.2510  0.3179
   78HK4    C30 6481   6.942   5.760   4.677 -0.0433 -0.2053  0.1179
   78HK4    C29 6482   6.911   5.675   4.783 -0.1172 -0.3832 -0.0467
   78HK4    H15 6483   6.977   5.588   4.788  1.8726  1.1384  1.1631
   78HK4    C28 6484   6.787   5.679   4.846 -0.0847 -0.4791  0.0219
   78HK4    C27 6485   6.689   5.765   4.793 -0.1621 -0.6419 -0.0956
   78HK4    H14 6486   6.591   5.781   4.840 -0.2251 -2.7814  0.5366
   78HK4    C32 6487   6.708   5.834   4.673  0.0961  0.5356  0.6068
   78HK4    H16 6488   6.629   5.898   4.634 -0.3699 -1.0322 -1.1245
   78HK4    C31 6489   6.833   5.831   4.613  0.0353  0.2523  0.4879
   78HK4    C34 6490   6.888   5.882   4.489  0.1922 -0.0043  0.4523
   78HK4    C33 6491   7.030   5.851   4.489  0.1290 -0.3018 -0.0575
   78HK4    C35 6492   7.105   5.897   4.381 -0.1724  0.1963 -0.0575
   78HK4    H17 6493   7.210   5.869   4.378  0.3041  2.0383 -1.0928
   78HK4    C36 6494   7.051   5.977   4.281  0.1554  0.8427  0.2801
   78HK4    H18 6495   7.115   6.004   4.196  0.7666  0.4600  0.6184
   78HK4    C37 6496   6.919   6.019   4.292 -0.0982  0.0805  0.1688
   78HK4    H19 6497   6.882   6.112   4.249 -0.6175  0.6404  1.7731
   78HK4    C38 6498   6.836   5.966   4.391  0.2718  0.0757  0.4785
   78HK4    H20 6499   6.747   6.024   4.416 -0.5528 -1.9242  2.3815
   78HK4    C14 6500   6.784   5.633   4.986  0.4407 -0.4984  0.0284
   78HK4     C9 6501   6.694   5.691   5.076  0.0226 -0.7384 -0.2354
   78HK4     C8 6502   6.750   5.744   5.194 -0.5189  0.2130 -0.3962
   78HK4    C11 6503   6.880   5.709   5.230 -0.5981  0.1062 -0.2180
   78HK4     H4 6504   6.948   5.782   5.277 -0.1431  0.8780 -2.0269
   78HK4    C12 6505   6.951   5.609   5.166  0.5328  0.6559  0.1693
   78HK4     H5 6506   7.056   5.593   5.197  0.2301 -0.7695  0.4821
   78HK4    C13 6507   6.898   5.572   5.043  0.1088 -0.5011  0.6941
   78HK4     H6 6508   6.941   5.485   4.991  0.9772  0.0928  0.4218
   78HK4     C7 6509   6.671   5.828   5.286 -0.1603  0.2012 -0.0751
   78HK4     O2 6510   6.724   5.919   5.350  0.0495 -0.1114  0.1934
   78HK4     C4 6511   6.524   5.822   5.270 -0.1637  0.3491 -0.0964
   78HK4     C3 6512   6.446   5.899   5.354  0.1001  0.1103  0.3711
   78HK4     H3 6513   6.491   5.985   5.406 -0.9983  1.3990 -0.7539
   78HK4     C2 6514   6.313   5.867   5.379 -0.0259  0.4634  0.1590
   78HK4     H2 6515   6.253   5.931   5.446 -1.1628 -1.4608  1.0120
   78HK4     C1 6516   6.258   5.763   5.305  0.3321  0.0570  0.4628
   78HK4     H1 6517   6.153   5.733   5.322  1.0972 -3.9941 -1.4159
   78HK4     C6 6518   6.335   5.679   5.223 -0.1332  0.1226 -0.0391
   78HK4     C5 6519   6.466   5.717   5.195  0.0455 -0.1425  0.4271
   78HK4    C10 6520   6.548   5.665   5.081 -0.0797 -0.0668  0.3033
   78HK4     O1 6521   6.481   5.631   4.983  0.3979 -0.1537  0.0083
   78HK4    C16 6522   6.271   5.554   5.177 -0.2186 -0.2548  1.0893
   78HK4    C15 6523   6.132   5.542   5.156 -0.0814 -0.4290  0.2672
   78HK4     H7 6524   6.079   5.633   5.123 -1.4963 -0.5701  2.0354
   78HK4    C20 6525   6.065   5.422   5.132 -0.3283 -0.1966 -0.1991
   78HK4     H9 6526   5.956   5.422   5.136 -0.3261 -1.5255 -0.1203
   78HK4    C19 6527   6.138   5.304   5.120  0.0927  0.0464 -0.0396
   78HK4    C18 6528   6.281   5.315   5.137  0.1208  0.0368 -0.2625
   78HK4    C17 6529   6.343   5.436   5.167  0.0642  0.0115 -0.0406
   78HK4     H8 6530   6.446   5.437   5.200  0.1024 -0.8773 -0.1106
   78HK4     N1 6531   6.342   5.191   5.111  0.1588 -0.1138  0.5306
   78HK4    C21 6532   6.236   5.104   5.079  0.3632 -0.3221  0.4195
   78HK4    C22 6533   6.106   5.168   5.082  0.5392  0.0870 -0.5605
   78HK4    C26 6534   5.989   5.100   5.052  0.2207  0.5124 -0.2882
   78HK4    H13 6535   5.893   5.152   5.058  0.4628  0.9656 -0.4095
   78HK4    C25 6536   5.992   4.963   5.028  0.0562  0.3686  0.4783
   78HK4    H12 6537   5.910   4.919   4.972 -2.0481  2.7071  1.6595
   78HK4    C24 6538   6.117   4.902   5.030  0.0718  0.3643 -0.3834
   78HK4    H11 6539   6.131   4.808   4.974 -1.9946  1.2193 -2.3913
   78HK4    C23 6540   6.238   4.967   5.053  0.3243 -0.2575  0.0655
   78HK4    H10 6541   6.334   4.917   5.047 -0.5680 -1.9090 -0.8913
   78HK4    C39 6542   6.477   5.179   5.076  0.0474  0.5388 -0.1171
   78HK4    C41 6543   6.547   5.059   5.098 -0.3542  0.2388 -0.4875
   78HK4    H21 6544   6.505   4.976   5.157 -2.1944  0.9445 -0.7656
   78HK4    C42 6545   6.670   5.039   5.036  0.1341  0.3169  0.4497
   78HK4    H22 6546   6.725   4.943   5.041 -1.1332 -0.4732 -0.3446
   78HK4    C43 6547   6.730   5.138   4.960  0.1368 -0.4663 -0.5832
   78HK4    H23 6548   6.824   5.123   4.907 -0.6707 -0.6081 -2.0284
   78HK4    C44 6549   6.664   5.259   4.941  0.1982 -0.3459 -0.0330
   78HK4    H24 6550   6.711   5.339   4.881  1.1420  0.1170  1.2994
   78HK4    C45 6551   6.534   5.274   4.987  0.3372  0.5532  0.0844
   78HK4    H25 6552   6.473   5.354   4.943  0.6697  0.3072 -0.8208
   79HK4    H28 6553   9.408   0.963   8.434  0.2366 -0.2922  0.8378
   79HK4    C48 6554   9.438   1.051   8.491 -0.8209  0.6339  0.0005
   79HK4    C47 6555   9.438   1.053   8.630  0.6359  0.3155  0.0129
   79HK4    H27 6556   9.452   0.957   8.682  1.0637  0.0437 -0.5989
   79HK4    C46 6557   9.455   1.176   8.692  0.3194  0.1151  0.5000
   79HK4    H26 6558   9.422   1.178   8.797 -4.3846 -1.5377 -0.8299
   79HK4    C40 6559   9.486   1.297   8.626 -0.0604  0.0164  0.1387
   79HK4    C50 6560   9.487   1.284   8.486 -0.4964  0.3242  0.1029
   79HK4    H30 6561   9.477   1.371   8.419  0.5408  0.2021 -0.2238
   79HK4    C49 6562   9.471   1.164   8.418  0.1222  0.3289 -0.0534
   79HK4    H29 6563   9.501   1.169   8.312 -1.5382  0.7093 -0.5206
   79HK4     N2 6564   9.510   1.414   8.699 -0.2386 -0.1820  0.5150
   79HK4    C30 6565   9.484   1.432   8.836  0.1243 -0.3296  0.6072
   79HK4    C29 6566   9.374   1.399   8.914 -0.3503 -0.1888  0.0045
   79HK4    H15 6567   9.282   1.376   8.860 -0.3543  1.0209 -0.4989
   79HK4    C28 6568   9.366   1.431   9.049 -0.0505 -0.3887  0.0731
   79HK4    C27 6569   9.481   1.490   9.105 -0.2653  0.2389 -0.1515
   79HK4    H14 6570   9.472   1.530   9.207 -0.3724  0.8491 -0.3956
   79HK4    C32 6571   9.580   1.549   9.028 -0.2463  0.4360  0.0269
   79HK4    H16 6572   9.646   1.628   9.067  0.9894  0.6914 -2.4641
   79HK4    C31 6573   9.583   1.523   8.892 -0.1620  0.3318  0.0457
   79HK4    C34 6574   9.662   1.573   8.782 -0.3343 -0.5189 -0.4723
   79HK4    C33 6575   9.611   1.506   8.664 -0.6414 -0.1378 -0.5522
   79HK4    C35 6576   9.663   1.551   8.543 -0.3548  0.4031 -0.2309
   79HK4    H17 6577   9.621   1.510   8.451  0.9614 -2.8765  0.5277
   79HK4    C36 6578   9.760   1.650   8.532  0.3816 -0.2909 -0.0712
   79HK4    H18 6579   9.804   1.682   8.436  0.2429  0.2957  0.0571
   79HK4    C37 6580   9.805   1.714   8.647 -0.0019 -0.1195 -0.0154
   79HK4    H19 6581   9.882   1.789   8.633 -1.2528  1.2798  0.4412
   79HK4    C38 6582   9.753   1.678   8.770 -0.0371 -0.7405 -0.2057
   79HK4    H20 6583   9.802   1.728   8.854 -1.7763  3.5385 -1.5735
   79HK4    C14 6584   9.238   1.462   9.115 -0.2437 -0.1744 -0.4032
   79HK4     C9 6585   9.215   1.554   9.218 -0.7018  0.4532 -1.0666
   79HK4     C8 6586   9.111   1.526   9.309  0.5610 -0.2090  0.1935
   79HK4    C11 6587   9.016   1.427   9.288  0.2126  0.2213 -0.2739
   79HK4     H4 6588   8.949   1.386   9.365 -0.3099  0.7514 -0.4440
   79HK4    C12 6589   9.025   1.350   9.172 -0.1492 -0.3911  0.1019
   79HK4     H5 6590   8.938   1.299   9.128 -0.8629 -1.2749  2.4414
   79HK4    C13 6591   9.136   1.367   9.091 -0.3427 -0.1459 -0.1092
   79HK4     H6 6592   9.144   1.301   9.003 -1.0502  1.3854 -1.3581
   79HK4     C7 6593   9.108   1.606   9.433  0.3745 -0.3433  0.2751
   79HK4     O2 6594   9.014   1.601   9.513  0.1306 -0.6419 -0.0264
   79HK4     C4 6595   9.211   1.708   9.460  0.3446 -0.2945  0.2123
   79HK4     C3 6596   9.221   1.762   9.588 -0.6206  0.4489 -0.0184
   79HK4     H3 6597   9.148   1.755   9.669  1.8136 -0.3958  2.1725
   79HK4     C2 6598   9.323   1.853   9.613 -0.0459 -0.1904  0.0172
   79HK4     H2 6599   9.327   1.905   9.711 -1.7008  1.9216 -0.9765
   79HK4     C1 6600   9.407   1.895   9.511 -0.3251 -0.3363 -0.2670
   79HK4     H1 6601   9.492   1.956   9.545  0.3229 -0.8606 -0.9285
   79HK4     C6 6602   9.394   1.849   9.378 -0.4183 -0.0845 -0.3491
   79HK4     C5 6603   9.293   1.755   9.355 -0.5671  0.0719 -0.3421
   79HK4    C10 6604   9.287   1.684   9.224  0.3876 -0.1904 -0.2461
   79HK4     O1 6605   9.294   1.745   9.118  0.0774  0.1140 -0.0905
   79HK4    C16 6606   9.524   1.858   9.310  0.0076  0.4545  0.5255
   79HK4    C15 6607   9.652   1.845   9.369  0.0267 -0.0538  0.3837
   79HK4     H7 6608   9.651   1.817   9.476  0.4981 -0.1624  0.3598
   79HK4    C20 6609   9.770   1.877   9.303 -0.0878 -0.1988  0.1114
   79HK4     H9 6610   9.866   1.861   9.351 -0.1034 -1.5640 -0.3170
   79HK4    C19 6611   9.770   1.919   9.171 -0.3466 -0.2039  0.1080
   79HK4    C18 6612   9.641   1.935   9.106 -0.2614 -0.0681 -0.0243
   79HK4    C17 6613   9.527   1.907   9.180 -0.0444 -0.5872  0.1207
   79HK4     H8 6614   9.435   1.943   9.133  1.5979  3.3696 -0.2197
   79HK4     N1 6615   9.652   1.970   8.969 -0.1278 -0.3760 -0.0937
   79HK4    C21 6616   9.790   1.970   8.942 -0.0569  0.4896  0.2462
   79HK4    C22 6617   9.864   1.951   9.065 -0.2186 -0.0863  0.2574
   79HK4    C26 6618  10.001   1.973   9.065 -0.2411  0.0564  0.0116
   79HK4    H13 6619  10.063   1.949   9.151  0.0211  0.0441 -0.1823
   79HK4    C25 6620  10.061   2.020   8.949 -0.1001  0.2887  0.1774
   79HK4    H12 6621  10.170   2.026   8.950  0.1115 -2.6820 -0.5303
   79HK4    C24 6622   9.991   2.038   8.830  0.0720 -0.1538  0.0078
   79HK4    H11 6623  10.026   2.099   8.746  0.6294 -0.7984 -0.2317
   79HK4    C23 6624   9.854   2.014   8.826  0.0658 -0.1363  0.0765
   79HK4    H10 6625   9.796   2.053   8.743 -0.7289  1.5893  1.4051
   79HK4    C39 6626   9.560   2.054   8.905 -0.3840 -0.2407  0.4484
   79HK4    C41 6627   9.471   2.142   8.969 -0.0760  0.1366  0.3574
   79HK4    H21 6628   9.491   2.178   9.072 -1.7389  0.9377  0.4257
   79HK4    C42 6629   9.367   2.203   8.899  0.1951  0.1302 -0.0482
   79HK4    H22 6630   9.313   2.288   8.944  0.2884 -1.0426  2.4072
   79HK4    C43 6631   9.344   2.174   8.766  0.1730  0.4805 -0.1222
   79HK4    H23 6632   9.254   2.209   8.716 -0.3295 -0.4985  0.0777
   79HK4    C44 6633   9.433   2.088   8.701  0.1543  0.2746  0.1360
   79HK4    H24 6634   9.431   2.065   8.594  2.7941 -0.2458  0.1671
   79HK4    C45 6635   9.539   2.028   8.768 -0.2172 -0.1003  0.3968
   79HK4    H25 6636   9.559   1.932   8.720  0.7690 -0.1209  0.8334
   80HK4    H28 6637   4.691   6.418   4.850 -2.3104 -0.6695 -0.8768
   80HK4    C48 6638   4.713   6.447   4.747  0.0258  0.5628 -0.0607
   80HK4    C47 6639   4.607   6.488   4.666  0.5232  0.3146 -0.8443
   80HK4    H27 6640   4.525   6.542   4.714 -0.2395 -2.8970  1.6280
   80HK4    C46 6641   4.617   6.503   4.528 -0.6453  0.5487 -0.9027
   80HK4    H26 6642   4.528   6.523   4.466 -2.3676 -3.7115  0.0395
   80HK4    C40 6643   4.745   6.496   4.471 -0.2517  0.4802 -0.0239
   80HK4    C50 6644   4.853   6.456   4.552 -0.0536  0.0251 -0.5052
   80HK4    H30 6645   4.955   6.451   4.512  0.5922 -0.8266  1.1816
   80HK4    C49 6646   4.837   6.425   4.687 -0.3682 -0.2217 -0.6016
   80HK4    H29 6647   4.926   6.393   4.742 -2.0083 -2.4376  0.8332
   80HK4     N2 6648   4.766   6.509   4.333 -0.1639  0.3100 -0.0263
   80HK4    C30 6649   4.674   6.479   4.230 -0.7078  0.1607  0.5000
   80HK4    C29 6650   4.594   6.366   4.217 -0.4593  0.0767 -0.3033
   80HK4    H15 6651   4.562   6.318   4.309 -0.6438  0.4846 -0.1493
   80HK4    C28 6652   4.527   6.337   4.099  0.1859 -0.2613 -0.5848
   80HK4    C27 6653   4.542   6.424   3.989  0.0383  0.7139  0.1594
   80HK4    H14 6654   4.473   6.414   3.904 -0.0802  1.9877  0.1119
   80HK4    C32 6655   4.622   6.537   3.997  0.4082  0.4618  0.0700
   80HK4    H16 6656   4.631   6.604   3.912  3.0585  1.5777  1.1679
   80HK4    C31 6657   4.693   6.564   4.114  0.5963 -0.5368  0.1914
   80HK4    C34 6658   4.808   6.646   4.146  0.0429  0.1844  0.3503
   80HK4    C33 6659   4.850   6.609   4.280  0.3869 -0.0342  0.1863
   80HK4    C35 6660   4.948   6.682   4.347  0.4415 -0.0873  0.1606
   80HK4    H17 6661   4.982   6.645   4.444 -2.6930  3.7963  2.8787
   80HK4    C36 6662   5.009   6.788   4.281 -0.2003  0.3544  0.2755
   80HK4    H18 6663   5.107   6.818   4.320  0.1031  2.6343 -2.0734
   80HK4    C37 6664   4.975   6.821   4.150 -0.0126 -0.0078  0.1359
   80HK4    H19 6665   5.022   6.907   4.104  1.3914 -0.7044  0.2474
   80HK4    C38 6666   4.877   6.749   4.083  0.1750 -0.1237 -0.0131
   80HK4    H20 6667   4.857   6.776   3.979  1.0696  1.3912  0.1975
   80HK4    C14 6668   4.440   6.219   4.083 -0.0763 -0.1433 -0.0344
   80HK4     C9 6669   4.431   6.143   3.966  0.1438  0.7370 -0.6322
   80HK4     C8 6670   4.305   6.098   3.921  0.0829  0.5483 -0.2721
   80HK4    C11 6671   4.197   6.126   4.004  0.0527  0.4624 -0.2821
   80HK4     H4 6672   4.095   6.100   3.970 -0.2218  0.9970  0.1142
   80HK4    C12 6673   4.211   6.185   4.129 -0.0962  0.1731 -0.1273
   80HK4     H5 6674   4.133   6.172   4.206 -0.4779 -0.7137 -0.6608
   80HK4    C13 6675   4.336   6.221   4.177 -0.0387 -0.2034  0.0085
   80HK4     H6 6676   4.353   6.258   4.280 -0.6171  1.3606 -0.4391
   80HK4     C7 6677   4.289   6.019   3.797  0.0789 -0.5322  0.4193
   80HK4     O2 6678   4.177   5.994   3.752  0.1610 -0.3859  0.1318
   80HK4     C4 6679   4.411   5.974   3.726 -0.0882 -0.1330 -0.1173
   80HK4     C3 6680   4.403   5.887   3.618 -0.2487 -0.1736 -0.0740
   80HK4     H3 6681   4.316   5.823   3.598  0.3585 -0.9926 -0.1197
   80HK4     C2 6682   4.511   5.862   3.534 -0.3308 -0.6149 -0.0465
   80HK4     H2 6683   4.509   5.797   3.445 -0.4277 -2.3696  1.2179
   80HK4     C1 6684   4.632   5.926   3.560 -0.3875 -0.7059  0.4508
   80HK4     H1 6685   4.721   5.884   3.511 -0.5778 -1.8823  1.0984
   80HK4     C6 6686   4.644   6.016   3.667  0.0576 -0.1598 -0.0540
   80HK4     C5 6687   4.534   6.037   3.752 -0.0412 -0.2046 -0.1695
   80HK4    C10 6688   4.549   6.111   3.881  0.1386  0.2698 -0.4610
   80HK4     O1 6689   4.656   6.114   3.940 -0.0889  0.0667 -0.0345
   80HK4    C16 6690   4.763   6.102   3.658 -0.0515  0.0479  0.4894
   80HK4    C15 6691   4.798   6.165   3.537  0.2481  0.0918  0.5990
   80HK4     H7 6692   4.715   6.189   3.470  0.6984 -1.0620 -0.3843
   80HK4    C20 6693   4.922   6.222   3.511 -0.0292  0.3657 -0.1046
   80HK4     H9 6694   4.947   6.246   3.407  3.1476 -1.7527  0.0984
   80HK4    C19 6695   5.023   6.217   3.606  0.0991 -0.2427 -0.2722
   80HK4    C18 6696   4.996   6.144   3.729  0.1167 -0.6173 -0.4908
   80HK4    C17 6697   4.870   6.088   3.746  0.0672 -0.2689  0.2940
   80HK4     H8 6698   4.859   6.019   3.830 -2.6602  1.5302  1.4997
   80HK4     N1 6699   5.108   6.145   3.814 -0.1970 -0.4154 -0.0802
   80HK4    C21 6700   5.208   6.214   3.743 -0.2210 -0.5817 -0.2779
   80HK4    C22 6701   5.158   6.268   3.618 -0.0581  0.1180 -0.0436
   80HK4    C26 6702   5.245   6.341   3.538  0.2616 -0.1847  0.0264
   80HK4    H13 6703   5.224   6.381   3.439 -0.7334 -0.6016  0.0665
   80HK4    C25 6704   5.375   6.372   3.576  0.4563 -0.5232 -0.3707
   80HK4    H12 6705   5.438   6.448   3.531  1.2800 -0.2863  1.1467
   80HK4    C24 6706   5.416   6.328   3.702  0.3079 -0.3987 -0.2791
   80HK4    H11 6707   5.500   6.381   3.749  1.2413 -0.9330 -1.3348
   80HK4    C23 6708   5.340   6.242   3.779 -0.3634  0.1565 -0.3135
   80HK4    H10 6709   5.377   6.208   3.876  1.6816  2.3287 -0.3013
   80HK4    C39 6710   5.102   6.137   3.954  0.0549  0.0593 -0.0431
   80HK4    C41 6711   5.213   6.098   4.032  0.2703 -0.0743 -0.4183
   80HK4    H21 6712   5.293   6.041   3.982 -0.4105  0.6206 -2.3690
   80HK4    C42 6713   5.214   6.111   4.170 -0.2242 -0.4393 -0.3792
   80HK4    H22 6714   5.303   6.079   4.227  1.4487  0.9043 -2.1635
   80HK4    C43 6715   5.112   6.181   4.233 -0.0105 -0.3001 -0.1894
   80HK4    H23 6716   5.101   6.173   4.341 -1.3741 -0.3691 -0.3271
   80HK4    C44 6717   5.002   6.221   4.159  0.1127  0.5886  0.0964
   80HK4    H24 6718   4.957   6.312   4.202  0.1549 -0.3178  2.1221
   80HK4    C45 6719   4.995   6.199   4.021  0.1226 -0.0864  0.1990
   80HK4    H25 6720   4.901   6.221   3.968  0.1544 -1.1489 -0.3149
   81HK4    H28 6721   7.728   5.549   7.734 -0.0497 -0.8953  1.6822
   81HK4    C48 6722   7.722   5.635   7.800  0.4067  0.4657 -0.0291
   81HK4    C47 6723   7.822   5.665   7.892  0.0136  0.3787  0.4233
   81HK4    H27 6724   7.908   5.598   7.912 -0.8177 -0.3851  1.5427
   81HK4    C46 6725   7.816   5.780   7.969 -0.2257  0.2948  0.5302
   81HK4    H26 6726   7.894   5.808   8.041  0.0744  1.9101 -0.4020
   81HK4    C40 6727   7.711   5.874   7.955  0.0999  0.5039 -0.5742
   81HK4    C50 6728   7.619   5.842   7.854 -0.6932 -0.2120  0.3559
   81HK4    H30 6729   7.547   5.920   7.823 -2.7632 -1.2810  2.3818
   81HK4    C49 6730   7.623   5.728   7.774 -0.0250  0.0262  0.0392
   81HK4    H29 6731   7.553   5.716   7.690  0.2682  1.7989 -0.4948
   81HK4     N2 6732   7.654   5.936   8.067 -0.2268 -0.5981 -0.1219
   81HK4    C30 6733   7.675   5.893   8.200 -0.0420 -0.2024 -0.0226
   81HK4    C29 6734   7.694   5.769   8.258 -0.3327 -0.3007 -0.1311
   81HK4    H15 6735   7.721   5.682   8.198  1.5443  0.8131 -0.9383
   81HK4    C28 6736   7.697   5.748   8.396 -0.5648 -0.0756 -0.0910
   81HK4    C27 6737   7.685   5.864   8.475  0.0369  0.1454 -0.3244
   81HK4    H14 6738   7.713   5.859   8.581  3.2811  0.0181 -1.1282
   81HK4    C32 6739   7.655   5.990   8.424  0.0466  0.1610 -0.2962
   81HK4    H16 6740   7.640   6.077   8.489  1.0640  0.1092  0.0195
   81HK4    C31 6741   7.645   6.006   8.287  0.3624  0.1352 -0.3216
   81HK4    C34 6742   7.610   6.117   8.201  0.2121 -0.0309 -0.4753
   81HK4    C33 6743   7.611   6.070   8.064  0.6650 -0.3111 -0.3774
   81HK4    C35 6744   7.570   6.155   7.962 -0.1991 -0.5042 -0.2004
   81HK4    H17 6745   7.558   6.119   7.860  1.3638  1.4793 -1.1450
   81HK4    C36 6746   7.538   6.289   7.985  0.6888 -0.2567 -0.3674
   81HK4    H18 6747   7.528   6.365   7.906  0.7004  0.5840  0.4444
   81HK4    C37 6748   7.547   6.330   8.117 -0.8182 -0.3180 -0.2386
   81HK4    H19 6749   7.556   6.439   8.120  0.5904 -0.4058 -0.9054
   81HK4    C38 6750   7.573   6.249   8.227  0.3286 -0.0334 -0.2963
   81HK4    H20 6751   7.568   6.279   8.331 -0.3326 -0.3246 -0.2398
   81HK4    C14 6752   7.680   5.615   8.456  0.2829 -0.1348  0.0337
   81HK4     C9 6753   7.607   5.598   8.574 -0.0213 -0.1435 -0.1538
   81HK4     C8 6754   7.649   5.504   8.671 -0.1415  0.0485  0.0846
   81HK4    C11 6755   7.748   5.414   8.634  0.0531  0.2311  0.1584
   81HK4     H4 6756   7.755   5.326   8.700  2.7641 -1.4657 -2.2751
   81HK4    C12 6757   7.812   5.413   8.511  0.2333  0.4873  0.2498
   81HK4     H5 6758   7.860   5.320   8.479  0.8654  0.7855  0.3286
   81HK4    C13 6759   7.774   5.515   8.424  0.4385  0.1146 -0.2787
   81HK4     H6 6760   7.824   5.504   8.327  0.7388 -1.1161  0.0072
   81HK4     C7 6761   7.593   5.510   8.807  0.4573  0.4762  0.3170
   81HK4     O2 6762   7.595   5.409   8.877 -0.3644  0.0108 -0.3190
   81HK4     C4 6763   7.496   5.620   8.833  0.6848  0.7407  0.0519
   81HK4     C3 6764   7.468   5.661   8.963  0.0321 -0.2951  0.2395
   81HK4     H3 6765   7.524   5.618   9.048 -0.9900 -2.4494 -0.1235
   81HK4     C2 6766   7.358   5.742   8.986  0.0962 -0.0865 -0.1707
   81HK4     H2 6767   7.365   5.813   9.070  0.8645  1.4310 -1.4927
   81HK4     C1 6768   7.262   5.757   8.887 -0.1055  0.2081  0.0678
   81HK4     H1 6769   7.173   5.819   8.904 -0.2754 -1.0407  4.0858
   81HK4     C6 6770   7.278   5.704   8.757  0.1342  0.2300  0.0872
   81HK4     C5 6771   7.407   5.656   8.730  0.2407  0.3891  0.3112
   81HK4    C10 6772   7.470   5.654   8.595  0.1886  0.2052  0.2883
   81HK4     O1 6773   7.402   5.684   8.498 -0.0815 -0.1291  0.3754
   81HK4    C16 6774   7.155   5.677   8.682  0.0172 -0.2285  0.4434
   81HK4    C15 6775   7.039   5.755   8.703  0.0893  0.1681 -0.6027
   81HK4     H7 6776   7.044   5.865   8.698 -1.6722  0.2925  0.2339
   81HK4    C20 6777   6.912   5.707   8.674 -0.0011 -0.0438  0.1316
   81HK4     H9 6778   6.828   5.773   8.697  0.0415 -0.1258  0.5371
   81HK4    C19 6779   6.901   5.584   8.610 -0.1272 -0.0666  0.1952
   81HK4    C18 6780   7.019   5.516   8.561 -0.2102 -0.1295  0.0854
   81HK4    C17 6781   7.143   5.564   8.602 -0.2683  0.2077 -0.1308
   81HK4     H8 6782   7.232   5.511   8.568  0.1744 -0.2119  1.6865
   81HK4     N1 6783   6.987   5.403   8.482  0.3050 -0.3154  0.1397
   81HK4    C21 6784   6.847   5.388   8.484  0.2913 -0.2071  0.0823
   81HK4    C22 6785   6.794   5.499   8.561  0.1299 -0.5593  0.4863
   81HK4    C26 6786   6.664   5.491   8.609  0.0198 -0.6851  0.1672
   81HK4    H13 6787   6.619   5.571   8.668 -1.3366  0.2242 -2.0652
   81HK4    C25 6788   6.586   5.386   8.561 -1.1314  0.4903 -0.5758
   81HK4    H12 6789   6.481   5.368   8.581 -0.3200 -1.4942  2.2879
   81HK4    C24 6790   6.637   5.284   8.481 -0.0056  0.5060  0.1011
   81HK4    H11 6791   6.577   5.193   8.471 -3.9658  2.9777  0.2332
   81HK4    C23 6792   6.770   5.280   8.442 -0.2017  0.3960 -0.5695
   81HK4    H10 6793   6.816   5.196   8.390 -0.5235  0.3184 -0.7203
   81HK4    C39 6794   7.072   5.350   8.385 -0.1940 -0.2038 -0.3543
   81HK4    C41 6795   7.046   5.218   8.342 -0.2590 -0.3233  0.0478
   81HK4    H21 6796   7.002   5.146   8.413 -1.0553  0.9679  0.8871
   81HK4    C42 6797   7.068   5.178   8.211 -0.5910  0.4968 -0.2639
   81HK4    H22 6798   7.016   5.086   8.179 -0.7203  0.2258  0.7102
   81HK4    C43 6799   7.126   5.262   8.117 -0.1454  0.2353 -0.2168
   81HK4    H23 6800   7.130   5.235   8.011 -2.0635  0.6854 -0.4183
   81HK4    C44 6801   7.164   5.388   8.160 -0.3011  0.1455  0.1760
   81HK4    H24 6802   7.232   5.451   8.102  0.3496  1.5111  2.3407
   81HK4    C45 6803   7.131   5.434   8.288 -0.1221  0.3372  0.1534
   81HK4    H25 6804   7.163   5.536   8.312  0.6853  0.9870 -3.3728
   82HK4    H28 6805   9.345   8.817   1.963  0.9915  0.8195 -1.3044
   82HK4    C48 6806   9.405   8.736   1.922  0.1031 -0.2266 -0.5840
   82HK4    C47 6807   9.361   8.621   1.856 -0.3336 -0.1305 -0.4658
   82HK4    H27 6808   9.254   8.601   1.841 -0.6307 -0.6506  2.0929
   82HK4    C46 6809   9.443   8.528   1.793 -0.1712 -0.1454 -0.2306
   82HK4    H26 6810   9.400   8.440   1.743 -0.7052 -0.5352  0.9021
   82HK4    C40 6811   9.583   8.549   1.791 -0.1059 -0.5104  0.2204
   82HK4    C50 6812   9.628   8.666   1.855  0.1521  0.0116 -0.8968
   82HK4    H30 6813   9.731   8.656   1.891 -0.2788 -0.1575  0.3425
   82HK4    C49 6814   9.543   8.753   1.923  0.1134 -0.2993 -0.5551
   82HK4    H29 6815   9.587   8.825   1.994  0.8278 -0.1687 -1.1315
   82HK4     N2 6816   9.675   8.446   1.770  0.4202 -0.0659  0.3607
   82HK4    C30 6817   9.659   8.307   1.785  0.0933 -0.0341  0.2991
   82HK4    C29 6818   9.553   8.229   1.830  0.0006 -0.0290  0.0974
   82HK4    H15 6819   9.470   8.268   1.889  0.9422 -0.6391  1.8812
   82HK4    C28 6820   9.552   8.090   1.835  0.1873 -0.0040  0.9846
   82HK4    C27 6821   9.671   8.029   1.790 -0.0057  0.3784 -0.0636
   82HK4    H14 6822   9.688   7.921   1.799 -0.4680  0.4505  1.8235
   82HK4    C32 6823   9.773   8.099   1.728  0.0410  0.1049 -0.2965
   82HK4    H16 6824   9.859   8.044   1.688  2.2474  2.7154  0.6634
   82HK4    C31 6825   9.764   8.237   1.714  0.0351  0.1368  0.0485
   82HK4    C34 6826   9.853   8.338   1.658  0.4235 -0.1572  0.1214
   82HK4    C33 6827   9.791   8.465   1.691  0.4396 -0.2076  0.3545
   82HK4    C35 6828   9.846   8.584   1.646  0.0044  0.0112  0.3961
   82HK4    H17 6829   9.799   8.680   1.667 -0.0910  0.1311 -0.3208
   82HK4    C36 6830   9.965   8.580   1.573 -0.1458 -0.0941  0.1565
   82HK4    H18 6831  10.000   8.676   1.533  0.7491 -1.4201 -2.3543
   82HK4    C37 6832  10.028   8.460   1.543 -0.2107 -0.1218  0.1246
   82HK4    H19 6833  10.110   8.475   1.472 -0.5354  0.4110 -0.1422
   82HK4    C38 6834   9.970   8.340   1.583  0.2265 -0.4440 -0.1892
   82HK4    H20 6835  10.014   8.243   1.561 -0.6548 -1.1546  1.1322
   82HK4    C14 6836   9.447   8.024   1.914 -0.4310 -0.2475 -0.0224
   82HK4     C9 6837   9.466   7.894   1.965  0.0534 -0.1950 -0.0604
   82HK4     C8 6838   9.364   7.799   1.944 -0.3587  0.1366  0.4323
   82HK4    C11 6839   9.239   7.843   1.902 -0.3573  0.1678  0.4589
   82HK4     H4 6840   9.151   7.780   1.886  1.0578 -2.5267  2.8010
   82HK4    C12 6841   9.210   7.978   1.883 -0.0847  0.0987 -0.4769
   82HK4     H5 6842   9.113   8.013   1.847  0.0024  2.5863  1.5481
   82HK4    C13 6843   9.317   8.067   1.883 -0.3110  0.3709  0.3251
   82HK4     H6 6844   9.300   8.164   1.833  1.1220  0.4570 -0.0166
   82HK4     C7 6845   9.385   7.654   1.965 -0.1105  0.0838 -0.1727
   82HK4     O2 6846   9.316   7.574   1.903 -0.1845  0.1776 -0.2103
   82HK4     C4 6847   9.513   7.617   2.030 -0.0734  0.0370 -0.2776
   82HK4     C3 6848   9.537   7.484   2.062  0.4416  0.2986  0.4477
   82HK4     H3 6849   9.472   7.413   2.009 -0.8258  1.7568  0.0185
   82HK4     C2 6850   9.648   7.440   2.133  0.4099 -0.4745  0.0188
   82HK4     H2 6851   9.662   7.333   2.155 -1.0763 -0.9176 -1.0882
   82HK4     C1 6852   9.747   7.533   2.161 -0.4344  0.2933  0.4316
   82HK4     H1 6853   9.839   7.503   2.213 -1.2029 -4.2753 -0.6949
   82HK4     C6 6854   9.737   7.665   2.112 -0.3429  0.3578  0.5863
   82HK4     C5 6855   9.615   7.710   2.061 -0.3842  0.1289  0.4847
   82HK4    C10 6856   9.589   7.855   2.038  0.1766  0.1431 -0.0823
   82HK4     O1 6857   9.620   7.937   2.125  0.3360  0.0578 -0.0577
   82HK4    C16 6858   9.869   7.718   2.073 -0.1596  0.0544  0.7798
   82HK4    C15 6859   9.967   7.628   2.026 -0.1954  0.4727 -0.0980
   82HK4     H7 6860   9.929   7.531   1.990  0.3440  0.4330 -0.5510
   82HK4    C20 6861  10.105   7.636   2.034 -0.1915  0.0990  0.2609
   82HK4     H9 6862  10.169   7.551   2.012  0.7301  0.3364  1.9500
   82HK4    C19 6863  10.151   7.753   2.094  0.3132  0.1199 -0.1644
   82HK4    C18 6864  10.056   7.858   2.128  0.0964 -0.2330  0.3233
   82HK4    C17 6865   9.919   7.833   2.133  0.0158  0.2088  0.3297
   82HK4     H8 6866   9.849   7.897   2.186 -1.2884 -0.8036 -0.1444
   82HK4     N1 6867  10.119   7.957   2.206 -0.1981 -0.1527  0.4535
   82HK4    C21 6868  10.255   7.923   2.211 -0.0952  0.2356  0.2763
   82HK4    C22 6869  10.279   7.795   2.146  0.2454  0.6465 -0.4189
   82HK4    C26 6870  10.399   7.728   2.164  0.1102  0.5781  0.2591
   82HK4    H13 6871  10.408   7.624   2.131 -2.6711  0.6889 -0.9431
   82HK4    C25 6872  10.500   7.786   2.239  0.7085 -0.1748  0.0501
   82HK4    H12 6873  10.600   7.743   2.228  0.2571 -0.6743 -2.3633
   82HK4    C24 6874  10.470   7.904   2.306  0.3642 -0.0485 -0.3293
   82HK4    H11 6875  10.522   7.924   2.401 -2.6714  1.5197  1.0936
   82HK4    C23 6876  10.356   7.982   2.287  0.5518  0.1772 -0.5281
   82HK4    H10 6877  10.350   8.091   2.289  1.7622  0.2847 -1.9489
   82HK4    C39 6878  10.067   8.086   2.217  0.0281 -0.0383  0.1843
   82HK4    C41 6879  10.096   8.168   2.329  0.2632 -0.5399  0.4912
   82HK4    H21 6880  10.143   8.124   2.418  0.8595  0.1945  0.5450
   82HK4    C42 6881  10.082   8.306   2.320  0.0545 -0.6219 -0.5913
   82HK4    H22 6882  10.100   8.362   2.414  0.0927 -0.1359 -0.8882
   82HK4    C43 6883  10.039   8.362   2.201  0.6962  0.1017 -0.4894
   82HK4    H23 6884  10.017   8.468   2.194 -1.4830 -0.2103  0.9859
   82HK4    C44 6885  10.002   8.283   2.093 -0.7867  0.0444  0.0524
   82HK4    H24 6886   9.959   8.328   2.001 -0.8212 -0.9521 -0.4244
   82HK4    C45 6887  10.013   8.145   2.101  0.4513  0.1367  0.0730
   82HK4    H25 6888   9.973   8.086   2.017 -1.5043  0.1750  0.9392
   83HK4    H28 6889   6.815   9.385   1.211 -2.2855  0.8251  0.3139
   83HK4    C48 6890   6.835   9.490   1.190 -0.0525  0.2840 -0.3860
   83HK4    C47 6891   6.920   9.520   1.085  0.8021  0.2568  0.2876
   83HK4    H27 6892   6.995   9.443   1.061 -0.8517 -2.6039  3.8944
   83HK4    C46 6893   6.925   9.651   1.037  0.1034  0.2325  0.1313
   83HK4    H26 6894   6.978   9.661   0.941  0.7877 -1.0182  0.3589
   83HK4    C40 6895   6.861   9.757   1.104 -0.1134  0.0476  0.2204
   83HK4    C50 6896   6.797   9.728   1.226 -0.7725 -0.0596 -0.1493
   83HK4    H30 6897   6.786   9.806   1.303 -0.5592 -1.1787  1.0297
   83HK4    C49 6898   6.777   9.595   1.261 -0.0275 -0.0853  0.1860
   83HK4    H29 6899   6.705   9.571   1.340  0.4954 -0.7134  0.4773
   83HK4     N2 6900   6.880   9.888   1.059 -0.4864 -0.0830 -0.3261
   83HK4    C30 6901   6.991   9.931   0.984 -0.6098  0.2755 -0.3053
   83HK4    C29 6902   7.118   9.876   0.969 -0.4273  0.5595  0.1674
   83HK4    H15 6903   7.145   9.800   1.043 -0.8855  0.3639  0.1385
   83HK4    C28 6904   7.208   9.911   0.869 -0.0877 -0.7770 -0.0122
   83HK4    C27 6905   7.162  10.017   0.789 -0.2693 -0.3943  0.5852
   83HK4    H14 6906   7.239  10.053   0.718  2.7023 -2.4725  2.6295
   83HK4    C32 6907   7.045  10.090   0.807  0.3426  0.7865 -0.1067
   83HK4    H16 6908   7.019  10.172   0.740  3.2757  1.7020 -0.2047
   83HK4    C31 6909   6.961  10.052   0.911  0.1169  0.3826 -0.4347
   83HK4    C34 6910   6.824  10.083   0.947  0.2074  0.1067  0.1565
   83HK4    C33 6911   6.780   9.987   1.046 -0.2229  0.2419  0.0929
   83HK4    C35 6912   6.661  10.005   1.116 -0.3715 -0.0669 -0.0787
   83HK4    H17 6913   6.612   9.927   1.173 -1.3621  2.1702  2.2346
   83HK4    C36 6914   6.584  10.117   1.087  0.0411  0.2504  0.0270
   83HK4    H18 6915   6.477  10.122   1.114  0.3214  1.3498  0.9299
   83HK4    C37 6916   6.631  10.213   0.998  0.2637 -0.0000 -0.1219
   83HK4    H19 6917   6.562  10.289   0.962 -0.5745 -0.2042  1.0110
   83HK4    C38 6918   6.746  10.195   0.921  0.2069  0.0274 -0.2123
   83HK4    H20 6919   6.800  10.284   0.888  1.6881 -0.3734  1.0941
   83HK4    C14 6920   7.349   9.873   0.881  0.1092 -0.0747 -0.0947
   83HK4     C9 6921   7.463   9.941   0.835 -0.2028  0.1974 -0.4601
   83HK4     C8 6922   7.573   9.872   0.783  0.1425  0.3156  0.1001
   83HK4    C11 6923   7.580   9.734   0.799 -0.6217  0.2329 -0.2444
   83HK4     H4 6924   7.661   9.679   0.748  1.6383  0.5455  2.8784
   83HK4    C12 6925   7.481   9.664   0.867 -0.0164 -0.0829  0.3096
   83HK4     H5 6926   7.501   9.563   0.907 -0.4652 -0.1417  0.3833
   83HK4    C13 6927   7.367   9.734   0.902 -0.1442 -0.1068 -0.0689
   83HK4     H6 6928   7.296   9.683   0.969 -1.8085  0.9434 -0.9912
   83HK4     C7 6929   7.697   9.940   0.740  0.0995  0.2954 -0.0568
   83HK4     O2 6930   7.752   9.909   0.635  0.4483 -0.0806  0.2343
   83HK4     C4 6931   7.718  10.075   0.798  0.1800 -0.1550  0.9832
   83HK4     C3 6932   7.843  10.134   0.789 -0.0240  0.1154 -0.1122
   83HK4     H3 6933   7.927  10.065   0.803  0.4582  0.6730 -0.2159
   83HK4     C2 6934   7.868  10.268   0.818 -0.1661  0.3509 -1.0521
   83HK4     H2 6935   7.967  10.315   0.815  0.0227 -0.0267 -0.7778
   83HK4     C1 6936   7.754  10.346   0.834 -0.0551  0.2667  0.1607
   83HK4     H1 6937   7.761  10.456   0.846 -1.7524 -0.0492  5.8173
   83HK4     C6 6938   7.624  10.293   0.831  0.0686 -0.0306  0.1476
   83HK4     C5 6939   7.604  10.154   0.827  0.0805 -0.0344  0.2660
   83HK4    C10 6940   7.476  10.087   0.863 -0.0551  0.0920  0.0255
   83HK4     O1 6941   7.409  10.146   0.947 -0.0997 -0.3707  0.3164
   83HK4    C16 6942   7.530  10.392   0.775  0.0139 -0.0836  0.1420
   83HK4    C15 6943   7.557  10.460   0.655 -0.1470  0.1128  0.2186
   83HK4     H7 6944   7.648  10.440   0.596 -0.0014  1.0009  0.1336
   83HK4    C20 6945   7.482  10.570   0.616 -0.1105 -0.1442 -0.5875
   83HK4     H9 6946   7.519  10.640   0.540  0.0041  0.2197 -0.2023
   83HK4    C19 6947   7.376  10.606   0.698  0.7218  0.4410  0.2448
   83HK4    C18 6948   7.351  10.546   0.827  0.3749  0.0783  0.0105
   83HK4    C17 6949   7.433  10.440   0.863 -0.3344 -0.4881 -0.0172
   83HK4     H8 6950   7.457  10.437   0.969 -0.1672  1.2324  0.0068
   83HK4     N1 6951   7.240  10.608   0.889  0.2715  0.1209 -0.2155
   83HK4    C21 6952   7.191  10.699   0.793 -0.2500 -0.4662 -0.5034
   83HK4    C22 6953   7.273  10.706   0.674  0.4529  0.1118  0.0126
   83HK4    C26 6954   7.229  10.778   0.564  0.0093  0.5657  0.4825
   83HK4    H13 6955   7.289  10.797   0.475 -0.1928 -0.5999  0.0855
   83HK4    C25 6956   7.104  10.840   0.568 -0.5137 -0.3887 -0.5940
   83HK4    H12 6957   7.070  10.913   0.495 -1.2870  1.4408  1.5419
   83HK4    C24 6958   7.028  10.834   0.684  0.1520 -0.0530 -0.1369
   83HK4    H11 6959   6.947  10.906   0.704 -0.1201 -0.4744  0.2875
   83HK4    C23 6960   7.068  10.764   0.797 -0.0417 -0.0879 -0.0921
   83HK4    H10 6961   7.024  10.786   0.894  0.8680  1.8929 -0.1122
   83HK4    C39 6962   7.185  10.553   1.006 -0.2022 -0.2765 -0.6261
   83HK4    C41 6963   7.109  10.633   1.093  0.6246 -0.6929  0.4963
   83HK4    H21 6964   7.168  10.715   1.136  1.3571 -0.6823 -0.4985
   83HK4    C42 6965   6.994  10.595   1.161 -0.3229  0.1457 -0.6233
   83HK4    H22 6966   6.923  10.656   1.219  0.0953 -0.1832  0.2271
   83HK4    C43 6967   6.954  10.462   1.152  0.5427 -0.1508 -0.0901
   83HK4    H23 6968   6.852  10.433   1.177  0.4117 -0.1049 -0.5665
   83HK4    C44 6969   7.029  10.376   1.073  0.7546 -0.4210  0.4004
   83HK4    H24 6970   6.995  10.271   1.069  1.4493 -0.6018 -1.8862
   83HK4    C45 6971   7.141  10.419   1.003  0.5711 -0.5513  0.0247
   83HK4    H25 6972   7.206  10.345   0.954  1.4362 -0.2383  0.6739
   84HK4    H28 6973   5.378   5.057   8.259 -1.8930 -1.1785 -2.3121
   84HK4    C48 6974   5.314   5.003   8.329  0.0328 -0.5223  0.0393
   84HK4    C47 6975   5.215   4.920   8.279 -0.1773 -0.0033 -0.4151
   84HK4    H27 6976   5.210   4.900   8.170  0.0497  0.2851 -0.4762
   84HK4    C46 6977   5.134   4.851   8.369  0.2476  0.0667  0.0206
   84HK4    H26 6978   5.080   4.765   8.327  1.6080  0.0170 -1.7257
   84HK4    C40 6979   5.146   4.868   8.508 -0.2126  0.5583  0.0019
   84HK4    C50 6980   5.245   4.958   8.550  0.3907 -0.1557  0.1216
   84HK4    H30 6981   5.249   4.976   8.658 -0.4743  1.0435 -0.0289
   84HK4    C49 6982   5.332   5.025   8.465  0.1824 -0.0997 -0.0448
   84HK4    H29 6983   5.414   5.092   8.497  0.0678  0.2740 -0.5359
   84HK4     N2 6984   5.072   4.795   8.602  0.5700 -0.1954  0.0322
   84HK4    C30 6985   4.950   4.734   8.568  0.5170  0.1829 -0.4479
   84HK4    C29 6986   4.834   4.793   8.518  0.0842  0.1573  0.5013
   84HK4    H15 6987   4.842   4.900   8.495 -0.7310 -0.0269 -0.6654
   84HK4    C28 6988   4.710   4.732   8.511 -0.0268  0.4045  0.2627
   84HK4    C27 6989   4.709   4.599   8.559  0.3582  0.1446 -0.4363
   84HK4    H14 6990   4.618   4.540   8.541 -0.4275  2.1688 -3.5276
   84HK4    C32 6991   4.818   4.538   8.619  0.1011  0.5401  0.4488
   84HK4    H16 6992   4.818   4.430   8.631 -1.2810  0.4275 -0.4419
   84HK4    C31 6993   4.936   4.609   8.640  0.0230  0.6953  0.3560
   84HK4    C34 6994   5.051   4.595   8.727  0.4518 -0.3447 -0.3665
   84HK4    C33 6995   5.132   4.712   8.699  0.3305 -0.1123  0.2551
   84HK4    C35 6996   5.246   4.721   8.778  0.5517  0.0391 -0.0865
   84HK4    H17 6997   5.315   4.803   8.756 -0.5150  0.7645 -0.7982
   84HK4    C36 6998   5.279   4.622   8.870  0.1249  0.0416  0.0699
   84HK4    H18 6999   5.380   4.613   8.910 -0.1415 -1.8847  0.3703
   84HK4    C37 7000   5.190   4.521   8.904 -0.1593  0.4956  0.6830
   84HK4    H19 7001   5.214   4.450   8.984  0.1368 -0.3398 -0.1399
   84HK4    C38 7002   5.073   4.505   8.831  0.2089  0.1945  0.1520
   84HK4    H20 7003   5.025   4.408   8.816  1.2568 -0.2239 -0.5200
   84HK4    C14 7004   4.584   4.798   8.475 -0.1445 -0.0058 -0.0786
   84HK4     C9 7005   4.458   4.743   8.506 -0.3669  0.4898 -0.0954
   84HK4     C8 7006   4.357   4.747   8.408 -0.3311  0.3519 -0.1358
   84HK4    C11 7007   4.375   4.824   8.294 -0.3031 -0.1836 -0.5014
   84HK4     H4 7008   4.286   4.867   8.245 -0.9235 -0.8942 -0.0119
   84HK4    C12 7009   4.497   4.883   8.265 -0.1179 -0.1019  0.4068
   84HK4     H5 7010   4.519   4.936   8.170  0.5395  0.0557  0.6421
   84HK4    C13 7011   4.602   4.868   8.355  0.1103  0.4859  0.2449
   84HK4     H6 7012   4.691   4.932   8.346  0.5901 -0.1105  0.6797
   84HK4     C7 7013   4.229   4.676   8.432  0.0518 -0.2484  0.1456
   84HK4     O2 7014   4.154   4.658   8.336  0.3232  0.2301 -0.1592
   84HK4     C4 7015   4.207   4.607   8.561  0.0807 -0.0252  0.2690
   84HK4     C3 7016   4.086   4.544   8.587 -0.4734  0.9895  0.1801
   84HK4     H3 7017   4.007   4.564   8.514  0.2318 -1.0427 -1.1569
   84HK4     C2 7018   4.059   4.472   8.703 -0.3841 -0.8865 -0.9548
   84HK4     H2 7019   3.960   4.432   8.730 -0.3173 -0.2166  0.3004
   84HK4     C1 7020   4.170   4.447   8.783 -0.5510  0.2936 -0.3489
   84HK4     H1 7021   4.155   4.392   8.877  2.2365  1.9882  1.1408
   84HK4     C6 7022   4.297   4.503   8.761 -0.2046 -0.4557 -0.2536
   84HK4     C5 7023   4.310   4.597   8.658  0.2780 -0.1861  0.0452
   84HK4    C10 7024   4.432   4.680   8.639  0.0402  0.1081 -0.1901
   84HK4     O1 7025   4.462   4.744   8.739 -0.1211  0.4376 -0.3510
   84HK4    C16 7026   4.409   4.411   8.787 -0.2360 -0.4269 -0.0048
   84HK4    C15 7027   4.398   4.270   8.787 -0.0668 -0.4387  0.0770
   84HK4     H7 7028   4.324   4.224   8.719 -1.9730 -0.1846  1.9102
   84HK4    C20 7029   4.485   4.186   8.856  0.2350 -0.3709 -0.2244
   84HK4     H9 7030   4.473   4.077   8.857 -0.4858 -0.2939  0.2451
   84HK4    C19 7031   4.589   4.248   8.924 -0.0424 -0.3886  0.2149
   84HK4    C18 7032   4.606   4.392   8.933  0.3522 -0.3881 -0.5316
   84HK4    C17 7033   4.504   4.464   8.872 -0.1182 -0.6132 -0.0204
   84HK4     H8 7034   4.491   4.565   8.911 -3.6757  0.0524 -2.6852
   84HK4     N1 7035   4.721   4.429   9.005 -0.3696  0.1613  0.3490
   84HK4    C21 7036   4.786   4.307   9.034 -0.3265  0.2376  0.5739
   84HK4    C22 7037   4.707   4.194   8.989  0.2335  0.0404  0.0725
   84HK4    C26 7038   4.746   4.064   9.016 -0.4378 -0.1540  0.1132
   84HK4    H13 7039   4.678   3.980   9.001  3.0785 -2.8975 -1.0596
   84HK4    C25 7040   4.874   4.039   9.064 -0.1385  0.2570 -0.4781
   84HK4    H12 7041   4.895   3.942   9.109  1.7281  0.6929 -0.3910
   84HK4    C24 7042   4.956   4.147   9.093  0.0102 -0.1644  0.7070
   84HK4    H11 7043   5.064   4.132   9.109  0.5315  0.4384 -1.8975
   84HK4    C23 7044   4.914   4.279   9.080 -0.0711 -0.2980 -0.4487
   84HK4    H10 7045   4.989   4.357   9.092  0.4532 -0.7083 -1.0408
   84HK4    C39 7046   4.772   4.555   9.039 -0.2012  0.1901 -0.0153
   84HK4    C41 7047   4.834   4.585   9.162 -0.3672 -0.0770  0.1348
   84HK4    H21 7048   4.847   4.497   9.227  1.2586  1.4193  1.8999
   84HK4    C42 7049   4.892   4.710   9.180  0.2484 -0.3033 -0.2243
   84HK4    H22 7050   4.911   4.755   9.279  1.0310  0.7968 -0.8689
   84HK4    C43 7051   4.901   4.797   9.072  0.2612 -0.2107 -0.1487
   84HK4    H23 7052   4.921   4.898   9.110 -0.5221 -0.8430  2.0290
   84HK4    C44 7053   4.840   4.774   8.949 -0.1633  0.2838 -0.0354
   84HK4    H24 7054   4.838   4.846   8.866 -0.6863  0.5906  0.2350
   84HK4    C45 7055   4.771   4.654   8.939 -0.4766  0.4386  0.2338
   84HK4    H25 7056   4.721   4.628   8.844  0.9631 -1.7705  0.0464
   85HK4    H28 7057   0.976   3.678   4.087  1.1212  0.4313 -0.5220
   85HK4    C48 7058   1.031   3.584   4.091 -0.0456 -0.2367 -0.1315
   85HK4    C47 7059   1.119   3.564   3.985  0.4457  0.1762  0.2012
   85HK4    H27 7060   1.129   3.643   3.909 -0.1858  1.0637  1.0321
   85HK4    C46 7061   1.207   3.457   3.991 -0.1847 -0.3524  0.1182
   85HK4    H26 7062   1.289   3.451   3.917  0.9052 -1.4041  1.3892
   85HK4    C40 7063   1.213   3.368   4.100  0.5006  0.0372  0.4049
   85HK4    C50 7064   1.117   3.389   4.202  0.1423 -0.0044  0.0765
   85HK4    H30 7065   1.097   3.304   4.268  1.6017 -0.3754  0.0559
   85HK4    C49 7066   1.029   3.496   4.198 -0.7288 -0.7368 -0.5459
   85HK4    H29 7067   0.949   3.502   4.274 -1.6389  0.7642 -1.6017
   85HK4     N2 7068   1.286   3.249   4.104 -0.4748 -0.5935 -0.2066
   85HK4    C30 7069   1.359   3.198   3.994  0.0058  0.0936 -0.2127
   85HK4    C29 7070   1.333   3.208   3.858 -0.4810 -0.1198 -0.1379
   85HK4    H15 7071   1.231   3.234   3.831 -0.0646  1.6362 -0.0877
   85HK4    C28 7072   1.411   3.148   3.760  0.0042 -0.0988  0.2304
   85HK4    C27 7073   1.532   3.093   3.807 -0.1682 -0.6813 -0.0089
   85HK4    H14 7074   1.615   3.076   3.737 -2.2479 -2.2007 -2.2033
   85HK4    C32 7075   1.567   3.082   3.941  0.1746  0.2836 -0.0142
   85HK4    H16 7076   1.659   3.028   3.962  0.3451  1.1338  1.5037
   85HK4    C31 7077   1.483   3.137   4.037 -0.1695 -0.1557 -0.0592
   85HK4    C34 7078   1.480   3.139   4.182 -0.3971 -0.2110 -0.0642
   85HK4    C33 7079   1.359   3.210   4.219 -0.2553  0.0608 -0.1186
   85HK4    C35 7080   1.351   3.248   4.352 -0.2236 -1.0482  0.2050
   85HK4    H17 7081   1.270   3.311   4.389  0.2862  0.0190 -0.4920
   85HK4    C36 7082   1.449   3.212   4.444  0.0866  0.0794  0.3182
   85HK4    H18 7083   1.428   3.228   4.551  0.7354  1.2997  0.2710
   85HK4    C37 7084   1.558   3.134   4.409 -0.1082 -0.0659  0.0377
   85HK4    H19 7085   1.631   3.095   4.479  1.5900 -1.2743 -2.3266
   85HK4    C38 7086   1.576   3.100   4.275 -0.3704 -0.0184 -0.0105
   85HK4    H20 7087   1.664   3.047   4.238  1.2593  1.6652  1.3598
   85HK4    C14 7088   1.346   3.117   3.631  0.5275  0.2414 -0.1193
   85HK4     C9 7089   1.373   3.003   3.555 -0.2760 -0.0286 -0.0019
   85HK4     C8 7090   1.360   3.001   3.414 -0.0002 -0.0579 -0.0286
   85HK4    C11 7091   1.303   3.113   3.354 -0.4971 -0.1488  0.2633
   85HK4     H4 7092   1.308   3.113   3.244  0.9897 -0.2145  0.3197
   85HK4    C12 7093   1.274   3.225   3.431  0.0922  0.3701 -0.2700
   85HK4     H5 7094   1.245   3.320   3.383 -0.0953  0.7484  0.5915
   85HK4    C13 7095   1.289   3.230   3.569  0.1526 -0.0267 -0.2625
   85HK4     H6 7096   1.253   3.321   3.618  0.4291  1.0805 -2.0624
   85HK4     C7 7097   1.427   2.895   3.335  0.2604 -0.0645  0.2027
   85HK4     O2 7098   1.406   2.893   3.214  0.6310  0.2429  0.1311
   85HK4     C4 7099   1.501   2.790   3.408 -0.1112 -0.2664  0.2888
   85HK4     C3 7100   1.586   2.702   3.341 -0.6988 -0.6000 -0.0280
   85HK4     H3 7101   1.605   2.725   3.235 -0.8215 -0.0459  0.0690
   85HK4     C2 7102   1.666   2.608   3.404 -0.1453 -0.0088  0.1615
   85HK4     H2 7103   1.714   2.528   3.346  1.3366  0.9269  0.0688
   85HK4     C1 7104   1.676   2.614   3.542  0.0275 -0.2015  0.1584
   85HK4     H1 7105   1.753   2.554   3.592 -0.1438 -0.7377 -0.2201
   85HK4     C6 7106   1.592   2.699   3.617 -0.0256 -0.3789  0.3001
   85HK4     C5 7107   1.503   2.783   3.549  0.3825  0.0585  0.2994
   85HK4    C10 7108   1.419   2.880   3.624  0.3447  0.2268  0.0446
   85HK4     O1 7109   1.342   2.837   3.711  0.1628 -0.0659 -0.2597
   85HK4    C16 7110   1.658   2.749   3.738  0.3217  0.1383 -0.0989
   85HK4    C15 7111   1.795   2.777   3.755  0.2746  0.3440 -0.0517
   85HK4     H7 7112   1.855   2.755   3.665 -1.7283  1.1858 -1.6301
   85HK4    C20 7113   1.851   2.792   3.882 -0.2356  0.7739  0.1232
   85HK4     H9 7114   1.958   2.806   3.896 -0.3306  0.6602  1.0072
   85HK4    C19 7115   1.772   2.777   3.996 -0.4197 -0.0542 -0.1028
   85HK4    C18 7116   1.636   2.731   3.981 -0.3467 -0.1872 -0.3620
   85HK4    C17 7117   1.582   2.728   3.853 -0.1189 -0.2324 -0.4574
   85HK4     H8 7118   1.486   2.677   3.850  1.0359 -2.7535  2.7488
   85HK4     N1 7119   1.571   2.713   4.105  0.5086 -0.2397  0.0831
   85HK4    C21 7120   1.659   2.753   4.207  0.4364 -0.3985  0.2072
   85HK4    C22 7121   1.780   2.796   4.139  0.0063  0.2357 -0.1613
   85HK4    C26 7122   1.879   2.860   4.213 -0.2607  0.1192  0.3021
   85HK4    H13 7123   1.974   2.894   4.171  0.3601  0.0489  1.6387
   85HK4    C25 7124   1.862   2.886   4.348  0.5427 -0.2529  0.4782
   85HK4    H12 7125   1.941   2.936   4.404  1.7315 -0.5409 -0.9137
   85HK4    C24 7126   1.747   2.839   4.410 -0.1074  0.2778 -0.3064
   85HK4    H11 7127   1.740   2.855   4.519 -1.1932 -1.3498 -0.1113
   85HK4    C23 7128   1.643   2.775   4.343 -0.0502 -0.2871  0.1327
   85HK4    H10 7129   1.551   2.744   4.393  0.2970 -2.9672 -0.8246
   85HK4    C39 7130   1.435   2.679   4.116  0.3582  0.4733  0.3930
   85HK4    C41 7131   1.397   2.596   4.224 -0.1325 -0.2826 -0.3594
   85HK4    H21 7132   1.469   2.539   4.285 -0.3366 -1.0473 -0.8329
   85HK4    C42 7133   1.262   2.592   4.255 -0.0923 -0.1654 -0.1696
   85HK4    H22 7134   1.224   2.508   4.314  0.6031 -0.2587  0.1472
   85HK4    C43 7135   1.172   2.672   4.185  0.2507 -0.0139 -0.4406
   85HK4    H23 7136   1.066   2.651   4.174 -0.0775  2.0698 -1.4863
   85HK4    C44 7137   1.219   2.755   4.084  0.2101  0.1288 -0.3439
   85HK4    H24 7138   1.153   2.839   4.056 -0.1306  0.2600  0.8312
   85HK4    C45 7139   1.350   2.759   4.038  0.3201  0.0060 -0.0411
   85HK4    H25 7140   1.387   2.841   3.975 -1.6930  1.9616  1.2362
   86HK4    H28 7141   0.774   6.080   0.208  0.4848 -0.6907 -1.1163
   86HK4    C48 7142   0.810   5.999   0.271  0.0984 -0.1283 -0.1554
   86HK4    C47 7143   0.899   5.916   0.203  0.3056 -0.2481  0.2565
   86HK4    H27 7144   0.897   5.913   0.093 -1.3536 -0.5646  0.2847
   86HK4    C46 7145   0.966   5.816   0.273 -0.0545 -0.5791  0.1322
   86HK4    H26 7146   1.049   5.767   0.220 -1.6587 -1.5616 -1.5251
   86HK4    C40 7147   0.941   5.788   0.409 -0.0028 -0.2844  0.2027
   86HK4    C50 7148   0.840   5.864   0.471 -0.0425  0.0485 -0.2652
   86HK4    H30 7149   0.792   5.827   0.563 -1.2422  0.8416 -0.5639
   86HK4    C49 7150   0.780   5.970   0.404 -0.3935 -0.1539 -0.2729
   86HK4    H29 7151   0.726   6.044   0.465  2.7498 -0.0778  2.5559
   86HK4     N2 7152   0.989   5.669   0.464  0.2595 -0.2375  0.0760
   86HK4    C30 7153   1.003   5.543   0.401  0.0062 -0.3004  0.1478
   86HK4    C29 7154   0.977   5.510   0.269  0.6048 -0.1779 -0.0016
   86HK4    H15 7155   0.903   5.573   0.220  0.6415 -0.5721 -0.5768
   86HK4    C28 7156   0.984   5.379   0.222 -0.7796 -0.2015 -0.1551
   86HK4    C27 7157   1.016   5.282   0.319 -0.1204  0.1642 -0.0065
   86HK4    H14 7158   1.006   5.174   0.300  1.4764 -0.1561  0.8730
   86HK4    C32 7159   1.055   5.314   0.449 -0.2731 -0.1156  0.1080
   86HK4    H16 7160   1.079   5.232   0.517 -1.0361  0.1296  0.6716
   86HK4    C31 7161   1.056   5.445   0.494  0.0080 -0.1743  0.2791
   86HK4    C34 7162   1.071   5.520   0.617 -0.3665 -0.1611  0.3155
   86HK4    C33 7163   1.030   5.658   0.598  0.6676  0.1068 -0.0176
   86HK4    C35 7164   1.053   5.748   0.702 -0.1615 -0.0917  0.3433
   86HK4    H17 7165   1.040   5.855   0.692 -0.0681  0.0133  1.2778
   86HK4    C36 7166   1.120   5.713   0.819  0.5314  0.2354  0.0481
   86HK4    H18 7167   1.151   5.786   0.895 -0.6273 -0.0466  0.8124
   86HK4    C37 7168   1.151   5.579   0.839  0.0423  0.0881 -0.1806
   86HK4    H19 7169   1.212   5.552   0.924 -1.2840  2.2022  1.5060
   86HK4    C38 7170   1.123   5.484   0.741  0.0992 -0.2237  0.1032
   86HK4    H20 7171   1.157   5.382   0.755 -0.0471 -0.2043  0.5836
   86HK4    C14 7172   0.928   5.349   0.089  0.3964 -0.0815 -0.6869
   86HK4     C9 7173   0.851   5.235   0.062  0.5690 -0.4285  0.2469
   86HK4     C8 7174   0.840   5.177  11.182  0.1951 -0.4134  0.2681
   86HK4    C11 7175   0.908   5.241  11.079 -0.4114  0.0583  0.1634
   86HK4     H4 7176   0.904   5.191  10.982  0.0196 -1.9857  1.1789
   86HK4    C12 7177   0.986   5.355  11.101 -0.6616  0.3915 -0.6501
   86HK4     H5 7178   1.024   5.404  11.011 -0.5847 -0.2861 -0.9925
   86HK4    C13 7179   0.992   5.411  11.228 -0.3285  0.5734 -0.7499
   86HK4     H6 7180   1.069   5.488  11.245 -0.2680  0.3957 -0.1865
   86HK4     C7 7181   0.756   5.058  11.157  0.1287 -0.3653  0.2630
   86HK4     O2 7182   0.718   5.035  11.043 -0.5965  0.2409  0.3730
   86HK4     C4 7183   0.699   4.985   0.025 -0.1797  0.2532  0.4975
   86HK4     C3 7184   0.639   4.862   0.001  0.2094  0.1418  0.1076
   86HK4     H3 7185   0.625   4.823  11.147 -1.7610 -1.4599  0.9502
   86HK4     C2 7186   0.610   4.781   0.110  0.2439  0.0646  0.0584
   86HK4     H2 7187   0.585   4.675   0.096  0.2459 -0.3140  2.8127
   86HK4     C1 7188   0.647   4.825   0.236 -0.3117  0.0897  0.2136
   86HK4     H1 7189   0.604   4.772   0.322 -0.7734 -1.3001 -0.8490
   86HK4     C6 7190   0.705   4.950   0.269  0.2157 -0.0973  0.0026
   86HK4     C5 7191   0.717   5.033   0.157  0.1945  0.4202  0.3845
   86HK4    C10 7192   0.772   5.171   0.171  0.5249  0.2665  0.6293
   86HK4     O1 7193   0.692   5.239   0.234  0.1172  0.5234 -0.1564
   86HK4    C16 7194   0.795   4.945   0.385  0.2815 -0.0950 -0.0481
   86HK4    C15 7195   0.871   4.831   0.416 -0.2227 -0.4060  0.0407
   86HK4     H7 7196   0.891   4.768   0.328  0.1322  1.3936 -1.1715
   86HK4    C20 7197   0.937   4.820   0.538 -0.0899 -0.0892 -0.0048
   86HK4     H9 7198   0.996   4.733   0.567  0.7697  0.5763  0.2934
   86HK4    C19 7199   0.929   4.919   0.636  0.5650 -0.1094  0.0737
   86HK4    C18 7200   0.848   5.036   0.606  1.0256  0.0896 -0.4151
   86HK4    C17 7201   0.784   5.043   0.484  0.4465 -0.0050 -0.1185
   86HK4     H8 7202   0.694   5.104   0.476 -0.7189 -1.8156 -1.4775
   86HK4     N1 7203   0.874   5.139   0.699  0.0384  0.4932 -0.5844
   86HK4    C21 7204   0.970   5.089   0.790 -0.8358 -0.4658 -0.1750
   86HK4    C22 7205   1.004   4.953   0.755 -0.4140 -0.6223  0.8429
   86HK4    C26 7206   1.097   4.879   0.828  0.3083 -0.6806 -0.1206
   86HK4    H13 7207   1.112   4.772   0.810 -2.3416 -1.5427  2.4015
   86HK4    C25 7208   1.150   4.940   0.940  0.1191 -0.3932 -0.1863
   86HK4    H12 7209   1.227   4.893   1.002  2.2778 -0.9332 -3.1769
   86HK4    C24 7210   1.125   5.074   0.968  0.6661 -0.3128 -0.0635
   86HK4    H11 7211   1.184   5.122   1.048 -1.1377  2.2008 -0.1805
   86HK4    C23 7212   1.038   5.152   0.893  0.1168 -1.1939 -0.3514
   86HK4    H10 7213   1.013   5.252   0.929  0.3433 -1.5634  0.8422
   86HK4    C39 7214   0.804   5.259   0.716 -0.3036  0.2477 -0.2471
   86HK4    C41 7215   0.799   5.321   0.843  0.0903 -0.0068 -0.1090
   86HK4    H21 7216   0.793   5.260   0.935 -1.4762 -0.0700 -0.2523
   86HK4    C42 7217   0.761   5.454   0.857  0.5047  0.0894  0.1269
   86HK4    H22 7218   0.731   5.499   0.953  0.0277 -0.3283  0.1745
   86HK4    C43 7219   0.719   5.527   0.747 -0.0573 -0.5206 -0.0666
   86HK4    H23 7220   0.682   5.627   0.770  0.6563 -0.1464 -0.5232
   86HK4    C44 7221   0.720   5.466   0.622 -0.6745 -0.0586 -0.2980
   86HK4    H24 7222   0.674   5.520   0.537 -0.1781 -0.0869 -0.5866
   86HK4    C45 7223   0.769   5.337   0.604 -0.0113  0.1973 -0.3743
   86HK4    H25 7224   0.783   5.295   0.504 -0.7869  0.0726 -0.4350
   87HK4    H28 7225   5.266   0.150   7.542  1.4883  0.3516 -0.1923
   87HK4    C48 7226   5.206   0.236   7.574 -0.2714 -0.8145 -0.2911
   87HK4    C47 7227   5.145   0.245   7.699  0.1868  0.5169 -0.1599
   87HK4    H27 7228   5.150   0.161   7.769  0.8062  1.2295  0.6662
   87HK4    C46 7229   5.072   0.356   7.739 -0.7117 -0.1653  0.0953
   87HK4    H26 7230   5.050   0.371   7.846  2.3025 -1.2038  0.8965
   87HK4    C40 7231   5.040   0.461   7.650  0.0216 -0.2032 -0.2134
   87HK4    C50 7232   5.099   0.447   7.523 -0.4345 -0.3232 -0.4123
   87HK4    H30 7233   5.079   0.524   7.446 -0.2977  0.4657  0.3409
   87HK4    C49 7234   5.184   0.343   7.489  0.6241  0.1740  0.7031
   87HK4    H29 7235   5.241   0.364   7.397  0.4166 -1.1957  0.2485
   87HK4     N2 7236   4.924   0.540   7.657  0.2006  0.0321  0.1368
   87HK4    C30 7237   4.808   0.511   7.731 -0.2147 -0.0350 -0.5367
   87HK4    C29 7238   4.768   0.388   7.783  0.1789  0.2251  0.3906
   87HK4    H15 7239   4.831   0.299   7.770 -0.2361  0.0279 -0.3235
   87HK4    C28 7240   4.656   0.376   7.863  0.1066  0.1672  0.2846
   87HK4    C27 7241   4.582   0.494   7.888  0.0529  0.1134  0.3794
   87HK4    H14 7242   4.515   0.495   7.975 -0.3379 -1.8117  0.1293
   87HK4    C32 7243   4.616   0.620   7.839  0.1540 -0.1355 -0.1997
   87HK4    H16 7244   4.542   0.700   7.847  1.0718  0.7698 -0.7399
   87HK4    C31 7245   4.734   0.630   7.767  0.2983  0.0992  0.0702
   87HK4    C34 7246   4.812   0.742   7.719 -0.1343  0.1936 -0.4128
   87HK4    C33 7247   4.923   0.681   7.648 -0.2006 -0.0004 -0.3498
   87HK4    C35 7248   5.023   0.768   7.607  0.0287 -0.0120  0.1885
   87HK4    H17 7249   5.120   0.725   7.582 -0.9169 -2.4592  0.5849
   87HK4    C36 7250   5.004   0.905   7.617  0.4947  0.0556  0.1729
   87HK4    H18 7251   5.068   0.969   7.556 -0.2911  3.1818  2.4862
   87HK4    C37 7252   4.891   0.965   7.673 -0.1139 -0.1188 -0.8562
   87HK4    H19 7253   4.883   1.073   7.682  1.5193 -0.0663  0.1511
   87HK4    C38 7254   4.794   0.880   7.725 -0.1355  0.1923 -0.3900
   87HK4    H20 7255   4.711   0.931   7.774 -0.6958  1.4274 -2.5837
   87HK4    C14 7256   4.599   0.248   7.905  0.1876  0.1122  0.2258
   87HK4     C9 7257   4.462   0.218   7.913  0.0835  0.6404  0.3839
   87HK4     C8 7258   4.420   0.120   8.004  0.3414 -0.0940 -0.2819
   87HK4    C11 7259   4.511   0.055   8.086  0.4036  0.2889 -0.0464
   87HK4     H4 7260   4.467  11.235   8.160 -1.5219  1.8823  0.2927
   87HK4    C12 7261   4.647   0.075   8.065  0.4776 -0.0638  0.0808
   87HK4     H5 7262   4.703  11.231   8.084  2.8711  0.9204 -1.9659
   87HK4    C13 7263   4.694   0.171   7.975  0.2652  0.7224  0.7964
   87HK4     H6 7264   4.795   0.167   7.933  0.8876 -2.5086  2.3996
   87HK4     C7 7265   4.285   0.059   8.000  0.1796  0.2548 -0.1093
   87HK4     O2 7266   4.237   0.032   8.110 -0.2038 -0.3597 -0.4261
   87HK4     C4 7267   4.198   0.097   7.886 -0.0957 -0.4635 -0.1432
   87HK4     C3 7268   4.084   0.022   7.864  0.0290 -0.5813 -0.3989
   87HK4     H3 7269   4.060  11.175   7.915 -2.6522 -0.0201 -0.5527
   87HK4     C2 7270   3.990   0.065   7.771 -0.3020  0.3478  0.3431
   87HK4     H2 7271   3.904   0.005   7.737 -0.4772 -0.7858  2.6851
   87HK4     C1 7272   4.009   0.190   7.713  0.5516  0.1021  0.0789
   87HK4     H1 7273   3.928   0.241   7.659  0.8363 -0.1829 -0.6248
   87HK4     C6 7274   4.124   0.269   7.731  0.4189  0.4221 -0.4699
   87HK4     C5 7275   4.225   0.214   7.811 -0.4299 -0.1607  0.2059
   87HK4    C10 7276   4.366   0.262   7.808 -0.3291 -0.4450  0.3046
   87HK4     O1 7277   4.413   0.302   7.702 -0.0774 -0.4312  0.4230
   87HK4    C16 7278   4.103   0.414   7.738 -0.0353  0.3278  0.1245
   87HK4    C15 7279   3.978   0.454   7.791 -0.0129  0.3042  0.1989
   87HK4     H7 7280   3.943   0.401   7.881  1.0025 -0.6955  0.0284
   87HK4    C20 7281   3.910   0.568   7.749  0.2364  0.4550  0.2083
   87HK4     H9 7282   3.824   0.601   7.806 -1.0065 -0.5793 -1.0453
   87HK4    C19 7283   3.967   0.646   7.649  0.1399  0.1079 -0.1220
   87HK4    C18 7284   4.101   0.619   7.602  0.2321  0.1291  0.1285
   87HK4    C17 7285   4.161   0.502   7.648  0.4141  0.3423  0.4313
   87HK4     H8 7286   4.257   0.470   7.608  0.4033  0.6857  0.1199
   87HK4     N1 7287   4.128   0.693   7.485  0.2601  0.3188  0.2542
   87HK4    C21 7288   4.004   0.752   7.453  0.1621 -0.0045  0.0345
   87HK4    C22 7289   3.904   0.739   7.557 -0.0991 -0.1650 -0.2350
   87HK4    C26 7290   3.774   0.785   7.539  0.0517  0.2826 -0.1837
   87HK4    H13 7291   3.694   0.756   7.607  1.0832 -1.5793  0.2577
   87HK4    C25 7292   3.744   0.842   7.415 -0.0429 -0.6150 -0.5739
   87HK4    H12 7293   3.644   0.881   7.397  0.2475  0.1630 -0.5320
   87HK4    C24 7294   3.839   0.854   7.315  0.6248 -0.0051  0.1195
   87HK4    H11 7295   3.802   0.883   7.215 -1.3763 -1.3442  0.4212
   87HK4    C23 7296   3.968   0.805   7.329  0.7175  0.1873 -0.0485
   87HK4    H10 7297   4.013   0.767   7.238  0.6646 -0.9073  0.3693
   87HK4    C39 7298   4.254   0.744   7.454  0.3928 -0.2882 -0.2108
   87HK4    C41 7299   4.294   0.777   7.323  0.2645  0.5785 -0.0323
   87HK4    H21 7300   4.233   0.756   7.234  0.4210 -0.1367  0.0258
   87HK4    C42 7301   4.416   0.842   7.305  0.4852  0.0232 -0.5747
   87HK4    H22 7302   4.449   0.887   7.210  0.0242  0.4878 -0.5223
   87HK4    C43 7303   4.492   0.876   7.416 -0.3511 -0.1718  0.0665
   87HK4    H23 7304   4.595   0.908   7.397  0.1271 -1.3710  0.5884
   87HK4    C44 7305   4.458   0.843   7.546 -0.1550  0.1623  0.2024
   87HK4    H24 7306   4.519   0.869   7.634  0.0673 -1.7036  0.6187
   87HK4    C45 7307   4.338   0.776   7.563 -0.0153 -0.1258  0.0544
   87HK4    H25 7308   4.307   0.749   7.665 -0.4885 -2.0508 -0.5821
   88HK4    H28 7309   2.784   6.261   5.597  3.0105  0.7670  0.4638
   88HK4    C48 7310   2.797   6.188   5.677  0.3730  0.0537  0.2617
   88HK4    C47 7311   2.688   6.147   5.753  0.0861 -0.0718 -0.2149
   88HK4    H27 7312   2.587   6.180   5.725  0.4553 -0.2030 -1.7620
   88HK4    C46 7313   2.703   6.054   5.856  0.2150 -0.2693 -0.4112
   88HK4    H26 7314   2.617   5.994   5.887 -0.0592  0.5128  0.3721
   88HK4    C40 7315   2.830   6.017   5.904  0.1348  0.0003  0.0132
   88HK4    C50 7316   2.938   6.063   5.826  0.0908  0.3283  0.1434
   88HK4    H30 7317   3.036   6.019   5.847 -0.3029 -0.2445  0.7903
   88HK4    C49 7318   2.924   6.146   5.715  0.4832  0.0149 -0.1432
   88HK4    H29 7319   3.010   6.178   5.654  0.0096  1.5034 -0.0653
   88HK4     N2 7320   2.847   5.976   6.037  0.4299  0.2713  0.0586
   88HK4    C30 7321   2.763   6.005   6.146 -0.1686 -0.5399 -0.1873
   88HK4    C29 7322   2.656   6.092   6.164  0.4489  0.1407  0.2140
   88HK4    H15 7323   2.620   6.147   6.077  0.6496 -0.2636 -0.1267
   88HK4    C28 7324   2.588   6.106   6.284 -0.2235 -0.5708 -0.0853
   88HK4    C27 7325   2.625   6.017   6.386 -0.0367  0.2734  0.5853
   88HK4    H14 7326   2.562   6.002   6.475  0.6326 -1.7633  0.7412
   88HK4    C32 7327   2.732   5.929   6.375 -0.2374  0.0788  0.1716
   88HK4    H16 7328   2.765   5.884   6.469 -1.4202  0.3560  0.7247
   88HK4    C31 7329   2.806   5.923   6.258 -0.5205 -0.4420  0.0188
   88HK4    C34 7330   2.906   5.830   6.210  0.2467  0.3758  0.0300
   88HK4    C33 7331   2.932   5.869   6.073 -0.0422 -0.1896 -0.1875
   88HK4    C35 7332   3.030   5.804   5.999  0.2691  0.5218 -0.4067
   88HK4    H17 7333   3.025   5.815   5.891 -0.8703  2.2335 -0.2043
   88HK4    C36 7334   3.101   5.698   6.055 -0.3023  0.2005 -0.2865
   88HK4    H18 7335   3.184   5.656   5.996 -0.2818  1.6365 -1.3234
   88HK4    C37 7336   3.074   5.658   6.185  0.6307  0.7640  0.0844
   88HK4    H19 7337   3.124   5.576   6.236  0.8315  1.7813  1.5800
   88HK4    C38 7338   2.979   5.724   6.262 -0.1564 -0.0188 -0.2087
   88HK4    H20 7339   2.950   5.696   6.364 -0.1992  3.6357  0.8572
   88HK4    C14 7340   2.529   6.234   6.325  0.7643 -0.0575 -0.2720
   88HK4     C9 7341   2.537   6.283   6.456 -0.2023 -0.1859 -0.1670
   88HK4     C8 7342   2.429   6.356   6.512  0.0760 -0.0578  0.2079
   88HK4    C11 7343   2.324   6.386   6.426  0.2715 -0.4239 -0.1636
   88HK4     H4 7344   2.240   6.440   6.473 -0.1601 -0.4656 -0.8839
   88HK4    C12 7345   2.323   6.357   6.290  0.2475  0.4866 -0.3604
   88HK4     H5 7346   2.250   6.413   6.230  0.3139  2.1034  1.0349
   88HK4    C13 7347   2.427   6.279   6.240  0.1248 -0.1859  0.4228
   88HK4     H6 7348   2.426   6.247   6.135 -0.6869  0.2158  0.3055
   88HK4     C7 7349   2.439   6.393   6.654  0.3787  0.8519 -0.0470
   88HK4     O2 7350   2.333   6.420   6.712  0.1139 -0.4719  0.1128
   88HK4     C4 7351   2.561   6.372   6.735  0.0732 -0.3195  0.1187
   88HK4     C3 7352   2.565   6.402   6.871  0.2996  0.7261 -0.1146
   88HK4     H3 7353   2.515   6.493   6.908  0.6142  0.9782 -0.3029
   88HK4     C2 7354   2.654   6.343   6.960 -0.1957  0.3896  0.1591
   88HK4     H2 7355   2.661   6.362   7.068  0.3961  2.1891 -0.1768
   88HK4     C1 7356   2.755   6.265   6.904 -0.5141 -0.1514  0.3389
   88HK4     H1 7357   2.846   6.252   6.964 -1.5356  0.8961  2.1716
   88HK4     C6 7358   2.762   6.236   6.766 -0.2026  0.1227  0.2963
   88HK4     C5 7359   2.666   6.294   6.683 -0.1550 -0.4423 -0.1482
   88HK4    C10 7360   2.662   6.270   6.535 -0.1725 -0.1158 -0.2015
   88HK4     O1 7361   2.755   6.318   6.470 -0.3230 -0.1433 -0.4358
   88HK4    C16 7362   2.832   6.112   6.733  0.1513  0.2756  0.4743
   88HK4    C15 7363   2.842   6.008   6.828  0.7759  0.1641  0.2974
   88HK4     H7 7364   2.744   5.975   6.866 -0.8856  4.6406  0.2425
   88HK4    C20 7365   2.956   5.932   6.845  0.3028 -0.6040  0.0655
   88HK4     H9 7366   2.972   5.858   6.923  0.5826 -0.3684  0.2311
   88HK4    C19 7367   3.069   5.954   6.767  0.1015 -0.6308 -0.2341
   88HK4    C18 7368   3.059   6.047   6.657  0.0272 -0.3532  0.0083
   88HK4    C17 7369   2.940   6.119   6.645 -0.2595 -0.8518 -0.1350
   88HK4     H8 7370   2.932   6.192   6.565 -0.0706  0.4515  1.0307
   88HK4     N1 7371   3.187   6.085   6.610 -0.0636  0.1058  0.1239
   88HK4    C21 7372   3.282   6.020   6.692 -0.1154 -0.5727 -0.3427
   88HK4    C22 7373   3.212   5.942   6.792  0.0492  0.5514  0.6717
   88HK4    C26 7374   3.287   5.879   6.890  0.2034  0.0819  0.2578
   88HK4    H13 7375   3.235   5.809   6.956 -0.9331  0.2763 -0.4238
   88HK4    C25 7376   3.423   5.902   6.910  0.2360  0.1340 -0.0268
   88HK4    H12 7377   3.475   5.867   6.999 -0.3783 -2.0661 -0.4972
   88HK4    C24 7378   3.487   5.981   6.816 -0.0345  0.4893  0.0851
   88HK4    H11 7379   3.593   6.005   6.832 -0.3806  2.6698 -0.6862
   88HK4    C23 7380   3.419   6.033   6.706 -0.0956 -0.6832 -0.4411
   88HK4    H10 7381   3.484   6.031   6.619 -0.3627 -1.6369 -0.6209
   88HK4    C39 7382   3.208   6.132   6.480  0.0238 -0.1311  0.0498
   88HK4    C41 7383   3.330   6.193   6.445 -0.2363  0.3540 -0.0083
   88HK4    H21 7384   3.388   6.246   6.521  0.8515 -1.0288  0.1399
   88HK4    C42 7385   3.367   6.205   6.311 -0.3755 -0.1535 -0.0920
   88HK4    H22 7386   3.442   6.275   6.271 -0.2237 -0.0198  0.4282
   88HK4    C43 7387   3.287   6.153   6.210 -0.2347 -0.0113 -0.2759
   88HK4    H23 7388   3.323   6.150   6.107  1.2576 -1.6682  0.2797
   88HK4    C44 7389   3.164   6.093   6.237  0.0460 -0.4420  0.0497
   88HK4    H24 7390   3.091   6.071   6.158 -1.4406  3.5668  0.1842
   88HK4    C45 7391   3.131   6.087   6.372 -0.4422  0.7957 -0.0074
   88HK4    H25 7392   3.035   6.036   6.392  0.6014 -2.0350 -1.8175
   89HK4    H28 7393   9.081   4.738   4.035 -0.5105  1.6166  2.1617
   89HK4    C48 7394   8.976   4.738   4.007  0.1038  0.7056 -0.2484
   89HK4    C47 7395   8.890   4.802   4.095 -0.1955  0.4381 -0.3444
   89HK4    H27 7396   8.931   4.867   4.174 -0.0894 -1.2061  0.9809
   89HK4    C46 7397   8.754   4.786   4.074 -0.2258 -0.9863  0.7946
   89HK4    H26 7398   8.692   4.853   4.136  0.6977 -0.1946  0.8734
   89HK4    C40 7399   8.703   4.722   3.959  0.3070 -0.5662  0.3202
   89HK4    C50 7400   8.797   4.666   3.871  0.0403 -0.6617  0.0987
   89HK4    H30 7401   8.767   4.590   3.797 -0.3338 -0.5971  0.1820
   89HK4    C49 7402   8.934   4.673   3.891 -0.0057 -0.0566  0.2134
   89HK4    H29 7403   8.993   4.680   3.798  0.5822 -0.9776  0.5048
   89HK4     N2 7404   8.568   4.684   3.963  0.0145  0.4197  0.0369
   89HK4    C30 7405   8.487   4.673   4.078  0.1668 -0.0866  0.0975
   89HK4    C29 7406   8.519   4.657   4.213  0.6992 -0.7238 -0.1047
   89HK4    H15 7407   8.626   4.649   4.234  0.6793  0.9007  0.6665
   89HK4    C28 7408   8.420   4.636   4.307  0.3391 -0.1069 -0.3481
   89HK4    C27 7409   8.285   4.621   4.268  0.3040 -0.6376 -0.0184
   89HK4    H14 7410   8.215   4.582   4.344  0.1902  2.0672  1.3258
   89HK4    C32 7411   8.247   4.631   4.135 -0.1697  0.0041  0.1640
   89HK4    H16 7412   8.144   4.618   4.101 -0.4449  2.7667 -0.2174
   89HK4    C31 7413   8.347   4.658   4.043  0.1698 -0.6799  0.3310
   89HK4    C34 7414   8.338   4.661   3.898 -0.2302 -0.3847  0.3619
   89HK4    C33 7415   8.477   4.667   3.857 -0.3122  0.8428  0.2521
   89HK4    C35 7416   8.504   4.643   3.723  0.0627 -0.5472  0.5737
   89HK4    H17 7417   8.609   4.634   3.695  0.5531  0.1502  2.1312
   89HK4    C36 7418   8.407   4.621   3.626  0.2886  1.2050 -0.0604
   89HK4    H18 7419   8.437   4.576   3.531  0.6792  1.0849  0.1189
   89HK4    C37 7420   8.275   4.628   3.668  0.3301  0.4869  0.1809
   89HK4    H19 7421   8.189   4.640   3.602 -1.1901  2.4780  2.4688
   89HK4    C38 7422   8.239   4.649   3.801 -0.0673  0.1495  0.1313
   89HK4    H20 7423   8.136   4.648   3.836 -0.5227  2.0730 -1.0913
   89HK4    C14 7424   8.459   4.615   4.447 -0.1177 -0.1321 -0.2223
   89HK4     C9 7425   8.390   4.542   4.544  0.2694 -0.2428 -0.0267
   89HK4     C8 7426   8.385   4.589   4.677 -0.0847 -0.4951  0.0543
   89HK4    C11 7427   8.458   4.703   4.711  0.4759 -0.7440 -0.2896
   89HK4     H4 7428   8.466   4.733   4.816 -1.8333 -0.3716 -0.1749
   89HK4    C12 7429   8.535   4.777   4.623 -0.4034  0.2254 -0.2495
   89HK4     H5 7430   8.598   4.862   4.654  2.4428 -1.4630 -1.2863
   89HK4    C13 7431   8.533   4.726   4.494  0.1962 -0.4306 -0.0037
   89HK4     H6 7432   8.583   4.792   4.421 -0.3367 -0.3606 -0.3099
   89HK4     C7 7433   8.307   4.521   4.782 -0.0718  0.0707  0.4328
   89HK4     O2 7434   8.279   4.581   4.886 -0.2144  0.1585  0.3434
   89HK4     C4 7435   8.256   4.384   4.758 -0.0595  0.0646  0.4550
   89HK4     C3 7436   8.186   4.324   4.862 -0.3385  0.0779  0.2747
   89HK4     H3 7437   8.146   4.378   4.949  1.7273  0.8080  0.8171
   89HK4     C2 7438   8.171   4.186   4.860  1.0283 -0.0800  0.3142
   89HK4     H2 7439   8.112   4.127   4.932  1.1282 -0.8712 -0.2435
   89HK4     C1 7440   8.228   4.120   4.752  0.7777  0.0653  0.0913
   89HK4     H1 7441   8.208   4.012   4.756 -3.2719  0.7438 -0.2587
   89HK4     C6 7442   8.293   4.177   4.641  0.1199  0.2902 -0.1787
   89HK4     C5 7443   8.301   4.317   4.642 -0.0071  0.2910  0.3416
   89HK4    C10 7444   8.351   4.399   4.529 -0.1053 -0.1441 -0.0162
   89HK4     O1 7445   8.302   4.368   4.420  0.7152  0.0370 -0.4455
   89HK4    C16 7446   8.313   4.092   4.523 -0.5968  0.3133 -0.3203
   89HK4    C15 7447   8.230   3.979   4.506  0.0326 -0.1823 -0.1250
   89HK4     H7 7448   8.125   3.998   4.529  0.2581  0.9136  0.0138
   89HK4    C20 7449   8.268   3.872   4.425 -0.1932 -0.1992 -0.2106
   89HK4     H9 7450   8.212   3.779   4.425  0.2983 -0.5045  0.5385
   89HK4    C19 7451   8.383   3.885   4.347 -0.2794  0.1782 -0.2773
   89HK4    C18 7452   8.473   3.997   4.366  0.0002 -0.1778  0.5069
   89HK4    C17 7453   8.438   4.091   4.462 -0.4431  0.1820 -0.0042
   89HK4     H8 7454   8.506   4.176   4.468  0.4789 -0.3441 -2.4146
   89HK4     N1 7455   8.578   3.987   4.272 -0.5973  0.5794 -0.2400
   89HK4    C21 7456   8.544   3.880   4.187  0.0797  0.1334  0.0498
   89HK4    C22 7457   8.426   3.809   4.232  0.2473 -0.1137  0.1055
   89HK4    C26 7458   8.365   3.711   4.153  0.2380  0.0557 -0.0992
   89HK4    H13 7459   8.286   3.649   4.196  0.9585  0.3021  1.6475
   89HK4    C25 7460   8.419   3.684   4.028 -0.1646 -0.0729 -0.2435
   89HK4    H12 7461   8.363   3.612   3.968  2.4285 -0.3121 -2.4428
   89HK4    C24 7462   8.532   3.749   3.981  0.0253 -0.1069  0.1566
   89HK4    H11 7463   8.585   3.711   3.893  0.4826  0.7993  0.0348
   89HK4    C23 7464   8.587   3.851   4.058 -0.3059  0.2727 -0.1085
   89HK4    H10 7465   8.671   3.907   4.017  0.7856 -0.6516  0.8436
   89HK4    C39 7466   8.708   4.035   4.294 -0.0411 -0.7027 -0.6909
   89HK4    C41 7467   8.796   4.052   4.185 -0.0468  0.4771 -0.5190
   89HK4    H21 7468   8.750   4.097   4.096 -2.2118  0.1227  0.3772
   89HK4    C42 7469   8.933   4.070   4.201 -0.0279  0.2479 -0.4145
   89HK4    H22 7470   8.981   4.111   4.111  1.9397 -0.5502  0.2499
   89HK4    C43 7471   8.985   4.079   4.330 -0.3366 -0.0847 -0.2647
   89HK4    H23 7472   9.084   4.118   4.353  0.0788 -0.9924 -0.4873
   89HK4    C44 7473   8.904   4.057   4.441  0.1166 -0.3470  0.0118
   89HK4    H24 7474   8.953   4.041   4.538 -0.4645  0.0700  0.3711
   89HK4    C45 7475   8.767   4.041   4.422  0.1722  0.1657 -0.8274
   89HK4    H25 7476   8.702   4.017   4.507  0.5093 -1.3463 -0.9769
   90HK4    H28 7477   8.271   4.060  10.185 -0.5099  0.3337  1.5109
   90HK4    C48 7478   8.245   4.165  10.169  0.1178  0.2408 -0.1324
   90HK4    C47 7479   8.113   4.196  10.138 -0.0677 -0.5979 -0.1932
   90HK4    H27 7480   8.038   4.121  10.108  0.2541 -0.8373 -0.4067
   90HK4    C46 7481   8.074   4.327  10.164  0.9203 -0.2880 -0.2582
   90HK4    H26 7482   7.974   4.356  10.128  1.5540  2.2710 -0.0556
   90HK4    C40 7483   8.159   4.430  10.209  0.0241  0.2421  0.2200
   90HK4    C50 7484   8.289   4.390  10.245  0.1643  0.3140 -0.2003
   90HK4    H30 7485   8.368   4.461  10.273  0.2273  1.1163 -2.3626
   90HK4    C49 7486   8.333   4.261  10.217 -0.0861  0.0459  0.6233
   90HK4    H29 7487   8.441   4.243  10.229 -0.0932  0.6445  1.6747
   90HK4     N2 7488   8.124   4.564  10.230 -0.2031  0.1822  0.2317
   90HK4    C30 7489   7.994   4.611  10.256 -0.3565  0.2878 -0.7086
   90HK4    C29 7490   7.882   4.546  10.307 -0.3093  0.2690 -0.6312
   90HK4    H15 7491   7.904   4.452  10.359 -2.6092 -1.1579 -2.1087
   90HK4    C28 7492   7.761   4.610  10.330 -0.2456  0.1895 -0.0700
   90HK4    C27 7493   7.753   4.747  10.296 -0.1936  0.2054 -0.0172
   90HK4    H14 7494   7.653   4.793  10.299 -0.0830  0.3114  2.6613
   90HK4    C32 7495   7.864   4.817  10.249 -0.0043 -0.3690 -0.4457
   90HK4    H16 7496   7.843   4.918  10.213 -2.2386 -0.8007 -0.4562
   90HK4    C31 7497   7.987   4.755  10.237  0.5102  0.4775  0.3534
   90HK4    C34 7498   8.124   4.795  10.214  0.7032 -0.1436  0.4110
   90HK4    C33 7499   8.202   4.674  10.190  0.0191 -0.3497 -0.8251
   90HK4    C35 7500   8.328   4.689  10.135  0.2743  0.0138 -0.1599
   90HK4    H17 7501   8.392   4.602  10.117  2.1045  1.3741 -0.2903
   90HK4    C36 7502   8.386   4.814  10.119  0.2953 -0.0233 -0.3812
   90HK4    H18 7503   8.484   4.837  10.076  0.2421  0.7044 -0.1360
   90HK4    C37 7504   8.312   4.928  10.151  0.1123 -0.2982  0.1566
   90HK4    H19 7505   8.370   5.019  10.139  0.1902 -0.0392  2.2629
   90HK4    C38 7506   8.183   4.920  10.202  0.2420  0.0866  0.5482
   90HK4    H20 7507   8.128   5.009  10.232 -0.3514  0.2306 -0.9341
   90HK4    C14 7508   7.677   4.542  10.430 -0.0182 -0.1908 -0.1421
   90HK4     C9 7509   7.654   4.404  10.440  0.3538 -0.2552 -0.1347
   90HK4     C8 7510   7.626   4.350  10.567  0.4627 -0.3972 -0.1712
   90HK4    C11 7511   7.620   4.433  10.678  0.2704  0.3326 -0.7245
   90HK4     H4 7512   7.620   4.395  10.781  1.2024  3.8040  0.6122
   90HK4    C12 7513   7.617   4.572  10.669  0.1647  0.3742 -0.1259
   90HK4     H5 7514   7.597   4.633  10.758 -0.2846 -0.0864  0.0930
   90HK4    C13 7515   7.648   4.621  10.543 -0.5877  0.0387 -0.4488
   90HK4     H6 7516   7.647   4.730  10.528  0.6692 -0.0890 -1.5827
   90HK4     C7 7517   7.563   4.216  10.577 -0.6382  0.1090 -0.2071
   90HK4     O2 7518   7.587   4.150  10.679  0.1457  0.1694 -0.3512
   90HK4     C4 7519   7.500   4.152  10.459 -0.9509  0.1811 -0.0808
   90HK4     C3 7520   7.444   4.026  10.476 -0.7240  0.1263  0.2897
   90HK4     H3 7521   7.451   3.964  10.567  1.8213  0.5638  0.4296
   90HK4     C2 7522   7.375   3.968  10.370  0.1639 -0.2464 -0.0943
   90HK4     H2 7523   7.298   3.894  10.396 -1.5155  0.3340 -3.1924
   90HK4     C1 7524   7.367   4.038  10.250  0.1137 -0.0658  0.0127
   90HK4     H1 7525   7.305   4.001  10.167 -0.3877  1.3758 -0.2707
   90HK4     C6 7526   7.428   4.164  10.232  0.4663 -0.3231 -0.5873
   90HK4     C5 7527   7.507   4.217  10.334 -0.1150 -0.1669 -0.2172
   90HK4    C10 7528   7.609   4.325  10.322 -0.1943 -0.0716 -0.0529
   90HK4     O1 7529   7.697   4.293  10.241 -0.1994 -0.0382 -0.0696
   90HK4    C16 7530   7.364   4.255  10.135 -0.1134 -0.0918  0.0115
   90HK4    C15 7531   7.226   4.253  10.109 -0.0968  0.1799 -0.0979
   90HK4     H7 7532   7.155   4.226  10.189  0.5318 -0.7528  0.1481
   90HK4    C20 7533   7.171   4.291   9.987 -0.2540 -0.6701 -0.2952
   90HK4     H9 7534   7.064   4.298   9.968 -0.5353  1.3880  1.8723
   90HK4    C19 7535   7.248   4.352   9.889  0.0473  0.1757  0.4676
   90HK4    C18 7536   7.389   4.369   9.921  0.1811  0.3910 -0.2136
   90HK4    C17 7537   7.443   4.314  10.037 -0.3282 -0.4048 -0.3459
   90HK4     H8 7538   7.549   4.301  10.056 -1.2724 -2.1462  4.4933
   90HK4     N1 7539   7.456   4.419   9.808  0.4403 -0.3033 -0.3701
   90HK4    C21 7540   7.359   4.443   9.708  0.4064 -0.5790 -0.4033
   90HK4    C22 7541   7.227   4.418   9.762  0.5749  0.0496  0.3085
   90HK4    C26 7542   7.114   4.458   9.691  0.8607  0.1249 -0.1037
   90HK4    H13 7543   7.014   4.436   9.729  0.5088 -0.0242 -1.0925
   90HK4    C25 7544   7.132   4.522   9.569  0.2328  0.2594 -0.1305
   90HK4    H12 7545   7.047   4.543   9.504  0.2841 -0.0621 -0.2966
   90HK4    C24 7546   7.257   4.544   9.511  0.0722  0.2988 -0.4631
   90HK4    H11 7547   7.255   4.592   9.412 -0.4251 -0.2994 -0.7440
   90HK4    C23 7548   7.368   4.501   9.582 -0.1475  0.8071  0.1901
   90HK4    H10 7549   7.465   4.499   9.533 -0.4806 -0.3001 -0.4314
   90HK4    C39 7550   7.586   4.470   9.813  0.3035 -0.0580  0.8298
   90HK4    C41 7551   7.666   4.468   9.697 -0.1890  0.1992  0.4898
   90HK4    H21 7552   7.660   4.391   9.618  1.9967 -0.3825  0.8566
   90HK4    C42 7553   7.763   4.566   9.677  0.1525 -0.1298  0.5154
   90HK4    H22 7554   7.830   4.547   9.592  0.3811 -1.2463  0.9285
   90HK4    C43 7555   7.775   4.677   9.760 -0.3137  0.1238  0.2380
   90HK4    H23 7556   7.852   4.750   9.736 -1.0220  0.3473 -1.4772
   90HK4    C44 7557   7.700   4.680   9.877 -0.1723  0.0898  0.3285
   90HK4    H24 7558   7.702   4.770   9.940 -0.8477 -1.0008  1.9288
   90HK4    C45 7559   7.618   4.571   9.905  0.0730  0.0289  0.8142
   90HK4    H25 7560   7.574   4.557  10.005 -0.2287 -0.7714  0.5669
   91HK4    H28 7561   6.130   3.356   3.416  0.2685 -0.3334  0.6699
   91HK4    C48 7562   6.049   3.288   3.443 -0.4109  0.1154 -0.2009
   91HK4    C47 7563   5.970   3.307   3.556  0.3014 -0.0256  0.3247
   91HK4    H27 7564   5.977   3.400   3.615 -1.8065 -1.7215  3.4408
   91HK4    C46 7565   5.901   3.204   3.619 -0.2150  0.0199 -0.1575
   91HK4    H26 7566   5.816   3.231   3.684 -0.1992 -0.3583  0.0190
   91HK4    C40 7567   5.912   3.073   3.569 -0.4703 -0.0199 -0.1123
   91HK4    C50 7568   5.994   3.054   3.456 -0.3012  0.4535 -0.0735
   91HK4    H30 7569   6.014   2.950   3.427  0.5713  0.5083  0.3433
   91HK4    C49 7570   6.061   3.159   3.394  1.0212 -0.0346  0.5201
   91HK4    H29 7571   6.107   3.138   3.297  2.7818  0.7991  1.1503
   91HK4     N2 7572   5.888   2.966   3.655  0.0976 -0.1394 -0.0959
   91HK4    C30 7573   5.846   2.837   3.615 -0.0174 -0.1614  0.0896
   91HK4    C29 7574   5.766   2.801   3.508 -0.6599 -0.1953  0.5810
   91HK4    H15 7575   5.719   2.877   3.445  0.6471  0.2093  0.0891
   91HK4    C28 7576   5.752   2.669   3.464  0.0407 -0.0935  0.0322
   91HK4    C27 7577   5.803   2.567   3.547 -0.5639 -0.3636  0.0812
   91HK4    H14 7578   5.767   2.465   3.529 -0.7158 -0.3004  0.0321
   91HK4    C32 7579   5.873   2.600   3.663 -0.2032 -0.1884 -0.1819
   91HK4    H16 7580   5.880   2.514   3.730 -0.5724 -0.1947 -0.1477
   91HK4    C31 7581   5.889   2.731   3.704 -0.3161 -0.2660  0.1094
   91HK4    C34 7582   5.959   2.794   3.815 -0.2255  0.0273 -0.1122
   91HK4    C33 7583   5.958   2.933   3.773 -0.2275  0.1126  0.1723
   91HK4    C35 7584   6.023   3.023   3.856  0.1487 -0.2330  0.2583
   91HK4    H17 7585   6.013   3.129   3.835 -1.6649 -0.5083 -0.3887
   91HK4    C36 7586   6.095   2.981   3.967  0.4235 -0.3443  0.0369
   91HK4    H18 7587   6.174   3.045   4.009 -0.2702 -0.1081  0.9871
   91HK4    C37 7588   6.089   2.849   4.010  0.1963 -0.2748  0.2208
   91HK4    H19 7589   6.134   2.825   4.107  0.2354  1.2886  0.6050
   91HK4    C38 7590   6.030   2.754   3.928 -0.5067  0.2367  0.1382
   91HK4    H20 7591   6.049   2.650   3.953 -0.0815  0.2171 -0.2713
   91HK4    C14 7592   5.656   2.656   3.353 -0.0787  0.1265  0.1090
   91HK4     C9 7593   5.546   2.570   3.353  0.3465 -0.4222  0.0967
   91HK4     C8 7594   5.497   2.512   3.235  0.3598 -0.4716  0.1156
   91HK4    C11 7595   5.548   2.564   3.116  0.0404  0.0261  0.1949
   91HK4     H4 7596   5.491   2.550   3.023  1.6112  1.3986 -0.9935
   91HK4    C12 7597   5.659   2.647   3.111  0.4540 -0.5512 -0.1516
   91HK4     H5 7598   5.705   2.671   3.014  0.6596  0.2863  0.1487
   91HK4    C13 7599   5.714   2.693   3.230 -0.1926 -0.1215 -0.0184
   91HK4     H6 7600   5.801   2.760   3.236 -1.4134  1.3830  1.3019
   91HK4     C7 7601   5.411   2.391   3.231 -0.4679  0.1049  0.1886
   91HK4     O2 7602   5.347   2.358   3.132  0.3224  0.0493 -0.3088
   91HK4     C4 7603   5.378   2.334   3.363  0.0911  0.2085  0.3760
   91HK4     C3 7604   5.320   2.208   3.368  0.1232  0.2101  0.9415
   91HK4     H3 7605   5.270   2.164   3.280 -1.3287  1.5068  1.1072
   91HK4     C2 7606   5.318   2.129   3.482  0.2474 -0.4310  0.5069
   91HK4     H2 7607   5.277   2.027   3.481  0.7367 -0.6296  0.6948
   91HK4     C1 7608   5.367   2.189   3.597 -0.1295 -0.2114  0.5529
   91HK4     H1 7609   5.346   2.142   3.695 -0.1595 -1.2799  0.0387
   91HK4     C6 7610   5.416   2.321   3.608 -0.1483 -0.1822  0.2760
   91HK4     C5 7611   5.421   2.390   3.486  0.3679 -0.0240  0.3840
   91HK4    C10 7612   5.492   2.520   3.483  0.1688  0.0821  0.2159
   91HK4     O1 7613   5.450   2.607   3.559  0.4355 -0.1667  0.6496
   91HK4    C16 7614   5.526   2.322   3.705 -0.2457 -0.3871  0.3901
   91HK4    C15 7615   5.622   2.219   3.709  0.2108  0.0274  0.1140
   91HK4     H7 7616   5.616   2.125   3.652  0.4210 -0.0977  0.2947
   91HK4    C20 7617   5.720   2.220   3.808 -0.3835 -0.1346  0.7054
   91HK4     H9 7618   5.807   2.154   3.801  1.1037  1.8107  0.6664
   91HK4    C19 7619   5.725   2.328   3.895  0.1661  0.5937 -0.2283
   91HK4    C18 7620   5.634   2.441   3.885 -0.3465  0.2317  0.3413
   91HK4    C17 7621   5.529   2.428   3.795 -0.4492 -0.5227  0.5605
   91HK4     H8 7622   5.445   2.497   3.800 -0.1521 -0.1600  0.5519
   91HK4     N1 7623   5.659   2.549   3.972  0.5928  0.4091 -0.1482
   91HK4    C21 7624   5.771   2.501   4.044 -0.2529 -0.2998  0.7031
   91HK4    C22 7625   5.813   2.369   4.002  0.2476  0.1126 -0.1126
   91HK4    C26 7626   5.911   2.296   4.070  0.2119 -0.1954 -0.3933
   91HK4    H13 7627   5.948   2.202   4.030 -1.5156 -0.4567 -1.4281
   91HK4    C25 7628   5.961   2.352   4.187 -0.3889 -0.7495  0.1289
   91HK4    H12 7629   6.043   2.304   4.239  2.1710  1.8575 -1.3780
   91HK4    C24 7630   5.929   2.481   4.228 -0.1051 -0.5464 -0.2845
   91HK4    H11 7631   5.988   2.538   4.302 -0.6148  0.2640 -0.5020
   91HK4    C23 7632   5.837   2.553   4.155 -0.2674  0.0836  0.5304
   91HK4    H10 7633   5.831   2.661   4.167  0.1660  0.0986  0.6000
   91HK4    C39 7634   5.619   2.683   3.975  0.2849  0.3112  0.1034
   91HK4    C41 7635   5.623   2.773   4.083  0.1617  0.4147  0.0216
   91HK4    H21 7636   5.607   2.727   4.181 -0.0154 -0.4527 -0.4145
   91HK4    C42 7637   5.614   2.912   4.075  0.1308  0.4309  0.3348
   91HK4    H22 7638   5.600   2.970   4.167  4.4110 -1.1193  2.0734
   91HK4    C43 7639   5.593   2.970   3.951 -0.4022 -0.4088  0.0284
   91HK4    H23 7640   5.610   3.077   3.938 -0.0152 -0.3612  0.8841
   91HK4    C44 7641   5.582   2.885   3.841  0.5295  0.1493 -0.4975
   91HK4    H24 7642   5.560   2.923   3.740 -2.8015 -0.7316 -0.1564
   91HK4    C45 7643   5.596   2.747   3.851  0.5005  0.1837 -0.0039
   91HK4    H25 7644   5.561   2.688   3.765 -1.0544  0.4138  0.4533
   92HK4    H28 7645   8.862   7.638   9.021 -0.9997 -1.0088 -0.6104
   92HK4    C48 7646   8.823   7.735   8.989 -0.3160 -0.5533 -0.0638
   92HK4    C47 7647   8.879   7.807   8.884  0.2838  0.4267  0.9214
   92HK4    H27 7648   8.971   7.768   8.839  0.0694  0.9676  0.0156
   92HK4    C46 7649   8.823   7.927   8.843 -0.2129 -0.1137  0.0078
   92HK4    H26 7650   8.879   7.971   8.760 -0.8664 -2.0086 -1.4682
   92HK4    C40 7651   8.707   7.979   8.905 -0.0224 -0.0043  0.2669
   92HK4    C50 7652   8.660   7.903   9.014 -0.4015 -0.6191 -0.3203
   92HK4    H30 7653   8.560   7.930   9.052 -0.4559 -2.2143  0.7198
   92HK4    C49 7654   8.711   7.782   9.057 -0.0019 -0.2536  0.2453
   92HK4    H29 7655   8.665   7.732   9.144 -1.6494  0.4118 -0.2356
   92HK4     N2 7656   8.661   8.109   8.882 -0.2316 -0.0074  0.6503
   92HK4    C30 7657   8.732   8.192   8.793 -0.0401 -0.5118  0.3284
   92HK4    C29 7658   8.866   8.229   8.792 -0.1426 -0.1348  0.1333
   92HK4    H15 7659   8.940   8.171   8.847 -1.9483 -1.4078  1.2562
   92HK4    C28 7660   8.917   8.333   8.715 -0.2705 -0.0544  0.1608
   92HK4    C27 7661   8.826   8.399   8.630 -0.3211  0.6115  0.7238
   92HK4    H14 7662   8.863   8.475   8.560 -1.0525  0.3733  0.0661
   92HK4    C32 7663   8.690   8.367   8.634 -0.2079  0.0957  0.6313
   92HK4    H16 7664   8.634   8.407   8.549  0.2364  0.4694  0.5139
   92HK4    C31 7665   8.637   8.262   8.708  0.0254  0.0200  0.6923
   92HK4    C34 7666   8.510   8.227   8.767  0.0030  0.0272  0.6460
   92HK4    C33 7667   8.523   8.137   8.880 -0.3181 -0.4612  0.3008
   92HK4    C35 7668   8.409   8.104   8.951 -0.4486  0.2098  0.4153
   92HK4    H17 7669   8.411   8.059   9.051  0.2902 -2.9947 -0.9737
   92HK4    C36 7670   8.284   8.154   8.915 -0.0605  0.9195  0.0503
   92HK4    H18 7671   8.195   8.131   8.975 -0.3853 -1.6544 -1.3337
   92HK4    C37 7672   8.272   8.243   8.810  0.1300  0.7612 -0.1087
   92HK4    H19 7673   8.173   8.270   8.771  0.0055  0.8096  0.2355
   92HK4    C38 7674   8.386   8.284   8.742  0.2305  0.0948 -0.3360
   92HK4    H20 7675   8.384   8.363   8.667  0.4661 -0.6706 -1.1616
   92HK4    C14 7676   9.038   8.404   8.758  0.1837 -0.2921 -0.7228
   92HK4     C9 7677   9.056   8.543   8.758  0.1015 -0.2785  0.2820
   92HK4     C8 7678   9.182   8.606   8.763 -0.2867  0.4961  0.4306
   92HK4    C11 7679   9.292   8.521   8.776 -0.6347 -0.0329 -0.0178
   92HK4     H4 7680   9.390   8.558   8.743  0.8170 -2.6469  1.2549
   92HK4    C12 7681   9.279   8.384   8.795  0.1510 -0.1092 -0.0300
   92HK4     H5 7682   9.371   8.328   8.816  1.0965  0.8884 -1.4377
   92HK4    C13 7683   9.153   8.327   8.783  0.2438 -0.1804 -0.6488
   92HK4     H6 7684   9.141   8.218   8.771  1.2837 -0.3236 -0.4200
   92HK4     C7 7685   9.195   8.749   8.728 -0.1486  0.4993  0.4760
   92HK4     O2 7686   9.303   8.803   8.747  0.2666 -0.0973 -0.2032
   92HK4     C4 7687   9.072   8.829   8.706 -0.1333  0.3422 -0.1998
   92HK4     C3 7688   9.091   8.956   8.654  0.4033 -0.0004 -0.8473
   92HK4     H3 7689   9.193   8.991   8.630  1.8587 -3.0202  0.7120
   92HK4     C2 7690   8.987   9.024   8.592 -0.1427  0.0921  0.1656
   92HK4     H2 7691   9.004   9.128   8.561 -1.4437  0.2738  0.0069
   92HK4     C1 7692   8.865   8.957   8.581  0.1138 -0.3456 -0.0199
   92HK4     H1 7693   8.786   8.994   8.514 -0.1498 -1.3983 -0.2905
   92HK4     C6 7694   8.842   8.838   8.652  0.0038 -0.1126  0.3360
   92HK4     C5 7695   8.943   8.774   8.725  0.0984 -0.0512  0.2545
   92HK4    C10 7696   8.939   8.634   8.775  0.3941  0.0437  0.5616
   92HK4     O1 7697   8.867   8.616   8.874 -0.1058 -0.0858  0.1778
   92HK4    C16 7698   8.713   8.772   8.628 -0.2090  0.3539  0.2055
   92HK4    C15 7699   8.652   8.772   8.500  0.0891  0.1931  0.0666
   92HK4     H7 7700   8.707   8.798   8.408 -1.6652  0.8817 -0.8033
   92HK4    C20 7701   8.521   8.734   8.477  0.2800 -0.2392 -0.3209
   92HK4     H9 7702   8.466   8.756   8.386 -0.5916  0.5601  0.3955
   92HK4    C19 7703   8.450   8.692   8.589 -0.6360  0.4214 -0.6487
   92HK4    C18 7704   8.503   8.700   8.724 -0.1358 -0.4892 -0.7887
   92HK4    C17 7705   8.636   8.736   8.738 -0.2785 -0.2469 -0.0354
   92HK4     H8 7706   8.666   8.774   8.836 -1.0036 -1.5425  0.6930
   92HK4     N1 7707   8.408   8.679   8.826  0.1515 -0.4447 -0.5095
   92HK4    C21 7708   8.290   8.660   8.751  0.0323 -0.2825 -0.3622
   92HK4    C22 7709   8.307   8.673   8.607 -0.6525  0.8147 -0.3533
   92HK4    C26 7710   8.200   8.665   8.519 -1.0685 -0.1940  0.2366
   92HK4    H13 7711   8.195   8.655   8.411 -0.2368  2.1862 -0.0569
   92HK4    C25 7712   8.075   8.660   8.580 -0.9401 -0.4890  0.4779
   92HK4    H12 7713   7.986   8.657   8.518  0.2937  0.6989 -1.3770
   92HK4    C24 7714   8.053   8.659   8.718 -0.2640  0.4283  0.5936
   92HK4    H11 7715   7.950   8.679   8.751 -0.7354  0.9466 -1.1342
   92HK4    C23 7716   8.162   8.649   8.804  0.1608  0.1193  0.0317
   92HK4    H10 7717   8.151   8.615   8.907 -2.4499 -1.5350 -0.7398
   92HK4    C39 7718   8.438   8.612   8.944  0.0694  0.1515 -0.1473
   92HK4    C41 7719   8.356   8.631   9.058  0.3297 -0.3899  0.1342
   92HK4    H21 7720   8.295   8.722   9.065  0.0400 -0.6123  0.5161
   92HK4    C42 7721   8.370   8.550   9.170 -0.5748 -0.1567  0.4117
   92HK4    H22 7722   8.305   8.566   9.257  0.3946  2.0817  0.7599
   92HK4    C43 7723   8.469   8.453   9.170 -0.4814 -0.0594  0.0251
   92HK4    H23 7724   8.501   8.403   9.261 -2.9434 -0.2214  0.8173
   92HK4    C44 7725   8.561   8.436   9.066 -0.1899  0.7212  0.1497
   92HK4    H24 7726   8.658   8.386   9.073 -0.1321  0.4930 -2.1108
   92HK4    C45 7727   8.540   8.515   8.953 -0.2731 -0.2444 -0.5147
   92HK4    H25 7728   8.621   8.516   8.878  1.4725  1.1734  1.3276
   93HK4    H28 7729   7.768   3.326   2.138  1.9175 -2.5244  0.1710
   93HK4    C48 7730   7.677   3.268   2.157 -0.0769  0.2930 -0.4950
   93HK4    C47 7731   7.667   3.145   2.094 -0.0233 -0.2559  0.5557
   93HK4    H27 7732   7.758   3.097   2.055 -0.9557 -0.5334 -1.3431
   93HK4    C46 7733   7.550   3.072   2.111 -0.4252  0.2551 -0.0049
   93HK4    H26 7734   7.529   2.992   2.039 -2.4169  2.4657 -1.9571
   93HK4    C40 7735   7.442   3.112   2.193 -0.4637 -0.1033  0.1195
   93HK4    C50 7736   7.450   3.243   2.245 -0.4587 -0.0543 -0.0048
   93HK4    H30 7737   7.378   3.264   2.325 -1.2568 -2.0894 -0.1456
   93HK4    C49 7738   7.565   3.318   2.223 -0.4163 -0.2987 -0.6191
   93HK4    H29 7739   7.575   3.418   2.268  2.5548 -0.9662  0.3024
   93HK4     N2 7740   7.372   3.024   2.276 -0.2053 -0.1560  0.2829
   93HK4    C30 7741   7.417   2.902   2.330  0.1143 -0.2874 -0.2872
   93HK4    C29 7742   7.543   2.857   2.365  0.0810 -0.0818  0.0938
   93HK4    H15 7743   7.629   2.922   2.347  0.4181 -0.4196  0.4515
   93HK4    C28 7744   7.566   2.735   2.428  0.2461  0.0149  0.2211
   93HK4    C27 7745   7.458   2.649   2.455  0.0940  0.0272 -0.3387
   93HK4    H14 7746   7.474   2.561   2.520  0.8714  1.3854  1.3464
   93HK4    C32 7747   7.330   2.699   2.437 -0.1044 -0.4501 -0.2565
   93HK4    H16 7748   7.248   2.657   2.495 -2.7592  0.5572 -3.1353
   93HK4    C31 7749   7.305   2.822   2.376  0.2416  0.1448  0.7844
   93HK4    C34 7750   7.186   2.902   2.355  0.2338 -0.1018 -0.1374
   93HK4    C33 7751   7.232   3.025   2.294 -0.2487  0.1147 -0.0632
   93HK4    C35 7752   7.141   3.130   2.289 -0.2251  0.1145 -0.5097
   93HK4    H17 7753   7.172   3.227   2.249  0.1370 -0.7082 -2.2450
   93HK4    C36 7754   7.011   3.116   2.336 -0.1441  0.3622 -0.2035
   93HK4    H18 7755   6.948   3.206   2.331  1.6558  1.6868  0.6052
   93HK4    C37 7756   6.969   2.996   2.392  0.3029  0.4189  0.2506
   93HK4    H19 7757   6.870   2.985   2.437  1.0746 -1.3539  1.5873
   93HK4    C38 7758   7.056   2.889   2.402 -0.0139  0.0646 -0.7625
   93HK4    H20 7759   7.017   2.790   2.428  0.7233  0.2017  0.9580
   93HK4    C14 7760   7.705   2.687   2.438  0.0690 -0.4497  0.4592
   93HK4     C9 7761   7.742   2.553   2.451 -0.0566 -0.4900  0.4068
   93HK4     C8 7762   7.860   2.519   2.521  0.5789 -0.0671 -0.4406
   93HK4    C11 7763   7.943   2.608   2.588  0.2369 -0.1090  0.0454
   93HK4     H4 7764   8.037   2.579   2.638  0.0453 -1.5242 -0.3655
   93HK4    C12 7765   7.902   2.740   2.577 -0.1512 -0.2057  0.3119
   93HK4     H5 7766   7.942   2.812   2.649 -0.8249  1.7059 -1.1648
   93HK4    C13 7767   7.792   2.779   2.502  0.1760 -0.1349 -0.1356
   93HK4     H6 7768   7.760   2.884   2.507 -0.4489 -0.3576  0.7288
   93HK4     C7 7769   7.898   2.376   2.527 -0.1886 -0.2492  0.1825
   93HK4     O2 7770   7.993   2.343   2.599  0.3881  0.1285 -0.4055
   93HK4     C4 7771   7.819   2.270   2.461 -0.1393  0.0763 -0.4011
   93HK4     C3 7772   7.859   2.137   2.470  0.2156  0.2109  0.0637
   93HK4     H3 7773   7.958   2.111   2.509  1.0000 -1.9950 -3.2405
   93HK4     C2 7774   7.772   2.038   2.426  0.0591  0.3757 -0.0007
   93HK4     H2 7775   7.811   1.935   2.424  1.8012  1.0632 -2.3134
   93HK4     C1 7776   7.644   2.074   2.386  0.1135  0.2007 -0.3319
   93HK4     H1 7777   7.583   1.994   2.341 -1.0501  0.1437  1.2710
   93HK4     C6 7778   7.598   2.207   2.382  0.0816  0.1680 -1.1812
   93HK4     C5 7779   7.696   2.305   2.402 -0.1732  0.2365 -0.2352
   93HK4    C10 7780   7.674   2.449   2.369 -0.0319  0.1987 -0.4983
   93HK4     O1 7781   7.663   2.471   2.249 -0.5426 -0.0175 -0.4948
   93HK4    C16 7782   7.456   2.225   2.416  0.3584  0.3799 -0.0890
   93HK4    C15 7783   7.395   2.118   2.484 -0.1439  0.5582 -0.2552
   93HK4     H7 7784   7.456   2.037   2.527 -3.5324  0.0214  3.9765
   93HK4    C20 7785   7.257   2.102   2.483 -0.1393  0.4187  0.5432
   93HK4     H9 7786   7.208   2.041   2.559 -0.9594 -0.4426 -0.6460
   93HK4    C19 7787   7.178   2.194   2.414 -0.3902 -0.6949 -0.6713
   93HK4    C18 7788   7.238   2.315   2.360 -0.3601 -0.3083  0.2277
   93HK4    C17 7789   7.377   2.324   2.358 -0.3795 -0.0119  0.2402
   93HK4     H8 7790   7.428   2.412   2.320  0.6438 -0.2401  1.0476
   93HK4     N1 7791   7.141   2.394   2.296  0.2080  0.4291  0.2702
   93HK4    C21 7792   7.019   2.324   2.309  0.3339  0.0906 -0.3482
   93HK4    C22 7793   7.035   2.207   2.394 -0.4402  0.5644  0.4601
   93HK4    C26 7794   6.933   2.115   2.411 -0.2530  0.3271  0.2922
   93HK4    H13 7795   6.950   2.026   2.472 -3.8355  0.9119  2.2908
   93HK4    C25 7796   6.811   2.132   2.347 -0.2251 -0.0232  0.1396
   93HK4    H12 7797   6.740   2.050   2.343 -0.2205 -0.0516  0.5998
   93HK4    C24 7798   6.803   2.245   2.266  0.1379  0.2000  0.4115
   93HK4    H11 7799   6.720   2.247   2.194  1.0345 -0.9593 -0.6684
   93HK4    C23 7800   6.897   2.346   2.247  0.1147  0.1654  0.1087
   93HK4    H10 7801   6.872   2.446   2.214 -1.6264 -0.4370 -0.4280
   93HK4    C39 7802   7.168   2.479   2.188 -0.4071 -0.0776 -0.2828
   93HK4    C41 7803   7.272   2.451   2.097 -0.0645  0.1650  0.0365
   93HK4    H21 7804   7.316   2.351   2.082 -2.0625 -0.9391  1.4162
   93HK4    C42 7805   7.300   2.546   1.999 -0.0946  0.0043 -0.1274
   93HK4    H22 7806   7.366   2.518   1.916  0.3175 -1.5790  0.7165
   93HK4    C43 7807   7.238   2.670   1.991 -0.2096 -0.0216  0.3682
   93HK4    H23 7808   7.276   2.745   1.922 -0.3684 -1.2678 -1.0840
   93HK4    C44 7809   7.142   2.697   2.088 -0.4827  0.4551 -0.0325
   93HK4    H24 7810   7.106   2.801   2.096 -0.8612  0.6886 -3.7082
   93HK4    C45 7811   7.101   2.603   2.181  0.2240  0.2863  0.1056
   93HK4    H25 7812   7.015   2.628   2.244  0.6692 -0.0868  0.8761
   94HK4    H28 7813   8.184   6.059   1.491 -0.9430 -1.8544  0.3001
   94HK4    C48 7814   8.275   6.030   1.545 -0.1529  0.0624  0.0383
   94HK4    C47 7815   8.376   5.960   1.480 -0.0920 -0.1950  0.4124
   94HK4    H27 7816   8.361   5.915   1.381  2.1336 -2.8155  1.1996
   94HK4    C46 7817   8.500   5.950   1.543 -0.1458 -0.0768  0.5441
   94HK4    H26 7818   8.580   5.910   1.480 -2.5251 -0.4308 -2.3741
   94HK4    C40 7819   8.529   6.008   1.668 -0.2852 -0.1758  0.6219
   94HK4    C50 7820   8.417   6.067   1.730 -0.4018  0.3685 -0.1065
   94HK4    H30 7821   8.435   6.102   1.833  1.6008  1.2611 -0.7174
   94HK4    C49 7822   8.291   6.078   1.674 -0.6050 -0.2759  0.2199
   94HK4    H29 7823   8.211   6.131   1.729 -0.7596  1.7462 -1.9000
   94HK4     N2 7824   8.656   5.992   1.726  0.1784  0.1414 -0.2901
   94HK4    C30 7825   8.744   5.884   1.710  0.2054  0.2239 -0.6985
   94HK4    C29 7826   8.716   5.751   1.682 -0.4605  0.3450 -0.6203
   94HK4    H15 7827   8.613   5.716   1.673  0.7996 -4.3326  1.2320
   94HK4    C28 7828   8.816   5.654   1.679 -0.4244  0.3730 -0.2780
   94HK4    C27 7829   8.946   5.695   1.718 -0.3478 -0.4794  0.3829
   94HK4    H14 7830   9.015   5.611   1.733  1.4322  0.8750 -0.1351
   94HK4    C32 7831   8.980   5.826   1.748 -0.0309 -0.4346 -0.1507
   94HK4    H16 7832   9.072   5.860   1.796  0.0236  0.3071 -0.7759
   94HK4    C31 7833   8.880   5.922   1.742  0.0084 -0.3182  0.8391
   94HK4    C34 7834   8.874   6.058   1.791  0.4307  0.0547 -0.1226
   94HK4    C33 7835   8.734   6.096   1.780  0.3456 -0.1926  0.1034
   94HK4    C35 7836   8.704   6.228   1.812 -0.4297 -0.2542 -0.3700
   94HK4    H17 7837   8.599   6.255   1.805 -0.3051  0.0878 -0.9311
   94HK4    C36 7838   8.802   6.315   1.858 -0.4454 -0.2178 -0.4122
   94HK4    H18 7839   8.773   6.417   1.888 -1.8263 -0.7725  0.1771
   94HK4    C37 7840   8.936   6.278   1.864 -0.4526 -0.1780 -0.0079
   94HK4    H19 7841   9.010   6.341   1.913  1.1294 -0.7649 -1.5877
   94HK4    C38 7842   8.973   6.149   1.828  0.4028  0.1268 -0.2240
   94HK4    H20 7843   9.075   6.116   1.844  0.4923  1.7669  3.0279
   94HK4    C14 7844   8.781   5.511   1.681  0.5814  0.1191 -0.2649
   94HK4     C9 7845   8.863   5.416   1.742  0.7855  0.4326 -0.0503
   94HK4     C8 7846   8.904   5.302   1.671  0.2459  0.1911  0.0338
   94HK4    C11 7847   8.852   5.284   1.543 -0.3756  0.2875  0.2697
   94HK4     H4 7848   8.908   5.215   1.478 -0.0417 -1.2524  2.1378
   94HK4    C12 7849   8.752   5.364   1.489 -0.2243  0.1614 -0.1996
   94HK4     H5 7850   8.708   5.336   1.392 -0.3179 -0.2250 -0.0447
   94HK4    C13 7851   8.720   5.480   1.557  0.1628  0.1987 -0.0811
   94HK4     H6 7852   8.634   5.541   1.527  0.0507  0.5802  0.9966
   94HK4     C7 7853   8.982   5.190   1.728 -0.4414 -0.3822 -0.1335
   94HK4     O2 7854   9.051   5.119   1.655  0.1885 -0.0600  0.1478
   94HK4     C4 7855   8.989   5.174   1.875  0.4309 -0.0594 -0.1362
   94HK4     C3 7856   9.075   5.083   1.936  0.3936  0.4069  0.6165
   94HK4     H3 7857   9.151   5.028   1.878  0.1183  0.6555  0.0174
   94HK4     C2 7858   9.073   5.065   2.074  0.2124 -0.3409  0.5208
   94HK4     H2 7859   9.161   5.019   2.120  1.3261  1.5712  0.3682
   94HK4     C1 7860   8.985   5.145   2.146  0.6313  0.5763  0.0174
   94HK4     H1 7861   8.961   5.114   2.248  0.2187  1.0417  0.0650
   94HK4     C6 7862   8.905   5.245   2.087 -0.0911 -0.1066 -0.1613
   94HK4     C5 7863   8.912   5.266   1.949  0.2758 -0.1758 -0.1521
   94HK4    C10 7864   8.878   5.398   1.889  0.1339 -0.1699 -0.0590
   94HK4     O1 7865   8.891   5.502   1.954 -0.2186  0.1244 -0.4625
   94HK4    C16 7866   8.808   5.311   2.176 -0.0500 -0.6772  0.3057
   94HK4    C15 7867   8.830   5.319   2.315  0.5103 -0.1210  0.1868
   94HK4     H7 7868   8.927   5.282   2.354 -0.1009 -0.0799  1.7889
   94HK4    C20 7869   8.740   5.389   2.394  0.2449 -0.0201 -0.2057
   94HK4     H9 7870   8.760   5.409   2.500 -0.0198  0.2035 -0.1962
   94HK4    C19 7871   8.621   5.439   2.341  0.2306 -0.3155 -0.4560
   94HK4    C18 7872   8.591   5.424   2.200 -0.2802  0.3487 -0.4174
   94HK4    C17 7873   8.689   5.360   2.125  0.1980  0.0712  0.4373
   94HK4     H8 7874   8.657   5.325   2.027 -0.6651  2.9033 -0.3382
   94HK4     N1 7875   8.458   5.455   2.166 -0.4001  0.2721 -0.0109
   94HK4    C21 7876   8.402   5.492   2.291  0.0564  0.0767  0.2513
   94HK4    C22 7877   8.500   5.496   2.397  0.7024  0.5999 -0.3615
   94HK4    C26 7878   8.467   5.529   2.528 -0.4711 -0.2970 -0.4317
   94HK4    H13 7879   8.546   5.505   2.599  1.8915  0.5570 -2.7028
   94HK4    C25 7880   8.337   5.569   2.558 -0.0567  0.4520  0.3887
   94HK4    H12 7881   8.307   5.566   2.663 -0.0425  0.6767  0.3985
   94HK4    C24 7882   8.240   5.569   2.459  0.6013  0.3673 -0.2530
   94HK4    H11 7883   8.138   5.602   2.483  0.4956 -0.7975  0.9517
   94HK4    C23 7884   8.276   5.535   2.329 -0.0552  0.3577 -0.4328
   94HK4    H10 7885   8.207   5.578   2.256 -0.6480 -1.0086 -0.6995
   94HK4    C39 7886   8.419   5.504   2.041 -0.3369 -0.0298 -0.1511
   94HK4    C41 7887   8.287   5.481   1.997 -0.4428  0.0723  0.1013
   94HK4    H21 7888   8.221   5.417   2.057  0.5036 -0.6193  0.3996
   94HK4    C42 7889   8.229   5.555   1.894 -0.4656  0.0959  0.1327
   94HK4    H22 7890   8.122   5.538   1.875 -0.2521 -0.2783 -0.7737
   94HK4    C43 7891   8.302   5.660   1.840 -0.0314 -0.0496  0.4349
   94HK4    H23 7892   8.263   5.711   1.752  2.1798  1.9472  0.5510
   94HK4    C44 7893   8.433   5.685   1.881  0.0513  0.3806 -0.0849
   94HK4    H24 7894   8.491   5.770   1.843 -0.0914  0.3671 -0.3339
   94HK4    C45 7895   8.494   5.604   1.976 -0.2741 -0.2321 -0.3884
   94HK4    H25 7896   8.593   5.624   2.019 -1.2493  0.6529  1.5179
   95HK4    H28 7897   8.387   2.765   3.036  0.0831  0.0187  0.7213
   95HK4    C48 7898   8.309   2.838   3.058 -0.0708 -0.2083  0.9178
   95HK4    C47 7899   8.342   2.973   3.061  0.2301 -0.2662  0.0468
   95HK4    H27 7900   8.446   3.000   3.037 -0.3829  0.4652 -1.9022
   95HK4    C46 7901   8.253   3.073   3.095 -0.1548 -0.4411 -0.4374
   95HK4    H26 7902   8.278   3.172   3.055  1.1418 -1.1025 -1.2682
   95HK4    C40 7903   8.122   3.043   3.137 -0.0359 -0.2423  0.0810
   95HK4    C50 7904   8.088   2.906   3.133 -0.0198 -0.2570  0.3969
   95HK4    H30 7905   7.994   2.875   3.180  0.0392 -1.1996 -0.0911
   95HK4    C49 7906   8.178   2.807   3.095 -0.1761 -0.3954  0.3949
   95HK4    H29 7907   8.163   2.699   3.111 -0.4773 -0.7303 -1.9992
   95HK4     N2 7908   8.030   3.137   3.185  0.3126  0.1065  0.0688
   95HK4    C30 7909   8.055   3.265   3.239  0.1031  0.2967 -0.2795
   95HK4    C29 7910   8.175   3.322   3.279 -0.2247  0.1993  0.8589
   95HK4    H15 7911   8.265   3.261   3.281  1.0178  1.7979 -2.3921
   95HK4    C28 7912   8.175   3.450   3.334  0.1642  0.4919  0.1774
   95HK4    C27 7913   8.055   3.522   3.351 -0.0294  0.1805  0.1324
   95HK4    H14 7914   8.043   3.622   3.395 -0.9497  0.5692 -0.9862
   95HK4    C32 7915   7.934   3.465   3.314  0.3645 -0.1359 -0.6803
   95HK4    H16 7916   7.841   3.510   3.348 -0.4353 -1.9332 -0.4781
   95HK4    C31 7917   7.933   3.341   3.251 -0.3303 -0.4184 -0.1130
   95HK4    C34 7918   7.829   3.252   3.201 -0.1048 -0.4814 -0.4700
   95HK4    C33 7919   7.893   3.131   3.152  0.2698 -0.6275  0.3623
   95HK4    C35 7920   7.812   3.043   3.081 -0.3230  0.5475 -0.4380
   95HK4    H17 7921   7.865   2.991   3.001 -0.2334  0.6412 -0.4398
   95HK4    C36 7922   7.675   3.060   3.069 -0.5157 -0.5384  0.1989
   95HK4    H18 7923   7.612   2.991   3.011  0.7693 -0.3616 -1.4329
   95HK4    C37 7924   7.613   3.171   3.124  0.4611  0.2632 -0.3113
   95HK4    H19 7925   7.504   3.179   3.119  0.1212 -2.2258  2.0848
   95HK4    C38 7926   7.691   3.265   3.191 -0.0788  0.3825  0.1617
   95HK4    H20 7927   7.645   3.346   3.246  0.6409  0.9759 -0.0979
   95HK4    C14 7928   8.299   3.509   3.387  0.4371 -0.2800  0.4002
   95HK4     C9 7929   8.307   3.598   3.494 -0.0722 -0.0160  0.2197
   95HK4     C8 7930   8.403   3.701   3.498  0.1847 -0.2503  0.0188
   95HK4    C11 7931   8.506   3.698   3.405  0.3608  0.3783  0.1876
   95HK4     H4 7932   8.587   3.772   3.412 -0.5070  1.6332 -2.2052
   95HK4    C12 7933   8.511   3.603   3.303 -0.4387  0.0224  0.4706
   95HK4     H5 7934   8.578   3.615   3.216  0.0947  2.6298  1.1977
   95HK4    C13 7935   8.405   3.514   3.294 -0.3040 -0.0508 -0.4405
   95HK4     H6 7936   8.414   3.443   3.210 -0.1909 -0.7241  0.1282
   95HK4     C7 7937   8.383   3.819   3.585 -0.0090 -0.1659 -0.1410
   95HK4     O2 7938   8.467   3.908   3.580  0.1171 -0.2643  0.2112
   95HK4     C4 7939   8.269   3.821   3.680  0.1769  0.3126  0.0686
   95HK4     C3 7940   8.244   3.940   3.747 -0.0994  0.1916  0.1807
   95HK4     H3 7941   8.311   4.027   3.740 -1.1555  0.7275 -5.3390
   95HK4     C2 7942   8.129   3.960   3.823 -0.5449  0.6331 -0.5962
   95HK4     H2 7943   8.132   4.040   3.899  2.3980 -0.3372  0.3748
   95HK4     C1 7944   8.040   3.853   3.823  0.2280 -0.0183  0.0317
   95HK4     H1 7945   7.967   3.851   3.905  1.3128 -1.2972  0.9976
   95HK4     C6 7946   8.055   3.732   3.753  0.5073 -0.7631  1.3641
   95HK4     C5 7947   8.177   3.714   3.688 -0.1286  0.5539 -0.1952
   95HK4    C10 7948   8.212   3.592   3.610 -0.1574  0.3123  0.1674
   95HK4     O1 7949   8.230   3.492   3.679 -0.1822  0.3140  0.1771
   95HK4    C16 7950   7.925   3.672   3.718  0.3949  0.0682  0.3599
   95HK4    C15 7951   7.807   3.748   3.709  0.1628 -0.3564 -0.2379
   95HK4     H7 7952   7.813   3.856   3.728 -0.8956 -0.6225  1.8004
   95HK4    C20 7953   7.685   3.685   3.684  0.0630 -0.0909 -0.4160
   95HK4     H9 7954   7.593   3.744   3.693  0.3230  0.2707 -0.0746
   95HK4    C19 7955   7.677   3.550   3.653 -0.0054 -0.1869  0.0107
   95HK4    C18 7956   7.798   3.471   3.658  0.2335  0.1844  0.1267
   95HK4    C17 7957   7.913   3.534   3.703  0.1290  0.0705  0.5608
   95HK4     H8 7958   7.975   3.467   3.762 -1.3412 -2.0867 -0.3024
   95HK4     N1 7959   7.783   3.341   3.604 -0.0766  0.0661  0.4860
   95HK4    C21 7960   7.649   3.339   3.562  0.1125  0.1409 -0.1309
   95HK4    C22 7961   7.581   3.464   3.587 -0.0679  0.0600 -0.2187
   95HK4    C26 7962   7.445   3.481   3.559 -0.1074  0.2981  0.1046
   95HK4    H13 7963   7.380   3.555   3.605 -0.6275  1.0249 -1.7546
   95HK4    C25 7964   7.381   3.382   3.485  0.3255  0.2053 -0.1544
   95HK4    H12 7965   7.291   3.410   3.431  0.3595  0.9279  0.1552
   95HK4    C24 7966   7.448   3.265   3.451  0.6565  0.5586 -0.7077
   95HK4    H11 7967   7.398   3.192   3.386  1.1620  0.0192 -0.4958
   95HK4    C23 7968   7.577   3.240   3.496  0.2488 -0.1067  0.0951
   95HK4    H10 7969   7.608   3.136   3.508  0.6627 -0.1188 -0.9643
   95HK4    C39 7970   7.852   3.224   3.637 -0.3397 -0.2822 -0.1860
   95HK4    C41 7971   7.856   3.119   3.543 -0.5663 -0.0086 -0.5043
   95HK4    H21 7972   7.847   3.142   3.436  0.0526 -0.8510 -0.7424
   95HK4    C42 7973   7.868   2.987   3.586  0.0514  0.1436 -0.2008
   95HK4    H22 7974   7.850   2.903   3.518 -1.1493 -0.2449  0.5945
   95HK4    C43 7975   7.901   2.971   3.720 -0.4186  0.2022 -0.0776
   95HK4    H23 7976   7.953   2.880   3.747  0.9430  0.6808 -1.0014
   95HK4    C44 7977   7.906   3.071   3.817  0.6268  0.0494  0.0281
   95HK4    H24 7978   7.922   3.047   3.923  0.3180  2.4013  0.6256
   95HK4    C45 7979   7.874   3.199   3.774  0.6254 -0.0574 -0.2934
   95HK4    H25 7980   7.881   3.281   3.848  2.7789 -1.2210  0.8399
   96HK4    H28 7981   7.272   5.855   6.923 -0.9546  1.2375 -1.6983
   96HK4    C48 7982   7.329   5.942   6.957  0.1545  0.0027 -0.3238
   96HK4    C47 7983   7.362   6.049   6.875  0.1862 -0.0431 -0.3716
   96HK4    H27 7984   7.297   6.060   6.787 -0.8047 -1.0448  0.2391
   96HK4    C46 7985   7.441   6.156   6.917 -0.6546  0.3226  0.2976
   96HK4    H26 7986   7.481   6.229   6.844  1.7474 -0.3780  0.8509
   96HK4    C40 7987   7.471   6.164   7.054 -0.1184  0.1763  0.1930
   96HK4    C50 7988   7.435   6.060   7.142  0.6580 -0.3146 -0.0681
   96HK4    H30 7989   7.403   6.084   7.244  1.4981 -0.4578  0.2272
   96HK4    C49 7990   7.376   5.946   7.088 -0.5699  0.3200 -0.0723
   96HK4    H29 7991   7.367   5.859   7.154  0.2363  0.9613  0.8964
   96HK4     N2 7992   7.487   6.290   7.113  0.0718  0.3420 -0.2104
   96HK4    C30 7993   7.428   6.413   7.078 -0.5599  0.0091 -0.3346
   96HK4    C29 7994   7.323   6.440   6.991 -0.5638  0.0422 -0.3205
   96HK4    H15 7995   7.289   6.371   6.914  0.9557 -0.6136 -0.4243
   96HK4    C28 7996   7.263   6.566   6.995  0.0939  0.3405  0.3230
   96HK4    C27 7997   7.321   6.668   7.073  0.2560  0.5325 -0.0468
   96HK4    H14 7998   7.282   6.770   7.063  1.2935  0.9144 -0.2405
   96HK4    C32 7999   7.432   6.644   7.153 -0.1932 -0.7343  0.2142
   96HK4    H16 8000   7.465   6.717   7.227 -1.0505 -0.2834  0.1575
   96HK4    C31 8001   7.490   6.518   7.157 -0.1047 -0.6938  0.2444
   96HK4    C34 8002   7.597   6.461   7.237  0.9358 -0.0937 -0.6986
   96HK4    C33 8003   7.584   6.319   7.211 -0.5742 -0.2012  0.5983
   96HK4    C35 8004   7.676   6.234   7.271 -0.0502 -0.0951 -0.0568
   96HK4    H17 8005   7.671   6.125   7.268 -0.4193 -0.0423 -1.8798
   96HK4    C36 8006   7.773   6.287   7.355 -0.1893 -0.1316  0.1257
   96HK4    H18 8007   7.857   6.227   7.391  1.5606  0.2158 -3.2351
   96HK4    C37 8008   7.775   6.423   7.386  0.1361 -0.0707 -0.1601
   96HK4    H19 8009   7.856   6.467   7.442  2.3570 -3.2148 -0.7495
   96HK4    C38 8010   7.691   6.514   7.324 -0.0156  0.0595  0.2379
   96HK4    H20 8011   7.691   6.622   7.339  2.4968  0.4629 -2.2541
   96HK4    C14 8012   7.162   6.603   6.895  0.0194  0.0144  0.2760
   96HK4     C9 8013   7.149   6.731   6.840 -0.0696 -0.0346  0.1821
   96HK4     C8 8014   7.024   6.795   6.825  0.0696  0.1652 -0.1547
   96HK4    C11 8015   6.910   6.721   6.851  0.3540 -0.3610 -0.3890
   96HK4     H4 8016   6.813   6.772   6.838  0.1819  0.0420  2.2090
   96HK4    C12 8017   6.922   6.586   6.883 -0.2324 -0.2603  0.2966
   96HK4     H5 8018   6.843   6.516   6.851 -0.0035 -0.8414  1.0031
   96HK4    C13 8019   7.044   6.527   6.914 -0.0849  0.2986  0.7937
   96HK4     H6 8020   7.060   6.425   6.951 -0.5581  0.4779  1.4812
   96HK4     C7 8021   7.006   6.917   6.744  0.1239  0.4360  0.2407
   96HK4     O2 8022   6.911   6.991   6.772 -0.4351 -0.2449  0.1599
   96HK4     C4 8023   7.118   6.964   6.660  0.2512 -0.4887 -0.1153
   96HK4     C3 8024   7.100   7.082   6.588 -0.4678 -0.5260  0.0026
   96HK4     H3 8025   7.027   7.160   6.614 -0.2304 -0.0104 -0.8536
   96HK4     C2 8026   7.194   7.123   6.495 -0.7891 -0.2852 -0.2164
   96HK4     H2 8027   7.190   7.226   6.456 -0.9513  0.5392  1.9191
   96HK4     C1 8028   7.306   7.041   6.487 -0.0642  0.6913 -0.2244
   96HK4     H1 8029   7.358   7.061   6.393  0.2429  2.5145  0.3200
   96HK4     C6 8030   7.328   6.918   6.553  0.0544  0.5838 -0.4657
   96HK4     C5 8031   7.236   6.887   6.654  0.3714 -0.2813 -0.4382
   96HK4    C10 8032   7.261   6.779   6.753 -0.2448 -0.0834 -0.0666
   96HK4     O1 8033   7.377   6.748   6.779 -0.2802 -0.4089 -0.2814
   96HK4    C16 8034   7.430   6.831   6.495 -0.1874  0.1944 -0.3124
   96HK4    C15 8035   7.545   6.893   6.440 -0.2300  0.1113 -0.5024
   96HK4     H7 8036   7.581   6.987   6.484  1.6711 -1.2832  1.0717
   96HK4    C20 8037   7.621   6.828   6.343  0.2143 -0.2779  0.0945
   96HK4     H9 8038   7.708   6.877   6.299 -0.2124  0.5713  0.1650
   96HK4    C19 8039   7.583   6.701   6.302  0.0760 -0.1421 -0.1989
   96HK4    C18 8040   7.469   6.633   6.359  0.3003  0.0175  0.4438
   96HK4    C17 8041   7.393   6.704   6.451 -0.2783  0.1612 -0.1336
   96HK4     H8 8042   7.306   6.655   6.495  0.1025  0.0708  0.5383
   96HK4     N1 8043   7.449   6.502   6.309 -0.3640  0.4733 -0.4902
   96HK4    C21 8044   7.554   6.486   6.216 -0.3431  0.5840 -0.4874
   96HK4    C22 8045   7.643   6.600   6.216  0.6084 -0.1498  0.1790
   96HK4    C26 8046   7.748   6.600   6.126  0.1608 -0.0398 -0.3472
   96HK4    H13 8047   7.821   6.681   6.129 -0.0804  0.1769 -0.2813
   96HK4    C25 8048   7.765   6.497   6.034 -0.6022  0.1098 -0.6594
   96HK4    H12 8049   7.831   6.506   5.948  0.2155 -0.5439 -0.1004
   96HK4    C24 8050   7.675   6.391   6.036 -0.2946 -0.1481 -0.4094
   96HK4    H11 8051   7.693   6.311   5.963 -0.2666  0.8329 -1.4815
   96HK4    C23 8052   7.573   6.378   6.131  0.0859  0.2298  0.0536
   96HK4    H10 8053   7.525   6.281   6.145 -0.1779  0.7146  2.7038
   96HK4    C39 8054   7.382   6.403   6.382  0.1680  0.6136  0.1905
   96HK4    C41 8055   7.324   6.292   6.317  0.2770  0.4203  0.4212
   96HK4    H21 8056   7.328   6.291   6.207 -0.8724  0.1777  0.3704
   96HK4    C42 8057   7.255   6.191   6.383  0.2370  0.4000  0.3500
   96HK4    H22 8058   7.212   6.110   6.321 -3.9497  0.9352  2.3739
   96HK4    C43 8059   7.236   6.189   6.520 -0.7517 -0.1805  0.2108
   96HK4    H23 8060   7.155   6.128   6.561 -0.7531 -0.1375  0.2720
   96HK4    C44 8061   7.290   6.299   6.586  0.0060 -0.1995 -0.3766
   96HK4    H24 8062   7.300   6.303   6.695  2.8836  2.2635 -0.6656
   96HK4    C45 8063   7.361   6.400   6.521  0.4484 -0.1265  0.2176
   96HK4    H25 8064   7.418   6.464   6.590  1.4818 -0.1660 -0.5995
   97HK4    H28 8065   9.555   4.915   4.869  0.2425  0.4952 -0.5449
   97HK4    C48 8066   9.458   4.964   4.878  0.2904  0.4576  0.2430
   97HK4    C47 8067   9.420   5.029   4.995 -0.1515  0.2476  0.2190
   97HK4    H27 8068   9.495   5.027   5.076 -1.3324 -1.5765  1.3121
   97HK4    C46 8069   9.288   5.067   5.015 -0.2554  0.0821 -0.1550
   97HK4    H26 8070   9.252   5.102   5.113  0.8020  0.4855  0.0914
   97HK4    C40 8071   9.200   5.070   4.905 -0.2116 -0.1065 -0.1961
   97HK4    C50 8072   9.244   5.014   4.784 -0.2854 -0.0351 -0.2558
   97HK4    H30 8073   9.178   5.022   4.696 -1.4203  0.1128  0.6004
   97HK4    C49 8074   9.371   4.960   4.769 -0.0091  0.4054  0.4816
   97HK4    H29 8075   9.396   4.893   4.685  1.2194  1.5110 -0.0569
   97HK4     N2 8076   9.087   5.154   4.916  0.0907  0.3462 -0.5202
   97HK4    C30 8077   9.062   5.268   4.994 -0.2240 -0.5124  0.6497
   97HK4    C29 8078   9.147   5.371   5.035 -0.5640  0.2312 -0.4803
   97HK4    H15 8079   9.250   5.347   5.062 -0.5853 -1.4160 -1.7799
   97HK4    C28 8080   9.091   5.489   5.083  0.2915  0.7423 -0.7476
   97HK4    C27 8081   8.951   5.506   5.083  0.1203 -0.5979 -0.6375
   97HK4    H14 8082   8.909   5.606   5.102  1.0404 -0.7109  2.1110
   97HK4    C32 8083   8.865   5.406   5.040 -0.3388 -0.0404 -1.0135
   97HK4    H16 8084   8.760   5.432   5.023 -1.3254 -3.5005 -0.6574
   97HK4    C31 8085   8.919   5.288   4.989 -0.2618 -0.7620  0.7230
   97HK4    C34 8086   8.852   5.178   4.922 -0.0421 -0.0773 -0.6352
   97HK4    C33 8087   8.964   5.101   4.872  0.1570 -0.0587 -0.2217
   97HK4    C35 8088   8.935   4.978   4.815  0.2832  0.1224 -0.6753
   97HK4    H17 8089   9.010   4.913   4.770 -0.1828 -1.5725  0.9518
   97HK4    C36 8090   8.802   4.939   4.803  0.3494 -0.1907 -0.3823
   97HK4    H18 8091   8.786   4.836   4.767  0.7994 -0.4728  0.2215
   97HK4    C37 8092   8.695   5.015   4.850 -0.2153 -0.2610 -1.5371
   97HK4    H19 8093   8.594   4.977   4.839 -1.5733  1.9661  2.2629
   97HK4    C38 8094   8.720   5.136   4.913  0.2227 -1.0097 -0.2487
   97HK4    H20 8095   8.635   5.201   4.939  1.3895  1.1313 -1.6501
   97HK4    C14 8096   9.167   5.563   5.185 -0.1932  0.1991  0.0094
   97HK4     C9 8097   9.115   5.595   5.311  0.6354  0.1486  0.3698
   97HK4     C8 8098   9.125   5.725   5.364 -0.4384  0.4844 -0.2426
   97HK4    C11 8099   9.214   5.818   5.311  0.5259 -0.2670  0.0766
   97HK4     H4 8100   9.241   5.913   5.359 -1.0514  1.3135 -2.1242
   97HK4    C12 8101   9.276   5.782   5.192 -0.9133  0.2433 -0.8266
   97HK4     H5 8102   9.351   5.855   5.159 -3.2423  2.0091 -2.4659
   97HK4    C13 8103   9.253   5.660   5.130 -0.2912 -0.0189 -0.5356
   97HK4     H6 8104   9.314   5.637   5.041  1.2144 -0.8868  0.6857
   97HK4     C7 8105   9.043   5.757   5.483 -0.1767  0.1756  0.0181
   97HK4     O2 8106   9.037   5.875   5.519  0.2648  0.2164 -0.0379
   97HK4     C4 8107   8.966   5.654   5.556 -0.6960  0.3198 -0.3218
   97HK4     C3 8108   8.882   5.686   5.662 -0.2119  0.0895  0.1366
   97HK4     H3 8109   8.846   5.790   5.671 -0.5747 -0.1128  1.0128
   97HK4     C2 8110   8.811   5.583   5.722 -0.2127  0.1681  0.2643
   97HK4     H2 8111   8.748   5.609   5.808 -2.3424 -0.3849 -1.1011
   97HK4     C1 8112   8.816   5.450   5.682 -0.2793  0.3346 -0.3031
   97HK4     H1 8113   8.779   5.375   5.754  1.3316 -1.0976 -0.9241
   97HK4     C6 8114   8.883   5.419   5.562  0.0960  0.1377 -0.0414
   97HK4     C5 8115   8.969   5.519   5.515  0.0907  0.2088  0.1030
   97HK4    C10 8116   9.053   5.489   5.395 -0.5489  0.2556 -0.3582
   97HK4     O1 8117   9.116   5.384   5.394 -0.1998  0.4635 -0.2142
   97HK4    C16 8118   8.800   5.332   5.477  0.2722 -0.2829  0.2151
   97HK4    C15 8119   8.660   5.331   5.488  0.1773  0.4641 -0.8228
   97HK4     H7 8120   8.610   5.419   5.531  0.3793 -0.2611  0.9751
   97HK4    C20 8121   8.577   5.237   5.428 -0.1283  0.1029  0.1375
   97HK4     H9 8122   8.469   5.249   5.433  0.0449  1.9639 -0.2670
   97HK4    C19 8123   8.639   5.141   5.348  0.3000  0.2634  0.2760
   97HK4    C18 8124   8.782   5.120   5.352  0.2922 -0.0332 -0.8645
   97HK4    C17 8125   8.855   5.221   5.414 -0.0243  0.0624 -0.6513
   97HK4     H8 8126   8.961   5.202   5.431 -0.8208 -1.4585  3.0768
   97HK4     N1 8127   8.824   5.011   5.273 -0.1263 -0.5659 -0.3530
   97HK4    C21 8128   8.705   4.962   5.215 -0.7221  0.0646  0.3316
   97HK4    C22 8129   8.589   5.037   5.260 -0.4175  0.4920  0.4073
   97HK4    C26 8130   8.464   4.994   5.218 -0.0690 -0.1838  0.0629
   97HK4    H13 8131   8.372   5.039   5.254  0.3769 -1.2019  2.5977
   97HK4    C25 8132   8.452   4.888   5.128  0.2256  0.2702 -0.5190
   97HK4    H12 8133   8.352   4.851   5.108  0.0981 -0.0713  0.6851
   97HK4    C24 8134   8.563   4.819   5.082  0.0223  0.0812 -0.7220
   97HK4    H11 8135   8.544   4.732   5.018 -1.8934 -0.1119  0.0716
   97HK4    C23 8136   8.690   4.854   5.128 -0.3435 -0.0155  0.3673
   97HK4    H10 8137   8.773   4.784   5.122 -0.1022  0.0409  2.6174
   97HK4    C39 8138   8.947   4.950   5.300 -0.2962 -0.5028  0.5727
   97HK4    C41 8139   9.016   4.889   5.193 -0.3101  0.3684  0.0591
   97HK4    H21 8140   8.969   4.913   5.097  1.1465  2.0444 -0.2478
   97HK4    C42 8141   9.118   4.796   5.211 -0.1552  0.5628  0.1724
   97HK4    H22 8142   9.178   4.769   5.123  2.0016  2.0910  1.1281
   97HK4    C43 8143   9.140   4.748   5.340  0.0533 -0.1987 -0.1452
   97HK4    H23 8144   9.219   4.672   5.341  1.1661  0.9576  0.9068
   97HK4    C44 8145   9.074   4.809   5.446 -0.1729 -0.2913 -0.2321
   97HK4    H24 8146   9.072   4.759   5.544 -2.0886  0.3240  0.0609
   97HK4    C45 8147   8.984   4.914   5.431 -0.1179 -0.1213  0.6263
   97HK4    H25 8148   8.960   4.980   5.515 -1.4397 -1.5566  1.3944
   98HK4    H28 8149   2.825   7.484   8.285  0.9873 -0.2113  0.3918
   98HK4    C48 8150   2.881   7.481   8.192 -0.5433 -0.3116 -0.5541
   98HK4    C47 8151   2.853   7.562   8.083 -0.2430  0.4190 -0.0967
   98HK4    H27 8152   2.755   7.610   8.074  1.1873  3.3012 -0.9777
   98HK4    C46 8153   2.953   7.586   7.989  0.0645  0.1148  0.1529
   98HK4    H26 8154   2.924   7.655   7.908 -0.9787  2.1718  2.2219
   98HK4    C40 8155   3.077   7.518   7.987  0.0004  0.0021 -0.1139
   98HK4    C50 8156   3.102   7.437   8.100  0.3888  0.4902  0.1546
   98HK4    H30 8157   3.202   7.390   8.102  1.1623  2.0787 -0.5405
   98HK4    C49 8158   3.006   7.420   8.199 -0.0983  0.6294 -0.2904
   98HK4    H29 8159   3.030   7.359   8.288 -0.2270  1.4446  0.3150
   98HK4     N2 8160   3.180   7.550   7.898  0.1912  0.1786  0.1684
   98HK4    C30 8161   3.189   7.670   7.825 -0.4442  0.1203 -0.0156
   98HK4    C29 8162   3.140   7.794   7.866 -0.3457  0.1284  0.0818
   98HK4    H15 8163   3.078   7.804   7.955  0.0058 -0.4132  0.3939
   98HK4    C28 8164   3.179   7.908   7.797 -0.0953  0.1164  0.2034
   98HK4    C27 8165   3.264   7.899   7.685 -0.2234 -0.4100  0.1441
   98HK4    H14 8166   3.295   7.983   7.621  0.5338  0.2667  1.3985
   98HK4    C32 8167   3.320   7.777   7.650  0.0153 -0.3326  0.2530
   98HK4    H16 8168   3.399   7.774   7.575  0.4066  0.5606  0.6235
   98HK4    C31 8169   3.284   7.659   7.716 -0.2625 -0.2884  0.1807
   98HK4    C34 8170   3.331   7.522   7.718 -0.6883 -0.4368  0.0474
   98HK4    C33 8171   3.274   7.464   7.838 -0.1082 -0.3031  0.3868
   98HK4    C35 8172   3.305   7.329   7.855  0.0826 -0.3743 -0.5300
   98HK4    H17 8173   3.277   7.278   7.947 -1.1718  2.1334  0.5308
   98HK4    C36 8174   3.369   7.254   7.757  0.4088 -0.5016 -0.2156
   98HK4    H18 8175   3.367   7.145   7.771 -3.8852 -0.2122  2.1762
   98HK4    C37 8176   3.420   7.311   7.641 -0.1054 -0.1947 -0.2871
   98HK4    H19 8177   3.484   7.250   7.578  0.7559  2.5404 -2.1600
   98HK4    C38 8178   3.402   7.448   7.625 -0.5499 -0.2179 -0.0200
   98HK4    H20 8179   3.416   7.498   7.529 -0.1809  0.3081  0.3036
   98HK4    C14 8180   3.124   8.036   7.842  0.0534  0.2472  0.0129
   98HK4     C9 8181   3.103   8.144   7.754 -0.0998  0.0835 -0.1550
   98HK4     C8 8182   3.128   8.276   7.798  0.2180 -0.0074 -0.0501
   98HK4    C11 8183   3.161   8.296   7.931  0.1623  0.0596 -0.0463
   98HK4     H4 8184   3.186   8.398   7.964 -1.3983  0.3139  0.3502
   98HK4    C12 8185   3.160   8.193   8.024 -0.9440  0.0666 -0.0533
   98HK4     H5 8186   3.190   8.209   8.129  0.1223  0.8632 -0.4698
   98HK4    C13 8187   3.142   8.063   7.979 -0.1015 -0.1080  0.1023
   98HK4     H6 8188   3.166   7.986   8.054 -1.8974 -1.0557 -0.2616
   98HK4     C7 8189   3.102   8.396   7.715  0.4567 -0.2163 -0.4274
   98HK4     O2 8190   3.172   8.495   7.731 -0.5199  0.4195  0.0090
   98HK4     C4 8191   3.020   8.380   7.593  0.3868  0.0083 -0.4109
   98HK4     C3 8192   2.992   8.486   7.507 -0.5698  0.1908  0.1190
   98HK4     H3 8193   3.002   8.587   7.549 -1.0697  1.1519 -2.0261
   98HK4     C2 8194   2.906   8.474   7.399 -0.5558  0.8064  0.0388
   98HK4     H2 8195   2.886   8.562   7.336  0.6327  1.4585  0.5472
   98HK4     C1 8196   2.825   8.361   7.389  0.6029 -0.0207 -0.1021
   98HK4     H1 8197   2.769   8.349   7.296  1.3606  3.2566 -1.0474
   98HK4     C6 8198   2.846   8.258   7.482  0.0204 -0.1653 -0.1246
   98HK4     C5 8199   2.956   8.257   7.570  0.2846  0.0695 -0.4518
   98HK4    C10 8200   3.013   8.136   7.636 -0.2334  0.0448 -0.0505
   98HK4     O1 8201   3.012   8.032   7.570  0.0413 -0.0818  0.1434
   98HK4    C16 8202   2.739   8.158   7.490  0.3294 -0.4920 -0.0460
   98HK4    C15 8203   2.648   8.143   7.384  0.6859 -0.0505 -0.4119
   98HK4     H7 8204   2.677   8.165   7.280 -3.8381  0.5518 -1.6575
   98HK4    C20 8205   2.524   8.083   7.400  0.1528  1.2394  0.3864
   98HK4     H9 8206   2.487   8.047   7.304 -1.7071  1.2044  1.1040
   98HK4    C19 8207   2.486   8.031   7.523  0.3232  0.0690 -0.0482
   98HK4    C18 8208   2.580   8.041   7.633  0.1895  0.4791  0.0312
   98HK4    C17 8209   2.704   8.099   7.611  0.2114  0.5982  0.4558
   98HK4     H8 8210   2.772   8.105   7.696  1.4799 -0.2875 -0.4662
   98HK4     N1 8211   2.522   7.992   7.752  0.2390  0.6790  0.1360
   98HK4    C21 8212   2.394   7.940   7.721  0.5359  0.1560 -0.2179
   98HK4    C22 8213   2.368   7.970   7.582  0.2126  0.1815 -0.1522
   98HK4    C26 8214   2.258   7.916   7.517  0.3081 -0.1754 -0.0217
   98HK4    H13 8215   2.221   7.974   7.432 -0.0190 -1.4646 -0.7711
   98HK4    C25 8216   2.173   7.831   7.586 -0.2877  0.5356  0.1289
   98HK4    H12 8217   2.096   7.772   7.536 -1.0191 -1.0681  3.0317
   98HK4    C24 8218   2.206   7.794   7.716 -0.1586  0.2511  0.0159
   98HK4    H11 8219   2.147   7.720   7.773 -2.4018  2.8306  1.1507
   98HK4    C23 8220   2.311   7.850   7.788 -0.3158  0.9092 -0.2651
   98HK4    H10 8221   2.342   7.815   7.886 -1.5628 -1.8021 -0.7958
   98HK4    C39 8222   2.587   7.975   7.875 -0.3857 -0.5787  0.2994
   98HK4    C41 8223   2.515   7.960   7.995 -0.1633  0.4614  0.5639
   98HK4    H21 8224   2.420   8.014   8.009 -0.3057 -0.0998  1.8941
   98HK4    C42 8225   2.582   7.927   8.113  0.1050  0.5683  0.4403
   98HK4    H22 8226   2.527   7.900   8.204 -1.2385 -0.1333 -0.5594
   98HK4    C43 8227   2.719   7.905   8.111  0.0603  0.3157  0.0301
   98HK4    H23 8228   2.773   7.905   8.206  2.3166  2.8760 -1.1754
   98HK4    C44 8229   2.795   7.912   7.995 -0.1088  0.1158 -0.0902
   98HK4    H24 8230   2.903   7.888   7.992 -0.5983 -2.3080  0.8671
   98HK4    C45 8231   2.725   7.951   7.881 -0.2164  0.3247  0.0461
   98HK4    H25 8232   2.784   7.925   7.791  0.8352  1.1373  0.4851
   99HK4    H28 8233   1.526   3.591   1.349  0.8281  0.3606  0.3673
   99HK4    C48 8234   1.555   3.487   1.334  0.7654  0.3936  0.0020
   99HK4    C47 8235   1.589   3.437   1.209 -0.1322 -0.2041 -0.0100
   99HK4    H27 8236   1.543   3.475   1.117  1.9904  1.6599 -0.3607
   99HK4    C46 8237   1.648   3.311   1.204  0.2351 -0.0345  0.0159
   99HK4    H26 8238   1.695   3.287   1.107  2.2631  0.7807  0.7644
   99HK4    C40 8239   1.678   3.234   1.317 -0.0341 -0.0690  0.0641
   99HK4    C50 8240   1.638   3.288   1.441 -0.2375 -0.3228  0.1098
   99HK4    H30 8241   1.671   3.238   1.534 -2.0107  1.7164  1.8763
   99HK4    C49 8242   1.575   3.411   1.449  0.1395 -0.1063 -0.2187
   99HK4    H29 8243   1.544   3.451   1.547  0.7787  1.5131 -0.6651
   99HK4     N2 8244   1.764   3.123   1.310  0.3574  0.2280  0.1843
   99HK4    C30 8245   1.755   3.008   1.391  0.0171  0.3454  0.3114
   99HK4    C29 8246   1.666   2.959   1.487 -0.6824 -0.0747 -0.5425
   99HK4    H15 8247   1.566   3.001   1.485 -0.1660  1.2186 -0.0148
   99HK4    C28 8248   1.681   2.843   1.561  0.2458  0.3310 -0.0781
   99HK4    C27 8249   1.795   2.765   1.534  0.1745  0.2929 -0.2659
   99HK4    H14 8250   1.813   2.676   1.597 -2.4440 -0.5918 -0.7105
   99HK4    C32 8251   1.888   2.805   1.440 -0.0006  0.1165 -0.5161
   99HK4    H16 8252   1.979   2.746   1.429 -1.4722 -1.8130 -3.0096
   99HK4    C31 8253   1.870   2.923   1.368 -0.3731  0.0421 -0.5446
   99HK4    C34 8254   1.952   2.995   1.272 -0.0022  0.2210 -0.0947
   99HK4    C33 8255   1.888   3.121   1.242  0.3384  0.4517  0.1412
   99HK4    C35 8256   1.957   3.221   1.175 -0.1936  0.4606 -0.4040
   99HK4    H17 8257   1.910   3.319   1.161 -0.1403  0.2311 -2.3493
   99HK4    C36 8258   2.087   3.197   1.132 -0.3214 -0.1566 -0.4537
   99HK4    H18 8259   2.128   3.261   1.052 -0.1403 -0.9064 -0.9673
   99HK4    C37 8260   2.148   3.075   1.157 -0.0796  0.2339  0.8861
   99HK4    H19 8261   2.241   3.043   1.108 -0.6544  0.9693 -0.7156
   99HK4    C38 8262   2.081   2.974   1.225  0.0080 -0.3141  0.1593
   99HK4    H20 8263   2.132   2.878   1.235 -3.0667 -2.0068  0.2936
   99HK4    C14 8264   1.600   2.834   1.684  0.3034  0.3802 -0.0366
   99HK4     C9 8265   1.644   2.758   1.792 -0.5785 -0.5716 -0.3441
   99HK4     C8 8266   1.556   2.682   1.872 -0.5351  0.2594  0.5003
   99HK4    C11 8267   1.419   2.699   1.858 -0.4589  0.4312 -0.0147
   99HK4     H4 8268   1.352   2.670   1.940 -0.0360  0.3564  0.3044
   99HK4    C12 8269   1.370   2.783   1.758  0.2376  0.5605 -0.2519
   99HK4     H5 8270   1.265   2.794   1.728 -0.0769  0.9901  0.9793
   99HK4    C13 8271   1.460   2.846   1.673  0.3258  0.4666 -0.2282
   99HK4     H6 8272   1.424   2.932   1.615 -1.4747 -0.9203 -1.2547
   99HK4     C7 8273   1.612   2.582   1.966  0.5827 -0.0433 -0.4784
   99HK4     O2 8274   1.531   2.514   2.028  0.3237  0.5761 -0.1333
   99HK4     C4 8275   1.758   2.564   1.983  0.5933  0.7942  0.4211
   99HK4     C3 8276   1.805   2.464   2.068  0.0981 -0.0777 -0.3205
   99HK4     H3 8277   1.745   2.398   2.132  2.0385 -1.0575  0.5232
   99HK4     C2 8278   1.941   2.433   2.071  0.0745 -0.0922  0.7463
   99HK4     H2 8279   1.977   2.356   2.141  1.0049  0.3838  0.7963
   99HK4     C1 8280   2.028   2.505   1.991 -0.6601  0.1184  0.1265
   99HK4     H1 8281   2.134   2.477   1.983 -0.3804  1.0796  0.3294
   99HK4     C6 8282   1.984   2.608   1.904  0.1855  0.5556  0.2097
   99HK4     C5 8283   1.848   2.640   1.906  0.1830  0.5726 -0.2839
   99HK4    C10 8284   1.789   2.751   1.824 -0.6174  0.4022  0.0581
   99HK4     O1 8285   1.846   2.860   1.830  0.0778  0.0607 -0.2962
   99HK4    C16 8286   2.060   2.626   1.780  0.2492 -0.2505  0.1288
   99HK4    C15 8287   2.109   2.516   1.706  0.3733 -0.0483 -0.0944
   99HK4     H7 8288   2.073   2.416   1.736  0.2636  0.4806  1.6222
   99HK4    C20 8289   2.209   2.521   1.610  0.2647 -0.2512 -0.2189
   99HK4     H9 8290   2.221   2.436   1.543 -3.6682 -0.4421 -0.8046
   99HK4    C19 8291   2.252   2.648   1.573  0.4710 -0.2347  0.0737
   99HK4    C18 8292   2.199   2.762   1.646 -0.2027 -0.1988 -0.4610
   99HK4    C17 8293   2.114   2.752   1.755 -0.1655 -0.1827 -0.4297
   99HK4     H8 8294   2.116   2.830   1.831  1.0088 -0.8740  0.2653
   99HK4     N1 8295   2.252   2.880   1.591 -0.2764  0.0314 -0.0396
   99HK4    C21 8296   2.332   2.845   1.479 -0.2529 -0.1422  0.0314
   99HK4    C22 8297   2.347   2.701   1.478  0.1771 -0.0961 -0.1441
   99HK4    C26 8298   2.410   2.646   1.367 -0.0612 -0.1571 -0.2501
   99HK4    H13 8299   2.434   2.540   1.361  0.1186 -0.1313 -0.0064
   99HK4    C25 8300   2.455   2.724   1.261  0.2249 -0.0555 -0.0551
   99HK4    H12 8301   2.540   2.689   1.202  0.0895 -1.8913  0.8040
   99HK4    C24 8302   2.441   2.862   1.267 -0.4636 -0.0983 -0.6299
   99HK4    H11 8303   2.466   2.915   1.174  1.0904 -1.2734 -0.8966
   99HK4    C23 8304   2.376   2.923   1.373 -0.0482 -0.4930 -0.1420
   99HK4    H10 8305   2.353   3.029   1.358  0.0972 -0.5333 -0.6523
   99HK4    C39 8306   2.216   3.012   1.620 -0.0163  0.1706 -0.3391
   99HK4    C41 8307   2.320   3.106   1.639 -0.0156  0.0670  0.1710
   99HK4    H21 8308   2.414   3.077   1.687  0.2990  0.4761 -0.1957
   99HK4    C42 8309   2.293   3.241   1.620  0.1557  0.1074  0.2146
   99HK4    H22 8310   2.376   3.310   1.597 -1.3027  2.3756  1.5068
   99HK4    C43 8311   2.164   3.287   1.595 -0.0741 -0.2524  0.7281
   99HK4    H23 8312   2.144   3.394   1.587 -0.6661 -0.4762 -0.8629
   99HK4    C44 8313   2.062   3.194   1.586 -0.1462 -0.1146  0.1497
   99HK4    H24 8314   1.956   3.225   1.580  0.5649  2.5320  0.7495
   99HK4    C45 8315   2.084   3.058   1.600 -0.1369 -0.1623 -0.3094
   99HK4    H25 8316   2.003   2.987   1.579 -1.5140  1.2910  0.0348
  100HK4    H28 8317  10.309  10.534   6.605 -0.8042  2.9044 -1.5704
  100HK4    C48 8318  10.213  10.487   6.586  0.3206 -0.1392 -0.1323
  100HK4    C47 8319  10.205  10.351   6.559 -0.0039 -0.1203 -0.1355
  100HK4    H27 8320  10.299  10.297   6.545 -0.6760 -1.5097  0.5792
  100HK4    C46 8321  10.085  10.285   6.534 -0.0265  0.0183 -0.3944
  100HK4    H26 8322  10.079  10.176   6.528 -0.6111 -0.0681  1.2339
  100HK4    C40 8323   9.968  10.364   6.530  0.1680  0.3184 -0.2114
  100HK4    C50 8324   9.972  10.503   6.553  0.2328  0.1886  0.5626
  100HK4    H30 8325   9.881  10.564   6.543 -0.1518 -0.6472 -1.1172
  100HK4    C49 8326  10.095  10.561   6.578  0.3083 -0.0555  0.7701
  100HK4    H29 8327  10.105  10.668   6.601 -2.5883  0.6282 -0.9382
  100HK4     N2 8328   9.853  10.312   6.469  0.0601  0.4006 -0.0742
  100HK4    C30 8329   9.856  10.221   6.361  0.0807 -0.4074  0.6008
  100HK4    C29 8330   9.962  10.190   6.278 -0.4157 -0.1950 -0.1135
  100HK4    H15 8331  10.045  10.259   6.259 -0.1193 -0.6932 -0.6468
  100HK4    C28 8332   9.959  10.080   6.194 -0.3121  0.2805 -0.7468
  100HK4    C27 8333   9.846   9.996   6.205 -0.2100  0.2533  0.0992
  100HK4    H14 8334   9.844   9.893   6.167  0.0233  0.2953 -0.0279
  100HK4    C32 8335   9.739  10.022   6.290 -0.8379 -0.1974 -0.5446
  100HK4    H16 8336   9.654   9.955   6.302 -1.4579  0.3657 -1.7757
  100HK4    C31 8337   9.737  10.138   6.367 -0.0467 -0.2963 -0.3645
  100HK4    C34 8338   9.650  10.196   6.468 -0.0200 -0.3060 -0.3369
  100HK4    C33 8339   9.726  10.303   6.530  0.2747 -0.8330  0.2113
  100HK4    C35 8340   9.660  10.378   6.627  0.1768 -0.5330 -0.0862
  100HK4    H17 8341   9.711  10.466   6.668  0.6190 -1.1739  0.7678
  100HK4    C36 8342   9.528  10.356   6.665  0.1003 -0.1084 -0.1074
  100HK4    H18 8343   9.475  10.413   6.742 -0.6709 -0.6499 -0.2322
  100HK4    C37 8344   9.461  10.246   6.613  0.1581 -0.3271  0.2810
  100HK4    H19 8345   9.366  10.221   6.659  0.0983  0.2564  0.4724
  100HK4    C38 8346   9.523  10.168   6.515 -0.1488  0.2249 -0.3579
  100HK4    H20 8347   9.474  10.078   6.478  0.6060 -0.5585  0.5419
  100HK4    C14 8348  10.072  10.070   6.099  0.6002 -0.0941  0.3636
  100HK4     C9 8349  10.078   9.997   5.980 -0.0969 -0.5688  0.6117
  100HK4     C8 8350  10.203   9.981   5.917 -0.1753 -0.1044  0.3375
  100HK4    C11 8351  10.320  10.037   5.968 -0.2595  0.3100  0.0762
  100HK4     H4 8352  10.390  10.073   5.891 -2.2258  0.3554 -1.7239
  100HK4    C12 8353  10.320  10.093   6.096  0.5462  0.1966  0.1288
  100HK4     H5 8354  10.414  10.143   6.125  0.5307 -0.6184  1.6008
  100HK4    C13 8355  10.196  10.105   6.157  0.6259 -0.2040  0.3739
  100HK4     H6 8356  10.204  10.116   6.266  0.1097  1.9037  0.2239
  100HK4     C7 8357  10.224   9.872   5.820  0.2433  0.0930  0.2053
  100HK4     O2 8358  10.298   9.892   5.724  0.2958 -0.2383  0.1754
  100HK4     C4 8359  10.126   9.761   5.821  0.2160  0.1106 -0.1377
  100HK4     C3 8360  10.164   9.645   5.753 -0.2632 -0.2564  0.2176
  100HK4     H3 8361  10.271   9.622   5.747 -0.0968  0.9077 -1.4847
  100HK4     C2 8362  10.073   9.549   5.712  0.3395 -0.9435  0.4717
  100HK4     H2 8363  10.105   9.460   5.656  1.6751  0.8509 -1.7099
  100HK4     C1 8364   9.942   9.570   5.752  0.1871  0.3861 -0.7132
  100HK4     H1 8365   9.873   9.486   5.736  1.2280 -0.5221 -0.4734
  100HK4     C6 8366   9.899   9.694   5.806  0.1957 -0.1311  0.4861
  100HK4     C5 8367   9.991   9.793   5.844  0.1936  0.2069 -0.3928
  100HK4    C10 8368   9.967   9.915   5.926 -0.1270 -0.0981 -0.0331
  100HK4     O1 8369   9.858   9.971   5.917  0.0283  0.1850 -0.1688
  100HK4    C16 8370   9.762   9.731   5.767  0.2754  0.0076  0.3308
  100HK4    C15 8371   9.720   9.675   5.645 -0.2585  0.8717  0.1162
  100HK4     H7 8372   9.768   9.699   5.549  0.6620  0.1039  0.3712
  100HK4    C20 8373   9.601   9.604   5.641  0.1172  0.2323 -0.0788
  100HK4     H9 8374   9.572   9.557   5.547  0.9181 -0.1533 -0.1312
  100HK4    C19 8375   9.521   9.584   5.754  0.0418 -0.4288 -0.2502
  100HK4    C18 8376   9.555   9.658   5.874 -0.1236  0.1000 -0.5225
  100HK4    C17 8377   9.674   9.729   5.874 -0.0539 -0.0144  0.0571
  100HK4     H8 8378   9.694   9.800   5.955 -2.1417 -0.7387  1.2627
  100HK4     N1 8379   9.452   9.628   5.966  0.0757  0.4104 -0.2007
  100HK4    C21 8380   9.368   9.526   5.917 -0.1252  0.0963  0.7766
  100HK4    C22 8381   9.405   9.501   5.779 -0.4078  0.4566  0.6342
  100HK4    C26 8382   9.355   9.386   5.719 -0.0428  0.2344  0.7529
  100HK4    H13 8383   9.416   9.352   5.635 -1.0045  2.2459 -0.7766
  100HK4    C25 8384   9.256   9.312   5.783 -0.2164 -0.1463  0.0476
  100HK4    H12 8385   9.194   9.248   5.720 -0.7657  1.2069 -0.8073
  100HK4    C24 8386   9.220   9.339   5.914  0.0486 -0.4291  0.1813
  100HK4    H11 8387   9.144   9.276   5.964 -1.6263  0.6419 -0.9829
  100HK4    C23 8388   9.280   9.442   5.985  0.5473 -0.8943  0.4341
  100HK4    H10 8389   9.252   9.461   6.089  1.6524  0.5912  0.4877
  100HK4    C39 8390   9.429   9.690   6.090  0.1279  0.0989 -0.0348
  100HK4    C41 8391   9.297   9.720   6.127  0.1830  0.7310 -0.3433
  100HK4    H21 8392   9.207   9.692   6.069  0.2815 -2.9437  1.1609
  100HK4    C42 8393   9.269   9.771   6.253  0.3833 -0.3147  0.1229
  100HK4    H22 8394   9.163   9.788   6.276  0.8445  1.4028  1.0441
  100HK4    C43 8395   9.369   9.796   6.347  0.1259  0.0149  0.3108
  100HK4    H23 8396   9.348   9.848   6.440  1.4131 -1.7727  1.6362
  100HK4    C44 8397   9.497   9.753   6.315  0.1391  0.0338  0.3393
  100HK4    H24 8398   9.580   9.776   6.383 -0.0298  0.1419  0.5064
  100HK4    C45 8399   9.528   9.700   6.190 -0.1135  0.2312  0.1909
  100HK4    H25 8400   9.625   9.652   6.172 -1.4345 -1.9781 -1.2928
  11.24798  11.24798  11.24798
