mol only system in water
   84
    1HK4    H28    1   1.602   0.962   0.912 -0.0935  0.8795 -2.1573
    1HK4    C48    2   1.565   0.879   0.852 -0.2814 -0.6983  0.0954
    1HK4    C47    3   1.655   0.809   0.773  0.4154  0.1398  0.1445
    1HK4    H27    4   1.754   0.855   0.756  0.1277  0.7999  0.2091
    1HK4    C46    5   1.603   0.717   0.683 -0.0655  0.7587 -0.2231
    1HK4    H26    6   1.671   0.651   0.626 -0.6826 -1.3389  1.4088
    1HK4    C40    7   1.466   0.692   0.663 -0.0722  0.4028  0.2488
    1HK4    C50    8   1.380   0.777   0.734 -0.1836  0.1441  0.4249
    1HK4    H30    9   1.289   0.809   0.682  0.0209 -1.4218 -0.9314
    1HK4    C49   10   1.428   0.864   0.832 -0.4450  0.2607  0.4502
    1HK4    H29   11   1.359   0.911   0.903 -1.5197 -2.9277  1.6263
    1HK4     N2   12   1.416   0.578   0.598  0.8796  0.0381  0.1451
    1HK4    C30   13   1.487   0.492   0.512  0.5931 -0.0398 -0.0147
    1HK4    C29   14   1.582   0.519   0.415  0.2832 -0.0542 -0.3216
    1HK4    H15   15   1.626   0.619   0.413  0.3270 -0.0455  0.7445
    1HK4    C28   16   1.626   0.427   0.321 -0.4624 -0.3432 -0.3913
    1HK4    C27   17   1.581   0.293   0.332 -0.2049 -0.4185 -0.2413
    1HK4    H14   18   1.638   0.211   0.286 -1.1184 -0.0857 -2.0226
    1HK4    C32   19   1.478   0.267   0.421  0.2890  0.1639  0.5182
    1HK4    H16   20   1.474   0.165   0.461 -0.7619 -0.2575 -0.6285
    1HK4    C31   21   1.418   0.365   0.499  0.1275  0.1707  0.3862
    1HK4    C34   22   1.287   0.382   0.560 -0.0946  0.0717 -0.0590
    1HK4    C33   23   1.299   0.507   0.633  0.7809  0.0520 -0.1619
    1HK4    C35   24   1.183   0.552   0.694  0.7271 -0.2102 -0.0678
    1HK4    H17   25   1.192   0.608   0.788  1.5745 -1.5900  0.6848
    1HK4    C36   26   1.058   0.498   0.668  0.6603 -0.2428  0.3128
    1HK4    H18   27   0.969   0.534   0.721 -0.6517 -1.3252 -1.1155
    1HK4    C37   28   1.048   0.383   0.591  0.4669  0.1702 -0.2809
    1HK4    H19   29   0.954   0.361   0.540  0.7924  2.2633 -1.8785
    1HK4    C38   30   1.163   0.324   0.538  0.1611 -0.3825 -0.3312
    1HK4    H20   31   1.152   0.225   0.494  0.9980 -0.3958 -0.5192
    1HK4    C14   32   1.662   0.482   0.190  0.5445  0.2187  0.1181
    1HK4     C9   33   1.618   0.428   0.069  0.0297  0.5295  0.1677
    1HK4     C8   34   1.699   0.432  11.202 -0.2450  0.7156 -0.0203
    1HK4    C11   35   1.820   0.497  11.221  0.1287  0.0940 -0.2821
    1HK4     H4   36   1.903   0.477  11.152  0.6512  3.0052 -0.5406
    1HK4    C12   37   1.869   0.553   0.091  0.0789 -0.1427 -0.1474
    1HK4     H5   38   1.963   0.609   0.100  0.5664 -0.7701 -1.1355
    1HK4    C13   39   1.788   0.545   0.203 -0.1061  1.5963 -0.1488
    1HK4     H6   40   1.817   0.593   0.298 -0.0839  1.2335  0.0278
    1HK4     C7   41   1.648   0.394  11.068 -0.0239  0.5913 -0.0682
    1HK4     O2   42   1.724   0.394  10.971 -0.0817 -0.2542 -0.1110
    1HK4     C4   43   1.507   0.351  11.060  0.0987  0.1856 -0.0322
    1HK4     C3   44   1.451   0.327  10.935  0.3833  0.1397 -0.1531
    1HK4     H3   45   1.502   0.368  10.846  0.3175  0.3663 -0.0825
    1HK4     C2   46   1.329   0.262  10.921  0.5026 -0.2229  0.5082
    1HK4     H2   47   1.268   0.279  10.831  0.8558  0.5886  0.4151
    1HK4     C1   48   1.276   0.200  11.034 -0.6754  0.0108  0.0883
    1HK4     H1   49   1.182   0.145  11.016  0.0465 -0.7970 -1.3552
    1HK4     C6   50   1.330   0.214  11.163 -0.6039  0.4744  0.0086
    1HK4     C5   51   1.437   0.304  11.174 -0.0689 -0.1280 -0.2629
    1HK4    C10   52   1.480   0.373   0.051 -0.0521  1.0815 -0.9260
    1HK4     O1   53   1.393   0.424   0.120 -0.2992 -0.5555 -0.0092
    1HK4    C16   54   1.278   0.127   0.021 -0.3400  0.1939 -0.0943
    1HK4    C15   55   1.343   0.110   0.145 -0.3466 -0.2358 -0.1470
    1HK4     H7   56   1.445   0.150   0.149 -0.2114 -0.7000  1.3202
    1HK4    C20   57   1.300   0.034   0.253 -0.4320  0.6782  0.4789
    1HK4     H9   58   1.348   0.042   0.350  1.9404 -1.3498 -0.4834
    1HK4    C19   59   1.171  11.229   0.250 -0.1943  0.1003  0.2123
    1HK4    C18   60   1.110  11.228   0.119  0.1339  0.4446  0.0565
    1HK4    C17   61   1.159   0.056   0.013 -0.4649  0.4201 -0.2429
    1HK4     H8   62   1.082   0.099  11.197 -0.4891  0.2247 -0.3442
    1HK4     N1   63   0.979  11.176   0.128  0.5060 -0.5041  0.0424
    1HK4    C21   64   0.951  11.151   0.264  0.1114  0.1794  0.0903
    1HK4    C22   65   1.072  11.174   0.341 -0.0866  0.2025  0.3944
    1HK4    C26   66   1.064  11.151   0.478  0.0310 -0.1874  0.3386
    1HK4    H13   67   1.148  11.180   0.540 -0.5027  2.5310 -0.1117
    1HK4    C25   68   0.955  11.092   0.540 -0.3555  0.1220 -0.0369
    1HK4    H12   69   0.962  11.042   0.636  0.6514 -1.9231 -1.1406
    1HK4    C24   70   0.842  11.070   0.460 -0.1756 -0.6170 -0.0931
    1HK4    H11   71   0.751  11.075   0.522 -0.2046  2.0069 -0.2998
    1HK4    C23   72   0.836  11.104   0.326  0.1388  0.0824  0.0690
    1HK4    H10   73   0.749  11.084   0.264  0.7549  0.8947 -1.0826
    1HK4    C39   74   0.898  11.132   0.022 -0.1333  0.8447 -0.0493
    1HK4    C41   75   0.758  11.137   0.015 -0.1679 -0.0296 -0.0525
    1HK4    H21   76   0.697  11.206   0.075 -3.6170 -1.1477 -2.1170
    1HK4    C42   77   0.693  11.089  11.150 -0.0555  0.1210 -0.1806
    1HK4    H22   78   0.584  11.104  11.139 -0.2539 -0.6117  0.7882
    1HK4    C43   79   0.756  11.026  11.044  0.1771 -0.0351  0.0489
    1HK4    H23   80   0.703  11.003  10.952  1.6004 -0.7770 -0.6136
    1HK4    C44   81   0.893  11.005  11.054  0.1716 -0.0583  0.0729
    1HK4    H24   82   0.946  10.940  10.983  0.1604 -0.1231  0.1243
    1HK4    C45   83   0.958  11.067  11.160 -0.3203  0.7206 -0.0755
    1HK4    H25   84   1.067  11.053  11.169 -0.4330 -0.2312 -0.1364
  11.24798  11.24798  11.24798
