mol only system in water
126084
    1HK4    H28    1   1.602   0.962   0.912 -0.0935  0.8795 -2.1573
    1HK4    C48    2   1.565   0.879   0.852 -0.2814 -0.6983  0.0954
    1HK4    C47    3   1.655   0.809   0.773  0.4154  0.1398  0.1445
    1HK4    H27    4   1.754   0.855   0.756  0.1277  0.7999  0.2091
    1HK4    C46    5   1.603   0.717   0.683 -0.0655  0.7587 -0.2231
    1HK4    H26    6   1.671   0.651   0.626 -0.6826 -1.3389  1.4088
    1HK4    C40    7   1.466   0.692   0.663 -0.0722  0.4028  0.2488
    1HK4    C50    8   1.380   0.777   0.734 -0.1836  0.1441  0.4249
    1HK4    H30    9   1.289   0.809   0.682  0.0209 -1.4218 -0.9314
    1HK4    C49   10   1.428   0.864   0.832 -0.4450  0.2607  0.4502
    1HK4    H29   11   1.359   0.911   0.903 -1.5197 -2.9277  1.6263
    1HK4     N2   12   1.416   0.578   0.598  0.8796  0.0381  0.1451
    1HK4    C30   13   1.487   0.492   0.512  0.5931 -0.0398 -0.0147
    1HK4    C29   14   1.582   0.519   0.415  0.2832 -0.0542 -0.3216
    1HK4    H15   15   1.626   0.619   0.413  0.3270 -0.0455  0.7445
    1HK4    C28   16   1.626   0.427   0.321 -0.4624 -0.3432 -0.3913
    1HK4    C27   17   1.581   0.293   0.332 -0.2049 -0.4185 -0.2413
    1HK4    H14   18   1.638   0.211   0.286 -1.1184 -0.0857 -2.0226
    1HK4    C32   19   1.478   0.267   0.421  0.2890  0.1639  0.5182
    1HK4    H16   20   1.474   0.165   0.461 -0.7619 -0.2575 -0.6285
    1HK4    C31   21   1.418   0.365   0.499  0.1275  0.1707  0.3862
    1HK4    C34   22   1.287   0.382   0.560 -0.0946  0.0717 -0.0590
    1HK4    C33   23   1.299   0.507   0.633  0.7809  0.0520 -0.1619
    1HK4    C35   24   1.183   0.552   0.694  0.7271 -0.2102 -0.0678
    1HK4    H17   25   1.192   0.608   0.788  1.5745 -1.5900  0.6848
    1HK4    C36   26   1.058   0.498   0.668  0.6603 -0.2428  0.3128
    1HK4    H18   27   0.969   0.534   0.721 -0.6517 -1.3252 -1.1155
    1HK4    C37   28   1.048   0.383   0.591  0.4669  0.1702 -0.2809
    1HK4    H19   29   0.954   0.361   0.540  0.7924  2.2633 -1.8785
    1HK4    C38   30   1.163   0.324   0.538  0.1611 -0.3825 -0.3312
    1HK4    H20   31   1.152   0.225   0.494  0.9980 -0.3958 -0.5192
    1HK4    C14   32   1.662   0.482   0.190  0.5445  0.2187  0.1181
    1HK4     C9   33   1.618   0.428   0.069  0.0297  0.5295  0.1677
    1HK4     C8   34   1.699   0.432  11.202 -0.2450  0.7156 -0.0203
    1HK4    C11   35   1.820   0.497  11.221  0.1287  0.0940 -0.2821
    1HK4     H4   36   1.903   0.477  11.152  0.6512  3.0052 -0.5406
    1HK4    C12   37   1.869   0.553   0.091  0.0789 -0.1427 -0.1474
    1HK4     H5   38   1.963   0.609   0.100  0.5664 -0.7701 -1.1355
    1HK4    C13   39   1.788   0.545   0.203 -0.1061  1.5963 -0.1488
    1HK4     H6   40   1.817   0.593   0.298 -0.0839  1.2335  0.0278
    1HK4     C7   41   1.648   0.394  11.068 -0.0239  0.5913 -0.0682
    1HK4     O2   42   1.724   0.394  10.971 -0.0817 -0.2542 -0.1110
    1HK4     C4   43   1.507   0.351  11.060  0.0987  0.1856 -0.0322
    1HK4     C3   44   1.451   0.327  10.935  0.3833  0.1397 -0.1531
    1HK4     H3   45   1.502   0.368  10.846  0.3175  0.3663 -0.0825
    1HK4     C2   46   1.329   0.262  10.921  0.5026 -0.2229  0.5082
    1HK4     H2   47   1.268   0.279  10.831  0.8558  0.5886  0.4151
    1HK4     C1   48   1.276   0.200  11.034 -0.6754  0.0108  0.0883
    1HK4     H1   49   1.182   0.145  11.016  0.0465 -0.7970 -1.3552
    1HK4     C6   50   1.330   0.214  11.163 -0.6039  0.4744  0.0086
    1HK4     C5   51   1.437   0.304  11.174 -0.0689 -0.1280 -0.2629
    1HK4    C10   52   1.480   0.373   0.051 -0.0521  1.0815 -0.9260
    1HK4     O1   53   1.393   0.424   0.120 -0.2992 -0.5555 -0.0092
    1HK4    C16   54   1.278   0.127   0.021 -0.3400  0.1939 -0.0943
    1HK4    C15   55   1.343   0.110   0.145 -0.3466 -0.2358 -0.1470
    1HK4     H7   56   1.445   0.150   0.149 -0.2114 -0.7000  1.3202
    1HK4    C20   57   1.300   0.034   0.253 -0.4320  0.6782  0.4789
    1HK4     H9   58   1.348   0.042   0.350  1.9404 -1.3498 -0.4834
    1HK4    C19   59   1.171  11.229   0.250 -0.1943  0.1003  0.2123
    1HK4    C18   60   1.110  11.228   0.119  0.1339  0.4446  0.0565
    1HK4    C17   61   1.159   0.056   0.013 -0.4649  0.4201 -0.2429
    1HK4     H8   62   1.082   0.099  11.197 -0.4891  0.2247 -0.3442
    1HK4     N1   63   0.979  11.176   0.128  0.5060 -0.5041  0.0424
    1HK4    C21   64   0.951  11.151   0.264  0.1114  0.1794  0.0903
    1HK4    C22   65   1.072  11.174   0.341 -0.0866  0.2025  0.3944
    1HK4    C26   66   1.064  11.151   0.478  0.0310 -0.1874  0.3386
    1HK4    H13   67   1.148  11.180   0.540 -0.5027  2.5310 -0.1117
    1HK4    C25   68   0.955  11.092   0.540 -0.3555  0.1220 -0.0369
    1HK4    H12   69   0.962  11.042   0.636  0.6514 -1.9231 -1.1406
    1HK4    C24   70   0.842  11.070   0.460 -0.1756 -0.6170 -0.0931
    1HK4    H11   71   0.751  11.075   0.522 -0.2046  2.0069 -0.2998
    1HK4    C23   72   0.836  11.104   0.326  0.1388  0.0824  0.0690
    1HK4    H10   73   0.749  11.084   0.264  0.7549  0.8947 -1.0826
    1HK4    C39   74   0.898  11.132   0.022 -0.1333  0.8447 -0.0493
    1HK4    C41   75   0.758  11.137   0.015 -0.1679 -0.0296 -0.0525
    1HK4    H21   76   0.697  11.206   0.075 -3.6170 -1.1477 -2.1170
    1HK4    C42   77   0.693  11.089  11.150 -0.0555  0.1210 -0.1806
    1HK4    H22   78   0.584  11.104  11.139 -0.2539 -0.6117  0.7882
    1HK4    C43   79   0.756  11.026  11.044  0.1771 -0.0351  0.0489
    1HK4    H23   80   0.703  11.003  10.952  1.6004 -0.7770 -0.6136
    1HK4    C44   81   0.893  11.005  11.054  0.1716 -0.0583  0.0729
    1HK4    H24   82   0.946  10.940  10.983  0.1604 -0.1231  0.1243
    1HK4    C45   83   0.958  11.067  11.160 -0.3203  0.7206 -0.0755
    1HK4    H25   84   1.067  11.053  11.169 -0.4330 -0.2312 -0.1364
    2HK4    H28   85  10.912   0.299   0.046  0.5786 -4.3717  0.8157
    2HK4    C48   86  11.009   0.330   0.084 -0.3035 -0.2685 -0.1031
    2HK4    C47   87  11.015   0.400   0.204  0.0625  0.3297 -0.4667
    2HK4    H27   88  10.947   0.380   0.288  0.3045  1.4832  0.0171
    2HK4    C46   89  11.129   0.468   0.245  0.6191 -0.9777  0.1971
    2HK4    H26   90  11.138   0.519   0.342 -0.4329 -0.9920  0.3031
    2HK4    C40   91  11.241   0.479   0.159  0.0846  0.0488 -0.3761
    2HK4    C50   92  11.231   0.409   0.037 -0.0050 -0.2370 -0.2059
    2HK4    H30   93   0.072   0.400  11.221 -1.8108 -1.2472 -2.6759
    2HK4    C49   94  11.120   0.333   0.001 -0.3353  0.2018 -0.1279
    2HK4    H29   95  11.138   0.261  11.168 -0.8786  1.5477 -1.4751
    2HK4     N2   96   0.114   0.525   0.213  0.1437 -0.2213 -0.2800
    2HK4    C30   97   0.210   0.585   0.129  0.2058 -0.3249 -0.2831
    2HK4    C29   98   0.189   0.669   0.020 -0.0487 -0.7091 -0.5317
    2HK4    H15   99   0.089   0.684  11.229  0.9647  3.1625 -1.8358
    2HK4    C28  100   0.296   0.703  11.186 -0.0428  0.1685 -0.1657
    2HK4    C27  101   0.427   0.676  11.233 -0.2123 -0.2902  0.0425
    2HK4    H14  102   0.508   0.726  11.177  0.0804 -0.0419  0.6955
    2HK4    C32  103   0.455   0.598   0.096  0.6075  0.3198  0.2612
    2HK4    H16  104   0.560   0.587   0.125  0.0596 -1.1253  1.7354
    2HK4    C31  105   0.346   0.558   0.172  0.2990  0.1795 -0.2568
    2HK4    C34  106   0.329   0.496   0.302  0.6260  0.2636 -0.1729
    2HK4    C33  107   0.186   0.489   0.328  0.5793 -0.3460 -0.5913
    2HK4    C35  108   0.137   0.451   0.452  0.2393 -0.0576 -0.6372
    2HK4    H17  109   0.034   0.458   0.487  0.0726  1.6490 -1.4274
    2HK4    C36  110   0.236   0.401   0.536  0.0937  0.1435 -0.3427
    2HK4    H18  111   0.199   0.380   0.637  0.4946 -1.2541 -0.4755
    2HK4    C37  112   0.374   0.395   0.516  0.2691  0.7018  0.6561
    2HK4    H19  113   0.447   0.341   0.577 -1.3584 -0.3533  1.7158
    2HK4    C38  114   0.419   0.449   0.396  0.0403 -0.5248  0.0043
    2HK4    H20  115   0.523   0.477   0.380 -0.1259  0.7289  1.0133
    2HK4    C14  116   0.277   0.743  11.046 -0.1300 -0.1560 -0.2486
    2HK4     C9  117   0.361   0.716  10.937 -0.2592 -0.1512 -0.3490
    2HK4     C8  118   0.371   0.795  10.821  0.0514 -0.0958 -0.2852
    2HK4    C11  119   0.296   0.911  10.810  0.6050  0.3533  0.6009
    2HK4     H4  120   0.323   1.003  10.757 -3.0873  0.5318 -1.1539
    2HK4    C12  121   0.198   0.928  10.908  0.3246  0.2015  0.3499
    2HK4     H5  122   0.124   1.007  10.891  0.2923 -0.1732 -1.3365
    2HK4    C13  123   0.188   0.850  11.023  0.1584  0.2103  0.3417
    2HK4     H6  124   0.109   0.867  11.098  0.7148  2.3218  0.4951
    2HK4     C7  125   0.490   0.779  10.733  0.4072  0.2953  0.1248
    2HK4     O2  126   0.486   0.823  10.618 -0.0791  0.2197  0.1106
    2HK4     C4  127   0.602   0.690  10.771  0.0987 -0.2551 -0.2406
    2HK4     C3  128   0.723   0.706  10.703 -0.0470  0.0183 -0.4410
    2HK4     H3  129   0.734   0.788  10.631 -0.3913  0.2003 -0.2879
    2HK4     C2  130   0.825   0.615  10.725 -0.3332 -0.1172  0.3476
    2HK4     H2  131   0.921   0.623  10.671 -1.4635  2.2955 -1.3519
    2HK4     C1  132   0.814   0.517  10.824  0.5307 -0.2074  0.3607
    2HK4     H1  133   0.888   0.437  10.841  0.8035  0.0909  0.5887
    2HK4     C6  134   0.693   0.505  10.894  0.2756  0.0764 -0.0299
    2HK4     C5  135   0.584   0.589  10.867 -0.0228 -0.4537 -0.4749
    2HK4    C10  136   0.453   0.599  10.937  0.0828  0.1176 -0.3631
    2HK4     O1  137   0.397   0.491  10.957 -0.0274  0.2514  0.0515
    2HK4    C16  138   0.710   0.436  11.023  0.1476 -0.0421 -0.0726
    2HK4    C15  139   0.830   0.455  11.096 -0.0160  0.0209  0.1778
    2HK4     H7  140   0.910   0.525  11.070 -0.1445  1.2305  2.8856
    2HK4    C20  141   0.847   0.380  11.212  0.3482  0.0494  0.1442
    2HK4     H9  142   0.943   0.384   0.014 -0.8365  2.8354  2.3470
    2HK4    C19  143   0.744   0.309   0.023  0.0246  0.4533  0.0742
    2HK4    C18  144   0.620   0.289  11.199  0.1943  0.1018 -0.1206
    2HK4    C17  145   0.614   0.349  11.074 -0.0945  0.2499 -0.0375
    2HK4     H8  146   0.551   0.297  11.002 -1.2096 -0.8230  1.6950
    2HK4     N1  147   0.518   0.229   0.028  0.0908  0.2052 -0.1797
    2HK4    C21  148   0.577   0.201   0.153  0.3592  0.1760 -0.3135
    2HK4    C22  149   0.718   0.236   0.146  0.5593 -0.6565 -0.4644
    2HK4    C26  150   0.795   0.207   0.258  0.0595 -0.5765 -0.0996
    2HK4    H13  151   0.886   0.266   0.266  1.3258 -2.6694  1.1224
    2HK4    C25  152   0.738   0.148   0.370 -0.9129  0.3202 -0.1088
    2HK4    H12  153   0.795   0.125   0.460 -0.8455 -1.3891 -0.5711
    2HK4    C24  154   0.603   0.115   0.375 -0.7005 -0.5573 -0.0068
    2HK4    H11  155   0.562   0.071   0.467  3.0101 -0.8773  1.5608
    2HK4    C23  156   0.522   0.142   0.266  0.2379 -0.3822 -0.6653
    2HK4    H10  157   0.414   0.134   0.280  0.0635  0.3782 -1.5016
    2HK4    C39  158   0.387   0.197  11.236  0.0512 -0.0211  0.1365
    2HK4    C41  159   0.279   0.202   0.078  0.3565 -0.3183  0.5239
    2HK4    H21  160   0.289   0.257   0.172  1.3593  0.7745 -0.2054
    2HK4    C42  161   0.157   0.142   0.045  0.1255  0.6681 -0.4430
    2HK4    H22  162   0.072   0.159   0.113  0.0761 -1.2988  0.0041
    2HK4    C43  163   0.136   0.080  11.171  0.3460 -0.1868 -0.0515
    2HK4    H23  164   0.040   0.032  11.155  1.1192 -1.9030  0.3890
    2HK4    C44  165   0.241   0.076  11.079 -0.0722  0.6637 -0.5751
    2HK4    H24  166   0.217   0.020  10.987 -0.1948 -2.5913  1.3289
    2HK4    C45  167   0.362   0.136  11.112 -0.2833  0.9175 -0.2592
    2HK4    H25  168   0.444   0.116  11.042 -0.5367  1.6399 -0.7656
    3HK4    H28  169  11.068  10.369   0.589  1.6209 -0.3660 -0.8125
    3HK4    C48  170  11.109  10.443   0.659 -0.6058 -0.3633  0.5083
    3HK4    C47  171  11.241  10.441   0.703 -0.3107 -0.2335 -0.3685
    3HK4    H27  172   0.060  10.361   0.667 -1.6350 -0.8113 -1.6112
    3HK4    C46  173   0.041  10.554   0.766 -0.3573 -0.1455 -0.4858
    3HK4    H26  174   0.144  10.554   0.807 -0.4250 -2.6593 -0.2376
    3HK4    C40  175  11.214  10.672   0.784  0.0610  0.0167  0.2368
    3HK4    C50  176  11.080  10.669   0.740 -0.1357  0.5155  0.8033
    3HK4    H30  177  11.027  10.765   0.728 -0.3459  0.1454 -1.4624
    3HK4    C49  178  11.028  10.552   0.686  0.6147  0.8498 -0.6791
    3HK4    H29  179  10.928  10.545   0.640  0.1010 -0.0625  0.5232
    3HK4     N2  180   0.022  10.795   0.820  0.2074 -0.0827  0.3497
    3HK4    C30  181   0.158  10.835   0.822  0.1641  0.0571  0.4217
    3HK4    C29  182   0.260  10.783   0.744  0.1419  0.1081  0.3585
    3HK4    H15  183   0.240  10.697   0.680 -0.7351  1.6601 -1.4762
    3HK4    C28  184   0.388  10.836   0.754  0.2339 -0.1207  0.4274
    3HK4    C27  185   0.402  10.949   0.837  0.4961  0.0412  0.1623
    3HK4    H14  186   0.489  11.013   0.814  0.6599 -0.9369 -1.9991
    3HK4    C32  187   0.305  11.005   0.919  0.5789  0.4267 -0.0006
    3HK4    H16  188   0.330  11.081   0.993  0.2406  0.8090 -0.2747
    3HK4    C31  189   0.179  10.945   0.914  0.7501  0.0419  0.3031
    3HK4    C34  190   0.049  10.974   0.970  0.5971 -0.2530  0.0977
    3HK4    C33  191  11.203  10.882   0.908  0.2556 -0.1297  0.4336
    3HK4    C35  192  11.071  10.897   0.950  0.1368 -0.3254  0.1262
    3HK4    H17  193  10.999  10.818   0.930 -1.6038  0.9756  1.1910
    3HK4    C36  194  11.029  10.999   1.033  0.3456  0.1717 -0.3714
    3HK4    H18  195  10.921  11.009   1.053  0.1038  0.1659 -1.6655
    3HK4    C37  196  11.121  11.084   1.094  0.5619 -0.4610  0.1827
    3HK4    H19  197  11.080  11.168   1.149  0.0127 -0.8337  0.3467
    3HK4    C38  198   0.008  11.069   1.063  0.5458 -0.1223 -0.0565
    3HK4    H20  199   0.080  11.121   1.125 -1.5172 -0.6387  2.9234
    3HK4    C14  200   0.507  10.752   0.735 -0.2858 -0.7617  0.0153
    3HK4     C9  201   0.625  10.759   0.809 -0.1185 -0.3481 -0.2909
    3HK4     C8  202   0.752  10.753   0.748  0.2175  0.7197  0.2758
    3HK4    C11  203   0.761  10.734   0.611 -0.0722 -0.3856  0.4039
    3HK4     H4  204   0.856  10.742   0.557 -0.5071 -1.2509 -0.5163
    3HK4    C12  205   0.644  10.719   0.536 -0.0242 -0.3099  0.3136
    3HK4     H5  206   0.647  10.697   0.429  1.6598  0.8407  0.1068
    3HK4    C13  207   0.519  10.725   0.597 -0.2319  0.0636 -0.1451
    3HK4     H6  208   0.432  10.739   0.531  0.6605 -0.2722 -1.4148
    3HK4     C7  209   0.875  10.770   0.828  0.3733 -0.3693  0.2815
    3HK4     O2  210   0.986  10.743   0.782  0.0786 -0.5819 -0.3068
    3HK4     C4  211   0.864  10.820   0.967 -0.5589  0.4969 -0.1005
    3HK4     C3  212   0.979  10.864   1.031 -0.3341 -0.1193 -0.0855
    3HK4     H3  213   1.081  10.846   0.994  1.1469  1.5932  2.9307
    3HK4     C2  214   0.970  10.941   1.147  0.5179 -0.2465  0.0652
    3HK4     H2  215   1.063  10.971   1.197  1.5276 -0.0844 -1.8458
    3HK4     C1  216   0.843  10.963   1.198  0.6185 -0.1448  0.2678
    3HK4     H1  217   0.842  11.021   1.292 -0.2422  0.4469 -0.0976
    3HK4     C6  218   0.725  10.909   1.145  0.4203  0.9424 -0.4147
    3HK4     C5  219   0.738  10.832   1.029 -0.4888 -0.0669  0.1475
    3HK4    C10  220   0.620  10.775   0.957 -0.2044 -0.0715 -0.3221
    3HK4     O1  221   0.543  10.697   1.014 -0.5179  0.2941 -0.2446
    3HK4    C16  222   0.600  10.981   1.173  0.2125  0.2548  0.4593
    3HK4    C15  223   0.600  11.122   1.173  0.0075  0.2558  0.1235
    3HK4     H7  224   0.686  11.167   1.122  0.9488 -0.6280  0.9173
    3HK4    C20  225   0.496  11.196   1.229 -0.2684 -0.1576  0.1648
    3HK4     H9  226   0.514   0.055   1.245 -0.4167 -0.4737  2.6878
    3HK4    C19  227   0.387  11.132   1.285 -0.1710 -0.4663  0.0007
    3HK4    C18  228   0.378  10.987   1.276 -0.5290 -0.4521  0.0847
    3HK4    C17  229   0.489  10.919   1.227 -0.4284  0.3146 -0.7663
    3HK4     H8  230   0.488  10.812   1.249 -0.8644  0.5162  0.2649
    3HK4     N1  231   0.277  10.936   1.360 -0.1961 -0.0722  0.7177
    3HK4    C21  232   0.224  11.049   1.427  0.3322  0.3018  0.5087
    3HK4    C22  233   0.285  11.172   1.381  0.0769  0.2293 -0.0278
    3HK4    C26  234   0.246   0.042   1.444 -0.1229  0.0506  0.1834
    3HK4    H13  235   0.301   0.135   1.437 -0.1908  0.1660  1.1996
    3HK4    C25  236   0.144   0.049   1.537 -0.1427 -0.1456  0.1763
    3HK4    H12  237   0.136   0.142   1.592  0.9603  0.2526 -0.3417
    3HK4    C24  238   0.081  11.177   1.570  0.0079 -0.2967 -0.0857
    3HK4    H11  239   0.008  11.177   1.652 -0.9301  0.9136 -0.9001
    3HK4    C23  240   0.121  11.053   1.520  0.9277 -0.5411  1.2214
    3HK4    H10  241   0.055  10.968   1.535  1.2052 -0.7427  1.2973
    3HK4    C39  242   0.213  10.814   1.339 -0.1708  0.0564 -0.1232
    3HK4    C41  243   0.215  10.751   1.213  0.5853  0.1516 -0.1581
    3HK4    H21  244   0.206  10.807   1.119  0.6813  0.6145  0.1092
    3HK4    C42  245   0.216  10.612   1.203 -0.5192  0.1216  0.0620
    3HK4    H22  246   0.248  10.568   1.108  0.1323  0.3778  0.1586
    3HK4    C43  247   0.203  10.527   1.312  0.1286  0.1272  0.1421
    3HK4    H23  248   0.180  10.422   1.296  0.7633  0.0423 -0.2559
    3HK4    C44  249   0.196  10.590   1.436  0.4432 -0.1918  0.3226
    3HK4    H24  250   0.182  10.527   1.525 -1.9093 -0.4788 -0.2327
    3HK4    C45  251   0.196  10.728   1.450  0.9481 -0.1470 -0.1023
    3HK4    H25  252   0.162  10.773   1.545  0.3054 -1.4880  0.3178
    4HK4    H28  253   1.169   0.509   0.286 -1.5114 -0.4279  0.8128
    4HK4    C48  254   1.116   0.602   0.267  0.4735  0.5156 -0.2711
    4HK4    C47  255   1.105   0.643   0.135 -0.5654 -0.1610 -0.3943
    4HK4    H27  256   1.158   0.583   0.059  0.0409  0.6708 -0.6248
    4HK4    C46  257   1.015   0.741   0.095  0.2162  0.6119 -0.2663
    4HK4    H26  258   0.997   0.761  11.236 -2.5018  2.0964  0.4195
    4HK4    C40  259   0.930   0.803   0.189  0.5227  0.3087  0.2104
    4HK4    C50  260   0.941   0.765   0.325 -0.1860  0.3058  0.2695
    4HK4    H30  261   0.860   0.786   0.396 -1.0966  0.5686 -0.8407
    4HK4    C49  262   1.035   0.668   0.359 -0.3701 -0.1554 -0.5279
    4HK4    H29  263   1.067   0.653   0.463 -2.1884  1.2390  0.2590
    4HK4     N2  264   0.874   0.926   0.155 -0.3280 -0.0852  0.1685
    4HK4    C30  265   0.759   0.979   0.216 -0.0771  0.0037  0.5664
    4HK4    C29  266   0.648   0.914   0.268 -0.3071  0.2561  0.3952
    4HK4    H15  267   0.659   0.809   0.295 -0.8655  0.0573 -0.1201
    4HK4    C28  268   0.535   0.985   0.309 -0.2862  0.2845  0.4030
    4HK4    C27  269   0.537   1.126   0.302 -0.4311  0.2493 -0.3470
    4HK4    H14  270   0.450   1.181   0.340  0.4999  0.5420  1.4166
    4HK4    C32  271   0.646   1.195   0.251  0.1988 -0.4291  0.0546
    4HK4    H16  272   0.643   1.304   0.242  1.0537 -0.4603 -0.6616
    4HK4    C31  273   0.757   1.124   0.208  0.6807  0.0127  0.5691
    4HK4    C34  274   0.879   1.161   0.137  0.0882 -0.3370 -0.6495
    4HK4    C33  275   0.942   1.036   0.098  0.2533 -0.4852  0.0795
    4HK4    C35  276   1.049   1.040   0.010  0.0869 -0.2298 -0.1117
    4HK4    H17  277   1.075   0.951  11.200  1.0617  1.4196 -2.3023
    4HK4    C36  278   1.097   1.162  11.210  0.1775  0.0393  0.6644
    4HK4    H18  279   1.171   1.169  11.129  0.7017  1.2498  1.2374
    4HK4    C37  280   1.044   1.281   0.010  0.1563  0.5244 -0.5684
    4HK4    H19  281   1.100   1.365  11.217  1.0780  0.0555 -0.2808
    4HK4    C38  282   0.935   1.281   0.096  0.6252 -0.3533  0.0316
    4HK4    H20  283   0.866   1.365   0.091  0.4101 -0.3108  2.7361
    4HK4    C14  284   0.403   0.920   0.308 -0.0873 -0.1105 -0.1280
    4HK4     C9  285   0.290   0.969   0.241 -0.0817 -0.3880 -0.3390
    4HK4     C8  286   0.159   0.948   0.289  0.1238 -0.5360  0.1593
    4HK4    C11  287   0.145   0.874   0.405 -0.8479 -0.3073  0.1856
    4HK4     H4  288   0.042   0.849   0.435 -0.8378 -0.3717  0.1676
    4HK4    C12  289   0.254   0.824   0.476 -0.2349  0.3497 -0.2935
    4HK4     H5  290   0.254   0.770   0.572  2.8748 -0.8757 -0.9554
    4HK4    C13  291   0.381   0.845   0.425 -0.1259 -0.4708 -0.3647
    4HK4     H6  292   0.467   0.815   0.487 -1.5639  0.6053  2.2491
    4HK4     C7  293   0.040   0.997   0.217  0.3897 -0.7727 -0.4533
    4HK4     O2  294  11.175   0.954   0.239  0.1075 -0.0196 -0.3860
    4HK4     C4  295   0.060   1.095   0.108 -0.0620 -0.1673 -0.0009
    4HK4     C3  296  11.199   1.174   0.074  0.1267  0.2980  0.4568
    4HK4     H3  297  11.105   1.182   0.132 -1.1686 -0.7016 -1.4487
    4HK4     C2  298  11.215   1.265  11.218 -0.3055  0.3247  0.4134
    4HK4     H2  299  11.127   1.317  11.177 -2.2747 -3.7684 -0.8620
    4HK4     C1  300   0.094   1.294  11.171 -0.1943 -0.0906  0.4465
    4HK4     H1  301   0.102   1.355  11.080 -0.4876 -1.6746 -0.6468
    4HK4     C6  302   0.209   1.224  11.213 -0.0736 -0.1051  0.0943
    4HK4     C5  303   0.189   1.118   0.054  0.0218  0.0332  0.2818
    4HK4    C10  304   0.302   1.040   0.111  0.2176  0.0708 -0.0594
    4HK4     O1  305   0.388   1.001   0.031  0.3129  0.1592 -0.0007
    4HK4    C16  306   0.336   1.294  11.190 -0.0638 -0.0494  0.3147
    4HK4    C15  307   0.346   1.430  11.229 -0.3970  0.1446 -0.2718
    4HK4     H7  308   0.262   1.473   0.037  0.0981 -0.5721  1.0342
    4HK4    C20  309   0.462   1.504  11.205 -0.5465  0.2572 -0.6548
    4HK4     H9  310   0.463   1.610  11.231 -1.2061 -0.0736  0.7967
    4HK4    C19  311   0.572   1.440  11.150 -0.1921 -0.0888  0.4406
    4HK4    C18  312   0.560   1.305  11.099  0.0641  0.0954 -0.1158
    4HK4    C17  313   0.441   1.236  11.120  0.1967  0.0776  0.5994
    4HK4     H8  314   0.432   1.138  11.074  1.7579 -0.0939  0.6335
    4HK4     N1  315   0.671   1.270  11.019 -0.0085 -0.2933 -0.0463
    4HK4    C21  316   0.744   1.391  11.012  0.0144 -0.2974  0.1162
    4HK4    C22  317   0.691   1.500  11.091 -0.1804 -0.4070  0.1384
    4HK4    C26  318   0.734   1.630  11.067  0.0434 -0.4060  0.5453
    4HK4    H13  319   0.737   1.704  11.147  2.7200  0.5665 -0.4249
    4HK4    C25  320   0.820   1.661  10.963 -0.3147 -0.0387  0.3574
    4HK4    H12  321   0.862   1.759  10.939  0.1925 -0.3567 -0.0630
    4HK4    C24  322   0.871   1.558  10.885  0.0888 -0.0099  0.5843
    4HK4    H11  323   0.954   1.577  10.814 -0.5512  0.5788 -0.0226
    4HK4    C23  324   0.835   1.427  10.914 -0.1036 -0.0662  0.0953
    4HK4    H10  325   0.901   1.353  10.869 -0.2536 -0.9720  1.3439
    4HK4    C39  326   0.720   1.140  11.001  0.5512 -0.0900  0.0199
    4HK4    C41  327   0.820   1.113  10.906  0.6655 -0.3285  0.2064
    4HK4    H21  328   0.818   1.174  10.814  1.1525  2.7920  2.1941
    4HK4    C42  329   0.891   0.993  10.912  0.8879 -0.2012  0.1388
    4HK4    H22  330   0.984   0.997  10.853  1.4788 -0.8690  1.0277
    4HK4    C43  331   0.850   0.887  10.992 -0.3402  0.4442  0.3729
    4HK4    H23  332   0.897   0.789  10.990  0.5731  0.8898 -2.5099
    4HK4    C44  333   0.741   0.904  11.077 -0.2981  0.1759  0.4759
    4HK4    H24  334   0.703   0.814  11.128  0.7303 -0.3934  0.2515
    4HK4    C45  335   0.685   1.031  11.083  0.4950  0.5129  0.8058
    4HK4    H25  336   0.620   1.046  11.171 -0.0501 -3.8704  1.2655
    5HK4    H28  337   6.431  10.822   5.501 -2.5928 -3.8958 -1.1590
    5HK4    C48  338   6.351  10.883   5.461 -0.1602  0.6132  0.4980
    5HK4    C47  339   6.219  10.867   5.502 -0.0925  0.3877  0.6307
    5HK4    H27  340   6.200  10.772   5.553 -1.7740  0.1721 -0.3451
    5HK4    C46  341   6.115  10.935   5.439  0.1518  0.3631  0.2014
    5HK4    H26  342   6.018  10.925   5.490  0.1241  0.7076  0.2189
    5HK4    C40  343   6.145  11.019   5.330 -0.3775 -0.5969 -0.6946
    5HK4    C50  344   6.278  11.032   5.286 -0.2276 -0.0715 -0.0863
    5HK4    H30  345   6.298  11.111   5.212  1.6427  0.4609  0.9400
    5HK4    C49  346   6.379  10.959   5.348 -0.1429  0.4392  0.3858
    5HK4    H29  347   6.484  10.971   5.320 -0.5144 -1.1208 -1.8818
    5HK4     N2  348   6.053  11.106   5.269 -0.8241 -0.5572  0.0263
    5HK4    C30  349   5.948  11.169   5.338 -0.4109  0.3230 -0.1474
    5HK4    C29  350   5.913  11.174   5.473 -0.3421 -0.0965 -0.1131
    5HK4    H15  351   5.992  11.132   5.534 -0.7589 -0.6661  0.0329
    5HK4    C28  352   5.800  11.241   5.519  0.1060  0.3593  0.3323
    5HK4    C27  353   5.712   0.048   5.424 -0.1877 -0.3969  0.1603
    5HK4    H14  354   5.635   0.116   5.463  2.2766  2.7720 -0.2221
    5HK4    C32  355   5.740   0.043   5.288  0.0721 -0.4768  0.2167
    5HK4    H16  356   5.667   0.087   5.221 -0.4692  0.6363  1.5085
    5HK4    C31  357   5.855  11.227   5.242 -0.0997 -0.1237 -0.7183
    5HK4    C34  358   5.905  11.188   5.112  0.5075 -0.7467 -0.3059
    5HK4    C33  359   6.032  11.121   5.130  0.8601 -0.0617 -0.1891
    5HK4    C35  360   6.090  11.053   5.023  0.1763 -0.5646 -0.2424
    5HK4    H17  361   6.182  10.996   5.029  0.5756 -0.0523 -1.4843
    5HK4    C36  362   6.027  11.061   4.899 -0.1040  0.0186 -0.0672
    5HK4    H18  363   6.069  11.013   4.810  0.5317  0.2763  0.0934
    5HK4    C37  364   5.914  11.140   4.880 -0.0609 -0.0030 -0.4155
    5HK4    H19  365   5.876  11.160   4.780  0.4056  1.0435 -0.3863
    5HK4    C38  366   5.847  11.201   4.986  0.2332 -0.1801 -0.1264
    5HK4    H20  367   5.755   0.006   4.963  2.2191  3.0287 -0.9694
    5HK4    C14  368   5.783   0.006   5.664 -0.1297 -0.0866  0.3474
    5HK4     C9  369   5.665   0.058   5.719 -0.3089 -0.1633  0.0397
    5HK4     C8  370   5.674   0.148   5.827 -0.1134 -0.8262  0.5767
    5HK4    C11  371   5.797   0.182   5.882  0.0042  0.0297 -0.2210
    5HK4     H4  372   5.793   0.260   5.960  0.6982 -1.1198  0.9756
    5HK4    C12  373   5.911   0.112   5.845  0.0252 -0.1775  0.2336
    5HK4     H5  374   6.002   0.122   5.906  1.2473 -3.0008 -1.0705
    5HK4    C13  375   5.904   0.034   5.730  0.0225  0.2871 -0.0849
    5HK4     H6  376   5.999  11.246   5.687 -0.1050  0.6151 -0.6402
    5HK4     C7  377   5.551   0.214   5.876  0.1812  0.0273  0.1715
    5HK4     O2  378   5.559   0.326   5.925  0.1579  0.1810 -0.1766
    5HK4     C4  379   5.420   0.156   5.838  0.1424  0.2101  0.0265
    5HK4     C3  380   5.305   0.211   5.893  0.1955  0.0787  0.2749
    5HK4     H3  381   5.317   0.313   5.933 -2.1139  1.1037 -1.4925
    5HK4     C2  382   5.179   0.171   5.850  0.3396 -0.0266 -0.0493
    5HK4     H2  383   5.093   0.230   5.884 -0.3358 -0.5953 -0.7698
    5HK4     C1  384   5.162   0.069   5.757  0.4766  0.3266 -0.4631
    5HK4     H1  385   5.070   0.045   5.703  0.1961 -0.5993  0.4034
    5HK4     C6  386   5.277  11.245   5.715  0.0595 -0.1416 -0.8130
    5HK4     C5  387   5.403   0.047   5.751 -0.3469  0.4636 -0.1944
    5HK4    C10  388   5.530   0.001   5.688 -0.4913  0.6208 -0.6050
    5HK4     O1  389   5.529  11.143   5.627 -0.4335  0.2854 -0.0248
    5HK4    C16  390   5.243  11.108   5.676  0.0218 -0.3845  0.0484
    5HK4    C15  391   5.151  11.026   5.743 -0.0561 -0.3919 -0.0664
    5HK4     H7  392   5.139  11.034   5.853 -0.3764  3.0314 -0.3145
    5HK4    C20  393   5.079  10.924   5.682  0.2122 -0.3940 -0.3723
    5HK4     H9  394   5.009  10.868   5.743  1.0771 -1.2050 -0.1010
    5HK4    C19  395   5.107  10.894   5.549  0.2553  0.3585 -0.5323
    5HK4    C18  396   5.205  10.970   5.474 -0.2518  0.7466 -0.8071
    5HK4    C17  397   5.264  11.076   5.542  0.1813  0.0097 -0.0198
    5HK4     H8  398   5.312  11.154   5.482  1.6452 -1.3085 -0.5867
    5HK4     N1  399   5.213  10.930   5.339  0.4995  0.0508 -0.5571
    5HK4    C21  400   5.124  10.821   5.330 -0.0362  0.4080  0.3305
    5HK4    C22  401   5.061  10.792   5.457 -0.3993  0.1020  0.0782
    5HK4    C26  402   4.986  10.676   5.475  0.4028 -0.3865  0.3148
    5HK4    H13  403   4.942  10.658   5.573 -1.8538 -0.6222 -0.7055
    5HK4    C25  404   4.966  10.582   5.374  0.2019 -0.3130  0.2838
    5HK4    H12  405   4.907  10.491   5.378  2.2347 -1.8041 -2.1397
    5HK4    C24  406   5.015  10.617   5.249  0.4610 -0.3169  0.3844
    5HK4    H11  407   4.989  10.553   5.164  0.1056 -1.4152  1.3049
    5HK4    C23  408   5.096  10.729   5.230 -0.2219  0.2168  0.5600
    5HK4    H10  409   5.147  10.736   5.134 -1.4518  1.1414 -0.0416
    5HK4    C39  410   5.336  10.934   5.273  0.5208 -0.5500 -0.5587
    5HK4    C41  411   5.342  10.926   5.132 -0.0769  0.8874 -0.6733
    5HK4    H21  412   5.247  10.914   5.077 -0.0983  0.4254 -0.5391
    5HK4    C42  413   5.462  10.935   5.063  0.0755 -0.0710 -0.5486
    5HK4    H22  414   5.466  10.903   4.958  1.3343  1.1310 -0.8793
    5HK4    C43  415   5.580  10.958   5.133  0.0038 -0.1876 -0.3894
    5HK4    H23  416   5.676  10.962   5.082  1.4550 -4.4958  1.8392
    5HK4    C44  417   5.581  10.960   5.272 -0.2669  0.1733 -0.3909
    5HK4    H24  418   5.673  10.966   5.331 -0.5795 -2.1897  0.4031
    5HK4    C45  419   5.460  10.947   5.340  0.0602  0.0629  0.1768
    5HK4    H25  420   5.477  10.926   5.446  3.4244  2.2735  0.1455
    6HK4    H28  421   9.947   7.062   1.328  0.6735  2.1006  3.3953
    6HK4    C48  422   9.859   7.014   1.371  0.0248  0.0776 -0.0178
    6HK4    C47  423   9.832   6.881   1.339  0.4852 -0.0383  0.0775
    6HK4    H27  424   9.904   6.824   1.278 -0.8008 -1.1420 -0.4164
    6HK4    C46  425   9.720   6.814   1.385  0.2406  0.3735  0.0852
    6HK4    H26  426   9.711   6.713   1.344 -0.0840  0.0089  1.0376
    6HK4    C40  427   9.627   6.868   1.477  0.0551 -0.5669  0.4523
    6HK4    C50  428   9.674   6.993   1.522 -0.2087 -0.4067  0.2826
    6HK4    H30  429   9.619   7.043   1.603  4.6670  2.5088  2.0102
    6HK4    C49  430   9.784   7.064   1.477  0.3935 -1.0228  0.7703
    6HK4    H29  431   9.808   7.165   1.515 -0.4646 -0.7002  0.4559
    6HK4     N2  432   9.489   6.847   1.465  0.0883 -0.4641 -0.1279
    6HK4    C30  433   9.422   6.784   1.358  0.1965 -0.4592 -0.1982
    6HK4    C29  434   9.470   6.728   1.240  0.4523 -0.7772  0.0540
    6HK4    H15  435   9.564   6.764   1.198  0.1132  1.5441  1.1786
    6HK4    C28  436   9.384   6.658   1.155 -0.2906  0.0234  0.1354
    6HK4    C27  437   9.249   6.646   1.192 -0.3375 -0.1612 -0.0994
    6HK4    H14  438   9.190   6.559   1.159 -0.1086 -0.2172 -0.3636
    6HK4    C32  439   9.196   6.715   1.300  0.3527  0.0866  0.0830
    6HK4    H16  440   9.090   6.714   1.327  0.9147 -0.8867  2.3449
    6HK4    C31  441   9.279   6.789   1.383  0.3236 -0.3548  0.5066
    6HK4    C34  442   9.252   6.861   1.506 -0.0106  0.1418  0.1444
    6HK4    C33  443   9.387   6.884   1.555  0.1797 -1.2495  0.3020
    6HK4    C35  444   9.395   6.917   1.689  0.6682  0.3869 -0.1214
    6HK4    H17  445   9.488   6.913   1.746  0.5959  0.5221  0.0077
    6HK4    C36  446   9.283   6.928   1.770  0.6897 -1.0267  0.1152
    6HK4    H18  447   9.301   6.959   1.874  0.9926  0.6051 -0.3987
    6HK4    C37  448   9.154   6.909   1.722  0.4442  0.3874  0.1769
    6HK4    H19  449   9.071   6.902   1.792  0.6289 -1.2438  0.2454
    6HK4    C38  450   9.141   6.875   1.588  0.0604  0.6154  0.1571
    6HK4    H20  451   9.045   6.875   1.536  0.9786 -1.9931 -1.6189
    6HK4    C14  452   9.429   6.640   1.016  0.1799  0.2794  0.2539
    6HK4     C9  453   9.344   6.637   0.906 -0.0936 -0.0285  0.4758
    6HK4     C8  454   9.368   6.550   0.797  0.2698  0.2208  0.3586
    6HK4    C11  455   9.477   6.464   0.798 -0.0292 -0.1587  0.0651
    6HK4     H4  456   9.480   6.375   0.733  1.5958 -0.8448  1.0606
    6HK4    C12  457   9.571   6.473   0.900  0.0169 -0.3853  0.0427
    6HK4     H5  458   9.662   6.412   0.900 -0.2538 -0.8000  0.5720
    6HK4    C13  459   9.549   6.567   1.000 -0.3284 -0.5311  0.1042
    6HK4     H6  460   9.631   6.584   1.071  0.6464 -1.5116 -0.7726
    6HK4     C7  461   9.303   6.572   0.666 -0.0605 -0.3937  0.4203
    6HK4     O2  462   9.311   6.488   0.577 -1.0785  0.1120 -0.1530
    6HK4     C4  463   9.196   6.674   0.655  0.2181 -0.1426  0.0218
    6HK4     C3  464   9.148   6.709   0.529  0.0562 -0.3444  0.0267
    6HK4     H3  465   9.201   6.689   0.435 -1.8276  0.3292 -1.2162
    6HK4     C2  466   9.029   6.782   0.522  0.3608  0.1508 -0.0201
    6HK4     H2  467   8.994   6.821   0.426 -2.4538 -0.9411  0.5292
    6HK4     C1  468   8.965   6.821   0.639  0.2750  0.7405 -0.2640
    6HK4     H1  469   8.891   6.901   0.627 -0.4057  0.2886  0.8900
    6HK4     C6  470   9.013   6.784   0.766 -0.5423 -0.1078 -0.1997
    6HK4     C5  471   9.141   6.729   0.772 -0.4148  0.1575 -0.4118
    6HK4    C10  472   9.233   6.735   0.890  0.0347 -0.0749 -0.7497
    6HK4     O1  473   9.240   6.842   0.950 -0.1484 -0.4030 -0.1434
    6HK4    C16  474   8.913   6.756   0.870 -0.3857  0.0599 -0.0048
    6HK4    C15  475   8.941   6.728   1.006  0.0058 -0.0064 -0.0988
    6HK4     H7  476   9.045   6.711   1.037 -0.3897 -0.6660  0.8635
    6HK4    C20  477   8.848   6.713   1.109 -0.2861 -0.8758 -0.4785
    6HK4     H9  478   8.884   6.697   1.210 -1.9561 -0.4621  0.1906
    6HK4    C19  479   8.715   6.713   1.070 -0.4735  0.2422  0.1402
    6HK4    C18  480   8.678   6.734   0.931 -0.0206  0.4584  0.0535
    6HK4    C17  481   8.778   6.752   0.836 -0.2226 -1.3586 -0.5272
    6HK4     H8  482   8.744   6.744   0.733 -2.2869  1.0349 -0.0822
    6HK4     N1  483   8.543   6.774   0.929  0.0245  0.6202  0.0780
    6HK4    C21  484   8.496   6.777   1.061 -0.1497  0.0909  0.0253
    6HK4    C22  485   8.600   6.739   1.155 -0.5633 -0.4934  0.2502
    6HK4    C26  486   8.564   6.711   1.286  0.2760 -1.2457  0.3249
    6HK4    H13  487   8.639   6.713   1.365 -0.7741  3.3917  1.3658
    6HK4    C25  488   8.431   6.714   1.325  0.1219 -0.4871 -0.2418
    6HK4    H12  489   8.399   6.684   1.425 -1.6631  1.7332 -0.1061
    6HK4    C24  490   8.332   6.756   1.237 -0.0784 -0.2476  0.0924
    6HK4    H11  491   8.225   6.751   1.260 -0.1960  0.6520 -0.2283
    6HK4    C23  492   8.364   6.786   1.105 -0.1992 -0.4690  0.0123
    6HK4    H10  493   8.296   6.824   1.028 -0.8959 -2.4123 -0.3429
    6HK4    C39  494   8.470   6.794   0.811 -0.2124  0.0007  0.1200
    6HK4    C41  495   8.362   6.884   0.806 -0.5110 -0.3726 -0.1536
    6HK4    H21  496   8.383   6.981   0.854  0.2978 -0.9774  0.7342
    6HK4    C42  497   8.245   6.862   0.734 -0.4202  0.4355 -0.5578
    6HK4    H22  498   8.159   6.930   0.738  0.2704  1.2398  2.9643
    6HK4    C43  499   8.237   6.743   0.663 -0.3227 -0.2084  0.4864
    6HK4    H23  500   8.140   6.724   0.617  0.7109 -1.3491 -1.2865
    6HK4    C44  501   8.342   6.653   0.652 -0.1372  0.0638 -0.0071
    6HK4    H24  502   8.327   6.573   0.577 -1.4013  1.2625 -1.0628
    6HK4    C45  503   8.457   6.685   0.722 -0.0617  0.2614 -0.2200
    6HK4    H25  504   8.545   6.621   0.705 -0.0838  0.0691  0.4104
    7HK4    H28  505   7.762   9.991   6.498 -0.1247 -0.3306 -2.1398
    7HK4    C48  506   7.656  10.008   6.480 -0.3328  0.1835 -0.4776
    7HK4    C47  507   7.591   9.932   6.384 -0.0597 -0.0866 -0.4488
    7HK4    H27  508   7.645   9.855   6.325  1.0368  1.0644 -0.9632
    7HK4    C46  509   7.452   9.935   6.379 -0.0727 -0.2585 -0.2350
    7HK4    H26  510   7.400   9.879   6.300  0.1883  2.4449 -2.3959
    7HK4    C40  511   7.376  10.011   6.469 -0.0143 -0.2645 -0.1805
    7HK4    C50  512   7.441  10.095   6.561  0.1410 -0.2273 -0.3242
    7HK4    H30  513   7.386  10.165   6.626 -2.3023  0.3073 -2.8891
    7HK4    C49  514   7.580  10.085   6.568  0.1483  0.0767  0.0362
    7HK4    H29  515   7.627  10.148   6.644  1.2507  2.3750 -2.4521
    7HK4     N2  516   7.241  10.037   6.439  0.0836 -0.1550 -0.5282
    7HK4    C30  517   7.148  10.072   6.539  0.1487 -0.3167 -0.4113
    7HK4    C29  518   7.142  10.031   6.672  0.3707  0.4588 -0.1623
    7HK4    H15  519   7.226   9.972   6.709  1.5790  0.5029 -2.6609
    7HK4    C28  520   7.032  10.057   6.753  0.2747  0.0907 -0.1721
    7HK4    C27  521   6.923  10.126   6.696  0.1548  0.0008 -0.0518
    7HK4    H14  522   6.826  10.143   6.744 -0.0236  1.4277 -0.9092
    7HK4    C32  523   6.927  10.169   6.564  0.1966 -0.0586 -0.0701
    7HK4    H16  524   6.849  10.220   6.508 -0.8984 -0.5901  0.9596
    7HK4    C31  525   7.040  10.152   6.484  0.0991 -0.2203 -0.1750
    7HK4    C34  526   7.065  10.153   6.341  0.0235  0.4637 -0.1834
    7HK4    C33  527   7.188  10.080   6.316 -0.1844  0.1508 -0.3049
    7HK4    C35  528   7.210  10.025   6.191  0.8677  0.6123 -0.3278
    7HK4    H17  529   7.312  10.005   6.157  0.3797  0.2416 -1.6230
    7HK4    C36  530   7.112  10.023   6.092  0.5453  0.1642  0.0004
    7HK4    H18  531   7.138   9.979   5.994  3.0904 -1.5290  1.3469
    7HK4    C37  532   6.989  10.082   6.116  0.2811 -0.3383 -0.1053
    7HK4    H19  533   6.903  10.044   6.061  0.6059 -2.3859  0.7540
    7HK4    C38  534   6.975  10.152   6.235  0.2274  0.0784 -0.3569
    7HK4    H20  535   6.889  10.219   6.241  0.4428  0.1963  2.3161
    7HK4    C14  536   7.035  10.040   6.899  0.0374 -0.8866 -0.2764
    7HK4     C9  537   6.919  10.042   6.977  0.3117  0.2734  0.1093
    7HK4     C8  538   6.924  10.100   7.106  0.0186  0.4048  0.0635
    7HK4    C11  539   7.044  10.148   7.159 -0.0590  0.6180  0.0452
    7HK4     H4  540   7.049  10.194   7.259  1.2274 -0.2845  0.4051
    7HK4    C12  541   7.158  10.131   7.082 -0.4312 -0.0427 -0.3716
    7HK4     H5  542   7.254  10.175   7.113 -1.3328  1.6064  0.1735
    7HK4    C13  543   7.160  10.077   6.954 -0.2065  0.3544 -0.5384
    7HK4     H6  544   7.253  10.031   6.918  0.2981  0.2605  0.8792
    7HK4     C7  545   6.812  10.085   7.201 -0.0951 -0.0027 -0.1374
    7HK4     O2  546   6.795  10.173   7.285 -0.2807  0.0453 -0.2271
    7HK4     C4  547   6.701   9.992   7.167  0.4148 -0.7264  0.1681
    7HK4     C3  548   6.608   9.962   7.266 -0.5530  0.0403 -0.4996
    7HK4     H3  549   6.632   9.993   7.369 -1.4646 -1.9189  0.3128
    7HK4     C2  550   6.507   9.870   7.244 -0.3030 -0.3324 -0.0855
    7HK4     H2  551   6.437   9.838   7.324  1.0174 -0.1453  1.1679
    7HK4     C1  552   6.486   9.832   7.112 -0.1957 -0.9174  0.0618
    7HK4     H1  553   6.379   9.813   7.098 -0.4158  0.4989 -0.3118
    7HK4     C6  554   6.571   9.874   7.008 -0.0308 -0.3079  0.4403
    7HK4     C5  555   6.693   9.936   7.038  0.2239 -0.6725  0.1564
    7HK4    C10  556   6.805   9.953   6.942  0.5726 -0.2713  0.6310
    7HK4     O1  557   6.809   9.874   6.848  0.2218  0.3694  0.0718
    7HK4    C16  558   6.503   9.882   6.877 -0.0525  0.3859  0.4915
    7HK4    C15  559   6.541   9.978   6.781  0.5887 -0.3462  0.0050
    7HK4     H7  560   6.626  10.041   6.812 -0.8590  1.0836  1.1526
    7HK4    C20  561   6.481   9.994   6.657  0.5074 -0.6455  0.0058
    7HK4     H9  562   6.518  10.071   6.589  0.8474  0.2166  1.1518
    7HK4    C19  563   6.376   9.911   6.620  0.1706 -0.0622 -0.3462
    7HK4    C18  564   6.338   9.807   6.714 -0.0648 -0.1320 -0.5177
    7HK4    C17  565   6.400   9.799   6.838  0.0418  0.7316 -0.5052
    7HK4     H8  566   6.364   9.735   6.919  3.9826 -0.1437  0.6293
    7HK4     N1  567   6.219   9.742   6.678  0.1464 -0.6760 -0.2320
    7HK4    C21  568   6.189   9.806   6.556  0.3082  0.1058  0.1390
    7HK4    C22  569   6.283   9.906   6.508  0.1071  0.0845 -0.3004
    7HK4    C26  570   6.271   9.981   6.392  0.2710 -0.0624 -0.4126
    7HK4    H13  571   6.363  10.010   6.340  0.5172 -0.6472 -0.3018
    7HK4    C25  572   6.159   9.956   6.314 -0.0299 -0.0162 -0.0009
    7HK4    H12  573   6.141  10.014   6.223  2.0305  1.7611  0.6822
    7HK4    C24  574   6.072   9.856   6.354  0.4008 -0.3580  0.0883
    7HK4    H11  575   5.988   9.831   6.287  1.6294  0.4327 -1.8048
    7HK4    C23  576   6.083   9.780   6.470  0.1119  0.0646  0.3933
    7HK4    H10  577   6.025   9.689   6.486 -0.5835  0.5514  0.6263
    7HK4    C39  578   6.124   9.675   6.756 -0.0275  0.0550  0.1868
    7HK4    C41  579   6.114   9.713   6.891 -0.7183  0.1820  0.1043
    7HK4    H21  580   6.094   9.819   6.910 -2.1270 -0.1110  0.3511
    7HK4    C42  581   6.072   9.618   6.983  0.1461 -0.4170 -0.1151
    7HK4    H22  582   6.069   9.648   7.089  1.6956  1.9584 -0.7235
    7HK4    C43  583   6.032   9.487   6.956 -0.5795 -0.2562  0.1849
    7HK4    H23  584   5.983   9.429   7.034 -1.4993  2.2018  1.5102
    7HK4    C44  585   6.053   9.444   6.825  0.3149 -0.0561  0.2569
    7HK4    H24  586   6.067   9.339   6.797 -0.0811  0.1900 -0.8997
    7HK4    C45  587   6.094   9.539   6.732 -1.0283  0.3023  0.0164
    7HK4    H25  588   6.059   9.509   6.632 -1.5452 -1.1104  0.6129
    8HK4    H28  589   3.057   7.335   6.232 -2.3506  1.0357  1.8072
    8HK4    C48  590   3.132   7.301   6.303 -1.1951  0.1055  0.1949
    8HK4    C47  591   3.133   7.169   6.348 -0.3699  0.1798  0.4092
    8HK4    H27  592   3.071   7.088   6.307 -0.7260  1.0704 -0.8553
    8HK4    C46  593   3.197   7.146   6.469  0.2136 -0.5563 -0.0434
    8HK4    H26  594   3.194   7.045   6.514  2.2507 -0.3041  0.7263
    8HK4    C40  595   3.246   7.243   6.558  0.1006 -0.2835 -0.2784
    8HK4    C50  596   3.248   7.375   6.509 -0.4797 -0.2229 -0.1389
    8HK4    H30  597   3.267   7.460   6.576  3.1745  0.8404 -2.4069
    8HK4    C49  598   3.194   7.396   6.383 -0.1347 -0.1838 -0.2801
    8HK4    H29  599   3.164   7.500   6.362  1.7699  0.0978 -1.7833
    8HK4     N2  600   3.233   7.232   6.697 -0.1298  0.1936 -0.2595
    8HK4    C30  601   3.142   7.143   6.758 -0.4872  0.4823 -0.3717
    8HK4    C29  602   3.022   7.085   6.718 -0.2837 -0.0409 -0.2223
    8HK4    H15  603   2.986   7.117   6.620 -0.0941  0.9271  0.0141
    8HK4    C28  604   2.960   6.982   6.788 -0.3495  0.4347  0.4261
    8HK4    C27  605   3.023   6.937   6.907 -0.2222  0.2877  0.3027
    8HK4    H14  606   2.979   6.851   6.959 -0.8815  0.2671 -0.2745
    8HK4    C32  607   3.134   7.004   6.955 -0.5480  0.8029  0.3463
    8HK4    H16  608   3.179   6.965   7.046 -0.1937 -0.0255 -0.1736
    8HK4    C31  609   3.198   7.107   6.887 -0.2794  0.0376 -0.5825
    8HK4    C34  610   3.314   7.192   6.908 -0.2195 -0.2898  0.4293
    8HK4    C33  611   3.338   7.265   6.785 -0.4556 -0.3604  0.3396
    8HK4    C35  612   3.441   7.357   6.796 -0.5451 -0.2659  0.4029
    8HK4    H17  613   3.466   7.391   6.696 -0.8702 -1.1278  0.0279
    8HK4    C36  614   3.522   7.382   6.906  0.1509 -0.3618 -0.0836
    8HK4    H18  615   3.594   7.464   6.919 -0.8722  0.6102 -0.5187
    8HK4    C37  616   3.495   7.302   7.017  0.2650 -0.2172  0.0499
    8HK4    H19  617   3.543   7.329   7.111  0.5769 -0.0855 -0.1466
    8HK4    C38  618   3.397   7.204   7.019 -0.2290  0.2850  0.3745
    8HK4    H20  619   3.374   7.153   7.113 -2.1412  2.1014  0.9403
    8HK4    C14  620   2.819   6.954   6.760 -0.2090  0.0463  0.1142
    8HK4     C9  621   2.712   6.921   6.844 -0.2975 -0.0685 -0.0432
    8HK4     C8  622   2.585   6.888   6.792 -0.2439 -0.2521 -0.0588
    8HK4    C11  623   2.557   6.903   6.657 -0.1780  0.2534 -0.0163
    8HK4     H4  624   2.457   6.899   6.612  0.1478  0.2656 -0.7631
    8HK4    C12  625   2.662   6.937   6.572  0.0269 -0.0414  0.1183
    8HK4     H5  626   2.645   6.933   6.463  0.8425  3.5015 -0.2028
    8HK4    C13  627   2.790   6.955   6.622  0.1344 -0.5739  0.0352
    8HK4     H6  628   2.872   6.970   6.549  1.0902 -2.6285  0.6522
    8HK4     C7  629   2.481   6.825   6.877 -0.1995 -0.4310 -0.1384
    8HK4     O2  630   2.364   6.838   6.842 -0.1365 -0.3873 -0.3308
    8HK4     C4  631   2.512   6.779   7.015 -0.2457  0.7619  0.2726
    8HK4     C3  632   2.421   6.709   7.093  0.2790  0.0318  0.2313
    8HK4     H3  633   2.313   6.710   7.070  0.2658 -2.8245 -0.0103
    8HK4     C2  634   2.468   6.648   7.208  0.0286 -1.1094 -0.2542
    8HK4     H2  635   2.403   6.615   7.291 -1.0834  1.7555  0.0742
    8HK4     C1  636   2.605   6.646   7.236  0.1479 -0.0935 -0.7546
    8HK4     H1  637   2.634   6.616   7.337  1.7680 -0.3464 -1.2904
    8HK4     C6  638   2.703   6.717   7.164  0.3580  0.3278 -0.0558
    8HK4     C5  639   2.645   6.790   7.058 -0.0190 -0.1554 -0.1834
    8HK4    C10  640   2.733   6.887   6.987  0.0067 -0.1161 -0.0975
    8HK4     O1  641   2.767   6.986   7.053 -0.0322 -0.1401 -0.0410
    8HK4    C16  642   2.840   6.666   7.170  0.1229 -0.2093  0.8194
    8HK4    C15  643   2.873   6.530   7.190 -0.0324 -0.3783 -0.0212
    8HK4     H7  644   2.803   6.446   7.178 -0.2527 -0.6210  2.6551
    8HK4    C20  645   3.003   6.492   7.221  0.1115 -0.1893 -0.3945
    8HK4     H9  646   3.023   6.386   7.234  1.9613 -0.0359 -1.7041
    8HK4    C19  647   3.109   6.580   7.239 -0.2363  0.0412  0.5180
    8HK4    C18  648   3.072   6.720   7.234  0.4708  0.2074 -0.1422
    8HK4    C17  649   2.944   6.755   7.194  0.0769 -0.1471  0.7835
    8HK4     H8  650   2.920   6.862   7.196  0.2837 -0.0984  0.6811
    8HK4     N1  651   3.177   6.802   7.279  0.1722  0.5045  0.0156
    8HK4    C21  652   3.280   6.712   7.315 -0.2042  0.0307 -0.0887
    8HK4    C22  653   3.245   6.574   7.289  0.2075  0.0384 -0.6815
    8HK4    C26  654   3.334   6.477   7.334 -0.0290  0.1168 -0.0392
    8HK4    H13  655   3.297   6.376   7.316 -0.4860  0.4486 -1.0109
    8HK4    C25  656   3.441   6.508   7.418 -0.2403  0.2036  0.1978
    8HK4    H12  657   3.522   6.436   7.414 -0.2027  0.2433  0.2685
    8HK4    C24  658   3.463   6.640   7.454  0.7411  0.2744 -0.6389
    8HK4    H11  659   3.527   6.667   7.539 -1.1140 -1.2350  1.2787
    8HK4    C23  660   3.383   6.742   7.403  0.1119 -0.1028 -0.4125
    8HK4    H10  661   3.389   6.837   7.457 -3.1997  0.2500 -0.5520
    8HK4    C39  662   3.154   6.934   7.320 -0.7222  0.3113  0.1474
    8HK4    C41  663   3.264   7.022   7.309 -0.1442 -0.4999 -0.6453
    8HK4    H21  664   3.362   6.981   7.280  0.7595  0.4263  1.0149
    8HK4    C42  665   3.266   7.149   7.365 -0.1594 -0.8299  0.0979
    8HK4    H22  666   3.347   7.221   7.347 -0.4047  0.0060  2.1863
    8HK4    C43  667   3.152   7.196   7.431  0.0876 -0.4743  0.2722
    8HK4    H23  668   3.148   7.285   7.494 -0.8843  0.2047 -0.7336
    8HK4    C44  669   3.037   7.118   7.435 -0.1832 -0.0431  1.0342
    8HK4    H24  670   2.946   7.170   7.466  0.2623  0.8878  0.8114
    8HK4    C45  671   3.041   6.989   7.383 -0.6682  0.2273  0.3167
    8HK4    H25  672   2.959   6.918   7.402 -1.3043  0.3033 -2.0036
    9HK4    H28  673   6.996   8.997   7.982  0.4297  1.4926  1.7680
    9HK4    C48  674   7.101   9.003   7.956 -0.0145  0.3671 -0.3686
    9HK4    C47  675   7.187   9.059   8.049  0.0813  0.2588 -0.3924
    9HK4    H27  676   7.165   9.067   8.157  0.7841 -0.1272 -0.2155
    9HK4    C46  677   7.308   9.111   8.002  0.2213  0.4225  0.1426
    9HK4    H26  678   7.363   9.169   8.078  2.8967  0.2673 -1.6505
    9HK4    C40  679   7.357   9.102   7.871 -0.1092  0.1780  0.0347
    9HK4    C50  680   7.271   9.032   7.784 -0.1590  0.2461  0.0275
    9HK4    H30  681   7.295   9.009   7.679  0.8423  2.8221 -0.3255
    9HK4    C49  682   7.146   8.987   7.825 -0.2146  0.0063 -0.3938
    9HK4    H29  683   7.072   8.950   7.752 -0.5776 -1.3033  0.6323
    9HK4     N2  684   7.485   9.151   7.842 -0.0655 -0.0585 -0.1790
    9HK4    C30  685   7.579   9.183   7.942 -0.1125 -0.0853 -0.1255
    9HK4    C29  686   7.607   9.136   8.069  0.4201 -0.0923 -0.2426
    9HK4    H15  687   7.548   9.055   8.113  0.8416  0.9960  2.3998
    9HK4    C28  688   7.729   9.157   8.133 -0.0179  0.6024  0.3741
    9HK4    C27  689   7.819   9.236   8.059 -0.0696  0.3166  0.0086
    9HK4    H14  690   7.919   9.265   8.096 -0.0307  1.4724 -0.9673
    9HK4    C32  691   7.802   9.293   7.933  0.0597 -0.2586 -0.2768
    9HK4    H16  692   7.875   9.347   7.873 -1.4305  3.0216  0.7522
    9HK4    C31  693   7.680   9.262   7.874 -0.3925  0.5665  0.2094
    9HK4    C34  694   7.644   9.282   7.735  0.5566 -0.1352 -0.1405
    9HK4    C33  695   7.520   9.209   7.718  0.0251  0.6933  0.2009
    9HK4    C35  696   7.470   9.204   7.589  0.3092  0.4097  0.1047
    9HK4    H17  697   7.367   9.182   7.561  0.7522  0.4828 -1.6758
    9HK4    C36  698   7.534   9.262   7.480 -0.1934  0.3578 -0.2193
    9HK4    H18  699   7.491   9.243   7.380  0.3480  0.2069 -0.4245
    9HK4    C37  700   7.654   9.329   7.499  0.0896 -0.2219  0.0687
    9HK4    H19  701   7.693   9.388   7.415  0.1459  0.0569  0.2913
    9HK4    C38  702   7.709   9.339   7.626  0.2827  0.3318 -0.0578
    9HK4    H20  703   7.782   9.420   7.630  0.8824 -0.1663 -0.6289
    9HK4    C14  704   7.747   9.114   8.272  0.1465 -0.1991  0.1101
    9HK4     C9  705   7.836   9.184   8.355 -0.4146  0.2940  0.2964
    9HK4     C8  706   7.906   9.113   8.454  0.2483  0.1644 -0.2665
    9HK4    C11  707   7.885   8.976   8.469  0.0354  0.1801 -0.4038
    9HK4     H4  708   7.948   8.920   8.540 -1.9535  0.0039  1.2748
    9HK4    C12  709   7.804   8.900   8.386 -0.4155  0.3194 -0.0947
    9HK4     H5  710   7.772   8.795   8.394  0.3387  0.1452  0.6558
    9HK4    C13  711   7.731   8.976   8.296 -0.6959 -0.1682 -0.2803
    9HK4     H6  712   7.656   8.925   8.233 -1.3058  2.7263 -2.0225
    9HK4     C7  713   7.977   9.189   8.559 -0.4350 -0.2851  0.5343
    9HK4     O2  714   8.060   9.136   8.633  0.2150  0.5794  0.4386
    9HK4     C4  715   7.976   9.337   8.562  0.0191 -0.2710  0.1152
    9HK4     C3  716   8.023   9.412   8.669  0.2280  0.1639 -0.2784
    9HK4     H3  717   8.053   9.354   8.758  0.8285 -0.7201 -1.0510
    9HK4     C2  718   8.030   9.551   8.671  0.3065  0.1568  0.0532
    9HK4     H2  719   8.072   9.603   8.758  1.4729  0.0173 -0.4082
    9HK4     C1  720   8.005   9.611   8.548  0.1084 -0.0075  0.0137
    9HK4     H1  721   8.032   9.717   8.538  1.7077 -0.3170  0.9666
    9HK4     C6  722   7.974   9.541   8.430  0.0603  0.1583 -0.0711
    9HK4     C5  723   7.939   9.406   8.445  0.2657  0.1405  0.2772
    9HK4    C10  724   7.850   9.332   8.351 -0.1502  0.2797  0.5648
    9HK4     O1  725   7.749   9.399   8.326 -0.1596  0.1455  0.2475
    9HK4    C16  726   8.032   9.595   8.306  0.0341 -0.4630 -0.3565
    9HK4    C15  727   8.131   9.695   8.321 -0.5153  0.0752 -0.3152
    9HK4     H7  728   8.201   9.693   8.406  0.5843  0.7062 -1.1959
    9HK4    C20  729   8.161   9.786   8.220 -0.1350  0.1902 -0.1022
    9HK4     H9  730   8.210   9.880   8.246  1.6210 -0.8502  0.4578
    9HK4    C19  731   8.101   9.776   8.095 -0.0074  0.1883 -0.1632
    9HK4    C18  732   8.001   9.672   8.080  0.0537  0.0977  0.0577
    9HK4    C17  733   7.967   9.586   8.184 -0.1608 -0.2214 -0.2714
    9HK4     H8  734   7.911   9.498   8.154 -0.2393  0.6752 -2.9430
    9HK4     N1  735   7.942   9.683   7.952 -0.2492 -0.0523  0.1833
    9HK4    C21  736   8.011   9.786   7.884  0.0668 -0.3826  0.0077
    9HK4    C22  737   8.120   9.836   7.965 -0.0891  0.2264 -0.1571
    9HK4    C26  738   8.232   9.892   7.903  0.0059 -0.1883 -0.3623
    9HK4    H13  739   8.308   9.941   7.964 -1.4072  0.0918  1.2520
    9HK4    C25  740   8.245   9.902   7.766  0.1241  0.5696 -0.2977
    9HK4    H12  741   8.349   9.923   7.740  0.4322  1.4095  1.5188
    9HK4    C24  742   8.144   9.847   7.688  0.0862 -0.2623  0.3446
    9HK4    H11  743   8.153   9.844   7.578 -0.3682  0.7623  0.2787
    9HK4    C23  744   8.027   9.800   7.746 -0.2207  0.0892  0.0215
    9HK4    H10  745   7.939   9.804   7.683  0.3847 -1.7034 -0.9712
    9HK4    C39  746   7.806   9.665   7.926 -0.1026 -0.3304 -0.3969
    9HK4    C41  747   7.752   9.652   7.796 -0.4006  0.1057 -0.3206
    9HK4    H21  748   7.814   9.607   7.717  0.8009  1.3132 -0.1049
    9HK4    C42  749   7.617   9.668   7.771 -0.5437 -0.6597 -0.0442
    9HK4    H22  750   7.580   9.635   7.672  1.3988 -2.4663 -0.2038
    9HK4    C43  751   7.531   9.704   7.874 -0.0979 -0.1257  0.1370
    9HK4    H23  752   7.423   9.703   7.862 -0.0099  1.6702 -1.0701
    9HK4    C44  753   7.583   9.704   8.003  0.4185  0.0466 -0.0696
    9HK4    H24  754   7.508   9.718   8.082 -1.4293 -1.0446 -1.5829
    9HK4    C45  755   7.717   9.684   8.034  0.5106  0.6646 -0.0631
    9HK4    H25  756   7.754   9.712   8.134 -0.9212  2.5931 -0.0299
   10HK4    H28  757   0.804   8.847   2.405 -0.4933  0.5063  0.7767
   10HK4    C48  758   0.855   8.922   2.345  0.2008 -0.2732  0.3774
   10HK4    C47  759   0.961   8.991   2.402 -0.5051  0.8076  0.4038
   10HK4    H27  760   0.986   8.975   2.508  1.4297  1.5781  0.0758
   10HK4    C46  761   1.044   9.075   2.329 -0.0011 -0.0506 -0.0244
   10HK4    H26  762   1.134   9.114   2.378  0.0749 -0.1882 -0.0552
   10HK4    C40  763   1.014   9.105   2.194  0.2090 -0.7676 -0.2315
   10HK4    C50  764   0.895   9.049   2.143 -0.2029 -0.3629  0.2865
   10HK4    H30  765   0.863   9.076   2.041  1.2618 -1.3077 -0.4360
   10HK4    C49  766   0.821   8.955   2.214 -0.1115 -0.3166  0.4464
   10HK4    H29  767   0.747   8.909   2.147 -1.7385  1.0142  1.2970
   10HK4     N2  768   1.115   9.140   2.104 -0.0020 -0.2098 -0.2520
   10HK4    C30  769   1.252   9.107   2.114  0.1229  0.3953  0.0390
   10HK4    C29  770   1.317   8.994   2.159  0.4590  0.8180  0.6263
   10HK4    H15  771   1.256   8.919   2.211 -2.9390  2.7077 -0.5099
   10HK4    C28  772   1.455   8.974   2.156  0.2857 -0.3121 -0.1616
   10HK4    C27  773   1.534   9.081   2.110 -0.1841  0.2367  0.3060
   10HK4    H14  774   1.644   9.087   2.113 -0.1367 -0.0480 -0.7151
   10HK4    C32  775   1.476   9.195   2.056  0.2331 -0.1315 -0.9497
   10HK4    H16  776   1.536   9.268   2.003 -1.9119  2.0834 -0.4558
   10HK4    C31  777   1.337   9.208   2.054  0.2441  0.1289 -0.2380
   10HK4    C34  778   1.245   9.307   2.001  0.0758  0.2817  0.3307
   10HK4    C33  779   1.111   9.260   2.030  0.1200 -0.0145  0.0564
   10HK4    C35  780   1.004   9.329   1.976  0.4119  0.7326  0.4289
   10HK4    H17  781   0.907   9.319   2.025  0.7097 -1.4262  0.5915
   10HK4    C36  782   1.028   9.440   1.895 -0.0872  0.4992 -0.0432
   10HK4    H18  783   0.934   9.491   1.870 -0.9744 -1.0162  0.1344
   10HK4    C37  784   1.156   9.481   1.858  0.0748 -0.3996 -0.4954
   10HK4    H19  785   1.170   9.577   1.809  2.1290 -1.7449 -2.6472
   10HK4    C38  786   1.264   9.415   1.915  0.0504  0.4768  0.5716
   10HK4    H20  787   1.365   9.430   1.878 -0.2318 -1.3928 -1.0015
   10HK4    C14  788   1.514   8.861   2.229  0.7490 -0.2283 -0.4030
   10HK4     C9  789   1.634   8.861   2.302 -0.3041 -0.2195  1.3488
   10HK4     C8  790   1.698   8.737   2.322  0.4572 -0.0243  0.1872
   10HK4    C11  791   1.642   8.617   2.277  0.1158  0.0572  0.3917
   10HK4     H4  792   1.713   8.536   2.255  1.1423  1.2112 -0.6408
   10HK4    C12  793   1.514   8.618   2.223  0.3220  0.3092 -0.0951
   10HK4     H5  794   1.464   8.521   2.208  0.2443  0.7712 -3.2983
   10HK4    C13  795   1.453   8.739   2.194 -0.1519  0.1013  0.0206
   10HK4     H6  796   1.363   8.734   2.131 -0.7115 -1.4315  0.9321
   10HK4     C7  797   1.835   8.730   2.377  0.4538 -0.1315  0.1825
   10HK4     O2  798   1.871   8.628   2.436  0.2891 -0.3879 -0.1578
   10HK4     C4  799   1.897   8.861   2.409 -0.0877  0.2472 -0.3159
   10HK4     C3  800   2.035   8.857   2.422 -0.1678 -0.1074  0.4467
   10HK4     H3  801   2.096   8.769   2.398 -1.7672 -0.9521 -0.5558
   10HK4     C2  802   2.100   8.974   2.461  0.5020 -0.1999 -0.3722
   10HK4     H2  803   2.208   8.972   2.481  0.5604  0.6929 -0.5466
   10HK4     C1  804   2.022   9.089   2.471  0.1228 -0.4638 -0.2874
   10HK4     H1  805   2.069   9.188   2.479  1.2931 -1.0238 -0.1992
   10HK4     C6  806   1.882   9.086   2.484  0.1383  0.6021  0.1808
   10HK4     C5  807   1.815   8.972   2.437  0.4003  0.5277 -0.0109
   10HK4    C10  808   1.676   8.978   2.384  0.2943  0.3498  0.2465
   10HK4     O1  809   1.589   9.055   2.425 -0.2833 -0.1491 -0.0334
   10HK4    C16  810   1.818   9.171   2.585 -0.5543  0.3237 -0.0215
   10HK4    C15  811   1.872   9.294   2.629  0.0301  0.1974 -0.3813
   10HK4     H7  812   1.897   9.366   2.551  1.9432  0.1169  0.1372
   10HK4    C20  813   1.853   9.347   2.756  0.6036 -0.3638 -0.0545
   10HK4     H9  814   1.888   9.449   2.770  0.2695 -0.0713 -1.2623
   10HK4    C19  815   1.775   9.281   2.851  0.4184 -0.0381  0.0224
   10HK4    C18  816   1.716   9.156   2.809  0.0263  0.1790 -0.0726
   10HK4    C17  817   1.739   9.107   2.681 -0.0045 -0.2145  0.0713
   10HK4     H8  818   1.692   9.010   2.670  0.4104 -0.2345 -1.6537
   10HK4     N1  819   1.632   9.101   2.909  0.4442 -0.4196 -0.0464
   10HK4    C21  820   1.636   9.196   3.013 -0.4182  0.1416 -0.5160
   10HK4    C22  821   1.720   9.310   2.981  0.0158 -0.0670 -0.1421
   10HK4    C26  822   1.743   9.408   3.077  0.2519 -0.5329  0.2766
   10HK4    H13  823   1.811   9.489   3.049 -0.7320 -0.2339 -1.3089
   10HK4    C25  824   1.690   9.399   3.205 -0.0466  0.0319  0.1926
   10HK4    H12  825   1.693   9.480   3.278 -0.2112 -0.0314  0.2683
   10HK4    C24  826   1.613   9.288   3.236 -0.2576  0.1580  0.1358
   10HK4    H11  827   1.563   9.282   3.334  0.3833  0.5710  0.4882
   10HK4    C23  828   1.586   9.189   3.143  0.6108  0.1488 -0.1082
   10HK4    H10  829   1.502   9.121   3.160 -0.2097  1.1906  0.0421
   10HK4    C39  830   1.534   9.003   2.891 -0.0231 -0.0002  0.2083
   10HK4    C41  831   1.485   8.942   3.009  0.0885 -0.0091  0.2495
   10HK4    H21  832   1.559   8.919   3.087  0.7079  1.6807  0.1928
   10HK4    C42  833   1.352   8.901   3.016  0.1386 -0.2023  0.0823
   10HK4    H22  834   1.323   8.851   3.110  0.6938 -0.1405  0.2876
   10HK4    C43  835   1.261   8.909   2.912  0.1109  0.0960  0.1287
   10HK4    H23  836   1.155   8.881   2.907 -0.5623  2.7764 -1.4756
   10HK4    C44  837   1.312   8.961   2.794  0.1071 -0.0841  0.0467
   10HK4    H24  838   1.237   8.973   2.714  0.1248  0.4552  0.1089
   10HK4    C45  839   1.441   9.012   2.786  0.3478 -0.7161 -0.1877
   10HK4    H25  840   1.453   9.078   2.699  0.0893  0.0485  0.3511
   11HK4    H28  841   7.960   9.818   3.199  1.3154 -1.5426 -0.8556
   11HK4    C48  842   7.872   9.798   3.138 -0.0343  0.4101  0.4089
   11HK4    C47  843   7.799   9.682   3.164 -0.1366  0.3887  0.0331
   11HK4    H27  844   7.786   9.644   3.266 -1.4547 -0.3316 -0.3850
   11HK4    C46  845   7.709   9.638   3.067  0.2824 -0.0075 -0.1763
   11HK4    H26  846   7.662   9.539   3.081  3.3106 -1.9176 -2.8841
   11HK4    C40  847   7.687   9.703   2.944 -0.4881  0.3779  0.1635
   11HK4    C50  848   7.771   9.813   2.920  0.4472 -0.3322  0.1476
   11HK4    H30  849   7.762   9.868   2.825  1.5453 -1.5762 -0.7010
   11HK4    C49  850   7.860   9.861   3.015  0.4790 -0.1947  0.0486
   11HK4    H29  851   7.899   9.963   3.004 -1.6051  0.4969 -1.2220
   11HK4     N2  852   7.587   9.649   2.862 -0.0922  0.2331 -0.2219
   11HK4    C30  853   7.594   9.641   2.722 -0.1127 -0.1322 -0.2037
   11HK4    C29  854   7.709   9.627   2.644  0.0935  0.2694  0.0243
   11HK4    H15  855   7.801   9.629   2.701 -0.7119 -1.8899  1.4917
   11HK4    C28  856   7.705   9.607   2.506  0.2166 -0.0484  0.0675
   11HK4    C27  857   7.579   9.598   2.444  0.2372  0.4514 -0.0384
   11HK4    H14  858   7.558   9.583   2.337 -1.5955  2.4104  0.0063
   11HK4    C32  859   7.464   9.614   2.521  0.1426  0.0108 -0.0903
   11HK4    H16  860   7.369   9.628   2.468 -0.3698  0.5969  0.9792
   11HK4    C31  861   7.465   9.645   2.656 -0.1163  0.3608 -0.1691
   11HK4    C34  862   7.373   9.629   2.766  0.1899  0.0096  0.0350
   11HK4    C33  863   7.451   9.620   2.888 -0.0411  0.3686  0.2091
   11HK4    C35  864   7.387   9.594   3.008  0.1313  0.4444  0.3172
   11HK4    H17  865   7.428   9.567   3.106 -0.7930  0.3257  0.6761
   11HK4    C36  866   7.253   9.557   3.006  0.2411  0.0731 -0.2837
   11HK4    H18  867   7.202   9.518   3.095 -0.4189  2.1105  0.2693
   11HK4    C37  868   7.177   9.565   2.890 -0.2931 -0.1936  0.0485
   11HK4    H19  869   7.069   9.554   2.899 -0.3367  1.8401  2.6420
   11HK4    C38  870   7.236   9.604   2.771  0.2134 -0.0778  0.3344
   11HK4    H20  871   7.166   9.623   2.689 -0.2492 -0.9493  0.5245
   11HK4    C14  872   7.827   9.626   2.426  0.2371  0.9807  0.3405
   11HK4     C9  873   7.829   9.679   2.296 -0.0380  0.0341 -0.0544
   11HK4     C8  874   7.926   9.635   2.204  0.2495  0.1971  0.1682
   11HK4    C11  875   8.029   9.550   2.242  0.0384 -0.2055 -0.1672
   11HK4     H4  876   8.109   9.515   2.175  0.7511  0.6883  0.2230
   11HK4    C12  877   8.036   9.508   2.375 -0.3054  0.2104 -0.0162
   11HK4     H5  878   8.095   9.418   2.398 -0.8355  0.0090  0.5621
   11HK4    C13  879   7.939   9.551   2.464  0.0872  0.6808  0.1894
   11HK4     H6  880   7.954   9.535   2.572 -0.2834  0.4813  0.2135
   11HK4     C7  881   7.930   9.685   2.064 -0.5301 -0.7638 -0.2027
   11HK4     O2  882   8.009   9.638   1.982 -0.4702 -0.1261 -0.5118
   11HK4     C4  883   7.822   9.776   2.022 -0.0947 -0.2442 -0.1975
   11HK4     C3  884   7.833   9.832   1.895 -0.2824  0.0679 -0.0768
   11HK4     H3  885   7.933   9.843   1.851  1.0552 -1.1682  2.5611
   11HK4     C2  886   7.720   9.898   1.847 -0.2358  0.1788 -0.0401
   11HK4     H2  887   7.717   9.936   1.744  1.5798  0.5158  0.0211
   11HK4     C1  888   7.599   9.899   1.915 -0.2237 -0.3667 -0.0056
   11HK4     H1  889   7.511   9.955   1.878 -0.7509 -1.5145 -0.5387
   11HK4     C6  890   7.586   9.841   2.043 -0.0234  0.5953  0.4538
   11HK4     C5  891   7.704   9.791   2.099  0.0069  0.0321 -0.0955
   11HK4    C10  892   7.722   9.770   2.245  0.6604  0.8614 -0.0498
   11HK4     O1  893   7.685   9.860   2.321  0.3652  0.1330  0.6746
   11HK4    C16  894   7.449   9.812   2.087 -0.1007  0.4072  0.0969
   11HK4    C15  895   7.352   9.800   1.986 -0.0803 -0.0646  0.1303
   11HK4     H7  896   7.373   9.760   1.886  1.2328 -1.3377  0.8996
   11HK4    C20  897   7.218   9.837   1.996  0.1610  0.8879 -0.1047
   11HK4     H9  898   7.148   9.823   1.914  0.6447 -0.0516 -0.3573
   11HK4    C19  899   7.177   9.869   2.125 -0.3440 -0.7672  0.1446
   11HK4    C18  900   7.269   9.872   2.237 -0.2733  0.8345  0.0500
   11HK4    C17  901   7.403   9.841   2.215 -0.4547  0.0413  0.0508
   11HK4     H8  902   7.456   9.793   2.298 -0.7048  1.4034  1.0109
   11HK4     N1  903   7.199   9.880   2.359 -0.1741 -0.0621  0.1718
   11HK4    C21  904   7.062   9.895   2.327 -0.0688 -0.0078 -0.2645
   11HK4    C22  905   7.045   9.877   2.184 -0.4708  0.7967 -0.3238
   11HK4    C26  906   6.915   9.855   2.138 -0.2402  0.2718 -0.7309
   11HK4    H13  907   6.898   9.866   2.031 -0.5177  2.0238 -0.5150
   11HK4    C25  908   6.804   9.848   2.222  0.2682  0.3787 -0.0443
   11HK4    H12  909   6.712   9.806   2.181  0.3500 -1.7417  1.8627
   11HK4    C24  910   6.818   9.883   2.356 -0.2890 -0.1042  0.1404
   11HK4    H11  911   6.733   9.887   2.425  0.4350 -1.6184  1.1622
   11HK4    C23  912   6.947   9.905   2.404 -0.1384  0.1931 -0.3955
   11HK4    H10  913   6.952   9.940   2.507  0.2248  3.0221 -1.3095
   11HK4    C39  914   7.256   9.926   2.478  0.6538  0.1116 -0.2935
   11HK4    C41  915   7.199   9.892   2.602  0.2636  0.0086 -0.5035
   11HK4    H21  916   7.111   9.826   2.599  0.2839 -0.0937  0.9950
   11HK4    C42  917   7.247   9.949   2.719  0.4675 -0.6560 -0.2638
   11HK4    H22  918   7.198   9.940   2.817 -0.1595 -0.8944 -0.6012
   11HK4    C43  919   7.339  10.053   2.709  0.2943 -0.5362 -0.6383
   11HK4    H23  920   7.382  10.073   2.807 -0.5488 -1.4202 -0.0811
   11HK4    C44  921   7.392  10.095   2.588  0.4846  0.1406 -0.3206
   11HK4    H24  922   7.453  10.187   2.586  1.3516 -0.4281 -0.4459
   11HK4    C45  923   7.357  10.024   2.474  1.1511 -0.3908 -0.1925
   11HK4    H25  924   7.409  10.047   2.380  1.2082 -1.3613 -0.4058
   12HK4    H28  925   6.338   6.234   3.176  0.2821 -0.7574 -5.5560
   12HK4    C48  926   6.433   6.284   3.190 -0.7356 -0.0979  0.1923
   12HK4    C47  927   6.522   6.286   3.084 -0.4230  0.2757  0.4569
   12HK4    H27  928   6.503   6.210   3.006  0.8558  0.8263 -0.4078
   12HK4    C46  929   6.644   6.352   3.090 -0.1813 -0.1450  0.2368
   12HK4    H26  930   6.691   6.379   2.994  1.0220 -1.0914  0.5421
   12HK4    C40  931   6.687   6.413   3.209  0.0085 -0.1659  0.1793
   12HK4    C50  932   6.603   6.394   3.320 -0.0820 -0.1069  0.1191
   12HK4    H30  933   6.645   6.407   3.421  2.6977  0.8977 -1.1447
   12HK4    C49  934   6.474   6.342   3.310 -0.2815  0.4583 -0.2322
   12HK4    H29  935   6.407   6.340   3.397  0.8089  1.3758  0.6452
   12HK4     N2  936   6.807   6.485   3.219 -0.1493  0.1280 -0.0403
   12HK4    C30  937   6.913   6.475   3.127  0.3467  0.2019  0.5198
   12HK4    C29  938   6.960   6.366   3.053  0.2454  0.4966  0.0191
   12HK4    H15  939   6.911   6.269   3.063  0.8029  0.5593  3.9852
   12HK4    C28  940   7.063   6.372   2.960  0.2369  0.6278  0.0202
   12HK4    C27  941   7.138   6.492   2.958  0.6399  0.3684 -0.3370
   12HK4    H14  942   7.232   6.493   2.900  2.2169  1.4330  2.1448
   12HK4    C32  943   7.098   6.598   3.038 -0.0536 -0.0708 -0.0917
   12HK4    H16  944   7.156   6.688   3.017  0.7078 -1.2990 -3.5914
   12HK4    C31  945   6.986   6.600   3.119  0.1131  0.3151  0.1342
   12HK4    C34  946   6.931   6.687   3.222 -0.3061  0.2060  0.0049
   12HK4    C33  947   6.818   6.614   3.275 -0.3598  0.1877 -0.1349
   12HK4    C35  948   6.746   6.663   3.384  0.0730 -0.4833  0.4672
   12HK4    H17  949   6.640   6.638   3.388 -0.6664  2.1171 -1.0146
   12HK4    C36  950   6.775   6.789   3.435 -0.1402 -0.2079 -0.0771
   12HK4    H18  951   6.705   6.835   3.507  0.7511  0.9138  0.0942
   12HK4    C37  952   6.885   6.858   3.387 -0.1829  0.0011  0.1198
   12HK4    H19  953   6.888   6.963   3.418 -2.7963 -0.1515  0.9445
   12HK4    C38  954   6.962   6.809   3.282 -0.4234  0.3472 -0.2198
   12HK4    H20  955   7.066   6.840   3.288  0.1106 -1.0525 -1.7381
   12HK4    C14  956   7.088   6.267   2.861 -0.0410  0.2561  0.3403
   12HK4     C9  957   7.202   6.260   2.780 -0.3289  0.9647 -0.1366
   12HK4     C8  958   7.192   6.227   2.643 -0.2679 -0.2522  0.1422
   12HK4    C11  959   7.069   6.194   2.586 -0.0483 -0.4171 -0.2466
   12HK4     H4  960   7.057   6.172   2.479 -1.4769 -0.5160 -0.0746
   12HK4    C12  961   6.959   6.182   2.670  0.0157 -0.3820 -0.1576
   12HK4     H5  962   6.872   6.124   2.636 -0.2855  1.1768 -2.1323
   12HK4    C13  963   6.968   6.222   2.803  0.4961 -0.6062 -0.1208
   12HK4     H6  964   6.869   6.227   2.852  1.6797  0.9632  2.1658
   12HK4     C7  965   7.305   6.255   2.552 -0.4491  0.1379  0.0349
   12HK4     O2  966   7.294   6.238   2.430  0.0444  0.2997 -0.0361
   12HK4     C4  967   7.434   6.305   2.605 -0.2345 -0.1699 -0.1932
   12HK4     C3  968   7.536   6.329   2.515  0.3115 -0.5000  0.3307
   12HK4     H3  969   7.505   6.343   2.410 -0.0916 -0.4421  0.4570
   12HK4     C2  970   7.659   6.379   2.557  0.4620 -0.6218  0.0357
   12HK4     H2  971   7.748   6.347   2.500  0.3799 -0.7780 -0.0044
   12HK4     C1  972   7.674   6.398   2.693  0.2735 -0.0939 -0.0180
   12HK4     H1  973   7.775   6.429   2.725 -0.1235 -1.1913  2.4537
   12HK4     C6  974   7.575   6.372   2.790 -0.3133  0.1821 -0.5430
   12HK4     C5  975   7.454   6.319   2.744 -0.3619 -0.0114 -0.1908
   12HK4    C10  976   7.339   6.282   2.832 -0.1675 -0.2375 -0.0322
   12HK4     O1  977   7.370   6.216   2.931 -0.5941  0.4192  0.5413
   12HK4    C16  978   7.604   6.410   2.929 -0.2016 -0.4305 -0.3945
   12HK4    C15  979   7.738   6.402   2.969 -0.2310  0.5745 -0.0748
   12HK4     H7  980   7.798   6.325   2.918  0.7921  1.9375 -0.9604
   12HK4    C20  981   7.792   6.476   3.074  0.3529  0.7885 -0.5238
   12HK4     H9  982   7.893   6.458   3.110  0.6537  0.9336 -1.2963
   12HK4    C19  983   7.705   6.558   3.144 -0.1357 -0.0714 -0.1117
   12HK4    C18  984   7.562   6.556   3.118 -0.1674 -0.6001  0.1087
   12HK4    C17  985   7.516   6.483   3.009  0.0369 -0.6051  0.0263
   12HK4     H8  986   7.410   6.481   2.985 -0.0446 -1.5843  0.4795
   12HK4     N1  987   7.493   6.612   3.228  0.3394 -0.2285  0.2394
   12HK4    C21  988   7.585   6.679   3.311  0.5489  0.2634 -0.3826
   12HK4    C22  989   7.716   6.643   3.261  0.5398 -0.3478  0.0221
   12HK4    C26  990   7.828   6.704   3.317 -0.0148  0.3636  0.3617
   12HK4    H13  991   7.930   6.673   3.292  0.0156  1.0193 -0.3458
   12HK4    C25  992   7.812   6.801   3.415  0.0449  0.2859  0.4491
   12HK4    H12  993   7.898   6.839   3.471 -1.2302  0.9075  2.0363
   12HK4    C24  994   7.686   6.849   3.451 -0.0533  0.5396 -0.2322
   12HK4    H11  995   7.678   6.932   3.522 -3.7207 -0.0897  0.1641
   12HK4    C23  996   7.574   6.784   3.400  0.2031 -0.0876 -0.0083
   12HK4    H10  997   7.471   6.809   3.424 -0.1067 -2.5128  1.3322
   12HK4    C39  998   7.371   6.560   3.274  0.1554  0.1949  0.2358
   12HK4    C41  999   7.284   6.632   3.359 -0.3011  0.4198 -0.4211
   12HK4    H21 1000   7.298   6.741   3.362 -2.1706  0.6568 -0.1864
   12HK4    C42 1001   7.187   6.574   3.439  0.4818  0.0576  0.2736
   12HK4    H22 1002   7.125   6.622   3.516 -0.0394  0.2682 -0.2771
   12HK4    C43 1003   7.169   6.436   3.433 -0.1638  0.1697 -0.4631
   12HK4    H23 1004   7.101   6.379   3.497 -0.0024 -0.5800 -0.9508
   12HK4    C44 1005   7.256   6.362   3.353  0.7023 -0.0649  0.6760
   12HK4    H24 1006   7.272   6.257   3.378  1.1030 -0.1673 -0.0036
   12HK4    C45 1007   7.351   6.421   3.270  0.5395  0.1258  0.6222
   12HK4    H25 1008   7.419   6.352   3.218 -0.3029 -0.4739  0.2935
   13HK4    H28 1009   9.576   6.668   6.801  1.6103  2.1573  0.4706
   13HK4    C48 1010   9.491   6.737   6.800 -0.2315 -0.0506 -0.4349
   13HK4    C47 1011   9.422   6.758   6.918  0.0676 -0.6102 -0.1582
   13HK4    H27 1012   9.468   6.714   7.007 -0.7759 -1.1974 -0.0004
   13HK4    C46 1013   9.308   6.838   6.924  0.5205  0.0192  0.2059
   13HK4    H26 1014   9.264   6.855   7.024 -0.7032 -1.9912  0.0546
   13HK4    C40 1015   9.274   6.911   6.809  0.3976  0.0998  0.2924
   13HK4    C50 1016   9.340   6.882   6.688  0.2638  1.0175 -0.0029
   13HK4    H30 1017   9.298   6.914   6.591  2.7474  0.3692 -1.3273
   13HK4    C49 1018   9.447   6.794   6.681 -0.0147  0.6853 -0.1668
   13HK4    H29 1019   9.493   6.771   6.583  0.1213  2.1382 -0.4603
   13HK4     N2 1020   9.150   6.976   6.800  0.2000 -0.3612 -0.4630
   13HK4    C30 1021   9.034   6.949   6.875 -0.0320  0.0757 -0.6640
   13HK4    C29 1022   8.998   6.827   6.932 -0.2488  0.4974  0.1131
   13HK4    H15 1023   9.047   6.737   6.896 -2.1917 -1.2411  1.6811
   13HK4    C28 1024   8.873   6.798   6.985 -0.1199  0.5225  0.4278
   13HK4    C27 1025   8.789   6.911   6.976 -0.5099  0.2168  0.1558
   13HK4    H14 1026   8.693   6.908   7.029  1.4298  1.1119  3.8929
   13HK4    C32 1027   8.817   7.039   6.927  0.1439  0.1424  0.3277
   13HK4    H16 1028   8.734   7.110   6.926 -1.7271 -1.9555 -0.5947
   13HK4    C31 1029   8.941   7.060   6.869 -0.0886  0.0523 -0.2043
   13HK4    C34 1030   8.996   7.162   6.782  0.4538  0.1089  0.2087
   13HK4    C33 1031   9.124   7.103   6.745  0.2361 -0.1874 -0.0801
   13HK4    C35 1032   9.187   7.170   6.641 -0.3676  0.0642 -0.2883
   13HK4    H17 1033   9.292   7.145   6.624 -0.2134 -0.5909  1.4804
   13HK4    C36 1034   9.138   7.282   6.574  0.3631  0.4312 -0.2183
   13HK4    H18 1035   9.188   7.322   6.485 -1.0371  0.0784 -1.1855
   13HK4    C37 1036   9.016   7.335   6.612  0.3047  0.0985  0.0592
   13HK4    H19 1037   8.998   7.442   6.606  0.1114  0.2449  2.4996
   13HK4    C38 1038   8.943   7.269   6.711  0.3346 -0.1385 -0.0771
   13HK4    H20 1039   8.842   7.299   6.737 -0.0652 -0.8164 -0.8317
   13HK4    C14 1040   8.833   6.659   7.013 -0.0334  0.2480 -0.7651
   13HK4     C9 1041   8.702   6.610   7.011 -0.0532  0.2693  0.0703
   13HK4     C8 1042   8.672   6.498   7.090  0.1150  0.5309  0.5096
   13HK4    C11 1043   8.772   6.423   7.150  0.4793  0.4672 -0.1680
   13HK4     H4 1044   8.758   6.320   7.185  0.4578  1.4604  2.9304
   13HK4    C12 1045   8.905   6.462   7.145  0.4589  0.5282 -0.2260
   13HK4     H5 1046   8.980   6.401   7.198 -0.7735  0.5570  1.5975
   13HK4    C13 1047   8.932   6.577   7.072 -0.0176  0.5374 -0.3864
   13HK4     H6 1048   9.036   6.611   7.071  1.4957 -3.7494  1.2528
   13HK4     C7 1049   8.533   6.449   7.103  0.4066 -0.4805 -0.1677
   13HK4     O2 1050   8.511   6.344   7.164  0.0955 -0.4730 -0.2641
   13HK4     C4 1051   8.420   6.516   7.035  0.3226 -0.9719 -0.5247
   13HK4     C3 1052   8.287   6.488   7.064  0.4147 -0.3429  0.5339
   13HK4     H3 1053   8.258   6.418   7.144 -1.9904 -1.9539 -1.6519
   13HK4     C2 1054   8.176   6.551   7.009  0.7193 -0.4147 -0.1829
   13HK4     H2 1055   8.074   6.510   7.009  1.2026 -1.6653 -1.3536
   13HK4     C1 1056   8.213   6.659   6.930  0.4008  0.1020  0.3752
   13HK4     H1 1057   8.131   6.717   6.885 -0.4830  0.2289  2.1021
   13HK4     C6 1058   8.345   6.700   6.903  0.2189  0.4007 -0.0545
   13HK4     C5 1059   8.452   6.621   6.946 -0.2858 -0.1261  0.2473
   13HK4    C10 1060   8.594   6.660   6.921 -0.2293 -0.6339 -0.2250
   13HK4     O1 1061   8.629   6.698   6.809 -0.0896 -0.3679 -0.0921
   13HK4    C16 1062   8.340   6.845   6.880  0.0220  0.4253  0.1408
   13HK4    C15 1063   8.256   6.933   6.951 -0.3560 -0.1268  0.3761
   13HK4     H7 1064   8.213   6.887   7.042  0.1281  0.7827  1.0711
   13HK4    C20 1065   8.244   7.069   6.927  0.1726 -0.2022 -0.3421
   13HK4     H9 1066   8.160   7.126   6.968  0.1332 -1.1686  0.9508
   13HK4    C19 1067   8.311   7.123   6.818 -0.1466  0.3743 -0.2581
   13HK4    C18 1068   8.387   7.031   6.735 -0.1274  0.1577  0.0005
   13HK4    C17 1069   8.407   6.898   6.770 -0.4777  0.0115 -0.3638
   13HK4     H8 1070   8.467   6.833   6.706 -2.9015 -2.5762 -0.0996
   13HK4     N1 1071   8.458   7.102   6.636  0.1316 -0.0560  0.0313
   13HK4    C21 1072   8.424   7.237   6.660  0.6675 -0.0012  0.5059
   13HK4    C22 1073   8.319   7.255   6.759 -0.1283  0.3187 -0.3833
   13HK4    C26 1074   8.275   7.384   6.787 -0.4618  0.1199  0.0036
   13HK4    H13 1075   8.189   7.396   6.853 -0.4554 -0.6089  0.1533
   13HK4    C25 1076   8.338   7.491   6.725 -0.1699 -0.2270 -0.3071
   13HK4    H12 1077   8.303   7.593   6.745 -0.7259 -0.0431 -2.1052
   13HK4    C24 1078   8.438   7.475   6.631  0.0744  0.1597 -0.1150
   13HK4    H11 1079   8.471   7.567   6.579  3.5084 -0.5242  0.7615
   13HK4    C23 1080   8.482   7.347   6.599  0.1925  0.1107  0.2514
   13HK4    H10 1081   8.582   7.334   6.557  0.7607 -2.1451  2.1840
   13HK4    C39 1082   8.563   7.053   6.557  0.0381 -0.0450 -0.0982
   13HK4    C41 1083   8.589   7.094   6.425  0.1098  0.3793  0.0451
   13HK4    H21 1084   8.509   7.139   6.365 -1.1941 -1.9597 -0.0148
   13HK4    C42 1085   8.714   7.086   6.364 -0.1655 -0.1663 -0.4544
   13HK4    H22 1086   8.741   7.148   6.277 -1.3099  1.9643  0.6666
   13HK4    C43 1087   8.818   7.026   6.433 -0.1447 -0.0080 -0.3439
   13HK4    H23 1088   8.907   6.995   6.378 -0.0014 -0.7252  0.2830
   13HK4    C44 1089   8.799   6.981   6.563  0.0565  0.3071 -0.2033
   13HK4    H24 1090   8.881   6.945   6.627  1.0675  0.3637 -1.4587
   13HK4    C45 1091   8.673   6.995   6.622  0.1952  0.4324  0.0602
   13HK4    H25 1092   8.663   6.953   6.724 -1.0114 -1.5377 -0.8436
   14HK4    H28 1093   0.304   0.364   5.764 -1.3708  1.1829 -0.1949
   14HK4    C48 1094   0.304   0.289   5.686  0.0957  0.1730  0.7562
   14HK4    C47 1095   0.193   0.265   5.605  0.8517  0.0656 -0.2664
   14HK4    H27 1096   0.102   0.326   5.612 -0.4341 -1.8574  0.1572
   14HK4    C46 1097   0.202   0.159   5.517 -0.6175 -0.1358 -0.1810
   14HK4    H26 1098   0.103   0.114   5.498 -1.8857  2.7378 -0.6132
   14HK4    C40 1099   0.318   0.081   5.495 -0.3621  0.1500  0.1617
   14HK4    C50 1100   0.425   0.108   5.583 -0.6619  0.2257  0.5084
   14HK4    H30 1101   0.521   0.057   5.564 -1.5575 -1.0460 -0.8491
   14HK4    C49 1102   0.416   0.206   5.680  0.3255  0.5115  0.3188
   14HK4    H29 1103   0.497   0.214   5.755  1.5482  0.5340 -0.9861
   14HK4     N2 1104   0.343   0.024   5.370 -0.0334  0.2916  0.1628
   14HK4    C30 1105   0.300   0.057   5.240  0.3194 -0.0998 -0.0540
   14HK4    C29 1106   0.216   0.161   5.203  0.6147  0.2330  0.2056
   14HK4    H15 1107   0.223   0.245   5.271  1.8762 -0.4676  0.9621
   14HK4    C28 1108   0.172   0.172   5.071 -0.1354  0.0272  0.4373
   14HK4    C27 1109   0.238   0.095   4.973 -0.2615 -0.3653  0.6571
   14HK4    H14 1110   0.223   0.107   4.865 -0.6457  1.1842  0.8580
   14HK4    C32 1111   0.318  11.235   5.006  0.2420 -0.1700  0.0945
   14HK4    H16 1112   0.322  11.159   4.928  1.3855  2.3801 -2.3986
   14HK4    C31 1113   0.348  11.211   5.140  0.3382 -0.2185  0.0656
   14HK4    C34 1114   0.423  11.112   5.214  0.3331 -0.1142  0.2058
   14HK4    C33 1115   0.412  11.150   5.354  0.0492  0.3515  0.0566
   14HK4    C35 1116   0.468  11.057   5.442 -0.2270  0.2064  0.0790
   14HK4    H17 1117   0.462  11.084   5.547 -1.6785  0.9311 -0.1689
   14HK4    C36 1118   0.523  10.938   5.395  0.4192  0.5650 -0.0816
   14HK4    H18 1119   0.548  10.862   5.470 -1.0100  3.0080  2.9890
   14HK4    C37 1120   0.542  10.907   5.261 -0.0554  0.0490 -0.0325
   14HK4    H19 1121   0.610  10.832   5.219 -0.7186 -0.3749 -0.3594
   14HK4    C38 1122   0.483  10.994   5.171  0.1889 -0.0177 -0.2579
   14HK4    H20 1123   0.484  10.971   5.064  0.3108  1.7862 -0.6658
   14HK4    C14 1124   0.038   0.223   5.041  0.1332  0.2408 -0.4020
   14HK4     C9 1125  11.212   0.170   4.934  0.3829  0.1029 -0.5075
   14HK4     C8 1126  11.127   0.249   4.855 -0.3105 -0.0964  0.0306
   14HK4    C11 1127  11.099   0.377   4.902  0.1631  0.1054 -0.2352
   14HK4     H4 1128  11.022   0.436   4.850  1.4380  1.8085 -0.2446
   14HK4    C12 1129  11.161   0.424   5.017  0.1035  0.2764 -0.2713
   14HK4     H5 1130  11.133   0.524   5.053 -0.5579  0.6703 -1.8212
   14HK4    C13 1131   0.006   0.351   5.091  0.0929  0.2026 -0.3283
   14HK4     H6 1132   0.068   0.408   5.161 -0.2176  1.9643 -1.4343
   14HK4     C7 1133  11.062   0.194   4.733 -0.0381 -0.0309 -0.1431
   14HK4     O2 1134  10.990   0.265   4.664 -0.6844 -0.0211  0.5342
   14HK4     C4 1135  11.088   0.054   4.693 -0.2215 -0.1640  0.1960
   14HK4     C3 1136  11.072   0.018   4.559  0.6201  0.1812 -0.0083
   14HK4     H3 1137  11.039   0.096   4.489 -1.4266  1.3163  2.1360
   14HK4     C2 1138  11.111  11.142   4.511  0.0304 -0.1853  0.4431
   14HK4     H2 1139  11.057  11.101   4.424 -0.2876  1.1307  0.0101
   14HK4     C1 1140  11.163  11.052   4.604  0.3987 -0.4319 -0.0013
   14HK4     H1 1141  11.207  10.963   4.558  1.7572  0.3440 -0.2318
   14HK4     C6 1142  11.171  11.080   4.742  0.1562 -0.0383 -0.0678
   14HK4     C5 1143  11.142  11.210   4.785  0.0175 -0.1248  0.0993
   14HK4    C10 1144  11.206   0.024   4.904  0.3478  0.0308 -0.1598
   14HK4     O1 1145  11.229  11.202   5.002  0.1290 -0.1163 -0.2143
   14HK4    C16 1146  11.214  10.963   4.819 -0.1343 -0.0677  0.0478
   14HK4    C15 1147   0.041  10.857   4.764  0.0586  0.2257 -0.2612
   14HK4     H7 1148   0.105  10.884   4.678 -0.5608 -1.4298 -1.2696
   14HK4    C20 1149   0.043  10.726   4.812  0.4123  0.1933 -0.3598
   14HK4     H9 1150   0.116  10.655   4.775 -1.8402 -1.6789 -1.3845
   14HK4    C19 1151  11.226  10.702   4.932  0.5577  0.4115 -0.2378
   14HK4    C18 1152  11.159  10.810   5.001 -0.3915 -0.0789 -0.3775
   14HK4    C17 1153  11.146  10.933   4.936 -0.0916  0.2274  0.1466
   14HK4     H8 1154  11.054  10.988   4.958  0.3867  2.0119 -2.1575
   14HK4     N1 1155  11.111  10.777   5.129  0.6221 -0.0143  0.0198
   14HK4    C21 1156  11.136  10.639   5.140 -0.4728 -0.2350 -0.2897
   14HK4    C22 1157  11.215  10.593   5.027  0.3417  0.5869 -0.0628
   14HK4    C26 1158  11.226  10.455   5.011  0.0104  0.5403  0.0820
   14HK4    H13 1159   0.033  10.427   4.922 -0.1068 -0.1647  0.2243
   14HK4    C25 1160  11.170  10.365   5.101 -0.4961  0.4157 -0.3622
   14HK4    H12 1161  11.186  10.259   5.079  1.8341  0.5317  0.5743
   14HK4    C24 1162  11.090  10.411   5.204  0.4035 -0.2217  0.6387
   14HK4    H11 1163  11.046  10.342   5.277  0.7151 -0.8162  0.2650
   14HK4    C23 1164  11.077  10.548   5.227  0.5497 -0.1771  0.4674
   14HK4    H10 1165  11.047  10.593   5.322 -1.1370  0.4566 -0.3537
   14HK4    C39 1166  11.121  10.870   5.234 -0.4784 -0.3749  0.4489
   14HK4    C41 1167  11.054  10.857   5.357  0.2040 -0.2697  0.8350
   14HK4    H21 1168  10.950  10.820   5.354 -0.0494  0.5350 -0.4698
   14HK4    C42 1169  11.102  10.892   5.482  0.1095 -0.6415  0.9788
   14HK4    H22 1170  11.046  10.896   5.577  1.1032 -0.0817  1.5605
   14HK4    C43 1171  11.229  10.949   5.487 -0.2241  0.2075 -0.1558
   14HK4    H23 1172   0.031  10.962   5.583  2.7775 -0.3848 -1.5859
   14HK4    C44 1173   0.049  10.978   5.369 -0.4756 -0.2304 -0.4089
   14HK4    H24 1174   0.135  11.046   5.375 -0.9948  0.3729  0.2524
   14HK4    C45 1175  11.241  10.943   5.247 -0.7277  0.2034 -0.4196
   14HK4    H25 1176   0.044  10.975   5.155  0.0421  1.7909  0.5338
   15HK4    H28 1177  10.930   4.682   0.285 -0.4693  1.5169  0.6469
   15HK4    C48 1178  10.832   4.645   0.315 -0.1323  0.2724  0.2390
   15HK4    C47 1179  10.802   4.606   0.445 -0.2927 -0.1252  0.0851
   15HK4    H27 1180  10.880   4.601   0.523  0.1813 -0.8757 -0.4231
   15HK4    C46 1181  10.672   4.568   0.476 -0.4221  0.1148 -0.1636
   15HK4    H26 1182  10.642   4.550   0.580 -0.4541  1.9376  0.1652
   15HK4    C40 1183  10.572   4.559   0.378 -0.1680 -0.1720 -0.3954
   15HK4    C50 1184  10.601   4.597   0.245  0.0992 -0.5122 -0.4349
   15HK4    H30 1185  10.538   4.569   0.159  0.4602 -1.1385 -0.4991
   15HK4    C49 1186  10.731   4.640   0.219 -0.0394  0.2736  0.1427
   15HK4    H29 1187  10.752   4.690   0.124  1.4645 -0.6735 -0.0469
   15HK4     N2 1188  10.454   4.487   0.403  0.0987 -0.5156 -0.1170
   15HK4    C30 1189  10.441   4.391   0.505 -0.0379  0.7192  1.0333
   15HK4    C29 1190  10.536   4.308   0.566  0.0037 -0.3569 -0.4733
   15HK4    H15 1191  10.638   4.334   0.539 -0.1916  1.2013  0.2125
   15HK4    C28 1192  10.492   4.218   0.662 -0.0717  0.1708 -0.0121
   15HK4    C27 1193  10.357   4.196   0.693 -0.1395  0.2075 -0.2639
   15HK4    H14 1194  10.329   4.104   0.747 -0.8216 -0.0146 -0.9828
   15HK4    C32 1195  10.262   4.277   0.632 -0.2990  0.2753  0.0672
   15HK4    H16 1196  10.154   4.272   0.649 -0.6475  2.8044 -1.1573
   15HK4    C31 1197  10.303   4.379   0.547 -0.3839  0.0314 -0.2713
   15HK4    C34 1198  10.232   4.473   0.462 -0.3445  0.7258  0.4566
   15HK4    C33 1199  10.327   4.540   0.375  0.2274  0.2362  0.7027
   15HK4    C35 1200  10.289   4.662   0.321 -0.2661 -0.2699 -0.1076
   15HK4    H17 1201  10.360   4.716   0.259 -1.8148  0.1821 -1.5229
   15HK4    C36 1202  10.160   4.706   0.347 -0.0684  0.1868  0.1048
   15HK4    H18 1203  10.121   4.802   0.309  1.3526  0.2334 -1.2911
   15HK4    C37 1204  10.063   4.635   0.417  0.0717 -0.2183 -0.1165
   15HK4    H19 1205   9.962   4.674   0.420  0.4531  0.6901  2.3354
   15HK4    C38 1206  10.100   4.515   0.477 -0.8798 -0.6294 -0.3392
   15HK4    H20 1207  10.028   4.445   0.519  1.0287 -3.4515 -1.5910
   15HK4    C14 1208  10.592   4.123   0.714 -0.0782  0.5382  0.6788
   15HK4     C9 1209  10.567   3.990   0.752  0.2344  0.2817  0.0020
   15HK4     C8 1210  10.639   3.933   0.859 -0.5583 -0.6136  0.0686
   15HK4    C11 1211  10.737   4.005   0.926 -0.5706  0.0195 -0.5876
   15HK4     H4 1212  10.793   3.967   1.012  0.7572 -0.9894 -1.8596
   15HK4    C12 1213  10.773   4.131   0.878  0.1216  0.0046 -0.1171
   15HK4     H5 1214  10.831   4.191   0.949 -0.2763  0.6950 -0.3776
   15HK4    C13 1215  10.705   4.185   0.769  0.2025  0.5460  0.1037
   15HK4     H6 1216  10.751   4.266   0.710  0.3403 -0.2074 -0.8413
   15HK4     C7 1217  10.630   3.787   0.882  0.0902 -0.7100 -0.2708
   15HK4     O2 1218  10.652   3.737   0.991 -0.5926  0.5259  0.4469
   15HK4     C4 1219  10.571   3.702   0.776  0.0870 -0.3752 -0.5405
   15HK4     C3 1220  10.589   3.565   0.788  0.0130 -0.3589 -0.2558
   15HK4     H3 1221  10.674   3.522   0.845  2.1792  1.6708 -1.8658
   15HK4     C2 1222  10.515   3.469   0.721  0.2950 -0.5093 -0.3534
   15HK4     H2 1223  10.529   3.360   0.719  1.1881 -0.5012  2.5327
   15HK4     C1 1224  10.413   3.526   0.645  0.4834 -0.1791 -0.3588
   15HK4     H1 1225  10.356   3.457   0.581 -1.1251  2.1777 -1.5369
   15HK4     C6 1226  10.387   3.664   0.633 -0.0554 -0.1913  0.6229
   15HK4     C5 1227  10.474   3.757   0.689  0.1775  0.1565 -0.2989
   15HK4    C10 1228  10.482   3.904   0.665 -0.0056  0.2616  0.2540
   15HK4     O1 1229  10.485   3.921   0.543 -0.2444 -0.4436  0.1451
   15HK4    C16 1230  10.244   3.691   0.610  0.1265  0.3511  0.1181
   15HK4    C15 1231  10.138   3.616   0.664  0.4654 -0.2057  0.0115
   15HK4     H7 1232  10.154   3.521   0.718 -3.1207 -0.4709  0.7282
   15HK4    C20 1233  10.003   3.647   0.647  0.3615 -0.6332  0.0378
   15HK4     H9 1234   9.926   3.608   0.713  0.0369  0.0015  0.0433
   15HK4    C19 1235   9.973   3.751   0.559 -0.1013 -0.3728  0.5027
   15HK4    C18 1236  10.080   3.820   0.491 -0.3966 -0.2468  0.1648
   15HK4    C17 1237  10.213   3.791   0.519 -0.2775 -0.1747 -0.3233
   15HK4     H8 1238  10.284   3.814   0.439 -2.0018  1.9729 -1.2927
   15HK4     N1 1239  10.024   3.917   0.405 -0.1111 -0.3334 -0.1222
   15HK4    C21 1240   9.883   3.909   0.413 -0.1274  0.0370  0.0429
   15HK4    C22 1241   9.851   3.791   0.492  0.4246 -0.5130 -0.5453
   15HK4    C26 1242   9.720   3.745   0.505  0.2870  0.0776  0.2345
   15HK4    H13 1243   9.703   3.649   0.552 -1.4775 -0.5065 -1.5199
   15HK4    C25 1244   9.614   3.818   0.453  0.1783 -0.0727  0.2457
   15HK4    H12 1245   9.509   3.790   0.462 -0.4612  1.4825 -1.9219
   15HK4    C24 1246   9.648   3.931   0.379 -0.2098  0.6957  1.2218
   15HK4    H11 1247   9.566   3.997   0.349  0.2554  1.3896  1.4723
   15HK4    C23 1248   9.777   3.977   0.355 -0.1529 -0.1559 -0.1312
   15HK4    H10 1249   9.802   4.063   0.293  2.2734 -0.3632  0.4866
   15HK4    C39 1250  10.093   4.016   0.334 -0.0399 -0.2021  0.1294
   15HK4    C41 1251  10.036   4.085   0.225 -0.1670  0.3068  0.5137
   15HK4    H21 1252   9.957   4.030   0.172 -2.0149 -0.4088  3.8874
   15HK4    C42 1253  10.108   4.177   0.148 -0.4477  0.0128 -0.0989
   15HK4    H22 1254  10.059   4.251   0.084  0.3243  0.7451  0.1571
   15HK4    C43 1255  10.242   4.201   0.174 -0.4250 -0.3870  0.1784
   15HK4    H23 1256  10.292   4.280   0.117 -1.7332 -0.9325 -1.7762
   15HK4    C44 1257  10.304   4.138   0.281 -0.1903  0.1273  0.3464
   15HK4    H24 1258  10.412   4.144   0.302  0.4827  1.6001 -3.2732
   15HK4    C45 1259  10.226   4.053   0.359 -0.2038  0.2059  0.4171
   15HK4    H25 1260  10.266   4.049   0.462  0.9869 -1.6977 -0.0797
   16HK4    H28 1261   9.123   3.311   8.360  0.7670 -0.3453 -1.5197
   16HK4    C48 1262   9.121   3.210   8.401 -0.5809  0.4118  0.3553
   16HK4    C47 1263   9.211   3.173   8.501 -0.3761  0.0539  0.0397
   16HK4    H27 1264   9.265   3.259   8.544 -4.9263  2.3410  1.5435
   16HK4    C46 1265   9.196   3.055   8.572 -0.0904  0.2199  0.3760
   16HK4    H26 1266   9.256   3.038   8.663  2.8662  0.4074 -1.4734
   16HK4    C40 1267   9.096   2.960   8.547  0.0621  0.0298  0.4856
   16HK4    C50 1268   9.012   2.993   8.438 -0.1597 -0.2932  0.5579
   16HK4    H30 1269   8.929   2.927   8.408  1.5106 -2.5729  0.8029
   16HK4    C49 1270   9.023   3.115   8.374 -0.0695 -0.2213  0.7133
   16HK4    H29 1271   8.954   3.132   8.291  3.1983 -1.6716 -2.4065
   16HK4     N2 1272   9.082   2.836   8.612 -0.0661  0.1812  0.7465
   16HK4    C30 1273   9.182   2.766   8.681  0.6182  0.2873 -0.1387
   16HK4    C29 1274   9.311   2.754   8.630  0.3940 -0.1444 -0.6168
   16HK4    H15 1275   9.356   2.847   8.593  0.9776 -0.4998 -0.8041
   16HK4    C28 1276   9.380   2.637   8.656 -0.0952 -0.2409  0.2387
   16HK4    C27 1277   9.324   2.535   8.735  0.4057 -0.1908  0.6635
   16HK4    H14 1278   9.388   2.453   8.773  0.3095 -0.3115  0.5598
   16HK4    C32 1279   9.194   2.545   8.782  0.0798  0.5093 -0.3742
   16HK4    H16 1280   9.150   2.477   8.855  0.3548  1.1438  0.3916
   16HK4    C31 1281   9.119   2.658   8.754  0.2433  0.7748  0.2510
   16HK4    C34 1282   8.975   2.676   8.747  0.0671 -0.5106  0.4360
   16HK4    C33 1283   8.957   2.787   8.656  0.1034 -0.2717  0.7161
   16HK4    C35 1284   8.826   2.828   8.636  0.2543  0.0246  0.2918
   16HK4    H17 1285   8.797   2.919   8.583  1.9314  1.9889  2.5994
   16HK4    C36 1286   8.723   2.768   8.708  0.0579  0.2601  0.2024
   16HK4    H18 1287   8.624   2.810   8.684 -0.5144  0.1601  2.2914
   16HK4    C37 1288   8.740   2.662   8.796  0.1314 -0.1679 -0.3250
   16HK4    H19 1289   8.655   2.620   8.849 -0.2004  1.3792  0.4026
   16HK4    C38 1290   8.869   2.614   8.814 -0.0230 -0.3113  0.4709
   16HK4    H20 1291   8.883   2.561   8.908  1.5649 -1.0813 -0.1737
   16HK4    C14 1292   9.508   2.606   8.590 -0.3097 -0.1113 -0.2342
   16HK4     C9 1293   9.558   2.477   8.571  0.4074  0.1617 -0.2096
   16HK4     C8 1294   9.695   2.445   8.576  0.3339 -0.0884  0.1812
   16HK4    C11 1295   9.784   2.549   8.603  0.3705 -0.0448 -0.1116
   16HK4     H4 1296   9.890   2.530   8.584  1.0334  1.5134  1.9066
   16HK4    C12 1297   9.739   2.680   8.616 -0.0154 -0.2566  0.7195
   16HK4     H5 1298   9.805   2.755   8.660  0.9167 -0.2171 -0.7275
   16HK4    C13 1299   9.604   2.709   8.599  0.1329 -0.4621 -0.9152
   16HK4     H6 1300   9.579   2.815   8.584  3.3954  0.4685 -0.0766
   16HK4     C7 1301   9.750   2.309   8.554 -0.3365 -0.3393  0.0576
   16HK4     O2 1302   9.858   2.271   8.598 -0.2076  0.2109  0.2290
   16HK4     C4 1303   9.658   2.214   8.489 -0.3889 -0.2554  0.0053
   16HK4     C3 1304   9.690   2.078   8.489 -0.2375 -0.2197  0.3168
   16HK4     H3 1305   9.770   2.040   8.553  2.7775  1.2288 -2.4539
   16HK4     C2 1306   9.607   1.993   8.416  0.2584  0.0765 -0.6033
   16HK4     H2 1307   9.624   1.884   8.413 -0.0154 -0.1644  3.3881
   16HK4     C1 1308   9.507   2.049   8.339 -0.9289 -0.5807  0.4494
   16HK4     H1 1309   9.469   1.979   8.262  0.3446 -1.2321  0.4103
   16HK4     C6 1310   9.474   2.186   8.335 -0.3550 -0.4446  0.4334
   16HK4     C5 1311   9.542   2.266   8.428  0.0889  0.2465 -0.4757
   16HK4    C10 1312   9.474   2.381   8.494  0.1993 -0.2706  0.5463
   16HK4     O1 1313   9.352   2.377   8.506  0.1657  0.3473  0.4001
   16HK4    C16 1314   9.401   2.229   8.215 -0.0086 -0.0009  0.3753
   16HK4    C15 1315   9.346   2.131   8.129  0.1985  0.0801  0.1519
   16HK4     H7 1316   9.287   2.049   8.173  0.1453  1.2117  2.2784
   16HK4    C20 1317   9.304   2.165   8.001 -0.0270 -0.0551  0.1870
   16HK4     H9 1318   9.247   2.086   7.953  2.0435 -1.1367 -0.5393
   16HK4    C19 1319   9.308   2.294   7.949 -0.0217 -0.1831 -0.1343
   16HK4    C18 1320   9.341   2.396   8.047 -0.3987  0.1204 -0.3219
   16HK4    C17 1321   9.389   2.361   8.173  0.6341 -0.3170 -0.8357
   16HK4     H8 1322   9.437   2.439   8.231  1.7074 -1.8046  0.3216
   16HK4     N1 1323   9.297   2.523   8.006  0.1323  0.3586 -0.1594
   16HK4    C21 1324   9.243   2.507   7.876  0.1952 -0.1364 -0.1251
   16HK4    C22 1325   9.248   2.367   7.839  0.0111 -0.1437 -0.1252
   16HK4    C26 1326   9.223   2.334   7.706  0.0872 -0.2357 -0.1150
   16HK4    H13 1327   9.209   2.232   7.672 -0.2436 -0.5792  1.0362
   16HK4    C25 1328   9.193   2.439   7.620  0.2478 -0.3535 -0.3156
   16HK4    H12 1329   9.163   2.418   7.518  1.4641 -1.2818 -0.4924
   16HK4    C24 1330   9.194   2.574   7.654  0.6158 -0.4324  0.0020
   16HK4    H11 1331   9.179   2.657   7.583  0.7210  0.0035  0.4896
   16HK4    C23 1332   9.215   2.609   7.786  0.5026 -0.0202 -0.0900
   16HK4    H10 1333   9.206   2.715   7.814  1.5551 -0.0450  0.3421
   16HK4    C39 1334   9.261   2.633   8.084 -0.7111  0.2302 -0.3609
   16HK4    C41 1335   9.218   2.619   8.218 -0.3935  0.0209 -0.2758
   16HK4    H21 1336   9.177   2.519   8.237 -0.9760  0.3219  0.0630
   16HK4    C42 1337   9.227   2.722   8.312 -0.5185 -0.0213 -0.2180
   16HK4    H22 1338   9.183   2.706   8.412 -2.8181 -0.2169 -1.2321
   16HK4    C43 1339   9.284   2.840   8.268  0.2262 -0.1655  0.3385
   16HK4    H23 1340   9.297   2.923   8.338  3.1454  0.5115 -0.9018
   16HK4    C44 1341   9.339   2.859   8.141  0.4872 -0.0378  0.4693
   16HK4    H24 1342   9.389   2.953   8.115 -0.9015  0.1415 -1.6992
   16HK4    C45 1343   9.319   2.757   8.049 -0.0147  0.1211  0.3956
   16HK4    H25 1344   9.374   2.766   7.954  1.4578 -3.2302  0.8350
   17HK4    H28 1345   1.133   4.706   9.416  1.7124  1.0242  0.4334
   17HK4    C48 1346   1.095   4.796   9.368 -0.2308  0.1897  0.3613
   17HK4    C47 1347   0.958   4.821   9.366 -0.1847  0.4471  0.2654
   17HK4    H27 1348   0.888   4.753   9.417  1.2748 -1.0877  0.2781
   17HK4    C46 1349   0.906   4.928   9.295 -0.0049  0.4733  0.1736
   17HK4    H26 1350   0.796   4.940   9.294 -0.2408 -1.2895  2.1199
   17HK4    C40 1351   0.985   5.017   9.220 -0.0833  0.2658 -0.1589
   17HK4    C50 1352   1.124   4.994   9.228 -0.0628  0.3830 -0.1727
   17HK4    H30 1353   1.192   5.075   9.199  0.4578 -0.5858 -1.7128
   17HK4    C49 1354   1.176   4.885   9.297 -0.5889  0.2848  0.0727
   17HK4    H29 1355   1.285   4.873   9.303 -0.7497 -1.8518 -0.7576
   17HK4     N2 1356   0.938   5.069   9.099 -0.0631 -0.2273 -0.3833
   17HK4    C30 1357   0.836   5.014   9.018  0.4821 -0.6988 -0.7498
   17HK4    C29 1358   0.767   4.894   9.025 -0.6072 -0.0195  0.3784
   17HK4    H15 1359   0.802   4.817   9.094  1.1892  3.3031  3.3025
   17HK4    C28 1360   0.669   4.857   8.934 -0.2973 -0.0874  0.0742
   17HK4    C27 1361   0.642   4.949   8.830  0.4131  0.0871  0.0402
   17HK4    H14 1362   0.579   4.940   8.741  0.2116  0.0493  0.1880
   17HK4    C32 1363   0.707   5.071   8.820  0.4785  0.0345 -0.1774
   17HK4    H16 1364   0.695   5.135   8.733  1.2339 -0.9903 -1.0488
   17HK4    C31 1365   0.800   5.111   8.916  0.1266  0.1043  0.1326
   17HK4    C34 1366   0.879   5.230   8.938 -0.1210  0.3353 -0.2212
   17HK4    C33 1367   0.964   5.200   9.052 -0.6682  0.0748  0.1195
   17HK4    C35 1368   1.043   5.302   9.102  0.1761 -0.5071 -0.0266
   17HK4    H17 1369   1.107   5.281   9.188 -1.5194 -0.6112  1.2146
   17HK4    C36 1370   1.048   5.425   9.037  0.3659 -0.7846 -0.5350
   17HK4    H18 1371   1.108   5.508   9.079 -0.3867 -2.3609  3.9338
   17HK4    C37 1372   0.966   5.458   8.930  0.1738 -0.5765 -0.3243
   17HK4    H19 1373   0.969   5.558   8.888 -0.6956  0.1204  1.2241
   17HK4    C38 1374   0.878   5.359   8.887 -1.1984  0.4524  0.0895
   17HK4    H20 1375   0.788   5.394   8.835 -0.1316  1.5330 -1.0671
   17HK4    C14 1376   0.605   4.725   8.940  0.2372 -0.3572 -0.0655
   17HK4     C9 1377   0.548   4.659   8.830  0.2993 -0.4640 -0.0324
   17HK4     C8 1378   0.441   4.568   8.846 -0.1952  0.2066  0.4960
   17HK4    C11 1379   0.398   4.545   8.976 -0.3189 -0.1791  0.3873
   17HK4     H4 1380   0.310   4.483   8.998 -0.7823  0.3795  0.1209
   17HK4    C12 1381   0.461   4.595   9.089  0.4572 -0.4810  0.0893
   17HK4     H5 1382   0.437   4.564   9.192  1.3715 -0.7856  0.2173
   17HK4    C13 1383   0.562   4.688   9.069  0.1137 -0.1371 -0.0431
   17HK4     H6 1384   0.619   4.729   9.154  1.4176 -2.3592  0.1839
   17HK4     C7 1385   0.367   4.513   8.730 -0.2805  0.4534  0.4334
   17HK4     O2 1386   0.270   4.438   8.745  0.0424 -0.2126 -0.8143
   17HK4     C4 1387   0.411   4.555   8.595  0.0635 -0.4673  0.2604
   17HK4     C3 1388   0.332   4.509   8.490  0.0620  0.2774 -0.0634
   17HK4     H3 1389   0.232   4.464   8.501  0.8720 -1.6626 -0.4847
   17HK4     C2 1390   0.364   4.539   8.358  0.7582 -0.4937 -0.0748
   17HK4     H2 1391   0.327   4.470   8.282 -0.1599  0.3762 -0.4236
   17HK4     C1 1392   0.473   4.623   8.334  0.0854  0.5127  0.3281
   17HK4     H1 1393   0.479   4.666   8.233  4.0501  1.5944  0.9496
   17HK4     C6 1394   0.558   4.667   8.437  0.0270  0.4275  0.4124
   17HK4     C5 1395   0.526   4.631   8.568 -0.3185  0.1032  0.2414
   17HK4    C10 1396   0.602   4.668   8.691  0.2216 -0.0776 -0.0369
   17HK4     O1 1397   0.724   4.664   8.678  0.2404  0.6856 -0.0720
   17HK4    C16 1398   0.691   4.702   8.385 -0.0133 -0.1064 -0.0509
   17HK4    C15 1399   0.735   4.665   8.257 -0.0058 -0.1444 -0.0388
   17HK4     H7 1400   0.717   4.559   8.231  0.3208 -0.5748  1.4404
   17HK4    C20 1401   0.806   4.748   8.171 -0.7522  0.2785 -0.2459
   17HK4     H9 1402   0.814   4.730   8.064  1.2996 -0.8458  0.0585
   17HK4    C19 1403   0.845   4.874   8.214 -0.4822  0.1765 -0.1895
   17HK4    C18 1404   0.814   4.909   8.351 -0.4046  0.3053 -0.2041
   17HK4    C17 1405   0.741   4.823   8.432  0.0893 -0.0956 -0.1849
   17HK4     H8 1406   0.741   4.853   8.537 -3.9043 -1.3291  0.2388
   17HK4     N1 1407   0.854   5.041   8.380 -0.0839  0.1821 -0.0736
   17HK4    C21 1408   0.888   5.098   8.256 -0.2900  0.1836 -0.1285
   17HK4    C22 1409   0.882   4.999   8.150  0.1425  0.0677 -0.0478
   17HK4    C26 1410   0.905   5.031   8.017 -0.5296  0.0027 -0.1798
   17HK4    H13 1411   0.880   4.957   7.941  2.2129 -0.6736 -0.4759
   17HK4    C25 1412   0.941   5.161   7.983 -0.1832  0.0444  0.3591
   17HK4    H12 1413   0.990   5.185   7.889 -0.1045  1.2537  0.7018
   17HK4    C24 1414   0.951   5.258   8.082  0.5629  0.0342  0.2946
   17HK4    H11 1415   0.981   5.362   8.060 -1.4741  0.6201  0.2074
   17HK4    C23 1416   0.929   5.225   8.216 -0.5887  0.3857  0.2038
   17HK4    H10 1417   0.938   5.303   8.291 -2.4496  0.3009  0.5278
   17HK4    C39 1418   0.896   5.070   8.510  0.5933 -0.2311 -0.1944
   17HK4    C41 1419   0.912   5.204   8.552 -0.3796 -0.3263  0.5104
   17HK4    H21 1420   0.841   5.283   8.526 -0.0761 -0.4770 -0.8209
   17HK4    C42 1421   1.005   5.243   8.647  0.3080 -0.2521 -0.1868
   17HK4    H22 1422   0.993   5.344   8.689  0.4964  0.8770 -2.7529
   17HK4    C43 1423   1.086   5.149   8.711  0.5899 -0.4539 -0.8360
   17HK4    H23 1424   1.162   5.183   8.781 -0.3015  0.1278 -0.1468
   17HK4    C44 1425   1.064   5.016   8.680  0.0131 -0.4519 -0.4334
   17HK4    H24 1426   1.120   4.937   8.733  0.3147  0.4791  0.6590
   17HK4    C45 1427   0.971   4.976   8.585 -0.3090 -0.7906  0.0156
   17HK4    H25 1428   0.960   4.869   8.566  1.3264 -0.7735 -1.0707
   18HK4    H28 1429  11.176  11.000  10.852 -0.5593 -0.4192 -0.0604
   18HK4    C48 1430   0.003  11.048  10.789 -0.2293 -1.1317 -0.2103
   18HK4    C47 1431   0.064  10.978  10.685  0.0527 -0.5271 -0.4513
   18HK4    H27 1432   0.038  10.872  10.676  1.2441 -0.7004 -1.9242
   18HK4    C46 1433   0.158  11.034  10.599  0.0389  0.4985  0.1878
   18HK4    H26 1434   0.211  10.969  10.528 -1.2788 -0.1418 -0.2387
   18HK4    C40 1435   0.179  11.173  10.594 -0.0018  0.5118  0.3649
   18HK4    C50 1436   0.106  11.243  10.693  0.7112 -0.1821  1.3902
   18HK4    H30 1437   0.118   0.105  10.695 -1.8713  0.2476 -1.8602
   18HK4    C49 1438   0.027  11.185  10.791 -0.4988 -1.0849 -0.1029
   18HK4    H29 1439  11.246  11.239  10.882  0.8115  1.9653 -1.4271
   18HK4     N2 1440   0.280  11.240  10.524  0.1332  0.6704  0.7124
   18HK4    C30 1441   0.408  11.192  10.491 -0.3063  0.0364 -0.0823
   18HK4    C29 1442   0.493  11.107  10.562 -0.1332  0.1529 -0.1473
   18HK4    H15 1443   0.456  11.015  10.606  2.2220 -0.7018  0.1041
   18HK4    C28 1444   0.630  11.109  10.537 -0.0580 -0.5928  0.1980
   18HK4    C27 1445   0.687  11.196  10.442 -0.2660  0.2870  0.8704
   18HK4    H14 1446   0.797  11.195  10.434 -0.3399 -1.8627 -0.2692
   18HK4    C32 1447   0.606   0.035  10.370 -0.1176 -0.9716 -0.8477
   18HK4    H16 1448   0.651   0.095  10.290  2.7513 -0.5293  1.0193
   18HK4    C31 1449   0.470   0.035  10.397  0.0564 -0.0575  0.0650
   18HK4    C34 1450   0.367   0.130  10.358 -0.0263 -0.0977  0.1854
   18HK4    C33 1451   0.253   0.104  10.443 -0.2978 -0.0516 -0.1624
   18HK4    C35 1452   0.140   0.182  10.421 -0.4056 -0.0936  0.2332
   18HK4    H17 1453   0.049   0.144  10.465 -0.9266  0.8735  0.0096
   18HK4    C36 1454   0.137   0.288  10.331 -0.0838  0.0626  0.4009
   18HK4    H18 1455   0.048   0.345  10.298 -0.3754 -0.4612  0.2699
   18HK4    C37 1456   0.249   0.316  10.254 -0.3899 -0.2119 -0.1475
   18HK4    H19 1457   0.256   0.412  10.202 -0.0069 -0.5178 -0.6646
   18HK4    C38 1458   0.360   0.233  10.265 -0.3408 -0.0995  0.2088
   18HK4    H20 1459   0.448   0.247  10.203 -0.5811  0.4104 -0.0268
   18HK4    C14 1460   0.708  11.041  10.642  0.1267  0.0552  0.4886
   18HK4     C9 1461   0.838  11.081  10.673  0.2817 -0.2884  0.2866
   18HK4     C8 1462   0.932  10.985  10.716  0.2006 -0.1947  0.6755
   18HK4    C11 1463   0.885  10.856  10.740 -0.2171 -0.2066 -0.1869
   18HK4     H4 1464   0.957  10.774  10.752 -2.3214 -2.3373 -1.7952
   18HK4    C12 1465   0.754  10.813  10.724 -0.3816  0.3973 -0.4760
   18HK4     H5 1466   0.727  10.713  10.759  1.7841  0.6178  1.9529
   18HK4    C13 1467   0.667  10.910  10.675 -0.8098  0.1823 -0.1532
   18HK4     H6 1468   0.568  10.902  10.722 -0.4478  2.5899  1.1088
   18HK4     C7 1469   1.074  11.023  10.731  0.3287 -0.3457 -0.1632
   18HK4     O2 1470   1.148  10.940  10.783  0.1300 -0.4625 -0.0641
   18HK4     C4 1471   1.125  11.159  10.700  0.1060 -0.3618 -0.6014
   18HK4     C3 1472   1.260  11.189  10.701 -0.0856  0.5010 -0.4843
   18HK4     H3 1473   1.336  11.121  10.742 -0.1168 -1.1490 -3.0954
   18HK4     C2 1474   1.307   0.057  10.641  0.3205  0.4462 -0.2792
   18HK4     H2 1475   1.410   0.094  10.653  1.1268 -0.6971 -3.1024
   18HK4     C1 1476   1.213   0.140  10.581 -0.2118  0.0842  0.0559
   18HK4     H1 1477   1.248   0.231  10.531 -1.2337 -0.1588 -1.1204
   18HK4     C6 1478   1.073   0.121  10.584 -0.2097  0.0738  0.0874
   18HK4     C5 1479   1.032   0.006  10.653  0.0941 -0.0126  0.1287
   18HK4    C10 1480   0.887  11.222  10.671  0.1994 -0.2569  0.5490
   18HK4     O1 1481   0.811   0.050  10.731 -0.2192  0.0070 -0.3139
   18HK4    C16 1482   0.996   0.183  10.476 -0.0577  0.0956 -0.0080
   18HK4    C15 1483   1.043   0.205  10.345 -0.3067 -0.7270 -0.2420
   18HK4     H7 1484   1.141   0.167  10.313 -1.2055 -0.7499 -3.0840
   18HK4    C20 1485   0.987   0.294  10.254 -0.0182 -0.7997 -0.4870
   18HK4     H9 1486   1.007   0.284  10.147  0.1800 -4.0261 -0.1840
   18HK4    C19 1487   0.878   0.371  10.291 -0.0438 -0.8380 -0.4856
   18HK4    C18 1488   0.821   0.349  10.423  0.1649  0.0031 -0.2487
   18HK4    C17 1489   0.884   0.259  10.508 -0.6332 -0.6164 -0.3044
   18HK4     H8 1490   0.846   0.263  10.610  1.1319  0.3981  0.3488
   18HK4     N1 1491   0.710   0.434  10.437  0.1093 -0.1051 -0.0327
   18HK4    C21 1492   0.722   0.532  10.336  0.2152  0.0180  0.1007
   18HK4    C22 1493   0.813   0.486  10.232  0.0742 -0.4306  0.1760
   18HK4    C26 1494   0.862   0.577  10.139 -0.4818 -0.1800  0.1230
   18HK4    H13 1495   0.936   0.544  10.067 -2.0128 -0.8405 -1.1924
   18HK4    C25 1496   0.829   0.711  10.151 -0.0032 -0.0432 -0.0704
   18HK4    H12 1497   0.866   0.782  10.078 -0.4992 -0.7907 -1.0596
   18HK4    C24 1498   0.745   0.753  10.255  0.3928  0.2981  0.1135
   18HK4    H11 1499   0.729   0.861  10.262  0.1587  0.1631  1.6070
   18HK4    C23 1500   0.683   0.665  10.343  0.0351 -0.0070 -0.4369
   18HK4    H10 1501   0.607   0.705  10.410 -0.7393  0.1461 -1.3943
   18HK4    C39 1502   0.589   0.403  10.500 -0.1555  0.8207 -0.0837
   18HK4    C41 1503   0.478   0.490  10.508 -0.5574  0.3475 -0.4610
   18HK4    H21 1504   0.465   0.555  10.420  2.2324 -0.7511 -1.7370
   18HK4    C42 1505   0.368   0.469  10.591 -0.1526 -0.0730 -0.0234
   18HK4    H22 1506   0.294   0.548  10.613 -0.7433 -0.1644 -1.5562
   18HK4    C43 1507   0.356   0.352  10.665  0.0301  0.1699  0.3896
   18HK4    H23 1508   0.259   0.311  10.694 -1.8391  3.9411 -0.1522
   18HK4    C44 1509   0.466   0.268  10.666 -0.2441 -0.2173 -0.8821
   18HK4    H24 1510   0.472   0.171  10.717 -1.8202  0.3137  0.3587
   18HK4    C45 1511   0.574   0.289  10.581 -0.1537  0.4472 -0.6110
   18HK4    H25 1512   0.628   0.196  10.556 -0.8414 -0.6749  2.0073
   19HK4    H28 1513  10.842   8.292  10.389 -0.6197 -1.8582  0.0379
   19HK4    C48 1514  10.915   8.286  10.469 -0.6077  0.3244  0.2133
   19HK4    C47 1515  11.031   8.210  10.454 -0.1009  1.0250  0.5155
   19HK4    H27 1516  11.058   8.155  10.363 -1.8147  0.8183  0.0958
   19HK4    C46 1517  11.133   8.221  10.547  0.1707  0.1446  0.3198
   19HK4    H26 1518  11.222   8.158  10.535  0.7947  0.4655  2.8601
   19HK4    C40 1519  11.123   8.299  10.664  0.0168 -0.2393  0.5668
   19HK4    C50 1520  11.008   8.379  10.674  0.1666  0.0897 -0.3380
   19HK4    H30 1521  10.999   8.461  10.747 -2.6425 -0.3842 -0.0724
   19HK4    C49 1522  10.909   8.376  10.575 -0.6867 -0.0306  0.5117
   19HK4    H29 1523  10.817   8.434  10.589  0.2592  1.2758  1.4944
   19HK4     N2 1524  11.228   8.300  10.757  0.4547 -0.2684  0.0716
   19HK4    C30 1525  11.206   8.330  10.893  0.1747 -0.3068  0.0357
   19HK4    C29 1526  11.099   8.292  10.972 -0.0872  0.1526 -0.0921
   19HK4    H15 1527  11.000   8.280  10.928  0.2171  1.5776 -1.1764
   19HK4    C28 1528  11.099   8.311  11.110  0.3168 -0.4112 -0.0129
   19HK4    C27 1529  11.204   8.390  11.159  0.3467 -0.5904  0.2152
   19HK4    H14 1530  11.198   8.408   0.019 -0.8160 -0.3069  0.1149
   19HK4    C32 1531   0.070   8.425  11.087  0.4275 -0.2751  0.4912
   19HK4    H16 1532   0.153   8.465  11.144  0.4476 -0.8567  0.8767
   19HK4    C31 1533   0.075   8.393  10.952 -0.1867  0.0305  0.3954
   19HK4    C34 1534   0.171   8.398  10.844 -0.4636  0.4643  0.1690
   19HK4    C33 1535   0.115   8.330  10.729  0.1344  0.8198 -0.3430
   19HK4    C35 1536   0.203   8.298  10.626 -0.0214  0.2935 -0.3089
   19HK4    H17 1537   0.168   8.239  10.541 -0.6610  0.6958 -0.3272
   19HK4    C36 1538   0.338   8.332  10.628  0.0690 -0.1098  0.5210
   19HK4    H18 1539   0.414   8.294  10.558  0.1997  3.4689 -1.3505
   19HK4    C37 1540   0.386   8.410  10.732  0.0024  0.2283  0.2973
   19HK4    H19 1541   0.475   8.470  10.711 -0.5274  1.3851  1.3046
   19HK4    C38 1542   0.303   8.441  10.840 -0.3487  0.1026  0.0653
   19HK4    H20 1543   0.346   8.500  10.921 -1.4071 -0.8836  1.3444
   19HK4    C14 1544  10.992   8.255  11.193 -0.4595  0.3668 -0.4761
   19HK4     C9 1545  10.960   8.310   0.070 -0.5143 -0.3734 -0.1582
   19HK4     C8 1546  10.928   8.237   0.186 -0.3774 -0.0973  0.0551
   19HK4    C11 1547  10.910   8.100   0.171 -0.3003 -0.0614 -0.3744
   19HK4     H4 1548  10.867   8.038   0.252  2.7103 -0.5441  0.9320
   19HK4    C12 1549  10.913   8.046   0.043 -0.1132 -0.2666 -0.2861
   19HK4     H5 1550  10.855   7.955   0.022  0.3549 -1.1006  1.9493
   19HK4    C13 1551  10.960   8.118  11.181 -0.0084  0.2093  0.0679
   19HK4     H6 1552  10.953   8.080  11.078 -0.3826  0.6924 -0.0857
   19HK4     C7 1553  10.907   8.296   0.320 -0.0182 -0.3966  0.2439
   19HK4     O2 1554  10.832   8.245   0.403 -0.2145 -0.3823  0.0763
   19HK4     C4 1555  10.940   8.440   0.332 -0.0752 -0.3626 -0.0432
   19HK4     C3 1556  10.944   8.499   0.457 -0.6310  0.0560 -0.2198
   19HK4     H3 1557  10.885   8.455   0.539  0.0596 -1.1276 -0.3450
   19HK4     C2 1558  10.994   8.628   0.470  0.8339 -0.4465 -0.6923
   19HK4     H2 1559  11.014   8.675   0.567  1.6416 -0.8555 -0.6596
   19HK4     C1 1560  11.033   8.704   0.360  0.3768  0.0481 -0.5150
   19HK4     H1 1561  11.075   8.805   0.374 -0.6927  0.0895  2.7924
   19HK4     C6 1562  11.028   8.648   0.231 -0.1651 -0.2515 -0.3694
   19HK4     C5 1563  10.968   8.523   0.221 -0.5683 -0.0904  0.0356
   19HK4    C10 1564  10.954   8.458   0.087 -0.1711 -0.3905  0.1384
   19HK4     O1 1565  10.890   8.519   0.002 -0.3432  0.0957  0.6128
   19HK4    C16 1566  11.135   8.710   0.150 -0.4816 -0.1837 -0.7330
   19HK4    C15 1567   0.009   8.754   0.206 -0.7418 -0.6694  0.2295
   19HK4     H7 1568   0.037   8.726   0.308 -1.0687  1.0235  0.8071
   19HK4    C20 1569   0.108   8.806   0.124 -0.5309 -1.1000  0.2115
   19HK4     H9 1570   0.210   8.825   0.159  0.2316 -0.6921 -2.1282
   19HK4    C19 1571   0.082   8.817  11.236 -0.3817  0.1508  0.2773
   19HK4    C18 1572  11.198   8.793  11.182 -0.0955  0.3770 -0.5254
   19HK4    C17 1573  11.101   8.740   0.019 -0.3858  0.9441 -0.5053
   19HK4     H8 1574  10.997   8.740  11.234  0.0822 -1.9998 -2.1351
   19HK4     N1 1575  11.193   8.805  11.042  0.1255 -0.1076 -0.5781
   19HK4    C21 1576   0.079   8.832  11.006  0.4188 -0.4193  0.2768
   19HK4    C22 1577   0.166   8.844  11.121  0.1629 -0.6212  0.4925
   19HK4    C26 1578   0.304   8.850  11.105  0.0225  0.0475 -0.5162
   19HK4    H13 1579   0.367   8.871  11.191 -1.6001 -1.8463  1.1735
   19HK4    C25 1580   0.360   8.856  10.978  0.1792 -0.0113 -0.4539
   19HK4    H12 1581   0.466   8.874  10.965  0.4493 -0.6369  0.8598
   19HK4    C24 1582   0.279   8.851  10.865 -0.3748  0.0933 -0.0627
   19HK4    H11 1583   0.313   8.888  10.767 -1.5051  0.6205 -0.2685
   19HK4    C23 1584   0.142   8.836  10.882 -0.3787  0.0696 -0.1139
   19HK4    H10 1585   0.083   8.857  10.793  1.5238  0.1494 -1.3836
   19HK4    C39 1586  11.076   8.820  10.966 -0.2243  0.4762  0.0748
   19HK4    C41 1587  11.057   8.764  10.838 -0.3788  0.2182  0.2060
   19HK4    H21 1588  11.112   8.673  10.812 -0.2275  0.7123 -1.2256
   19HK4    C42 1589  10.950   8.792  10.755  0.3952  0.4558 -0.7148
   19HK4    H22 1590  10.960   8.755  10.652 -1.1442  0.6291 -0.9354
   19HK4    C43 1591  10.861   8.893  10.792 -0.1812 -0.3819  0.1956
   19HK4    H23 1592  10.788   8.925  10.718 -0.2048  2.7109  1.4951
   19HK4    C44 1593  10.882   8.962  10.911 -0.5451 -0.2055  0.1614
   19HK4    H24 1594  10.814   9.035  10.957 -0.5305 -1.0849  1.6010
   19HK4    C45 1595  10.983   8.921  10.998 -0.9311 -0.3288  0.5484
   19HK4    H25 1596  10.981   8.963  11.099  0.2515 -1.0967  0.8971
   20HK4    H28 1597   6.651   2.260   6.419  0.3365 -0.9922 -1.7405
   20HK4    C48 1598   6.749   2.300   6.443 -0.2745 -0.7324  0.3749
   20HK4    C47 1599   6.859   2.282   6.360 -0.1488  0.3611  0.3009
   20HK4    H27 1600   6.848   2.251   6.255  1.6934  2.7777 -0.6638
   20HK4    C46 1601   6.980   2.342   6.395 -0.0628  0.2572  0.1781
   20HK4    H26 1602   7.065   2.306   6.335 -0.4370  0.3345 -0.4055
   20HK4    C40 1603   7.004   2.413   6.514 -0.0814  0.1324  0.2566
   20HK4    C50 1604   6.887   2.432   6.591  0.0152  0.8601  0.2250
   20HK4    H30 1605   6.890   2.483   6.688 -0.6339  2.2972 -0.4967
   20HK4    C49 1606   6.761   2.387   6.551  0.5584 -0.7991  0.3404
   20HK4    H29 1607   6.673   2.411   6.612  0.2673 -2.6538  0.6855
   20HK4     N2 1608   7.123   2.478   6.547  0.3056 -0.4640  0.0373
   20HK4    C30 1609   7.218   2.509   6.448 -0.0577 -0.0619 -0.1870
   20HK4    C29 1610   7.220   2.511   6.309 -0.3628 -0.1941 -0.1938
   20HK4    H15 1611   7.121   2.502   6.263 -0.0724  0.3772 -0.9414
   20HK4    C28 1612   7.324   2.552   6.227 -0.5424  0.5465 -0.0539
   20HK4    C27 1613   7.439   2.600   6.294 -0.3417  0.2005 -0.1477
   20HK4    H14 1614   7.511   2.664   6.241  0.5680  2.4743  3.6949
   20HK4    C32 1615   7.441   2.601   6.432 -0.1618 -0.2504 -0.1467
   20HK4    H16 1616   7.542   2.607   6.474  0.3324 -2.4971 -0.9364
   20HK4    C31 1617   7.338   2.555   6.514 -0.1709 -0.0062 -0.0199
   20HK4    C34 1618   7.314   2.548   6.657  0.2676 -0.8691  0.0129
   20HK4    C33 1619   7.178   2.499   6.675  0.1639 -0.5480  0.1124
   20HK4    C35 1620   7.138   2.450   6.799  0.3256 -0.6249  0.1347
   20HK4    H17 1621   7.038   2.408   6.811 -0.1995  0.4779 -0.2627
   20HK4    C36 1622   7.228   2.457   6.905  0.0088  0.0281  0.3621
   20HK4    H18 1623   7.199   2.434   7.009 -0.5735 -1.6070 -0.1411
   20HK4    C37 1624   7.357   2.503   6.884 -0.0559  0.2738  0.4905
   20HK4    H19 1625   7.427   2.508   6.968 -1.1810  0.1786  1.4395
   20HK4    C38 1626   7.405   2.545   6.761 -0.0623 -0.2043  0.3244
   20HK4    H20 1627   7.511   2.570   6.750 -0.7802  3.4224  1.0392
   20HK4    C14 1628   7.325   2.508   6.086  0.1987  0.3486  0.0086
   20HK4     C9 1629   7.442   2.488   6.013  0.1101 -0.5592  0.1046
   20HK4     C8 1630   7.462   2.529   5.880  0.1465 -0.4617  0.1392
   20HK4    C11 1631   7.350   2.570   5.809  0.2224  0.0342  0.3012
   20HK4     H4 1632   7.357   2.610   5.707  1.7777  1.0397  0.7973
   20HK4    C12 1633   7.224   2.571   5.870 -0.1157  0.2865 -0.3971
   20HK4     H5 1634   7.136   2.609   5.816 -0.8170 -0.0077  0.5359
   20HK4    C13 1635   7.215   2.547   6.007  0.2906 -0.3925 -0.4869
   20HK4     H6 1636   7.115   2.556   6.050 -0.2576  0.9912 -2.0015
   20HK4     C7 1637   7.597   2.548   5.822 -0.0712 -0.1935 -0.2818
   20HK4     O2 1638   7.609   2.575   5.703  0.1745 -0.5087 -0.3287
   20HK4     C4 1639   7.717   2.518   5.904  0.0385  0.1246 -0.3230
   20HK4     C3 1640   7.847   2.537   5.859  0.2203  0.4849  0.3407
   20HK4     H3 1641   7.859   2.596   5.767 -1.0734  2.0411  1.1603
   20HK4     C2 1642   7.955   2.500   5.938  0.3888 -0.2150 -0.2079
   20HK4     H2 1643   8.056   2.500   5.894 -0.3015  0.0708 -1.8249
   20HK4     C1 1644   7.937   2.460   6.070  0.0987 -0.9110 -0.4567
   20HK4     H1 1645   8.026   2.431   6.128  1.5541 -0.2668 -2.3349
   20HK4     C6 1646   7.807   2.445   6.123  0.1851 -0.0256  0.0103
   20HK4     C5 1647   7.701   2.470   6.036  0.4257  0.5426 -0.1238
   20HK4    C10 1648   7.563   2.434   6.081  0.5406  0.3119  0.0405
   20HK4     O1 1649   7.550   2.327   6.141  0.1927  0.3393  0.0111
   20HK4    C16 1650   7.795   2.457   6.269 -0.0176  0.0843 -0.0154
   20HK4    C15 1651   7.835   2.577   6.330 -0.2272  0.0891  0.1144
   20HK4     H7 1652   7.872   2.653   6.259  3.0042 -0.4974  1.1040
   20HK4    C20 1653   7.836   2.587   6.469 -0.0918 -0.0194  0.1215
   20HK4     H9 1654   7.911   2.655   6.511  0.6051 -1.1421  0.7072
   20HK4    C19 1655   7.777   2.490   6.548  0.4409 -0.4989 -0.0628
   20HK4    C18 1656   7.732   2.366   6.488 -0.7084  0.0384 -0.3422
   20HK4    C17 1657   7.756   2.352   6.352  0.2709 -0.1377 -0.1592
   20HK4     H8 1658   7.718   2.265   6.299 -1.7524  1.2281 -1.0257
   20HK4     N1 1659   7.704   2.282   6.598 -0.5123  0.4073 -0.0109
   20HK4    C21 1660   7.718   2.352   6.720  0.7874 -0.2101  0.2139
   20HK4    C22 1661   7.769   2.485   6.693  0.1090 -0.0022 -0.0615
   20HK4    C26 1662   7.796   2.570   6.800 -0.9870  0.4624 -0.1510
   20HK4    H13 1663   7.794   2.677   6.777  0.4526 -0.4642 -5.3751
   20HK4    C25 1664   7.775   2.524   6.929  0.4261  0.1501 -0.0257
   20HK4    H12 1665   7.810   2.584   7.013  1.0627  2.7359 -2.0738
   20HK4    C24 1666   7.719   2.400   6.955 -0.2176  0.4712  0.1314
   20HK4    H11 1667   7.699   2.374   7.060 -1.1515  0.3810 -0.0671
   20HK4    C23 1668   7.686   2.315   6.850 -0.4677  0.5611  0.1365
   20HK4    H10 1669   7.603   2.245   6.859  0.2362 -0.4030 -0.7305
   20HK4    C39 1670   7.675   2.146   6.588  0.2637  0.2403 -0.0782
   20HK4    C41 1671   7.694   2.065   6.702 -0.4152  0.4270  0.1689
   20HK4    H21 1672   7.773   2.083   6.777  0.4510 -2.8686  0.1186
   20HK4    C42 1673   7.626   1.944   6.713  0.4877 -0.0985 -0.0154
   20HK4    H22 1674   7.639   1.879   6.801 -1.0594  1.2591  1.2506
   20HK4    C43 1675   7.538   1.897   6.617 -0.1311  0.3410  0.3321
   20HK4    H23 1676   7.517   1.791   6.622 -2.7200  0.8635  0.9970
   20HK4    C44 1677   7.530   1.971   6.499 -0.1488 -0.1843  0.0037
   20HK4    H24 1678   7.478   1.931   6.410 -1.7089 -0.9522  1.2438
   20HK4    C45 1679   7.590   2.095   6.487 -0.3439 -0.0369  0.5606
   20HK4    H25 1680   7.562   2.170   6.411  2.0800  1.5600  1.1716
   21HK4    H28 1681  10.988   5.955   6.764 -0.2066  0.5359 -0.0796
   21HK4    C48 1682  11.055   5.967   6.849  0.0813 -0.4728 -0.1651
   21HK4    C47 1683  11.148   5.868   6.882 -0.2667 -0.5817  0.4956
   21HK4    H27 1684  11.113   5.765   6.864 -0.4641 -0.2904 -0.8720
   21HK4    C46 1685  11.243   5.888   6.981 -0.2313  0.3033  0.2892
   21HK4    H26 1686   0.057   5.800   7.006  1.8504  1.1283 -1.7283
   21HK4    C40 1687   0.004   6.011   7.049  0.2084  0.4478 -0.0264
   21HK4    C50 1688  11.163   6.113   7.009  0.3371  0.5523 -0.0508
   21HK4    H30 1689  11.162   6.211   7.059  1.8624  1.3256 -1.4678
   21HK4    C49 1690  11.062   6.088   6.916  0.5908 -0.5742 -0.0299
   21HK4    H29 1691  11.000   6.173   6.884  1.4139 -0.6519 -1.9050
   21HK4     N2 1692   0.099   6.025   7.150 -0.0649  0.3356  0.2463
   21HK4    C30 1693   0.222   5.955   7.153 -0.2927 -0.0607  0.3834
   21HK4    C29 1694   0.307   5.918   7.050 -0.1371 -0.1986  0.5619
   21HK4    H15 1695   0.285   5.941   6.945 -0.8778 -1.0187  0.5327
   21HK4    C28 1696   0.427   5.853   7.077 -0.1392 -0.3953  0.1176
   21HK4    C27 1697   0.460   5.828   7.212 -0.7084 -0.8006  0.1864
   21HK4    H14 1698   0.543   5.762   7.240  1.4246  0.4784 -2.8454
   21HK4    C32 1699   0.384   5.874   7.319 -0.1926 -0.2815  0.3313
   21HK4    H16 1700   0.420   5.855   7.421  0.7593  0.0533  0.0635
   21HK4    C31 1701   0.263   5.936   7.290  0.2234  0.5145  0.3071
   21HK4    C34 1702   0.166   6.008   7.370  0.2909  0.7797  0.1521
   21HK4    C33 1703   0.064   6.062   7.282 -0.1886  0.0903  0.2825
   21HK4    C35 1704  11.201   6.126   7.336 -0.5160 -0.0682 -0.2041
   21HK4    H17 1705  11.126   6.170   7.271 -0.4865 -0.4591 -0.5082
   21HK4    C36 1706  11.191   6.139   7.474  0.1238  0.5414 -0.2089
   21HK4    H18 1707  11.115   6.200   7.524  0.8505 -0.0794  1.6694
   21HK4    C37 1708   0.045   6.087   7.552 -0.2632  0.1106  0.0154
   21HK4    H19 1709   0.044   6.115   7.658  1.0143  1.9068 -0.4208
   21HK4    C38 1710   0.164   6.031   7.508 -0.3939 -0.4319  0.3496
   21HK4    H20 1711   0.256   6.043   7.565 -0.7206  1.7243  0.4402
   21HK4    C14 1712   0.480   5.776   6.964 -0.0799 -0.1515 -0.0199
   21HK4     C9 1713   0.518   5.641   6.957  0.9255  0.0838  0.7036
   21HK4     C8 1714   0.616   5.604   6.863  0.1025 -0.1149 -0.0859
   21HK4    C11 1715   0.671   5.697   6.776  1.2141 -0.0069  0.7161
   21HK4     H4 1716   0.772   5.676   6.740  1.5310 -1.8743  2.6394
   21HK4    C12 1717   0.626   5.829   6.769 -0.1959 -0.5358 -0.5185
   21HK4     H5 1718   0.659   5.889   6.683 -1.8364  0.8570 -0.2033
   21HK4    C13 1719   0.529   5.861   6.863  0.3435 -0.3866 -0.0118
   21HK4     H6 1720   0.474   5.954   6.844 -0.3367 -0.9032 -0.6143
   21HK4     C7 1721   0.655   5.462   6.845  0.3421 -0.1036  0.3486
   21HK4     O2 1722   0.765   5.423   6.807  0.1555 -0.1742 -0.1190
   21HK4     C4 1723   0.558   5.362   6.894 -0.1704  0.2644  0.0832
   21HK4     C3 1724   0.571   5.232   6.849  0.0017  0.2488  0.1798
   21HK4     H3 1725   0.621   5.202   6.755 -0.1780 -0.9624  0.4546
   21HK4     C2 1726   0.524   5.128   6.928 -0.3493 -0.0497 -0.4141
   21HK4     H2 1727   0.538   5.020   6.909  2.4079 -0.2074  2.2658
   21HK4     C1 1728   0.463   5.154   7.050 -0.1140 -0.4109 -0.2175
   21HK4     H1 1729   0.435   5.080   7.126  0.6997 -1.5444 -1.0087
   21HK4     C6 1730   0.437   5.286   7.092 -0.1552 -0.3502 -0.4310
   21HK4     C5 1731   0.482   5.390   7.010 -0.7648  0.0585 -0.2486
   21HK4    C10 1732   0.444   5.533   7.029 -0.3015  0.1961 -0.3525
   21HK4     O1 1733   0.327   5.557   7.057 -0.3172 -0.1308 -0.1428
   21HK4    C16 1734   0.418   5.306   7.236  0.1926  0.2840 -0.4705
   21HK4    C15 1735   0.497   5.228   7.323  0.5020  0.4657 -0.5893
   21HK4     H7 1736   0.563   5.151   7.281 -0.2891 -1.0377  0.9103
   21HK4    C20 1737   0.489   5.234   7.461 -0.3330 -0.1131 -0.6113
   21HK4     H9 1738   0.570   5.188   7.517 -1.2221  1.1593  1.8225
   21HK4    C19 1739   0.402   5.326   7.518  0.7405  0.6112 -0.1140
   21HK4    C18 1740   0.314   5.403   7.431 -0.5495 -0.4186  0.2611
   21HK4    C17 1741   0.322   5.390   7.292  0.1919 -0.2160  0.2795
   21HK4     H8 1742   0.245   5.432   7.227 -0.6778 -2.2620 -0.0711
   21HK4     N1 1743   0.251   5.506   7.503  0.1723  0.3179 -0.1430
   21HK4    C21 1744   0.319   5.508   7.626 -0.7055 -0.1412  0.3538
   21HK4    C22 1745   0.402   5.391   7.647  0.3443  0.5218 -0.0669
   21HK4    C26 1746   0.468   5.366   7.767 -0.0987  0.2537  0.1204
   21HK4    H13 1747   0.509   5.269   7.796  0.2476  0.0074 -1.1866
   21HK4    C25 1748   0.478   5.469   7.860  0.2162 -0.1347  0.5145
   21HK4    H12 1749   0.540   5.447   7.947  1.0417 -2.8130 -0.6742
   21HK4    C24 1750   0.410   5.587   7.837  0.1420 -0.3434 -0.3435
   21HK4    H11 1751   0.428   5.675   7.901 -0.1680  0.2939 -1.1154
   21HK4    C23 1752   0.326   5.604   7.727 -0.2566  0.1598  0.0323
   21HK4    H10 1753   0.257   5.687   7.714  0.7084  0.8348 -0.9809
   21HK4    C39 1754   0.131   5.572   7.475 -0.0823 -0.0294  0.1074
   21HK4    C41 1755   0.087   5.697   7.524 -0.2045 -0.1186  0.2225
   21HK4    H21 1756   0.169   5.769   7.528 -1.0832  0.7746  3.3160
   21HK4    C42 1757  11.202   5.739   7.525  0.0008  0.5562 -0.4306
   21HK4    H22 1758  11.173   5.834   7.573 -1.8199  0.0389 -0.4785
   21HK4    C43 1759  11.110   5.654   7.467  0.1028 -0.0977  0.3556
   21HK4    H23 1760  11.005   5.678   7.447 -0.1392 -0.2809  1.3870
   21HK4    C44 1761  11.148   5.528   7.422 -0.2210  0.1134 -0.5191
   21HK4    H24 1762  11.079   5.449   7.388  0.9608 -1.6054  0.9639
   21HK4    C45 1763   0.033   5.488   7.418 -0.1846  0.1877 -0.0421
   21HK4    H25 1764   0.055   5.384   7.389 -1.9885 -0.3291  0.3631
   22HK4    H28 1765  10.339   0.106   7.920 -0.3866 -0.7570 -0.8997
   22HK4    C48 1766  10.239   0.144   7.941  0.2608  0.6850 -0.3818
   22HK4    C47 1767  10.224   0.269   8.001  0.5214  0.6149 -0.1672
   22HK4    H27 1768  10.315   0.329   8.016  0.7552  0.0193  0.8505
   22HK4    C46 1769  10.098   0.319   8.033 -0.0717 -0.9161 -0.0188
   22HK4    H26 1770  10.094   0.419   8.079 -1.3439 -0.9368 -0.0886
   22HK4    C40 1771   9.980   0.250   8.001 -0.3711 -0.4576  0.1002
   22HK4    C50 1772   9.997   0.125   7.940  0.0699  0.0577 -0.8387
   22HK4    H30 1773   9.915   0.055   7.917 -1.5309  1.1851  1.2827
   22HK4    C49 1774  10.123   0.075   7.910  0.4220 -0.3199  1.2187
   22HK4    H29 1775  10.127  11.219   7.873 -0.5551  0.6176 -1.6168
   22HK4     N2 1776   9.856   0.293   8.051 -0.2139 -0.2646  0.3285
   22HK4    C30 1777   9.733   0.257   7.992 -0.1271  0.1307 -0.0935
   22HK4    C29 1778   9.705   0.191   7.873  0.0895 -0.2347  0.0576
   22HK4    H15 1779   9.785   0.161   7.805 -0.4580 -4.0808  0.9773
   22HK4    C28 1780   9.573   0.165   7.839  0.1597 -0.5648  0.0347
   22HK4    C27 1781   9.471   0.212   7.924  0.1502  0.2985 -0.4439
   22HK4    H14 1782   9.368   0.182   7.901  0.8117 -1.0614 -1.7377
   22HK4    C32 1783   9.497   0.276   8.045 -0.3822  0.2212 -0.2854
   22HK4    H16 1784   9.411   0.312   8.102  0.4610  2.0078 -0.1134
   22HK4    C31 1785   9.628   0.310   8.077 -0.3010 -0.3610 -0.0044
   22HK4    C34 1786   9.687   0.377   8.191 -0.3119 -0.0803 -0.1651
   22HK4    C33 1787   9.830   0.357   8.174 -0.2919 -0.4646  0.4182
   22HK4    C35 1788   9.911   0.387   8.283  0.1752 -0.5669  0.1010
   22HK4    H17 1789  10.011   0.344   8.291  0.8407  0.6611 -1.4869
   22HK4    C36 1790   9.857   0.439   8.400  0.2714 -0.3013  0.0269
   22HK4    H18 1791   9.917   0.473   8.485  0.3292 -0.6345  0.1198
   22HK4    C37 1792   9.720   0.456   8.412  0.1763 -0.4215 -0.7923
   22HK4    H19 1793   9.682   0.463   8.514  1.1025 -1.2812 -0.3826
   22HK4    C38 1794   9.632   0.428   8.308 -0.4678  0.6093 -0.5363
   22HK4    H20 1795   9.526   0.453   8.310 -0.9466 -1.4200  1.2104
   22HK4    C14 1796   9.537   0.119   7.704 -0.1102 -0.0832 -0.0623
   22HK4     C9 1797   9.421   0.142   7.630 -0.1181  0.0654 -0.0050
   22HK4     C8 1798   9.366   0.048   7.541 -0.2475  0.2986 -0.1721
   22HK4    C11 1799   9.444  11.184   7.512 -0.1333  0.2632  0.2761
   22HK4     H4 1800   9.401  11.102   7.453  0.2435 -0.4414  0.9754
   22HK4    C12 1801   9.567  11.160   7.573 -0.2814 -0.0554  0.4556
   22HK4     H5 1802   9.624  11.072   7.542 -4.4182 -3.3312  1.6054
   22HK4    C13 1803   9.607   0.000   7.673  0.3919  0.2103 -0.0513
   22HK4     H6 1804   9.702  11.227   7.724  0.0577  0.5458  0.7101
   22HK4     C7 1805   9.223   0.056   7.503 -0.1947 -0.0091 -0.4455
   22HK4     O2 1806   9.184  11.234   7.410 -0.5497 -0.0133 -0.2934
   22HK4     C4 1807   9.145   0.173   7.549 -0.1627 -0.3754  0.5639
   22HK4     C3 1808   9.007   0.175   7.533 -0.0688  0.1450 -0.1875
   22HK4     H3 1809   8.947   0.084   7.516 -2.5190  1.8343 -0.9404
   22HK4     C2 1810   8.938   0.289   7.570 -0.1946  0.0091  0.0010
   22HK4     H2 1811   8.836   0.303   7.531  0.2731  1.9240 -0.6243
   22HK4     C1 1812   9.005   0.393   7.634 -0.5900  0.0974  0.2748
   22HK4     H1 1813   8.946   0.483   7.655  0.5967  0.5878  1.6259
   22HK4     C6 1814   9.141   0.387   7.671 -0.5410 -0.0205  0.0931
   22HK4     C5 1815   9.210   0.282   7.610 -0.4293 -0.1267  0.4045
   22HK4    C10 1816   9.356   0.276   7.640 -0.4308 -0.1181  0.4342
   22HK4     O1 1817   9.427   0.372   7.611 -0.0662 -0.3753  0.4789
   22HK4    C16 1818   9.171   0.431   7.808 -0.1392  0.3824 -0.1238
   22HK4    C15 1819   9.069   0.429   7.905 -0.1785 -0.2741 -0.1806
   22HK4     H7 1820   8.969   0.396   7.873 -0.5916 -0.6486  1.4281
   22HK4    C20 1821   9.074   0.499   8.025  0.2109 -0.5932 -0.0092
   22HK4     H9 1822   9.003   0.487   8.107  1.0099 -1.2835  0.5783
   22HK4    C19 1823   9.190   0.571   8.051  0.0043 -0.3515  0.2471
   22HK4    C18 1824   9.301   0.567   7.957 -0.0043  0.2563  0.2091
   22HK4    C17 1825   9.285   0.506   7.833 -0.0375  0.0952  0.2922
   22HK4     H8 1826   9.338   0.552   7.749 -1.8467  3.0701  0.7031
   22HK4     N1 1827   9.405   0.647   8.008  0.4280 -0.0382 -0.2122
   22HK4    C21 1828   9.374   0.679   8.142 -0.0910 -0.4178 -0.2405
   22HK4    C22 1829   9.237   0.638   8.170 -0.2372  0.2524  0.0064
   22HK4    C26 1830   9.199   0.624   8.303 -0.3680 -0.6364 -0.1228
   22HK4    H13 1831   9.097   0.594   8.327 -0.0211 -0.3869  1.7782
   22HK4    C25 1832   9.287   0.649   8.408  0.0751 -0.0155 -0.6402
   22HK4    H12 1833   9.258   0.621   8.509  0.9493  0.2129 -0.3171
   22HK4    C24 1834   9.418   0.687   8.383 -0.1569  0.7027 -0.7724
   22HK4    H11 1835   9.473   0.742   8.461 -0.3431 -0.3984  0.1472
   22HK4    C23 1836   9.460   0.692   8.250  0.3683 -0.0876 -0.6431
   22HK4    H10 1837   9.567   0.706   8.236  0.3897 -0.0986 -0.4862
   22HK4    C39 1838   9.528   0.663   7.943  0.2641 -0.0325 -0.5205
   22HK4    C41 1839   9.612   0.770   7.981 -0.0167 -0.2255  0.6592
   22HK4    H21 1840   9.572   0.862   8.027  0.2766 -0.4809  1.4334
   22HK4    C42 1841   9.743   0.774   7.935 -0.1724 -0.0021  0.2449
   22HK4    H22 1842   9.806   0.862   7.954  0.5002 -0.1135 -1.3674
   22HK4    C43 1843   9.800   0.674   7.857  0.2938 -0.0396  0.6313
   22HK4    H23 1844   9.904   0.672   7.824 -0.7574  0.5786 -2.9574
   22HK4    C44 1845   9.718   0.565   7.830  0.1691  0.3654 -0.6868
   22HK4    H24 1846   9.772   0.470   7.816  1.0202  1.0194 -1.8766
   22HK4    C45 1847   9.584   0.558   7.868  0.1079  0.1781 -0.9316
   22HK4    H25 1848   9.529   0.463   7.866 -2.8502  1.7688  1.0587
   23HK4    H28 1849   8.639   5.718  10.717 -0.0990 -0.0730  2.0853
   23HK4    C48 1850   8.583   5.808  10.693  0.2860 -0.3243  0.1635
   23HK4    C47 1851   8.455   5.810  10.640  0.4188 -0.0484 -0.1547
   23HK4    H27 1852   8.407   5.711  10.632  0.5021  0.0178 -1.5115
   23HK4    C46 1853   8.382   5.926  10.617  0.5972  0.0721 -0.1133
   23HK4    H26 1854   8.275   5.901  10.607  1.0363 -2.3099  0.8488
   23HK4    C40 1855   8.432   6.054  10.649 -0.1258  0.2778  0.1990
   23HK4    C50 1856   8.565   6.049  10.693 -0.1397 -0.4449  0.1787
   23HK4    H30 1857   8.620   6.144  10.702  0.3315 -0.6697 -0.2575
   23HK4    C49 1858   8.641   5.933  10.711  0.2543 -0.2526 -0.2418
   23HK4    H29 1859   8.739   5.948  10.759  0.2123  1.7002 -0.7291
   23HK4     N2 1860   8.356   6.170  10.631 -0.2538  0.2372  0.4963
   23HK4    C30 1861   8.239   6.178  10.553  0.0433 -0.2430 -0.0003
   23HK4    C29 1862   8.200   6.118  10.433  0.3052  0.7984 -0.6118
   23HK4    H15 1863   8.275   6.050  10.392 -0.1253 -1.2958  1.9575
   23HK4    C28 1864   8.073   6.127  10.377 -0.1427  0.0105  0.2670
   23HK4    C27 1865   7.977   6.200  10.451  0.3875 -0.0344  1.0136
   23HK4    H14 1866   7.873   6.209  10.418  0.9716  1.7711 -0.4456
   23HK4    C32 1867   8.018   6.271  10.562 -0.3117  0.4086  0.9885
   23HK4    H16 1868   7.942   6.334  10.610 -0.4134  1.1248 -0.1028
   23HK4    C31 1869   8.147   6.271  10.615  0.3169  0.3764 -0.5231
   23HK4    C34 1870   8.216   6.327  10.729 -0.0694  0.0139 -0.1048
   23HK4    C33 1871   8.350   6.271  10.729  0.0597  0.3069  0.4435
   23HK4    C35 1872   8.452   6.321  10.809  0.4958  0.2078 -0.0566
   23HK4    H17 1873   8.552   6.312  10.765 -0.1639  0.6589 -1.6866
   23HK4    C36 1874   8.414   6.417  10.901  0.6780 -0.5233  0.7930
   23HK4    H18 1875   8.490   6.454  10.971  1.3421 -1.8039  0.7681
   23HK4    C37 1876   8.286   6.471  10.905  0.7562 -0.2047 -0.5814
   23HK4    H19 1877   8.259   6.542  10.983  0.5328  0.9789 -1.7350
   23HK4    C38 1878   8.185   6.428  10.820  0.0699 -0.2491  0.2341
   23HK4    H20 1879   8.089   6.479  10.811  0.9808  1.4947  0.1063
   23HK4    C14 1880   8.068   6.110  10.231 -0.0318  0.2554  0.2330
   23HK4     C9 1881   7.974   6.174  10.150  0.1201 -0.0264 -0.1629
   23HK4     C8 1882   7.913   6.101  10.046  0.1124 -0.1972 -0.0407
   23HK4    C11 1883   7.956   5.972  10.016  0.2218 -0.0151 -0.6757
   23HK4     H4 1884   7.912   5.917   9.931 -1.5416 -0.0160  0.2165
   23HK4    C12 1885   8.058   5.912  10.090  0.2523 -0.0548 -0.7510
   23HK4     H5 1886   8.085   5.810  10.060 -0.7533 -0.8650  1.0501
   23HK4    C13 1887   8.116   5.983  10.194 -0.6829  0.1899 -0.3898
   23HK4     H6 1888   8.205   5.940  10.243 -0.8934  1.1038  0.8254
   23HK4     C7 1889   7.803   6.165   9.970 -0.0537  0.0053  0.3698
   23HK4     O2 1890   7.727   6.088   9.911  0.1956 -0.1032  0.1920
   23HK4     C4 1891   7.768   6.308   9.988  0.0479  0.0805 -0.0274
   23HK4     C3 1892   7.661   6.361   9.917  0.0663 -0.2864 -0.3329
   23HK4     H3 1893   7.634   6.340   9.813  1.2510  1.8841 -1.0881
   23HK4     C2 1894   7.604   6.481   9.956 -0.1370 -0.2442 -0.7665
   23HK4     H2 1895   7.538   6.527   9.881  0.0544  2.3882  0.6056
   23HK4     C1 1896   7.653   6.545  10.069 -0.2226 -0.6182 -0.5173
   23HK4     H1 1897   7.611   6.646  10.084 -0.8027 -0.4781 -2.8933
   23HK4     C6 1898   7.765   6.498  10.140 -0.0383 -0.0217 -0.4034
   23HK4     C5 1899   7.827   6.381  10.093  0.2941  0.0489 -0.1446
   23HK4    C10 1900   7.945   6.319  10.160 -0.4115 -0.2056  0.8755
   23HK4     O1 1901   8.032   6.390  10.209  0.3806 -0.6452  0.1102
   23HK4    C16 1902   7.764   6.533  10.283 -0.3259  0.5501 -0.5450
   23HK4    C15 1903   7.642   6.537  10.354  0.1203  0.0158  0.2469
   23HK4     H7 1904   7.560   6.476  10.312  0.8196 -0.0433 -1.0601
   23HK4    C20 1905   7.626   6.591  10.481 -0.5628 -0.2669  0.2799
   23HK4     H9 1906   7.528   6.585  10.529  0.1095 -0.7905  1.5999
   23HK4    C19 1907   7.739   6.641  10.544 -0.3783 -0.5067  0.1437
   23HK4    C18 1908   7.867   6.636  10.476 -0.1716 -0.4160  0.5239
   23HK4    C17 1909   7.874   6.593  10.344 -0.4553 -0.2260  0.4445
   23HK4     H8 1910   7.967   6.623  10.296  0.4811  2.3973  3.7260
   23HK4     N1 1911   7.972   6.678  10.561 -0.0092  0.1948  0.0241
   23HK4    C21 1912   7.913   6.706  10.685 -0.1052  0.1361 -0.0095
   23HK4    C22 1913   7.769   6.684  10.679  0.0256 -0.7575  0.1306
   23HK4    C26 1914   7.692   6.684  10.794 -0.2895  0.2683 -0.0826
   23HK4    H13 1915   7.583   6.687  10.782 -0.0727  1.1778 -1.9804
   23HK4    C25 1916   7.751   6.702  10.918 -0.2688  0.5869 -0.1383
   23HK4    H12 1917   7.700   6.677  11.011 -0.2049  1.4420  0.1331
   23HK4    C24 1918   7.888   6.724  10.928 -0.2472  0.4373 -0.1035
   23HK4    H11 1919   7.937   6.744  11.025 -4.3877  2.6960  1.6295
   23HK4    C23 1920   7.964   6.734  10.812 -0.0640  0.0849 -0.0145
   23HK4    H10 1921   8.061   6.782  10.819  0.0187 -0.1591  0.4880
   23HK4    C39 1922   8.107   6.682  10.524 -0.0555 -0.0957 -0.1814
   23HK4    C41 1923   8.201   6.772  10.579 -0.0564 -0.3826  0.3041
   23HK4    H21 1924   8.161   6.868  10.614 -0.4250  0.4725 -2.3435
   23HK4    C42 1925   8.336   6.740  10.590  0.2535  0.6376 -0.4878
   23HK4    H22 1926   8.404   6.812  10.639  0.6693  1.0082 -1.5754
   23HK4    C43 1927   8.389   6.622  10.537  0.1099  0.3927 -0.0845
   23HK4    H23 1928   8.489   6.587  10.560  0.1326  1.3933  1.4717
   23HK4    C44 1929   8.301   6.534  10.475  0.7168 -0.3699  0.1493
   23HK4    H24 1930   8.328   6.431  10.447 -1.1134 -1.1163  1.0625
   23HK4    C45 1931   8.165   6.562  10.478  0.8170  0.0729  0.4722
   23HK4    H25 1932   8.098   6.489  10.433  1.1928  0.1598 -0.2327
   24HK4    H28 1933   0.350   9.061   1.014 -0.0057  1.8721 -0.1182
   24HK4    C48 1934   0.371   9.076   0.908 -0.4883  0.9710 -0.3430
   24HK4    C47 1935   0.486   9.144   0.868  0.4117 -0.4374 -0.1845
   24HK4    H27 1936   0.516   9.228   0.932  0.1031 -1.7891  1.7919
   24HK4    C46 1937   0.534   9.123   0.740 -0.1788 -0.4043 -0.4147
   24HK4    H26 1938   0.629   9.176   0.720 -0.7362  0.9664  0.5181
   24HK4    C40 1939   0.465   9.043   0.646 -0.4115 -0.6095 -0.0661
   24HK4    C50 1940   0.342   8.983   0.683 -0.2001 -1.0216 -0.0295
   24HK4    H30 1941   0.269   8.952   0.607  0.4273 -1.3212 -0.5118
   24HK4    C49 1942   0.301   9.000   0.815  0.5312 -0.5882  0.1480
   24HK4    H29 1943   0.216   8.939   0.849 -1.1463  1.7409  0.2401
   24HK4     N2 1944   0.523   9.007   0.524  0.2006 -0.4838  0.1852
   24HK4    C30 1945   0.655   8.968   0.495  0.5048  0.7732 -0.1115
   24HK4    C29 1946   0.762   8.945   0.581  0.4708 -0.0171 -0.2753
   24HK4    H15 1947   0.725   8.912   0.678  0.1835 -0.3292 -0.4940
   24HK4    C28 1948   0.895   8.925   0.547  0.4267 -0.7275 -0.0345
   24HK4    C27 1949   0.914   8.904   0.409  0.2235 -0.2606 -0.1350
   24HK4    H14 1950   0.997   8.839   0.379  0.2715  0.0764 -0.7444
   24HK4    C32 1951   0.810   8.912   0.317  0.1194 -0.4599 -0.0337
   24HK4    H16 1952   0.822   8.870   0.218 -2.3978  1.8051 -1.3683
   24HK4    C31 1953   0.683   8.957   0.353  0.3942  0.3753 -0.1028
   24HK4    C34 1954   0.561   9.001   0.290 -0.0291 -0.2929  0.2467
   24HK4    C33 1955   0.467   9.031   0.397 -0.0221 -0.4305  0.2912
   24HK4    C35 1956   0.347   9.088   0.357 -0.0261 -0.7410 -0.1485
   24HK4    H17 1957   0.284   9.137   0.431 -3.2985 -1.1992 -2.5415
   24HK4    C36 1958   0.310   9.105   0.224 -0.4489 -0.2177  0.0319
   24HK4    H18 1959   0.210   9.137   0.193 -0.4845  1.6344  1.9571
   24HK4    C37 1960   0.402   9.075   0.124 -0.0553 -0.4076  0.4433
   24HK4    H19 1961   0.387   9.123   0.027  1.3903 -0.0486  0.3928
   24HK4    C38 1962   0.526   9.022   0.157  0.3479  0.4176  0.2588
   24HK4    H20 1963   0.601   9.005   0.080  0.1220 -0.4251  0.2198
   24HK4    C14 1964   1.006   8.969   0.633  0.1728  0.1280 -0.1339
   24HK4     C9 1965   1.126   9.013   0.577  0.1596  0.4391  0.0813
   24HK4     C8 1966   1.251   8.964   0.619 -0.0148  0.0155  0.1064
   24HK4    C11 1967   1.257   8.883   0.732 -0.1114  0.1095  0.1765
   24HK4     H4 1968   1.351   8.845   0.773 -0.0783  1.1444  1.0696
   24HK4    C12 1969   1.140   8.839   0.793 -0.2308 -0.1829 -0.2580
   24HK4     H5 1970   1.139   8.749   0.855  0.1418  1.7133  2.5820
   24HK4    C13 1971   1.018   8.892   0.751 -0.1001  0.3534  0.0383
   24HK4     H6 1972   0.924   8.856   0.796 -1.4649  1.3046 -1.9666
   24HK4     C7 1973   1.368   8.978   0.528  0.2108 -0.4369  0.3250
   24HK4     O2 1974   1.481   8.947   0.566  0.2056 -0.5784  0.2203
   24HK4     C4 1975   1.344   9.046   0.399 -0.1394  0.1451  0.6906
   24HK4     C3 1976   1.446   9.034   0.305 -0.6980 -0.2756  0.1331
   24HK4     H3 1977   1.549   9.002   0.326  0.4700  2.9805 -0.3252
   24HK4     C2 1978   1.439   9.088   0.177 -0.0735 -0.6451 -0.0603
   24HK4     H2 1979   1.513   9.068   0.098 -0.1612 -2.1301  0.2240
   24HK4     C1 1980   1.317   9.145   0.144  0.0752 -0.6009 -0.5324
   24HK4     H1 1981   1.299   9.174   0.039 -0.6965 -0.7827 -0.4572
   24HK4     C6 1982   1.208   9.162   0.232  0.3137  0.0140 -0.3524
   24HK4     C5 1983   1.227   9.115   0.363  0.2435  0.3261 -0.2314
   24HK4    C10 1984   1.120   9.114   0.467  0.1184 -0.0416 -0.3626
   24HK4     O1 1985   1.061   9.220   0.488 -0.0311 -0.1425 -0.2850
   24HK4    C16 1986   1.077   9.152   0.167 -0.0686 -0.1373  0.4284
   24HK4    C15 1987   1.051   9.063   0.061 -0.0321 -0.0405  0.3380
   24HK4     H7 1988   1.110   8.970   0.061  1.5091  0.9170 -0.8736
   24HK4    C20 1989   0.939   9.070  11.226  0.7760  1.0835 -0.6616
   24HK4     H9 1990   0.934   9.023  11.128  0.6160 -2.1039  0.8144
   24HK4    C19 1991   0.847   9.171  11.247  0.0425  0.2722  0.0465
   24HK4    C18 1992   0.872   9.270   0.102 -0.5589  0.5776 -0.0980
   24HK4    C17 1993   0.986   9.256   0.181 -0.0804  0.0373 -0.8860
   24HK4     H8 1994   0.998   9.329   0.260 -1.1009 -0.7864  0.0396
   24HK4     N1 1995   0.761   9.358   0.107 -0.5135  0.6334 -0.0463
   24HK4    C21 1996   0.665   9.314   0.014 -0.3739 -0.0309  0.1202
   24HK4    C22 1997   0.715   9.197  11.192 -0.3157 -0.3104  0.6222
   24HK4    C26 1998   0.652   9.147  11.079 -0.1991 -0.1594  0.4883
   24HK4    H13 1999   0.694   9.058  11.032 -1.0135 -0.5904  0.5678
   24HK4    C25 2000   0.543   9.215  11.026  0.5828  0.1816 -0.7090
   24HK4    H12 2001   0.514   9.189  10.924 -1.1234 -0.5215 -0.0622
   24HK4    C24 2002   0.498   9.327  11.095 -0.2519 -0.3103 -0.4411
   24HK4    H11 2003   0.397   9.366  11.078  0.4231  0.5703 -2.7148
   24HK4    C23 2004   0.551   9.377  11.213 -0.2848 -0.2995 -0.4277
   24HK4    H10 2005   0.490   9.428   0.039 -0.4582  1.1941 -1.5877
   24HK4    C39 2006   0.735   9.420   0.229 -0.1738  0.0204  0.3417
   24HK4    C41 2007   0.660   9.540   0.223 -0.4144 -0.1574 -0.1749
   24HK4    H21 2008   0.652   9.603   0.133 -0.1720  0.3211  0.1391
   24HK4    C42 2009   0.575   9.577   0.326 -0.0480 -0.2317  0.1562
   24HK4    H22 2010   0.517   9.670   0.316  1.7152  0.8975  0.2836
   24HK4    C43 2011   0.558   9.498   0.439  0.3731  0.2263  0.5445
   24HK4    H23 2012   0.507   9.531   0.529  1.8146 -1.1320  1.8876
   24HK4    C44 2013   0.636   9.384   0.451  0.0811  0.0130  0.3922
   24HK4    H24 2014   0.633   9.321   0.541 -0.5687 -1.2284 -0.4856
   24HK4    C45 2015   0.716   9.341   0.345  0.1276  0.0529  0.4115
   24HK4    H25 2016   0.771   9.246   0.354  0.4776  0.4329  2.4948
   25HK4    H28 2017   1.361  10.211   5.326  0.0524 -0.1043 -0.3086
   25HK4    C48 2018   1.319  10.118   5.364  0.0363 -0.1966 -0.5442
   25HK4    C47 2019   1.397  10.043   5.452 -0.1277 -0.2006 -0.4038
   25HK4    H27 2020   1.493  10.084   5.486 -0.2560 -0.3911  0.1821
   25HK4    C46 2021   1.345   9.930   5.514 -0.1632  0.0082 -0.0505
   25HK4    H26 2022   1.406   9.890   5.595  2.2287  1.7300 -0.9495
   25HK4    C40 2023   1.213   9.884   5.492 -0.1384 -0.0647 -0.0408
   25HK4    C50 2024   1.147   9.945   5.384 -0.6718  0.2950  0.4872
   25HK4    H30 2025   1.055   9.902   5.341  0.0416  1.4165 -2.2602
   25HK4    C49 2026   1.197  10.062   5.329 -0.5816  0.3518  0.6880
   25HK4    H29 2027   1.136  10.097   5.243 -0.7673 -1.6710 -0.0336
   25HK4     N2 2028   1.162   9.781   5.571  0.1912 -0.2031 -0.0088
   25HK4    C30 2029   1.032   9.776   5.625  0.1450  0.2697 -0.0759
   25HK4    C29 2030   0.923   9.861   5.613 -0.1265 -0.0656 -0.0080
   25HK4    H15 2031   0.946   9.967   5.599  1.9830 -0.3986  0.7590
   25HK4    C28 2032   0.798   9.817   5.657 -0.0023 -0.0604  0.3574
   25HK4    C27 2033   0.784   9.694   5.723 -0.7406 -0.2140 -0.0860
   25HK4    H14 2034   0.684   9.658   5.752 -1.2750  2.1799  1.0893
   25HK4    C32 2035   0.896   9.614   5.743 -0.0525  0.7731  0.0505
   25HK4    H16 2036   0.887   9.509   5.773 -0.6877  1.1462  1.2092
   25HK4    C31 2037   1.022   9.653   5.702  0.0604  0.2708 -0.0847
   25HK4    C34 2038   1.153   9.590   5.696 -0.0343  0.0693  0.0016
   25HK4    C33 2039   1.240   9.671   5.614  0.1136 -0.3573 -0.2645
   25HK4    C35 2040   1.370   9.633   5.582  0.3758  0.1867  0.1526
   25HK4    H17 2041   1.429   9.688   5.510 -0.6496 -1.0560 -1.6795
   25HK4    C36 2042   1.417   9.515   5.639 -0.1538 -0.2442 -0.3010
   25HK4    H18 2043   1.506   9.466   5.597  0.2146  1.3737 -1.4580
   25HK4    C37 2044   1.337   9.444   5.728 -0.1580  0.3766  0.2001
   25HK4    H19 2045   1.383   9.356   5.772 -0.6199  0.1326  0.1998
   25HK4    C38 2046   1.204   9.474   5.754 -0.3379 -0.1270 -0.1204
   25HK4    H20 2047   1.148   9.414   5.826  1.0882  1.1289  2.1005
   25HK4    C14 2048   0.684   9.909   5.669  0.0232  0.1029 -0.6124
   25HK4     C9 2049   0.588   9.904   5.770  0.7235  0.5170  0.0797
   25HK4     C8 2050   0.453   9.944   5.764  0.4785 -0.3144 -0.0495
   25HK4    C11 2051   0.423  10.011   5.645 -0.0701  0.2124  0.3766
   25HK4     H4 2052   0.323  10.054   5.636  1.2577  3.6586  1.2757
   25HK4    C12 2053   0.518  10.033   5.546 -0.1747  0.1185  0.2554
   25HK4     H5 2054   0.470  10.059   5.451 -0.4611  0.1837  0.4177
   25HK4    C13 2055   0.648   9.984   5.555 -0.0056  0.4535 -0.3744
   25HK4     H6 2056   0.725  10.002   5.478  1.1700 -0.6289  0.5197
   25HK4     C7 2057   0.348   9.906   5.861  0.0371  1.0142  0.0081
   25HK4     O2 2058   0.233   9.948   5.851 -0.1038  0.6708  0.1620
   25HK4     C4 2059   0.394   9.817   5.970  0.1146  0.1007 -0.7558
   25HK4     C3 2060   0.301   9.756   6.053  0.5519  0.4189 -0.0280
   25HK4     H3 2061   0.201   9.802   6.054 -0.2608 -1.2847 -0.9999
   25HK4     C2 2062   0.329   9.651   6.140 -0.2535 -0.5772 -0.9683
   25HK4     H2 2063   0.253   9.596   6.197  0.9712 -1.2714  0.0064
   25HK4     C1 2064   0.465   9.621   6.144 -0.1770 -0.0934  0.0317
   25HK4     H1 2065   0.497   9.540   6.211 -3.7866  0.5457  2.7147
   25HK4     C6 2066   0.569   9.693   6.081  0.0911 -0.1204  0.4450
   25HK4     C5 2067   0.532   9.797   5.995 -0.1166 -0.5764 -0.0166
   25HK4    C10 2068   0.633   9.855   5.903 -0.2978  0.3971  0.3925
   25HK4     O1 2069   0.724   9.918   5.958  0.0574  0.0712  0.1842
   25HK4    C16 2070   0.694   9.616   6.072  0.3110  0.3130 -0.1811
   25HK4    C15 2071   0.687   9.477   6.056  0.0865  0.3354 -0.3020
   25HK4     H7 2072   0.597   9.418   6.033 -0.7283  2.0439 -1.6174
   25HK4    C20 2073   0.802   9.400   6.074  0.2318  0.6271  0.0195
   25HK4     H9 2074   0.795   9.291   6.083 -1.5506  0.5719 -1.7214
   25HK4    C19 2075   0.925   9.457   6.106  0.3519  0.0792  0.5582
   25HK4    C18 2076   0.934   9.601   6.104 -0.1670  0.1107  0.0288
   25HK4    C17 2077   0.816   9.674   6.104  0.1711  0.6604 -0.2788
   25HK4     H8 2078   0.813   9.770   6.156  0.2463 -0.4682  1.8859
   25HK4     N1 2079   1.070   9.638   6.112 -0.1023  0.1281 -1.0144
   25HK4    C21 2080   1.149   9.521   6.118 -0.1113  0.1332 -0.7569
   25HK4    C22 2081   1.060   9.406   6.119  0.3132 -0.1941 -0.0878
   25HK4    C26 2082   1.112   9.278   6.104  0.0227 -0.3725  0.4623
   25HK4    H13 2083   1.036   9.201   6.091  0.5409 -1.1080  1.6501
   25HK4    C25 2084   1.246   9.257   6.077 -0.0358 -0.0131 -0.1164
   25HK4    H12 2085   1.275   9.152   6.078 -1.6588 -0.4779 -0.5765
   25HK4    C24 2086   1.333   9.366   6.077  0.3989 -0.3515 -0.2503
   25HK4    H11 2087   1.439   9.339   6.081  0.4942  0.2572  2.2884
   25HK4    C23 2088   1.283   9.495   6.091  0.0791 -0.5795  0.8150
   25HK4    H10 2089   1.338   9.577   6.046  1.0447 -0.2894  2.5103
   25HK4    C39 2090   1.116   9.764   6.072  0.0316  0.5134  0.3274
   25HK4    C41 2091   1.244   9.808   6.112  0.3750 -0.1522 -0.0352
   25HK4    H21 2092   1.281   9.777   6.211 -2.4166  0.0870  1.1392
   25HK4    C42 2093   1.306   9.921   6.059  0.0745 -0.0141 -0.0963
   25HK4    H22 2094   1.411   9.947   6.081  0.2419  1.3441 -2.3169
   25HK4    C43 2095   1.236  10.001   5.970 -0.1238  0.1845  0.2354
   25HK4    H23 2096   1.256  10.108   5.970  1.0946 -0.0353 -0.5598
   25HK4    C44 2097   1.116   9.954   5.917  0.1059  0.2608 -0.3533
   25HK4    H24 2098   1.061  10.020   5.848  0.7483  0.9471 -0.2099
   25HK4    C45 2099   1.057   9.839   5.968  0.6335 -0.0403 -0.4140
   25HK4    H25 2100   0.965   9.806   5.918  0.7960  1.6005 -1.8138
   26HK4    H28 2101   6.164   2.218   3.371 -0.3272 -1.9251  1.5897
   26HK4    C48 2102   6.265   2.236   3.408  0.0244  0.4307 -0.4033
   26HK4    C47 2103   6.374   2.181   3.340  0.1107 -0.1914  0.2293
   26HK4    H27 2104   6.354   2.135   3.242  0.8741  1.4930 -0.7377
   26HK4    C46 2105   6.500   2.190   3.398  0.3661  0.0950 -0.3665
   26HK4    H26 2106   6.575   2.124   3.351 -2.3257 -2.1037 -1.7122
   26HK4    C40 2107   6.529   2.258   3.518  0.3037  0.7189 -0.7025
   26HK4    C50 2108   6.415   2.306   3.584  0.1801 -0.3125 -0.1513
   26HK4    H30 2109   6.437   2.378   3.664  1.0870  4.0609 -4.0856
   26HK4    C49 2110   6.286   2.295   3.532  0.2012  0.1815 -0.3139
   26HK4    H29 2111   6.201   2.340   3.586  0.4350 -0.5941  0.7095
   26HK4     N2 2112   6.656   2.262   3.578  0.1842  0.0024 -0.3974
   26HK4    C30 2113   6.754   2.161   3.572  0.0370 -0.1745  0.1630
   26HK4    C29 2114   6.745   2.026   3.541  0.0928 -0.0927 -0.2091
   26HK4    H15 2115   6.656   1.992   3.488 -0.1251  1.1583 -0.6805
   26HK4    C28 2116   6.853   1.939   3.556  0.1463  0.0860  0.4496
   26HK4    C27 2117   6.966   1.998   3.616 -0.0099  0.1365  0.6956
   26HK4    H14 2118   7.043   1.927   3.650  2.0376  1.3140 -1.3158
   26HK4    C32 2119   6.988   2.134   3.636  0.5696  0.0821  0.4227
   26HK4    H16 2120   7.082   2.170   3.679  0.9621  2.4690 -2.2778
   26HK4    C31 2121   6.882   2.219   3.611  0.1338 -0.4908  0.3245
   26HK4    C34 2122   6.859   2.359   3.643  0.2068 -0.4369  0.1449
   26HK4    C33 2123   6.716   2.379   3.629  0.3295 -0.0176 -0.5228
   26HK4    C35 2124   6.666   2.507   3.643 -0.5579 -0.4606  0.4191
   26HK4    H17 2125   6.560   2.531   3.631 -0.1607  1.8157  1.1175
   26HK4    C36 2126   6.746   2.614   3.684  0.0705 -0.5797 -0.4857
   26HK4    H18 2127   6.698   2.711   3.701  0.0823 -0.8378  1.1051
   26HK4    C37 2128   6.882   2.593   3.701 -0.0917 -0.3173  1.2228
   26HK4    H19 2129   6.941   2.674   3.744 -0.1757  0.2728  0.2358
   26HK4    C38 2130   6.937   2.466   3.685 -0.0454 -0.1276 -0.1786
   26HK4    H20 2131   7.029   2.446   3.740  0.2186  2.6221  0.4319
   26HK4    C14 2132   6.827   1.795   3.552 -0.7942  0.2562  0.0964
   26HK4     C9 2133   6.898   1.699   3.625 -0.7501 -0.1133 -0.4242
   26HK4     C8 2134   6.936   1.575   3.568  0.4801  0.3056 -0.5253
   26HK4    C11 2135   6.879   1.540   3.447 -0.1855 -0.1972 -0.0688
   26HK4     H4 2136   6.902   1.446   3.396 -1.8647 -1.6710  1.8083
   26HK4    C12 2137   6.797   1.629   3.378  0.1309  0.0399 -0.1379
   26HK4     H5 2138   6.740   1.591   3.292  1.1955 -0.0549 -0.8163
   26HK4    C13 2139   6.771   1.756   3.428 -0.2280 -0.0620 -0.0651
   26HK4     H6 2140   6.695   1.816   3.376  1.0562  1.8334  0.1799
   26HK4     C7 2141   7.031   1.487   3.639  0.4595  0.6138 -0.1077
   26HK4     O2 2142   7.033   1.368   3.607 -0.3569  0.5106  0.2140
   26HK4     C4 2143   7.099   1.538   3.760  0.3879  0.3138  0.0572
   26HK4     C3 2144   7.219   1.475   3.794  0.3257  0.0488 -0.2109
   26HK4     H3 2145   7.263   1.410   3.717  0.0136  0.8770 -1.0818
   26HK4     C2 2146   7.278   1.516   3.913 -0.1587 -0.6241  0.2709
   26HK4     H2 2147   7.378   1.491   3.950  0.8694  0.0809 -1.9728
   26HK4     C1 2148   7.217   1.614   3.991 -0.0748 -0.4874  0.1636
   26HK4     H1 2149   7.263   1.623   4.090  0.8453 -1.5840 -0.1554
   26HK4     C6 2150   7.096   1.678   3.955 -0.0647 -0.5503  0.0178
   26HK4     C5 2151   7.039   1.643   3.832  0.0619  0.3776 -0.3077
   26HK4    C10 2152   6.933   1.725   3.768  0.5340  0.5663 -0.8560
   26HK4     O1 2153   6.846   1.774   3.840  0.5939  0.0384 -0.4249
   26HK4    C16 2154   7.086   1.806   4.026 -0.3366 -0.1082 -0.8153
   26HK4    C15 2155   7.199   1.879   4.069 -0.5425 -0.0788 -0.3216
   26HK4     H7 2156   7.279   1.891   3.994 -0.1002 -0.7037  0.0489
   26HK4    C20 2157   7.196   1.961   4.181  0.7824 -0.6999  0.1754
   26HK4     H9 2158   7.284   2.019   4.208  0.2785  0.8543 -1.4358
   26HK4    C19 2159   7.088   1.961   4.269  0.1119  0.4493 -0.6399
   26HK4    C18 2160   6.974   1.881   4.231  0.3192 -0.1874  0.0698
   26HK4    C17 2161   6.976   1.813   4.109  0.0464  0.5523 -0.3517
   26HK4     H8 2162   6.881   1.763   4.086 -1.1101  2.2513  0.5926
   26HK4     N1 2163   6.876   1.877   4.332  0.0913  0.2246 -0.1332
   26HK4    C21 2164   6.922   1.964   4.432  0.1222  0.1858 -0.1133
   26HK4    C22 2165   7.049   2.022   4.394  0.1572 -0.0618 -0.3754
   26HK4    C26 2166   7.119   2.110   4.477 -0.5819  0.3596 -0.1934
   26HK4    H13 2167   7.226   2.126   4.466 -0.2915 -0.8097  0.7510
   26HK4    C25 2168   7.061   2.145   4.598  0.1628  0.5525  0.1085
   26HK4    H12 2169   7.111   2.229   4.647 -0.7147 -0.0399  2.1047
   26HK4    C24 2170   6.938   2.094   4.637  0.3207  0.0643 -0.0337
   26HK4    H11 2171   6.893   2.113   4.736 -0.8703  0.5347 -0.6531
   26HK4    C23 2172   6.870   2.004   4.555  0.2899  0.0524  0.0027
   26HK4    H10 2173   6.768   1.974   4.582 -0.2539  0.9911 -0.9435
   26HK4    C39 2174   6.740   1.855   4.305  0.3496 -0.7781 -0.6315
   26HK4    C41 2175   6.654   1.816   4.410  0.1378  0.2216 -0.4347
   26HK4    H21 2176   6.701   1.766   4.496  0.1253  0.9574  0.0119
   26HK4    C42 2177   6.516   1.819   4.412  0.1389  0.2087 -0.3381
   26HK4    H22 2178   6.450   1.784   4.493 -0.3523 -2.5014 -1.8370
   26HK4    C43 2179   6.459   1.869   4.295 -0.6676 -0.4212 -0.2198
   26HK4    H23 2180   6.351   1.872   4.281 -0.3952  2.3900 -2.1758
   26HK4    C44 2181   6.535   1.907   4.185 -0.1263  0.4805  0.4618
   26HK4    H24 2182   6.487   1.957   4.100  0.1892  0.9011  0.5313
   26HK4    C45 2183   6.674   1.901   4.190 -0.1221  0.2026  0.0305
   26HK4    H25 2184   6.732   1.920   4.098  0.5001  1.1303  0.6039
   27HK4    H28 2185   0.223   3.265   5.990  0.8135 -1.5155  1.7652
   27HK4    C48 2186   0.285   3.200   5.928  0.1787 -0.4899  0.0294
   27HK4    C47 2187   0.259   3.065   5.942 -0.3953 -0.3648  0.1776
   27HK4    H27 2188   0.164   3.038   5.989 -1.1626  1.8419 -0.0633
   27HK4    C46 2189   0.352   2.970   5.900 -0.1383 -0.2303  0.4409
   27HK4    H26 2190   0.334   2.864   5.922 -2.3608 -0.5134 -2.4035
   27HK4    C40 2191   0.474   3.006   5.838  0.0310 -0.0894  0.8563
   27HK4    C50 2192   0.496   3.144   5.816  0.7633 -0.3165  0.1797
   27HK4    H30 2193   0.577   3.187   5.755  1.0242  0.4161  1.0316
   27HK4    C49 2194   0.403   3.236   5.863  0.3451 -0.7436  0.1924
   27HK4    H29 2195   0.438   3.340   5.871 -1.6466  0.1468 -2.1344
   27HK4     N2 2196   0.593   2.933   5.848  0.2156  0.1001  0.0774
   27HK4    C30 2197   0.623   2.837   5.947 -0.3532 -0.3652 -0.1960
   27HK4    C29 2198   0.568   2.822   6.073 -0.0161 -0.0334 -0.0060
   27HK4    H15 2199   0.538   2.916   6.119  0.7429  0.9178 -1.4654
   27HK4    C28 2200   0.594   2.712   6.155  0.4027  0.5026  0.5902
   27HK4    C27 2201   0.678   2.614   6.099 -0.3111  0.2669 -0.0803
   27HK4    H14 2202   0.689   2.514   6.145  0.7482 -0.3301 -1.5929
   27HK4    C32 2203   0.750   2.632   5.982 -0.4859 -0.0230 -0.2337
   27HK4    H16 2204   0.796   2.542   5.941 -0.9242 -0.3128 -0.0845
   27HK4    C31 2205   0.732   2.749   5.909  0.0200  0.0861 -0.1864
   27HK4    C34 2206   0.767   2.798   5.777  0.2907  0.5428  0.0549
   27HK4    C33 2207   0.688   2.916   5.747 -0.2137  0.1081 -0.3291
   27HK4    C35 2208   0.705   2.988   5.629 -0.4477 -0.2640 -0.5907
   27HK4    H17 2209   0.641   3.074   5.607 -0.9948 -0.0675  1.6371
   27HK4    C36 2210   0.806   2.943   5.546  0.3547  0.5863 -0.0825
   27HK4    H18 2211   0.834   3.018   5.470  2.7715 -1.0952 -0.9364
   27HK4    C37 2212   0.890   2.835   5.572 -0.2068  0.1351 -0.1212
   27HK4    H19 2213   0.979   2.811   5.513 -0.3622 -1.7260  0.3837
   27HK4    C38 2214   0.867   2.761   5.687  0.2214  0.3044  0.0768
   27HK4    H20 2215   0.932   2.678   5.714 -2.0707 -1.0316  1.6410
   27HK4    C14 2216   0.542   2.700   6.292 -0.2965 -0.2578  0.2605
   27HK4     C9 2217   0.582   2.605   6.386 -0.1658 -0.3648  0.0970
   27HK4     C8 2218   0.493   2.551   6.481 -0.2272  0.1917  0.3567
   27HK4    C11 2219   0.367   2.609   6.496 -0.2058  0.2696  0.2335
   27HK4     H4 2220   0.289   2.567   6.561 -1.7763  0.9646 -1.1489
   27HK4    C12 2221   0.330   2.712   6.411 -1.0305 -0.4260 -0.2547
   27HK4     H5 2222   0.244   2.778   6.432 -0.6832 -0.5475  1.6365
   27HK4    C13 2223   0.411   2.752   6.306 -0.4472 -0.5965  0.1309
   27HK4     H6 2224   0.367   2.817   6.229 -2.3590  0.2996  1.9467
   27HK4     C7 2225   0.527   2.454   6.588  0.7647 -0.2348 -0.3472
   27HK4     O2 2226   0.445   2.373   6.632  0.5208 -0.2035 -0.7425
   27HK4     C4 2227   0.669   2.416   6.605  0.7553  0.0028  0.2483
   27HK4     C3 2228   0.706   2.332   6.710  0.4722 -0.3572  0.0645
   27HK4     H3 2229   0.629   2.298   6.780  0.1042  0.4465  0.0569
   27HK4     C2 2230   0.840   2.296   6.722  0.5658  0.0538  0.2779
   27HK4     H2 2231   0.871   2.261   6.821 -1.5355  0.6012  1.1515
   27HK4     C1 2232   0.930   2.342   6.626  0.1861 -0.0614 -0.1367
   27HK4     H1 2233   1.033   2.304   6.640  0.6966  0.9944 -0.9383
   27HK4     C6 2234   0.891   2.409   6.508  0.3532  0.5427  0.1465
   27HK4     C5 2235   0.760   2.458   6.506  0.1216 -0.0811 -0.3739
   27HK4    C10 2236   0.723   2.564   6.408 -0.0288 -0.1651 -0.4077
   27HK4     O1 2237   0.809   2.647   6.381  0.3295 -0.2335  0.4915
   27HK4    C16 2238   0.990   2.399   6.400  0.1846  0.0664  0.0334
   27HK4    C15 2239   0.948   2.405   6.266  0.0186 -0.2470  0.0718
   27HK4     H7 2240   0.844   2.369   6.256 -1.0234  3.1806 -2.4531
   27HK4    C20 2241   1.029   2.420   6.154 -0.0523 -0.2273  0.0225
   27HK4     H9 2242   0.986   2.468   6.066  1.0366 -0.4507 -0.6348
   27HK4    C19 2243   1.165   2.426   6.181 -0.0842 -0.4354  0.2306
   27HK4    C18 2244   1.215   2.424   6.317 -0.1487  0.1908  0.2642
   27HK4    C17 2245   1.127   2.412   6.423  0.0523  0.6815  0.4881
   27HK4     H8 2246   1.163   2.404   6.525  0.6258  2.5658  0.4527
   27HK4     N1 2247   1.355   2.405   6.326 -0.1212  0.3935  0.2691
   27HK4    C21 2248   1.395   2.395   6.191 -0.4365  0.1615  0.1918
   27HK4    C22 2249   1.283   2.406   6.098 -0.1879  0.2864 -0.0939
   27HK4    C26 2250   1.307   2.416   5.962  0.5263 -0.2837 -0.0145
   27HK4    H13 2251   1.219   2.425   5.899  2.4114 -1.1766 -2.8747
   27HK4    C25 2252   1.438   2.410   5.914  0.2454 -0.3007 -0.7926
   27HK4    H12 2253   1.448   2.420   5.806  2.6387 -1.9089 -0.7475
   27HK4    C24 2254   1.547   2.406   6.001 -0.2534 -0.1297 -0.1494
   27HK4    H11 2255   1.646   2.391   5.955 -0.7861 -2.2264 -0.6796
   27HK4    C23 2256   1.523   2.398   6.137 -0.5952  0.0848 -0.1952
   27HK4    H10 2257   1.616   2.394   6.194  0.3620 -0.4456 -1.7936
   27HK4    C39 2258   1.439   2.452   6.427 -0.1483  0.1549  0.4029
   27HK4    C41 2259   1.550   2.384   6.482 -0.1622  0.0452  0.2953
   27HK4    H21 2260   1.559   2.276   6.464 -2.3481  0.3591 -3.2028
   27HK4    C42 2261   1.645   2.440   6.567  0.0240  0.1685  0.0088
   27HK4    H22 2262   1.708   2.377   6.631 -0.6559  1.1423  1.6703
   27HK4    C43 2263   1.642   2.576   6.592  0.1003  0.1454  0.1399
   27HK4    H23 2264   1.716   2.633   6.650  0.6144  0.1994 -0.5668
   27HK4    C44 2265   1.533   2.646   6.540  0.1629  0.2650  0.1687
   27HK4    H24 2266   1.530   2.755   6.552  1.2487  0.3614 -0.3918
   27HK4    C45 2267   1.434   2.589   6.462  0.2157  0.2436  0.1165
   27HK4    H25 2268   1.339   2.645   6.466  0.6834  1.1269 -0.7919
   28HK4    H28 2269   0.885   5.935   5.661 -1.5366  0.7707  1.6264
   28HK4    C48 2270   0.812   5.857   5.640 -0.1976  0.0762 -0.5308
   28HK4    C47 2271   0.679   5.888   5.614 -0.1361  0.5234 -0.3046
   28HK4    H27 2272   0.662   5.990   5.576 -0.4768  0.1393 -1.1876
   28HK4    C46 2273   0.584   5.793   5.581  0.4337 -0.0614 -0.2588
   28HK4    H26 2274   0.476   5.815   5.576  0.5163  0.0767 -1.4287
   28HK4    C40 2275   0.624   5.658   5.573 -0.0541 -0.2850  0.9755
   28HK4    C50 2276   0.759   5.628   5.601  0.2425 -0.0288 -0.1682
   28HK4    H30 2277   0.799   5.526   5.596  1.4539  0.4834 -1.1828
   28HK4    C49 2278   0.854   5.725   5.631 -0.0110  0.0811  0.2839
   28HK4    H29 2279   0.955   5.694   5.663 -0.1241 -0.2515  0.3246
   28HK4     N2 2280   0.551   5.561   5.502  0.0261  0.2949  0.1148
   28HK4    C30 2281   0.466   5.583   5.392  0.2001 -0.2381 -0.1276
   28HK4    C29 2282   0.439   5.701   5.323  0.1375 -0.1920 -0.0249
   28HK4    H15 2283   0.506   5.787   5.320 -0.1434 -0.0117 -1.3108
   28HK4    C28 2284   0.338   5.700   5.228  0.1364 -0.2341 -0.0243
   28HK4    C27 2285   0.272   5.578   5.203 -0.0439 -0.1709  0.1405
   28HK4    H14 2286   0.190   5.575   5.130  2.0256 -1.2239 -2.2127
   28HK4    C32 2287   0.292   5.458   5.270 -0.2516 -0.4796 -0.3433
   28HK4    H16 2288   0.228   5.371   5.256  0.1534 -0.7400 -0.5543
   28HK4    C31 2289   0.400   5.458   5.357 -0.4843  0.0979 -0.0504
   28HK4    C34 2290   0.455   5.355   5.443  0.0989  0.1871 -0.3097
   28HK4    C33 2291   0.540   5.425   5.537 -0.0530  0.2211 -0.1980
   28HK4    C35 2292   0.591   5.353   5.644 -0.4039 -0.1834 -0.3000
   28HK4    H17 2293   0.642   5.413   5.719 -1.1944  0.3475 -0.1821
   28HK4    C36 2294   0.578   5.215   5.651 -0.0032 -0.2059  0.0323
   28HK4    H18 2295   0.593   5.163   5.747 -0.8664 -2.1141 -0.8281
   28HK4    C37 2296   0.503   5.150   5.554  0.1551  0.1322 -0.3186
   28HK4    H19 2297   0.481   5.043   5.560 -0.2944  0.2625  0.5352
   28HK4    C38 2298   0.433   5.218   5.455 -0.0747  0.2306 -0.0910
   28HK4    H20 2299   0.379   5.162   5.378  0.3113 -0.3179  0.0300
   28HK4    C14 2300   0.272   5.828   5.198  0.2286 -0.2114 -0.1295
   28HK4     C9 2301   0.132   5.835   5.188  0.2235  0.3484  0.2908
   28HK4     C8 2302   0.075   5.914   5.087  0.1680 -0.4084 -0.2773
   28HK4    C11 2303   0.154   5.987   4.999 -0.0269  0.5995  0.3776
   28HK4     H4 2304   0.107   6.046   4.919 -0.6897  1.2460  1.2353
   28HK4    C12 2305   0.292   5.997   5.016  0.0265 -0.1531  0.3765
   28HK4     H5 2306   0.348   6.076   4.965 -0.6624 -1.1174 -1.9023
   28HK4    C13 2307   0.346   5.911   5.112  0.4593 -0.0339  0.2381
   28HK4     H6 2308   0.456   5.907   5.119  0.3585 -3.6012  0.3983
   28HK4     C7 2309  11.176   5.921   5.069  0.2074 -0.2163 -0.5352
   28HK4     O2 2310  11.129   6.011   5.000 -0.4066 -0.1771 -0.0580
   28HK4     C4 2311  11.095   5.846   5.167  0.2648  0.4241  0.0077
   28HK4     C3 2312  10.959   5.830   5.139  0.2153  0.8926 -0.0184
   28HK4     H3 2313  10.918   5.837   5.037 -1.0365 -0.5691  0.3650
   28HK4     C2 2314  10.870   5.779   5.232  0.4846 -0.2003 -0.3586
   28HK4     H2 2315  10.767   5.755   5.203  0.0279 -0.1980  1.1817
   28HK4     C1 2316  10.915   5.750   5.361  0.4559  0.1002 -0.2827
   28HK4     H1 2317  10.849   5.693   5.429  1.3750 -1.3119 -0.5641
   28HK4     C6 2318  11.049   5.776   5.396  0.2887 -0.1081  0.5321
   28HK4     C5 2319  11.140   5.814   5.296 -0.1619 -0.7380 -0.1256
   28HK4    C10 2320   0.039   5.789   5.296 -0.0212  0.1094 -0.0227
   28HK4     O1 2321   0.083   5.719   5.386 -0.1660  0.1028  0.0436
   28HK4    C16 2322  11.088   5.761   5.537  0.6706 -0.2124  0.4161
   28HK4    C15 2323  11.011   5.686   5.628 -0.0602 -0.0149 -0.0367
   28HK4     H7 2324  10.956   5.596   5.595  0.4466 -0.2369 -0.2756
   28HK4    C20 2325  11.020   5.709   5.764  0.1720 -0.1164 -0.0353
   28HK4     H9 2326  10.962   5.650   5.835  1.0992 -1.0226 -0.0186
   28HK4    C19 2327  11.111   5.799   5.821 -0.3327  0.0657  0.4901
   28HK4    C18 2328  11.192   5.876   5.729 -0.5181 -0.0088  0.2620
   28HK4    C17 2329  11.168   5.859   5.593  0.5451  0.1002  0.0566
   28HK4     H8 2330  11.216   5.928   5.523  0.4282 -0.4282 -0.5448
   28HK4     N1 2331   0.045   5.950   5.795 -0.2306  0.1534 -0.3541
   28HK4    C21 2332   0.030   5.921   5.932 -0.1435  0.4370 -0.2827
   28HK4    C22 2333  11.176   5.819   5.949  0.3490  0.0072  0.1563
   28HK4    C26 2334  11.150   5.763   6.073  0.0377  0.1397  0.1529
   28HK4    H13 2335  11.069   5.692   6.085 -0.3341  0.2196 -1.7308
   28HK4    C25 2336  11.212   5.807   6.190  0.5438 -0.1172 -0.0171
   28HK4    H12 2337  11.189   5.782   6.294  1.9756 -0.6236  0.1939
   28HK4    C24 2338   0.055   5.910   6.173 -0.1727  0.5171 -0.0366
   28HK4    H11 2339   0.106   5.949   6.262  0.3792 -0.6414  0.1636
   28HK4    C23 2340   0.086   5.967   6.050 -0.0887  0.1398 -0.1912
   28HK4    H10 2341   0.150   6.055   6.042  0.1968  0.0439  0.8779
   28HK4    C39 2342   0.152   6.013   5.731  0.1421 -0.1842 -0.0535
   28HK4    C41 2343   0.219   6.118   5.797  0.1975  0.1728 -0.6757
   28HK4    H21 2344   0.154   6.174   5.867  0.4616  1.3819 -1.3824
   28HK4    C42 2345   0.336   6.171   5.745  0.1220  0.9071 -0.1213
   28HK4    H22 2346   0.382   6.264   5.782  0.3271  1.0924 -0.8239
   28HK4    C43 2347   0.399   6.120   5.632  0.2702  0.2739  0.2435
   28HK4    H23 2348   0.483   6.176   5.588 -0.3877  1.3790  0.3749
   28HK4    C44 2349   0.336   6.014   5.569  0.3909  0.0689  0.4680
   28HK4    H24 2350   0.378   5.974   5.475 -2.4180 -0.1716 -0.7354
   28HK4    C45 2351   0.214   5.965   5.614 -0.0557  0.3759 -0.3913
   28HK4    H25 2352   0.191   5.870   5.563 -0.0079  0.8404 -1.2853
   29HK4    H28 2353   9.891   4.428   6.336 -0.8027 -1.4757 -0.7375
   29HK4    C48 2354   9.788   4.461   6.345 -0.2912 -0.0386  0.1316
   29HK4    C47 2355   9.758   4.591   6.306  0.2390  0.1492  0.3467
   29HK4    H27 2356   9.838   4.663   6.284 -0.3448  0.3901 -0.9895
   29HK4    C46 2357   9.626   4.635   6.316  0.2622  0.0744  1.0481
   29HK4    H26 2358   9.606   4.741   6.294 -0.3901 -0.3524 -0.4575
   29HK4    C40 2359   9.526   4.549   6.367 -0.1734 -0.2009 -0.2716
   29HK4    C50 2360   9.562   4.415   6.393 -0.0818 -0.0824  0.2194
   29HK4    H30 2361   9.482   4.339   6.386  0.2334 -0.2214 -2.4360
   29HK4    C49 2362   9.693   4.369   6.387 -0.1042 -0.1625  0.2746
   29HK4    H29 2363   9.727   4.268   6.416 -1.0651 -0.7636 -0.6587
   29HK4     N2 2364   9.393   4.590   6.376 -0.0683  0.1266 -0.2058
   29HK4    C30 2365   9.339   4.700   6.306 -0.6252  0.2553  0.4226
   29HK4    C29 2366   9.359   4.740   6.175 -0.3296 -0.1710  0.3370
   29HK4    H15 2367   9.449   4.703   6.126 -0.1020  0.3244  0.3726
   29HK4    C28 2368   9.273   4.828   6.110 -0.1986 -0.5089 -0.2986
   29HK4    C27 2369   9.169   4.881   6.189  0.3507  0.1196  0.0130
   29HK4    H14 2370   9.096   4.954   6.150  1.2100  0.8481 -0.2328
   29HK4    C32 2371   9.144   4.845   6.321 -0.4013  0.1226 -0.1273
   29HK4    H16 2372   9.065   4.891   6.381  0.7418 -1.0092  2.2970
   29HK4    C31 2373   9.228   4.753   6.383 -0.9481 -0.1383  0.2343
   29HK4    C34 2374   9.206   4.672   6.501  0.6823 -0.0680  0.5966
   29HK4    C33 2375   9.310   4.571   6.489  0.4285 -0.2753  0.0937
   29HK4    C35 2376   9.334   4.483   6.593  0.4162  0.0561  0.3777
   29HK4    H17 2377   9.409   4.404   6.584 -1.0958 -1.2689 -1.0209
   29HK4    C36 2378   9.256   4.497   6.707  0.4210  0.2017  0.3624
   29HK4    H18 2379   9.271   4.418   6.782  0.4840 -0.6070 -0.4993
   29HK4    C37 2380   9.157   4.593   6.724 -0.4875 -0.6068 -0.2768
   29HK4    H19 2381   9.102   4.596   6.818  0.0217  0.4213  0.0048
   29HK4    C38 2382   9.133   4.680   6.618 -0.2748 -0.1911  0.0164
   29HK4    H20 2383   9.082   4.776   6.628 -0.1562  0.1144 -2.1014
   29HK4    C14 2384   9.311   4.874   5.975 -0.0557  0.1989 -0.0165
   29HK4     C9 2385   9.276   4.998   5.920 -0.2423  0.2041  0.1118
   29HK4     C8 2386   9.262   5.015   5.780 -0.1586 -0.3379  0.0345
   29HK4    C11 2387   9.295   4.911   5.694  0.7990  0.1755 -0.2282
   29HK4     H4 2388   9.261   4.917   5.590  0.5028 -1.0906 -0.2074
   29HK4    C12 2389   9.338   4.790   5.745 -0.5912 -0.0339  0.4823
   29HK4     H5 2390   9.381   4.723   5.668 -1.8838 -0.4631  0.1137
   29HK4    C13 2391   9.337   4.771   5.883  0.1152 -0.1951  0.4662
   29HK4     H6 2392   9.370   4.676   5.928  1.4763 -0.3497 -0.7904
   29HK4     C7 2393   9.221   5.144   5.720  0.4715 -0.3258 -0.3703
   29HK4     O2 2394   9.169   5.146   5.608 -0.0848  0.8573 -0.0959
   29HK4     C4 2395   9.211   5.259   5.812  0.2949 -0.3823 -0.3198
   29HK4     C3 2396   9.195   5.384   5.754 -0.0122 -0.6046 -0.7129
   29HK4     H3 2397   9.207   5.401   5.646  1.7346  0.8515 -0.3134
   29HK4     C2 2398   9.150   5.490   5.832  0.4651 -0.5061 -0.5749
   29HK4     H2 2399   9.159   5.593   5.795 -0.2963 -1.0904 -2.4385
   29HK4     C1 2400   9.116   5.463   5.965  0.3360  0.0726 -0.4920
   29HK4     H1 2401   9.089   5.552   6.024 -1.6235  0.9649 -2.6471
   29HK4     C6 2402   9.119   5.334   6.020  0.2416  0.3025  0.0624
   29HK4     C5 2403   9.189   5.235   5.949  0.1420  0.4194 -0.2018
   29HK4    C10 2404   9.251   5.114   6.010 -0.2289  0.3175 -0.0264
   29HK4     O1 2405   9.328   5.133   6.103  0.2310  0.0559 -0.3530
   29HK4    C16 2406   9.012   5.293   6.111  0.2839  0.0013 -0.0249
   29HK4    C15 2407   8.904   5.384   6.110  0.6851  0.4819  0.3414
   29HK4     H7 2408   8.872   5.418   6.011  2.9401 -0.9354 -0.9167
   29HK4    C20 2409   8.837   5.425   6.225 -0.4673  0.2143 -0.2287
   29HK4     H9 2410   8.758   5.500   6.228  0.5663  1.3755 -1.0604
   29HK4    C19 2411   8.876   5.370   6.347  0.1901  0.2551 -0.4159
   29HK4    C18 2412   8.981   5.271   6.351  0.5845  0.7020  0.2082
   29HK4    C17 2413   9.046   5.236   6.233  0.4334  0.5258  0.1768
   29HK4     H8 2414   9.131   5.168   6.239 -1.1526 -1.4969  0.2003
   29HK4     N1 2415   8.988   5.211   6.479  0.1826  0.4352  0.1024
   29HK4    C21 2416   8.888   5.273   6.557 -0.2781 -0.4131  0.1899
   29HK4    C22 2417   8.821   5.376   6.481  0.4463 -0.2922 -0.2863
   29HK4    C26 2418   8.730   5.465   6.537  0.0052 -0.8986 -0.0327
   29HK4    H13 2419   8.677   5.544   6.483 -0.1643 -1.0876 -0.1439
   29HK4    C25 2420   8.699   5.445   6.671 -0.1990 -0.3392  0.0053
   29HK4    H12 2421   8.615   5.503   6.710  0.8115 -0.0740  1.8374
   29HK4    C24 2422   8.756   5.343   6.746 -0.2937 -0.3513  0.0607
   29HK4    H11 2423   8.760   5.349   6.855 -1.3322 -0.3173  0.1066
   29HK4    C23 2424   8.851   5.258   6.690 -0.5304 -0.6382  0.0953
   29HK4    H10 2425   8.901   5.181   6.750 -1.2231 -0.5306  0.8231
   29HK4    C39 2426   9.100   5.146   6.531 -0.0288 -0.5950 -0.7067
   29HK4    C41 2427   9.091   5.051   6.635  0.5638 -0.5404 -0.6064
   29HK4    H21 2428   8.995   5.005   6.662 -0.4153  1.2299 -1.0140
   29HK4    C42 2429   9.203   5.005   6.704 -0.0562 -1.0567  0.0597
   29HK4    H22 2430   9.203   4.935   6.789  3.4753 -1.2152  0.0047
   29HK4    C43 2431   9.330   5.050   6.671 -0.4135 -0.0829 -0.0127
   29HK4    H23 2432   9.413   5.026   6.737  0.4546  0.7664 -0.7804
   29HK4    C44 2433   9.344   5.141   6.567  0.2371 -0.4819 -0.2746
   29HK4    H24 2434   9.442   5.190   6.553 -0.9887  1.4867 -2.2704
   29HK4    C45 2435   9.231   5.188   6.501  0.0922 -0.4967 -0.0411
   29HK4    H25 2436   9.245   5.277   6.437  1.7011 -0.8443 -0.1933
   30HK4    H28 2437   6.814   1.750   1.297 -0.2190  0.7254 -0.3262
   30HK4    C48 2438   6.883   1.716   1.219  0.1657  0.0556  0.2931
   30HK4    C47 2439   6.962   1.813   1.158 -0.2501  0.0082 -0.3273
   30HK4    H27 2440   6.955   1.920   1.183  2.3332 -0.1211  1.0760
   30HK4    C46 2441   7.071   1.768   1.085  0.6173  0.2972  0.7770
   30HK4    H26 2442   7.122   1.848   1.030  1.4083 -1.0610 -0.5152
   30HK4    C40 2443   7.101   1.631   1.069  0.4000  0.3456 -0.0600
   30HK4    C50 2444   7.013   1.538   1.129  0.1987  0.4382 -0.2056
   30HK4    H30 2445   7.050   1.435   1.138 -0.7079 -0.2156 -3.3505
   30HK4    C49 2446   6.902   1.580   1.202  0.3016  0.0925  0.1512
   30HK4    H29 2447   6.821   1.513   1.233  0.2402 -0.8280 -1.9010
   30HK4     N2 2448   7.176   1.580   0.962  0.1149  0.2043 -0.1951
   30HK4    C30 2449   7.194   1.660   0.847  0.0534  0.2490 -0.1739
   30HK4    C29 2450   7.099   1.714   0.761 -0.5449  0.2342  0.4770
   30HK4    H15 2451   7.002   1.742   0.800  0.1458  3.3910  0.0250
   30HK4    C28 2452   7.142   1.760   0.638 -0.1911 -0.0040  0.5102
   30HK4    C27 2453   7.279   1.769   0.603 -0.2976  0.3291  0.1675
   30HK4    H14 2454   7.307   1.833   0.518 -1.8074  1.2468  0.3429
   30HK4    C32 2455   7.374   1.713   0.687 -0.2684 -0.3013 -0.2832
   30HK4    H16 2456   7.464   1.674   0.639  0.0483 -1.9341  1.5672
   30HK4    C31 2457   7.333   1.653   0.806 -0.0341 -0.5680 -0.3379
   30HK4    C34 2458   7.398   1.561   0.897  0.2575 -0.1620 -0.1345
   30HK4    C33 2459   7.295   1.509   0.985  0.1731  0.3911  0.0937
   30HK4    C35 2460   7.316   1.390   1.054 -0.6154 -0.0625 -0.4407
   30HK4    H17 2461   7.242   1.355   1.126 -0.3027 -2.6775 -1.3022
   30HK4    C36 2462   7.437   1.322   1.043 -0.4086  0.2348  0.0177
   30HK4    H18 2463   7.472   1.238   1.105  0.0747 -1.3554 -2.3429
   30HK4    C37 2464   7.536   1.374   0.960  0.2030 -0.5659  0.2411
   30HK4    H19 2465   7.632   1.321   0.960  0.8791  0.6207  1.7568
   30HK4    C38 2466   7.517   1.490   0.886  0.1810 -0.4008  0.5030
   30HK4    H20 2467   7.596   1.530   0.822 -1.1069  1.4784  0.0736
   30HK4    C14 2468   7.045   1.776   0.529  0.0384 -0.0908  0.2925
   30HK4     C9 2469   7.070   1.742   0.395  0.4096  0.6234  0.1781
   30HK4     C8 2470   7.006   1.806   0.287 -0.5672 -0.3695  0.1667
   30HK4    C11 2471   6.898   1.890   0.318 -0.5815 -0.3568  0.0811
   30HK4     H4 2472   6.833   1.919   0.234 -3.1497 -3.4152  0.9302
   30HK4    C12 2473   6.862   1.918   0.449 -0.8444  0.1639 -0.1026
   30HK4     H5 2474   6.762   1.961   0.468 -1.5235 -1.7248  0.6776
   30HK4    C13 2475   6.937   1.864   0.552 -0.3257 -0.2650 -0.6969
   30HK4     H6 2476   6.891   1.862   0.652 -1.3877 -0.3098 -1.1834
   30HK4     C7 2477   7.069   1.803   0.154  0.3474  0.1591  0.5880
   30HK4     O2 2478   7.003   1.837   0.056  0.2723 -0.3562  0.4628
   30HK4     C4 2479   7.206   1.748   0.135  0.4585  0.6705 -0.1260
   30HK4     C3 2480   7.271   1.765   0.014 -0.1566  0.7857 -0.4475
   30HK4     H3 2481   7.223   1.810  11.174 -0.0662  0.0274 -0.8953
   30HK4     C2 2482   7.384   1.687  11.237 -0.4484  0.0449  0.5440
   30HK4     H2 2483   7.409   1.676  11.131  0.3904  0.3081  0.7108
   30HK4     C1 2484   7.439   1.611   0.091 -0.1330  0.1089  0.4217
   30HK4     H1 2485   7.536   1.562   0.074 -0.7382 -1.1020  0.4179
   30HK4     C6 2486   7.374   1.593   0.215 -0.0446  0.1851  0.4791
   30HK4     C5 2487   7.250   1.656   0.232 -0.0726  0.3214 -0.2166
   30HK4    C10 2488   7.171   1.639   0.357 -0.4645  0.0158 -0.5031
   30HK4     O1 2489   7.141   1.529   0.403  0.5910 -0.0524  0.0227
   30HK4    C16 2490   7.465   1.572   0.328  0.0884 -0.3200  0.2788
   30HK4    C15 2491   7.587   1.643   0.340  0.1107 -0.2704 -0.2539
   30HK4     H7 2492   7.616   1.713   0.260  1.9734 -1.7889 -0.9583
   30HK4    C20 2493   7.685   1.609   0.432  0.0380  0.1580 -0.0167
   30HK4     H9 2494   7.777   1.667   0.441  0.0779  0.1403 -0.2836
   30HK4    C19 2495   7.663   1.506   0.522 -0.0215 -0.2206 -0.4610
   30HK4    C18 2496   7.540   1.429   0.508 -0.3576  0.1358  0.4975
   30HK4    C17 2497   7.447   1.462   0.410 -0.1815 -0.3598  0.1662
   30HK4     H8 2498   7.376   1.385   0.379  1.3236 -2.0799  0.8855
   30HK4     N1 2499   7.532   1.317   0.593  0.1738 -0.3553 -0.0910
   30HK4    C21 2500   7.659   1.318   0.653  0.1186  0.2992  0.0246
   30HK4    C22 2501   7.743   1.431   0.617  0.0881  0.2595 -0.1765
   30HK4    C26 2502   7.871   1.453   0.667  0.2587 -0.6898 -0.1864
   30HK4    H13 2503   7.926   1.543   0.639  0.9557 -0.9539  0.3289
   30HK4    C25 2504   7.932   1.361   0.751  0.3878 -0.1628  0.3029
   30HK4    H12 2505   8.036   1.365   0.783  0.9128  0.0390 -1.3978
   30HK4    C24 2506   7.858   1.247   0.781  0.1255 -0.0263  0.1681
   30HK4    H11 2507   7.919   1.158   0.797  1.2718  0.5789 -0.7720
   30HK4    C23 2508   7.729   1.227   0.732  0.3182  0.0870 -0.3947
   30HK4    H10 2509   7.678   1.133   0.755  0.1989  0.7316  2.1175
   30HK4    C39 2510   7.418   1.249   0.639 -0.1567  0.3065  0.0807
   30HK4    C41 2511   7.436   1.121   0.694  0.5515  0.3693 -0.0009
   30HK4    H21 2512   7.521   1.055   0.669 -0.2430 -0.4740 -0.4886
   30HK4    C42 2513   7.333   1.071   0.774  0.1865 -0.3192 -0.8986
   30HK4    H22 2514   7.349   0.979   0.831  1.7240 -0.1483 -1.0291
   30HK4    C43 2515   7.221   1.148   0.802  0.4738 -0.1969 -0.0587
   30HK4    H23 2516   7.129   1.107   0.843  0.9798 -0.4105  0.8808
   30HK4    C44 2517   7.201   1.277   0.752  0.3533 -0.1412  0.1330
   30HK4    H24 2518   7.119   1.340   0.788  1.5405  2.3140 -1.3692
   30HK4    C45 2519   7.298   1.320   0.662 -0.0249  0.5410  0.0482
   30HK4    H25 2520   7.276   1.406   0.598  1.0792  0.2573 -0.7420
   31HK4    H28 2521   8.985   2.731   5.993 -0.6972  0.0131  1.0751
   31HK4    C48 2522   9.009   2.836   5.980  0.0637 -0.2106  0.6615
   31HK4    C47 2523   8.927   2.927   6.046 -0.2279  0.0805 -0.1022
   31HK4    H27 2524   8.871   2.904   6.137 -0.2095  0.4008 -0.0079
   31HK4    C46 2525   8.943   3.063   6.021 -0.6559  0.0160 -0.7313
   31HK4    H26 2526   8.889   3.130   6.090  1.4278  0.0050  0.9730
   31HK4    C40 2527   9.031   3.115   5.924  0.2319 -0.3005 -0.0993
   31HK4    C50 2528   9.102   3.018   5.851  0.5601 -0.1271 -0.0140
   31HK4    H30 2529   9.170   3.045   5.769  0.2827  1.6724  0.3259
   31HK4    C49 2530   9.092   2.882   5.878  0.5660  0.1107  1.2109
   31HK4    H29 2531   9.164   2.810   5.837  0.0697 -0.2288  0.9339
   31HK4     N2 2532   9.042   3.252   5.894  0.0948 -0.1309  0.6129
   31HK4    C30 2533   8.947   3.350   5.929  0.0002 -0.0195  0.0434
   31HK4    C29 2534   8.815   3.327   5.964 -0.0569 -0.1194 -0.2409
   31HK4    H15 2535   8.776   3.227   5.946  0.9321 -0.1294 -2.4935
   31HK4    C28 2536   8.735   3.431   6.010  0.5129 -0.1019  0.7141
   31HK4    C27 2537   8.791   3.559   6.024  0.3026 -0.0390  1.0073
   31HK4    H14 2538   8.751   3.641   6.086  2.9354  0.8261  1.6738
   31HK4    C32 2539   8.920   3.584   5.977 -0.0882 -0.0006 -0.0405
   31HK4    H16 2540   8.961   3.685   5.982 -1.9916  0.9456 -2.5554
   31HK4    C31 2541   9.002   3.485   5.924 -0.2017  0.0500 -0.3127
   31HK4    C34 2542   9.137   3.466   5.874 -0.1671 -0.2200 -0.1153
   31HK4    C33 2543   9.156   3.324   5.854 -0.2998 -0.1690 -0.6060
   31HK4    C35 2544   9.285   3.276   5.834 -0.0846  0.1794 -0.0624
   31HK4    H17 2545   9.318   3.172   5.845  1.1369  0.4266 -1.3800
   31HK4    C36 2546   9.394   3.361   5.831  0.1208 -0.0779  0.0620
   31HK4    H18 2547   9.493   3.329   5.795 -1.2858 -2.9987 -1.3872
   31HK4    C37 2548   9.372   3.496   5.857 -0.4198 -0.3119  0.8348
   31HK4    H19 2549   9.445   3.572   5.831 -0.0289 -0.2171  2.2002
   31HK4    C38 2550   9.246   3.552   5.877 -0.4596  0.1761 -0.6533
   31HK4    H20 2551   9.237   3.656   5.907  2.2412  0.0539  0.7591
   31HK4    C14 2552   8.590   3.417   6.034  0.3892 -0.4954 -0.2341
   31HK4     C9 2553   8.504   3.527   6.037  0.8100 -0.1869  0.8810
   31HK4     C8 2554   8.402   3.540   6.133 -0.0681  0.6362 -0.1447
   31HK4    C11 2555   8.378   3.437   6.223 -0.1626  0.1850 -0.6884
   31HK4     H4 2556   8.300   3.437   6.301  0.3414 -1.4957 -0.1558
   31HK4    C12 2557   8.445   3.316   6.207 -0.0031  0.2093 -0.2155
   31HK4     H5 2558   8.406   3.222   6.249 -0.1436 -0.9363 -2.7878
   31HK4    C13 2559   8.553   3.311   6.119 -0.3005 -0.5092 -0.5511
   31HK4     H6 2560   8.614   3.221   6.105  2.0012  0.4916  2.4041
   31HK4     C7 2561   8.328   3.666   6.158 -0.7165  0.2833 -0.2924
   31HK4     O2 2562   8.268   3.686   6.263  0.3488  0.0339  0.3667
   31HK4     C4 2563   8.356   3.778   6.065 -0.0601  0.0764 -0.3393
   31HK4     C3 2564   8.280   3.894   6.067 -0.0946  0.0498  0.0113
   31HK4     H3 2565   8.176   3.880   6.099  0.4677 -0.9415  1.4735
   31HK4     C2 2566   8.321   4.013   6.008 -0.0642 -0.1816 -0.4378
   31HK4     H2 2567   8.259   4.103   6.012  0.3748  0.1116 -0.2803
   31HK4     C1 2568   8.450   4.014   5.956  0.2127  0.4802  0.2753
   31HK4     H1 2569   8.493   4.111   5.927 -0.1856  1.1890  1.9727
   31HK4     C6 2570   8.525   3.896   5.937 -0.6865 -0.0055 -0.2712
   31HK4     C5 2571   8.472   3.776   5.984  0.0394 -0.2998 -0.1924
   31HK4    C10 2572   8.531   3.644   5.948  0.4054 -0.3386  0.5543
   31HK4     O1 2573   8.560   3.618   5.832  0.2357 -0.0545  0.4469
   31HK4    C16 2574   8.670   3.916   5.921 -0.8114  0.5772 -0.7436
   31HK4    C15 2575   8.742   4.008   6.000  0.4253 -0.8991 -0.1331
   31HK4     H7 2576   8.693   4.054   6.086  0.9816  1.0351 -0.8301
   31HK4    C20 2577   8.873   4.049   5.978  0.2729 -0.3096  0.0533
   31HK4     H9 2578   8.915   4.131   6.037 -0.4255 -0.0174  0.1499
   31HK4    C19 2579   8.948   3.995   5.874  0.2486 -0.4990  0.1357
   31HK4    C18 2580   8.876   3.907   5.784  0.1253 -0.5278  0.2618
   31HK4    C17 2581   8.745   3.871   5.813 -0.3138  0.5248 -0.3746
   31HK4     H8 2582   8.696   3.806   5.740  0.3169  0.9530 -1.1969
   31HK4     N1 2583   8.959   3.871   5.676 -0.0318 -0.0558 -0.0132
   31HK4    C21 2584   9.084   3.933   5.701 -0.0606  0.0857 -0.1922
   31HK4    C22 2585   9.074   4.027   5.811  0.1070 -0.1508  0.0255
   31HK4    C26 2586   9.192   4.086   5.856  0.1501  0.3542 -0.7331
   31HK4    H13 2587   9.184   4.141   5.950 -1.8773 -1.6102  0.3020
   31HK4    C25 2588   9.317   4.058   5.801  0.3498 -0.3766  0.0881
   31HK4    H12 2589   9.403   4.100   5.854 -0.8707  1.8824  0.3528
   31HK4    C24 2590   9.323   3.965   5.698 -0.0996 -0.7038  0.3556
   31HK4    H11 2591   9.421   3.950   5.652 -0.4855 -1.0794 -0.3471
   31HK4    C23 2592   9.208   3.907   5.645 -0.2069  0.4606 -0.6826
   31HK4    H10 2593   9.211   3.839   5.560 -0.7593 -0.8395  0.3321
   31HK4    C39 2594   8.929   3.766   5.589 -0.2157  0.1503 -0.1996
   31HK4    C41 2595   8.987   3.766   5.460  0.3368  0.3797  0.0465
   31HK4    H21 2596   8.976   3.862   5.406 -1.9588  0.1485  0.0723
   31HK4    C42 2597   9.016   3.652   5.386 -0.1802  0.3398 -0.0966
   31HK4    H22 2598   9.071   3.668   5.293  1.5488  2.0562  1.1800
   31HK4    C43 2599   8.988   3.527   5.440 -0.1283  0.1781 -0.4492
   31HK4    H23 2600   9.035   3.434   5.407 -1.4841 -1.1371  1.2795
   31HK4    C44 2601   8.926   3.525   5.564  0.4765  0.5384 -0.1408
   31HK4    H24 2602   8.905   3.429   5.612  1.6711  0.7913  0.9056
   31HK4    C45 2603   8.891   3.639   5.637  0.0703  0.2077  0.1813
   31HK4    H25 2604   8.834   3.630   5.730 -1.2014  2.2258 -0.3814
   32HK4    H28 2605   3.020   0.610   2.102  0.7230 -0.4321  1.9195
   32HK4    C48 2606   3.088   0.540   2.054 -0.2765 -0.1861  0.1020
   32HK4    C47 2607   3.098   0.539   1.915  0.1913  0.9065  0.1248
   32HK4    H27 2608   3.041   0.612   1.855 -0.0083  1.8261  1.4075
   32HK4    C46 2609   3.179   0.445   1.852 -0.5356 -0.0059  0.5369
   32HK4    H26 2610   3.212   0.469   1.750  0.2198  1.5524  1.1309
   32HK4    C40 2611   3.251   0.349   1.925 -0.1201  0.0041  0.1400
   32HK4    C50 2612   3.247   0.362   2.065 -0.3540  0.0550  0.1281
   32HK4    H30 2613   3.327   0.314   2.124  1.1770  2.4402  0.0355
   32HK4    C49 2614   3.169   0.457   2.130 -0.2399  0.0319  0.2982
   32HK4    H29 2615   3.163   0.457   2.240  0.7125  1.6594  0.3722
   32HK4     N2 2616   3.280   0.226   1.864  0.3904  0.3467 -0.3076
   32HK4    C30 2617   3.384   0.147   1.918 -0.2243  0.2037  0.6692
   32HK4    C29 2618   3.516   0.184   1.941 -0.0329 -0.1951  0.2354
   32HK4    H15 2619   3.558   0.263   1.879 -0.8078 -1.0191 -1.3778
   32HK4    C28 2620   3.600   0.098   2.010  0.4808 -0.0849 -0.2543
   32HK4    C27 2621   3.544  11.219   2.039  0.3015  0.0758  0.1000
   32HK4    H14 2622   3.572  11.171   2.134  2.7164 -0.6738 -0.9455
   32HK4    C32 2623   3.426  11.168   1.988 -0.0672  0.5179  0.4967
   32HK4    H16 2624   3.393  11.065   2.003 -0.3228  0.3585 -1.0407
   32HK4    C31 2625   3.342   0.008   1.921 -0.1045  0.1524  0.0564
   32HK4    C34 2626   3.218  11.248   1.845 -0.0817 -0.2101  0.0584
   32HK4    C33 2627   3.180   0.137   1.819  0.2849 -0.0013  0.6156
   32HK4    C35 2628   3.065   0.166   1.747  0.8418 -0.3706 -0.4242
   32HK4    H17 2629   3.036   0.269   1.729 -0.4561 -0.1825  2.5671
   32HK4    C36 2630   2.984   0.061   1.706 -0.1401 -0.0055  0.5909
   32HK4    H18 2631   2.912   0.090   1.628  1.0650 -0.3882 -0.6667
   32HK4    C37 2632   3.012  11.177   1.740 -0.2524 -0.1145  0.2644
   32HK4    H19 2633   2.946  11.099   1.703 -1.7645  0.4314  1.7759
   32HK4    C38 2634   3.128  11.148   1.810 -0.0146 -0.1924 -0.1591
   32HK4    H20 2635   3.158  11.045   1.831 -0.2627 -0.1313  0.5198
   32HK4    C14 2636   3.720   0.141   2.083 -0.0230 -0.0017  0.5342
   32HK4     C9 2637   3.802   0.059   2.162 -0.1657 -0.3071  0.3671
   32HK4     C8 2638   3.881   0.118   2.262 -0.0718 -0.0792  0.1604
   32HK4    C11 2639   3.890   0.256   2.276  0.6756 -0.0277 -0.8367
   32HK4     H4 2640   3.916   0.288   2.378  0.4551 -2.9376  0.1602
   32HK4    C12 2641   3.822   0.342   2.190 -0.0727 -0.2926 -0.5166
   32HK4     H5 2642   3.836   0.451   2.190  0.8726 -0.3892  2.2304
   32HK4    C13 2643   3.741   0.280   2.096 -0.8734  0.1927 -0.1458
   32HK4     H6 2644   3.682   0.344   2.029  1.0395  1.2919 -0.7944
   32HK4     C7 2645   3.955   0.034   2.360 -0.2627 -0.1160  0.2739
   32HK4     O2 2646   4.037   0.081   2.438 -0.1241 -0.1013  0.1192
   32HK4     C4 2647   3.944  11.135   2.352 -0.5892 -0.0733 -0.0901
   32HK4     C3 2648   4.011  11.052   2.440  0.4023  0.1009 -0.6705
   32HK4     H3 2649   4.063  11.103   2.522  1.0974 -1.7839  0.1060
   32HK4     C2 2650   4.016  10.913   2.435 -0.1091  0.0350  0.3694
   32HK4     H2 2651   4.081  10.861   2.506  0.0082 -0.2034  0.0870
   32HK4     C1 2652   3.931  10.857   2.340  0.0219 -0.2311  0.4099
   32HK4     H1 2653   3.926  10.747   2.328 -1.3149  0.0009 -1.3961
   32HK4     C6 2654   3.842  10.933   2.262  0.0137 -0.1909  0.4608
   32HK4     C5 2655   3.866  11.070   2.254  0.3226 -0.3098 -0.6685
   32HK4    C10 2656   3.815  11.159   2.146 -0.5753 -0.2803 -0.2257
   32HK4     O1 2657   3.851  11.122   2.034 -0.1470  0.3224 -0.2892
   32HK4    C16 2658   3.704  10.881   2.257  0.0527 -0.3001  0.5140
   32HK4    C15 2659   3.666  10.779   2.346  0.0343 -0.4010  0.3911
   32HK4     H7 2660   3.699  10.784   2.451 -0.4226 -2.0093  0.6314
   32HK4    C20 2661   3.562  10.690   2.318  0.3321 -0.5821 -0.1393
   32HK4     H9 2662   3.524  10.619   2.391 -0.9366  0.8583  0.6272
   32HK4    C19 2663   3.500  10.701   2.194 -0.0109  0.1351  0.0889
   32HK4    C18 2664   3.535  10.807   2.102  0.0994 -0.0329 -0.0641
   32HK4    C17 2665   3.633  10.899   2.139  0.3011 -0.4123  0.3474
   32HK4     H8 2666   3.644  10.986   2.075 -1.8738  0.4686  1.1337
   32HK4     N1 2667   3.458  10.792   1.985  0.1100 -0.0433 -0.0708
   32HK4    C21 2668   3.398  10.665   1.998 -0.3600  0.1756 -0.0878
   32HK4    C22 2669   3.416  10.603   2.128  0.5306 -0.0595 -0.3187
   32HK4    C26 2670   3.359  10.483   2.168 -0.2860  0.3324 -0.2934
   32HK4    H13 2671   3.389  10.428   2.257  1.4917 -2.4746 -2.5517
   32HK4    C25 2672   3.274  10.424   2.075  0.1903 -0.4879 -0.2122
   32HK4    H12 2673   3.215  10.338   2.106  2.1577 -1.7015  0.2537
   32HK4    C24 2674   3.250  10.480   1.950 -0.2513  0.0736  0.1226
   32HK4    H11 2675   3.192  10.422   1.877  1.3326  0.8506 -1.7890
   32HK4    C23 2676   3.309  10.600   1.914 -0.5033  0.1796  0.0608
   32HK4    H10 2677   3.288  10.641   1.814 -2.8892 -1.0315  0.0194
   32HK4    C39 2678   3.488  10.858   1.865  0.2751 -0.3814 -0.2151
   32HK4    C41 2679   3.393  10.872   1.762  0.2118  0.7167 -0.0128
   32HK4    H21 2680   3.286  10.866   1.785  0.6390 -1.4800  1.5241
   32HK4    C42 2681   3.433  10.915   1.636 -0.2906  0.8121 -0.1420
   32HK4    H22 2682   3.360  10.918   1.554  0.0046 -1.0147 -0.4905
   32HK4    C43 2683   3.566  10.946   1.606 -0.0099 -0.1718  0.0605
   32HK4    H23 2684   3.584  10.977   1.503  0.3862 -6.3387 -1.9288
   32HK4    C44 2685   3.664  10.927   1.702  0.4986 -0.3657 -0.4979
   32HK4    H24 2686   3.768  10.963   1.690  0.3140  0.2587 -0.2364
   32HK4    C45 2687   3.622  10.874   1.823  0.1467 -0.5079 -0.6810
   32HK4    H25 2688   3.699  10.860   1.901 -0.7846  0.8380  0.5232
   33HK4    H28 2689   0.435   2.985   5.475 -0.9556  2.6601  1.3384
   33HK4    C48 2690   0.334   2.946   5.477  0.1262 -0.3417 -0.0976
   33HK4    C47 2691   0.239   3.014   5.552  0.3560 -0.1449  0.0151
   33HK4    H27 2692   0.270   3.095   5.621  1.1408  0.3927 -0.9533
   33HK4    C46 2693   0.104   2.981   5.565  0.2300  0.0002 -0.8977
   33HK4    H26 2694   0.052   3.026   5.650 -0.7242 -0.9561 -0.9660
   33HK4    C40 2695   0.051   2.876   5.487 -0.0708 -0.5486  0.0391
   33HK4    C50 2696   0.145   2.804   5.411  0.1464 -0.1233 -0.0950
   33HK4    H30 2697   0.112   2.742   5.326  3.6116 -0.1771 -1.5136
   33HK4    C49 2698   0.280   2.840   5.406  0.2133 -0.3780 -0.1100
   33HK4    H29 2699   0.345   2.764   5.361 -0.1501 -0.8824  0.2058
   33HK4     N2 2700  11.175   2.817   5.513 -0.2253 -0.3068 -0.1437
   33HK4    C30 2701  11.107   2.810   5.637 -0.1137 -0.1712 -0.0757
   33HK4    C29 2702  11.162   2.783   5.761 -0.4323  0.7038  0.2571
   33HK4    H15 2703   0.022   2.773   5.767 -0.0941  4.5726  3.4313
   33HK4    C28 2704  11.089   2.735   5.870 -0.1485  0.4019  0.3159
   33HK4    C27 2705  10.948   2.735   5.858 -0.1242 -0.3446 -0.0059
   33HK4    H14 2706  10.891   2.707   5.948 -0.9232 -0.0874 -0.4276
   33HK4    C32 2707  10.885   2.778   5.742  0.1175  0.3383  0.1124
   33HK4    H16 2708  10.777   2.791   5.737 -0.0223 -1.4692 -2.5718
   33HK4    C31 2709  10.962   2.805   5.630 -0.1300  0.2812 -0.0725
   33HK4    C34 2710  10.944   2.804   5.486 -0.0501  0.3546 -0.0841
   33HK4    C33 2711  11.071   2.807   5.417 -0.1174 -0.3956 -0.2510
   33HK4    C35 2712  11.073   2.768   5.284  0.3961 -0.5817 -0.1903
   33HK4    H17 2713  11.164   2.776   5.224  0.4935 -1.0466 -0.1045
   33HK4    C36 2714  10.963   2.735   5.206 -0.1215  0.1367  0.2353
   33HK4    H18 2715  10.974   2.721   5.098  1.1905  2.2180  0.0664
   33HK4    C37 2716  10.843   2.746   5.276 -0.2126 -0.0368  0.1072
   33HK4    H19 2717  10.751   2.730   5.220  1.8180 -1.9503 -2.7961
   33HK4    C38 2718  10.830   2.787   5.408 -0.0934  0.5321 -0.0561
   33HK4    H20 2719  10.735   2.795   5.461  1.1856  1.5961  2.1889
   33HK4    C14 2720  11.164   2.663   5.973  0.2997  0.0265 -0.2658
   33HK4     C9 2721  11.118   2.560   6.057 -0.1486  0.2868 -0.1837
   33HK4     C8 2722  11.169   2.543   6.187  0.1801  0.4412 -0.2879
   33HK4    C11 2723   0.032   2.618   6.223  0.6166 -0.3344 -0.0161
   33HK4     H4 2724   0.077   2.598   6.322 -0.3362 -0.7665  0.3430
   33HK4    C12 2725   0.087   2.719   6.145 -0.4121  0.1433 -0.1421
   33HK4     H5 2726   0.169   2.781   6.185  0.3831 -1.1310  0.2657
   33HK4    C13 2727   0.028   2.733   6.020  0.2009  0.2848 -0.4185
   33HK4     H6 2728   0.044   2.831   5.973 -0.7073  0.7436  0.2069
   33HK4     C7 2729  11.089   2.468   6.287  0.1315 -0.2528 -0.8463
   33HK4     O2 2730  11.150   2.419   6.383 -0.6990  0.2665 -0.0500
   33HK4     C4 2731  10.952   2.424   6.254 -0.3878  0.6224  0.1291
   33HK4     C3 2732  10.875   2.372   6.358  0.0435  0.0571  0.1697
   33HK4     H3 2733  10.919   2.362   6.458 -0.4034 -0.4759  0.3122
   33HK4     C2 2734  10.746   2.327   6.333 -0.2007  0.9339 -0.1799
   33HK4     H2 2735  10.696   2.269   6.412 -0.4778  0.5762 -0.6149
   33HK4     C1 2736  10.689   2.346   6.208 -0.0559 -0.0121 -0.3913
   33HK4     H1 2737  10.583   2.325   6.187  0.1312 -1.1881 -0.2032
   33HK4     C6 2738  10.764   2.406   6.105  0.2421  0.5081  0.1246
   33HK4     C5 2739  10.900   2.432   6.123  0.4428 -0.2434 -0.2596
   33HK4    C10 2740  10.994   2.485   6.020  0.0002  0.1690 -0.4547
   33HK4     O1 2741  10.988   2.434   5.909 -0.1236  0.3093 -0.5129
   33HK4    C16 2742  10.685   2.485   6.010 -0.4099 -0.0645  0.1828
   33HK4    C15 2743  10.565   2.551   6.045 -0.1546  0.6335 -0.2594
   33HK4     H7 2744  10.560   2.575   6.152 -1.1324  0.5692 -0.2912
   33HK4    C20 2745  10.466   2.585   5.954 -0.5863 -0.4498 -0.1961
   33HK4     H9 2746  10.376   2.637   5.986  1.2891  2.8424 -0.0371
   33HK4    C19 2747  10.479   2.551   5.819 -0.0112  0.1304 -0.2872
   33HK4    C18 2748  10.598   2.478   5.779  0.1513  0.3156 -0.1478
   33HK4    C17 2749  10.689   2.444   5.878 -0.4109 -0.1613  0.2118
   33HK4     H8 2750  10.758   2.362   5.862 -1.1612 -0.5111 -1.3204
   33HK4     N1 2751  10.595   2.456   5.639 -0.3093 -0.7565  0.0219
   33HK4    C21 2752  10.485   2.532   5.595  0.2144  0.1069  0.1766
   33HK4    C22 2753  10.403   2.588   5.702 -0.1221  0.2769 -0.1704
   33HK4    C26 2754  10.291   2.665   5.672  0.3455  1.1367  0.2910
   33HK4    H13 2755  10.211   2.668   5.745  0.1602  1.5801  0.0714
   33HK4    C25 2756  10.259   2.693   5.540  0.5440 -0.5167 -0.1200
   33HK4    H12 2757  10.154   2.715   5.522  0.7788 -0.2904 -1.2447
   33HK4    C24 2758  10.334   2.635   5.439  0.5738 -0.2955 -0.2257
   33HK4    H11 2759  10.315   2.667   5.335  0.1313  2.0013  0.5395
   33HK4    C23 2760  10.442   2.551   5.465  0.4392 -0.3916  0.0285
   33HK4    H10 2761  10.513   2.531   5.384 -0.7090 -0.1102 -1.0751
   33HK4    C39 2762  10.697   2.410   5.554  0.2306 -0.6959  0.6288
   33HK4    C41 2763  10.670   2.339   5.436  0.2345 -0.1293  0.2838
   33HK4    H21 2764  10.564   2.310   5.431  0.0402 -0.1768  3.4772
   33HK4    C42 2765  10.767   2.332   5.337  0.1087 -0.2174  0.1661
   33HK4    H22 2766  10.732   2.285   5.244 -1.4078 -1.0492  1.1483
   33HK4    C43 2767  10.886   2.402   5.351 -0.4355  0.6881  0.3578
   33HK4    H23 2768  10.964   2.403   5.275 -0.1383  0.9959  0.6653
   33HK4    C44 2769  10.922   2.466   5.469  0.5610 -0.1835  0.5342
   33HK4    H24 2770  11.020   2.514   5.486  1.1718 -1.2373  0.0137
   33HK4    C45 2771  10.824   2.470   5.567  0.2275 -0.5931  0.2155
   33HK4    H25 2772  10.858   2.507   5.665  0.5855  0.5116 -0.3284
   34HK4    H28 2773   5.941   0.107  10.792  1.2214  0.3843 -1.3505
   34HK4    C48 2774   5.902   0.196  10.743 -0.2879  0.3041 -0.3385
   34HK4    C47 2775   5.940   0.221  10.612  0.3260 -0.6388 -0.3449
   34HK4    H27 2776   6.034   0.170  10.586  0.0490  0.4854 -3.8659
   34HK4    C46 2777   5.845   0.273  10.525  0.1813 -0.0773  0.1450
   34HK4    H26 2778   5.869   0.288  10.419 -2.4348  0.2045 -0.4623
   34HK4    C40 2779   5.724   0.330  10.570  0.2774  0.3148 -0.0901
   34HK4    C50 2780   5.699   0.315  10.708 -0.6940 -0.1125 -0.3035
   34HK4    H30 2781   5.608   0.354  10.756  1.7019  3.1756  1.8348
   34HK4    C49 2782   5.784   0.247  10.796 -0.2564  0.3824 -0.3426
   34HK4    H29 2783   5.757   0.219  10.899  0.6971 -1.9384 -0.7086
   34HK4     N2 2784   5.611   0.338  10.488  0.0483 -0.0592  0.1851
   34HK4    C30 2785   5.573   0.271  10.369 -0.2865 -0.1233  0.3300
   34HK4    C29 2786   5.645   0.174  10.301  0.1010  0.7097 -0.4604
   34HK4    H15 2787   5.667   0.080  10.353 -1.3401  1.0832  0.8759
   34HK4    C28 2788   5.623   0.153  10.166 -0.3040 -0.2999 -0.2481
   34HK4    C27 2789   5.513   0.221  10.109  0.2322  0.0596 -0.8643
   34HK4    H14 2790   5.502   0.208  10.000  0.9022  0.1923 -0.9525
   34HK4    C32 2791   5.426   0.302  10.180  0.6360 -0.0797 -0.2061
   34HK4    H16 2792   5.334   0.339  10.133  0.8725  0.1329 -0.5055
   34HK4    C31 2793   5.455   0.334  10.312 -0.1362 -0.1496 -0.0164
   34HK4    C34 2794   5.424   0.448  10.396  0.0713 -0.1204  0.0245
   34HK4    C33 2795   5.527   0.450  10.499  0.5145  0.3571 -0.4214
   34HK4    C35 2796   5.523   0.541  10.604 -0.3876 -0.2980  0.1208
   34HK4    H17 2797   5.611   0.563  10.665 -0.9056 -2.2335  1.5994
   34HK4    C36 2798   5.413   0.625  10.612 -0.0305  0.2008 -0.1777
   34HK4    H18 2799   5.401   0.697  10.695  0.4350  1.1076 -0.8877
   34HK4    C37 2800   5.318   0.631  10.510 -0.3340 -0.1705  0.0841
   34HK4    H19 2801   5.237   0.704  10.511 -0.7697 -0.6118 -1.4600
   34HK4    C38 2802   5.321   0.542  10.403  0.3302  0.1819 -0.1938
   34HK4    H20 2803   5.245   0.536  10.326  0.2986  0.6252 -0.1958
   34HK4    C14 2804   5.738   0.116  10.082  0.0483  0.1295  0.0381
   34HK4     C9 2805   5.768   0.179   9.960 -0.1340  0.0763 -0.0348
   34HK4     C8 2806   5.809   0.099   9.851 -0.0070  0.1350 -0.0270
   34HK4    C11 2807   5.833  11.211   9.862  0.0213  0.1555  0.1760
   34HK4     H4 2808   5.836  11.140   9.777 -2.1047  0.0676  0.1473
   34HK4    C12 2809   5.812  11.153   9.986 -0.1598  0.0007  0.0756
   34HK4     H5 2810   5.849  11.050  10.002  2.2010  0.7795 -0.1500
   34HK4    C13 2811   5.776  11.229  10.097  0.6765  0.3168  0.1311
   34HK4     H6 2812   5.773  11.182  10.196 -4.1077 -0.2732 -0.2000
   34HK4     C7 2813   5.857   0.162   9.726 -0.0664  0.2007 -0.0178
   34HK4     O2 2814   5.903   0.099   9.631 -0.2067  0.2237 -0.1003
   34HK4     C4 2815   5.839   0.308   9.709  0.2396  0.2439  0.0227
   34HK4     C3 2816   5.899   0.376   9.604  0.1173  0.0269 -0.1858
   34HK4     H3 2817   5.966   0.323   9.534 -0.2358 -1.6883  0.7290
   34HK4     C2 2818   5.866   0.507   9.573 -0.5881 -0.2797 -0.7711
   34HK4     H2 2819   5.897   0.540   9.472  0.5809 -0.3219 -0.4398
   34HK4     C1 2820   5.777   0.578   9.654  0.3196 -0.2725  0.2335
   34HK4     H1 2821   5.750   0.680   9.624 -2.2696 -0.6297  1.2660
   34HK4     C6 2822   5.724   0.515   9.768 -0.0480 -0.1921  0.1065
   34HK4     C5 2823   5.761   0.384   9.799 -0.8292 -0.5035 -0.2680
   34HK4    C10 2824   5.750   0.325   9.936 -0.4092  0.0501  0.0078
   34HK4     O1 2825   5.775   0.405  10.025  0.2966 -0.3478  0.1711
   34HK4    C16 2826   5.622   0.598   9.833  0.3124  0.0755  0.3293
   34HK4    C15 2827   5.513   0.533   9.896 -0.3270  0.2935 -0.5393
   34HK4     H7 2828   5.509   0.429   9.861  0.3284 -0.2823  1.0863
   34HK4    C20 2829   5.420   0.601   9.973  0.0911  0.1662  0.0790
   34HK4     H9 2830   5.332   0.548  10.011  0.9022 -0.5591  0.9752
   34HK4    C19 2831   5.445   0.736   9.996 -0.2307  0.2735 -0.1952
   34HK4    C18 2832   5.550   0.807   9.926 -0.2863  0.0969 -0.4611
   34HK4    C17 2833   5.642   0.735   9.849  0.3178  0.0822  0.2661
   34HK4     H8 2834   5.738   0.781   9.831  0.1929  1.0302  1.8838
   34HK4     N1 2835   5.560   0.943   9.962 -0.0068 -0.0911  0.1653
   34HK4    C21 2836   5.453   0.959  10.053 -0.2471  0.1355 -0.1559
   34HK4    C22 2837   5.380   0.836  10.078 -0.1236  0.1118  0.0820
   34HK4    C26 2838   5.298   0.819  10.189 -0.0867 -0.4376  0.0303
   34HK4    H13 2839   5.235   0.730  10.193 -1.1643  0.1714 -2.3412
   34HK4    C25 2840   5.280   0.926  10.276  0.3929 -0.1514 -0.2225
   34HK4    H12 2841   5.211   0.915  10.360  0.0090  0.7787 -0.4152
   34HK4    C24 2842   5.344   1.048  10.254  0.0192  0.0610 -0.1301
   34HK4    H11 2843   5.345   1.137  10.318  1.7205 -0.2081  0.2408
   34HK4    C23 2844   5.422   1.062  10.140 -0.4079  0.2909 -0.3974
   34HK4    H10 2845   5.456   1.165  10.126 -1.0750  0.9356  2.4772
   34HK4    C39 2846   5.603   1.049   9.882 -0.7780  0.3427  0.3278
   34HK4    C41 2847   5.596   1.040   9.741 -0.0745 -0.2905  0.3308
   34HK4    H21 2848   5.546   0.961   9.683 -0.6368 -0.3463  0.8800
   34HK4    C42 2849   5.655   1.142   9.667 -0.3654 -0.1797  0.2462
   34HK4    H22 2850   5.648   1.140   9.557  2.2268  0.5639  0.0351
   34HK4    C43 2851   5.713   1.256   9.721  0.3029 -0.3981 -0.0017
   34HK4    H23 2852   5.778   1.311   9.652 -2.5657  1.2226 -1.4898
   34HK4    C44 2853   5.707   1.272   9.859 -0.0469 -0.5728  0.0002
   34HK4    H24 2854   5.711   1.370   9.909 -1.9275 -0.9036  0.8447
   34HK4    C45 2855   5.660   1.166   9.935 -0.2279 -0.0533  0.6147
   34HK4    H25 2856   5.692   1.164  10.041  1.1510  0.4258  0.2219
   35HK4    H28 2857   7.892   7.699  10.274 -0.2827 -0.0745 -0.3173
   35HK4    C48 2858   7.962   7.709  10.191  0.3420  0.1098  0.2300
   35HK4    C47 2859   8.084   7.643  10.190  0.2563 -0.0410 -0.4399
   35HK4    H27 2860   8.082   7.549  10.246 -0.8222  0.2645  0.0369
   35HK4    C46 2861   8.189   7.669  10.102  0.0887  0.1309 -0.5885
   35HK4    H26 2862   8.280   7.608  10.107  0.5124  0.6454 -1.7845
   35HK4    C40 2863   8.175   7.763   9.998 -0.6420 -0.4275 -0.9928
   35HK4    C50 2864   8.049   7.826  10.000 -0.3321  0.1651  0.5167
   35HK4    H30 2865   8.029   7.914   9.937  0.8325  0.8157  1.0500
   35HK4    C49 2866   7.944   7.801  10.088 -0.4816  0.0395  0.3059
   35HK4    H29 2867   7.841   7.834  10.073 -0.4347  1.1065  2.2325
   35HK4     N2 2868   8.284   7.811   9.924  0.1510 -0.1192  0.3746
   35HK4    C30 2869   8.418   7.810   9.966  0.4209 -0.2759 -0.4981
   35HK4    C29 2870   8.471   7.801  10.094  0.4427  0.0559 -0.4798
   35HK4    H15 2871   8.410   7.830  10.181 -0.3633 -0.4799 -0.8586
   35HK4    C28 2872   8.608   7.801  10.113  0.4247 -0.1638 -0.3446
   35HK4    C27 2873   8.685   7.810   9.995  0.1905 -0.4155 -0.5143
   35HK4    H14 2874   8.789   7.776   9.996  2.3026  5.4864 -0.2156
   35HK4    C32 2875   8.636   7.835   9.867 -0.1011 -0.1313 -0.3508
   35HK4    H16 2876   8.703   7.878   9.792 -0.4856 -1.2164 -1.3377
   35HK4    C31 2877   8.499   7.842   9.849 -0.0440  0.0353 -0.7341
   35HK4    C34 2878   8.407   7.855   9.738 -0.1989 -0.2873 -0.6433
   35HK4    C33 2879   8.272   7.845   9.788  0.1456 -1.0061  0.1553
   35HK4    C35 2880   8.167   7.873   9.701  0.5793  0.0331 -0.0310
   35HK4    H17 2881   8.061   7.868   9.726 -0.0495 -2.5266 -2.8676
   35HK4    C36 2882   8.200   7.916   9.573 -0.2420  0.0468 -0.2457
   35HK4    H18 2883   8.123   7.965   9.511 -0.7532 -1.7250 -1.0610
   35HK4    C37 2884   8.329   7.924   9.522 -0.1457  0.3561  0.0458
   35HK4    H19 2885   8.348   7.946   9.417 -1.4042 -3.9729 -1.2028
   35HK4    C38 2886   8.435   7.898   9.608  0.1820  0.7152 -0.2396
   35HK4    H20 2887   8.538   7.900   9.573 -0.5167  0.7984 -2.3321
   35HK4    C14 2888   8.673   7.794  10.245 -0.0650  0.2872 -0.0769
   35HK4     C9 2889   8.803   7.845  10.264 -0.0279  0.0409  0.3430
   35HK4     C8 2890   8.883   7.795  10.368  0.0716  0.0199  0.2588
   35HK4    C11 2891   8.827   7.704  10.457 -0.0909  0.0592  0.1976
   35HK4     H4 2892   8.892   7.655  10.531  0.6790  1.2897  0.3400
   35HK4    C12 2893   8.698   7.654  10.444  0.1209 -0.3788 -0.2514
   35HK4     H5 2894   8.643   7.588  10.513 -4.2902  2.0387 -1.2748
   35HK4    C13 2895   8.625   7.696  10.333 -0.0313  0.4949  0.1696
   35HK4     H6 2896   8.538   7.636  10.302  0.1808 -0.4403  1.3482
   35HK4     C7 2897   9.026   7.829  10.360  0.0684 -0.0391 -0.0606
   35HK4     O2 2898   9.103   7.766  10.433  0.3195  0.3236 -0.0066
   35HK4     C4 2899   9.074   7.934  10.268  0.3852  0.1120  0.2718
   35HK4     C3 2900   9.212   7.950  10.263  0.4004 -0.0577  0.1554
   35HK4     H3 2901   9.264   7.947  10.360 -0.1321  0.5736  0.4650
   35HK4     C2 2902   9.272   7.996  10.146 -0.0435  0.6312  0.1874
   35HK4     H2 2903   9.380   7.989  10.124 -0.4628 -3.3998 -1.0154
   35HK4     C1 2904   9.192   8.050  10.046 -0.2411 -0.4900 -0.2658
   35HK4     H1 2905   9.247   8.090   9.960 -1.2607 -1.8552 -1.5640
   35HK4     C6 2906   9.051   8.048  10.053 -0.2345 -0.9199 -0.1886
   35HK4     C5 2907   8.993   7.991  10.167  0.0867 -0.0356  0.4239
   35HK4    C10 2908   8.848   7.964  10.186  0.0714  0.1573  0.5783
   35HK4     O1 2909   8.769   8.057  10.170 -0.2397 -0.1108  0.5376
   35HK4    C16 2910   8.981   8.046   9.924 -0.6193 -0.3935  0.0070
   35HK4    C15 2911   9.033   7.975   9.814 -0.6265  0.1647 -0.3564
   35HK4     H7 2912   9.128   7.920   9.817 -0.3163  0.6771 -0.8080
   35HK4    C20 2913   8.972   7.989   9.689  0.3905 -0.0039 -0.8743
   35HK4     H9 2914   9.030   7.950   9.606  1.1521 -1.1096  0.1541
   35HK4    C19 2915   8.867   8.078   9.672  0.5304  0.2648 -0.3587
   35HK4    C18 2916   8.813   8.150   9.786  0.0884 -0.2748 -0.2257
   35HK4    C17 2917   8.879   8.138   9.907  0.3773  0.6777 -0.2850
   35HK4     H8 2918   8.865   8.215   9.984 -1.5583  0.4550 -0.3828
   35HK4     N1 2919   8.693   8.217   9.750  0.1968 -0.0483 -0.1674
   35HK4    C21 2920   8.674   8.192   9.613  0.4748  0.2536 -0.2638
   35HK4    C22 2921   8.777   8.104   9.561  0.3456  0.0870 -0.2478
   35HK4    C26 2922   8.759   8.045   9.436 -0.3402  0.2536 -0.2286
   35HK4    H13 2923   8.839   7.975   9.412 -1.5472 -1.0998 -0.3315
   35HK4    C25 2924   8.668   8.090   9.342 -0.2246 -0.1886 -0.5473
   35HK4    H12 2925   8.661   8.048   9.241 -0.4384  1.9639 -1.4494
   35HK4    C24 2926   8.571   8.176   9.393  0.0623 -0.1717 -0.0248
   35HK4    H11 2927   8.495   8.209   9.321 -0.0078 -1.8706 -0.7542
   35HK4    C23 2928   8.571   8.221   9.524  0.3498  0.1720 -0.1432
   35HK4    H10 2929   8.488   8.286   9.551 -0.2793 -0.5815 -0.2592
   35HK4    C39 2930   8.586   8.247   9.835  0.3739 -0.0133  0.0397
   35HK4    C41 2931   8.483   8.340   9.811 -0.0373 -0.3771  0.3855
   35HK4    H21 2932   8.511   8.415   9.736 -1.3844 -0.3755 -0.1343
   35HK4    C42 2933   8.361   8.342   9.877 -0.0643  0.0145  0.3233
   35HK4    H22 2934   8.274   8.409   9.866  0.4054  0.7855  1.2314
   35HK4    C43 2935   8.336   8.242   9.970 -0.1957 -0.3360 -0.0872
   35HK4    H23 2936   8.250   8.252  10.037 -0.1591  1.6466 -0.3114
   35HK4    C44 2937   8.431   8.144   9.996  0.3266  0.2769  0.3064
   35HK4    H24 2938   8.420   8.071  10.078 -0.3719  0.0510  0.0156
   35HK4    C45 2939   8.553   8.148   9.930  0.2512  0.1347  0.1524
   35HK4    H25 2940   8.635   8.082   9.963  0.1693 -0.3702 -0.6372
   36HK4    H28 2941   4.561   4.958   5.212 -0.0750 -0.4772  0.5022
   36HK4    C48 2942   4.555   5.041   5.282 -0.0287 -0.1349  0.1006
   36HK4    C47 2943   4.464   5.146   5.277 -0.2294 -0.3312 -0.4309
   36HK4    H27 2944   4.397   5.154   5.191  1.9815  1.1082 -2.0717
   36HK4    C46 2945   4.466   5.246   5.373  0.4739 -0.2376 -0.5388
   36HK4    H26 2946   4.376   5.309   5.369  0.5001 -0.1517  0.1537
   36HK4    C40 2947   4.552   5.239   5.485 -0.4544 -0.1011  0.1864
   36HK4    C50 2948   4.644   5.133   5.486  0.4403  0.6619 -0.7407
   36HK4    H30 2949   4.697   5.105   5.578 -0.2888  2.4649  0.2467
   36HK4    C49 2950   4.650   5.039   5.383  0.8394  0.6318 -0.6907
   36HK4    H29 2951   4.697   4.942   5.405 -0.1121  0.1890 -0.5752
   36HK4     N2 2952   4.518   5.302   5.606 -0.3651  0.0101  0.1533
   36HK4    C30 2953   4.619   5.323   5.702  0.2547 -1.1709 -0.2228
   36HK4    C29 2954   4.740   5.387   5.679 -0.1242 -0.1202  0.6428
   36HK4    H15 2955   4.763   5.420   5.578  2.1736 -3.9947 -0.2495
   36HK4    C28 2956   4.830   5.402   5.785  0.6500 -0.4183  0.0325
   36HK4    C27 2957   4.789   5.358   5.913 -0.3986  0.0680 -0.1277
   36HK4    H14 2958   4.873   5.347   5.984 -1.0951 -0.5577  0.5990
   36HK4    C32 2959   4.662   5.312   5.942 -0.4603  0.4272  0.1649
   36HK4    H16 2960   4.646   5.267   6.040 -0.9727  2.0432  0.8466
   36HK4    C31 2961   4.572   5.297   5.837 -0.1389  0.2306 -0.0843
   36HK4    C34 2962   4.430   5.270   5.821 -0.1346  0.3386 -0.2994
   36HK4    C33 2963   4.400   5.276   5.679 -0.5341 -0.3554 -0.2469
   36HK4    C35 2964   4.269   5.294   5.636 -0.5110  0.0213 -0.1641
   36HK4    H17 2965   4.246   5.293   5.529  1.7228  0.7072 -0.6703
   36HK4    C36 2966   4.162   5.311   5.723 -0.2250 -0.1401  0.2222
   36HK4    H18 2967   4.070   5.361   5.691  0.0862 -0.7757 -1.7429
   36HK4    C37 2968   4.193   5.300   5.858  0.2370  0.2153  0.1475
   36HK4    H19 2969   4.111   5.331   5.922 -0.3553  1.6375 -1.2789
   36HK4    C38 2970   4.321   5.276   5.906  0.2628  0.4552  0.1997
   36HK4    H20 2971   4.341   5.265   6.013 -0.6192 -0.6657  0.2555
   36HK4    C14 2972   4.970   5.427   5.748  0.4591 -0.2597 -0.5882
   36HK4     C9 2973   5.075   5.346   5.791  0.4831 -0.1627 -0.4660
   36HK4     C8 2974   5.194   5.405   5.839  0.1876  0.1866 -0.1614
   36HK4    C11 2975   5.214   5.541   5.819 -0.1334  0.3666  0.7028
   36HK4     H4 2976   5.317   5.579   5.826 -0.4009  1.3571 -0.3870
   36HK4    C12 2977   5.112   5.621   5.769 -0.2784 -0.3332 -0.1346
   36HK4     H5 2978   5.108   5.731   5.775  0.6782 -0.3100  0.0820
   36HK4    C13 2979   4.987   5.567   5.740 -0.4273 -0.1052  0.0732
   36HK4     H6 2980   4.896   5.628   5.734 -1.6493 -1.9875 -1.1354
   36HK4     C7 2981   5.297   5.323   5.906 -0.2982  0.1310  0.5139
   36HK4     O2 2982   5.366   5.370   5.996  0.6646  0.3603 -0.3418
   36HK4     C4 2983   5.287   5.175   5.903 -0.1745  0.1356 -0.3996
   36HK4     C3 2984   5.398   5.098   5.934 -0.3809  0.0802  0.2096
   36HK4     H3 2985   5.489   5.135   5.985  0.3889  1.2740 -1.9795
   36HK4     C2 2986   5.389   4.960   5.916  0.3074  0.0696 -0.0961
   36HK4     H2 2987   5.484   4.907   5.904 -0.4210 -1.1548 -0.4568
   36HK4     C1 2988   5.265   4.900   5.900  0.3086  0.1284 -0.3272
   36HK4     H1 2989   5.264   4.790   5.892  1.1971  0.1008 -0.1308
   36HK4     C6 2990   5.149   4.978   5.883  0.0166 -0.2728 -0.1721
   36HK4     C5 2991   5.165   5.115   5.864  0.1396 -0.3512 -0.6371
   36HK4    C10 2992   5.063   5.197   5.793  0.2582 -0.1470 -0.5731
   36HK4     O1 2993   5.009   5.146   5.695  0.0513  0.4825 -0.7861
   36HK4    C16 2994   5.022   4.903   5.880 -0.1304 -0.0504  0.4659
   36HK4    C15 2995   4.911   4.970   5.936  0.0786  0.1490  0.6462
   36HK4     H7 2996   4.925   5.014   6.036  1.1359  0.9008  0.1829
   36HK4    C20 2997   4.783   4.961   5.885  0.4207  0.3705 -0.2514
   36HK4     H9 2998   4.707   5.036   5.909 -0.9784 -0.6749 -1.2963
   36HK4    C19 2999   4.759   4.885   5.771 -0.4367  0.0055  0.1632
   36HK4    C18 3000   4.871   4.815   5.711 -0.2191  0.4155  0.0842
   36HK4    C17 3001   4.996   4.822   5.770 -0.2858  0.3013  0.2400
   36HK4     H8 3002   5.078   4.773   5.716 -1.6906 -0.0708 -1.5996
   36HK4     N1 3003   4.818   4.738   5.605 -0.1625  0.1402  0.2547
   36HK4    C21 3004   4.679   4.759   5.600 -0.1190  0.3108 -0.3233
   36HK4    C22 3005   4.637   4.857   5.699 -0.3811 -0.3312  0.2010
   36HK4    C26 3006   4.506   4.903   5.691 -0.5144 -0.7435 -0.0058
   36HK4    H13 3007   4.464   4.958   5.775  0.4696  0.0158 -0.0141
   36HK4    C25 3008   4.411   4.859   5.598 -0.9050 -0.3083  0.1858
   36HK4    H12 3009   4.316   4.909   5.585 -0.2678  0.9841  0.3532
   36HK4    C24 3010   4.454   4.763   5.508  0.1055  0.1285  0.1868
   36HK4    H11 3011   4.380   4.726   5.435 -0.2989  0.8723  0.2148
   36HK4    C23 3012   4.585   4.716   5.508  0.0168 -0.1207 -0.2582
   36HK4    H10 3013   4.606   4.629   5.446 -0.4113 -1.1521  1.0254
   36HK4    C39 3014   4.892   4.701   5.491 -0.2773  0.7477 -0.0172
   36HK4    C41 3015   4.842   4.603   5.404 -0.1070  0.9751 -0.3681
   36HK4    H21 3016   4.810   4.504   5.439  1.3322  0.2938 -0.9162
   36HK4    C42 3017   4.870   4.608   5.267 -0.3195 -0.2395 -0.4586
   36HK4    H22 3018   4.829   4.536   5.194 -0.2605  1.5010 -2.2532
   36HK4    C43 3019   4.959   4.705   5.224 -0.5373  0.2898  0.2620
   36HK4    H23 3020   4.991   4.702   5.120  0.8913  0.5925  0.6836
   36HK4    C44 3021   5.020   4.794   5.311 -0.2828  0.3133  0.0577
   36HK4    H24 3022   5.104   4.855   5.274 -0.1120  0.3597  0.5230
   36HK4    C45 3023   4.988   4.795   5.446  0.1302  0.4180  0.1597
   36HK4    H25 3024   5.047   4.850   5.521  0.7930 -2.5132  1.8669
   37HK4    H28 3025   4.541   9.579   3.044 -1.4860 -0.0014  0.9273
   37HK4    C48 3026   4.553   9.683   3.075 -0.3208  0.1196  0.1329
   37HK4    C47 3027   4.472   9.736   3.174 -0.6900  0.0143 -0.1117
   37HK4    H27 3028   4.395   9.666   3.209 -0.3088 -0.4592 -0.2179
   37HK4    C46 3029   4.476   9.870   3.211 -0.4343  0.0743 -0.3617
   37HK4    H26 3030   4.401   9.922   3.273  1.9061  2.8988  0.2177
   37HK4    C40 3031   4.560   9.961   3.143 -0.1656 -0.1090 -0.2740
   37HK4    C50 3032   4.649   9.902   3.051 -0.0024 -0.1730 -0.0753
   37HK4    H30 3033   4.725   9.966   3.004 -2.2096  1.3516 -1.7066
   37HK4    C49 3034   4.646   9.768   3.016 -0.1915 -0.1728 -0.0806
   37HK4    H29 3035   4.710   9.718   2.942  0.6754  0.0659  0.5023
   37HK4     N2 3036   4.568  10.096   3.178  0.0071 -0.1308 -0.2217
   37HK4    C30 3037   4.604  10.205   3.097  0.0805 -0.2267 -0.3188
   37HK4    C29 3038   4.632  10.207   2.961  0.6264 -0.4150 -0.2091
   37HK4    H15 3039   4.606  10.126   2.893  0.0436  0.4080 -0.9893
   37HK4    C28 3040   4.690  10.321   2.907 -0.0720 -0.1745 -0.4606
   37HK4    C27 3041   4.716  10.431   2.992 -0.6242 -0.2528 -0.1877
   37HK4    H14 3042   4.775  10.517   2.955  0.4684 -1.2055 -0.6777
   37HK4    C32 3043   4.670  10.442   3.122 -0.1985 -0.3348 -0.0319
   37HK4    H16 3044   4.681  10.534   3.180  0.8887 -0.1122 -0.5850
   37HK4    C31 3045   4.612  10.327   3.175 -0.0477 -0.4098 -0.0246
   37HK4    C34 3046   4.577  10.286   3.310 -0.0667  0.2579  0.1772
   37HK4    C33 3047   4.558  10.142   3.311 -0.3793  0.2893 -0.3940
   37HK4    C35 3048   4.549  10.077   3.434 -0.4945  0.1797 -0.4599
   37HK4    H17 3049   4.536   9.969   3.441  0.6621 -0.0564 -1.7466
   37HK4    C36 3050   4.552  10.153   3.550 -0.6290 -0.5864  0.0437
   37HK4    H18 3051   4.578  10.099   3.643 -1.0635 -1.6325 -0.4362
   37HK4    C37 3052   4.558  10.292   3.549  0.5809 -0.6322 -0.0489
   37HK4    H19 3053   4.554  10.355   3.638  0.2596  0.4527 -0.8294
   37HK4    C38 3054   4.575  10.358   3.428  0.0225  0.1005  0.2744
   37HK4    H20 3055   4.614  10.460   3.437 -0.3772  0.1363  1.7627
   37HK4    C14 3056   4.734  10.318   2.767  0.1564 -0.4331 -0.3838
   37HK4     C9 3057   4.836  10.396   2.712  0.4878 -0.6109 -0.0236
   37HK4     C8 3058   4.827  10.448   2.581 -0.1354  0.3899  0.4074
   37HK4    C11 3059   4.712  10.431   2.504  0.4650 -0.8435 -0.2372
   37HK4     H4 3060   4.677  10.496   2.423  0.0249 -1.4540 -0.5349
   37HK4    C12 3061   4.613  10.346   2.552 -0.0994  0.0715  0.2299
   37HK4     H5 3062   4.520  10.347   2.494 -0.0601  2.5136  0.1241
   37HK4    C13 3063   4.625  10.294   2.680 -0.1297 -0.5106 -0.0047
   37HK4     H6 3064   4.552  10.217   2.709  0.2383 -1.4583 -1.5321
   37HK4     C7 3065   4.943  10.501   2.507 -0.2008 -0.5237 -0.3697
   37HK4     O2 3066   4.948  10.496   2.385  0.1536 -0.4679 -0.3580
   37HK4     C4 3067   5.067  10.534   2.582 -0.3071 -0.0121 -0.4227
   37HK4     C3 3068   5.177  10.597   2.526 -0.4221  0.1183 -0.5095
   37HK4     H3 3069   5.196  10.594   2.418  0.0417 -0.9558 -0.4026
   37HK4     C2 3070   5.284  10.647   2.599 -0.1317 -0.5322 -0.4864
   37HK4     H2 3071   5.375  10.685   2.550 -0.9748  1.3564 -0.6140
   37HK4     C1 3072   5.272  10.646   2.738 -0.3876  0.4578 -0.4962
   37HK4     H1 3073   5.361  10.674   2.796 -0.5840 -0.8018  0.4561
   37HK4     C6 3074   5.163  10.581   2.800 -0.1833  0.6730  0.0975
   37HK4     C5 3075   5.064  10.519   2.722  0.5162  0.1513 -0.3856
   37HK4    C10 3076   4.965  10.424   2.781  0.5001  0.1819 -0.3626
   37HK4     O1 3077   5.000  10.343   2.866 -0.2085 -0.1079 -0.3476
   37HK4    C16 3078   5.131  10.641   2.930  0.1123  0.1064  0.4299
   37HK4    C15 3079   5.134  10.780   2.952  0.3856  0.1818 -0.0658
   37HK4     H7 3080   5.089  10.842   2.872  1.7798  0.6283 -0.5154
   37HK4    C20 3081   5.144  10.829   3.082  0.4183 -0.0963  0.0342
   37HK4     H9 3082   5.118  10.933   3.099 -0.9273 -0.1324 -1.5806
   37HK4    C19 3083   5.149  10.739   3.188 -0.6719  0.0698  0.2334
   37HK4    C18 3084   5.128  10.597   3.169  0.0951 -0.0567  0.3144
   37HK4    C17 3085   5.129  10.553   3.037  0.5267 -0.0462  0.3117
   37HK4     H8 3086   5.147  10.448   3.014 -0.7731 -0.4078  0.8955
   37HK4     N1 3087   5.119  10.528   3.291 -0.1231 -0.2647  0.1805
   37HK4    C21 3088   5.130  10.628   3.390 -0.3356  0.1425 -0.2049
   37HK4    C22 3089   5.147  10.759   3.332 -0.1508  0.3042  0.2111
   37HK4    C26 3090   5.170  10.874   3.407  0.0949  0.3622  0.0465
   37HK4    H13 3091   5.187  10.969   3.356 -0.8949  0.5856  0.1377
   37HK4    C25 3092   5.181  10.859   3.544 -0.3256  0.0087  0.0393
   37HK4    H12 3093   5.191  10.951   3.602 -0.6045 -0.7571  1.3346
   37HK4    C24 3094   5.160  10.733   3.600  0.5132 -0.0514  0.2266
   37HK4    H11 3095   5.148  10.749   3.708 -1.0673  0.7484 -0.0543
   37HK4    C23 3096   5.132  10.617   3.529 -0.2299  0.3761 -0.1874
   37HK4    H10 3097   5.120  10.521   3.580 -0.0836 -0.9755 -2.6260
   37HK4    C39 3098   5.086  10.395   3.319 -0.0639 -0.2394  0.3787
   37HK4    C41 3099   5.127  10.329   3.437 -0.2692  0.3961  0.8070
   37HK4    H21 3100   5.231  10.345   3.470 -0.3959  2.2741  0.3545
   37HK4    C42 3101   5.067  10.209   3.471 -0.3119  0.2084  0.0964
   37HK4    H22 3102   5.074  10.168   3.573  1.6919  1.3981  0.4790
   37HK4    C43 3103   4.978  10.155   3.380  0.3370 -0.1570 -0.3302
   37HK4    H23 3104   4.923  10.065   3.411 -0.2519  0.8437  1.6263
   37HK4    C44 3105   4.933  10.213   3.262 -0.3053  0.2776  0.1249
   37HK4    H24 3106   4.875  10.156   3.189 -2.8274  2.1597  0.6154
   37HK4    C45 3107   4.983  10.341   3.239  0.1524  0.0616 -0.1074
   37HK4    H25 3108   4.936  10.398   3.157  1.9376  0.1051 -1.1215
   38HK4    H28 3109   6.268   0.095   8.426 -0.4229 -0.4357 -2.8818
   38HK4    C48 3110   6.375   0.071   8.422 -0.2190 -0.2280 -0.0204
   38HK4    C47 3111   6.426  11.191   8.438  0.1638 -0.0370  0.2715
   38HK4    H27 3112   6.354  11.114   8.469  0.0526 -0.4302 -0.9378
   38HK4    C46 3113   6.562  11.166   8.425  0.1438 -0.0095  0.0018
   38HK4    H26 3114   6.600  11.065   8.450  2.4498  0.8738  0.1581
   38HK4    C40 3115   6.656   0.016   8.387  0.2824 -0.0880  0.1394
   38HK4    C50 3116   6.600   0.144   8.370  0.0559 -0.2350 -0.2451
   38HK4    H30 3117   6.658   0.215   8.309 -2.2860 -0.3665 -2.7066
   38HK4    C49 3118   6.466   0.172   8.393  0.1148 -0.4221  0.3520
   38HK4    H29 3119   6.431   0.274   8.410  0.4049 -0.6251  2.2203
   38HK4     N2 3120   6.783  11.242   8.332  0.1745  0.4726 -0.3367
   38HK4    C30 3121   6.820  11.120   8.271  0.0596  0.3088 -0.0839
   38HK4    C29 3122   6.739  11.052   8.181  0.3110 -0.6888  0.4353
   38HK4    H15 3123   6.631  11.065   8.178  0.1440 -1.9999 -0.0612
   38HK4    C28 3124   6.797  10.954   8.100  0.4835 -0.0290 -0.2401
   38HK4    C27 3125   6.931  10.914   8.117  0.5908  0.3470 -0.1897
   38HK4    H14 3126   6.987  10.845   8.053  0.6399 -0.5992  0.8621
   38HK4    C32 3127   7.008  10.980   8.212  0.4260  0.2237  0.0307
   38HK4    H16 3128   7.115  10.962   8.216  1.0488  3.6503  0.6420
   38HK4    C31 3129   6.961  11.089   8.285 -0.0690 -0.1324  0.2490
   38HK4    C34 3130   7.016  11.195   8.367  0.2345 -0.1751  0.1015
   38HK4    C33 3131   6.903   0.032   8.395  0.2201 -0.1520 -0.0351
   38HK4    C35 3132   6.934   0.159   8.441 -0.1992 -0.0741  0.0413
   38HK4    H17 3133   6.859   0.229   8.479  0.2445  1.6380 -2.1319
   38HK4    C36 3134   7.066   0.204   8.451 -0.4769  0.7939 -0.1171
   38HK4    H18 3135   7.079   0.310   8.477 -1.7835  0.8594  0.3139
   38HK4    C37 3136   7.174   0.126   8.412 -1.0797 -0.2819  0.3294
   38HK4    H19 3137   7.274   0.170   8.412 -1.3012  0.2381  1.0579
   38HK4    C38 3138   7.146  11.245   8.370  0.3045 -0.3139 -0.5359
   38HK4    H20 3139   7.231  11.184   8.339  1.0300  1.1349 -1.4683
   38HK4    C14 3140   6.702  10.879   8.016 -0.0393  0.3312  0.0243
   38HK4     C9 3141   6.730  10.748   7.975  0.0198  0.2930  0.1800
   38HK4     C8 3142   6.706  10.708   7.842 -0.4408  0.0186  0.3420
   38HK4    C11 3143   6.629  10.789   7.759  0.2518  0.5338  0.2022
   38HK4     H4 3144   6.616  10.761   7.653 -0.6161  3.4951 -0.5145
   38HK4    C12 3145   6.571  10.905   7.808 -0.0009  0.5879 -0.2079
   38HK4     H5 3146   6.481  10.947   7.759  0.3946  0.3170 -1.1731
   38HK4    C13 3147   6.612  10.949   7.933 -0.4949 -0.0614  0.1878
   38HK4     H6 3148   6.601  11.056   7.954  0.4019  0.0168  0.3029
   38HK4     C7 3149   6.767  10.581   7.796  0.4502  0.5146  0.1216
   38HK4     O2 3150   6.770  10.558   7.675  0.4999  0.4045  0.1427
   38HK4     C4 3151   6.831  10.487   7.891 -0.0756 -0.1612 -0.1912
   38HK4     C3 3152   6.881  10.363   7.852  0.4939  0.1081 -0.3206
   38HK4     H3 3153   6.895  10.347   7.745 -2.6127  2.5582 -1.1753
   38HK4     C2 3154   6.934  10.272   7.943  0.0817 -0.3576 -0.5414
   38HK4     H2 3155   6.990  10.181   7.915  2.1786  0.8214 -0.2625
   38HK4     C1 3156   6.942  10.308   8.077 -0.4456  0.1222 -0.6365
   38HK4     H1 3157   7.004  10.245   8.143  0.0865  1.3111  0.0113
   38HK4     C6 3158   6.894  10.433   8.120  0.1735  0.0216  0.3683
   38HK4     C5 3159   6.840  10.522   8.027  0.0643 -0.5299 -0.1030
   38HK4    C10 3160   6.776  10.648   8.075 -0.3774 -0.5942 -0.5130
   38HK4     O1 3161   6.720  10.646   8.184  0.1516  0.2776 -0.2156
   38HK4    C16 3162   6.897  10.438   8.267  0.5489 -0.2938  0.3722
   38HK4    C15 3163   6.863  10.334   8.355  0.2062 -0.2043  0.3450
   38HK4     H7 3164   6.806  10.243   8.330  0.3797 -0.7787  1.9546
   38HK4    C20 3165   6.919  10.332   8.482  0.1335 -0.8300  0.3696
   38HK4     H9 3166   6.893  10.251   8.551  1.3152  0.5307  2.4903
   38HK4    C19 3167   6.993  10.437   8.535 -0.3073 -0.2528 -0.1611
   38HK4    C18 3168   7.028  10.546   8.446  0.0410 -0.2521 -0.0268
   38HK4    C17 3169   6.975  10.542   8.318  0.1786  0.2147 -0.1014
   38HK4     H8 3170   7.001  10.623   8.250  1.4488 -1.0659 -1.1581
   38HK4     N1 3171   7.090  10.648   8.520 -0.0135  0.0475 -0.3903
   38HK4    C21 3172   7.099  10.608   8.655 -0.4182  0.3770 -0.2632
   38HK4    C22 3173   7.033  10.479   8.668 -0.8841  0.6146 -0.2554
   38HK4    C26 3174   7.018  10.420   8.793 -0.1334 -0.2615 -0.5681
   38HK4    H13 3175   6.970  10.323   8.796  0.2117 -0.5247 -2.6151
   38HK4    C25 3176   7.056  10.492   8.906 -0.1812 -0.2796 -0.5418
   38HK4    H12 3177   7.036  10.441   9.000 -0.4588 -2.0405 -1.5274
   38HK4    C24 3178   7.129  10.610   8.892  0.0593 -0.3997 -0.3041
   38HK4    H11 3179   7.183  10.646   8.980 -1.1130  1.0831 -0.1659
   38HK4    C23 3180   7.151  10.669   8.768  0.0800 -0.1727 -0.1917
   38HK4    H10 3181   7.208  10.762   8.768 -0.5720  0.2604  2.1778
   38HK4    C39 3182   7.174  10.746   8.465 -0.0327  0.1822 -0.1769
   38HK4    C41 3183   7.200  10.870   8.529 -0.0998 -0.1467  0.4963
   38HK4    H21 3184   7.134  10.893   8.613  1.6611  1.7350  1.3990
   38HK4    C42 3185   7.309  10.950   8.496 -0.8045  0.5907 -0.0642
   38HK4    H22 3186   7.323  11.042   8.554 -1.4385  0.6111  0.0578
   38HK4    C43 3187   7.388  10.918   8.386 -1.0906 -0.6546  0.0723
   38HK4    H23 3188   7.462  10.986   8.342 -0.2241 -0.5950  1.5856
   38HK4    C44 3189   7.362  10.801   8.317  0.1906 -0.9338  0.0454
   38HK4    H24 3190   7.427  10.765   8.235  0.1954 -0.1848 -0.2883
   38HK4    C45 3191   7.259  10.717   8.356 -0.5040 -0.2966 -0.4148
   38HK4    H25 3192   7.253  10.616   8.312 -0.4569 -0.6013  0.2703
   39HK4    H28 3193   7.096   7.037   0.468  0.8907 -1.0686  3.0259
   39HK4    C48 3194   7.100   7.142   0.494 -0.2688 -0.1266 -0.4356
   39HK4    C47 3195   7.116   7.176   0.628 -0.7512  0.4647 -0.5195
   39HK4    H27 3196   7.145   7.103   0.705 -1.2223  0.8486  0.0190
   39HK4    C46 3197   7.091   7.307   0.667  0.1484  0.3751  0.3904
   39HK4    H26 3198   7.153   7.339   0.752  0.5357  2.9954 -0.8321
   39HK4    C40 3199   7.041   7.400   0.573 -0.1445 -0.0047  0.1685
   39HK4    C50 3200   7.033   7.368   0.436  0.2006  0.1271  0.1165
   39HK4    H30 3201   7.005   7.442   0.359  1.1245  2.2627  1.7652
   39HK4    C49 3202   7.051   7.235   0.402 -0.2157  0.1483 -0.1881
   39HK4    H29 3203   7.050   7.205   0.296  0.5503 -1.8190  0.3385
   39HK4     N2 3204   7.004   7.529   0.612 -0.4282 -0.0439  0.0326
   39HK4    C30 3205   6.951   7.555   0.740 -0.8956 -0.0084 -0.1698
   39HK4    C29 3206   6.864   7.483   0.821 -0.8826  0.0165 -0.1364
   39HK4    H15 3207   6.841   7.386   0.777 -1.2594  0.2401 -0.4461
   39HK4    C28 3208   6.789   7.525   0.931 -0.4661 -0.0519  0.1729
   39HK4    C27 3209   6.824   7.656   0.969 -0.4582  0.1569 -0.5483
   39HK4    H14 3210   6.801   7.691   1.071 -0.8520  0.8995 -0.8946
   39HK4    C32 3211   6.895   7.740   0.884 -0.1121  0.2607 -0.1602
   39HK4    H16 3212   6.878   7.846   0.902 -1.2864  0.0613 -0.1103
   39HK4    C31 3213   6.958   7.697   0.767  0.3422 -0.1383  0.2235
   39HK4    C34 3214   7.017   7.757   0.649 -0.9974  0.1155 -0.3272
   39HK4    C33 3215   7.037   7.652   0.551 -0.3887 -0.0703  0.0002
   39HK4    C35 3216   7.118   7.685   0.443 -0.0243  0.0028  0.2936
   39HK4    H17 3217   7.107   7.626   0.352 -0.6313  0.2636  0.1984
   39HK4    C36 3218   7.184   7.807   0.431 -0.1845  0.1050  0.4463
   39HK4    H18 3219   7.260   7.839   0.359  0.6940 -1.1548  0.7956
   39HK4    C37 3220   7.157   7.907   0.523  0.4596  0.1832  0.5529
   39HK4    H19 3221   7.211   7.998   0.495 -0.3785 -0.5591 -3.8903
   39HK4    C38 3222   7.074   7.883   0.631 -0.0728 -0.2466  0.0507
   39HK4    H20 3223   7.023   7.965   0.682 -1.2080 -0.9000 -0.0207
   39HK4    C14 3224   6.668   7.459   0.982 -0.1929 -0.6017  0.1096
   39HK4     C9 3225   6.561   7.520   1.047  0.1718  0.3379 -0.1677
   39HK4     C8 3226   6.486   7.450   1.145 -0.2136  0.1971 -0.5621
   39HK4    C11 3227   6.522   7.317   1.161  0.0944  0.3484  0.0126
   39HK4     H4 3228   6.460   7.251   1.223  2.4572 -0.3560  1.6927
   39HK4    C12 3229   6.625   7.251   1.095  0.0554  0.1438  0.1571
   39HK4     H5 3230   6.667   7.161   1.144 -0.0099  1.2353  2.2911
   39HK4    C13 3231   6.700   7.323   1.003  0.6968 -0.3773  0.2654
   39HK4     H6 3232   6.778   7.272   0.944 -1.0909 -1.0354 -1.6162
   39HK4     C7 3233   6.351   7.492   1.189 -0.0926  0.0757 -0.0683
   39HK4     O2 3234   6.298   7.446   1.290  0.2206 -0.0344  0.0463
   39HK4     C4 3235   6.293   7.606   1.115 -0.0697 -0.2237 -0.5539
   39HK4     C3 3236   6.161   7.645   1.132 -0.1925 -0.8473 -0.0327
   39HK4     H3 3237   6.089   7.585   1.189 -1.2870 -0.4180 -0.9243
   39HK4     C2 3238   6.115   7.769   1.087  0.2607 -0.6919 -0.0645
   39HK4     H2 3239   6.013   7.803   1.110  1.0351  0.4057  1.8946
   39HK4     C1 3240   6.207   7.863   1.042 -0.1608  0.0758  0.6735
   39HK4     H1 3241   6.170   7.951   0.988 -0.2909 -0.3025  0.1453
   39HK4     C6 3242   6.345   7.835   1.041 -0.1911 -0.0563  0.0011
   39HK4     C5 3243   6.379   7.700   1.054  0.0764  0.0110  0.0067
   39HK4    C10 3244   6.502   7.645   0.991 -0.1312  0.0667 -0.4568
   39HK4     O1 3245   6.522   7.677   0.874 -0.7335  0.3409 -0.4842
   39HK4    C16 3246   6.441   7.946   1.043 -0.1377 -0.1069  0.1153
   39HK4    C15 3247   6.574   7.928   1.087 -0.2213 -0.6538  0.1567
   39HK4     H7 3248   6.602   7.839   1.145 -2.7077 -0.8247  1.1389
   39HK4    C20 3249   6.672   8.027   1.081 -0.6341 -0.2664 -0.1436
   39HK4     H9 3250   6.773   7.991   1.097 -0.6650 -1.6974 -2.8823
   39HK4    C19 3251   6.635   8.151   1.028  0.2629  0.0857  0.0476
   39HK4    C18 3252   6.501   8.172   0.977  0.2744 -0.3719 -0.1844
   39HK4    C17 3253   6.410   8.068   0.984 -0.2521  0.1375  0.6704
   39HK4     H8 3254   6.339   8.064   0.902  1.8806  0.2724 -1.2330
   39HK4     N1 3255   6.480   8.301   0.924 -0.1854 -0.3148  0.1360
   39HK4    C21 3256   6.604   8.367   0.936 -0.2576 -0.1869  0.1853
   39HK4    C22 3257   6.695   8.281   1.008 -0.0616  0.3089  0.5313
   39HK4    C26 3258   6.817   8.339   1.044  0.0046  0.2010  0.4843
   39HK4    H13 3259   6.880   8.284   1.114 -0.7899  1.5823  2.3442
   39HK4    C25 3260   6.841   8.472   1.014 -0.0953  0.1114  0.0087
   39HK4    H12 3261   6.934   8.519   1.046 -0.2930 -0.0142  0.7697
   39HK4    C24 3262   6.747   8.552   0.950 -0.0744  0.3013  0.2160
   39HK4    H11 3263   6.766   8.660   0.941  2.5077  0.0376  2.1610
   39HK4    C23 3264   6.624   8.502   0.909 -0.0386 -0.1296  0.6317
   39HK4    H10 3265   6.543   8.557   0.863 -1.4712 -1.1672  1.8537
   39HK4    C39 3266   6.392   8.325   0.818  0.1058 -0.0462 -0.0442
   39HK4    C41 3267   6.327   8.450   0.806  0.1476 -0.0130  0.0454
   39HK4    H21 3268   6.288   8.503   0.894 -3.4773 -2.2372 -0.0849
   39HK4    C42 3269   6.297   8.502   0.680  0.1606 -0.2268 -0.0464
   39HK4    H22 3270   6.269   8.608   0.670 -0.3613 -0.5193 -1.8408
   39HK4    C43 3271   6.322   8.429   0.564  1.1043 -0.0390  0.0348
   39HK4    H23 3272   6.305   8.480   0.469 -1.7579  0.6442  0.8479
   39HK4    C44 3273   6.377   8.302   0.574  0.4961 -0.2789  0.3822
   39HK4    H24 3274   6.355   8.232   0.492  1.0679  0.1537 -0.1377
   39HK4    C45 3275   6.408   8.251   0.699  0.0340 -0.6703  0.3374
   39HK4    H25 3276   6.447   8.148   0.702 -0.9852 -1.0322  2.2663
   40HK4    H28 3277   1.301   3.277  10.959  0.8967 -2.2476  1.7119
   40HK4    C48 3278   1.325   3.230  10.864  0.7435 -0.6126  0.8670
   40HK4    C47 3279   1.443   3.265  10.797  0.2079 -0.4893 -0.0253
   40HK4    H27 3280   1.500   3.355  10.823 -1.7593  0.7214  0.2137
   40HK4    C46 3281   1.494   3.184  10.697  0.4442 -0.3560 -0.0158
   40HK4    H26 3282   1.595   3.189  10.653 -0.0848  0.5350 -1.1511
   40HK4    C40 3283   1.428   3.065  10.657  0.0975 -0.1089 -0.1778
   40HK4    C50 3284   1.305   3.036  10.720  0.2443  0.3485  0.3320
   40HK4    H30 3285   1.247   2.952  10.679  2.4375 -0.8887 -0.3479
   40HK4    C49 3286   1.252   3.123  10.814 -0.1131  0.2709  0.2023
   40HK4    H29 3287   1.145   3.116  10.837 -0.7921 -0.0494 -2.8247
   40HK4     N2 3288   1.452   3.009  10.532  0.0946  0.2172 -0.3257
   40HK4    C30 3289   1.515   3.071  10.422  0.2359  0.3809 -0.1535
   40HK4    C29 3290   1.554   3.201  10.389  0.0811  0.3851 -0.3238
   40HK4    H15 3291   1.516   3.284  10.447  0.7694  1.0799 -0.8585
   40HK4    C28 3292   1.632   3.232  10.278  0.3313 -0.4039 -0.3733
   40HK4    C27 3293   1.667   3.123  10.196 -0.0686 -0.6879 -0.1643
   40HK4    H14 3294   1.747   3.132  10.121 -1.9646 -2.0360 -2.4263
   40HK4    C32 3295   1.620   2.994  10.223 -0.2197 -0.5374  0.3116
   40HK4    H16 3296   1.661   2.921  10.152  0.6354 -0.3581  0.6110
   40HK4    C31 3297   1.535   2.963  10.328 -0.5247 -0.0727  0.1997
   40HK4    C34 3298   1.488   2.835  10.376  0.3533 -0.4192  0.1473
   40HK4    C33 3299   1.438   2.870  10.507 -0.1313  0.2194 -0.2077
   40HK4    C35 3300   1.413   2.763  10.591 -0.4471  0.5061  0.0668
   40HK4    H17 3301   1.376   2.785  10.691 -0.9297 -0.8128  0.1917
   40HK4    C36 3302   1.421   2.631  10.549  0.0738  0.5507  0.0134
   40HK4    H18 3303   1.406   2.549  10.621  0.8693  0.0241 -0.4156
   40HK4    C37 3304   1.455   2.605  10.416  0.0679 -0.2565  0.1623
   40HK4    H19 3305   1.457   2.499  10.392  0.8721 -0.1639 -0.1731
   40HK4    C38 3306   1.490   2.705  10.326 -0.9418 -0.2908 -0.2734
   40HK4    H20 3307   1.551   2.678  10.240  0.4846 -0.7194  0.8461
   40HK4    C14 3308   1.660   3.372  10.242 -0.3642 -0.1669  0.0118
   40HK4     C9 3309   1.684   3.425  10.115 -0.3704  0.0230  0.0881
   40HK4     C8 3310   1.753   3.547  10.099 -0.4162  0.0010 -0.2783
   40HK4    C11 3311   1.798   3.613  10.213 -0.1903 -0.2555 -0.2140
   40HK4     H4 3312   1.876   3.690  10.206  0.3219 -0.9432 -2.7971
   40HK4    C12 3313   1.755   3.574  10.339  0.1186  0.1882  0.0276
   40HK4     H5 3314   1.784   3.637  10.424  1.6178 -2.6031  1.6468
   40HK4    C13 3315   1.689   3.453  10.354  0.4280 -0.0214 -0.2985
   40HK4     H6 3316   1.643   3.444  10.454  0.3657  2.4506 -0.0654
   40HK4     C7 3317   1.811   3.587   9.969 -0.3451  0.3129 -0.1510
   40HK4     O2 3318   1.857   3.700   9.952  0.2553  0.0736 -0.0953
   40HK4     C4 3319   1.803   3.486   9.861 -0.3745  0.4094 -0.2388
   40HK4     C3 3320   1.889   3.504   9.753  0.1809  0.1677  0.1586
   40HK4     H3 3321   1.979   3.567   9.761  1.4538 -1.6802  0.7818
   40HK4     C2 3322   1.881   3.423   9.640  0.1544  0.3196  0.0521
   40HK4     H2 3323   1.920   3.461   9.544 -1.1546  0.5133 -0.4231
   40HK4     C1 3324   1.784   3.324   9.640 -0.1025  0.5696 -0.2137
   40HK4     H1 3325   1.777   3.263   9.548  1.1908  0.9819 -0.5871
   40HK4     C6 3326   1.695   3.301   9.747  0.3374 -0.3271 -0.0403
   40HK4     C5 3327   1.706   3.384   9.859  0.1294 -0.0714 -0.2046
   40HK4    C10 3328   1.637   3.361   9.989  0.3674 -0.1637 -0.0950
   40HK4     O1 3329   1.517   3.334   9.996  0.3537 -0.0026  0.2816
   40HK4    C16 3330   1.572   3.230   9.710 -0.0957  0.3227  0.1495
   40HK4    C15 3331   1.520   3.249   9.580  0.8532  0.2880 -0.2417
   40HK4     H7 3332   1.563   3.332   9.522  0.3878  0.0728 -0.9055
   40HK4    C20 3333   1.441   3.154   9.516  1.0182  0.0068 -0.0286
   40HK4     H9 3334   1.389   3.170   9.422  0.9227  0.5937  0.1217
   40HK4    C19 3335   1.416   3.034   9.580 -0.4961  0.3787  0.0824
   40HK4    C18 3336   1.477   3.003   9.708  0.7426  0.2514 -0.5389
   40HK4    C17 3337   1.552   3.104   9.767  0.0955  0.3103  0.1873
   40HK4     H8 3338   1.569   3.100   9.874 -0.7806  3.5371  0.4876
   40HK4     N1 3339   1.453   2.869   9.743 -1.2195  0.8062  0.2685
   40HK4    C21 3340   1.385   2.809   9.635 -0.1152 -0.2993  0.1778
   40HK4    C22 3341   1.349   2.912   9.540  0.4373 -0.1517  0.1243
   40HK4    C26 3342   1.280   2.877   9.424  0.6231  0.2889 -0.1183
   40HK4    H13 3343   1.276   2.956   9.348  2.3115 -0.5311 -1.1064
   40HK4    C25 3344   1.253   2.744   9.394 -0.2338  0.2454  0.8307
   40HK4    H12 3345   1.171   2.720   9.326  0.2545 -0.9995  0.6744
   40HK4    C24 3346   1.290   2.644   9.483 -0.0426 -0.7201 -0.3124
   40HK4    H11 3347   1.272   2.537   9.466 -1.2215 -1.1015  2.9195
   40HK4    C23 3348   1.354   2.677   9.602  0.1561 -0.1751 -0.5706
   40HK4    H10 3349   1.399   2.594   9.656 -0.3958 -0.2251 -0.1903
   40HK4    C39 3350   1.432   2.836   9.878 -0.5429 -0.1301  0.1545
   40HK4    C41 3351   1.446   2.701   9.915  0.2486  0.0690  0.6038
   40HK4    H21 3352   1.522   2.637   9.868 -0.8122 -1.9535  1.5662
   40HK4    C42 3353   1.367   2.646  10.016 -0.1651 -0.3174  0.0745
   40HK4    H22 3354   1.383   2.540  10.038 -1.2208 -0.6679 -0.8217
   40HK4    C43 3355   1.279   2.722  10.092 -0.4445 -0.3051 -0.2560
   40HK4    H23 3356   1.224   2.681  10.177 -0.2276  1.8113  0.9525
   40HK4    C44 3357   1.273   2.858  10.063 -0.5866 -0.2906 -0.1586
   40HK4    H24 3358   1.217   2.922  10.132 -0.3980  2.8464 -2.7484
   40HK4    C45 3359   1.345   2.914   9.957 -0.7696 -0.0618 -0.1606
   40HK4    H25 3360   1.337   3.023   9.941  0.1497 -0.1923 -1.5432
   41HK4    H28 3361   9.637   6.014   3.864  1.5269  0.4296  1.1959
   41HK4    C48 3362   9.703   5.934   3.830 -0.2414 -0.5598  0.0578
   41HK4    C47 3363   9.745   5.840   3.923  0.8421  0.1677  0.3091
   41HK4    H27 3364   9.665   5.805   3.990 -1.9315  0.9476 -2.4845
   41HK4    C46 3365   9.859   5.763   3.904  0.2599 -0.5619 -0.2720
   41HK4    H26 3366   9.891   5.690   3.979  0.3688 -1.1288 -0.8635
   41HK4    C40 3367   9.933   5.774   3.784  0.2135 -0.1652 -0.2639
   41HK4    C50 3368   9.880   5.861   3.686  0.0834  0.1512  0.0906
   41HK4    H30 3369   9.918   5.857   3.583 -0.6899 -0.6604 -0.1582
   41HK4    C49 3370   9.766   5.938   3.706  0.1275  0.1726  0.2695
   41HK4    H29 3371   9.737   6.008   3.626  0.6754 -0.1913 -0.2474
   41HK4     N2 3372  10.070   5.745   3.790  0.2165 -0.1277 -0.0958
   41HK4    C30 3373  10.146   5.732   3.908 -0.3375  0.0333  0.2775
   41HK4    C29 3374  10.137   5.791   4.034  0.1931  0.2444  0.2196
   41HK4    H15 3375  10.037   5.822   4.066 -1.0577 -1.4166 -1.9092
   41HK4    C28 3376  10.242   5.798   4.124  0.0811  0.0329  0.3634
   41HK4    C27 3377  10.364   5.732   4.099  0.2513  0.5781 -0.2516
   41HK4    H14 3378  10.440   5.729   4.178  0.2807  1.6734 -0.2306
   41HK4    C32 3379  10.370   5.657   3.982  0.2834 -0.0661  0.1677
   41HK4    H16 3380  10.457   5.598   3.952 -0.3538 -1.3460  0.7589
   41HK4    C31 3381  10.268   5.656   3.889 -0.0678  0.3947  0.5477
   41HK4    C34 3382  10.262   5.617   3.749  0.0836 -0.0692  0.6706
   41HK4    C33 3383  10.148   5.684   3.690  0.2780 -0.2828  0.0480
   41HK4    C35 3384  10.104   5.646   3.563 -0.2473 -0.7055  0.3533
   41HK4    H17 3385  10.003   5.677   3.536 -0.1541  0.1365  0.9240
   41HK4    C36 3386  10.180   5.564   3.479 -0.0865 -0.2389  0.0445
   41HK4    H18 3387  10.147   5.531   3.380 -1.0223  0.7794 -0.0008
   41HK4    C37 3388  10.292   5.509   3.539  0.1381 -0.2155 -0.3528
   41HK4    H19 3389  10.342   5.432   3.480  0.7312 -0.2861  0.2436
   41HK4    C38 3390  10.334   5.529   3.670 -0.6773  0.0231 -0.1266
   41HK4    H20 3391  10.432   5.495   3.702 -1.6849 -2.4647  0.4572
   41HK4    C14 3392  10.225   5.886   4.241 -0.1671  0.4568  0.0100
   41HK4     C9 3393  10.335   5.936   4.311  0.1383 -0.6738  0.3479
   41HK4     C8 3394  10.332   5.957   4.451 -0.3390 -0.2208  0.2711
   41HK4    C11 3395  10.209   5.948   4.515 -0.2798 -0.7115  0.3232
   41HK4     H4 3396  10.204   5.985   4.619 -1.8579  1.4913 -0.4844
   41HK4    C12 3397  10.098   5.901   4.446 -0.2334 -0.2763 -0.0534
   41HK4     H5 3398  10.008   5.866   4.498 -0.6667  2.1134  0.8779
   41HK4    C13 3399  10.102   5.873   4.310 -0.2383  0.2196 -0.1568
   41HK4     H6 3400  10.011   5.833   4.262 -0.4090 -1.0282  1.1695
   41HK4     C7 3401  10.456   5.984   4.527 -0.1457  0.1753 -0.1802
   41HK4     O2 3402  10.455   5.970   4.649 -0.4352 -0.7004 -0.2751
   41HK4     C4 3403  10.582   6.005   4.453  0.3858 -1.0336  0.3652
   41HK4     C3 3404  10.700   6.042   4.518 -0.0262  0.0762  0.5015
   41HK4     H3 3405  10.715   6.006   4.621  1.1069  0.6367  0.5319
   41HK4     C2 3406  10.816   6.083   4.455 -0.2556 -0.1270 -0.0536
   41HK4     H2 3407  10.904   6.113   4.515 -1.8488 -1.7749  3.2208
   41HK4     C1 3408  10.820   6.070   4.316 -0.0100 -0.1975 -0.0422
   41HK4     H1 3409  10.912   6.108   4.269  0.3329 -1.2811 -0.2411
   41HK4     C6 3410  10.705   6.029   4.246 -0.3676  0.0582  0.3923
   41HK4     C5 3411  10.584   6.005   4.312 -0.3764 -0.0287  0.3527
   41HK4    C10 3412  10.455   5.987   4.239 -0.1260 -0.4837  0.0328
   41HK4     O1 3413  10.428   6.062   4.146  0.3048 -0.0443  0.2616
   41HK4    C16 3414  10.723   6.045   4.101 -0.3463  0.1786  0.4091
   41HK4    C15 3415  10.678   5.942   4.016  0.1818  0.3560 -0.0886
   41HK4     H7 3416  10.678   5.837   4.049 -0.0778 -0.1540 -1.6712
   41HK4    C20 3417  10.658   5.966   3.880  0.0090 -0.2793 -0.1777
   41HK4     H9 3418  10.662   5.880   3.813 -0.3373 -1.4981  1.3223
   41HK4    C19 3419  10.679   6.091   3.822 -0.1917  0.0377  0.4305
   41HK4    C18 3420  10.723   6.198   3.909 -0.1765  0.3251  0.0688
   41HK4    C17 3421  10.752   6.167   4.041 -0.6360  0.1069  0.1180
   41HK4     H8 3422  10.807   6.236   4.105 -0.9844  0.9028 -0.4450
   41HK4     N1 3423  10.728   6.320   3.839  0.7897  0.2299 -0.0424
   41HK4    C21 3424  10.690   6.290   3.706  0.6066  0.0269  0.0565
   41HK4    C22 3425  10.670   6.147   3.689  0.3450  0.0222  0.3885
   41HK4    C26 3426  10.654   6.090   3.563 -0.0888  0.4258  0.2598
   41HK4    H13 3427  10.646   5.982   3.552 -0.1698  0.4729 -0.1556
   41HK4    C25 3428  10.653   6.174   3.453 -0.0939 -0.1548 -0.1836
   41HK4    H12 3429  10.629   6.124   3.359 -0.2845 -0.3667 -0.0206
   41HK4    C24 3430  10.678   6.310   3.467  0.4194 -0.2502 -0.1372
   41HK4    H11 3431  10.674   6.376   3.378 -0.0420  0.4157  0.3681
   41HK4    C23 3432  10.698   6.368   3.592  0.5802 -0.2768 -0.1513
   41HK4    H10 3433  10.711   6.476   3.594  1.1782 -0.2994 -1.7441
   41HK4    C39 3434  10.702   6.444   3.898 -0.0321 -0.1512  0.3996
   41HK4    C41 3435  10.749   6.564   3.841  0.1560 -0.5874 -0.3693
   41HK4    H21 3436  10.824   6.560   3.762 -0.0418  2.7521 -0.8233
   41HK4    C42 3437  10.706   6.692   3.874  0.5097 -0.4931 -0.2694
   41HK4    H22 3438  10.743   6.784   3.826  0.8438  0.2706  1.4287
   41HK4    C43 3439  10.605   6.704   3.969  0.0595 -0.1450 -0.7898
   41HK4    H23 3440  10.578   6.798   4.017 -0.6708  0.4892 -2.3894
   41HK4    C44 3441  10.552   6.589   4.027  0.0476  0.1552 -0.2063
   41HK4    H24 3442  10.471   6.590   4.101 -2.0935 -3.6839 -2.3250
   41HK4    C45 3443  10.605   6.464   3.999 -0.0503 -0.0119  0.3560
   41HK4    H25 3444  10.581   6.380   4.067 -1.2841  1.2531  1.5111
   42HK4    H28 3445   3.892   3.031   9.931  0.1406  1.4380  0.8778
   42HK4    C48 3446   3.860   2.966  10.012  0.1769 -0.3065 -0.4735
   42HK4    C47 3447   3.930   2.984  10.131 -0.4122 -0.5815 -0.0842
   42HK4    H27 3448   3.995   3.071  10.147 -1.5158  0.3357 -0.5711
   42HK4    C46 3449   3.917   2.883  10.226  0.6342 -0.7948 -0.1614
   42HK4    H26 3450   3.972   2.895  10.320  0.8203 -0.3943 -0.3205
   42HK4    C40 3451   3.842   2.765  10.208 -0.2259 -0.2240 -0.3478
   42HK4    C50 3452   3.773   2.760  10.085 -0.3088 -0.1906 -0.3049
   42HK4    H30 3453   3.716   2.670  10.057  0.9573 -0.8293 -0.8572
   42HK4    C49 3454   3.780   2.856   9.985  0.1045 -0.2812 -0.3618
   42HK4    H29 3455   3.745   2.839   9.882  0.0569  0.1414 -0.4153
   42HK4     N2 3456   3.852   2.655  10.294  0.4005  0.2199  0.1503
   42HK4    C30 3457   3.754   2.556  10.317  0.0981  0.6210  0.5940
   42HK4    C29 3458   3.618   2.577  10.333 -0.0421 -0.0045  0.2242
   42HK4    H15 3459   3.580   2.659  10.273  1.6206 -0.6363 -1.7404
   42HK4    C28 3460   3.531   2.488  10.395 -0.0728 -0.2007 -0.0969
   42HK4    C27 3461   3.587   2.366  10.441  0.4960  0.0801 -0.0363
   42HK4    H14 3462   3.531   2.297  10.505 -0.8419  2.1748  1.1286
   42HK4    C32 3463   3.723   2.342  10.434  0.5721  0.4668  0.0927
   42HK4    H16 3464   3.761   2.248  10.475  0.6476  0.2448 -0.4860
   42HK4    C31 3465   3.808   2.435  10.377  0.4525  0.3262 -0.3154
   42HK4    C34 3466   3.952   2.455  10.373  0.5327 -0.1029  0.3523
   42HK4    C33 3467   3.972   2.594  10.336  0.2538 -0.1435  0.0470
   42HK4    C35 3468   4.101   2.646  10.337  0.1996 -0.0100  0.0713
   42HK4    H17 3469   4.108   2.751  10.364  0.0436  0.3368 -1.2408
   42HK4    C36 3470   4.210   2.565  10.370 -0.2266 -0.4042  0.5220
   42HK4    H18 3471   4.314   2.597  10.362 -0.2663 -0.9775 -3.7873
   42HK4    C37 3472   4.191   2.433  10.408 -0.2720 -0.6824 -0.4453
   42HK4    H19 3473   4.279   2.373  10.432 -1.6420 -1.2560  3.4495
   42HK4    C38 3474   4.062   2.382  10.416 -0.0753 -1.0712  0.2678
   42HK4    H20 3475   4.050   2.286  10.467  0.0804 -0.9767  0.4843
   42HK4    C14 3476   3.401   2.535  10.445 -0.0173 -0.2386  0.0840
   42HK4     C9 3477   3.345   2.481  10.562 -0.3720  0.4593  0.2385
   42HK4     C8 3478   3.206   2.461  10.571 -0.2804 -0.3263 -0.0462
   42HK4    C11 3479   3.132   2.514  10.466 -0.2304  0.1897  0.1787
   42HK4     H4 3480   3.028   2.541  10.489 -0.4294 -0.5662  0.1637
   42HK4    C12 3481   3.181   2.567  10.347  0.0056 -0.0349  0.1756
   42HK4     H5 3482   3.120   2.605  10.264  0.6561  1.0480  0.1864
   42HK4    C13 3483   3.319   2.581  10.340 -0.0218  0.3182  0.3335
   42HK4     H6 3484   3.366   2.639  10.259  2.5836 -1.7424  0.3147
   42HK4     C7 3485   3.142   2.398  10.688 -0.2355 -0.0313  0.1411
   42HK4     O2 3486   3.035   2.340  10.667 -0.1946  0.2491 -0.8622
   42HK4     C4 3487   3.227   2.375  10.807  0.0220  0.4340  0.0455
   42HK4     C3 3488   3.169   2.317  10.919  0.4978  0.6033  0.3831
   42HK4     H3 3489   3.063   2.289  10.922  0.4441  0.6999 -0.4374
   42HK4     C2 3490   3.250   2.269  11.021 -0.0250 -0.2794  0.3897
   42HK4     H2 3491   3.208   2.240  11.118 -1.3943 -2.0217 -0.7043
   42HK4     C1 3492   3.389   2.278  11.011 -0.0634 -0.6168 -0.5386
   42HK4     H1 3493   3.448   2.270  11.103  0.1140 -0.9699 -0.6796
   42HK4     C6 3494   3.449   2.343  10.902  0.0933  0.1796  0.0187
   42HK4     C5 3495   3.366   2.398  10.804  0.0622  0.1963  0.0551
   42HK4    C10 3496   3.426   2.470  10.687  0.2291 -0.3954 -0.2253
   42HK4     O1 3497   3.504   2.563  10.704 -0.1502 -0.1437  0.1507
   42HK4    C16 3498   3.580   2.287  10.867  0.0973 -0.1373  0.5352
   42HK4    C15 3499   3.604   2.149  10.882  0.8161 -0.0152  0.5317
   42HK4     H7 3500   3.516   2.089  10.909  0.5374  0.7107  1.2539
   42HK4    C20 3501   3.729   2.092  10.857  0.5724 -0.4998  0.4094
   42HK4     H9 3502   3.744   1.985  10.869 -0.7096 -0.9002 -1.3972
   42HK4    C19 3503   3.836   2.170  10.815  0.1827 -0.2796 -0.1803
   42HK4    C18 3504   3.817   2.314  10.809  0.3648 -0.2655 -0.4350
   42HK4    C17 3505   3.691   2.365  10.836  0.0692 -0.6799 -1.0179
   42HK4     H8 3506   3.679   2.471  10.860  1.4589 -1.1754  2.2081
   42HK4     N1 3507   3.943   2.378  10.810  0.2756 -0.0933 -0.1144
   42HK4    C21 3508   4.042   2.279  10.797  0.3943  0.1215 -0.8497
   42HK4    C22 3509   3.976   2.150  10.784  0.3160  0.0507  0.2104
   42HK4    C26 3510   4.048   2.039  10.742  0.5271  0.4786 -0.5743
   42HK4    H13 3511   3.993   1.948  10.718 -2.7723  2.2666 -0.1071
   42HK4    C25 3512   4.182   2.051  10.707  0.8423 -0.7965  0.1604
   42HK4    H12 3513   4.243   1.963  10.686 -0.3362 -1.6469  0.2594
   42HK4    C24 3514   4.247   2.172  10.727 -0.3989 -0.0475 -0.2826
   42HK4    H11 3515   4.356   2.177  10.717 -0.4985  0.4066 -1.1344
   42HK4    C23 3516   4.180   2.284  10.775  0.5247  0.3887  0.0147
   42HK4    H10 3517   4.237   2.367  10.816 -0.6587 -0.2649  3.1575
   42HK4    C39 3518   3.953   2.516  10.792 -0.0344 -0.0850 -0.2314
   42HK4    C41 3519   4.066   2.577  10.852 -0.1580  0.0875 -0.1745
   42HK4    H21 3520   4.098   2.545  10.952 -0.1181 -0.4441 -0.3564
   42HK4    C42 3521   4.110   2.700  10.804 -0.2536  0.3638  0.4363
   42HK4    H22 3522   4.205   2.734  10.849  0.2631  0.3923 -0.6450
   42HK4    C43 3523   4.040   2.763  10.701 -0.1971  0.0230  0.1831
   42HK4    H23 3524   4.080   2.851  10.651  1.7434 -1.3785 -0.7913
   42HK4    C44 3525   3.927   2.702  10.648 -0.2821  0.3930 -0.0536
   42HK4    H24 3526   3.859   2.756  10.580 -2.2404 -3.1098 -0.9435
   42HK4    C45 3527   3.878   2.580  10.691  0.5880 -0.2268 -0.7887
   42HK4    H25 3528   3.774   2.550  10.673 -0.2715  2.5413 -0.7312
   43HK4    H28 3529   3.968   8.558   0.574 -0.4307  0.0849  0.3862
   43HK4    C48 3530   4.050   8.508   0.624 -0.3301 -0.2063 -0.0692
   43HK4    C47 3531   4.066   8.517   0.762  0.1259 -0.2199 -0.1208
   43HK4    H27 3532   3.985   8.555   0.826  0.5267 -1.6609  1.2832
   43HK4    C46 3533   4.183   8.469   0.820 -0.0570 -0.0301  0.4069
   43HK4    H26 3534   4.190   8.476   0.929 -1.6991  1.2235  0.4420
   43HK4    C40 3535   4.280   8.401   0.744 -0.8356 -0.6748 -0.0214
   43HK4    C50 3536   4.257   8.394   0.605 -0.0191 -0.2410 -0.1829
   43HK4    H30 3537   4.310   8.314   0.552 -1.0054 -0.4315 -0.9020
   43HK4    C49 3538   4.146   8.450   0.542 -0.1755 -0.2164  0.1154
   43HK4    H29 3539   4.128   8.473   0.436 -0.9753  0.3499  0.3666
   43HK4     N2 3540   4.376   8.316   0.801 -0.2372 -0.0364 -0.0743
   43HK4    C30 3541   4.360   8.255   0.926 -0.0647  0.5089  0.2155
   43HK4    C29 3542   4.244   8.220   0.995 -0.0973  0.4410  0.1264
   43HK4    H15 3543   4.141   8.241   0.964  0.1439  0.8627 -0.4019
   43HK4    C28 3544   4.253   8.136   1.105 -0.5148 -0.1455 -0.2791
   43HK4    C27 3545   4.380   8.095   1.151 -0.1401  0.6309 -0.6031
   43HK4    H14 3546   4.388   8.019   1.231 -0.0848  1.2184 -0.0436
   43HK4    C32 3547   4.497   8.137   1.090  0.4093  0.2047  0.1472
   43HK4    H16 3548   4.593   8.130   1.140  0.8120  1.1119 -0.4862
   43HK4    C31 3549   4.490   8.214   0.974 -0.1637 -0.0578  0.0035
   43HK4    C34 3550   4.591   8.249   0.876 -0.1852  0.0163  0.0095
   43HK4    C33 3551   4.513   8.310   0.769 -0.0765  0.8985  0.4284
   43HK4    C35 3552   4.568   8.352   0.648  0.4149  0.6462  0.5618
   43HK4    H17 3553   4.510   8.389   0.564 -0.4938  3.5298  2.3662
   43HK4    C36 3554   4.706   8.337   0.642  0.3804  0.6884 -0.4174
   43HK4    H18 3555   4.746   8.371   0.546 -0.1818  0.0869 -0.8696
   43HK4    C37 3556   4.785   8.285   0.745 -0.4477 -0.6244 -0.4286
   43HK4    H19 3557   4.892   8.290   0.730 -0.5588  2.9028 -0.5311
   43HK4    C38 3558   4.727   8.230   0.859 -0.0058  0.8130  0.5079
   43HK4    H20 3559   4.790   8.178   0.931  1.4139  1.8797  0.0796
   43HK4    C14 3560   4.128   8.102   1.175 -0.5453  0.7433  0.1131
   43HK4     C9 3561   4.134   8.064   1.310 -0.5094 -0.6367 -0.2646
   43HK4     C8 3562   4.060   7.953   1.356 -0.3874 -0.4468  0.3942
   43HK4    C11 3563   3.972   7.888   1.270 -0.7601  0.3617  0.1511
   43HK4     H4 3564   3.922   7.792   1.291  1.7679 -0.8033  1.1067
   43HK4    C12 3565   3.960   7.938   1.141  0.9379  0.1650 -0.0986
   43HK4     H5 3566   3.871   7.908   1.084  1.4078  0.4351 -0.9858
   43HK4    C13 3567   4.035   8.043   1.087  0.2902  0.3954 -0.5562
   43HK4     H6 3568   3.999   8.078   0.989  1.2919  0.9573 -0.7226
   43HK4     C7 3569   4.104   7.887   1.480  0.2251  0.0447  0.4420
   43HK4     O2 3570   4.039   7.790   1.518 -0.0069  0.0368  0.0297
   43HK4     C4 3571   4.230   7.928   1.545  0.8646  0.1121 -0.8436
   43HK4     C3 3572   4.281   7.845   1.644  0.4260  0.1498 -0.5858
   43HK4     H3 3573   4.238   7.748   1.674 -0.4878  1.0521  1.0948
   43HK4     C2 3574   4.384   7.892   1.724  0.0484 -0.2621  0.1503
   43HK4     H2 3575   4.422   7.841   1.813  0.5027  0.9282  0.6508
   43HK4     C1 3576   4.437   8.019   1.700  0.2234 -0.3721 -0.0627
   43HK4     H1 3577   4.525   8.047   1.759  1.1226  0.5396 -1.8229
   43HK4     C6 3578   4.396   8.104   1.596  0.2657 -0.2131  0.0530
   43HK4     C5 3579   4.287   8.055   1.522 -0.2454  0.7942  0.1252
   43HK4    C10 3580   4.228   8.127   1.406 -0.4769 -0.3609 -0.4770
   43HK4     O1 3581   4.212   8.249   1.409 -0.2265 -0.3398  0.1000
   43HK4    C16 3582   4.474   8.227   1.580  0.3273 -0.3279 -0.5439
   43HK4    C15 3583   4.551   8.279   1.686 -0.1258  0.0816 -0.4144
   43HK4     H7 3584   4.536   8.241   1.788  0.1354 -1.1854 -0.8355
   43HK4    C20 3585   4.639   8.387   1.684  0.2171 -0.1956 -0.2589
   43HK4     H9 3586   4.667   8.450   1.768  1.3732 -0.0431 -0.7467
   43HK4    C19 3587   4.649   8.450   1.560 -0.5351  0.6467  0.1046
   43HK4    C18 3588   4.585   8.393   1.443 -0.1297 -0.2733  0.3251
   43HK4    C17 3589   4.497   8.286   1.455 -0.5901 -0.0025 -0.5646
   43HK4     H8 3590   4.465   8.232   1.366 -1.7397 -0.6721  0.2413
   43HK4     N1 3591   4.643   8.450   1.329 -0.3300 -0.1015  0.3069
   43HK4    C21 3592   4.746   8.539   1.365 -0.3593  0.1903 -0.3241
   43HK4    C22 3593   4.743   8.548   1.510  0.1146 -0.1766 -0.2909
   43HK4    C26 3594   4.819   8.648   1.570 -0.4655  0.2836 -0.3165
   43HK4    H13 3595   4.816   8.662   1.678 -0.4773 -0.5344 -0.2105
   43HK4    C25 3596   4.892   8.734   1.488  0.1856  0.2715  0.2581
   43HK4    H12 3597   4.952   8.813   1.533 -1.1462  0.5086  1.6780
   43HK4    C24 3598   4.907   8.712   1.352 -0.1822  0.0486  0.2505
   43HK4    H11 3599   4.991   8.769   1.308 -1.4533  1.9074  0.1672
   43HK4    C23 3600   4.834   8.614   1.287  0.5915 -0.4483  0.1257
   43HK4    H10 3601   4.852   8.581   1.185 -0.0829  0.1866 -0.1991
   43HK4    C39 3602   4.556   8.492   1.227 -0.0389  0.6076  0.3473
   43HK4    C41 3603   4.605   8.506   1.096  0.0335  0.9797  0.4146
   43HK4    H21 3604   4.705   8.473   1.064  0.1139  0.7169  0.9344
   43HK4    C42 3605   4.524   8.565   1.001 -0.4116 -0.2106  0.0440
   43HK4    H22 3606   4.555   8.592   0.899  0.6785  1.8440  0.8826
   43HK4    C43 3607   4.396   8.611   1.032 -0.0489  0.7176  0.2125
   43HK4    H23 3608   4.328   8.649   0.956  1.4624  1.8297 -0.6082
   43HK4    C44 3609   4.348   8.590   1.161  0.0959 -0.3183  0.1023
   43HK4    H24 3610   4.248   8.627   1.188 -0.2081 -0.5175 -0.7103
   43HK4    C45 3611   4.424   8.528   1.260 -0.3113 -0.3819  0.3768
   43HK4    H25 3612   4.374   8.478   1.344 -1.0055  0.3116  0.3876
   44HK4    H28 3613   6.345   7.039   0.074  2.5008  0.4732 -1.0169
   44HK4    C48 3614   6.309   7.004  11.225 -0.4909  0.8052 -0.0702
   44HK4    C47 3615   6.182   6.958  11.192 -0.1800  0.0542 -0.2296
   44HK4    H27 3616   6.112   6.949   0.029  1.1011 -2.4711  0.6077
   44HK4    C46 3617   6.139   6.921  11.065 -0.1250  0.4973 -0.3779
   44HK4    H26 3618   6.035   6.888  11.055  0.3422 -1.2660  0.3404
   44HK4    C40 3619   6.212   6.939  10.945  0.3168  0.1253 -0.1682
   44HK4    C50 3620   6.340   6.988  10.979  0.2062  0.2978 -0.0002
   44HK4    H30 3621   6.417   6.983  10.901 -1.1934  1.6621 -1.4954
   44HK4    C49 3622   6.385   7.008  11.109 -0.1671  0.3157  0.1268
   44HK4    H29 3623   6.489   7.042  11.117  0.1346 -0.2052 -1.4843
   44HK4     N2 3624   6.181   6.886  10.820  0.0889  0.3913 -0.2229
   44HK4    C30 3625   6.104   6.771  10.793  0.1160  0.2904  0.1361
   44HK4    C29 3626   6.066   6.671  10.881  0.7372 -0.6635 -0.6681
   44HK4    H15 3627   6.096   6.680  10.985 -0.1157 -0.1142 -0.4642
   44HK4    C28 3628   5.993   6.561  10.837 -0.9487  0.1553  0.0062
   44HK4    C27 3629   5.954   6.562  10.702 -0.2786  0.3176 -0.1893
   44HK4    H14 3630   5.876   6.492  10.668  0.2465 -1.6944  2.5377
   44HK4    C32 3631   5.995   6.656  10.608 -0.1179  0.0556 -0.3795
   44HK4    H16 3632   5.945   6.652  10.511  0.1565 -0.5403 -0.5013
   44HK4    C31 3633   6.072   6.763  10.652  0.0028 -0.2695  0.1960
   44HK4    C34 3634   6.137   6.874  10.587 -0.3188 -0.0153  0.3059
   44HK4    C33 3635   6.212   6.940  10.693  0.2005  0.2824 -0.2429
   44HK4    C35 3636   6.278   7.057  10.661  0.7363 -0.0421 -0.3296
   44HK4    H17 3637   6.330   7.124  10.730  0.0821  0.7480 -0.5908
   44HK4    C36 3638   6.284   7.106  10.530 -0.2477  0.1063 -0.3171
   44HK4    H18 3639   6.374   7.159  10.497 -0.3676 -0.7754 -2.0922
   44HK4    C37 3640   6.209   7.040  10.433  0.2242 -1.1586  0.1586
   44HK4    H19 3641   6.204   7.087  10.335 -0.1763  1.3688  1.3476
   44HK4    C38 3642   6.132   6.927  10.459 -0.2579 -0.8809 -0.0584
   44HK4    H20 3643   6.071   6.890  10.376  0.2141  2.2715 -1.9163
   44HK4    C14 3644   5.975   6.440  10.919  0.3969  0.0337  0.1411
   44HK4     C9 3645   5.956   6.313  10.864 -0.1977  0.0050  0.4028
   44HK4     C8 3646   5.855   6.229  10.916 -0.2307 -0.0908  0.1860
   44HK4    C11 3647   5.787   6.269  11.031  0.3214 -0.5840  0.6844
   44HK4     H4 3648   5.705   6.203  11.061 -0.4623  0.1238  0.1106
   44HK4    C12 3649   5.818   6.387  11.098  1.0359 -0.4852  0.1881
   44HK4     H5 3650   5.760   6.430  11.180  0.4670  1.9618 -1.4509
   44HK4    C13 3651   5.909   6.474  11.039  0.5524  0.0473  0.2234
   44HK4     H6 3652   5.949   6.551  11.107 -0.2603  2.4528 -1.9377
   44HK4     C7 3653   5.844   6.087  10.877 -0.0361 -0.0410 -0.0502
   44HK4     O2 3654   5.731   6.041  10.858  0.0051 -0.3029  0.3385
   44HK4     C4 3655   5.964   6.023  10.818  0.0632 -0.2196  0.3481
   44HK4     C3 3656   5.963   5.886  10.798 -0.1946 -0.2585  0.6242
   44HK4     H3 3657   5.877   5.817  10.808 -0.1012 -0.2545  1.4208
   44HK4     C2 3658   6.071   5.824  10.736 -0.1842  0.1240  0.2588
   44HK4     H2 3659   6.073   5.715  10.724 -0.4608  0.1435  0.0247
   44HK4     C1 3660   6.185   5.899  10.711 -0.1627 -0.0010 -0.0248
   44HK4     H1 3661   6.266   5.856  10.649 -0.4835 -0.4183 -0.1560
   44HK4     C6 3662   6.195   6.035  10.747 -0.2950  0.0582 -0.2167
   44HK4     C5 3663   6.081   6.099  10.795 -0.3365  0.1575 -0.4453
   44HK4    C10 3664   6.068   6.248  10.791 -0.1461  0.1965  0.3119
   44HK4     O1 3665   6.138   6.313  10.713  0.1817 -0.2730  0.2114
   44HK4    C16 3666   6.322   6.101  10.714 -0.0198 -0.2623  0.1931
   44HK4    C15 3667   6.403   6.063  10.605  0.3107 -0.5009  0.5179
   44HK4     H7 3668   6.352   6.012  10.522 -0.3456  1.9853 -0.6554
   44HK4    C20 3669   6.534   6.104  10.583  0.0137  0.2288  0.0986
   44HK4     H9 3670   6.568   6.116  10.480  0.9177  0.6789  0.4496
   44HK4    C19 3671   6.590   6.184  10.681  0.4161 -0.0430  0.0905
   44HK4    C18 3672   6.515   6.226  10.798  0.3189 -0.7827  0.2900
   44HK4    C17 3673   6.384   6.179  10.810 -0.2149  0.5312 -0.3212
   44HK4     H8 3674   6.327   6.226  10.890  0.0623  1.0657 -0.4309
   44HK4     N1 3675   6.597   6.307  10.878 -0.1582 -0.1812  0.1709
   44HK4    C21 3676   6.725   6.311  10.819 -0.4406  0.9945 -0.3938
   44HK4    C22 3677   6.724   6.239  10.693  0.2377  0.4341 -0.0837
   44HK4    C26 3678   6.828   6.238  10.601  0.1489 -0.3113 -0.1722
   44HK4    H13 3679   6.825   6.180  10.508  3.3730 -0.4481 -0.2486
   44HK4    C25 3680   6.935   6.323  10.625  0.0407 -0.1675 -0.2051
   44HK4    H12 3681   7.025   6.323  10.564  1.1562  2.0527  1.3669
   44HK4    C24 3682   6.930   6.404  10.738 -0.1405 -0.0445 -0.3004
   44HK4    H11 3683   7.018   6.466  10.764  0.7275 -2.0580  1.6882
   44HK4    C23 3684   6.832   6.398  10.836  0.0964  0.2731 -0.0407
   44HK4    H10 3685   6.841   6.456  10.927  1.1023  1.9268 -1.1669
   44HK4    C39 3686   6.541   6.409  10.957  1.0531  0.8344 -0.2661
   44HK4    C41 3687   6.619   6.459  11.063  1.0458  0.0883  0.0992
   44HK4    H21 3688   6.682   6.385  11.114 -1.9276 -1.3595  1.7508
   44HK4    C42 3689   6.602   6.583  11.123  0.4476 -0.5077  1.1633
   44HK4    H22 3690   6.664   6.611  11.210  2.5656 -3.1081  0.5556
   44HK4    C43 3691   6.503   6.665  11.071  0.8509 -0.8085 -0.0888
   44HK4    H23 3692   6.478   6.761  11.117  0.7587 -0.9416  0.1351
   44HK4    C44 3693   6.433   6.628  10.956 -0.0016 -0.5473  0.3370
   44HK4    H24 3694   6.388   6.706  10.892  0.9736 -0.5968 -0.4267
   44HK4    C45 3695   6.449   6.501  10.903  0.3719 -0.0783 -0.6774
   44HK4    H25 3696   6.378   6.475  10.823 -0.1104 -0.9881  0.0447
   45HK4    H28 3697   1.666   5.798   4.978 -0.5129 -0.5767 -0.4441
   45HK4    C48 3698   1.564   5.763   4.966 -0.8833  0.2478  0.3287
   45HK4    C47 3699   1.514   5.737   4.839  0.0668  0.3284 -0.0657
   45HK4    H27 3700   1.559   5.766   4.744  1.4936 -0.5217  0.3399
   45HK4    C46 3701   1.395   5.666   4.827  0.1827  0.0715  0.2888
   45HK4    H26 3702   1.367   5.628   4.728  0.0069  0.6032  0.1317
   45HK4    C40 3703   1.323   5.616   4.937  0.0848 -0.7244 -0.1383
   45HK4    C50 3704   1.376   5.647   5.064  0.2817 -0.6266 -0.2437
   45HK4    H30 3705   1.335   5.606   5.158 -0.3266  0.9153  0.1803
   45HK4    C49 3706   1.495   5.718   5.078  0.0212 -0.3608  0.6464
   45HK4    H29 3707   1.523   5.737   5.183 -1.3808 -0.0141  0.9683
   45HK4     N2 3708   1.192   5.571   4.912 -0.1990 -0.1201  0.2651
   45HK4    C30 3709   1.109   5.612   4.806  0.6739 -0.2992 -0.4993
   45HK4    C29 3710   1.124   5.723   4.725  0.0734 -0.2166 -0.5019
   45HK4    H15 3711   1.211   5.787   4.742  1.0375 -1.3713 -1.0442
   45HK4    C28 3712   1.023   5.761   4.638 -0.3087  0.0646  0.0598
   45HK4    C27 3713   0.908   5.680   4.631 -0.4724  0.2991  0.0211
   45HK4    H14 3714   0.840   5.694   4.545 -0.1594  2.5118  0.0901
   45HK4    C32 3715   0.890   5.569   4.713  0.5186  0.0157 -0.1464
   45HK4    H16 3716   0.798   5.512   4.698  1.5396 -1.5801 -0.4751
   45HK4    C31 3717   0.984   5.538   4.810  0.3913  0.1992  0.0348
   45HK4    C34 3718   0.994   5.447   4.923 -0.1731  0.0297 -0.0468
   45HK4    C33 3719   1.127   5.465   4.978 -0.5457  0.3864  0.7498
   45HK4    C35 3720   1.175   5.373   5.070 -0.3332 -0.2358  0.0247
   45HK4    H17 3721   1.274   5.395   5.112  0.0892  0.8860 -1.5322
   45HK4    C36 3722   1.097   5.265   5.112 -0.3484 -0.0290  0.5316
   45HK4    H18 3723   1.125   5.214   5.205  0.1780 -1.2207 -0.2739
   45HK4    C37 3724   0.976   5.242   5.048 -0.3692  0.1149  0.5199
   45HK4    H19 3725   0.923   5.150   5.074  0.9181  0.0588  3.0718
   45HK4    C38 3726   0.924   5.332   4.956 -0.1159  0.1147  0.3739
   45HK4    H20 3727   0.838   5.298   4.898  1.9544 -1.4576 -1.8840
   45HK4    C14 3728   1.012   5.898   4.585  0.2049  0.1624  0.2058
   45HK4     C9 3729   0.891   5.966   4.564  0.2171  0.1738  0.1744
   45HK4     C8 3730   0.866   6.043   4.448  0.2457 -0.4061 -0.2249
   45HK4    C11 3731   0.973   6.079   4.367 -0.1096  0.2695 -0.3916
   45HK4     H4 3732   0.963   6.159   4.292 -0.1446  1.0391  0.4277
   45HK4    C12 3733   1.095   6.023   4.401 -0.2383  0.0698 -0.2596
   45HK4     H5 3734   1.182   6.070   4.352  0.4486  0.9610  1.7763
   45HK4    C13 3735   1.122   5.935   4.505 -0.1050  0.1550 -0.2206
   45HK4     H6 3736   1.219   5.888   4.527 -0.7100 -0.7008  0.6631
   45HK4     C7 3737   0.735   6.103   4.414  0.3315 -0.1761 -0.1553
   45HK4     O2 3738   0.715   6.170   4.313  0.0504 -0.6667 -0.4263
   45HK4     C4 3739   0.623   6.078   4.508  0.3208 -0.1995 -0.1747
   45HK4     C3 3740   0.495   6.116   4.471  0.4123  0.2226 -0.0609
   45HK4     H3 3741   0.485   6.193   4.393  1.5064  0.7786  0.3335
   45HK4     C2 3742   0.383   6.069   4.539  0.3797 -0.2431 -0.4322
   45HK4     H2 3743   0.278   6.078   4.508 -0.0048  2.9038  1.5485
   45HK4     C1 3744   0.403   5.985   4.649 -0.3868  0.8864  0.5769
   45HK4     H1 3745   0.320   5.979   4.720  0.5488  0.1130  1.6112
   45HK4     C6 3746   0.532   5.952   4.695 -0.3710  0.2102  0.0621
   45HK4     C5 3747   0.643   6.004   4.627 -0.2316 -0.6324 -0.3523
   45HK4    C10 3748   0.782   5.966   4.664 -0.0200  0.3945 -0.0820
   45HK4     O1 3749   0.827   6.001   4.773  0.2375  0.5156 -0.2307
   45HK4    C16 3750   0.536   5.818   4.754  0.6148 -0.0101 -0.5044
   45HK4    C15 3751   0.446   5.716   4.716  0.1298  0.2674 -0.1050
   45HK4     H7 3752   0.391   5.730   4.621  1.5196  0.0289 -0.9669
   45HK4    C20 3753   0.442   5.593   4.780  0.4154  0.1908 -0.2314
   45HK4     H9 3754   0.386   5.519   4.724  0.9073 -0.5112  0.2060
   45HK4    C19 3755   0.522   5.556   4.887  0.6208  0.1454 -0.3994
   45HK4    C18 3756   0.606   5.665   4.933 -0.3120  0.4192  0.6793
   45HK4    C17 3757   0.604   5.790   4.872 -0.0087  0.0338 -0.1322
   45HK4     H8 3758   0.648   5.878   4.920 -0.2414  0.2688 -0.3554
   45HK4     N1 3759   0.680   5.621   5.045  0.7858 -0.3300 -0.3299
   45HK4    C21 3760   0.653   5.484   5.065 -0.3601 -0.0497  0.1089
   45HK4    C22 3761   0.555   5.440   4.968 -0.2408  0.1209 -0.0877
   45HK4    C26 3762   0.499   5.316   4.994 -0.0302  0.1429  0.4863
   45HK4    H13 3763   0.425   5.286   4.920  1.8623 -1.0426 -0.9844
   45HK4    C25 3764   0.547   5.224   5.087 -0.2935 -0.3006  0.1867
   45HK4    H12 3765   0.492   5.133   5.110 -2.7215  1.7580  2.8849
   45HK4    C24 3766   0.644   5.267   5.176 -0.2927 -0.1443  0.1115
   45HK4    H11 3767   0.650   5.205   5.267 -0.4025  0.2494  0.3904
   45HK4    C23 3768   0.691   5.398   5.167 -0.2394 -0.1738 -0.0394
   45HK4    H10 3769   0.779   5.415   5.230  0.0167 -2.6403  0.3433
   45HK4    C39 3770   0.786   5.691   5.102  0.2919 -0.3068  0.5748
   45HK4    C41 3771   0.829   5.673   5.235 -0.7721  0.5763  1.0420
   45HK4    H21 3772   0.761   5.633   5.312  0.2851 -3.2495  0.1264
   45HK4    C42 3773   0.958   5.701   5.278 -0.1623 -0.7720  0.1328
   45HK4    H22 3774   0.985   5.680   5.382  3.0537  0.6252 -0.3597
   45HK4    C43 3775   1.048   5.773   5.200 -0.1154 -1.0266 -0.0496
   45HK4    H23 3776   1.146   5.799   5.240 -0.3300  2.5086 -1.6420
   45HK4    C44 3777   1.009   5.799   5.070  0.6494 -0.8016 -0.2383
   45HK4    H24 3778   1.066   5.867   5.005  2.1000  0.5750  2.3938
   45HK4    C45 3779   0.885   5.755   5.024  0.2353 -0.3668  0.4527
   45HK4    H25 3780   0.870   5.769   4.916  1.0663  0.4037  0.4296
   46HK4    H28 3781  10.522   8.116  10.603 -2.0743  0.9717  1.0524
   46HK4    C48 3782  10.484   8.180  10.524 -0.0021  0.2817 -0.5344
   46HK4    C47 3783  10.538   8.308  10.519  0.1499  0.2378 -0.0282
   46HK4    H27 3784  10.598   8.343  10.604  0.3673 -0.9973  0.3399
   46HK4    C46 3785  10.497   8.395  10.418 -0.2803 -0.0401 -0.0938
   46HK4    H26 3786  10.542   8.495  10.408 -0.6066 -0.0517 -1.7507
   46HK4    C40 3787  10.394   8.361  10.328 -0.0206 -0.0266 -0.3976
   46HK4    C50 3788  10.343   8.230  10.337 -0.3746  0.1375  0.0521
   46HK4    H30 3789  10.278   8.197  10.254 -0.8246 -0.3337  0.5857
   46HK4    C49 3790  10.384   8.141  10.436 -0.2629  0.0008 -0.1160
   46HK4    H29 3791  10.323   8.050  10.450 -2.0263  0.9957 -1.1163
   46HK4     N2 3792  10.334   8.460  10.250  0.1854  0.1868 -0.2858
   46HK4    C30 3793  10.337   8.596  10.289  0.4047  0.0107  0.3026
   46HK4    C29 3794  10.318   8.646  10.417 -0.3722  0.1310  0.1465
   46HK4    H15 3795  10.286   8.577  10.495 -0.8806 -1.5630 -1.5320
   46HK4    C28 3796  10.318   8.782  10.446  0.3210  0.1356  0.1210
   46HK4    C27 3797  10.322   8.871  10.336  0.5496  0.1369  0.1295
   46HK4    H14 3798  10.351   8.975  10.355  0.8240 -0.3095  2.3956
   46HK4    C32 3799  10.329   8.828  10.204 -0.1830 -0.2161  0.2013
   46HK4    H16 3800  10.318   8.891  10.116 -1.4288  0.5070  0.8517
   46HK4    C31 3801  10.332   8.691  10.180 -0.2086 -0.2040  0.1386
   46HK4    C34 3802  10.322   8.605  10.063 -0.0284 -0.0814  0.0314
   46HK4    C33 3803  10.319   8.468  10.110 -0.2522 -0.1777 -0.2645
   46HK4    C35 3804  10.295   8.364  10.020  0.1774 -0.3671 -0.1597
   46HK4    H17 3805  10.312   8.262  10.052  1.8171 -0.2186 -0.5425
   46HK4    C36 3806  10.271   8.393   9.886  0.5005 -0.4561 -0.2356
   46HK4    H18 3807  10.210   8.325   9.824  0.2814 -2.8228  2.4682
   46HK4    C37 3808  10.298   8.521   9.839 -0.4740 -0.0106  0.3947
   46HK4    H19 3809  10.281   8.549   9.735 -0.3846  2.3069  0.9736
   46HK4    C38 3810  10.321   8.627   9.926  0.1698  0.1254  0.0623
   46HK4    H20 3811  10.340   8.727   9.889 -0.0487  1.4346  3.3793
   46HK4    C14 3812  10.329   8.838  10.581  0.1109 -0.1782  0.2693
   46HK4     C9 3813  10.314   8.972  10.621  0.1038  0.0586 -0.4996
   46HK4     C8 3814  10.383   9.020  10.734  0.0693 -0.0822 -0.4241
   46HK4    C11 3815  10.453   8.934  10.818 -0.7356 -0.1831  0.1625
   46HK4     H4 3816  10.526   8.969  10.893 -1.5183 -1.1800  1.3912
   46HK4    C12 3817  10.445   8.798  10.791 -0.7214 -0.2011  0.2612
   46HK4     H5 3818  10.470   8.729  10.873  2.0392 -0.4983 -0.7837
   46HK4    C13 3819  10.390   8.751  10.673  0.0255 -0.4933  0.0266
   46HK4     H6 3820  10.400   8.642  10.658  0.4679 -0.9019  2.9968
   46HK4     C7 3821  10.379   9.160  10.783 -0.4710 -0.2288 -0.0297
   46HK4     O2 3822  10.423   9.195  10.892  0.0778 -0.0897 -0.2958
   46HK4     C4 3823  10.303   9.254  10.698  0.1167  0.1697 -0.1145
   46HK4     C3 3824  10.319   9.391  10.720 -0.2449  0.1132  0.5022
   46HK4     H3 3825  10.393   9.433  10.790  0.6684  1.3193 -1.1698
   46HK4     C2 3826  10.259   9.486  10.638 -0.4672  0.0208  0.5552
   46HK4     H2 3827  10.306   9.585  10.636 -3.1064  1.2842 -0.1343
   46HK4     C1 3828  10.181   9.442  10.531 -0.3329  0.4280  0.2902
   46HK4     H1 3829  10.157   9.525  10.462 -0.0087  0.2374 -0.0560
   46HK4     C6 3830  10.164   9.306  10.501 -0.3491  0.3082  0.8368
   46HK4     C5 3831  10.226   9.215  10.587 -0.7665 -0.1892  0.6176
   46HK4    C10 3832  10.215   9.068  10.564 -0.2314 -0.1016 -0.1988
   46HK4     O1 3833  10.105   9.022  10.535 -0.2781 -0.1751  0.0930
   46HK4    C16 3834  10.044   9.278  10.420  0.5436  0.6233 -0.6082
   46HK4    C15 3835   9.934   9.366  10.429 -0.2903 -0.5300  0.6094
   46HK4     H7 3836   9.926   9.439  10.511  1.1060  1.0562 -0.6463
   46HK4    C20 3837   9.832   9.369  10.335  0.1289  0.1065  0.1760
   46HK4     H9 3838   9.751   9.441  10.350 -0.7134 -0.8484  0.2579
   46HK4    C19 3839   9.840   9.282  10.227 -0.2586 -0.1003  0.3155
   46HK4    C18 3840   9.946   9.183  10.221 -0.1457  0.0595 -0.3322
   46HK4    C17 3841  10.051   9.191  10.312 -0.0989  0.3167 -0.4084
   46HK4     H8 3842  10.144   9.135  10.299  0.5762  1.5322 -0.9600
   46HK4     N1 3843   9.916   9.089  10.121 -0.3562  0.0337 -0.2483
   46HK4    C21 3844   9.801   9.137  10.055 -0.3482  0.4184  0.0141
   46HK4    C22 3845   9.739   9.244  10.131 -0.4340  0.0705  0.4320
   46HK4    C26 3846   9.633   9.309  10.069  0.6067  0.4948 -0.9302
   46HK4    H13 3847   9.582   9.390  10.123  1.0761  0.6982 -0.7976
   46HK4    C25 3848   9.600   9.291   9.935 -0.1585  0.3121 -0.7267
   46HK4    H12 3849   9.537   9.363   9.884  1.0840  0.7540 -1.6702
   46HK4    C24 3850   9.657   9.186   9.864  0.2580  0.2682 -0.3305
   46HK4    H11 3851   9.657   9.176   9.754  2.3398 -0.1074 -0.3117
   46HK4    C23 3852   9.753   9.109   9.928  0.1596  0.2941 -0.1514
   46HK4    H10 3853   9.808   9.034   9.870  1.2127  1.4273 -0.6455
   46HK4    C39 3854   9.949   8.953  10.117 -0.8690 -0.0891 -0.2801
   46HK4    C41 3855   9.983   8.887   9.997 -0.5863  0.2521 -0.3877
   46HK4    H21 3856  10.002   8.954   9.912  0.9975  2.1238  1.3799
   46HK4    C42 3857  10.003   8.749   9.998 -0.1113  0.3220  0.3996
   46HK4    H22 3858  10.024   8.705   9.900 -1.0270 -0.0103  0.3499
   46HK4    C43 3859   9.987   8.673  10.113  0.3682 -0.1168  0.1760
   46HK4    H23 3860   9.995   8.566  10.095 -0.7438 -0.2067  0.1804
   46HK4    C44 3861   9.954   8.739  10.231 -0.1360  0.2162 -0.1514
   46HK4    H24 3862   9.967   8.687  10.327  1.6215  0.1498 -0.3947
   46HK4    C45 3863   9.935   8.876  10.235  0.3430  0.2787  0.1055
   46HK4    H25 3864   9.912   8.919  10.334 -0.4209 -0.7432  0.3749
   47HK4    H28 3865   5.633   9.615   7.290 -1.2381  2.0344 -0.6553
   47HK4    C48 3866   5.675   9.649   7.384 -0.5814 -0.7048  0.0839
   47HK4    C47 3867   5.724   9.565   7.484 -0.3769 -0.3175  0.3094
   47HK4    H27 3868   5.696   9.460   7.471  1.7089 -0.9899  1.1192
   47HK4    C46 3869   5.777   9.614   7.603 -0.2952  0.5451 -0.0736
   47HK4    H26 3870   5.824   9.542   7.672 -1.7543  0.3190  0.7065
   47HK4    C40 3871   5.791   9.752   7.625 -0.2909  0.5144  0.1253
   47HK4    C50 3872   5.729   9.832   7.526 -0.4410  0.0658 -0.1444
   47HK4    H30 3873   5.709   9.939   7.545  3.3779  0.6680  0.9699
   47HK4    C49 3874   5.668   9.785   7.411 -0.3596 -0.6972  0.1183
   47HK4    H29 3875   5.624   9.858   7.341 -1.9565 -0.6437  1.1485
   47HK4     N2 3876   5.836   9.811   7.744  0.3671 -0.2904  0.2745
   47HK4    C30 3877   5.828   9.751   7.871 -0.4442 -0.1510  0.2927
   47HK4    C29 3878   5.756   9.642   7.919 -0.2996 -0.4779 -0.2187
   47HK4    H15 3879   5.691   9.586   7.851  0.5081  0.4128 -1.7419
   47HK4    C28 3880   5.755   9.602   8.052  0.3835 -0.0324 -0.0808
   47HK4    C27 3881   5.852   9.668   8.131  0.1268  0.2229  0.0201
   47HK4    H14 3882   5.886   9.619   8.224  0.8401 -0.2458 -0.4783
   47HK4    C32 3883   5.927   9.777   8.091  0.1562  0.1013 -0.2749
   47HK4    H16 3884   5.998   9.824   8.160 -0.6797  2.6938 -1.1100
   47HK4    C31 3885   5.928   9.812   7.956 -0.0272 -0.0008 -0.3032
   47HK4    C34 3886   5.990   9.923   7.886  0.1230 -0.0295 -0.2150
   47HK4    C33 3887   5.929   9.916   7.755  0.0658  0.0300 -0.1923
   47HK4    C35 3888   5.981  10.006   7.662  0.3844 -0.6687 -0.6838
   47HK4    H17 3889   5.958   9.995   7.556 -2.2545 -2.9536  0.0545
   47HK4    C36 3890   6.080  10.098   7.692 -0.3109 -0.0104 -0.4086
   47HK4    H18 3891   6.118  10.164   7.613 -1.6609  0.6826 -0.5036
   47HK4    C37 3892   6.135  10.112   7.819 -0.8162 -0.2052 -0.1688
   47HK4    H19 3893   6.179  10.206   7.850 -2.6912  0.8661 -0.6777
   47HK4    C38 3894   6.090  10.016   7.910  0.3834 -0.4142  0.2035
   47HK4    H20 3895   6.122  10.012   8.014 -1.7672  0.2380  0.9157
   47HK4    C14 3896   5.641   9.541   8.122 -0.0903  0.4962 -0.3889
   47HK4     C9 3897   5.596   9.569   8.251 -0.3012  0.2843 -0.4137
   47HK4     C8 3898   5.537   9.470   8.332  0.0579  0.2977 -0.1307
   47HK4    C11 3899   5.508   9.348   8.271 -0.1129  0.3038 -0.0637
   47HK4     H4 3900   5.438   9.286   8.329  1.1731 -2.3772 -1.3045
   47HK4    C12 3901   5.537   9.321   8.138  0.0694 -0.6437  0.1637
   47HK4     H5 3902   5.522   9.222   8.092 -0.6434 -0.7327  0.5789
   47HK4    C13 3903   5.603   9.418   8.064  0.5457 -0.3527  0.9715
   47HK4     H6 3904   5.601   9.412   7.954  1.6415  1.0390  0.8573
   47HK4     C7 3905   5.532   9.498   8.477 -0.3159 -0.4891  0.0134
   47HK4     O2 3906   5.486   9.405   8.543 -0.8138 -0.3662 -0.1584
   47HK4     C4 3907   5.582   9.622   8.540 -0.1995 -0.5575  0.0550
   47HK4     C3 3908   5.588   9.627   8.679 -0.1206  0.4054  0.0213
   47HK4     H3 3909   5.550   9.546   8.743 -1.3999  1.2300  0.3456
   47HK4     C2 3910   5.642   9.739   8.742  1.2469 -0.3140  0.1388
   47HK4     H2 3911   5.644   9.746   8.851 -1.1235  0.8831  0.1371
   47HK4     C1 3912   5.702   9.835   8.662  0.4484 -0.1139 -0.2282
   47HK4     H1 3913   5.766   9.911   8.709 -0.6873  1.2130 -0.7831
   47HK4     C6 3914   5.690   9.834   8.521 -0.4880  0.6625 -0.1628
   47HK4     C5 3915   5.622   9.729   8.458 -0.0369 -0.1421  0.6696
   47HK4    C10 3916   5.622   9.703   8.311  0.2350 -0.3083  0.6999
   47HK4     O1 3917   5.583   9.792   8.235 -0.4053 -0.6657  0.6086
   47HK4    C16 3918   5.788   9.923   8.457  0.1349  0.3747  0.3829
   47HK4    C15 3919   5.926   9.912   8.485  0.2429  0.4704 -0.1163
   47HK4     H7 3920   5.966   9.836   8.554  1.3321 -0.3751 -1.6498
   47HK4    C20 3921   6.011   9.994   8.413  0.7491  0.2006  0.1780
   47HK4     H9 3922   6.117   9.997   8.438  0.0800  0.6819  3.1351
   47HK4    C19 3923   5.970  10.084   8.315  0.1586 -0.9146 -0.6036
   47HK4    C18 3924   5.827  10.102   8.298  0.1780  0.4219  0.5186
   47HK4    C17 3925   5.741  10.017   8.366  0.1284  0.3069  0.3146
   47HK4     H8 3926   5.633  10.023   8.354 -0.0823 -1.0403  1.3541
   47HK4     N1 3927   5.800  10.209   8.210  0.0861 -0.3024 -0.3481
   47HK4    C21 3928   5.925  10.258   8.167  0.0528  0.6629  0.6385
   47HK4    C22 3929   6.032  10.184   8.230 -0.1667 -0.1656  0.0400
   47HK4    C26 3930   6.164  10.225   8.217 -0.0346 -0.5162  0.2493
   47HK4    H13 3931   6.251  10.176   8.261  1.9193  2.9177  0.3990
   47HK4    C25 3932   6.191  10.341   8.146  0.2883 -0.3590  0.6332
   47HK4    H12 3933   6.294  10.368   8.120  0.8568 -0.9205  2.2639
   47HK4    C24 3934   6.089  10.418   8.091  0.5050  0.0345  0.7753
   47HK4    H11 3935   6.108  10.507   8.030 -0.0339  0.3125  1.0131
   47HK4    C23 3936   5.958  10.372   8.094  0.3474  0.4602  0.4495
   47HK4    H10 3937   5.883  10.428   8.037  0.4911 -0.1444 -0.3489
   47HK4    C39 3938   5.675  10.228   8.151  0.2728  0.2487 -0.5717
   47HK4    C41 3939   5.637  10.353   8.099  0.0903  0.3634 -0.1559
   47HK4    H21 3940   5.651  10.434   8.172 -0.1316  0.8233 -0.6203
   47HK4    C42 3941   5.557  10.365   7.986 -0.7906  0.0801  0.4319
   47HK4    H22 3942   5.552  10.464   7.938 -1.4449 -0.6191 -0.9803
   47HK4    C43 3943   5.506  10.252   7.923  0.1791  0.0990 -0.3968
   47HK4    H23 3944   5.455  10.258   7.827 -0.4535  2.7096  0.0592
   47HK4    C44 3945   5.534  10.127   7.978  1.0475  0.3213 -0.3378
   47HK4    H24 3946   5.483  10.037   7.941 -0.3553  0.9895 -0.0677
   47HK4    C45 3947   5.622  10.115   8.085  0.1799 -0.2295  0.3223
   47HK4    H25 3948   5.645  10.012   8.118  1.0572 -0.6914 -1.6144
   48HK4    H28 3949   8.946   0.693   1.929 -2.3537 -0.1585  0.7053
   48HK4    C48 3950   8.937   0.639   1.834  0.1901 -0.3912  0.5570
   48HK4    C47 3951   8.990   0.681   1.713 -0.0235 -0.1262  0.5549
   48HK4    H27 3952   9.039   0.779   1.701 -0.4636  0.1428  0.8910
   48HK4    C46 3953   8.961   0.612   1.596  0.5190 -0.2705  0.5040
   48HK4    H26 3954   8.996   0.656   1.501 -2.4562 -0.8534 -0.9154
   48HK4    C40 3955   8.886   0.493   1.592 -0.1737  0.1783 -0.2583
   48HK4    C50 3956   8.838   0.454   1.718  0.2594  0.2408 -0.0732
   48HK4    H30 3957   8.770   0.370   1.735 -1.6635  2.1890  2.3226
   48HK4    C49 3958   8.864   0.521   1.838  0.8138 -0.7827  0.3884
   48HK4    H29 3959   8.832   0.482   1.935 -0.4535  0.7054  0.6001
   48HK4     N2 3960   8.842   0.431   1.474  0.5952 -0.2761 -0.3150
   48HK4    C30 3961   8.823   0.498   1.351  0.5291 -0.0290 -0.1709
   48HK4    C29 3962   8.772   0.627   1.340  0.0764 -0.2286 -0.4335
   48HK4    H15 3963   8.811   0.699   1.411  1.0185 -0.4374 -0.7238
   48HK4    C28 3964   8.729   0.681   1.219  0.3706 -0.0468 -0.4584
   48HK4    C27 3965   8.739   0.595   1.108  0.2122 -0.2874 -0.2865
   48HK4    H14 3966   8.743   0.644   1.010 -0.4137 -0.5412 -0.4378
   48HK4    C32 3967   8.776   0.461   1.114  0.5641 -0.2062 -0.6729
   48HK4    H16 3968   8.785   0.400   1.025  0.9522 -1.5843  0.2919
   48HK4    C31 3969   8.814   0.408   1.237  0.4865  0.3035 -0.4289
   48HK4    C34 3970   8.851   0.282   1.298 -0.4406  0.2315 -0.0053
   48HK4    C33 3971   8.848   0.294   1.442  0.1142 -0.3842  0.0601
   48HK4    C35 3972   8.878   0.184   1.521  0.5529 -0.2690  0.0556
   48HK4    H17 3973   8.860   0.188   1.629  1.5114 -0.6855  0.2389
   48HK4    C36 3974   8.915   0.064   1.461 -0.1539 -0.3766 -0.1812
   48HK4    H18 3975   8.912  11.225   1.528 -2.2890  1.7079  2.5471
   48HK4    C37 3976   8.925   0.053   1.323 -0.8125  0.2954 -0.2822
   48HK4    H19 3977   8.942  11.201   1.282  2.2604  0.2231  1.1066
   48HK4    C38 3978   8.889   0.160   1.242 -0.4038  0.3927 -0.3339
   48HK4    H20 3979   8.889   0.150   1.134  2.7892  0.2585 -0.3752
   48HK4    C14 3980   8.630   0.790   1.224  0.1489 -0.2657 -0.0125
   48HK4     C9 3981   8.512   0.806   1.150 -0.3774 -0.0678  0.8556
   48HK4     C8 3982   8.456   0.933   1.130 -0.2163 -0.1977 -0.5087
   48HK4    C11 3983   8.509   1.042   1.199  0.2515 -0.3982 -0.5511
   48HK4     H4 3984   8.472   1.144   1.179  2.3340  0.5150  0.1050
   48HK4    C12 3985   8.611   1.025   1.291 -0.5015 -0.0110  0.3645
   48HK4     H5 3986   8.640   1.097   1.369 -0.6645 -0.9626  1.3115
   48HK4    C13 3987   8.673   0.901   1.301  0.0339  0.1762 -0.5831
   48HK4     H6 3988   8.763   0.892   1.363 -1.4822  0.5993  1.7617
   48HK4     C7 3989   8.345   0.956   1.035 -0.5790 -0.0060 -0.0393
   48HK4     O2 3990   8.336   1.056   0.963  0.1867 -0.0947 -0.2628
   48HK4     C4 3991   8.280   0.837   0.976  0.0432 -0.3546 -0.0293
   48HK4     C3 3992   8.161   0.852   0.905  0.1703  0.1440 -0.1337
   48HK4     H3 3993   8.125   0.949   0.866 -1.4825 -0.5545 -0.3804
   48HK4     C2 3994   8.089   0.744   0.856  0.4229 -0.0397 -0.0992
   48HK4     H2 3995   8.003   0.761   0.791 -1.4931  1.5298  2.7468
   48HK4     C1 3996   8.140   0.615   0.870 -0.2765 -0.3659 -0.5438
   48HK4     H1 3997   8.092   0.529   0.821  1.1625 -1.4919 -0.0299
   48HK4     C6 3998   8.264   0.600   0.935 -0.3690  0.2387 -0.2206
   48HK4     C5 3999   8.327   0.707   1.000 -0.1227 -0.3241  0.4660
   48HK4    C10 4000   8.440   0.688   1.095  0.5440 -0.1052 -0.2921
   48HK4     O1 4001   8.420   0.598   1.176  0.5343 -0.2309 -0.4336
   48HK4    C16 4002   8.317   0.463   0.926 -0.2554  0.2866 -0.2992
   48HK4    C15 4003   8.456   0.440   0.920 -0.2011  0.5424  0.0619
   48HK4     H7 4004   8.513   0.532   0.901 -1.5192  1.2238 -0.6408
   48HK4    C20 4005   8.521   0.321   0.951 -0.0168  0.4702 -0.5953
   48HK4     H9 4006   8.629   0.308   0.941  0.4081  1.3197  2.5577
   48HK4    C19 4007   8.446   0.206   0.972  0.0461  0.4883 -0.2640
   48HK4    C18 4008   8.302   0.223   0.971 -0.0176 -0.0142  0.0042
   48HK4    C17 4009   8.244   0.347   0.951  0.1959  0.1608  0.4531
   48HK4     H8 4010   8.140   0.362   0.982 -0.0845 -1.2581  0.2485
   48HK4     N1 4011   8.231   0.116   1.028  0.3092 -0.2525 -0.0350
   48HK4    C21 4012   8.333   0.026   1.064  0.2171 -0.0786  0.6550
   48HK4    C22 4013   8.466   0.077   1.036 -0.1736  0.5890  0.0056
   48HK4    C26 4014   8.580   0.014   1.084 -0.7706 -0.5778 -0.1070
   48HK4    H13 4015   8.680   0.053   1.068  0.1593 -2.8826 -0.2083
   48HK4    C25 4016   8.571  11.137   1.146 -0.6219 -0.7051 -0.3397
   48HK4    H12 4017   8.662  11.087   1.176  1.0976  1.8542 -1.0871
   48HK4    C24 4018   8.445  11.084   1.172 -0.8249  0.1588  0.5050
   48HK4    H11 4019   8.442  11.004   1.247  0.8225  0.4114  0.8573
   48HK4    C23 4020   8.331  11.152   1.131 -0.9985 -0.2329  0.3463
   48HK4    H10 4021   8.244  11.092   1.103 -0.6788 -0.8772  0.7239
   48HK4    C39 4022   8.096   0.093   0.997  0.0700  0.3290  0.5758
   48HK4    C41 4023   8.027   0.016   1.094 -0.1960 -0.2079 -0.0342
   48HK4    H21 4024   8.061   0.029   1.198 -3.0223  1.8209  0.6746
   48HK4    C42 4025   7.922  11.181   1.058 -0.1584 -0.2074 -0.1442
   48HK4    H22 4026   7.849  11.142   1.131  0.6769 -1.0810  0.2465
   48HK4    C43 4027   7.881  11.158   0.927 -0.3306  0.5663 -0.2276
   48HK4    H23 4028   7.794  11.097   0.904 -0.0636 -0.1901  0.7260
   48HK4    C44 4029   7.951  11.229   0.831 -0.3008  0.4388 -0.2993
   48HK4    H24 4030   7.924  11.225   0.724 -2.3712 -1.7096  0.2822
   48HK4    C45 4031   8.049   0.073   0.866  0.2519 -0.4877  0.6265
   48HK4    H25 4032   8.081   0.147   0.790 -2.1119 -0.4338 -0.3556
   49HK4    H28 4033  10.141   3.232   7.796 -0.7018  1.8797  0.5380
   49HK4    C48 4034  10.243   3.257   7.766 -0.2431 -0.4447  0.0538
   49HK4    C47 4035  10.342   3.281   7.861  0.0053 -0.6488 -0.1577
   49HK4    H27 4036  10.318   3.270   7.967 -0.1638  1.3766  0.0280
   49HK4    C46 4037  10.464   3.324   7.810 -0.2165  0.0349 -0.1149
   49HK4    H26 4038  10.550   3.315   7.879 -0.4386 -1.7420 -0.0309
   49HK4    C40 4039  10.491   3.351   7.675 -0.1368 -0.4400 -0.1986
   49HK4    C50 4040  10.382   3.326   7.589  0.0115 -0.2702 -0.4403
   49HK4    H30 4041  10.389   3.356   7.483  1.3820  0.8343 -0.0570
   49HK4    C49 4042  10.260   3.273   7.629  0.0933 -0.0179  0.1432
   49HK4    H29 4043  10.189   3.290   7.547  0.9007 -1.7941 -0.9681
   49HK4     N2 4044  10.599   3.427   7.628  0.1532 -0.1550  0.9098
   49HK4    C30 4045  10.665   3.528   7.701 -0.0447  0.2657  0.5111
   49HK4    C29 4046  10.623   3.604   7.809  0.0674 -0.7809  1.2967
   49HK4    H15 4047  10.528   3.575   7.854 -0.0725 -1.7654  0.3830
   49HK4    C28 4048  10.702   3.708   7.857 -0.2159  0.2942 -0.5066
   49HK4    C27 4049  10.827   3.729   7.796  0.3080 -0.2950  0.3376
   49HK4    H14 4050  10.896   3.800   7.842  0.3828 -0.9715  1.2781
   49HK4    C32 4051  10.870   3.661   7.683  0.5110 -0.9728  0.8225
   49HK4    H16 4052  10.976   3.661   7.657  0.7965  1.8133  1.8696
   49HK4    C31 4053  10.792   3.556   7.637 -0.1224 -0.2097  0.1418
   49HK4    C34 4054  10.801   3.467   7.522  0.0622 -0.2276  0.1701
   49HK4    C33 4055  10.680   3.387   7.519 -0.2737  0.2678  0.4306
   49HK4    C35 4056  10.680   3.273   7.440 -0.4115  0.7642 -0.2840
   49HK4    H17 4057  10.592   3.211   7.428 -0.3283  0.5463  0.2580
   49HK4    C36 4058  10.788   3.244   7.356 -0.2161 -0.0837  0.2514
   49HK4    H18 4059  10.782   3.167   7.278 -0.9412  0.1897  0.0323
   49HK4    C37 4060  10.902   3.324   7.355 -0.0722 -0.2919  0.1855
   49HK4    H19 4061  10.988   3.304   7.292  0.2721  0.7842  0.2944
   49HK4    C38 4062  10.909   3.432   7.442 -0.1293  0.0240 -0.1978
   49HK4    H20 4063  10.988   3.506   7.430 -1.4542  1.3539 -0.8995
   49HK4    C14 4064  10.635   3.796   7.954  0.4122  0.1738  0.0373
   49HK4     C9 4065  10.659   3.934   7.961  0.6158  0.1314  0.1722
   49HK4     C8 4066  10.634   4.010   8.077 -0.5087  0.3813 -0.2267
   49HK4    C11 4067  10.580   3.949   8.189 -0.2085  0.1013 -0.2337
   49HK4     H4 4068  10.534   4.005   8.272  0.8117 -0.8128  0.9617
   49HK4    C12 4069  10.560   3.811   8.185  0.2362  0.0419 -0.4134
   49HK4     H5 4070  10.517   3.761   8.273 -1.4715  0.0562 -1.2201
   49HK4    C13 4071  10.586   3.735   8.072 -0.3227 -0.1335 -0.4237
   49HK4     H6 4072  10.551   3.631   8.070  1.5477 -0.8424  1.4982
   49HK4     C7 4073  10.692   4.146   8.087 -0.2941  0.2825 -0.0822
   49HK4     O2 4074  10.653   4.224   8.174  0.3128  0.0465  0.4058
   49HK4     C4 4075  10.795   4.190   7.991  0.0929 -0.2383  0.0969
   49HK4     C3 4076  10.880   4.291   8.035 -0.0020 -0.1135 -0.0111
   49HK4     H3 4077  10.856   4.352   8.123 -1.2193 -1.1790  0.4027
   49HK4     C2 4078  10.987   4.327   7.953 -0.2423 -0.0354 -0.2940
   49HK4     H2 4079  11.073   4.382   7.995 -0.3971 -0.9769  1.2750
   49HK4     C1 4080  10.998   4.265   7.829 -0.5662  0.0598 -0.3711
   49HK4     H1 4081  11.079   4.306   7.767 -0.7977 -0.3161 -0.9192
   49HK4     C6 4082  10.917   4.158   7.786  0.0500 -0.5495 -0.0171
   49HK4     C5 4083  10.807   4.125   7.866 -0.2728  0.1760 -0.1563
   49HK4    C10 4084  10.722   4.005   7.846  0.5637 -0.4173 -0.2009
   49HK4     O1 4085  10.655   4.003   7.743 -0.0406 -0.3105  0.1872
   49HK4    C16 4086  10.979   4.059   7.697  0.5128  0.0201 -0.3336
   49HK4    C15 4087  11.114   4.020   7.715  0.2618 -0.4637  0.5804
   49HK4     H7 4088  11.160   4.002   7.813  0.2689 -1.7789  0.3526
   49HK4    C20 4089  11.193   3.969   7.612  0.1027 -0.0350  0.2489
   49HK4     H9 4090   0.047   3.946   7.641  0.5048 -0.3137 -1.3604
   49HK4    C19 4091  11.136   3.946   7.487 -0.0565  0.9082  0.1454
   49HK4    C18 4092  10.996   3.980   7.467 -0.4965 -1.0058 -0.0978
   49HK4    C17 4093  10.922   4.029   7.574 -0.0368 -0.7384  0.0983
   49HK4     H8 4094  10.815   4.039   7.560  0.0750 -0.9427 -0.9466
   49HK4     N1 4095  10.968   3.971   7.329  0.2311 -0.8880 -0.2576
   49HK4    C21 4096  11.092   3.957   7.264  0.1958 -0.7788 -0.3491
   49HK4    C22 4097  11.197   3.924   7.357 -0.0146  0.2745  0.2727
   49HK4    C26 4098   0.082   3.926   7.315 -0.0186 -0.0468  0.2515
   49HK4    H13 4099   0.152   3.866   7.374  1.6116  0.6392 -0.9489
   49HK4    C25 4100   0.121   3.949   7.184 -0.1319 -0.1482  0.1977
   49HK4    H12 4101   0.220   3.932   7.142  0.0045  0.5612  0.2229
   49HK4    C24 4102   0.021   3.992   7.097  0.4286 -0.0554 -0.4040
   49HK4    H11 4103   0.053   4.001   6.992 -0.9604 -1.2037 -0.9519
   49HK4    C23 4104  11.137   3.999   7.139  0.5237 -0.2634 -0.0605
   49HK4    H10 4105  11.060   4.040   7.074 -0.0591 -2.7078 -0.9561
   49HK4    C39 4106  10.850   3.989   7.256  0.2147  0.4137  0.0738
   49HK4    C41 4107  10.825   3.936   7.128 -0.3775  0.3511  0.2098
   49HK4    H21 4108  10.902   3.872   7.081  2.6027  1.7588  2.9600
   49HK4    C42 4109  10.705   3.957   7.060  0.1727  1.1186 -0.5400
   49HK4    H22 4110  10.681   3.902   6.968 -3.1206 -0.7265  1.3420
   49HK4    C43 4111  10.611   4.040   7.120 -0.1461  0.6420 -0.3782
   49HK4    H23 4112  10.520   4.069   7.068  0.1186  0.5827 -0.8780
   49HK4    C44 4113  10.631   4.095   7.246 -0.4626  0.3196 -0.1872
   49HK4    H24 4114  10.539   4.138   7.288 -0.5727  1.3815 -1.4652
   49HK4    C45 4115  10.753   4.076   7.310 -0.2911  0.2290 -0.5368
   49HK4    H25 4116  10.792   4.154   7.377 -1.8499  1.0131 -0.5156
   50HK4    H28 4117   8.566   1.189   0.087  1.0554 -1.1794 -0.0546
   50HK4    C48 4118   8.496   1.114   0.049  0.0168 -0.0138 -0.4416
   50HK4    C47 4119   8.429   1.041   0.147 -0.4887  0.4182 -0.4608
   50HK4    H27 4120   8.467   1.031   0.249 -2.6327  0.7610  0.4060
   50HK4    C46 4121   8.305   0.983   0.125 -0.1169 -0.7002  0.3618
   50HK4    H26 4122   8.270   0.918   0.207 -0.0812 -0.6331  0.4293
   50HK4    C40 4123   8.244   0.995  11.246 -0.3111  0.1463  0.5350
   50HK4    C50 4124   8.318   1.060  11.146 -0.0610 -0.4184  0.3548
   50HK4    H30 4125   8.291   1.045  11.041  1.1426 -1.1316  0.1304
   50HK4    C49 4126   8.438   1.126  11.171 -0.0248 -0.1718 -0.4377
   50HK4    H29 4127   8.493   1.175  11.090  0.1700  0.8092  0.2775
   50HK4     N2 4128   8.124   0.935  11.205 -0.0724  0.2232 -0.2776
   50HK4    C30 4129   8.058   0.822   0.010  0.3587  0.2093  0.2293
   50HK4    C29 4130   8.101   0.739   0.112  0.5740 -0.0612 -0.0815
   50HK4    H15 4131   8.208   0.717   0.123  0.4353  0.2156  2.1212
   50HK4    C28 4132   8.018   0.651   0.181 -0.1462  0.7309  0.0683
   50HK4    C27 4133   7.884   0.650   0.136  0.0477  0.3336 -0.5119
   50HK4    H14 4134   7.814   0.610   0.211  0.3343  1.6949  0.5062
   50HK4    C32 4135   7.838   0.725   0.029 -0.1641 -0.0883 -0.7162
   50HK4    H16 4136   7.737   0.699  11.243  0.3869 -3.0650 -0.2007
   50HK4    C31 4137   7.922   0.814  11.210  0.4666 -0.1600 -0.0226
   50HK4    C34 4138   7.903   0.920  11.113 -0.4672 -0.0884  0.2324
   50HK4    C33 4139   8.030   0.990  11.116 -0.4755 -0.0624 -0.0254
   50HK4    C35 4140   8.035   1.105  11.039  0.0731  0.2726  0.5110
   50HK4    H17 4141   8.115   1.177  11.059 -0.9055  1.1630  1.2223
   50HK4    C36 4142   7.920   1.157  10.980 -0.0338  0.1994  0.6570
   50HK4    H18 4143   7.930   1.246  10.916  2.5081 -1.4457 -1.3663
   50HK4    C37 4144   7.798   1.091  10.983  0.1821 -0.2035  0.7503
   50HK4    H19 4145   7.712   1.128  10.926  0.5079 -1.9979 -0.9516
   50HK4    C38 4146   7.791   0.968  11.046 -0.7212 -0.2754  0.5222
   50HK4    H20 4147   7.704   0.903  11.033  0.6694 -2.6012  2.2913
   50HK4    C14 4148   8.076   0.557   0.278  0.5644  0.0651 -0.9914
   50HK4     C9 4149   8.017   0.433   0.304 -0.1062  0.6461  0.2986
   50HK4     C8 4150   8.022   0.368   0.429  0.0258  0.2634  0.0974
   50HK4    C11 4151   8.098   0.427   0.529  0.7914 -0.0932 -0.2685
   50HK4     H4 4152   8.088   0.398   0.635 -1.5714  3.7321  0.6661
   50HK4    C12 4153   8.163   0.548   0.503  0.0906  0.2697 -0.3360
   50HK4     H5 4154   8.237   0.580   0.577 -0.9703 -0.4291  1.0507
   50HK4    C13 4155   8.155   0.613   0.381 -0.0420 -0.0181 -0.4810
   50HK4     H6 4156   8.193   0.713   0.355 -0.1794  0.0908 -0.2672
   50HK4     C7 4157   7.937   0.252   0.462  0.0002  0.1378 -0.4197
   50HK4     O2 4158   7.973   0.174   0.550 -0.3221  0.3828 -0.0698
   50HK4     C4 4159   7.835   0.205   0.365  0.1634 -0.5285 -0.2747
   50HK4     C3 4160   7.751   0.100   0.401 -0.0931 -0.2824 -0.1530
   50HK4     H3 4161   7.759   0.049   0.499 -1.1068 -0.9120 -0.3973
   50HK4     C2 4162   7.665   0.045   0.308 -0.0604 -0.6746  0.0470
   50HK4     H2 4163   7.599  11.206   0.327 -0.4729 -0.0662  1.4267
   50HK4     C1 4164   7.662   0.106   0.183  0.0305  0.2248  0.4800
   50HK4     H1 4165   7.581   0.081   0.113 -0.3029 -0.0209  0.9515
   50HK4     C6 4166   7.745   0.213   0.144  0.1020 -0.1821 -0.5069
   50HK4     C5 4167   7.843   0.257   0.234 -0.5562  0.2701 -0.0093
   50HK4    C10 4168   7.945   0.358   0.197  0.0963 -0.1252  0.6969
   50HK4     O1 4169   7.999   0.346   0.087 -0.1458  0.2277  0.5403
   50HK4    C16 4170   7.678   0.301   0.047  0.1940  0.5300  0.0792
   50HK4    C15 4171   7.540   0.324   0.061  0.0665 -0.1848  0.0006
   50HK4     H7 4172   7.486   0.299   0.154 -1.1942 -0.8987 -0.9163
   50HK4    C20 4173   7.462   0.369  11.203 -0.1148 -0.2594  0.1035
   50HK4     H9 4174   7.359   0.397  11.226 -0.2185 -2.0650  2.0903
   50HK4    C19 4175   7.522   0.402  11.083  0.2684 -0.3604  0.2662
   50HK4    C18 4176   7.664   0.378  11.066  0.3676  0.1375  0.3772
   50HK4    C17 4177   7.737   0.325  11.172  0.4152 -0.6385 -0.0413
   50HK4     H8 4178   7.826   0.265  11.149  0.2050 -2.9922  4.7350
   50HK4     N1 4179   7.708   0.437  10.946 -0.0759 -0.1566  0.0688
   50HK4    C21 4180   7.598   0.506  10.892 -0.0986  0.0187  0.3372
   50HK4    C22 4181   7.481   0.492  10.977 -0.1959 -0.7893  0.0785
   50HK4    C26 4182   7.375   0.580  10.958  0.1587 -0.3776 -0.0060
   50HK4    H13 4183   7.282   0.574  11.015 -0.8510 -1.5289 -1.6997
   50HK4    C25 4184   7.384   0.675  10.857 -0.0809 -0.3225  0.0253
   50HK4    H12 4185   7.295   0.728  10.824  0.2041 -0.1021 -0.3936
   50HK4    C24 4186   7.491   0.688  10.769 -0.2176 -0.2148 -0.1295
   50HK4    H11 4187   7.494   0.756  10.683  0.7715 -0.3771 -0.2268
   50HK4    C23 4188   7.595   0.597  10.787 -0.1947 -0.1202  0.2167
   50HK4    H10 4189   7.674   0.592  10.713 -1.3889  1.0472 -1.1637
   50HK4    C39 4190   7.842   0.447  10.906 -0.1320  0.3819  0.0116
   50HK4    C41 4191   7.951   0.458  10.995  0.2670 -0.0729 -0.4102
   50HK4    H21 4192   7.937   0.492  11.099  1.7392  1.7599 -0.7778
   50HK4    C42 4193   8.079   0.423  10.955  0.4158 -0.1219  0.1030
   50HK4    H22 4194   8.166   0.420  11.022  1.8962 -0.1413 -1.7698
   50HK4    C43 4195   8.105   0.379  10.825  0.2435  0.0092  0.0242
   50HK4    H23 4196   8.208   0.362  10.797 -0.1498 -2.0848 -0.2180
   50HK4    C44 4197   8.000   0.368  10.735 -0.0555  0.9238  0.2461
   50HK4    H24 4198   8.021   0.329  10.634 -1.2109 -0.2162  0.4424
   50HK4    C45 4199   7.871   0.399  10.777 -0.2593  0.5110 -0.0633
   50HK4    H25 4200   7.792   0.402  10.701  0.6791  0.4852 -1.0575
   51HK4    H28 4201   5.729   5.000  10.057  0.8370 -0.7102 -0.3277
   51HK4    C48 4202   5.787   5.063  10.124 -0.1044 -0.2748  0.0982
   51HK4    C47 4203   5.889   5.004  10.198  0.0755 -0.2404 -0.1234
   51HK4    H27 4204   5.872   4.899  10.223 -1.7929  0.8384  3.4445
   51HK4    C46 4205   5.982   5.087  10.261 -0.2011  0.0837 -0.1370
   51HK4    H26 4206   6.053   5.029  10.322 -0.6508 -0.0516  0.2667
   51HK4    C40 4207   5.983   5.227  10.250  0.0662  0.1219  0.3249
   51HK4    C50 4208   5.877   5.285  10.176  0.1473 -0.0541  0.0740
   51HK4    H30 4209   5.848   5.390  10.167 -0.5545 -0.0906  1.7025
   51HK4    C49 4210   5.785   5.201  10.113  0.4069 -0.2752 -0.0104
   51HK4    H29 4211   5.703   5.244  10.054 -0.5516 -0.2541  1.3022
   51HK4     N2 4212   6.064   5.298  10.339 -0.0916  0.1695  0.4298
   51HK4    C30 4213   6.120   5.259  10.463  0.4240 -0.1396  0.1001
   51HK4    C29 4214   6.106   5.143  10.537 -0.5834  0.3082  0.6148
   51HK4    H15 4215   6.011   5.091  10.523 -0.6568  0.6757 -0.2825
   51HK4    C28 4216   6.203   5.102  10.628 -0.0327 -0.0208 -0.1149
   51HK4    C27 4217   6.317   5.183  10.650  0.2933 -0.4853 -0.0874
   51HK4    H14 4218   6.401   5.131  10.699 -0.9701 -1.4130  1.1438
   51HK4    C32 4219   6.326   5.308  10.591  0.2151 -0.4059  0.0664
   51HK4    H16 4220   6.418   5.364  10.607 -0.5852  1.2206 -0.8394
   51HK4    C31 4221   6.229   5.348  10.499  0.1236  0.1119  0.3870
   51HK4    C34 4222   6.220   5.453  10.400 -0.2066 -0.2891 -0.0079
   51HK4    C33 4223   6.121   5.420  10.299  0.0409 -0.1304 -0.3073
   51HK4    C35 4224   6.069   5.525  10.224  1.1526  0.4004 -0.3345
   51HK4    H17 4225   6.007   5.511  10.135  2.6108 -4.2300 -0.7960
   51HK4    C36 4226   6.097   5.657  10.256 -0.0073  0.4999  0.2779
   51HK4    H18 4227   6.045   5.733  10.195 -0.1486  1.9639  2.1988
   51HK4    C37 4228   6.196   5.688  10.349 -0.0680  0.1786  0.4500
   51HK4    H19 4229   6.215   5.793  10.372 -0.7112  0.0840  1.4334
   51HK4    C38 4230   6.265   5.585  10.411 -0.5269 -0.2077  0.3138
   51HK4    H20 4231   6.338   5.611  10.487 -0.6223  1.4604 -0.1545
   51HK4    C14 4232   6.170   4.982  10.705  0.6095 -0.2400 -0.1830
   51HK4     C9 4233   6.220   4.953  10.833 -0.0472  0.2724  0.1869
   51HK4     C8 4234   6.203   4.825  10.889 -0.3429  0.3275  0.2243
   51HK4    C11 4235   6.134   4.727  10.818  0.0545  0.0538  0.2098
   51HK4     H4 4236   6.101   4.636  10.871 -0.6387 -0.6209 -1.3680
   51HK4    C12 4237   6.075   4.753  10.695  0.0086  0.3270  0.2904
   51HK4     H5 4238   6.006   4.681  10.650 -2.2394  2.4242  0.2582
   51HK4    C13 4239   6.095   4.880  10.643  0.0066  0.1618 -0.1134
   51HK4     H6 4240   6.074   4.877  10.535  0.8526 -0.6579 -0.2524
   51HK4     C7 4241   6.279   4.784  11.009  0.3320  0.0175 -0.3042
   51HK4     O2 4242   6.235   4.696  11.083  0.3172  0.1956 -0.0996
   51HK4     C4 4243   6.386   4.874  11.059  0.1190 -0.2118  0.5830
   51HK4     C3 4244   6.468   4.819  11.157 -0.4982 -0.4021  0.9943
   51HK4     H3 4245   6.452   4.721  11.203 -0.2101 -0.8981  0.0606
   51HK4     C2 4246   6.577   4.892  11.204 -0.4262  0.0038  0.2184
   51HK4     H2 4247   6.643   4.851   0.034  1.2114  2.9045  0.4217
   51HK4     C1 4248   6.590   5.023  11.161 -0.1682  0.1031  0.5932
   51HK4     H1 4249   6.676   5.078  11.201 -1.0626  0.9842  1.3285
   51HK4     C6 4250   6.505   5.083  11.065  0.1297  0.0337  0.2828
   51HK4     C5 4251   6.401   5.006  11.011  0.6855 -0.4975 -0.0400
   51HK4    C10 4252   6.300   5.051  10.911  0.2714 -0.2292  0.4938
   51HK4     O1 4253   6.246   5.154  10.952 -0.6502 -0.4903 -0.0649
   51HK4    C16 4254   6.570   5.189  10.987  0.2987  0.1675  0.6085
   51HK4    C15 4255   6.710   5.196  10.973  0.2259 -0.1410 -0.2710
   51HK4     H7 4256   6.767   5.102  10.980  0.7820  0.2700  0.8291
   51HK4    C20 4257   6.778   5.315  10.950  0.1388  0.0443  0.4244
   51HK4     H9 4258   6.885   5.326  10.934 -0.0814  0.8763 -0.4648
   51HK4    C19 4259   6.701   5.430  10.939  0.3099  0.1047 -0.1778
   51HK4    C18 4260   6.558   5.431  10.967  0.2437  0.5711 -0.5333
   51HK4    C17 4261   6.497   5.308  10.986  0.6836  0.4002 -0.2188
   51HK4     H8 4262   6.391   5.309  11.013  0.7686 -0.1352  0.1457
   51HK4     N1 4263   6.500   5.558  10.951 -0.1537  0.4524 -0.0397
   51HK4    C21 4264   6.602   5.637  10.892 -0.1273  0.2639 -0.2439
   51HK4    C22 4265   6.728   5.566  10.896 -0.1539  0.2229 -0.1020
   51HK4    C26 4266   6.843   5.616  10.836  0.1617 -0.2132  0.1350
   51HK4    H13 4267   6.929   5.550  10.837 -0.0119 -0.4364  0.1933
   51HK4    C25 4268   6.835   5.732  10.760 -0.0363 -0.2936  0.0312
   51HK4    H12 4269   6.905   5.755  10.680  0.0772  3.1756  1.0278
   51HK4    C24 4270   6.713   5.798  10.753 -0.0370 -0.3409 -0.3992
   51HK4    H11 4271   6.696   5.876  10.678  1.2410  0.5077  0.1789
   51HK4    C23 4272   6.597   5.753  10.816 -0.0432  0.6199  0.2867
   51HK4    H10 4273   6.513   5.818  10.837  0.0395  0.3614  1.4349
   51HK4    C39 4274   6.400   5.616  11.031 -0.6274 -0.6919  0.2001
   51HK4    C41 4275   6.320   5.717  10.975  0.4979 -0.0862 -0.3349
   51HK4    H21 4276   6.298   5.710  10.867 -0.0656  1.3706 -0.3244
   51HK4    C42 4277   6.253   5.809  11.054  0.3785 -0.1937 -0.3072
   51HK4    H22 4278   6.185   5.879  11.003 -1.7767 -1.2125  1.0804
   51HK4    C43 4279   6.265   5.801  11.192 -0.0733 -0.1646 -0.2653
   51HK4    H23 4280   6.251   5.886   0.012  2.1974 -1.6067  2.1055
   51HK4    C44 4281   6.340   5.699   0.002 -0.0838 -0.1269 -0.1861
   51HK4    H24 4282   6.326   5.672   0.108  0.0469  1.0945  0.1467
   51HK4    C45 4283   6.414   5.612  11.171  0.0180 -0.3441  0.1484
   51HK4    H25 4284   6.466   5.527  11.217 -0.4935 -0.1207  1.1537
   52HK4    H28 4285   4.293   9.787   5.769 -0.6919 -0.3617  0.8752
   52HK4    C48 4286   4.302   9.692   5.718 -0.3232  0.0985  0.0752
   52HK4    C47 4287   4.296   9.694   5.579  0.2341  0.2525  0.0502
   52HK4    H27 4288   4.287   9.796   5.540 -0.3485  1.0425  2.1965
   52HK4    C46 4289   4.277   9.578   5.504  0.5840  0.2637 -0.0546
   52HK4    H26 4290   4.256   9.591   5.396 -0.1782 -0.0062  0.0628
   52HK4    C40 4291   4.269   9.454   5.570  0.0899  0.1772 -0.2716
   52HK4    C50 4292   4.279   9.453   5.711  0.1436  0.1588 -0.2756
   52HK4    H30 4293   4.303   9.357   5.758  1.3250  0.1688 -0.8345
   52HK4    C49 4294   4.295   9.570   5.785 -0.1035  0.0331 -0.0222
   52HK4    H29 4295   4.342   9.557   5.883  3.9021 -0.2888 -1.8687
   52HK4     N2 4296   4.281   9.337   5.495  0.6714 -0.0755  0.2124
   52HK4    C30 4297   4.335   9.325   5.365  0.1088  0.0366 -0.0331
   52HK4    C29 4298   4.413   9.408   5.286 -0.2505  0.4329  0.0257
   52HK4    H15 4299   4.460   9.493   5.336  0.2710  0.4331 -0.4565
   52HK4    C28 4300   4.465   9.378   5.160 -0.3045  0.4941 -0.0113
   52HK4    C27 4301   4.443   9.245   5.119  0.1326  0.2501  0.5463
   52HK4    H14 4302   4.498   9.205   5.033  3.7925  0.6220  2.6193
   52HK4    C32 4303   4.369   9.152   5.192  0.3431  0.0016  0.4482
   52HK4    H16 4304   4.378   9.047   5.165 -0.6423  0.3293 -1.2268
   52HK4    C31 4305   4.308   9.193   5.310 -0.2945  0.0656  0.0950
   52HK4    C34 4306   4.239   9.122   5.416 -0.2070  0.3958  0.3702
   52HK4    C33 4307   4.223   9.213   5.528  0.0964  0.2691  0.5137
   52HK4    C35 4308   4.143   9.171   5.633  0.0835 -0.0210  0.3869
   52HK4    H17 4309   4.132   9.235   5.720  0.6474 -0.3915  0.7370
   52HK4    C36 4310   4.072   9.052   5.623 -0.2863  0.2313 -0.0022
   52HK4    H18 4311   3.992   9.029   5.696 -2.2233 -1.9705 -2.7090
   52HK4    C37 4312   4.094   8.960   5.521  0.3479  0.4363 -0.0526
   52HK4    H19 4313   4.025   8.876   5.512  0.2689  0.3077  1.6024
   52HK4    C38 4314   4.183   8.995   5.421 -0.1066  0.3097 -0.5053
   52HK4    H20 4315   4.224   8.917   5.357 -2.7839 -2.6167  1.2277
   52HK4    C14 4316   4.535   9.473   5.074 -0.0839  0.4753  0.1489
   52HK4     C9 4317   4.541   9.453   4.935 -0.1482 -0.5607  0.2927
   52HK4     C8 4318   4.665   9.473   4.871 -0.5952  0.6866 -0.1808
   52HK4    C11 4319   4.761   9.550   4.938  0.1967 -0.0238 -0.4947
   52HK4     H4 4320   4.862   9.554   4.893  0.2951  1.4617 -0.1430
   52HK4    C12 4321   4.750   9.594   5.069  0.2304 -0.5360 -0.3177
   52HK4     H5 4322   4.825   9.668   5.099 -1.8536  1.5152 -0.0365
   52HK4    C13 4323   4.639   9.545   5.137  0.1826  0.1423  0.0944
   52HK4     H6 4324   4.630   9.558   5.246  2.2662 -0.3036  0.3438
   52HK4     C7 4325   4.690   9.437   4.730  0.3115  0.4370  0.0362
   52HK4     O2 4326   4.806   9.416   4.695  0.1519 -0.1183 -0.1684
   52HK4     C4 4327   4.574   9.395   4.648  0.3335 -0.2199  0.3405
   52HK4     C3 4328   4.601   9.367   4.514 -0.3430 -0.3113  0.2230
   52HK4     H3 4329   4.704   9.372   4.476  0.3618 -0.9142  2.0023
   52HK4     C2 4330   4.493   9.334   4.433 -0.1801 -0.4731  0.0708
   52HK4     H2 4331   4.525   9.282   4.341 -0.6065  3.2144 -2.2513
   52HK4     C1 4332   4.364   9.337   4.484 -0.2235 -0.0585 -0.0615
   52HK4     H1 4333   4.282   9.362   4.415 -0.6880 -1.2344  0.0425
   52HK4     C6 4334   4.336   9.361   4.620  0.0706  0.3466 -0.0721
   52HK4     C5 4335   4.444   9.396   4.702  0.2613 -0.8157  0.1949
   52HK4    C10 4336   4.425   9.442   4.842  0.1784  0.5435 -0.2491
   52HK4     O1 4337   4.332   9.518   4.866 -0.4201  0.0020 -0.8542
   52HK4    C16 4338   4.208   9.301   4.662  0.1580 -0.0177 -0.3261
   52HK4    C15 4339   4.153   9.305   4.792  0.2107 -0.0517 -0.3027
   52HK4     H7 4340   4.220   9.302   4.879 -1.6272  0.6985  1.1682
   52HK4    C20 4341   4.026   9.257   4.821 -0.0846  0.8284 -0.1251
   52HK4     H9 4342   3.983   9.256   4.921 -2.5380  0.3732 -1.1398
   52HK4    C19 4343   3.946   9.206   4.719  0.3271 -0.1929  0.0563
   52HK4    C18 4344   3.996   9.198   4.584 -0.2387  0.4763 -0.1939
   52HK4    C17 4345   4.128   9.237   4.567 -0.2361  0.4268 -0.2922
   52HK4     H8 4346   4.189   9.177   4.500  0.1515 -0.2905  0.6803
   52HK4     N1 4347   3.913   9.130   4.492  0.0774 -0.2222  0.0332
   52HK4    C21 4348   3.811   9.087   4.579 -0.2008  0.4256  0.0340
   52HK4    C22 4349   3.818   9.137   4.715  0.0508  0.3199  0.0614
   52HK4    C26 4350   3.709   9.128   4.801  0.1480  0.0700  0.1571
   52HK4    H13 4351   3.695   9.201   4.881 -1.8613 -1.0713  0.8835
   52HK4    C25 4352   3.599   9.053   4.760  0.1940  0.3556 -0.4886
   52HK4    H12 4353   3.519   9.036   4.831  1.1612 -0.8758  0.3363
   52HK4    C24 4354   3.592   8.995   4.634 -0.7097 -0.6666  0.0308
   52HK4    H11 4355   3.499   8.944   4.606 -0.4189 -1.6402  0.7978
   52HK4    C23 4356   3.698   9.013   4.547  0.1668 -0.6184  1.0956
   52HK4    H10 4357   3.690   8.950   4.458  2.2134  0.2460  0.2565
   52HK4    C39 4358   3.890   9.158   4.357 -0.1192  0.2369  0.1582
   52HK4    C41 4359   3.853   9.051   4.273 -0.6213 -0.0655  0.7612
   52HK4    H21 4360   3.852   8.947   4.309  3.4657 -0.4781 -0.0516
   52HK4    C42 4361   3.849   9.077   4.136  0.9892 -0.1358  0.6845
   52HK4    H22 4362   3.820   9.003   4.060  0.7115  0.4753  0.1905
   52HK4    C43 4363   3.866   9.204   4.084  0.2876 -0.1655  0.3661
   52HK4    H23 4364   3.858   9.215   3.976  0.2357 -1.2337  0.2562
   52HK4    C44 4365   3.897   9.311   4.169  0.6088  0.1578 -0.1554
   52HK4    H24 4366   3.932   9.406   4.126  0.4033  0.7162  0.9103
   52HK4    C45 4367   3.903   9.289   4.306  0.1224  0.0966 -0.1401
   52HK4    H25 4368   3.880   9.371   4.375 -1.4199  0.6291 -1.2686
   53HK4    H28 4369   9.215   0.019   6.948  0.6335 -0.4875  2.1423
   53HK4    C48 4370   9.155   0.101   6.989 -0.0735 -0.0648  0.3045
   53HK4    C47 4371   9.198   0.154   7.109  0.2281 -0.3140  0.3081
   53HK4    H27 4372   9.294   0.125   7.154  0.3308 -0.5057 -0.0351
   53HK4    C46 4373   9.110   0.232   7.184  0.1399  0.0042 -0.1236
   53HK4    H26 4374   9.137   0.244   7.290  2.2776 -0.8554 -0.5405
   53HK4    C40 4375   8.979   0.262   7.141  0.0334 -0.2464  0.0261
   53HK4    C50 4376   8.941   0.205   7.018 -0.1926  0.1749 -0.0977
   53HK4    H30 4377   8.837   0.218   6.984  0.5862  0.5877 -2.4180
   53HK4    C49 4378   9.025   0.123   6.944  0.1231  0.4331 -0.0254
   53HK4    H29 4379   8.996   0.082   6.846  3.8562 -3.2254  0.2566
   53HK4     N2 4380   8.899   0.355   7.208 -0.1130 -0.5236  0.2376
   53HK4    C30 4381   8.758   0.358   7.212 -0.1239  0.2816 -0.5054
   53HK4    C29 4382   8.659   0.270   7.169  0.1209 -0.2847  0.0736
   53HK4    H15 4383   8.694   0.175   7.130  2.2170  0.3953  0.2406
   53HK4    C28 4384   8.522   0.294   7.176  0.2015  0.1355  0.2798
   53HK4    C27 4385   8.493   0.421   7.230  0.1961 -0.0157  0.6314
   53HK4    H14 4386   8.386   0.446   7.233  0.4075  0.7769  4.8328
   53HK4    C32 4387   8.580   0.516   7.283  0.1097  0.4380 -0.0306
   53HK4    H16 4388   8.550   0.615   7.317 -1.4083  0.2008 -0.6408
   53HK4    C31 4389   8.713   0.478   7.280  0.1385  0.6209 -0.9291
   53HK4    C34 4390   8.833   0.545   7.328  0.0542  0.2677 -0.2176
   53HK4    C33 4391   8.945   0.471   7.273 -0.1881 -0.6286  0.4769
   53HK4    C35 4392   9.072   0.516   7.309  0.0768 -0.3585 -0.7714
   53HK4    H17 4393   9.149   0.493   7.236  1.8343  1.9017  0.3351
   53HK4    C36 4394   9.098   0.612   7.406 -0.5370 -0.3586 -0.6016
   53HK4    H18 4395   9.196   0.662   7.416 -1.8135  1.9470  0.6769
   53HK4    C37 4396   8.989   0.671   7.469 -0.1972 -0.1130 -0.2429
   53HK4    H19 4397   9.006   0.762   7.526  2.3562 -1.5153  1.3822
   53HK4    C38 4398   8.861   0.634   7.430 -0.3574  0.4921 -0.3003
   53HK4    H20 4399   8.780   0.663   7.498 -2.4870 -1.2179 -2.0363
   53HK4    C14 4400   8.421   0.197   7.130  0.0431  0.4747 -0.0946
   53HK4     C9 4401   8.289   0.234   7.103 -0.0896  0.8488  1.0286
   53HK4     C8 4402   8.184   0.175   7.177  0.4141  0.4050  1.3935
   53HK4    C11 4403   8.215   0.069   7.261  0.1245 -0.3798  0.5153
   53HK4     H4 4404   8.136   0.035   7.330  0.0051 -1.9830 -0.3878
   53HK4    C12 4405   8.342   0.015   7.274  0.0788 -0.6085  0.0183
   53HK4     H5 4406   8.353  11.166   7.323  0.7350 -1.8360 -2.4685
   53HK4    C13 4407   8.445   0.082   7.208 -0.6824  0.0258 -0.5348
   53HK4     H6 4408   8.546   0.039   7.213 -0.7510  0.0435  1.5095
   53HK4     C7 4409   8.052   0.242   7.175 -0.1516 -0.7202 -0.2761
   53HK4     O2 4410   7.968   0.211   7.260 -0.2880  0.1685 -0.0797
   53HK4     C4 4411   8.034   0.358   7.085  0.6773 -0.0038  0.4690
   53HK4     C3 4412   7.921   0.438   7.096  0.0742 -0.7610 -0.2102
   53HK4     H3 4413   7.857   0.435   7.185  1.3385 -3.1181  0.6578
   53HK4     C2 4414   7.878   0.519   6.990  0.2664 -0.1694  0.1595
   53HK4     H2 4415   7.775   0.553   6.978  0.0992 -1.7155 -3.3332
   53HK4     C1 4416   7.954   0.511   6.874  0.1816  0.1110  0.0869
   53HK4     H1 4417   7.941   0.592   6.800 -0.0798 -0.2134 -0.2245
   53HK4     C6 4418   8.063   0.426   6.848  0.2853  0.1822  0.2955
   53HK4     C5 4419   8.108   0.365   6.966  0.3297  0.1410  0.2598
   53HK4    C10 4420   8.249   0.324   6.991  0.2715 -0.1741  0.0702
   53HK4     O1 4421   8.339   0.389   6.939  0.8312 -0.4133  0.7222
   53HK4    C16 4422   8.109   0.376   6.717 -0.0570  0.2858  0.1352
   53HK4    C15 4423   8.065   0.444   6.602 -0.7408 -0.4226 -0.0259
   53HK4     H7 4424   8.014   0.540   6.619 -1.4830 -0.9437  0.7138
   53HK4    C20 4425   8.085   0.385   6.478  0.3101 -0.1703  0.0152
   53HK4     H9 4426   8.060   0.449   6.393  3.2097 -1.1350 -1.6203
   53HK4    C19 4427   8.154   0.266   6.457 -0.1499 -0.3903 -0.2745
   53HK4    C18 4428   8.185   0.191   6.577  0.3122  0.3268  0.0604
   53HK4    C17 4429   8.164   0.249   6.701 -0.2207  0.2314  0.0139
   53HK4     H8 4430   8.166   0.189   6.792 -1.6141  1.0071  0.5924
   53HK4     N1 4431   8.266   0.081   6.538  0.6522  0.6107 -0.0406
   53HK4    C21 4432   8.280   0.086   6.398 -0.0309 -0.2041 -0.1441
   53HK4    C22 4433   8.213   0.201   6.342  0.7625  0.2492 -0.1734
   53HK4    C26 4434   8.203   0.213   6.204 -0.1334 -0.0749 -0.1409
   53HK4    H13 4435   8.170   0.306   6.156 -1.2289 -1.6763 -2.6110
   53HK4    C25 4436   8.262   0.118   6.121  0.2002 -0.1732  0.2082
   53HK4    H12 4437   8.254   0.129   6.013  0.8238  3.9930  0.4795
   53HK4    C24 4438   8.320   0.004   6.174  0.5525 -0.1007 -0.0153
   53HK4    H11 4439   8.363  11.180   6.102  0.2026 -0.1732 -0.1568
   53HK4    C23 4440   8.330  11.237   6.312  0.7994  0.0981 -0.0131
   53HK4    H10 4441   8.360  11.142   6.355 -2.0873 -0.1747  1.5419
   53HK4    C39 4442   8.365   0.034   6.625 -0.4345 -0.2741  0.7382
   53HK4    C41 4443   8.401  11.146   6.632 -0.4408 -0.3041  0.1605
   53HK4    H21 4444   8.339  11.066   6.588  2.0897 -1.8101 -0.7605
   53HK4    C42 4445   8.499  11.094   6.714 -0.3612 -0.2935  0.0709
   53HK4    H22 4446   8.534  10.989   6.711  0.0918 -0.1813  0.9312
   53HK4    C43 4447   8.572  11.182   6.793 -0.6141 -0.3970  0.4217
   53HK4    H23 4448   8.651  11.146   6.858 -1.8334 -1.1651  1.4812
   53HK4    C44 4449   8.537   0.069   6.797  0.3145 -0.1233 -0.3307
   53HK4    H24 4450   8.590   0.128   6.872 -0.8490  1.6891 -0.8999
   53HK4    C45 4451   8.436   0.117   6.714  0.2796  0.0838 -0.1694
   53HK4    H25 4452   8.427   0.225   6.694 -0.9581  0.2446  1.2313
   54HK4    H28 4453   5.762   7.946   7.028  0.1086  0.0120 -0.7945
   54HK4    C48 4454   5.728   8.041   6.988 -0.2106  0.2466  0.0193
   54HK4    C47 4455   5.764   8.074   6.858 -0.6052  0.1332 -0.1177
   54HK4    H27 4456   5.829   8.005   6.801 -2.0690 -1.4457  0.0769
   54HK4    C46 4457   5.732   8.198   6.804 -0.2446  0.2717 -0.0090
   54HK4    H26 4458   5.760   8.223   6.700 -1.4394  1.1814 -0.1145
   54HK4    C40 4459   5.657   8.293   6.876  0.2619  0.0632  0.7987
   54HK4    C50 4460   5.610   8.252   7.002 -0.6795 -0.0203  0.4273
   54HK4    H30 4461   5.549   8.325   7.056 -1.7035 -0.2072 -0.4728
   54HK4    C49 4462   5.658   8.135   7.062  0.2569  0.3257  0.3658
   54HK4    H29 4463   5.624   8.113   7.164  0.7449  0.1079  0.4820
   54HK4     N2 4464   5.646   8.426   6.836 -0.1594 -0.2020  0.0234
   54HK4    C30 4465   5.741   8.489   6.753 -0.1796  0.0846  0.2173
   54HK4    C29 4466   5.878   8.469   6.745 -0.0508  0.7713  0.6116
   54HK4    H15 4467   5.915   8.377   6.791  1.5579  1.4736  0.7267
   54HK4    C28 4468   5.960   8.545   6.663 -0.3002  0.3646 -0.0220
   54HK4    C27 4469   5.896   8.637   6.578 -0.0031  0.2894 -0.3303
   54HK4    H14 4470   5.955   8.690   6.502 -2.6867  0.8646 -2.0605
   54HK4    C32 4471   5.758   8.657   6.584  0.0139  0.4686 -0.5113
   54HK4    H16 4472   5.711   8.744   6.540 -0.7083 -0.1522 -0.9648
   54HK4    C31 4473   5.677   8.596   6.679  0.4133 -0.0470 -0.4908
   54HK4    C34 4474   5.535   8.587   6.711  0.4910  0.0462 -0.1251
   54HK4    C33 4475   5.520   8.486   6.814  0.0592  0.2561  0.0178
   54HK4    C35 4476   5.396   8.462   6.872  0.0676  0.1038 -0.0306
   54HK4    H17 4477   5.380   8.376   6.937  2.3047 -0.8330 -0.6768
   54HK4    C36 4478   5.287   8.539   6.832  0.0133  0.1046  0.1181
   54HK4    H18 4479   5.196   8.533   6.892  0.0384  0.7177  0.2227
   54HK4    C37 4480   5.295   8.628   6.725  0.4234 -0.6175 -0.4654
   54HK4    H19 4481   5.206   8.673   6.681  0.5274  0.8662  0.7793
   54HK4    C38 4482   5.421   8.656   6.673  0.3926 -0.2348 -0.3375
   54HK4    H20 4483   5.429   8.740   6.604  1.5422 -0.4752 -0.5097
   54HK4    C14 4484   6.107   8.542   6.671 -0.2558  0.1226 -0.8880
   54HK4     C9 4485   6.194   8.643   6.629 -0.8651  0.4772 -1.2998
   54HK4     C8 4486   6.314   8.618   6.560 -0.2270  0.2153 -0.1068
   54HK4    C11 4487   6.365   8.489   6.553 -0.2682  0.2103 -0.3593
   54HK4     H4 4488   6.473   8.478   6.538 -0.4799 -1.6552 -0.5812
   54HK4    C12 4489   6.289   8.385   6.605  0.5935 -0.1396  0.2213
   54HK4     H5 4490   6.324   8.281   6.602 -1.6666 -0.9360 -0.1794
   54HK4    C13 4491   6.168   8.415   6.668  0.6493  0.5316  0.0196
   54HK4     H6 4492   6.115   8.333   6.719 -1.4161  1.6060 -0.3922
   54HK4     C7 4493   6.399   8.723   6.498 -0.0420  0.2942  0.2786
   54HK4     O2 4494   6.446   8.715   6.384 -0.2070 -0.0319  0.2327
   54HK4     C4 4495   6.379   8.859   6.552  0.2689  0.1763  0.7020
   54HK4     C3 4496   6.444   8.972   6.504  0.0933 -0.0226 -0.0041
   54HK4     H3 4497   6.495   8.961   6.406 -0.6457 -0.0211 -0.3893
   54HK4     C2 4498   6.455   9.090   6.576  1.3131 -0.2455  0.1995
   54HK4     H2 4499   6.517   9.176   6.547 -0.5803  1.2291  0.3958
   54HK4     C1 4500   6.400   9.086   6.704 -0.1889 -0.2182 -0.4299
   54HK4     H1 4501   6.436   9.172   6.762  2.4999 -2.5297  1.4513
   54HK4     C6 4502   6.338   8.974   6.763 -0.4110  0.4048  0.5293
   54HK4     C5 4503   6.310   8.870   6.674 -0.4038  0.6106  0.2866
   54HK4    C10 4504   6.197   8.775   6.698 -0.0443  0.0003 -0.4030
   54HK4     O1 4505   6.099   8.820   6.758  0.1128 -0.0348 -0.1209
   54HK4    C16 4506   6.337   8.965   6.909 -0.0862  0.4154  0.5299
   54HK4    C15 4507   6.353   9.079   6.991  0.0347  0.5347  0.3406
   54HK4     H7 4508   6.314   9.176   6.958  0.9138  1.5258  2.0791
   54HK4    C20 4509   6.380   9.064   7.127  0.4139  0.3181  0.2447
   54HK4     H9 4510   6.406   9.150   7.189 -1.5039 -0.1015  1.6907
   54HK4    C19 4511   6.382   8.942   7.193 -0.6910 -0.0975 -0.4616
   54HK4    C18 4512   6.377   8.823   7.110  0.1933 -0.3802 -0.1194
   54HK4    C17 4513   6.352   8.844   6.975  0.1844  0.1399 -0.0382
   54HK4     H8 4514   6.339   8.756   6.912  2.0918  0.1391 -0.4672
   54HK4     N1 4515   6.369   8.708   7.191  0.1168 -0.1917  0.1428
   54HK4    C21 4516   6.382   8.750   7.325  0.5141  0.0402  0.0320
   54HK4    C22 4517   6.378   8.895   7.331  0.2820  0.0523 -0.3728
   54HK4    C26 4518   6.406   8.955   7.453  1.1569  0.1188 -0.6092
   54HK4    H13 4519   6.398   9.064   7.459  0.7042  0.0352  0.3053
   54HK4    C25 4520   6.426   8.875   7.564  0.5153 -0.2501 -0.7598
   54HK4    H12 4521   6.483   8.916   7.647  2.9851 -0.1002 -2.4618
   54HK4    C24 4522   6.421   8.736   7.561  0.1341 -0.2549 -0.1137
   54HK4    H11 4523   6.445   8.685   7.655 -0.0982  0.7699  0.5106
   54HK4    C23 4524   6.393   8.673   7.440  0.3705 -0.2670 -0.1615
   54HK4    H10 4525   6.414   8.567   7.433  0.2817 -0.4387  1.9319
   54HK4    C39 4526   6.311   8.591   7.140 -0.3065  0.0364  0.1002
   54HK4    C41 4527   6.350   8.469   7.200 -0.3530 -0.0298 -0.0000
   54HK4    H21 4528   6.457   8.449   7.215 -0.3984 -0.9029 -0.7878
   54HK4    C42 4529   6.268   8.357   7.191 -0.1691 -0.1820  0.2131
   54HK4    H22 4530   6.298   8.265   7.243  1.7773  0.1052 -0.3535
   54HK4    C43 4531   6.160   8.355   7.104  0.1478  0.4853 -0.1978
   54HK4    H23 4532   6.117   8.259   7.075  1.2742 -0.3156  0.7478
   54HK4    C44 4533   6.128   8.471   7.034  0.0639  0.4099 -0.2837
   54HK4    H24 4534   6.059   8.477   6.948  0.2562 -0.3963 -0.4895
   54HK4    C45 4535   6.205   8.586   7.049 -0.2928  0.6068  0.0523
   54HK4    H25 4536   6.163   8.685   7.023 -2.9322 -0.1684  1.1566
   55HK4    H28 4537   0.573   0.785   1.405  3.0613  0.8967  0.2475
   55HK4    C48 4538   0.531   0.868   1.462  0.0151 -0.4194  0.0099
   55HK4    C47 4539   0.566   1.001   1.442 -0.3668 -0.2913  0.1785
   55HK4    H27 4540   0.651   1.023   1.374 -2.1922  0.1781 -2.0109
   55HK4    C46 4541   0.496   1.101   1.507 -0.6176 -0.2139 -0.2097
   55HK4    H26 4542   0.502   1.198   1.454 -1.5124  0.1790  0.3944
   55HK4    C40 4543   0.379   1.083   1.584 -0.2522  0.1317  0.4336
   55HK4    C50 4544   0.347   0.947   1.599  0.1798  0.0217  0.3545
   55HK4    H30 4545   0.263   0.919   1.665  0.0597  3.9230  1.9401
   55HK4    C49 4546   0.423   0.843   1.546  0.1595  0.0186  0.3315
   55HK4    H29 4547   0.397   0.743   1.584 -1.8063  0.0655 -0.7862
   55HK4     N2 4548   0.335   1.181   1.674 -0.3617  0.6170 -0.1443
   55HK4    C30 4549   0.410   1.285   1.732 -0.1048 -0.0206  0.6671
   55HK4    C29 4550   0.548   1.306   1.728 -0.1095 -0.0777  0.1731
   55HK4    H15 4551   0.610   1.273   1.645 -1.0085 -0.0373 -0.5280
   55HK4    C28 4552   0.604   1.390   1.823  0.4499 -0.2943  0.0359
   55HK4    C27 4553   0.526   1.464   1.915  0.1285 -0.0503 -0.4320
   55HK4    H14 4554   0.568   1.540   1.983 -1.9276 -0.6908  1.6153
   55HK4    C32 4555   0.388   1.451   1.906  0.1235 -0.4165  0.1435
   55HK4    H16 4556   0.326   1.526   1.955  0.8718  1.1098 -1.1533
   55HK4    C31 4557   0.325   1.362   1.821 -0.5824  0.1584  0.0575
   55HK4    C34 4558   0.195   1.298   1.821 -0.5003 -0.0113 -0.1876
   55HK4    C33 4559   0.204   1.189   1.725 -0.1632 -0.6692  0.5851
   55HK4    C35 4560   0.087   1.116   1.706 -0.1272 -0.5115 -0.2537
   55HK4    H17 4561   0.081   1.045   1.623  1.8945 -0.1862 -0.7054
   55HK4    C36 4562  11.221   1.134   1.784  0.4399 -0.4430  0.5748
   55HK4    H18 4563  11.127   1.081   1.763  1.4279 -0.8614 -3.2385
   55HK4    C37 4564  11.217   1.238   1.875 -0.0477 -0.0214  0.0742
   55HK4    H19 4565  11.129   1.251   1.939  0.7828  1.1968  0.9903
   55HK4    C38 4566   0.077   1.325   1.889 -0.2946  0.2901  0.0529
   55HK4    H20 4567   0.082   1.411   1.955 -0.1020 -0.5935  1.2070
   55HK4    C14 4568   0.733   1.353   1.884  0.1333 -0.8094  0.4022
   55HK4     C9 4569   0.758   1.338   2.021 -0.3735  0.2209  0.6098
   55HK4     C8 4570   0.886   1.369   2.069 -0.2003  0.2361  0.1422
   55HK4    C11 4571   0.987   1.391   1.976 -0.1328  0.0256  0.1655
   55HK4     H4 4572   1.088   1.411   2.015  0.5211 -3.0106  0.1031
   55HK4    C12 4573   0.967   1.397   1.838 -0.4326 -0.2313  0.1974
   55HK4     H5 4574   1.046   1.402   1.762  0.7850 -1.0892  1.3772
   55HK4    C13 4575   0.837   1.382   1.793 -0.3978 -0.0426  0.0340
   55HK4     H6 4576   0.821   1.385   1.684 -1.7000  1.2045  0.2432
   55HK4     C7 4577   0.902   1.387   2.215  0.0861  0.3531  0.0973
   55HK4     O2 4578   1.017   1.379   2.260  0.1632 -0.1402 -0.1847
   55HK4     C4 4579   0.785   1.387   2.306  0.2385 -0.0310  0.2964
   55HK4     C3 4580   0.810   1.438   2.432 -0.1555  0.6984  0.0848
   55HK4     H3 4581   0.910   1.463   2.471 -0.2646  0.6352  0.4100
   55HK4     C2 4582   0.703   1.468   2.516 -0.2023  0.1105  0.2381
   55HK4     H2 4583   0.702   1.518   2.614 -1.3513 -1.6395  1.1306
   55HK4     C1 4584   0.576   1.442   2.465 -0.1517  0.6542 -0.1740
   55HK4     H1 4585   0.493   1.488   2.520 -1.3667 -1.8373  0.1377
   55HK4     C6 4586   0.544   1.377   2.344  0.1711  0.1387  0.0181
   55HK4     C5 4587   0.655   1.354   2.262  0.2981 -0.2704  0.2998
   55HK4    C10 4588   0.649   1.311   2.119 -0.3313 -0.6115  0.4287
   55HK4     O1 4589   0.597   1.202   2.092 -0.1813 -0.5157 -0.2577
   55HK4    C16 4590   0.404   1.374   2.300  0.0559  0.4976  0.3532
   55HK4    C15 4591   0.313   1.471   2.346 -0.4761  0.2381 -0.1456
   55HK4     H7 4592   0.351   1.555   2.406 -3.6769  2.4158 -1.0558
   55HK4    C20 4593   0.175   1.454   2.352 -0.4445  0.1927  0.4778
   55HK4     H9 4594   0.104   1.536   2.359 -0.4166  0.3183 -0.6999
   55HK4    C19 4595   0.129   1.337   2.292  0.0232  0.0091  0.4702
   55HK4    C18 4596   0.216   1.229   2.253 -0.3073  0.0568 -0.4041
   55HK4    C17 4597   0.353   1.251   2.259 -0.4462  0.8190  0.0127
   55HK4     H8 4598   0.415   1.162   2.272  0.5552  1.2932 -1.3328
   55HK4     N1 4599   0.151   1.117   2.197 -0.2979 -0.3030  0.2974
   55HK4    C21 4600   0.016   1.156   2.201 -0.2357 -0.0234 -0.2747
   55HK4    C22 4601  11.245   1.289   2.255  0.2322  0.0904 -0.3903
   55HK4    C26 4602  11.115   1.334   2.275  0.0529 -0.4419 -0.3442
   55HK4    H13 4603  11.100   1.421   2.339  0.2418 -1.2488  0.7932
   55HK4    C25 4604  11.005   1.252   2.254 -0.4416 -0.0162  0.5574
   55HK4    H12 4605  10.906   1.296   2.262  0.2352  1.4049  1.2856
   55HK4    C24 4606  11.025   1.122   2.207  0.4320  0.0452  0.7639
   55HK4    H11 4607  10.942   1.053   2.190 -0.0483  0.6424  0.6601
   55HK4    C23 4608  11.152   1.078   2.173 -0.0210 -0.2190 -0.5843
   55HK4    H10 4609  11.173   0.983   2.123 -0.5992 -1.3739  1.2990
   55HK4    C39 4610   0.207   1.026   2.106  0.2702  0.3714 -0.0316
   55HK4    C41 4611   0.157   0.895   2.097  0.4318  0.3142 -0.0893
   55HK4    H21 4612   0.082   0.867   2.173 -0.4061 -2.2162 -1.8016
   55HK4    C42 4613   0.212   0.803   2.008 -0.0054 -0.5400  0.5151
   55HK4    H22 4614   0.159   0.706   2.008 -1.5654  0.2982 -1.1438
   55HK4    C43 4615   0.318   0.838   1.926 -0.4998 -0.1291  0.0525
   55HK4    H23 4616   0.373   0.773   1.858  0.5134 -0.2497  0.9773
   55HK4    C44 4617   0.373   0.965   1.933 -0.4745 -0.0941 -0.6767
   55HK4    H24 4618   0.460   0.994   1.872 -0.7691 -0.7911 -1.4328
   55HK4    C45 4619   0.316   1.056   2.022  0.5023 -0.2052  0.0660
   55HK4    H25 4620   0.380   1.144   2.040  1.2843 -0.7503 -0.0425
   56HK4    H28 4621   6.782  11.199   7.892  1.2902  0.1805 -1.5987
   56HK4    C48 4622   6.778   0.059   7.907  0.0937 -0.0685 -0.0259
   56HK4    C47 4623   6.868   0.142   7.842  0.5198 -0.1294  0.4926
   56HK4    H27 4624   6.923   0.103   7.754  1.5219  0.5120  0.8190
   56HK4    C46 4625   6.885   0.276   7.875  0.7217 -0.0943  0.2476
   56HK4    H26 4626   6.953   0.333   7.809  2.4933 -1.3340  0.9700
   56HK4    C40 4627   6.818   0.336   7.983 -0.1705 -0.0203 -0.3373
   56HK4    C50 4628   6.732   0.245   8.048  0.0898 -0.2001 -0.2417
   56HK4    H30 4629   6.675   0.291   8.130  0.8095  0.7051 -0.2456
   56HK4    C49 4630   6.703   0.114   8.010 -0.3288 -0.0845 -0.3223
   56HK4    H29 4631   6.625   0.054   8.061  1.2242 -1.8525  0.0124
   56HK4     N2 4632   6.876   0.439   8.058 -0.4302  0.1466 -0.3683
   56HK4    C30 4633   7.012   0.474   8.048 -0.3954  0.1509  0.0994
   56HK4    C29 4634   7.122   0.393   8.072  0.1506  0.5331 -1.0688
   56HK4    H15 4635   7.110   0.285   8.066 -0.4221  0.5984 -1.0839
   56HK4    C28 4636   7.251   0.436   8.103  0.3505 -0.5038 -0.4267
   56HK4    C27 4637   7.267   0.576   8.102 -0.0449 -0.4482  0.4047
   56HK4    H14 4638   7.369   0.617   8.092 -0.1716 -0.1561  0.2932
   56HK4    C32 4639   7.159   0.663   8.093  0.1347 -0.3236 -0.5308
   56HK4    H16 4640   7.168   0.766   8.128 -2.9867  0.5770 -2.1581
   56HK4    C31 4641   7.030   0.615   8.078 -0.0995  0.1484 -0.0622
   56HK4    C34 4642   6.898   0.671   8.103 -0.2120  0.1757 -0.7037
   56HK4    C33 4643   6.808   0.557   8.098 -0.2369  0.1658 -0.0962
   56HK4    C35 4644   6.671   0.574   8.112 -0.2173  0.0742  0.2155
   56HK4    H17 4645   6.613   0.484   8.092  3.3954 -2.1303 -0.8134
   56HK4    C36 4646   6.616   0.700   8.132  0.4341  0.3687  0.1586
   56HK4    H18 4647   6.511   0.727   8.148  0.2736  0.1982 -0.5713
   56HK4    C37 4648   6.707   0.805   8.142  0.1779  0.6959 -0.8419
   56HK4    H19 4649   6.658   0.902   8.137 -3.1517 -0.8530  0.1995
   56HK4    C38 4650   6.845   0.795   8.134  0.1898  0.1946 -0.0867
   56HK4    H20 4651   6.919   0.861   8.179  0.8714 -1.3428  1.0910
   56HK4    C14 4652   7.343   0.356   8.184 -0.4683 -0.5109  0.5103
   56HK4     C9 4653   7.421   0.406   8.289 -0.4890  0.2500  0.1646
   56HK4     C8 4654   7.551   0.360   8.317 -0.3320  0.5916  0.0023
   56HK4    C11 4655   7.590   0.240   8.259  0.1963  0.7393  0.0553
   56HK4     H4 4656   7.691   0.198   8.277  2.1817  3.3192 -4.2964
   56HK4    C12 4657   7.509   0.174   8.168  0.7514  0.2554 -0.0974
   56HK4     H5 4658   7.522   0.068   8.141  0.3486  0.1823 -0.0006
   56HK4    C13 4659   7.390   0.235   8.129  0.0845 -0.4465  0.8305
   56HK4     H6 4660   7.347   0.197   8.035 -0.4807 -0.8111  1.2340
   56HK4     C7 4661   7.647   0.447   8.389 -0.0091 -0.3344  0.7073
   56HK4     O2 4662   7.755   0.399   8.423  0.3255  0.5167  0.8620
   56HK4     C4 4663   7.599   0.579   8.434  0.1819  0.0754 -0.2735
   56HK4     C3 4664   7.691   0.675   8.474  0.4894 -0.5630  0.5423
   56HK4     H3 4665   7.795   0.642   8.475  1.0839  1.1646  3.3723
   56HK4     C2 4666   7.656   0.801   8.522  0.2491 -0.6690  0.6490
   56HK4     H2 4667   7.734   0.858   8.574 -1.2026  0.2958  1.8160
   56HK4     C1 4668   7.521   0.836   8.521  0.2693 -0.5867  0.6375
   56HK4     H1 4669   7.492   0.942   8.523  0.2387 -0.5610 -0.4878
   56HK4     C6 4670   7.426   0.744   8.472 -0.0901 -0.1733  0.5610
   56HK4     C5 4671   7.462   0.614   8.437  0.1362 -0.1874  0.8434
   56HK4    C10 4672   7.369   0.511   8.382  0.0541 -0.1635  0.9382
   56HK4     O1 4673   7.265   0.485   8.442 -0.6387 -0.2173 -0.2815
   56HK4    C16 4674   7.316   0.813   8.403  0.4757  0.4001  0.2314
   56HK4    C15 4675   7.327   0.932   8.327 -0.1061  0.4343  0.1958
   56HK4     H7 4676   7.420   0.956   8.272 -0.2440  1.9659  0.6321
   56HK4    C20 4677   7.226   1.026   8.328 -0.4702  0.0510 -0.2026
   56HK4     H9 4678   7.228   1.115   8.264  1.0636  1.0544  1.1912
   56HK4    C19 4679   7.106   0.993   8.391 -0.2386 -0.5394 -0.0689
   56HK4    C18 4680   7.077   0.862   8.445  0.2987 -0.4152  0.5273
   56HK4    C17 4681   7.192   0.786   8.460  0.4590 -0.3034 -0.1421
   56HK4     H8 4682   7.183   0.707   8.535  1.0934  1.2865  1.6324
   56HK4     N1 4683   6.944   0.842   8.489  0.0876 -0.1296  0.0279
   56HK4    C21 4684   6.890   0.971   8.469 -0.0929 -0.1681  0.2759
   56HK4    C22 4685   6.984   1.067   8.415 -0.2507 -0.4278 -0.4687
   56HK4    C26 4686   6.953   1.202   8.423  0.0972 -0.3951  0.4038
   56HK4    H13 4687   7.026   1.270   8.377 -0.3884 -0.1382  0.0177
   56HK4    C25 4688   6.835   1.242   8.484 -0.1870  0.1968 -0.5282
   56HK4    H12 4689   6.823   1.350   8.496 -1.4236  0.4014 -3.1474
   56HK4    C24 4690   6.738   1.156   8.534 -0.3446 -0.0491 -1.2408
   56HK4    H11 4691   6.641   1.193   8.571 -0.6030 -0.1150 -1.8623
   56HK4    C23 4692   6.774   1.022   8.527 -0.0799 -0.0670  0.2126
   56HK4    H10 4693   6.695   0.951   8.549  0.9776 -1.0334  0.9266
   56HK4    C39 4694   6.883   0.717   8.505  0.2203 -0.1972  0.0064
   56HK4    C41 4695   6.754   0.707   8.561  0.2750 -0.0391  0.1612
   56HK4    H21 4696   6.731   0.764   8.652 -2.2323 -1.5627  0.5484
   56HK4    C42 4697   6.663   0.604   8.541  0.2593 -0.0635  0.3553
   56HK4    H22 4698   6.564   0.596   8.587 -0.5901  1.3227 -1.1971
   56HK4    C43 4699   6.705   0.495   8.465  0.5106  0.2301  0.0747
   56HK4    H23 4700   6.632   0.418   8.445 -0.0172 -0.4934  4.2880
   56HK4    C44 4701   6.836   0.496   8.418  0.1980  0.2098 -0.8145
   56HK4    H24 4702   6.872   0.408   8.363  0.0424 -3.4893  4.5861
   56HK4    C45 4703   6.925   0.601   8.438  0.2759  0.0748 -0.4302
   56HK4    H25 4704   7.027   0.594   8.396  0.3017  1.8739 -0.7108
   57HK4    H28 4705   9.847   3.354   9.027  0.1561  0.4194 -0.0407
   57HK4    C48 4706   9.904   3.267   8.995 -0.3889  0.0191  0.0739
   57HK4    C47 4707  10.030   3.238   9.045  0.1196  0.6479 -0.8298
   57HK4    H27 4708  10.078   3.320   9.100  1.0519 -0.2682 -0.2537
   57HK4    C46 4709  10.076   3.106   9.041 -0.7651  0.2996  0.3401
   57HK4    H26 4710  10.158   3.077   9.108 -0.5485  0.4161  0.1250
   57HK4    C40 4711  10.007   3.001   8.979  0.0387 -0.1049  0.1241
   57HK4    C50 4712   9.880   3.035   8.927  0.3046  0.1523 -0.3663
   57HK4    H30 4713   9.814   2.960   8.881  0.2257  0.5426 -0.8863
   57HK4    C49 4714   9.833   3.165   8.933 -0.1835 -0.0390 -0.0626
   57HK4    H29 4715   9.726   3.186   8.915  0.0732  0.3429 -1.1656
   57HK4     N2 4716  10.082   2.900   8.917  0.0364  0.0492 -0.1299
   57HK4    C30 4717  10.221   2.898   8.892 -0.0280  0.0332 -0.4768
   57HK4    C29 4718  10.310   3.005   8.881  0.5030 -0.3863 -0.2567
   57HK4    H15 4719  10.274   3.103   8.849  0.9879 -0.0737  0.1556
   57HK4    C28 4720  10.448   2.993   8.889  0.5259  0.0869  0.1710
   57HK4    C27 4721  10.502   2.863   8.890  0.2649 -0.0403 -1.0987
   57HK4    H14 4722  10.609   2.846   8.874 -0.0184 -1.3496 -1.7240
   57HK4    C32 4723  10.422   2.749   8.886 -0.0545  0.1564 -0.3454
   57HK4    H16 4724  10.468   2.652   8.905  2.5581  1.1528 -1.3725
   57HK4    C31 4725  10.284   2.768   8.888 -0.0718 -0.0252  0.6166
   57HK4    C34 4726  10.171   2.677   8.897  0.0525 -0.2272  0.2084
   57HK4    C33 4727  10.054   2.762   8.913  0.1912  0.0153 -0.0675
   57HK4    C35 4728   9.931   2.699   8.904  0.2543 -0.0395 -0.5790
   57HK4    H17 4729   9.843   2.747   8.947  1.1289  0.0001  1.1680
   57HK4    C36 4730   9.924   2.563   8.876 -0.3019 -0.1838  0.2487
   57HK4    H18 4731   9.826   2.524   8.847  1.0100 -1.8539 -2.1645
   57HK4    C37 4732  10.036   2.482   8.860 -0.1393  0.1463 -0.2762
   57HK4    H19 4733  10.031   2.380   8.823  1.0513 -0.3880  0.9808
   57HK4    C38 4734  10.162   2.541   8.869 -0.0034 -0.1887  0.0429
   57HK4    H20 4735  10.254   2.490   8.843  0.2026  0.3752 -0.3324
   57HK4    C14 4736  10.540   3.104   8.860  0.0863  0.4167  0.0488
   57HK4     C9 4737  10.660   3.088   8.791  0.1415  0.0438  0.2367
   57HK4     C8 4738  10.775   3.163   8.825  0.1343  0.1454  0.0460
   57HK4    C11 4739  10.765   3.257   8.926  0.4673 -0.1774  0.3844
   57HK4     H4 4740  10.858   3.306   8.960  1.7875 -1.9592 -0.6185
   57HK4    C12 4741  10.641   3.290   8.980  0.5523 -0.1793  0.5818
   57HK4     H5 4742  10.633   3.385   9.034  1.3780  0.4644 -0.4190
   57HK4    C13 4743  10.529   3.211   8.951  0.1502  0.6871 -0.2600
   57HK4     H6 4744  10.435   3.268   8.953  0.6393  1.6690 -3.0126
   57HK4     C7 4745  10.900   3.157   8.746  0.0167 -0.0352 -0.1265
   57HK4     O2 4746  10.991   3.238   8.763 -0.0110 -0.0057 -0.1214
   57HK4     C4 4747  10.906   3.064   8.631  0.2173  0.0023 -0.1481
   57HK4     C3 4748  11.029   3.038   8.573  0.2203 -0.0383 -0.1241
   57HK4     H3 4749  11.093   3.127   8.563  0.3242 -0.0480  0.4479
   57HK4     C2 4750  11.049   2.935   8.482 -0.6071  0.3872 -0.7941
   57HK4     H2 4751  11.147   2.935   8.433  0.3636 -1.4713  1.0874
   57HK4     C1 4752  10.939   2.852   8.459 -0.4044 -0.0937 -0.0499
   57HK4     H1 4753  10.954   2.781   8.377  0.2767  0.6983 -0.6269
   57HK4     C6 4754  10.811   2.881   8.511 -0.5436  0.1644 -0.5202
   57HK4     C5 4755  10.792   2.988   8.599  0.2558 -0.1245  0.0217
   57HK4    C10 4756  10.659   3.016   8.660  0.3948 -0.1143  0.3181
   57HK4     O1 4757  10.559   3.035   8.591  0.5123 -0.1992  0.1289
   57HK4    C16 4758  10.729   2.759   8.521 -0.2210 -0.0001  0.1853
   57HK4    C15 4759  10.795   2.642   8.562 -0.1620  0.0389  0.2007
   57HK4     H7 4760  10.899   2.647   8.597  0.7261  1.4520 -2.5275
   57HK4    C20 4761  10.726   2.521   8.574 -0.2682  0.1244  0.4659
   57HK4     H9 4762  10.776   2.425   8.563 -0.4513  0.1906 -1.1265
   57HK4    C19 4763  10.588   2.521   8.556 -0.1479  0.0887 -0.4908
   57HK4    C18 4764  10.517   2.640   8.512 -0.2790 -0.0767 -0.7215
   57HK4    C17 4765  10.592   2.755   8.496 -0.1386 -0.1042 -0.2616
   57HK4     H8 4766  10.537   2.839   8.454  3.0566  1.5096 -1.4084
   57HK4     N1 4767  10.377   2.620   8.510 -0.3391  0.1533  0.4677
   57HK4    C21 4768  10.357   2.484   8.540  0.2721  0.0101  0.2342
   57HK4    C22 4769  10.483   2.424   8.581  0.2382 -0.1959  0.0385
   57HK4    C26 4770  10.489   2.295   8.631 -0.2967 -0.2578 -0.0554
   57HK4    H13 4771  10.584   2.243   8.645 -0.6683 -1.3512 -1.4057
   57HK4    C25 4772  10.373   2.218   8.631 -0.1916 -0.4172  0.0149
   57HK4    H12 4773  10.379   2.120   8.677  1.4952 -0.5667 -0.4933
   57HK4    C24 4774  10.251   2.271   8.591  0.2551  0.4152 -0.2668
   57HK4    H11 4775  10.163   2.204   8.591  0.2858  0.2634  3.4888
   57HK4    C23 4776  10.244   2.405   8.556 -0.0804  0.4700  0.0023
   57HK4    H10 4777  10.148   2.437   8.515  0.1956  0.6283 -0.5284
   57HK4    C39 4778  10.273   2.713   8.504 -0.6539 -0.2269 -0.0160
   57HK4    C41 4779  10.145   2.686   8.451 -0.3025 -0.3058 -0.8500
   57HK4    H21 4780  10.127   2.596   8.390 -1.3118 -1.6676  1.3561
   57HK4    C42 4781  10.038   2.769   8.482  0.1429 -0.2606  0.6512
   57HK4    H22 4782   9.938   2.729   8.457  0.6677 -1.0846 -0.1844
   57HK4    C43 4783  10.054   2.891   8.545  0.3065  0.1982 -0.2610
   57HK4    H23 4784   9.967   2.957   8.555 -0.7732 -0.9448 -1.8856
   57HK4    C44 4785  10.182   2.923   8.589  0.1289 -0.1950  0.5781
   57HK4    H24 4786  10.209   3.021   8.631  0.9139 -0.9546  1.8626
   57HK4    C45 4787  10.289   2.836   8.571 -0.2372 -0.6697  0.6985
   57HK4    H25 4788  10.387   2.859   8.615  1.0676 -1.0000 -1.9826
   58HK4    H28 4789   2.206   8.946   1.708 -0.4412 -0.2336  0.5627
   58HK4    C48 4790   2.266   8.863   1.743  0.4461 -0.0641 -0.5208
   58HK4    C47 4791   2.200   8.741   1.741 -0.2234  0.2964 -0.3502
   58HK4    H27 4792   2.090   8.733   1.742 -0.2783  1.0204  0.9188
   58HK4    C46 4793   2.274   8.624   1.744 -0.5776  0.0850  0.4332
   58HK4    H26 4794   2.216   8.531   1.732 -0.5602 -0.0441  1.3168
   58HK4    C40 4795   2.415   8.624   1.748 -0.5426 -0.4033 -0.5344
   58HK4    C50 4796   2.477   8.751   1.748 -0.1333 -0.6005 -0.3317
   58HK4    H30 4797   2.581   8.751   1.785 -0.5738 -0.8509  0.9388
   58HK4    C49 4798   2.405   8.869   1.743  0.4582 -0.2164  0.1156
   58HK4    H29 4799   2.459   8.961   1.714 -1.6429  1.5617  1.6509
   58HK4     N2 4800   2.485   8.504   1.770  0.2469  0.1824  0.2144
   58HK4    C30 4801   2.436   8.391   1.838  0.3455  0.2451  0.3849
   58HK4    C29 4802   2.317   8.370   1.907  0.1314 -0.1417 -0.1007
   58HK4    H15 4803   2.244   8.450   1.920  1.6227  1.0467  1.2312
   58HK4    C28 4804   2.292   8.251   1.975 -0.2260 -0.3460 -0.5897
   58HK4    C27 4805   2.398   8.159   1.978  0.2488  0.2152 -0.2416
   58HK4    H14 4806   2.377   8.072   2.042  1.0776 -0.7641 -1.2755
   58HK4    C32 4807   2.516   8.170   1.905  0.2152 -0.3895 -0.3887
   58HK4    H16 4808   2.575   8.080   1.890 -0.0875 -0.4479 -1.2382
   58HK4    C31 4809   2.539   8.289   1.836  0.3034  0.1958  0.6415
   58HK4    C34 4810   2.646   8.334   1.751 -0.1714  0.0966 -0.0152
   58HK4    C33 4811   2.612   8.471   1.719  0.3512  0.3202  0.3874
   58HK4    C35 4812   2.695   8.530   1.625 -0.1583  0.0478 -0.2350
   58HK4    H17 4813   2.671   8.634   1.603  0.4905  0.4543  0.9374
   58HK4    C36 4814   2.797   8.463   1.557  0.2157  0.1668  0.2109
   58HK4    H18 4815   2.832   8.504   1.461 -1.2993  0.0187 -0.4145
   58HK4    C37 4816   2.838   8.337   1.598  0.0264  0.1464  0.3427
   58HK4    H19 4817   2.931   8.296   1.558 -1.0908  0.1646 -2.3841
   58HK4    C38 4818   2.759   8.275   1.694 -0.1700  0.0034  0.0863
   58HK4    H20 4819   2.775   8.167   1.693  2.4106  0.3692 -2.0967
   58HK4    C14 4820   2.171   8.239   2.058 -0.0208 -0.5591 -0.3252
   58HK4     C9 4821   2.176   8.169   2.179 -0.0504 -0.1494 -0.0875
   58HK4     C8 4822   2.075   8.071   2.196 -0.4741  0.2937 -0.0168
   58HK4    C11 4823   1.973   8.055   2.103 -0.1779 -0.2354 -0.2501
   58HK4     H4 4824   1.914   7.962   2.102 -0.4004 -0.0954  0.0803
   58HK4    C12 4825   1.960   8.140   1.994 -0.0637 -0.3206 -0.3287
   58HK4     H5 4826   1.861   8.167   1.954  1.2062 -0.4627 -3.7849
   58HK4    C13 4827   2.062   8.232   1.970 -0.3431  0.0820  0.0210
   58HK4     H6 4828   2.065   8.287   1.875  1.7054  2.0144  1.1849
   58HK4     C7 4829   2.071   7.998   2.325 -0.1790 -0.2002 -0.2815
   58HK4     O2 4830   1.994   7.903   2.336 -0.4485  0.0930  0.3891
   58HK4     C4 4831   2.158   8.040   2.437  0.2153 -0.2517 -0.5686
   58HK4     C3 4832   2.140   7.973   2.557  0.0077  0.2966 -0.2942
   58HK4     H3 4833   2.056   7.903   2.574  0.9556 -0.8678 -0.3938
   58HK4     C2 4834   2.244   7.976   2.649 -0.3727  0.3489  0.1359
   58HK4     H2 4835   2.242   7.942   2.754  1.4882  1.1269  0.4362
   58HK4     C1 4836   2.362   8.038   2.613 -0.3953  0.4192  0.1827
   58HK4     H1 4837   2.421   8.058   2.703 -0.7689  0.5393  0.3979
   58HK4     C6 4838   2.390   8.097   2.487  0.2025 -0.6391 -0.1881
   58HK4     C5 4839   2.277   8.107   2.405  0.0530  0.3820  0.1341
   58HK4    C10 4840   2.276   8.197   2.286 -0.3615  0.3102  0.0828
   58HK4     O1 4841   2.314   8.313   2.303  0.0739  0.3198 -0.9416
   58HK4    C16 4842   2.517   8.061   2.423  0.0840 -0.4513 -0.5323
   58HK4    C15 4843   2.581   7.939   2.455  0.2518 -0.0930  0.5175
   58HK4     H7 4844   2.535   7.872   2.528 -2.2234  1.0939  0.0905
   58HK4    C20 4845   2.704   7.905   2.398  0.0935 -0.5274  0.4333
   58HK4     H9 4846   2.747   7.805   2.402  1.6481  0.0892 -0.4416
   58HK4    C19 4847   2.764   7.989   2.305 -0.8628 -0.3888 -0.0706
   58HK4    C18 4848   2.707   8.121   2.284  0.3449  0.2863  0.7725
   58HK4    C17 4849   2.583   8.151   2.340 -0.2154 -0.0078 -0.2955
   58HK4     H8 4850   2.567   8.258   2.353 -1.2520 -0.3417  1.2874
   58HK4     N1 4851   2.774   8.181   2.176 -0.3416  0.3065  0.3531
   58HK4    C21 4852   2.855   8.082   2.116 -0.5209  0.3294  0.0701
   58HK4    C22 4853   2.856   7.961   2.197 -1.3103 -0.0829 -0.5316
   58HK4    C26 4854   2.938   7.855   2.161  0.0563  0.6873  0.2683
   58HK4    H13 4855   2.918   7.767   2.222 -1.8984  0.0424 -1.2310
   58HK4    C25 4856   3.016   7.859   2.046 -0.0136  0.0041  0.1931
   58HK4    H12 4857   3.083   7.779   2.016 -1.2082 -0.6584 -0.7685
   58HK4    C24 4858   3.005   7.969   1.961 -0.1340 -0.2133 -0.0759
   58HK4    H11 4859   3.055   7.967   1.863  0.5421  0.4169  0.2445
   58HK4    C23 4860   2.927   8.078   1.997 -0.0609 -0.3055  0.3691
   58HK4    H10 4861   2.916   8.164   1.931  0.9608  0.3080  0.9873
   58HK4    C39 4862   2.757   8.313   2.134  0.2805  0.1398 -0.4528
   58HK4    C41 4863   2.874   8.372   2.083  0.3666 -0.0769 -0.5054
   58HK4    H21 4864   2.972   8.323   2.094  0.1172  0.1435  3.2103
   58HK4    C42 4865   2.873   8.502   2.034  0.3271  0.2929  0.4656
   58HK4    H22 4866   2.964   8.547   1.990  0.5071  2.2967  2.7540
   58HK4    C43 4867   2.753   8.572   2.034  0.0799 -0.1261  0.3681
   58HK4    H23 4868   2.741   8.663   1.975  1.5699 -0.2584 -0.1483
   58HK4    C44 4869   2.635   8.522   2.088 -0.3505  0.1806 -0.2897
   58HK4    H24 4870   2.544   8.582   2.079 -1.4936 -1.6038 -0.9810
   58HK4    C45 4871   2.638   8.390   2.131  0.3821  0.3276  0.1162
   58HK4    H25 4872   2.545   8.335   2.150 -0.6401  2.4926  1.4561
   59HK4    H28 4873   8.102   6.099   8.120  1.5787  2.1413 -0.2437
   59HK4    C48 4874   8.149   6.072   8.215  0.7851  0.2693 -0.3541
   59HK4    C47 4875   8.131   5.949   8.276  0.5127  0.1425 -0.6851
   59HK4    H27 4876   8.057   5.881   8.233 -0.9479  0.5305  1.1145
   59HK4    C46 4877   8.201   5.909   8.390 -0.0148  0.0029 -0.4097
   59HK4    H26 4878   8.201   5.803   8.417 -1.4595  0.0009 -0.3627
   59HK4    C40 4879   8.288   5.996   8.459  0.1613 -0.2533 -0.3044
   59HK4    C50 4880   8.297   6.123   8.398 -0.0169  0.0825  0.3670
   59HK4    H30 4881   8.343   6.210   8.448  1.3061 -0.4925  0.1670
   59HK4    C49 4882   8.240   6.157   8.276  0.8807 -0.0261 -0.0881
   59HK4    H29 4883   8.276   6.248   8.226  0.3043  0.1295 -0.2192
   59HK4     N2 4884   8.372   5.960   8.566 -0.0841  0.0586 -0.0079
   59HK4    C30 4885   8.420   6.045   8.667  0.0158 -0.2087  0.1687
   59HK4    C29 4886   8.370   6.166   8.712  0.2891  0.2579 -0.7696
   59HK4    H15 4887   8.270   6.198   8.681 -0.1219  1.5146  1.6949
   59HK4    C28 4888   8.425   6.232   8.821 -0.0997 -0.1688 -0.3129
   59HK4    C27 4889   8.528   6.170   8.895 -0.0420  0.1296 -0.1399
   59HK4    H14 4890   8.564   6.215   8.989  1.5975  2.3904 -1.7939
   59HK4    C32 4891   8.586   6.052   8.849  0.4852  0.2850  0.1294
   59HK4    H16 4892   8.674   6.019   8.905  0.4594 -0.2382 -0.1407
   59HK4    C31 4893   8.540   5.995   8.731  0.4546  0.6008 -0.0151
   59HK4    C34 4894   8.575   5.873   8.661  0.0437  0.4812 -0.0107
   59HK4    C33 4895   8.469   5.858   8.563  0.0847  0.2201 -0.0184
   59HK4    C35 4896   8.460   5.742   8.487  0.0437  0.4841 -0.4195
   59HK4    H17 4897   8.391   5.734   8.403 -1.0690  2.0788  0.3333
   59HK4    C36 4898   8.550   5.639   8.514 -0.9412 -0.2382  0.1522
   59HK4    H18 4899   8.519   5.539   8.482  1.9250 -1.9263  2.3324
   59HK4    C37 4900   8.647   5.652   8.614 -0.5881  0.9342 -0.3333
   59HK4    H19 4901   8.712   5.565   8.620  0.2648  1.1917 -4.2802
   59HK4    C38 4902   8.663   5.769   8.688 -0.4646  0.2430  0.7426
   59HK4    H20 4903   8.721   5.758   8.779  0.1574  0.4119  0.3710
   59HK4    C14 4904   8.391   6.373   8.849 -0.0034 -0.2101  0.0206
   59HK4     C9 4905   8.483   6.470   8.888 -0.2487  0.0346 -0.0139
   59HK4     C8 4906   8.441   6.574   8.973 -0.1004 -0.2761  0.4396
   59HK4    C11 4907   8.305   6.589   8.997 -0.2399  0.2195 -0.5924
   59HK4     H4 4908   8.264   6.673   9.054 -1.3989 -0.4253 -0.4594
   59HK4    C12 4909   8.212   6.498   8.949  0.0948 -0.4783  0.0568
   59HK4     H5 4910   8.107   6.531   8.950  0.4640  0.7085  1.2784
   59HK4    C13 4911   8.253   6.389   8.873 -0.0331 -0.5228  0.0525
   59HK4     H6 4912   8.193   6.303   8.837  0.0784 -0.7137  0.3159
   59HK4     C7 4913   8.540   6.669   9.029  0.2867 -0.2360 -0.3026
   59HK4     O2 4914   8.512   6.723   9.136  0.0556 -0.0486 -0.4528
   59HK4     C4 4915   8.682   6.660   8.989  0.3660 -0.4648  0.0298
   59HK4     C3 4916   8.779   6.730   9.060  0.5944 -0.7089 -0.0416
   59HK4     H3 4917   8.747   6.798   9.140  1.6109  1.0422 -1.0791
   59HK4     C2 4918   8.914   6.718   9.031  0.6031  0.4349 -0.4764
   59HK4     H2 4919   8.993   6.761   9.094  2.6633 -0.4879 -2.3400
   59HK4     C1 4920   8.950   6.647   8.917 -0.1599  0.0684 -0.4872
   59HK4     H1 4921   9.057   6.625   8.903 -0.0615  0.0999  0.2069
   59HK4     C6 4922   8.851   6.582   8.840 -0.0967 -0.1706 -0.3679
   59HK4     C5 4923   8.718   6.574   8.883 -0.0644 -0.2631 -0.2802
   59HK4    C10 4924   8.620   6.476   8.829 -0.2429 -0.2243 -0.0301
   59HK4     O1 4925   8.633   6.431   8.715  0.6415  0.1877 -0.0919
   59HK4    C16 4926   8.906   6.562   8.706  0.5635  0.0740 -0.1375
   59HK4    C15 4927   8.999   6.649   8.644 -0.5336  0.7618 -0.8498
   59HK4     H7 4928   8.992   6.755   8.671 -1.5986  0.8608 -1.5035
   59HK4    C20 4929   9.103   6.609   8.561  0.0334  0.3087  0.0593
   59HK4     H9 4930   9.188   6.675   8.544  0.3533  0.3051  1.5462
   59HK4    C19 4931   9.104   6.478   8.514 -0.1435  0.3083  0.0585
   59HK4    C18 4932   8.997   6.389   8.555  0.3025 -0.0311  0.4889
   59HK4    C17 4933   8.913   6.432   8.657 -0.2491 -0.0425  0.0457
   59HK4     H8 4934   8.864   6.355   8.717  1.9084 -0.0773  1.8367
   59HK4     N1 4935   9.018   6.257   8.511  0.0268  0.1592 -0.2336
   59HK4    C21 4936   9.150   6.257   8.462  0.1367 -0.2169  0.0611
   59HK4    C22 4937   9.199   6.392   8.445 -0.5272  0.0005 -0.0878
   59HK4    C26 4938   9.328   6.416   8.401 -0.6219  0.0308 -0.3553
   59HK4    H13 4939   9.362   6.517   8.379 -1.4653  0.3147 -0.3446
   59HK4    C25 4940   9.411   6.307   8.375 -0.2421  0.1830  0.1917
   59HK4    H12 4941   9.512   6.317   8.336 -0.2520 -0.3117  0.0368
   59HK4    C24 4942   9.360   6.178   8.375  0.2101  0.0055 -0.0621
   59HK4    H11 4943   9.424   6.092   8.350  0.0123 -0.9974  2.7020
   59HK4    C23 4944   9.232   6.152   8.422  0.2037 -0.0929 -0.1293
   59HK4    H10 4945   9.191   6.051   8.413  3.6455 -1.4245 -1.8258
   59HK4    C39 4946   8.911   6.171   8.481  0.3285 -0.2775 -0.0679
   59HK4    C41 4947   8.927   6.031   8.492 -0.3071 -0.3589 -0.2059
   59HK4    H21 4948   9.014   5.994   8.547  0.4764  2.6947  0.7027
   59HK4    C42 4949   8.835   5.938   8.444 -0.2191 -0.9460  0.7484
   59HK4    H22 4950   8.860   5.832   8.430 -0.4698 -0.9723  0.4814
   59HK4    C43 4951   8.720   5.990   8.386  0.5556  0.1522  0.1754
   59HK4    H23 4952   8.637   5.922   8.366  2.1818 -1.1460 -2.4933
   59HK4    C44 4953   8.693   6.126   8.378  0.1577  0.0536 -0.2013
   59HK4    H24 4954   8.597   6.151   8.331 -1.0968 -1.0236  1.7204
   59HK4    C45 4955   8.785   6.214   8.434  0.1191 -0.3238  0.4513
   59HK4    H25 4956   8.754   6.315   8.464 -1.6657 -0.2765 -1.4726
   60HK4    H28 4957   4.732   8.325  10.884  1.4596 -0.5075 -0.3276
   60HK4    C48 4958   4.771   8.368  10.976  0.0153 -0.1386  0.1291
   60HK4    C47 4959   4.717   8.486  11.027 -0.1074 -0.0202 -0.2585
   60HK4    H27 4960   4.630   8.533  10.980  0.8174  0.6948 -1.2857
   60HK4    C46 4961   4.766   8.538  11.147 -0.5979  0.1385 -0.1293
   60HK4    H26 4962   4.725   8.632  11.185  1.8284  1.0357  0.2929
   60HK4    C40 4963   4.858   8.461  11.220 -0.7228  0.1765  0.0687
   60HK4    C50 4964   4.905   8.338  11.168  0.1736  0.5072  0.0846
   60HK4    H30 4965   4.991   8.284  11.210 -1.0569 -0.4807  1.3788
   60HK4    C49 4966   4.858   8.287  11.048  0.0669  0.0806  0.3081
   60HK4    H29 4967   4.897   8.193  11.006  0.4813 -0.3831  1.7036
   60HK4     N2 4968   4.915   8.519   0.086 -0.3992 -0.1878  0.0964
   60HK4    C30 4969   4.927   8.656   0.116  0.4548 -0.2199 -0.0831
   60HK4    C29 4970   4.926   8.764   0.027 -0.2589 -0.0379  0.1428
   60HK4    H15 4971   4.951   8.748  11.170  1.5257  2.2102  0.1810
   60HK4    C28 4972   4.923   8.894   0.076 -0.0585 -0.0869  0.2947
   60HK4    C27 4973   4.918   8.909   0.216  0.5188 -0.3235  0.3429
   60HK4    H14 4974   4.906   9.012   0.252 -3.5027 -0.3576 -0.6194
   60HK4    C32 4975   4.933   8.803   0.305  0.4213 -0.3128  0.3702
   60HK4    H16 4976   4.944   8.819   0.412 -0.5353 -0.6468  0.5214
   60HK4    C31 4977   4.954   8.674   0.257  0.2441 -0.1879 -0.0469
   60HK4    C34 4978   4.960   8.542   0.317 -0.5126  0.0785  0.6251
   60HK4    C33 4979   4.938   8.450   0.207 -0.1137  0.3305  0.3387
   60HK4    C35 4980   4.934   8.314   0.231 -0.2146  0.2339 -0.1933
   60HK4    H17 4981   4.934   8.236   0.155  2.2291 -1.7601  1.7607
   60HK4    C36 4982   4.951   8.264   0.360  0.2206  0.1044 -0.3012
   60HK4    H18 4983   4.929   8.157   0.376 -0.4610 -0.0672 -2.3044
   60HK4    C37 4984   4.989   8.354   0.459 -0.0810 -0.0414 -0.0545
   60HK4    H19 4985   5.036   8.321   0.552 -1.0629 -1.0651  0.0983
   60HK4    C38 4986   4.991   8.492   0.443 -0.4377  0.0429  0.5910
   60HK4    H20 4987   4.990   8.560   0.528  1.8448  1.7444 -0.6677
   60HK4    C14 4988   4.930   9.009  11.233  0.0107 -0.2193  0.1357
   60HK4     C9 4989   4.976   9.139   0.009 -0.3905 -0.1943  0.7841
   60HK4     C8 4990   4.931   9.244  11.175  0.4973 -0.0957  0.4077
   60HK4    C11 4991   4.843   9.223  11.069  0.1756 -0.0392  0.6629
   60HK4     H4 4992   4.834   9.292  10.984  0.5604 -1.4026 -0.5032
   60HK4    C12 4993   4.797   9.095  11.044 -0.2826  0.2570 -0.0356
   60HK4     H5 4994   4.721   9.076  10.966 -0.0815  1.6507 -0.5747
   60HK4    C13 4995   4.846   8.990  11.122 -0.1862  0.4554  0.1693
   60HK4     H6 4996   4.812   8.890  11.092 -1.0632 -0.2365  3.3362
   60HK4     C7 4997   4.981   9.383  11.186 -0.0143  0.1591 -0.3728
   60HK4     O2 4998   4.919   9.477  11.138 -0.0566  0.0209 -0.5878
   60HK4     C4 4999   5.099   9.409   0.024  0.0444  0.0751 -0.4263
   60HK4     C3 5000   5.149   9.538   0.042 -0.1112  0.1220 -0.3423
   60HK4     H3 5001   5.078   9.622   0.045 -1.9454 -1.2646 -2.8158
   60HK4     C2 5002   5.283   9.555   0.076  0.0275 -0.2762 -0.6776
   60HK4     H2 5003   5.318   9.659   0.076 -0.1775 -0.2088 -0.0830
   60HK4     C1 5004   5.355   9.445   0.120 -0.4538 -0.2319  0.2341
   60HK4     H1 5005   5.464   9.449   0.135 -0.3682 -2.0072  0.1722
   60HK4     C6 5006   5.304   9.314   0.106 -0.2456 -0.2150 -0.7202
   60HK4     C5 5007   5.172   9.295   0.065 -0.3889 -0.1502 -0.2912
   60HK4    C10 5008   5.100   9.167   0.088 -0.0746 -0.2216  0.3059
   60HK4     O1 5009   5.122   9.103   0.191 -0.0514 -0.1301  0.3577
   60HK4    C16 5010   5.401   9.211   0.148  0.0991  0.3211 -0.1929
   60HK4    C15 5011   5.502   9.226   0.244 -0.4823  0.2758  0.4284
   60HK4     H7 5012   5.494   9.316   0.307 -0.0062  0.0765  0.7889
   60HK4    C20 5013   5.601   9.134   0.277 -0.1139  0.3475 -0.4731
   60HK4     H9 5014   5.675   9.150   0.355  0.7575  0.7490 -1.3766
   60HK4    C19 5015   5.601   9.014   0.206 -0.1422 -0.2484  0.5278
   60HK4    C18 5016   5.497   8.988   0.109 -0.2451 -0.0663  0.5886
   60HK4    C17 5017   5.409   9.091   0.078  0.4148  0.2943 -0.1166
   60HK4     H8 5018   5.339   9.065  11.247  0.7369 -0.8261 -0.0445
   60HK4     N1 5019   5.519   8.866   0.041 -0.0556  0.3407 -0.0840
   60HK4    C21 5020   5.642   8.819   0.091 -0.3617 -0.4956 -0.1186
   60HK4    C22 5021   5.695   8.904   0.195 -0.3756 -0.3779 -0.2093
   60HK4    C26 5022   5.787   8.855   0.287  0.2302  0.0658 -0.5793
   60HK4    H13 5023   5.808   8.910   0.378  2.3061  0.9381 -1.5398
   60HK4    C25 5024   5.846   8.730   0.269  0.8332  0.2822 -0.1181
   60HK4    H12 5025   5.907   8.680   0.344  1.1882 -0.8378 -1.1342
   60HK4    C24 5026   5.812   8.659   0.155  0.2478  0.6011 -0.1453
   60HK4    H11 5027   5.859   8.563   0.129  0.5271  1.1453 -1.6927
   60HK4    C23 5028   5.709   8.698   0.070  0.2817 -0.0738 -0.5029
   60HK4    H10 5029   5.692   8.641  11.227 -0.2750  2.1198 -1.8245
   60HK4    C39 5030   5.411   8.782   0.012  0.7403 -0.6500 -0.1720
   60HK4    C41 5031   5.436   8.701  11.147  0.1790 -0.2765 -0.5651
   60HK4    H21 5032   5.518   8.716  11.076 -0.2133 -2.4091 -1.5078
   60HK4    C42 5033   5.371   8.578  11.145  0.1941 -0.2893 -0.2771
   60HK4    H22 5034   5.390   8.528  11.049 -0.2489  3.7107 -2.5895
   60HK4    C43 5035   5.272   8.543  11.236  0.4318  0.1697  0.1629
   60HK4    H23 5036   5.223   8.445  11.231  1.8872 -0.5708  0.3113
   60HK4    C44 5037   5.244   8.627   0.095  0.3549  0.5089 -0.1240
   60HK4    H24 5038   5.180   8.596   0.179  1.5331 -2.0187 -0.1224
   60HK4    C45 5039   5.315   8.746   0.108  0.2313  0.5916 -0.2195
   60HK4    H25 5040   5.298   8.817   0.191 -1.8238 -0.8508  0.6374
   61HK4    H28 5041   3.340   1.627   3.866  0.4165 -0.8727  1.8658
   61HK4    C48 5042   3.356   1.528   3.825  0.4028 -0.2661  0.3508
   61HK4    C47 5043   3.297   1.422   3.894 -0.3645 -0.0976 -0.0453
   61HK4    H27 5044   3.239   1.446   3.983 -0.6802  0.6307 -0.4419
   61HK4    C46 5045   3.318   1.291   3.851  0.0681  0.0639 -0.3416
   61HK4    H26 5046   3.267   1.213   3.910 -1.2908  1.5849  0.5756
   61HK4    C40 5047   3.395   1.260   3.738  0.5134  0.2075 -0.0814
   61HK4    C50 5048   3.448   1.374   3.674  0.1450  0.2554 -0.3060
   61HK4    H30 5049   3.499   1.355   3.579  2.1381  1.0613  0.5822
   61HK4    C49 5050   3.440   1.506   3.716  0.1064  0.1433  0.0391
   61HK4    H29 5051   3.485   1.596   3.672  0.2157  0.2034  0.2758
   61HK4     N2 5052   3.455   1.135   3.720  0.5045  0.1543  0.2709
   61HK4    C30 5053   3.491   1.039   3.818 -0.2722 -0.1462  0.2696
   61HK4    C29 5054   3.527   1.056   3.951  0.7452  0.7838 -0.1153
   61HK4    H15 5055   3.503   1.151   3.998  1.3911  0.8711  0.0493
   61HK4    C28 5056   3.578   0.951   4.028 -0.0528  0.3987 -0.1113
   61HK4    C27 5057   3.588   0.826   3.964 -0.2461  0.4539 -0.2538
   61HK4    H14 5058   3.618   0.739   4.025 -1.5138  0.3320  0.2039
   61HK4    C32 5059   3.547   0.803   3.833  0.1262 -0.3981 -0.2238
   61HK4    H16 5060   3.546   0.706   3.783 -0.0370 -0.5343  0.0414
   61HK4    C31 5061   3.502   0.909   3.755 -0.1065 -0.1326  0.2694
   61HK4    C34 5062   3.484   0.927   3.613  0.2680 -0.0347  0.2343
   61HK4    C33 5063   3.457   1.068   3.596 -1.0139 -0.2452  0.4462
   61HK4    C35 5064   3.435   1.104   3.463 -0.3998  0.3961  0.5092
   61HK4    H17 5065   3.434   1.207   3.430  0.7533 -0.0764 -1.0541
   61HK4    C36 5066   3.437   1.017   3.354  0.6106  0.1031  0.7565
   61HK4    H18 5067   3.416   1.059   3.255  1.1956 -3.3657 -0.9000
   61HK4    C37 5068   3.455   0.881   3.375 -0.3098 -0.0741  0.4234
   61HK4    H19 5069   3.420   0.804   3.306  0.3939 -0.7448  0.8118
   61HK4    C38 5070   3.483   0.839   3.505  0.5152 -0.0571  0.2511
   61HK4    H20 5071   3.532   0.743   3.520  0.3658 -0.0706  0.6396
   61HK4    C14 5072   3.641   0.969   4.159  0.5570  0.2802 -0.3905
   61HK4     C9 5073   3.744   0.888   4.210 -0.2631 -0.4288  0.1538
   61HK4     C8 5074   3.762   0.871   4.349 -0.1037 -0.0057  0.1858
   61HK4    C11 5075   3.683   0.947   4.434 -0.5937 -0.6046  0.2714
   61HK4     H4 5076   3.731   0.973   4.530  0.9613 -0.7451 -0.4482
   61HK4    C12 5077   3.587   1.036   4.388 -0.0961 -0.0049  0.3721
   61HK4     H5 5078   3.516   1.093   4.450 -1.0717 -0.3076 -0.4344
   61HK4    C13 5079   3.567   1.046   4.251  0.7763 -0.2368  0.2282
   61HK4     H6 5080   3.492   1.117   4.214 -1.2513 -1.3681  2.0601
   61HK4     C7 5081   3.842   0.758   4.401  0.1413  0.1012  0.0431
   61HK4     O2 5082   3.899   0.768   4.509  0.4894 -0.2228 -0.1057
   61HK4     C4 5083   3.885   0.652   4.306  0.2967  0.1940  0.0111
   61HK4     C3 5084   3.933   0.529   4.350  0.0239  0.0373 -0.1287
   61HK4     H3 5085   3.907   0.491   4.450 -1.3719  0.8454 -0.1714
   61HK4     C2 5086   3.985   0.432   4.266  0.1464 -0.1793  0.1956
   61HK4     H2 5087   4.018   0.333   4.302 -1.8365 -0.4863  1.2609
   61HK4     C1 5088   3.970   0.454   4.130  0.1548 -0.3035  0.1740
   61HK4     H1 5089   4.012   0.378   4.062  1.2055 -0.6190  1.1535
   61HK4     C6 5090   3.916   0.573   4.078 -0.2106 -0.4448  0.2321
   61HK4     C5 5091   3.885   0.676   4.167  0.1864 -0.0899 -0.0382
   61HK4    C10 5092   3.837   0.810   4.123  0.0852 -0.0528  0.1857
   61HK4     O1 5093   3.908   0.880   4.051  0.4717 -0.0515  0.5648
   61HK4    C16 5094   3.845   0.554   3.951 -0.3813  0.4849  0.1878
   61HK4    C15 5095   3.773   0.436   3.925  0.4813 -0.1069  0.4876
   61HK4     H7 5096   3.765   0.365   4.009  2.2322  0.0235  0.7887
   61HK4    C20 5097   3.731   0.402   3.797  0.3668  0.4028  0.3910
   61HK4     H9 5098   3.692   0.303   3.775 -1.5514  0.8555  1.5481
   61HK4    C19 5099   3.744   0.485   3.687 -0.0107  0.0002  0.0408
   61HK4    C18 5100   3.813   0.609   3.717  0.6537 -0.2853 -0.2925
   61HK4    C17 5101   3.862   0.641   3.843 -0.4647  0.2769  0.0079
   61HK4     H8 5102   3.929   0.725   3.857 -1.1655  0.7257  0.6977
   61HK4     N1 5103   3.839   0.678   3.596  0.5299  0.0853 -0.1084
   61HK4    C21 5104   3.791   0.598   3.491  0.0629 -0.2550  0.3663
   61HK4    C22 5105   3.736   0.474   3.542  0.2890 -0.4813  0.0614
   61HK4    C26 5106   3.675   0.392   3.448 -0.2634 -0.3084  0.2669
   61HK4    H13 5107   3.626   0.302   3.485  0.7900 -0.4205  1.4255
   61HK4    C25 5108   3.659   0.430   3.315  1.0372  0.1153  0.2238
   61HK4    H12 5109   3.639   0.351   3.242 -0.1246 -0.5414  1.2265
   61HK4    C24 5110   3.706   0.553   3.273  0.1946  0.4056  0.1267
   61HK4    H11 5111   3.652   0.591   3.184 -1.8596 -2.7081 -0.0120
   61HK4    C23 5112   3.780   0.635   3.358  0.1481  0.1033  0.4576
   61HK4    H10 5113   3.808   0.734   3.324  0.7302  0.2560  1.3611
   61HK4    C39 5114   3.897   0.806   3.591  0.0626  0.3010  0.0246
   61HK4    C41 5115   3.962   0.838   3.470 -0.0306 -0.1842 -0.1572
   61HK4    H21 5116   4.014   0.759   3.415  1.7455  1.0279 -0.2610
   61HK4    C42 5117   3.965   0.962   3.407  0.5782 -0.1353 -0.0307
   61HK4    H22 5118   4.030   0.987   3.321 -1.3520  0.5996 -1.2954
   61HK4    C43 5119   3.898   1.063   3.475 -0.0301 -0.6607  0.1547
   61HK4    H23 5120   3.891   1.162   3.431 -0.0714  0.2464  2.1306
   61HK4    C44 5121   3.844   1.047   3.602 -0.6088  0.0883  0.0063
   61HK4    H24 5122   3.827   1.133   3.668 -1.1233  0.8360 -1.1002
   61HK4    C45 5123   3.844   0.919   3.657 -0.0030  0.1695  0.1979
   61HK4    H25 5124   3.798   0.902   3.756 -1.7503  0.9222 -0.4777
   62HK4    H28 5125   0.825   0.279   5.349  1.1924 -0.2331  1.0399
   62HK4    C48 5126   0.842   0.175   5.323 -0.3738 -0.2523  0.0455
   62HK4    C47 5127   0.740   0.088   5.286 -0.1620 -0.3869 -0.2181
   62HK4    H27 5128   0.638   0.114   5.318 -0.1094  1.8536 -1.7503
   62HK4    C46 5129   0.771  11.213   5.228 -0.0339 -0.5024  0.0922
   62HK4    H26 5130   0.686  11.143   5.216 -0.5114  0.1280 -0.2573
   62HK4    C40 5131   0.903  11.170   5.207 -0.1068 -0.8824  0.3945
   62HK4    C50 5132   1.004   0.010   5.252 -0.3666 -0.0430 -0.6383
   62HK4    H30 5133   1.106  11.244   5.212 -0.2506 -0.5478 -0.1755
   62HK4    C49 5134   0.973   0.133   5.308 -0.3967 -0.1930 -0.3280
   62HK4    H29 5135   1.059   0.182   5.356 -0.1581 -1.1133  0.2137
   62HK4     N2 5136   0.945  11.075   5.113  0.0222  0.0937 -0.5538
   62HK4    C30 5137   0.863  11.018   5.013 -0.6739  0.1207 -0.0064
   62HK4    C29 5138   0.759  11.074   4.940 -0.2045  0.4837 -0.4078
   62HK4    H15 5139   0.696  11.144   4.996 -2.3171 -0.2968 -1.7639
   62HK4    C28 5140   0.710  11.020   4.822 -0.5198 -0.2181  0.0403
   62HK4    C27 5141   0.773  10.907   4.764  0.0262  0.0329  0.1418
   62HK4    H14 5142   0.736  10.866   4.669 -0.8808  2.7108 -0.7076
   62HK4    C32 5143   0.874  10.846   4.838 -0.2325 -0.4702  0.0797
   62HK4    H16 5144   0.928  10.756   4.810  0.8165 -0.2781  1.4673
   62HK4    C31 5145   0.923  10.899   4.956 -0.6477  0.1367 -0.0129
   62HK4    C34 5146   1.039  10.871   5.039  0.0341  0.0395 -1.0030
   62HK4    C33 5147   1.054  10.986   5.126 -0.1490 -0.1431 -0.7331
   62HK4    C35 5148   1.161  10.977   5.215 -0.0874 -0.1275 -0.8064
   62HK4    H17 5149   1.199  11.070   5.257 -1.2324  0.2247 -0.5141
   62HK4    C36 5150   1.244  10.866   5.214  0.1744  0.0464  0.4131
   62HK4    H18 5151   1.335  10.870   5.274  1.3742  0.4372 -1.3796
   62HK4    C37 5152   1.227  10.757   5.129  0.3725  0.4927 -0.2021
   62HK4    H19 5153   1.302  10.677   5.130  1.0680  1.1220  2.9357
   62HK4    C38 5154   1.120  10.759   5.040 -0.1958 -0.1087  0.4636
   62HK4    H20 5155   1.089  10.674   4.979  0.5495  1.8140 -2.6587
   62HK4    C14 5156   0.578  11.061   4.773 -0.3548  0.0265 -0.2018
   62HK4     C9 5157   0.495  10.970   4.706 -0.1486 -0.0964 -0.2899
   62HK4     C8 5158   0.400  11.009   4.609 -0.0419  0.2330 -0.2626
   62HK4    C11 5159   0.374  11.145   4.606 -0.4522  0.1593 -0.1604
   62HK4     H4 5160   0.294  11.178   4.539  0.0754  0.8186 -0.4779
   62HK4    C12 5161   0.449  11.241   4.675  0.0834 -0.1879 -0.2567
   62HK4     H5 5162   0.436   0.101   4.658 -3.6442 -0.5665 -0.4056
   62HK4    C13 5163   0.550  11.199   4.760  0.5177  0.1712 -0.5943
   62HK4     H6 5164   0.583   0.012   4.845 -3.4001  1.3691  0.1461
   62HK4     C7 5165   0.316  10.915   4.531  0.0035 -0.3630  0.4076
   62HK4     O2 5166   0.241  10.950   4.441  0.4402 -0.1007  0.1432
   62HK4     C4 5167   0.332  10.770   4.555  0.1088 -0.4452 -0.1453
   62HK4     C3 5168   0.256  10.675   4.487 -0.2484 -0.0237 -0.3403
   62HK4     H3 5169   0.200  10.704   4.397  1.6321  0.2575 -1.4444
   62HK4     C2 5170   0.251  10.539   4.517  0.2276  0.1620  0.6060
   62HK4     H2 5171   0.194  10.469   4.455 -1.1792 -0.5046  2.5831
   62HK4     C1 5172   0.337  10.494   4.617  0.2086 -0.4554  0.3489
   62HK4     H1 5173   0.349  10.387   4.638 -1.7600 -0.7383  0.0551
   62HK4     C6 5174   0.426  10.586   4.676  0.1333  0.0060 -0.2466
   62HK4     C5 5175   0.415  10.725   4.660 -0.0315  0.0421  0.1758
   62HK4    C10 5176   0.491  10.825   4.740  0.1910 -0.0295  0.0569
   62HK4     O1 5177   0.493  10.796   4.859  0.2734  0.5435  0.1980
   62HK4    C16 5178   0.526  10.510   4.753 -0.0333 -0.3304 -0.3615
   62HK4    C15 5179   0.658  10.558   4.760 -0.1053 -0.2161  0.2144
   62HK4     H7 5180   0.693  10.613   4.671 -0.1565 -1.1485 -0.3778
   62HK4    C20 5181   0.745  10.519   4.862 -0.0169  0.3993  0.3766
   62HK4     H9 5182   0.854  10.524   4.858  0.1047 -2.6864 -0.6684
   62HK4    C19 5183   0.697  10.439   4.965 -0.5081  0.1062 -0.0763
   62HK4    C18 5184   0.557  10.402   4.974 -0.3380 -0.7773 -0.9957
   62HK4    C17 5185   0.482  10.437   4.863 -0.8007  0.0348 -0.4259
   62HK4     H8 5186   0.377  10.407   4.859 -1.2145  1.2385  0.8485
   62HK4     N1 5187   0.537  10.310   5.079  0.0202  0.2221 -0.0455
   62HK4    C21 5188   0.665  10.274   5.127  0.0618  0.1420 -0.2138
   62HK4    C22 5189   0.763  10.364   5.070 -0.1550  0.5070 -0.0120
   62HK4    C26 5190   0.887  10.379   5.132 -0.1903  0.2104  0.1315
   62HK4    H13 5191   0.957  10.453   5.094 -0.2774  0.1945 -0.0589
   62HK4    C25 5192   0.910  10.304   5.247  0.1384  0.1172  0.0048
   62HK4    H12 5193   1.001  10.304   5.307  2.3874 -1.9881 -3.2358
   62HK4    C24 5194   0.821  10.211   5.300  0.8017 -0.7598 -0.4096
   62HK4    H11 5195   0.835  10.160   5.396 -0.0939  1.3950  0.9163
   62HK4    C23 5196   0.698  10.196   5.237  0.3580  0.7016  0.0942
   62HK4    H10 5197   0.625  10.121   5.269  2.0407 -0.2433  1.8386
   62HK4    C39 5198   0.418  10.315   5.152 -0.4567  0.2853 -0.8251
   62HK4    C41 5199   0.367  10.201   5.219  0.3536  0.3858 -0.0350
   62HK4    H21 5200   0.409  10.102   5.197 -1.7292 -0.2979 -1.0642
   62HK4    C42 5201   0.255  10.208   5.301  0.5959  0.1880  0.3135
   62HK4    H22 5202   0.208  10.123   5.351  1.1559 -1.0009 -1.1482
   62HK4    C43 5203   0.185  10.328   5.311  0.0996 -0.1081  0.3948
   62HK4    H23 5204   0.087  10.339   5.358 -0.1603  1.2482 -0.4459
   62HK4    C44 5205   0.233  10.442   5.248  0.0054 -0.0913  0.3569
   62HK4    H24 5206   0.178  10.534   5.270 -0.9329 -0.5667  0.0307
   62HK4    C45 5207   0.349  10.436   5.172 -0.1294  0.3220  0.1174
   62HK4    H25 5208   0.401  10.528   5.142  0.9901 -0.2100  0.4124
   63HK4    H28 5209   1.814   9.827   2.146  2.0313  1.7886  2.5082
   63HK4    C48 5210   1.856   9.880   2.061 -0.1885  0.2613  0.3889
   63HK4    C47 5211   1.988   9.922   2.074  0.2454 -0.7750 -0.6167
   63HK4    H27 5212   2.040   9.894   2.167 -1.2433 -0.4394  0.3284
   63HK4    C46 5213   2.051   9.992   1.972  0.3591 -0.1471 -0.1180
   63HK4    H26 5214   2.150  10.037   1.991  0.3100  0.3643 -1.0573
   63HK4    C40 5215   1.988  10.011   1.848 -0.4265  0.3011  0.3436
   63HK4    C50 5216   1.854   9.966   1.839 -0.5943  0.8513  0.0375
   63HK4    H30 5217   1.788   9.993   1.756  0.5514  0.2358 -1.0909
   63HK4    C49 5218   1.786   9.905   1.944  0.1922  0.1209  0.1317
   63HK4    H29 5219   1.683   9.867   1.941  0.4247 -0.6451  1.5841
   63HK4     N2 5220   2.051  10.086   1.747 -0.0806 -0.0706  0.2829
   63HK4    C30 5221   2.154  10.181   1.759 -0.4194  0.3532 -0.1444
   63HK4    C29 5222   2.224  10.237   1.865 -0.3349  0.5556 -0.3049
   63HK4    H15 5223   2.189  10.231   1.969  1.7771  1.3642  0.4621
   63HK4    C28 5224   2.336  10.317   1.849  0.1203  0.0150  0.1218
   63HK4    C27 5225   2.366  10.366   1.720 -0.9892  0.8711  0.1753
   63HK4    H14 5226   2.443  10.439   1.694  0.0598 -0.5660 -0.8441
   63HK4    C32 5227   2.296  10.318   1.610 -0.0022  0.2299 -0.1739
   63HK4    H16 5228   2.300  10.357   1.508 -0.6098 -0.5220 -0.4908
   63HK4    C31 5229   2.196  10.223   1.627  0.1489  0.0915 -0.0493
   63HK4    C34 5230   2.119  10.143   1.533  0.1551 -0.2675  0.2481
   63HK4    C33 5231   2.021  10.070   1.610  0.2108 -0.3386  0.2498
   63HK4    C35 5232   1.955   9.967   1.544  0.3239 -0.3792  0.1960
   63HK4    H17 5233   1.877   9.915   1.599 -0.5550  2.2552  1.5752
   63HK4    C36 5234   1.981   9.939   1.411 -0.2747  0.4441 -0.0975
   63HK4    H18 5235   1.917   9.877   1.346 -0.3524  1.5431 -1.0926
   63HK4    C37 5236   2.082  10.002   1.340  0.0074  0.0506 -0.0487
   63HK4    H19 5237   2.113   9.971   1.240 -1.8181 -2.0741 -0.0030
   63HK4    C38 5238   2.149  10.107   1.402 -0.2391  0.1560  0.0412
   63HK4    H20 5239   2.205  10.170   1.333 -0.9747 -1.8067 -2.4174
   63HK4    C14 5240   2.426  10.348   1.961  0.4464 -0.1230 -0.1025
   63HK4     C9 5241   2.510  10.460   1.968 -0.2102  0.3429  0.5152
   63HK4     C8 5242   2.627  10.460   2.046  0.3369  0.0899 -0.2966
   63HK4    C11 5243   2.655  10.348   2.124 -0.2751 -0.1173 -0.3753
   63HK4     H4 5244   2.737  10.343   2.197 -0.3615  1.6289 -0.1411
   63HK4    C12 5245   2.563  10.244   2.131 -0.1754 -0.1551  0.3859
   63HK4     H5 5246   2.574  10.168   2.210  1.9052 -1.2548 -0.9340
   63HK4    C13 5247   2.450  10.242   2.050  0.1331 -0.1425 -0.0411
   63HK4     H6 5248   2.383  10.156   2.061 -0.0104  0.0264  0.4080
   63HK4     C7 5249   2.731  10.561   2.015  0.1660  0.5365  0.5823
   63HK4     O2 5250   2.847  10.542   2.053  0.2381 -0.4982 -0.1407
   63HK4     C4 5251   2.707  10.661   1.909 -0.2785 -0.3781 -0.1821
   63HK4     C3 5252   2.811  10.717   1.835 -0.5907 -0.2834 -0.5493
   63HK4     H3 5253   2.917  10.694   1.850 -1.0033 -2.4526 -0.6621
   63HK4     C2 5254   2.787  10.820   1.745 -0.0706  0.0179 -0.3478
   63HK4     H2 5255   2.874  10.869   1.700 -0.0924 -0.2319 -0.6661
   63HK4     C1 5256   2.660  10.877   1.743 -0.0662  0.0248 -0.3109
   63HK4     H1 5257   2.639  10.955   1.669  0.1233  0.6471  0.2768
   63HK4     C6 5258   2.556  10.829   1.826  0.0782  0.3367  0.0549
   63HK4     C5 5259   2.575  10.707   1.891 -0.0937  0.1053 -0.3204
   63HK4    C10 5260   2.479  10.595   1.913  0.0271 -0.0601 -0.6350
   63HK4     O1 5261   2.360  10.624   1.925  0.1557  0.4388 -0.5398
   63HK4    C16 5262   2.435  10.912   1.829 -0.3932 -0.3403 -0.1526
   63HK4    C15 5263   2.369  10.923   1.953  0.7858  0.6431  0.3970
   63HK4     H7 5264   2.421  10.903   2.048 -0.6165  2.2129  1.5197
   63HK4    C20 5265   2.241  10.977   1.959  0.4590 -0.0989  0.1778
   63HK4     H9 5266   2.194  10.984   2.057 -0.6877 -1.6531 -0.2334
   63HK4    C19 5267   2.177  11.011   1.840  0.1583  0.2332  0.4359
   63HK4    C18 5268   2.240  10.986   1.712 -0.1796  0.4324  0.2299
   63HK4    C17 5269   2.372  10.943   1.708 -0.2832  0.1375 -0.0854
   63HK4     H8 5270   2.427  10.969   1.618 -0.6438  0.2801 -0.2650
   63HK4     N1 5271   2.153  11.005   1.603 -0.1566  0.3518  0.1979
   63HK4    C21 5272   2.040  11.066   1.661 -0.0639  0.7152 -0.0002
   63HK4    C22 5273   2.043  11.055   1.805  0.1005 -0.3549 -0.0795
   63HK4    C26 5274   1.935  11.100   1.880  0.1509 -0.1628 -0.1236
   63HK4    H13 5275   1.963  11.119   1.984 -1.0411  2.2619 -0.2318
   63HK4    C25 5276   1.817  11.140   1.820  0.0367  0.0402  0.2364
   63HK4    H12 5277   1.724  11.147   1.878  0.1540  1.0429  0.3228
   63HK4    C24 5278   1.812  11.146   1.682 -0.2089 -0.1062  0.2382
   63HK4    H11 5279   1.730  11.205   1.638  1.6104  2.2958 -0.0203
   63HK4    C23 5280   1.919  11.105   1.603 -0.4560 -0.3967  0.0501
   63HK4    H10 5281   1.906  11.098   1.495  0.4826 -0.2150 -0.0774
   63HK4    C39 5282   2.153  10.929   1.485 -0.7748  0.3426  0.2012
   63HK4    C41 5283   2.114  10.994   1.367 -0.6240 -0.2640 -0.1875
   63HK4    H21 5284   2.131  11.103   1.359 -1.8290 -0.0621 -0.0836
   63HK4    C42 5285   2.077  10.923   1.253 -0.2050  0.0244 -0.5081
   63HK4    H22 5286   2.032  10.983   1.172 -0.3969 -0.8809 -1.0759
   63HK4    C43 5287   2.076  10.784   1.253 -0.2196  0.0214 -0.6245
   63HK4    H23 5288   2.061  10.729   1.160  1.0899  0.3777 -1.0524
   63HK4    C44 5289   2.119  10.715   1.365 -0.2812  0.5689 -0.2678
   63HK4    H24 5290   2.113  10.606   1.375 -1.5087  0.4632 -1.9879
   63HK4    C45 5291   2.155  10.788   1.479 -0.5647  0.3567 -0.0416
   63HK4    H25 5292   2.179  10.728   1.568  1.4370  1.1404 -0.0350
   64HK4    H28 5293   5.828  10.416   1.084 -0.3509 -3.3584  0.4371
   64HK4    C48 5294   5.861  10.417   1.188 -0.2100 -0.3322  0.4174
   64HK4    C47 5295   5.844  10.308   1.274  0.0749 -0.5000  0.2642
   64HK4    H27 5296   5.843  10.206   1.232  1.3158 -1.0352  1.4971
   64HK4    C46 5297   5.865  10.324   1.410  0.1229 -0.2095  0.2245
   64HK4    H26 5298   5.883  10.228   1.461 -0.4645 -0.7685 -0.5972
   64HK4    C40 5299   5.916  10.445   1.462  0.3846 -0.0890 -0.3170
   64HK4    C50 5300   5.935  10.555   1.376 -0.3448  0.1198 -0.2137
   64HK4    H30 5301   5.977  10.650   1.413 -2.9024  1.2234 -0.0492
   64HK4    C49 5302   5.910  10.536   1.240  0.2346 -0.2078 -0.2772
   64HK4    H29 5303   5.933  10.621   1.174  3.9737  0.2223  1.4321
   64HK4     N2 5304   5.925  10.460   1.600 -0.1017  0.1863 -0.3128
   64HK4    C30 5305   5.852  10.389   1.698  0.6346 -0.3480 -0.1458
   64HK4    C29 5306   5.729  10.325   1.685  0.3665  0.0559  0.3842
   64HK4    H15 5307   5.676  10.343   1.592  3.9706 -0.1630 -1.8138
   64HK4    C28 5308   5.668  10.260   1.792  0.5692 -0.1380  0.3838
   64HK4    C27 5309   5.742  10.251   1.912 -0.0924  0.3990  0.8410
   64HK4    H14 5310   5.711  10.200   2.004  0.8817  0.7129  1.3479
   64HK4    C32 5311   5.860  10.323   1.929  0.2550 -0.0803  0.4852
   64HK4    H16 5312   5.913  10.322   2.024  1.1708  2.9717  0.0311
   64HK4    C31 5313   5.918  10.397   1.827 -0.1723 -0.0723  0.2497
   64HK4    C34 5314   6.033  10.484   1.816 -0.2795  0.0390 -0.0191
   64HK4    C33 5315   6.031  10.515   1.675  0.2393 -0.6414 -0.1781
   64HK4    C35 5316   6.154  10.563   1.630  0.0346  0.1921  0.1417
   64HK4    H17 5317   6.168  10.583   1.524  2.7935 -0.6356  0.3030
   64HK4    C36 5318   6.268  10.577   1.709  0.2162  0.3003 -0.1413
   64HK4    H18 5319   6.364  10.595   1.658 -0.9691 -1.0961 -2.9544
   64HK4    C37 5320   6.266  10.544   1.844 -0.0077  0.2289 -0.1618
   64HK4    H19 5321   6.357  10.531   1.902 -1.2578  1.2220  2.0968
   64HK4    C38 5322   6.146  10.498   1.897 -0.2078  0.6676 -0.2301
   64HK4    H20 5323   6.142  10.485   2.005 -1.0155  1.3826 -0.1659
   64HK4    C14 5324   5.524  10.234   1.788  0.5500  0.0729 -0.2206
   64HK4     C9 5325   5.439  10.227   1.899  0.0585  0.1613 -0.5878
   64HK4     C8 5326   5.344  10.123   1.912  0.4335 -0.0916  0.1133
   64HK4    C11 5327   5.316  10.050   1.797 -0.6573  0.4239  0.0498
   64HK4     H4 5328   5.252   9.960   1.798  0.5775 -0.4798 -0.1174
   64HK4    C12 5329   5.390  10.069   1.681 -0.2898  0.2534  0.2535
   64HK4     H5 5330   5.378   9.994   1.602 -1.6244  1.1802 -0.4450
   64HK4    C13 5331   5.491  10.164   1.670 -0.2643  0.1892 -0.0637
   64HK4     H6 5332   5.536  10.170   1.570  2.6229  0.2664  1.2102
   64HK4     C7 5333   5.277  10.099   2.042 -0.0387 -0.3585 -0.1810
   64HK4     O2 5334   5.166  10.047   2.049 -0.2543  0.2013  0.6138
   64HK4     C4 5335   5.319  10.177   2.160  0.0368  0.0124 -0.4532
   64HK4     C3 5336   5.268  10.140   2.284 -0.3140  0.6508 -0.4020
   64HK4     H3 5337   5.192  10.061   2.297  1.6136 -1.1303  0.3979
   64HK4     C2 5338   5.298  10.215   2.397  0.1922  0.3633 -0.3445
   64HK4     H2 5339   5.271  10.177   2.496  1.3605 -0.4602 -0.3409
   64HK4     C1 5340   5.386  10.322   2.382 -0.3030  0.8917  0.4242
   64HK4     H1 5341   5.395  10.380   2.475 -1.4652  1.3843  0.2253
   64HK4     C6 5342   5.454  10.356   2.263 -0.3434 -0.4743  0.0007
   64HK4     C5 5343   5.404  10.290   2.150  0.3982 -0.2603 -0.4579
   64HK4    C10 5344   5.453  10.321   2.013 -0.0663  0.1190 -0.5378
   64HK4     O1 5345   5.478  10.439   1.990  0.1053 -0.0180 -1.0531
   64HK4    C16 5346   5.597  10.387   2.277 -0.4881  0.2102 -0.0141
   64HK4    C15 5347   5.671  10.311   2.369 -0.4297  0.2362 -0.0404
   64HK4     H7 5348   5.628  10.224   2.422 -1.1464  0.1304 -0.7897
   64HK4    C20 5349   5.801  10.352   2.399 -0.3267 -0.0134 -0.1586
   64HK4     H9 5350   5.853  10.308   2.484 -1.8728 -0.7304  0.4398
   64HK4    C19 5351   5.861  10.460   2.335  0.2496 -0.0044  0.3951
   64HK4    C18 5352   5.780  10.546   2.252  0.5124 -0.4636 -0.3352
   64HK4    C17 5353   5.651  10.502   2.222  0.2255 -0.0094  0.2295
   64HK4     H8 5354   5.588  10.574   2.170  0.7740  3.0606  3.5515
   64HK4     N1 5355   5.847  10.667   2.225 -0.0276 -0.0414  0.2118
   64HK4    C21 5356   5.972  10.661   2.289  0.2542  0.0795 -0.3222
   64HK4    C22 5357   5.978  10.539   2.368  0.0751  0.3615  0.1340
   64HK4    C26 5358   6.073  10.534   2.469 -0.0320  0.4683  0.2389
   64HK4    H13 5359   6.046  10.476   2.558 -1.4296  0.7903  0.0393
   64HK4    C25 5360   6.170  10.632   2.486  0.0349  0.4043  0.2123
   64HK4    H12 5361   6.239  10.629   2.570 -0.1935 -0.7888  0.3606
   64HK4    C24 5362   6.170  10.743   2.402  0.0558  0.1207 -0.1671
   64HK4    H11 5363   6.237  10.828   2.422  0.8928 -1.3071  3.6546
   64HK4    C23 5364   6.073  10.756   2.303  0.0477  0.2749 -0.1397
   64HK4    H10 5365   6.075  10.833   2.226  0.6774  0.8006  0.3977
   64HK4    C39 5366   5.806  10.757   2.126  0.6095 -0.0777 -0.0833
   64HK4    C41 5367   5.850  10.891   2.140 -0.1984  0.1870 -0.0433
   64HK4    H21 5368   5.829  10.942   2.235  2.1061  0.4896  0.3353
   64HK4    C42 5369   5.879  10.968   2.028  0.2768 -0.0882 -0.1137
   64HK4    H22 5370   5.926  11.067   2.040  0.4522  0.0765 -2.0461
   64HK4    C43 5371   5.857  10.915   1.902 -0.2415  0.0008 -0.0627
   64HK4    H23 5372   5.877  10.976   1.813  0.5681 -0.6807 -0.3556
   64HK4    C44 5373   5.808  10.787   1.882  0.6007 -0.2612 -0.4889
   64HK4    H24 5374   5.791  10.740   1.784  0.4697  1.2748 -1.2122
   64HK4    C45 5375   5.783  10.710   1.995  0.3749  0.2832 -0.1709
   64HK4    H25 5376   5.733  10.613   1.985 -0.9851  0.7728  1.6626
   65HK4    H28 5377   9.153   5.012   4.279  0.4134 -0.2675 -0.2761
   65HK4    C48 5378   9.246   5.065   4.300  0.0522  0.1704  0.2229
   65HK4    C47 5379   9.314   5.036   4.418 -0.2272 -0.0520  0.3312
   65HK4    H27 5380   9.275   4.961   4.489 -1.7929  0.7036  0.2900
   65HK4    C46 5381   9.415   5.118   4.466 -0.2133  0.0410  0.1446
   65HK4    H26 5382   9.478   5.087   4.551 -0.1028 -0.3057 -0.0616
   65HK4    C40 5383   9.459   5.228   4.391  0.5094 -0.4083 -0.0882
   65HK4    C50 5384   9.382   5.257   4.276 -0.4101 -0.6035  0.4769
   65HK4    H30 5385   9.392   5.355   4.228  0.3064 -0.4588  0.9176
   65HK4    C49 5386   9.273   5.183   4.232 -0.9102  0.3391  0.1293
   65HK4    H29 5387   9.196   5.227   4.168 -1.7929  1.7074  2.0715
   65HK4     N2 5388   9.543   5.322   4.451  0.4865 -0.1603 -0.4417
   65HK4    C30 5389   9.640   5.399   4.383  0.4672  0.3955  0.1484
   65HK4    C29 5390   9.687   5.379   4.254 -0.3539  0.6175 -0.1947
   65HK4    H15 5391   9.628   5.326   4.179 -2.3842  2.1134  0.3300
   65HK4    C28 5392   9.807   5.438   4.216  0.2052 -0.3872 -0.0154
   65HK4    C27 5393   9.864   5.531   4.306 -0.0811 -0.1898 -0.0366
   65HK4    H14 5394   9.961   5.577   4.281  0.9600 -1.8152  0.9023
   65HK4    C32 5395   9.813   5.563   4.431  0.3794  0.2117  0.0520
   65HK4    H16 5396   9.876   5.614   4.502 -0.9992  2.1516 -0.0811
   65HK4    C31 5397   9.689   5.508   4.464  0.5288  0.1320  0.4647
   65HK4    C34 5398   9.596   5.521   4.574 -0.5404  0.1230 -0.4340
   65HK4    C33 5399   9.518   5.399   4.567 -0.1229 -0.1364 -0.5905
   65HK4    C35 5400   9.420   5.384   4.665  0.7332  0.6653  0.3914
   65HK4    H17 5401   9.374   5.286   4.678  0.8098  0.6668  0.6716
   65HK4    C36 5402   9.394   5.487   4.755 -0.8341  0.3400  0.3267
   65HK4    H18 5403   9.344   5.454   4.847 -0.6310 -0.1746  0.2543
   65HK4    C37 5404   9.473   5.601   4.761  0.1734 -0.3426  0.2243
   65HK4    H19 5405   9.433   5.678   4.826 -0.4327 -1.0675  0.7187
   65HK4    C38 5406   9.580   5.617   4.674  0.3433 -0.5756  0.3896
   65HK4    H20 5407   9.631   5.713   4.669  2.5309 -1.7823 -2.1132
   65HK4    C14 5408   9.890   5.378   4.110  0.2321 -0.2350 -0.0779
   65HK4     C9 5409  10.028   5.356   4.123  0.2462  0.0780  0.3210
   65HK4     C8 5410  10.112   5.354   4.011 -0.0086 -0.2292  0.1360
   65HK4    C11 5411  10.055   5.362   3.884  0.0130 -0.2146  0.1273
   65HK4     H4 5412  10.119   5.376   3.796 -0.9269 -0.4718 -0.6075
   65HK4    C12 5413   9.917   5.379   3.873  0.1357  1.0391  0.4682
   65HK4     H5 5414   9.871   5.385   3.773 -1.2836  0.4289  1.0759
   65HK4    C13 5415   9.832   5.386   3.982 -0.3363 -0.1851  0.1822
   65HK4     H6 5416   9.726   5.408   3.962 -0.0428  1.4505  0.3437
   65HK4     C7 5417  10.258   5.336   4.032  0.0179 -0.4043 -0.1874
   65HK4     O2 5418  10.331   5.328   3.934  0.0439 -0.0759 -0.1959
   65HK4     C4 5419  10.324   5.348   4.164 -0.0642 -0.3797 -0.1490
   65HK4     C3 5420  10.462   5.348   4.171 -0.0687  0.8763  0.2914
   65HK4     H3 5421  10.515   5.288   4.095  0.2782 -0.4293  1.5452
   65HK4     C2 5422  10.523   5.388   4.289  0.8372 -0.2641  0.2291
   65HK4     H2 5423  10.632   5.388   4.306  0.8276 -0.3702  0.2888
   65HK4     C1 5424  10.435   5.427   4.389 -0.1236 -1.2418 -0.2173
   65HK4     H1 5425  10.473   5.442   4.492 -1.0747 -1.5150  0.1847
   65HK4     C6 5426  10.294   5.423   4.390 -0.1435 -0.6679  0.5325
   65HK4     C5 5427  10.237   5.370   4.273  0.3610 -0.5419  0.2207
   65HK4    C10 5428  10.091   5.343   4.258  0.3364 -0.4209  0.2305
   65HK4     O1 5429  10.032   5.270   4.337 -0.7196  0.0416 -0.1129
   65HK4    C16 5430  10.218   5.507   4.482  0.1154  0.0580  0.0846
   65HK4    C15 5431  10.276   5.625   4.536  0.2675 -0.1853  0.4600
   65HK4     H7 5432  10.359   5.671   4.480  1.0348 -1.4078  0.5709
   65HK4    C20 5433  10.229   5.684   4.652 -0.0950  0.1595  0.1416
   65HK4     H9 5434  10.275   5.773   4.696  0.6404  0.2356 -0.7729
   65HK4    C19 5435  10.133   5.622   4.732 -0.1457  0.3581  0.2373
   65HK4    C18 5436  10.078   5.495   4.688  0.3045  0.2271  0.0484
   65HK4    C17 5437  10.121   5.450   4.564 -0.0422  0.1434 -0.0418
   65HK4     H8 5438  10.081   5.351   4.543  0.0263  0.3843 -1.3347
   65HK4     N1 5439   9.988   5.441   4.783 -0.4268  0.5295 -0.4637
   65HK4    C21 5440   9.984   5.537   4.886 -0.4946 -0.2190  0.2275
   65HK4    C22 5441  10.070   5.650   4.859 -0.4029 -0.2832  0.2538
   65HK4    C26 5442  10.090   5.758   4.945 -0.3467  0.1881 -0.3450
   65HK4    H13 5443  10.165   5.836   4.936  1.6705 -1.5860  0.5787
   65HK4    C25 5444  10.022   5.760   5.067 -0.0820  0.2314 -0.1969
   65HK4    H12 5445  10.039   5.840   5.138  1.4013  0.4486 -0.7660
   65HK4    C24 5446   9.940   5.651   5.093  0.5809 -0.3824 -0.6446
   65HK4    H11 5447   9.875   5.665   5.180  1.9164  2.2441 -0.0392
   65HK4    C23 5448   9.925   5.538   5.012 -0.2800 -0.9821  0.3405
   65HK4    H10 5449   9.875   5.446   5.042 -0.0807 -1.6780 -1.4275
   65HK4    C39 5450   9.944   5.309   4.794 -0.2686  0.5046 -0.1004
   65HK4    C41 5451  10.009   5.192   4.751 -0.1138  0.4450  0.3039
   65HK4    H21 5452  10.114   5.207   4.723  0.0465  1.2026  1.2727
   65HK4    C42 5453   9.950   5.066   4.754  0.4504  0.1746  0.0195
   65HK4    H22 5454  10.003   4.977   4.716  1.0122  0.4967  0.0506
   65HK4    C43 5455   9.819   5.050   4.796  0.4045  0.3148 -0.0512
   65HK4    H23 5456   9.776   4.950   4.809  1.7891 -0.2539  0.1647
   65HK4    C44 5457   9.750   5.163   4.838  0.4076  0.0993  0.5239
   65HK4    H24 5458   9.647   5.147   4.873  1.1121 -0.5282  2.3648
   65HK4    C45 5459   9.811   5.288   4.837 -0.1898  0.3874  0.0898
   65HK4    H25 5460   9.755   5.372   4.880  0.1145  0.5858  0.0939
   66HK4    H28 5461   4.667   1.373   7.609 -0.7459  2.8387  2.9791
   66HK4    C48 5462   4.567   1.330   7.621  0.1392 -0.4079 -0.3458
   66HK4    C47 5463   4.463   1.396   7.558  0.2138  0.0890  0.0513
   66HK4    H27 5464   4.482   1.495   7.515  1.1955 -0.5350 -0.9734
   66HK4    C46 5465   4.333   1.351   7.577  0.2954 -0.1905 -0.0583
   66HK4    H26 5466   4.242   1.396   7.534  0.0590  1.3409  1.9908
   66HK4    C40 5467   4.305   1.231   7.647 -0.2590  0.0560  0.1447
   66HK4    C50 5468   4.417   1.161   7.697  0.0151  0.0690 -0.4416
   66HK4    H30 5469   4.390   1.058   7.723 -2.1569  0.6807 -0.1278
   66HK4    C49 5470   4.547   1.210   7.690  0.0932 -0.0275  0.3035
   66HK4    H29 5471   4.625   1.143   7.727 -0.1741 -0.1658  0.6123
   66HK4     N2 5472   4.181   1.167   7.651 -0.1419 -0.2208 -0.5527
   66HK4    C30 5473   4.091   1.184   7.543 -0.2162 -0.2653 -0.4968
   66HK4    C29 5474   4.117   1.163   7.408  0.0282 -0.6150 -0.3977
   66HK4    H15 5475   4.220   1.171   7.374 -0.6844  2.3863 -2.0938
   66HK4    C28 5476   4.020   1.138   7.312  0.1073  0.1893 -0.6902
   66HK4    C27 5477   3.886   1.145   7.358  0.2500 -0.0934 -0.2316
   66HK4    H14 5478   3.806   1.139   7.283  0.1376 -0.2312 -0.0998
   66HK4    C32 5479   3.856   1.169   7.491 -0.1518 -0.4050 -0.2668
   66HK4    H16 5480   3.750   1.174   7.515 -0.2993  2.5150 -1.3329
   66HK4    C31 5481   3.953   1.185   7.589 -0.1399 -0.4935 -0.2630
   66HK4    C34 5482   3.963   1.167   7.733 -0.1212 -0.1951 -0.2270
   66HK4    C33 5483   4.102   1.140   7.764 -0.0758 -0.3097 -0.5271
   66HK4    C35 5484   4.137   1.110   7.895 -0.5223 -0.6342 -0.4806
   66HK4    H17 5485   4.242   1.099   7.919 -0.7790 -1.5333  0.2922
   66HK4    C36 5486   4.039   1.110   7.995  0.0838 -0.2587  0.1208
   66HK4    H18 5487   4.055   1.084   8.101 -1.2075 -0.7602  0.1926
   66HK4    C37 5488   3.904   1.127   7.968  0.0805  0.1669  0.4207
   66HK4    H19 5489   3.829   1.154   8.043 -1.4290  0.5275 -1.1786
   66HK4    C38 5490   3.871   1.155   7.836  0.3197 -1.3930  0.0263
   66HK4    H20 5491   3.767   1.149   7.802  0.3931  1.2355 -0.7082
   66HK4    C14 5492   4.054   1.150   7.170  0.5022  1.1176 -0.5256
   66HK4     C9 5493   3.969   1.202   7.071 -0.3064  0.0566 -0.3950
   66HK4     C8 5494   3.980   1.159   6.937  0.4373  0.7813 -0.5684
   66HK4    C11 5495   4.084   1.077   6.896  0.1695  0.1514  0.0061
   66HK4     H4 5496   4.096   1.062   6.788 -0.2663  1.8245 -0.2846
   66HK4    C12 5497   4.170   1.027   6.993  0.1590  0.5516  0.2232
   66HK4     H5 5498   4.229   0.936   6.970 -0.4228  0.6914 -1.9840
   66HK4    C13 5499   4.156   1.063   7.126  0.2363  0.3984  0.2735
   66HK4     H6 5500   4.222   1.012   7.198  0.1851 -1.2430 -0.7983
   66HK4     C7 5501   3.863   1.188   6.852 -0.5029 -0.1208  0.4051
   66HK4     O2 5502   3.863   1.161   6.732 -0.0232  0.6346  0.2316
   66HK4     C4 5503   3.757   1.277   6.905 -0.3781  0.0989  0.2863
   66HK4     C3 5504   3.649   1.308   6.823  0.1016  0.4028 -0.2318
   66HK4     H3 5505   3.637   1.263   6.723  0.8170 -1.7492  0.6153
   66HK4     C2 5506   3.561   1.411   6.852 -0.3460  0.0061 -0.1704
   66HK4     H2 5507   3.521   1.459   6.761  0.5359  1.4586  0.1946
   66HK4     C1 5508   3.581   1.482   6.970 -0.3614 -0.3887  0.0691
   66HK4     H1 5509   3.505   1.555   7.003  0.6667  0.5537  0.3772
   66HK4     C6 5510   3.688   1.458   7.059 -0.0493  0.0888 -0.1755
   66HK4     C5 5511   3.775   1.355   7.021  0.0031 -0.0540  0.3307
   66HK4    C10 5512   3.901   1.331   7.098  0.1122  0.1536  0.2163
   66HK4     O1 5513   3.970   1.423   7.141 -0.5108  0.2214  1.0976
   66HK4    C16 5514   3.688   1.535   7.184 -0.1414 -0.2115  0.0135
   66HK4    C15 5515   3.733   1.484   7.307 -0.2734 -0.5339 -0.0726
   66HK4     H7 5516   3.732   1.374   7.315 -3.9314 -0.7279 -2.0360
   66HK4    C20 5517   3.746   1.556   7.424 -0.3953 -0.3362 -0.1814
   66HK4     H9 5518   3.801   1.515   7.509 -0.3262 -1.7455 -0.9070
   66HK4    C19 5519   3.713   1.691   7.423  0.0406 -0.2223  0.3591
   66HK4    C18 5520   3.666   1.752   7.300  0.1651 -0.5158  0.1676
   66HK4    C17 5521   3.657   1.671   7.187  0.3336 -0.0989 -0.1462
   66HK4     H8 5522   3.645   1.724   7.093  0.5370  1.6211  0.7704
   66HK4     N1 5523   3.625   1.886   7.316 -0.2496 -0.5940 -0.2108
   66HK4    C21 5524   3.641   1.912   7.454  0.6119  0.3544 -0.4865
   66HK4    C22 5525   3.694   1.796   7.522  0.1597  0.3213 -0.1886
   66HK4    C26 5526   3.738   1.808   7.654 -0.0091 -0.9358 -0.0131
   66HK4    H13 5527   3.739   1.722   7.721 -2.1956  0.4882  1.8869
   66HK4    C25 5528   3.735   1.932   7.716  0.2908 -0.7337 -0.3967
   66HK4    H12 5529   3.786   1.936   7.812 -0.3562 -1.0446 -0.0344
   66HK4    C24 5530   3.682   2.046   7.658 -0.1527 -0.6166  0.2315
   66HK4    H11 5531   3.696   2.138   7.716  0.4020 -0.3679 -0.2901
   66HK4    C23 5532   3.636   2.030   7.528  0.1236 -0.0040  0.0551
   66HK4    H10 5533   3.602   2.119   7.475  0.1460 -0.4865 -0.7919
   66HK4    C39 5534   3.572   1.976   7.223 -0.2162 -0.2764  0.0760
   66HK4    C41 5535   3.489   2.081   7.267 -0.6141 -0.1653 -0.9182
   66HK4    H21 5536   3.407   2.046   7.332  0.3881 -4.4089 -1.7697
   66HK4    C42 5537   3.479   2.200   7.196  0.6173  0.7952  0.4672
   66HK4    H22 5538   3.397   2.269   7.218  0.0957  0.3774 -0.1116
   66HK4    C43 5539   3.544   2.210   7.073 -0.0841 -0.1605  0.0030
   66HK4    H23 5540   3.521   2.294   7.007  0.2218  1.3623  1.7686
   66HK4    C44 5541   3.627   2.109   7.027 -0.2300 -0.4416  0.3558
   66HK4    H24 5542   3.690   2.131   6.939  1.8332 -1.8901  1.4314
   66HK4    C45 5543   3.638   1.991   7.099  0.8071 -0.1780  0.6306
   66HK4    H25 5544   3.720   1.922   7.073  0.9842 -0.5041  1.9700
   67HK4    H28 5545   4.429   2.708   6.418  1.5138 -0.8779 -1.6305
   67HK4    C48 5546   4.370   2.617   6.431 -0.4220  0.5553 -0.1473
   67HK4    C47 5547   4.377   2.508   6.346 -0.1445  0.0464  0.5223
   67HK4    H27 5548   4.438   2.516   6.255 -0.4507 -0.0482  0.3053
   67HK4    C46 5549   4.282   2.407   6.355 -0.5275  0.2905 -0.6237
   67HK4    H26 5550   4.289   2.335   6.272  2.6835 -0.3641  0.1200
   67HK4    C40 5551   4.172   2.412   6.443  0.1769 -0.0055  0.2846
   67HK4    C50 5552   4.161   2.531   6.517 -0.2657 -0.0098  0.2289
   67HK4    H30 5553   4.063   2.557   6.559 -0.2595  0.9765 -0.3549
   67HK4    C49 5554   4.261   2.629   6.516 -0.5274  0.2539 -0.2459
   67HK4    H29 5555   4.262   2.695   6.603 -3.0498  1.8807 -1.3783
   67HK4     N2 5556   4.071   2.315   6.439  0.1452  0.0461 -0.1733
   67HK4    C30 5557   4.061   2.215   6.340 -0.2801 -0.3148  0.2347
   67HK4    C29 5558   4.071   2.224   6.202  0.4929 -0.3997  0.2825
   67HK4    H15 5559   4.077   2.327   6.166  2.1030 -0.0489  1.4739
   67HK4    C28 5560   4.046   2.125   6.108  0.3962  0.1357 -0.2614
   67HK4    C27 5561   3.995   2.006   6.164  0.8078 -0.2024 -0.6023
   67HK4    H14 5562   3.962   1.929   6.092 -0.3385  0.0616 -0.3619
   67HK4    C32 5563   3.983   1.990   6.302  0.6146  0.0489 -0.5899
   67HK4    H16 5564   3.953   1.892   6.339 -0.3807  0.9834  1.1357
   67HK4    C31 5565   4.020   2.087   6.395 -0.6084 -0.2280  0.1963
   67HK4    C34 5566   4.000   2.111   6.537  0.5035 -0.0998  0.3368
   67HK4    C33 5567   4.027   2.252   6.557 -0.1992  0.1236 -0.2594
   67HK4    C35 5568   4.001   2.304   6.683 -0.4926  0.2538 -0.3740
   67HK4    H17 5569   4.049   2.398   6.711  1.6327 -1.0196  0.3739
   67HK4    C36 5570   3.951   2.220   6.782  0.8407 -0.4630 -0.2932
   67HK4    H18 5571   3.936   2.262   6.883 -1.3258 -2.8920  0.4497
   67HK4    C37 5572   3.925   2.085   6.760 -0.1869 -0.2920 -0.1620
   67HK4    H19 5573   3.920   2.020   6.847  0.9962  0.3973  0.4454
   67HK4    C38 5574   3.945   2.029   6.635  0.3494 -0.4284 -0.0196
   67HK4    H20 5575   3.934   1.922   6.618 -0.5032 -0.4139  0.4339
   67HK4    C14 5576   4.034   2.154   5.965 -0.3018 -0.2577 -0.2901
   67HK4     C9 5577   3.933   2.105   5.882 -0.0642 -0.3909 -0.5042
   67HK4     C8 5578   3.952   2.100   5.743  0.3914 -0.6095 -0.4347
   67HK4    C11 5579   4.075   2.139   5.690  0.3674 -0.4446 -0.3715
   67HK4     H4 5580   4.076   2.173   5.585 -1.5120 -2.1896 -0.9864
   67HK4    C12 5581   4.179   2.184   5.769 -0.5475  0.3416  0.3930
   67HK4     H5 5582   4.280   2.204   5.730 -0.2129 -2.4442 -0.2027
   67HK4    C13 5583   4.158   2.190   5.906 -0.2646  0.7933  0.4214
   67HK4     H6 5584   4.239   2.209   5.978 -1.5031  1.7214  1.5827
   67HK4     C7 5585   3.848   2.044   5.653 -0.2407 -0.2582  0.0763
   67HK4     O2 5586   3.826   2.114   5.555  0.5496 -0.4417 -0.2366
   67HK4     C4 5587   3.746   1.954   5.712 -0.0255 -0.4306  0.1864
   67HK4     C3 5588   3.685   1.863   5.625 -0.4042  0.0306 -0.0336
   67HK4     H3 5589   3.697   1.873   5.517 -0.6765 -3.2402 -0.4165
   67HK4     C2 5590   3.608   1.767   5.689  0.1561 -0.4980 -0.1436
   67HK4     H2 5591   3.542   1.693   5.641 -1.4299 -0.0059  1.2143
   67HK4     C1 5592   3.586   1.762   5.826  0.1346 -0.0698 -0.1301
   67HK4     H1 5593   3.522   1.683   5.867  2.5669 -2.3838 -0.6995
   67HK4     C6 5594   3.645   1.856   5.913  0.2484 -0.3870  0.1380
   67HK4     C5 5595   3.723   1.955   5.851 -0.3421  0.0736  0.1291
   67HK4    C10 5596   3.803   2.051   5.932  0.1510 -0.3320  0.1286
   67HK4     O1 5597   3.752   2.129   6.012  0.3026 -0.1752  0.0726
   67HK4    C16 5598   3.675   1.808   6.048  0.0485 -0.0607  0.3006
   67HK4    C15 5599   3.737   1.682   6.064 -0.2112 -0.1583  0.5308
   67HK4     H7 5600   3.749   1.613   5.979 -1.7988 -0.0782  0.2218
   67HK4    C20 5601   3.780   1.640   6.190  0.1817 -0.4444  0.3013
   67HK4     H9 5602   3.827   1.541   6.193 -0.4156 -0.7573 -0.4293
   67HK4    C19 5603   3.754   1.717   6.302  0.1248  0.1198 -0.0990
   67HK4    C18 5604   3.668   1.833   6.289 -0.1934 -0.1072 -0.0143
   67HK4    C17 5605   3.633   1.875   6.162 -0.2093  0.1547  0.0771
   67HK4     H8 5606   3.557   1.952   6.148 -0.2129  0.3683  1.2168
   67HK4     N1 5607   3.641   1.892   6.414 -0.1370  0.2739 -0.1824
   67HK4    C21 5608   3.701   1.807   6.509 -0.2511  0.3366 -0.0540
   67HK4    C22 5609   3.779   1.704   6.444 -0.1081  0.4277 -0.0277
   67HK4    C26 5610   3.843   1.608   6.522  0.0296  0.3911 -0.1853
   67HK4    H13 5611   3.902   1.528   6.477  1.1307  0.6778  0.7228
   67HK4    C25 5612   3.840   1.619   6.661  0.1074 -0.1727 -0.1373
   67HK4    H12 5613   3.897   1.549   6.722  0.5452 -0.1120 -0.4713
   67HK4    C24 5614   3.765   1.718   6.724 -0.1218 -0.1504 -0.4450
   67HK4    H11 5615   3.765   1.722   6.834 -1.3799 -1.3416 -0.3820
   67HK4    C23 5616   3.687   1.804   6.648  0.0967  0.4343 -0.0138
   67HK4    H10 5617   3.604   1.857   6.694  0.2532  1.6371 -1.1014
   67HK4    C39 5618   3.609   2.028   6.426  0.0307  0.3046 -0.0803
   67HK4    C41 5619   3.531   2.073   6.535  0.0394  0.2998 -0.0717
   67HK4    H21 5620   3.471   2.001   6.592  0.2281 -1.2894 -1.8342
   67HK4    C42 5621   3.523   2.208   6.564  0.0390  0.2170  0.3115
   67HK4    H22 5622   3.433   2.229   6.624 -0.9921 -0.7627 -0.8874
   67HK4    C43 5623   3.587   2.307   6.490 -0.5736 -0.0444 -0.5740
   67HK4    H23 5624   3.566   2.411   6.515  1.4767  0.1083  0.6835
   67HK4    C44 5625   3.670   2.264   6.387  0.3400  0.1250  0.0848
   67HK4    H24 5626   3.757   2.326   6.360  0.2106  1.0288  1.6879
   67HK4    C45 5627   3.671   2.130   6.351 -0.2699  0.2530 -0.3984
   67HK4    H25 5628   3.722   2.108   6.256 -1.2544 -0.1681 -0.8441
   68HK4    H28 5629   4.803   2.065   5.614 -0.2416  1.2311  0.2982
   68HK4    C48 5630   4.702   2.023   5.616  0.1216  0.3514  0.1752
   68HK4    C47 5631   4.675   1.916   5.701  0.2008  0.1290 -0.0783
   68HK4    H27 5632   4.756   1.869   5.758 -0.9386 -1.3218  0.3732
   68HK4    C46 5633   4.545   1.871   5.722  0.0827  0.7370  0.5296
   68HK4    H26 5634   4.531   1.787   5.792 -0.6461  0.2016 -0.2504
   68HK4    C40 5635   4.435   1.918   5.648  0.2106 -0.4656 -0.4315
   68HK4    C50 5636   4.465   2.030   5.568 -0.5722  0.1643  0.1592
   68HK4    H30 5637   4.389   2.079   5.505 -0.2334  0.0790 -0.3177
   68HK4    C49 5638   4.593   2.083   5.555 -0.4213 -0.0593  0.7353
   68HK4    H29 5639   4.622   2.162   5.484  2.3789 -0.7632  1.0308
   68HK4     N2 5640   4.308   1.874   5.686  0.1982  0.1211  0.1953
   68HK4    C30 5641   4.261   1.825   5.810 -0.0171 -0.2127 -0.0180
   68HK4    C29 5642   4.305   1.860   5.937 -0.1095 -0.3713  0.0591
   68HK4    H15 5643   4.391   1.927   5.945 -1.8481  2.2080 -1.8960
   68HK4    C28 5644   4.248   1.806   6.051 -0.3098  0.1230  0.1963
   68HK4    C27 5645   4.141   1.714   6.037 -0.1004 -0.1208  0.1923
   68HK4    H14 5646   4.097   1.652   6.117  0.6594  1.6432  2.0405
   68HK4    C32 5647   4.084   1.687   5.914 -0.0160  0.3845  0.0398
   68HK4    H16 5648   3.997   1.623   5.899  1.8135 -2.1721 -0.0855
   68HK4    C31 5649   4.140   1.746   5.801 -0.1256 -0.0231 -0.2288
   68HK4    C34 5650   4.108   1.753   5.660  0.3261  0.3660 -0.3114
   68HK4    C33 5651   4.206   1.839   5.596  0.6547  0.0176 -0.2820
   68HK4    C35 5652   4.179   1.873   5.464 -0.0981  0.2708 -0.0661
   68HK4    H17 5653   4.247   1.936   5.407 -0.2518 -0.8901 -1.5725
   68HK4    C36 5654   4.064   1.831   5.397 -0.1378  0.1426  0.0804
   68HK4    H18 5655   4.048   1.857   5.291  3.0188 -0.5361 -0.6172
   68HK4    C37 5656   3.974   1.745   5.458 -0.2990  0.0764 -0.2551
   68HK4    H19 5657   3.878   1.721   5.412 -0.2172  0.9893 -0.9188
   68HK4    C38 5658   3.997   1.708   5.589  0.2996  0.3738 -0.2753
   68HK4    H20 5659   3.912   1.662   5.640  1.0952 -1.7529 -0.7982
   68HK4    C14 5660   4.312   1.831   6.181 -0.5071  0.1418  0.2921
   68HK4     C9 5661   4.289   1.756   6.296  0.0219 -0.1153  0.2320
   68HK4     C8 5662   4.278   1.819   6.422 -0.3894 -0.0754  0.1781
   68HK4    C11 5663   4.313   1.954   6.431  0.1980 -0.2030 -0.2388
   68HK4     H4 5664   4.332   2.005   6.526 -3.2790  1.1999 -0.2532
   68HK4    C12 5665   4.351   2.027   6.319  0.1885 -0.1240 -0.1896
   68HK4     H5 5666   4.372   2.134   6.331  1.9152 -0.5282  0.4757
   68HK4    C13 5667   4.340   1.969   6.193  0.3381  0.0242 -0.2718
   68HK4     H6 5668   4.336   2.040   6.108  0.2762 -0.3542 -0.5885
   68HK4     C7 5669   4.249   1.738   6.542  1.0083 -0.2326  0.4101
   68HK4     O2 5670   4.216   1.788   6.649 -0.0870 -0.1213  0.0242
   68HK4     C4 5671   4.231   1.592   6.523  0.2140 -0.1112  0.2024
   68HK4     C3 5672   4.176   1.516   6.626 -0.4142 -0.5210 -0.4387
   68HK4     H3 5673   4.105   1.555   6.700 -2.2483  0.1834 -2.5170
   68HK4     C2 5674   4.198   1.379   6.639 -0.1112 -0.4649 -0.3603
   68HK4     H2 5675   4.126   1.330   6.706  0.8213 -1.9293 -0.4130
   68HK4     C1 5676   4.281   1.325   6.541  0.3028 -0.1419 -0.1884
   68HK4     H1 5677   4.321   1.223   6.553  2.1146  0.3686 -1.5281
   68HK4     C6 5678   4.340   1.394   6.433  0.1577 -0.1367 -0.2625
   68HK4     C5 5679   4.308   1.530   6.422  0.0182 -0.1418  0.0688
   68HK4    C10 5680   4.315   1.610   6.296  0.1653 -0.0894  0.1109
   68HK4     O1 5681   4.321   1.548   6.190  0.0375 -0.2589  0.2016
   68HK4    C16 5682   4.415   1.311   6.339 -0.1063  0.2420 -0.8100
   68HK4    C15 5683   4.399   1.171   6.331 -0.0862  0.1973 -0.1077
   68HK4     H7 5684   4.309   1.129   6.378 -0.1284 -0.4135 -0.7277
   68HK4    C20 5685   4.489   1.087   6.268 -0.2044 -0.1295  0.1608
   68HK4     H9 5686   4.470   0.980   6.254 -0.0424 -0.3350  1.4635
   68HK4    C19 5687   4.605   1.139   6.212 -0.2987 -0.1180 -0.0293
   68HK4    C18 5688   4.628   1.282   6.223  0.2321 -0.2253  0.3018
   68HK4    C17 5689   4.530   1.363   6.280  0.1419  0.1618 -0.3947
   68HK4     H8 5690   4.556   1.465   6.308  3.2719 -0.3144 -1.3191
   68HK4     N1 5691   4.755   1.309   6.168  0.0648 -0.1476 -0.0479
   68HK4    C21 5692   4.809   1.189   6.118 -0.1619 -0.1974 -0.1745
   68HK4    C22 5693   4.711   1.083   6.131 -0.5180  0.0945 -0.4630
   68HK4    C26 5694   4.740   0.954   6.089 -0.4788  0.0077 -0.1735
   68HK4    H13 5695   4.678   0.868   6.113  1.5264 -1.0136  1.5394
   68HK4    C25 5696   4.867   0.936   6.033 -0.2072  0.2401  0.3697
   68HK4    H12 5697   4.898   0.840   5.992  2.1528  1.6118 -1.1145
   68HK4    C24 5698   4.958   1.039   6.020 -0.0895  0.0088 -0.6564
   68HK4    H11 5699   5.059   1.017   5.983  0.9555  2.2611  0.7141
   68HK4    C23 5700   4.938   1.167   6.070 -0.3601  0.0254 -0.8106
   68HK4    H10 5701   5.021   1.233   6.094 -1.5905  1.1293  0.5544
   68HK4    C39 5702   4.832   1.423   6.193  0.6185 -0.4719 -0.2731
   68HK4    C41 5703   4.816   1.499   6.311  0.1867 -0.1295 -0.5482
   68HK4    H21 5704   4.808   1.445   6.406  0.8131  0.1791 -0.3180
   68HK4    C42 5705   4.837   1.636   6.312 -0.0868 -0.0894 -0.4404
   68HK4    H22 5706   4.834   1.697   6.404  1.5226 -1.2521  0.4069
   68HK4    C43 5707   4.876   1.708   6.200  0.0898  0.0018 -0.3210
   68HK4    H23 5708   4.866   1.816   6.193  3.4932  0.4935  1.2700
   68HK4    C44 5709   4.905   1.636   6.084 -0.3725  0.3989 -0.6805
   68HK4    H24 5710   4.924   1.688   5.989 -1.2833 -0.1565 -1.1774
   68HK4    C45 5711   4.880   1.499   6.084  0.2395  0.2901  0.0867
   68HK4    H25 5712   4.894   1.447   5.989 -3.0260 -0.1220 -0.2176
   69HK4    H28 5713  11.210  10.160   2.844 -0.4886 -0.8064 -0.5942
   69HK4    C48 5714   0.064  10.198   2.840 -0.5200 -0.6492  0.0277
   69HK4    C47 5715   0.166  10.104   2.827  0.0844 -0.0519  0.4723
   69HK4    H27 5716   0.168  10.005   2.876  0.9603 -1.1057 -1.6336
   69HK4    C46 5717   0.290  10.160   2.799 -0.0320  0.0981  0.2710
   69HK4    H26 5718   0.366  10.089   2.763 -0.9587 -1.3890  1.1997
   69HK4    C40 5719   0.320  10.298   2.790 -0.3913  0.1382 -0.4215
   69HK4    C50 5720   0.216  10.389   2.817 -0.5410 -0.3649  0.7490
   69HK4    H30 5721   0.223  10.496   2.792  0.5664 -0.2725  1.4425
   69HK4    C49 5722   0.091  10.334   2.846 -0.7059 -0.5942 -0.3714
   69HK4    H29 5723   0.013  10.402   2.883 -1.6452 -1.7946 -0.1063
   69HK4     N2 5724   0.450  10.351   2.786 -0.2103 -0.2059  0.5722
   69HK4    C30 5725   0.560  10.277   2.832  0.0878 -0.3624 -0.3767
   69HK4    C29 5726   0.578  10.213   2.954 -0.3479  0.1615 -0.0328
   69HK4    H15 5727   0.491  10.207   3.020  0.2613  1.5806  0.9279
   69HK4    C28 5728   0.701  10.164   2.996 -0.3714 -0.0400 -0.1998
   69HK4    C27 5729   0.812  10.171   2.909 -0.2863 -0.2801 -0.1126
   69HK4    H14 5730   0.910  10.127   2.932  1.2569  1.9357 -2.1971
   69HK4    C32 5731   0.802  10.243   2.791 -0.1047 -0.2744 -0.1231
   69HK4    H16 5732   0.872  10.214   2.713 -1.2899  0.0355 -1.2994
   69HK4    C31 5733   0.682  10.304   2.759  0.1640  0.3297  0.0088
   69HK4    C34 5734   0.639  10.405   2.663  0.1697  0.7681  0.4599
   69HK4    C33 5735   0.498  10.435   2.684 -0.0624 -0.3312  0.5388
   69HK4    C35 5736   0.441  10.539   2.610  0.2499 -0.4001  0.1965
   69HK4    H17 5737   0.335  10.564   2.615  0.2366  0.0703 -2.0848
   69HK4    C36 5738   0.513  10.619   2.523 -0.1215 -0.4868 -0.1913
   69HK4    H18 5739   0.457  10.687   2.457  1.5878 -0.6854 -1.8885
   69HK4    C37 5740   0.648  10.592   2.503 -0.1152 -0.6134  0.0173
   69HK4    H19 5741   0.710  10.642   2.428 -0.1259 -0.5389  0.0591
   69HK4    C38 5742   0.705  10.487   2.573  0.8028  0.0460  0.2675
   69HK4    H20 5743   0.814  10.478   2.572  0.6536 -2.2925  0.8238
   69HK4    C14 5744   0.721  10.137   3.140  0.4817  0.4794 -0.2139
   69HK4     C9 5745   0.842  10.156   3.206  0.7215 -0.0930 -0.4835
   69HK4     C8 5746   0.874  10.059   3.304  0.0154  0.3324  0.1688
   69HK4    C11 5747   0.781   9.970   3.358 -0.0503 -0.1024 -0.6565
   69HK4     H4 5748   0.816   9.900   3.435  0.3577  0.5165 -0.2662
   69HK4    C12 5749   0.651   9.971   3.310 -0.3541 -0.3155  0.1457
   69HK4     H5 5750   0.564   9.932   3.365 -2.2588  2.5552 -0.6986
   69HK4    C13 5751   0.624  10.053   3.201  0.8665  0.5273  0.4693
   69HK4     H6 5752   0.519  10.046   3.168  0.2682 -0.2549  2.5267
   69HK4     C7 5753   1.005  10.070   3.370 -0.3048  0.2243  0.8267
   69HK4     O2 5754   1.060   9.970   3.415 -0.0888  0.0177  0.0973
   69HK4     C4 5755   1.084  10.194   3.350 -0.2819  0.1364  0.3912
   69HK4     C3 5756   1.215  10.197   3.396  0.0399  0.0864 -0.5142
   69HK4     H3 5757   1.263  10.107   3.437  0.0785 -0.2031 -1.1902
   69HK4     C2 5758   1.283  10.318   3.402  0.1749 -0.0205  0.1636
   69HK4     H2 5759   1.393  10.316   3.399  0.2483  2.8078 -0.2059
   69HK4     C1 5760   1.216  10.439   3.388 -0.4883 -0.3537  0.3882
   69HK4     H1 5761   1.256  10.533   3.429 -2.4113 -0.5615  2.7837
   69HK4     C6 5762   1.081  10.437   3.347 -0.3906  0.1037  0.0366
   69HK4     C5 5763   1.024  10.315   3.309 -0.5947  0.0374  0.5480
   69HK4    C10 5764   0.916  10.285   3.211 -0.0815  0.3534 -0.1249
   69HK4     O1 5765   0.879  10.378   3.139  0.3903  0.5363 -0.1338
   69HK4    C16 5766   1.001  10.559   3.361  0.2928  0.5802 -0.1437
   69HK4    C15 5767   1.060  10.685   3.382  0.9450  0.1468  0.6922
   69HK4     H7 5768   1.154  10.700   3.327  0.0684  1.0967 -0.5933
   69HK4    C20 5769   0.999  10.793   3.445 -0.1405 -0.0099 -0.0832
   69HK4     H9 5770   1.056  10.880   3.475 -0.0471 -0.7724  2.0520
   69HK4    C19 5771   0.863  10.784   3.475 -0.2361  0.1616 -0.4688
   69HK4    C18 5772   0.794  10.660   3.446  0.0955 -0.1463  0.0504
   69HK4    C17 5773   0.867  10.552   3.400  0.2458  0.1375 -0.3847
   69HK4     H8 5774   0.809  10.461   3.384  1.4015 -0.5279 -0.8543
   69HK4     N1 5775   0.654  10.677   3.454  0.0939 -0.1197 -0.0407
   69HK4    C21 5776   0.628  10.808   3.497  0.3376 -0.0425 -0.1259
   69HK4    C22 5777   0.756  10.876   3.507  0.1018  0.3796  0.0224
   69HK4    C26 5778   0.758  11.009   3.550  0.6111  0.3347  0.1377
   69HK4    H13 5779   0.851  11.065   3.540  0.0523  0.5145 -5.6011
   69HK4    C25 5780   0.641  11.076   3.580  0.2798 -0.4059  0.5229
   69HK4    H12 5781   0.654  11.180   3.611 -2.1345 -0.1661  0.8639
   69HK4    C24 5782   0.519  11.010   3.571  0.1066 -0.0873  0.5262
   69HK4    H11 5783   0.426  11.068   3.583  0.8508  1.4129 -0.6986
   69HK4    C23 5784   0.514  10.875   3.540  0.4555 -0.0208  0.1504
   69HK4    H10 5785   0.418  10.825   3.524  0.2474 -0.0432  1.3589
   69HK4    C39 5786   0.563  10.613   3.368 -0.3762  0.5054 -0.0163
   69HK4    C41 5787   0.426  10.596   3.395 -0.3518  0.4452  0.0689
   69HK4    H21 5788   0.405  10.591   3.503  0.2318 -1.1454  0.1250
   69HK4    C42 5789   0.334  10.555   3.299 -0.3334  0.9830 -0.1801
   69HK4    H22 5790   0.228  10.547   3.326 -0.5557  2.7158 -0.5315
   69HK4    C43 5791   0.378  10.528   3.170 -0.3060 -0.1375  0.0552
   69HK4    H23 5792   0.305  10.497   3.094 -0.2244  0.6254 -0.3430
   69HK4    C44 5793   0.511  10.550   3.139 -0.2740  0.0555  0.3312
   69HK4    H24 5794   0.552  10.544   3.037  1.8977  0.5118  1.1406
   69HK4    C45 5795   0.602  10.596   3.234 -0.0734  0.0946  0.1196
   69HK4    H25 5796   0.704  10.626   3.205 -0.5805  0.3913 -1.4038
   70HK4    H28 5797   5.617  11.193   7.242 -1.4089 -0.2754 -0.4497
   70HK4    C48 5798   5.644  11.098   7.194 -0.1700 -0.2893  0.2562
   70HK4    C47 5799   5.677  10.979   7.258 -0.2006 -0.0253  0.7799
   70HK4    H27 5800   5.670  10.979   7.367 -1.1115  0.4423  0.7217
   70HK4    C46 5801   5.701  10.862   7.187  0.1137  0.4387  0.1100
   70HK4    H26 5802   5.689  10.769   7.245  0.0749 -0.5905 -1.4989
   70HK4    C40 5803   5.700  10.850   7.047 -0.0736 -0.0949  0.1534
   70HK4    C50 5804   5.669  10.974   6.987 -0.2636 -0.0606  0.3206
   70HK4    H30 5805   5.665  10.970   6.877 -1.2853  0.3672  0.3363
   70HK4    C49 5806   5.648  11.094   7.055 -0.2229 -0.0133  0.2466
   70HK4    H29 5807   5.642  11.184   6.992  2.2086  0.2818  0.3595
   70HK4     N2 5808   5.772  10.764   6.963 -0.0493  0.3319 -0.2694
   70HK4    C30 5809   5.886  10.699   7.014 -0.0871  0.3877 -0.1102
   70HK4    C29 5810   5.984  10.730   7.107 -0.0357  0.0485 -0.0527
   70HK4    H15 5811   5.971  10.814   7.175  0.0641  0.9642 -1.1487
   70HK4    C28 5812   6.090  10.644   7.139 -0.1164 -0.0297 -0.0013
   70HK4    C27 5813   6.090  10.514   7.086  0.3226 -0.0210 -0.0255
   70HK4    H14 5814   6.163  10.442   7.127  0.7017 -0.4715 -1.4497
   70HK4    C32 5815   5.994  10.471   6.995 -0.2945  0.0506  0.5916
   70HK4    H16 5816   5.985  10.372   6.951 -0.1721  1.1060 -1.8931
   70HK4    C31 5817   5.895  10.563   6.963  0.0089  0.2560  0.2520
   70HK4    C34 5818   5.787  10.547   6.867 -0.0708 -0.2231  0.4229
   70HK4    C33 5819   5.722  10.677   6.864 -0.0875 -0.2393  0.2511
   70HK4    C35 5820   5.627  10.708   6.768 -0.0724 -0.1567  0.2639
   70HK4    H17 5821   5.577  10.804   6.754  1.7587  0.8229  0.1818
   70HK4    C36 5822   5.592  10.606   6.680 -0.1429  0.0046  0.1060
   70HK4    H18 5823   5.495  10.618   6.629 -0.8191 -0.7541  1.1798
   70HK4    C37 5824   5.652  10.481   6.677  0.1110  0.1260  0.2038
   70HK4    H19 5825   5.633  10.420   6.589 -0.2965 -0.5639  0.7615
   70HK4    C38 5826   5.755  10.456   6.767  0.1357  0.0071  0.1452
   70HK4    H20 5827   5.816  10.366   6.767 -2.0958 -1.5583  1.7767
   70HK4    C14 5828   6.218  10.698   7.186  0.1033 -0.2374 -0.3629
   70HK4     C9 5829   6.340  10.648   7.137  0.1131 -0.6449  0.0685
   70HK4     C8 5830   6.451  10.656   7.223  0.2648  0.3832 -0.2190
   70HK4    C11 5831   6.438  10.708   7.351 -0.0360  0.0118 -0.0984
   70HK4     H4 5832   6.511  10.696   7.432 -1.5962 -0.5679  1.2633
   70HK4    C12 5833   6.318  10.762   7.396 -0.1621 -0.7481  0.4812
   70HK4     H5 5834   6.328  10.817   7.491 -0.4175 -0.4293  0.3270
   70HK4    C13 5835   6.207  10.759   7.313  0.5404  0.1186 -0.4946
   70HK4     H6 5836   6.113  10.806   7.346  0.6466 -0.6708  0.9606
   70HK4     C7 5837   6.564  10.574   7.173  0.2539  0.4300 -0.3215
   70HK4     O2 5838   6.674  10.620   7.201  0.3062 -0.0508  0.2699
   70HK4     C4 5839   6.554  10.492   7.050 -0.1747 -0.0576  0.0368
   70HK4     C3 5840   6.660  10.405   7.027  0.3955  0.7425 -0.4095
   70HK4     H3 5841   6.740  10.395   7.102 -1.3350 -2.4145  1.1296
   70HK4     C2 5842   6.652  10.324   6.915 -0.5414 -0.4266  0.4866
   70HK4     H2 5843   6.725  10.242   6.913 -0.2064 -0.1658  1.6825
   70HK4     C1 5844   6.546  10.331   6.825 -0.0681 -0.5170 -0.0846
   70HK4     H1 5845   6.545  10.257   6.744 -0.3881 -2.1374  1.3598
   70HK4     C6 5846   6.442  10.425   6.842  0.1815 -0.3069  0.2725
   70HK4     C5 5847   6.452  10.509   6.954 -0.0666  0.1484 -0.0421
   70HK4    C10 5848   6.348  10.608   6.994 -0.2644 -0.0192 -0.1325
   70HK4     O1 5849   6.323  10.701   6.917 -0.0090  0.2094  0.0626
   70HK4    C16 5850   6.313  10.392   6.781  0.4379 -0.0090 -0.4329
   70HK4    C15 5851   6.279  10.257   6.758 -0.0784  0.0026  0.2776
   70HK4     H7 5852   6.333  10.179   6.813  1.8191  0.1159 -1.3880
   70HK4    C20 5853   6.182  10.219   6.666  0.1258  0.4386 -0.1212
   70HK4     H9 5854   6.159  10.117   6.634 -0.3247  0.6851 -0.5899
   70HK4    C19 5855   6.113  10.318   6.597 -0.0640  0.1432 -0.3527
   70HK4    C18 5856   6.141  10.459   6.618 -0.1760  0.0725  0.3017
   70HK4    C17 5857   6.247  10.487   6.704  0.1419  0.0625 -0.0882
   70HK4     H8 5858   6.296  10.583   6.692  2.3538 -0.4771  3.7382
   70HK4     N1 5859   6.060  10.542   6.538  0.7556  0.1605 -0.5578
   70HK4    C21 5860   5.969  10.455   6.474  0.1221 -0.0098  0.5489
   70HK4    C22 5861   6.003  10.317   6.502  0.2548 -0.2505 -0.7222
   70HK4    C26 5862   5.919  10.215   6.459  0.1927 -0.5186  0.0455
   70HK4    H13 5863   5.919  10.121   6.515  3.2395 -0.8468 -0.3738
   70HK4    C25 5864   5.807  10.246   6.383  0.5422  0.1046 -0.2221
   70HK4    H12 5865   5.741  10.162   6.361 -0.3364  0.6152  0.4402
   70HK4    C24 5866   5.775  10.377   6.348  0.3953  0.1366  0.0254
   70HK4    H11 5867   5.721  10.392   6.254 -0.8071 -1.6153  0.4067
   70HK4    C23 5868   5.855  10.479   6.397  0.4727  0.0634  0.0448
   70HK4    H10 5869   5.822  10.579   6.370 -0.2691 -0.4622 -0.9930
   70HK4    C39 5870   6.043  10.680   6.556 -0.0755 -0.0365  0.2615
   70HK4    C41 5871   5.977  10.756   6.457 -0.3356 -0.5998  0.0034
   70HK4    H21 5872   5.988  10.725   6.352 -2.0635  0.9384 -0.6548
   70HK4    C42 5873   5.915  10.878   6.482  0.5203 -0.1775  0.0738
   70HK4    H22 5874   5.844  10.926   6.415  1.7869  0.2859 -0.9535
   70HK4    C43 5875   5.927  10.930   6.611  0.1551 -0.2107  0.1213
   70HK4    H23 5876   5.884  11.029   6.627  2.2794  0.7085  0.3802
   70HK4    C44 5877   5.988  10.859   6.714  0.0296 -0.4776  0.0107
   70HK4    H24 5878   5.988  10.911   6.811  0.7739  0.8777 -0.7025
   70HK4    C45 5879   6.044  10.735   6.685  0.2002 -0.5047  0.4608
   70HK4    H25 5880   6.116  10.696   6.758 -0.2386  0.1187  1.2398
   71HK4    H28 5881   6.229  11.246   1.956 -2.8140  0.5182 -1.7850
   71HK4    C48 5882   6.259  11.174   1.879  0.0792  0.0383 -0.2764
   71HK4    C47 5883   6.240  11.041   1.916  0.1173  0.1316  0.0869
   71HK4    H27 5884   6.158  11.018   1.985  1.4334  1.2541  2.0774
   71HK4    C46 5885   6.286  10.940   1.832 -0.1383 -0.0386  0.1506
   71HK4    H26 5886   6.236  10.843   1.820 -1.2393  0.3122  1.6781
   71HK4    C40 5887   6.368  10.969   1.721  0.2754 -0.0905  0.4396
   71HK4    C50 5888   6.377  11.105   1.685 -0.0704 -0.2336 -0.1956
   71HK4    H30 5889   6.440  11.134   1.599 -1.3367  1.6283 -0.5244
   71HK4    C49 5890   6.323  11.208   1.761  0.0201 -0.0783 -0.3431
   71HK4    H29 5891   6.317   0.064   1.723  3.3104 -0.1791 -1.2718
   71HK4     N2 5892   6.474  10.883   1.692 -0.1035 -0.3700 -0.1242
   71HK4    C30 5893   6.525  10.792   1.787 -0.0876  0.1627  0.3795
   71HK4    C29 5894   6.514  10.777   1.925 -0.4950 -0.0401  0.3268
   71HK4    H15 5895   6.487  10.870   1.974  2.7074  1.6745 -0.9932
   71HK4    C28 5896   6.573  10.680   2.005 -0.3240 -0.0238  0.2204
   71HK4    C27 5897   6.640  10.580   1.933 -0.3989  0.0266  0.0809
   71HK4    H14 5898   6.642  10.478   1.976  1.5245 -0.6548 -1.5328
   71HK4    C32 5899   6.658  10.591   1.795  0.2073 -0.2158  0.1400
   71HK4    H16 5900   6.697  10.515   1.728  1.4443  0.6622 -0.1515
   71HK4    C31 5901   6.611  10.698   1.720 -0.5661 -0.3316  0.4551
   71HK4    C34 5902   6.619  10.740   1.581  0.1071  0.2923  0.6799
   71HK4    C33 5903   6.531  10.854   1.566 -0.3389 -0.1726 -0.2762
   71HK4    C35 5904   6.504  10.914   1.444 -0.1661  0.2029 -0.1314
   71HK4    H17 5905   6.435  10.998   1.441 -1.5106 -0.8181  1.5008
   71HK4    C36 5906   6.567  10.864   1.330 -0.0399  0.1535 -0.0412
   71HK4    H18 5907   6.548  10.924   1.240  0.8128  0.7755  0.1965
   71HK4    C37 5908   6.656  10.759   1.347 -0.3038 -0.0314  0.2029
   71HK4    H19 5909   6.732  10.745   1.270 -0.1522  0.5999  0.2351
   71HK4    C38 5910   6.683  10.694   1.467 -0.3817  0.3039  0.4015
   71HK4    H20 5911   6.737  10.599   1.460 -0.4208  0.4449 -2.3222
   71HK4    C14 5912   6.617  10.718   2.140  0.0473 -0.0562  0.1088
   71HK4     C9 5913   6.724  10.665   2.213 -0.1209 -0.1756  0.2670
   71HK4     C8 5914   6.747  10.690   2.350 -0.2258 -0.1189  0.2734
   71HK4    C11 5915   6.662  10.780   2.414  0.0313 -0.0376  0.4949
   71HK4     H4 5916   6.700  10.824   2.508  0.2490 -1.7742  1.2433
   71HK4    C12 5917   6.554  10.836   2.346  0.3009 -0.2791 -0.1343
   71HK4     H5 5918   6.484  10.894   2.408  0.1613 -1.3169  0.6974
   71HK4    C13 5919   6.534  10.806   2.212 -0.5039 -0.5215  0.0415
   71HK4     H6 5920   6.435  10.825   2.167  0.3909 -0.4233 -1.9447
   71HK4     C7 5921   6.819  10.596   2.437  0.2023  0.3333  0.4141
   71HK4     O2 5922   6.850  10.622   2.553  0.4182 -0.5788  0.5729
   71HK4     C4 5923   6.869  10.470   2.377  0.3174  0.5612  0.0272
   71HK4     C3 5924   6.894  10.365   2.466 -0.3749  0.2864 -0.0940
   71HK4     H3 5925   6.888  10.391   2.572  1.1411  1.7755 -0.3323
   71HK4     C2 5926   6.936  10.241   2.419  0.0805  0.3826  0.0531
   71HK4     H2 5927   6.980  10.163   2.482  0.4108 -1.6018 -2.5553
   71HK4     C1 5928   6.935  10.226   2.281  0.5888 -0.5020  0.1436
   71HK4     H1 5929   6.943  10.127   2.234  2.9521 -0.2331 -0.1101
   71HK4     C6 5930   6.901  10.328   2.189  0.5834 -0.1631  0.5219
   71HK4     C5 5931   6.871  10.456   2.237 -0.5500 -0.2665  0.0920
   71HK4    C10 5932   6.820  10.567   2.153 -0.1978 -0.1264  0.0633
   71HK4     O1 5933   6.905  10.620   2.082  0.0672 -0.2002  0.3255
   71HK4    C16 5934   6.856  10.281   2.057  0.7294  0.2888  0.3115
   71HK4    C15 5935   6.790  10.159   2.034  0.0141  0.7021  0.1347
   71HK4     H7 5936   6.743  10.107   2.119 -3.2985  3.3800  0.0701
   71HK4    C20 5937   6.767  10.113   1.904  0.6892 -0.2832  0.3593
   71HK4     H9 5938   6.736  10.011   1.884 -1.6301  1.0199 -3.1009
   71HK4    C19 5939   6.808  10.187   1.794  0.0764 -0.3162  0.1117
   71HK4    C18 5940   6.889  10.305   1.815  0.1012 -0.3014 -0.0765
   71HK4    C17 5941   6.910  10.346   1.946  0.8360 -0.5277 -0.1160
   71HK4     H8 5942   6.991  10.418   1.949  0.1449  0.3691 -2.1395
   71HK4     N1 5943   6.935  10.356   1.692  0.1492  0.2047  0.1512
   71HK4    C21 5944   6.885  10.269   1.593  0.2267  0.3894 -0.0530
   71HK4    C22 5945   6.808  10.161   1.651  0.5736  0.1794  0.0200
   71HK4    C26 5946   6.714  10.098   1.570  0.4731  0.2822  0.0574
   71HK4    H13 5947   6.633  10.046   1.622  0.1950  0.8484  0.1937
   71HK4    C25 5948   6.690  10.140   1.440 -0.5098 -0.1168  0.1067
   71HK4    H12 5949   6.633  10.081   1.368 -1.2558  0.1202  0.4968
   71HK4    C24 5950   6.760  10.250   1.392  0.0709 -0.5058  0.0433
   71HK4    H11 5951   6.742  10.284   1.289  1.0395  0.7297  0.2683
   71HK4    C23 5952   6.867  10.306   1.461 -0.1003  0.0191 -0.1116
   71HK4    H10 5953   6.940  10.370   1.412 -0.0286  1.4306  1.8243
   71HK4    C39 5954   7.007  10.475   1.672 -0.1215  0.2241 -0.7221
   71HK4    C41 5955   7.088  10.496   1.558  0.9516 -0.2355 -0.0585
   71HK4    H21 5956   7.154  10.415   1.524 -0.9904 -2.3252  0.9721
   71HK4    C42 5957   7.096  10.618   1.492 -0.1354 -0.3121 -0.3452
   71HK4    H22 5958   7.142  10.626   1.393  0.0271 -0.1176 -0.2533
   71HK4    C43 5959   7.030  10.727   1.548  0.0726 -0.3502 -0.0258
   71HK4    H23 5960   7.034  10.818   1.489 -0.5655 -1.1635 -1.3459
   71HK4    C44 5961   6.957  10.712   1.666 -0.6367  0.2681 -0.3806
   71HK4    H24 5962   6.899  10.796   1.706  0.4203  1.2218 -0.8103
   71HK4    C45 5963   6.951  10.589   1.731 -0.1560  0.1366 -0.5801
   71HK4    H25 5964   6.901  10.587   1.829  3.5228  3.5753  1.5065
   72HK4    H28 5965   2.418   8.236   9.963  2.9723  0.8786 -1.3512
   72HK4    C48 5966   2.458   8.135   9.979 -0.0868 -0.0454  0.8605
   72HK4    C47 5967   2.378   8.022   9.967 -0.2404  0.1752 -0.2037
   72HK4    H27 5968   2.278   8.027   9.921 -0.2271 -0.5446 -0.3208
   72HK4    C46 5969   2.418   7.893  10.000  0.1352  0.5340  0.7563
   72HK4    H26 5970   2.355   7.804   9.983 -0.7493  1.0409  1.3346
   72HK4    C40 5971   2.551   7.877  10.044  0.4098 -0.3878 -0.3821
   72HK4    C50 5972   2.624   7.995  10.070 -0.2911  0.0368 -0.3162
   72HK4    H30 5973   2.707   7.982  10.140 -0.1519 -1.7299 -0.7667
   72HK4    C49 5974   2.586   8.123  10.030  0.4038  0.2483 -0.2988
   72HK4    H29 5975   2.654   8.209  10.032 -0.3715  0.8892 -1.2942
   72HK4     N2 5976   2.593   7.755  10.097  0.1584 -0.4290 -0.2736
   72HK4    C30 5977   2.504   7.652  10.134 -0.1120 -0.1967 -0.2869
   72HK4    C29 5978   2.390   7.666  10.213 -0.3550 -0.2253 -0.6273
   72HK4    H15 5979   2.347   7.763  10.239  0.2935 -0.3079  0.8365
   72HK4    C28 5980   2.323   7.558  10.269 -0.1152  0.1061  0.3028
   72HK4    C27 5981   2.381   7.433  10.239  0.4550  0.3242  0.4758
   72HK4    H14 5982   2.306   7.354  10.253  0.5501 -0.1847 -1.8254
   72HK4    C32 5983   2.497   7.407  10.168  0.2124 -0.1262  0.2412
   72HK4    H16 5984   2.545   7.309  10.165  0.6747  0.1230 -0.8036
   72HK4    C31 5985   2.558   7.519  10.114  0.1880 -0.1455  0.1761
   72HK4    C34 5986   2.697   7.544  10.080  0.1408 -0.3755 -0.1858
   72HK4    C33 5987   2.715   7.688  10.073  0.2418 -0.3790 -0.0011
   72HK4    C35 5988   2.846   7.735  10.070 -0.0128  0.3220 -0.2608
   72HK4    H17 5989   2.861   7.842  10.081  1.1069  0.1753 -0.3437
   72HK4    C36 5990   2.951   7.644  10.066 -0.4371 -0.1890  0.2263
   72HK4    H18 5991   3.049   7.692  10.053 -0.8692  0.6890  0.2259
   72HK4    C37 5992   2.932   7.506  10.071  0.1712 -0.3083 -0.5601
   72HK4    H19 5993   3.015   7.442  10.099 -0.1715  0.4124  2.3111
   72HK4    C38 5994   2.802   7.455  10.070  0.1763 -0.3352 -0.1707
   72HK4    H20 5995   2.789   7.347  10.076 -0.7727 -0.2128 -0.0872
   72HK4    C14 5996   2.215   7.591  10.364 -0.0810  0.0114  0.3730
   72HK4     C9 5997   2.174   7.494  10.457 -0.0919  0.0371  0.3944
   72HK4     C8 5998   2.041   7.449  10.470 -0.1585  0.2114  0.3208
   72HK4    C11 5999   1.943   7.521  10.402  0.1071  0.3023  0.0340
   72HK4     H4 6000   1.837   7.494  10.390 -0.2241  0.3492  2.6130
   72HK4    C12 6001   1.978   7.639  10.337 -0.1392  0.2507 -0.1936
   72HK4     H5 6002   1.896   7.694  10.287 -2.6638 -1.6203  1.7124
   72HK4    C13 6003   2.111   7.669  10.310  0.0085  0.2180  0.4980
   72HK4     H6 6004   2.133   7.751  10.240 -1.9358 -1.2147 -1.8636
   72HK4     C7 6005   2.001   7.334  10.553 -0.1149 -0.2065 -0.2364
   72HK4     O2 6006   1.893   7.282  10.527 -0.1173 -0.1014 -0.4345
   72HK4     C4 6007   2.104   7.275  10.641  0.0932  0.5450  0.0228
   72HK4     C3 6008   2.066   7.173  10.728  0.3257  0.3599 -0.0879
   72HK4     H3 6009   1.962   7.167  10.765  0.8454 -1.2105  1.1457
   72HK4     C2 6010   2.163   7.099  10.793  0.4919  0.6745  0.0246
   72HK4     H2 6011   2.136   7.033  10.877 -0.7595 -0.2489 -1.0915
   72HK4     C1 6012   2.298   7.117  10.764  0.5810 -0.0413 -0.0132
   72HK4     H1 6013   2.371   7.063  10.826  1.7402  0.7979 -0.6325
   72HK4     C6 6014   2.338   7.216  10.672  0.1153  0.2038  0.0431
   72HK4     C5 6015   2.241   7.303  10.621  0.1784  0.8047  0.9418
   72HK4    C10 6016   2.273   7.426  10.544  0.5011 -0.0900 -0.3741
   72HK4     O1 6017   2.365   7.497  10.586  0.0512  0.2469  0.0339
   72HK4    C16 6018   2.450   7.169  10.588 -0.0404  0.0462 -0.0748
   72HK4    C15 6019   2.473   7.033  10.560  0.2845  0.0546  0.1515
   72HK4     H7 6020   2.395   6.963  10.593 -0.4679 -0.0283 -1.7628
   72HK4    C20 6021   2.578   6.980  10.486  0.4446 -0.1511  0.5246
   72HK4     H9 6022   2.585   6.871  10.488 -2.6467 -0.3661  2.7049
   72HK4    C19 6023   2.674   7.066  10.435  0.6195 -0.1976  0.7737
   72HK4    C18 6024   2.663   7.202  10.484  0.6426  0.1784 -0.2419
   72HK4    C17 6025   2.556   7.253  10.557  0.4050 -0.5216 -0.0904
   72HK4     H8 6026   2.547   7.359  10.582 -0.7500 -0.4879 -0.6127
   72HK4     N1 6027   2.767   7.280  10.429  0.1741  0.5622 -0.5857
   72HK4    C21 6028   2.840   7.196  10.343  0.0805 -0.0906 -0.0360
   72HK4    C22 6029   2.789   7.061  10.346 -0.3478  0.0555 -0.4954
   72HK4    C26 6030   2.854   6.961  10.274 -0.3266 -0.1692 -0.1633
   72HK4    H13 6031   2.809   6.862  10.268  2.8811 -1.7105  0.1504
   72HK4    C25 6032   2.956   7.001  10.190 -0.5792  0.1948 -0.2946
   72HK4    H12 6033   2.994   6.920  10.127 -0.8120  0.4832 -0.8143
   72HK4    C24 6034   2.997   7.133  10.177 -0.2150  0.1034 -0.0892
   72HK4    H11 6035   3.087   7.165  10.122 -0.8658 -1.6643 -2.2314
   72HK4    C23 6036   2.942   7.233  10.257 -0.1098  0.1997 -0.1391
   72HK4    H10 6037   3.012   7.314  10.280 -1.2271  1.3376 -0.6837
   72HK4    C39 6038   2.815   7.391  10.499  0.4755  0.3084 -0.3905
   72HK4    C41 6039   2.814   7.414  10.638  0.0583  0.1776 -0.3700
   72HK4    H21 6040   2.789   7.324  10.696 -1.8947  0.7898 -0.2417
   72HK4    C42 6041   2.826   7.541  10.694 -0.3607 -0.0319  0.1899
   72HK4    H22 6042   2.813   7.556  10.802 -1.4281  2.2524 -0.2412
   72HK4    C43 6043   2.846   7.652  10.614  0.3737 -0.3332 -0.0510
   72HK4    H23 6044   2.831   7.750  10.661  2.4186  0.1733 -0.3977
   72HK4    C44 6045   2.870   7.632  10.479 -0.6685  0.9913 -0.4459
   72HK4    H24 6046   2.907   7.714  10.416 -2.0866  0.8649 -1.4536
   72HK4    C45 6047   2.846   7.507  10.424  0.3568  0.5925 -0.0003
   72HK4    H25 6048   2.850   7.497  10.314  2.2021 -0.6989  0.1434
   73HK4    H28 6049   7.537   8.934   3.655  0.3777 -0.5665 -0.7852
   73HK4    C48 6050   7.470   8.993   3.593 -0.5919 -0.6640  0.1530
   73HK4    C47 6051   7.478   8.990   3.454 -0.2796  0.0241  0.1535
   73HK4    H27 6052   7.554   8.927   3.405  0.6941  0.6222  0.8778
   73HK4    C46 6053   7.391   9.071   3.382 -0.1548  0.1146  0.1067
   73HK4    H26 6054   7.390   9.049   3.274  3.0146  2.1879 -0.4221
   73HK4    C40 6055   7.298   9.160   3.439 -0.3912 -0.1999  0.2141
   73HK4    C50 6056   7.305   9.158   3.579 -0.0957  0.1362  0.2069
   73HK4    H30 6057   7.271   9.249   3.632 -0.6120  0.3579 -0.4993
   73HK4    C49 6058   7.380   9.074   3.661  0.2068  0.2934  0.0885
   73HK4    H29 6059   7.370   9.063   3.770 -0.9505 -0.4143 -0.0744
   73HK4     N2 6060   7.175   9.192   3.379 -0.3280 -0.5009 -0.0765
   73HK4    C30 6061   7.109   9.117   3.279 -0.4521 -0.0112 -0.3585
   73HK4    C29 6062   7.099   8.979   3.274  0.4194 -0.0968  0.1108
   73HK4    H15 6063   7.149   8.916   3.347  0.7671  0.5802  0.4565
   73HK4    C28 6064   7.012   8.917   3.185  0.0243  0.2298  0.2691
   73HK4    C27 6065   6.943   9.000   3.093 -0.5801 -0.1963  0.3391
   73HK4    H14 6066   6.864   8.948   3.037  2.1688 -1.4248 -2.5563
   73HK4    C32 6067   6.964   9.137   3.085  0.1929 -0.3126  0.3106
   73HK4    H16 6068   6.912   9.186   3.003 -1.5414 -2.3149  0.1618
   73HK4    C31 6069   7.049   9.200   3.176  0.5791  0.4718 -0.5820
   73HK4    C34 6070   7.046   9.330   3.239  0.5766  0.2355 -0.0884
   73HK4    C33 6071   7.137   9.325   3.351  0.8064 -0.2152 -0.2975
   73HK4    C35 6072   7.162   9.443   3.419  0.2890 -0.0879 -0.3314
   73HK4    H17 6073   7.230   9.438   3.505  1.4448  1.1211 -1.1587
   73HK4    C36 6074   7.101   9.562   3.382 -0.4336 -0.2538  0.3025
   73HK4    H18 6075   7.110   9.650   3.448  1.2716 -0.4154  0.2788
   73HK4    C37 6076   7.010   9.565   3.277 -0.0020  0.0861 -0.0574
   73HK4    H19 6077   6.967   9.658   3.239 -0.7399 -0.3982 -0.4329
   73HK4    C38 6078   6.980   9.449   3.207 -0.0569 -0.0423  0.1839
   73HK4    H20 6079   6.897   9.443   3.137  0.4433 -3.4643 -0.2318
   73HK4    C14 6080   7.008   8.772   3.167 -0.0633  0.2514  0.0978
   73HK4     C9 6081   6.984   8.697   3.051 -0.3599  0.2646  0.1492
   73HK4     C8 6082   6.954   8.559   3.046  0.3885  0.0940  0.3639
   73HK4    C11 6083   6.942   8.496   3.169 -0.0292 -0.3619  0.0925
   73HK4     H4 6084   6.908   8.392   3.179 -0.6276 -0.1498  0.2512
   73HK4    C12 6085   6.963   8.563   3.289  0.2879  0.2046 -0.2807
   73HK4     H5 6086   6.985   8.503   3.378 -1.9724  0.4341  0.4605
   73HK4    C13 6087   6.988   8.700   3.287  0.7442  0.1273  0.1597
   73HK4     H6 6088   6.999   8.746   3.386  0.2451  2.0800 -0.6562
   73HK4     C7 6089   6.914   8.487   2.923 -0.0411  0.2947  0.3868
   73HK4     O2 6090   6.918   8.365   2.922 -0.3571  0.2871 -0.6219
   73HK4     C4 6091   6.895   8.564   2.797 -0.1589  0.0654  0.2665
   73HK4     C3 6092   6.831   8.508   2.687 -0.1187 -0.2010  0.3765
   73HK4     H3 6093   6.804   8.402   2.683 -0.7008 -0.0115 -1.4960
   73HK4     C2 6094   6.810   8.581   2.570  0.2372 -0.1312  0.3579
   73HK4     H2 6095   6.761   8.537   2.482  0.9844  1.8363 -1.0648
   73HK4     C1 6096   6.854   8.713   2.570  0.0484 -0.0665  0.3515
   73HK4     H1 6097   6.818   8.778   2.489  0.5605 -0.9560 -0.6103
   73HK4     C6 6098   6.916   8.777   2.679 -0.7091  0.1330  0.6710
   73HK4     C5 6099   6.938   8.698   2.793  0.6893 -0.2066  0.1755
   73HK4    C10 6100   7.004   8.753   2.915  0.2387  0.2317  0.2236
   73HK4     O1 6101   7.119   8.794   2.896  0.3879 -0.3148 -0.0991
   73HK4    C16 6102   6.905   8.923   2.682 -0.3820  0.1690  0.2337
   73HK4    C15 6103   6.791   8.993   2.637 -0.2153  0.1135 -0.2870
   73HK4     H7 6104   6.705   8.924   2.625  0.6938 -0.8221 -1.4685
   73HK4    C20 6105   6.785   9.125   2.594  0.1999  0.1861 -0.1194
   73HK4     H9 6106   6.686   9.164   2.571 -0.2007 -1.3944 -1.1718
   73HK4    C19 6107   6.901   9.201   2.605  0.0037  0.3694  0.7667
   73HK4    C18 6108   7.024   9.139   2.652  0.0550 -0.2422 -0.1586
   73HK4    C17 6109   7.018   9.004   2.685 -0.0525 -0.2677 -0.2742
   73HK4     H8 6110   7.113   8.952   2.690 -1.7623 -3.4105  1.4455
   73HK4     N1 6111   7.141   9.214   2.632  0.0103 -0.1608 -0.1157
   73HK4    C21 6112   7.095   9.325   2.558  0.2181 -0.0693 -0.1085
   73HK4    C22 6113   6.952   9.316   2.534  0.0882  0.1962  0.5414
   73HK4    C26 6114   6.887   9.411   2.456 -0.3241 -0.0777  0.5527
   73HK4    H13 6115   6.778   9.411   2.452 -0.3131  0.8730  0.0691
   73HK4    C25 6116   6.955   9.518   2.399 -0.1439 -0.3818  0.2020
   73HK4    H12 6117   6.903   9.594   2.341  0.3711 -0.8562 -0.8907
   73HK4    C24 6118   7.092   9.523   2.418 -0.1201 -0.1476 -0.0352
   73HK4    H11 6119   7.148   9.610   2.381 -0.3574  0.0007 -0.0459
   73HK4    C23 6120   7.161   9.427   2.492  0.1622 -0.2005 -0.3642
   73HK4    H10 6121   7.270   9.428   2.493  0.2391 -0.9121 -3.0164
   73HK4    C39 6122   7.258   9.199   2.708  0.2701  0.2688 -0.4229
   73HK4    C41 6123   7.376   9.261   2.664  0.2257  0.6770  0.0215
   73HK4    H21 6124   7.401   9.277   2.558 -0.7619  0.8937 -0.1799
   73HK4    C42 6125   7.470   9.313   2.752  0.0784  0.4489  0.3127
   73HK4    H22 6126   7.551   9.373   2.707  1.0932 -0.0190  1.4840
   73HK4    C43 6127   7.468   9.280   2.887 -0.0129 -0.4543  0.0917
   73HK4    H23 6128   7.544   9.318   2.956  0.9908 -2.1398 -0.0497
   73HK4    C44 6129   7.359   9.209   2.935 -0.4011  0.1566  0.1046
   73HK4    H24 6130   7.354   9.199   3.044 -0.6966  0.7848  0.1515
   73HK4    C45 6131   7.261   9.167   2.846  0.1748  0.0367 -0.4751
   73HK4    H25 6132   7.189   9.088   2.873  1.2841 -0.6253  0.5965
   74HK4    H28 6133   4.154   5.361   4.163  0.5606 -0.3410  0.0878
   74HK4    C48 6134   4.139   5.316   4.065 -0.3121 -0.1572  0.1282
   74HK4    C47 6135   4.014   5.312   4.005 -0.2914  0.5276  0.0300
   74HK4    H27 6136   3.935   5.371   4.054 -0.4425 -0.2199  0.6914
   74HK4    C46 6137   3.990   5.250   3.883 -0.0522  0.5916 -0.0491
   74HK4    H26 6138   3.898   5.280   3.830  1.4492  2.8988 -1.4696
   74HK4    C40 6139   4.094   5.184   3.815 -0.5026 -0.1484 -0.0236
   74HK4    C50 6140   4.221   5.186   3.875 -0.5243  0.2649  0.0102
   74HK4    H30 6141   4.305   5.124   3.839 -0.2739 -0.0804  1.1505
   74HK4    C49 6142   4.241   5.250   3.997 -0.2059  0.0763  0.0585
   74HK4    H29 6143   4.343   5.249   4.039  0.2691  0.8144 -1.0413
   74HK4     N2 6144   4.093   5.153   3.678 -0.4493 -0.2432 -0.0025
   74HK4    C30 6145   4.019   5.225   3.582 -0.0564 -0.0433 -0.1584
   74HK4    C29 6146   3.959   5.351   3.585 -0.1837 -0.1115  0.2615
   74HK4    H15 6147   3.980   5.414   3.671  0.5448 -1.3869  1.0440
   74HK4    C28 6148   3.883   5.385   3.474 -0.0393 -0.1419  0.1520
   74HK4    C27 6149   3.863   5.298   3.365  0.2993  0.3071 -0.2730
   74HK4    H14 6150   3.816   5.337   3.274 -1.9256  0.3579  0.8654
   74HK4    C32 6151   3.917   5.170   3.359 -0.0716  0.1233  0.1948
   74HK4    H16 6152   3.896   5.096   3.281 -1.4866 -0.7462  1.3888
   74HK4    C31 6153   3.995   5.138   3.469  0.1197 -0.2395 -0.0446
   74HK4    C34 6154   4.057   5.009   3.497  0.1296 -0.1666  0.2707
   74HK4    C33 6155   4.123   5.026   3.625  0.6830  0.0261 -0.0369
   74HK4    C35 6156   4.172   4.911   3.685  0.2347 -0.3113 -0.3056
   74HK4    H17 6157   4.199   4.913   3.791  0.4504 -0.0723 -0.3647
   74HK4    C36 6158   4.163   4.784   3.631  0.3633 -0.4337 -0.0384
   74HK4    H18 6159   4.220   4.701   3.677 -1.3196 -0.6863  1.6956
   74HK4    C37 6160   4.093   4.775   3.512  0.2384  0.0775 -0.0050
   74HK4    H19 6161   4.063   4.674   3.483 -0.2593 -0.6553  2.9727
   74HK4    C38 6162   4.040   4.883   3.442  0.1105 -0.0197 -0.0610
   74HK4    H20 6163   3.979   4.859   3.355 -2.7758 -0.0687  1.9261
   74HK4    C14 6164   3.789   5.499   3.473  0.3417  0.1842  0.8424
   74HK4     C9 6165   3.659   5.511   3.424  0.6273 -0.2553 -0.0468
   74HK4     C8 6166   3.607   5.633   3.377  0.2308 -0.4838 -0.2160
   74HK4    C11 6167   3.680   5.750   3.394 -0.1701 -0.3058  0.2861
   74HK4     H4 6168   3.641   5.845   3.353  1.7411  0.1470 -0.5666
   74HK4    C12 6169   3.807   5.747   3.451  0.2402 -0.7356 -0.6452
   74HK4     H5 6170   3.858   5.839   3.479 -1.2223  0.3177 -1.3743
   74HK4    C13 6171   3.857   5.622   3.487  0.7353 -0.0553  1.0604
   74HK4     H6 6172   3.958   5.614   3.529  0.3515 -3.4635  1.4705
   74HK4     C7 6173   3.483   5.638   3.297  0.4209  0.0528 -0.4849
   74HK4     O2 6174   3.443   5.748   3.259 -0.0477 -0.0103 -0.1827
   74HK4     C4 6175   3.418   5.513   3.251 -0.2101  0.1728  0.0562
   74HK4     C3 6176   3.318   5.523   3.155 -0.3297 -0.3201  0.1292
   74HK4     H3 6177   3.248   5.607   3.142 -1.2123 -1.3199 -1.6893
   74HK4     C2 6178   3.293   5.404   3.087  0.1005 -0.0218 -0.5543
   74HK4     H2 6179   3.218   5.404   3.007 -0.6076  1.0196  0.1016
   74HK4     C1 6180   3.348   5.283   3.128 -0.1673  0.1568  0.3625
   74HK4     H1 6181   3.313   5.194   3.073  2.5893  1.0071 -2.9416
   74HK4     C6 6182   3.437   5.267   3.236 -0.1265 -0.0395  0.3004
   74HK4     C5 6183   3.467   5.389   3.298  0.5614  0.2344 -0.5708
   74HK4    C10 6184   3.575   5.390   3.401  0.0811  0.1260 -0.0645
   74HK4     O1 6185   3.562   5.311   3.494 -0.2715  0.4273  0.1447
   74HK4    C16 6186   3.518   5.145   3.231 -0.5198 -0.2916  0.0228
   74HK4    C15 6187   3.552   5.093   3.105  0.9328  1.0416 -0.1550
   74HK4     H7 6188   3.527   5.155   3.018 -2.0111  1.8235  1.1821
   74HK4    C20 6189   3.628   4.978   3.085 -0.4194  0.0783  0.1490
   74HK4     H9 6190   3.678   4.963   2.989 -0.1100 -1.8729  0.5964
   74HK4    C19 6191   3.673   4.905   3.195 -0.2384 -0.1421 -0.0715
   74HK4    C18 6192   3.623   4.943   3.326  0.3610  0.1693  0.0659
   74HK4    C17 6193   3.548   5.060   3.337  0.2576  0.0978  0.1209
   74HK4     H8 6194   3.492   5.070   3.430 -2.1264 -0.6691 -1.2032
   74HK4     N1 6195   3.638   4.841   3.422  0.0594 -0.0346 -0.1008
   74HK4    C21 6196   3.706   4.738   3.354 -0.1320 -0.2897  0.0979
   74HK4    C22 6197   3.731   4.774   3.216 -0.0364 -0.0099  0.1883
   74HK4    C26 6198   3.784   4.680   3.128 -0.2225  0.1386 -0.0839
   74HK4    H13 6199   3.796   4.703   3.022  0.0976  0.6136  0.0527
   74HK4    C25 6200   3.827   4.555   3.169 -0.6973 -0.1420 -0.4311
   74HK4    H12 6201   3.896   4.493   3.113 -0.1858 -0.7381  0.8204
   74HK4    C24 6202   3.805   4.525   3.303 -0.0219  0.3424 -0.2073
   74HK4    H11 6203   3.838   4.430   3.349  1.1419  0.7735 -0.1295
   74HK4    C23 6204   3.743   4.610   3.395 -0.0752 -0.2158  0.2806
   74HK4    H10 6205   3.738   4.584   3.500  3.1694 -1.0723  0.3065
   74HK4    C39 6206   3.635   4.861   3.561 -0.0413 -0.7438  0.0002
   74HK4    C41 6207   3.595   4.759   3.649  0.6310 -0.8039  0.2357
   74HK4    H21 6208   3.536   4.679   3.602 -0.1984 -0.2840  0.3751
   74HK4    C42 6209   3.616   4.768   3.786 -0.0094  0.1151  0.2789
   74HK4    H22 6210   3.569   4.701   3.860  2.8416 -1.1122  1.0415
   74HK4    C43 6211   3.678   4.882   3.836 -0.1276  0.2973  0.0130
   74HK4    H23 6212   3.704   4.889   3.942 -0.3752  0.9643  0.0324
   74HK4    C44 6213   3.727   4.983   3.755  0.0508  0.0831 -0.1425
   74HK4    H24 6214   3.784   5.066   3.799  0.4677  0.5334 -1.5085
   74HK4    C45 6215   3.701   4.972   3.619 -0.0089 -0.7278 -0.0656
   74HK4    H25 6216   3.727   5.059   3.556 -1.2428 -0.8963 -0.8293
   75HK4    H28 6217   2.725   1.464   9.821 -1.9060 -1.1398 -0.1900
   75HK4    C48 6218   2.771   1.389   9.755  0.0561 -0.4390  0.3490
   75HK4    C47 6219   2.695   1.293   9.689 -0.2684  0.1705 -0.1682
   75HK4    H27 6220   2.591   1.279   9.719 -0.8500  2.3029 -1.0712
   75HK4    C46 6221   2.750   1.210   9.593 -0.2004  0.0348 -0.0126
   75HK4    H26 6222   2.689   1.137   9.537  0.3456 -0.3293 -0.1399
   75HK4    C40 6223   2.884   1.224   9.552 -0.1644 -0.0728  0.0685
   75HK4    C50 6224   2.963   1.321   9.618 -0.4265  0.3714 -0.2675
   75HK4    H30 6225   3.050   1.366   9.566 -1.1951 -0.6195 -2.4851
   75HK4    C49 6226   2.906   1.394   9.721 -0.1268  0.6062 -0.2649
   75HK4    H29 6227   2.966   1.432   9.805  0.1566  1.8642 -1.0227
   75HK4     N2 6228   2.919   1.182   9.423  0.1317  0.0560  0.1029
   75HK4    C30 6229   2.830   1.153   9.318  0.1189  0.4527  0.0028
   75HK4    C29 6230   2.713   1.216   9.278 -0.1722 -0.1224 -0.0613
   75HK4    H15 6231   2.667   1.290   9.344  1.4682  0.5729  0.3067
   75HK4    C28 6232   2.659   1.205   9.150 -0.3797 -0.2049  0.0305
   75HK4    C27 6233   2.711   1.099   9.073  0.6298  0.1622  0.1929
   75HK4    H14 6234   2.648   1.048   8.998 -1.7828  0.3987  2.0074
   75HK4    C32 6235   2.833   1.040   9.103  0.3932 -0.4454 -0.0216
   75HK4    H16 6236   2.882   0.973   9.032 -0.7909  0.3058 -1.5765
   75HK4    C31 6237   2.897   1.066   9.223 -0.5515 -0.6498  0.5267
   75HK4    C34 6238   3.033   1.049   9.271 -0.2815 -0.2150 -0.0886
   75HK4    C33 6239   3.047   1.141   9.381 -0.0241 -0.1600 -0.1675
   75HK4    C35 6240   3.177   1.178   9.414  0.2842 -0.6218 -0.8579
   75HK4    H17 6241   3.197   1.241   9.501 -0.0739 -1.2755 -0.2987
   75HK4    C36 6242   3.290   1.140   9.342  0.6720  0.1591 -0.6715
   75HK4    H18 6243   3.383   1.189   9.373  0.5076 -0.0671  0.1895
   75HK4    C37 6244   3.272   1.049   9.239 -0.1395  0.0360 -0.4340
   75HK4    H19 6245   3.361   1.016   9.184 -0.0634  0.7495 -0.7438
   75HK4    C38 6246   3.145   1.012   9.196 -0.1873 -0.5561  0.2192
   75HK4    H20 6247   3.140   0.961   9.100 -1.0911  1.2196 -0.7102
   75HK4    C14 6248   2.553   1.292   9.098  0.1011  0.0582 -0.5162
   75HK4     C9 6249   2.480   1.259   8.983 -0.2727 -0.0412 -0.2520
   75HK4     C8 6250   2.474   1.346   8.872  0.1081 -0.0702 -0.3000
   75HK4    C11 6251   2.517   1.478   8.889  0.1507 -0.1972  0.6253
   75HK4     H4 6252   2.527   1.539   8.798  1.1355 -3.3931 -1.5274
   75HK4    C12 6253   2.570   1.519   9.011  0.2500  0.3774  0.3865
   75HK4     H5 6254   2.596   1.625   9.025  1.9348 -0.4102  3.4821
   75HK4    C13 6255   2.586   1.428   9.114  0.4582 -0.0856 -0.0487
   75HK4     H6 6256   2.621   1.454   9.215 -1.8691 -0.7886  0.9780
   75HK4     C7 6257   2.410   1.314   8.743 -0.0666 -0.1789 -0.1834
   75HK4     O2 6258   2.467   1.336   8.636  0.1357  0.4110  0.0463
   75HK4     C4 6259   2.309   1.206   8.752 -0.4604  0.2111  0.0865
   75HK4     C3 6260   2.215   1.207   8.649 -0.5752  0.3131  0.1938
   75HK4     H3 6261   2.223   1.278   8.566 -1.2983 -0.3791 -0.4710
   75HK4     C2 6262   2.107   1.120   8.656 -0.3702  0.0514  0.1266
   75HK4     H2 6263   2.035   1.119   8.573 -0.7961  0.1091  0.5008
   75HK4     C1 6264   2.105   1.025   8.757  0.1309 -0.3413 -0.2276
   75HK4     H1 6265   2.038   0.940   8.738  0.8994 -0.8567 -0.6794
   75HK4     C6 6266   2.204   1.011   8.857  0.0498 -0.0975 -0.1128
   75HK4     C5 6267   2.298   1.115   8.860 -0.5845  0.4728  0.2975
   75HK4    C10 6268   2.383   1.146   8.978 -0.4536  0.0929  0.3055
   75HK4     O1 6269   2.349   1.099   9.087 -0.5759  0.0967  0.2696
   75HK4    C16 6270   2.186   0.906   8.957  0.3704  0.1007  0.1558
   75HK4    C15 6271   2.056   0.872   9.000  0.5126 -0.2245  0.3304
   75HK4     H7 6272   1.975   0.945   8.982 -0.6475 -0.5570  3.8546
   75HK4    C20 6273   2.035   0.752   9.068  0.1371 -0.4540 -0.1818
   75HK4     H9 6274   1.935   0.738   9.108 -0.9416 -1.2987 -3.1000
   75HK4    C19 6275   2.137   0.660   9.094 -0.2040 -0.6979  0.3007
   75HK4    C18 6276   2.267   0.694   9.040 -0.4011 -0.1908  0.1350
   75HK4    C17 6277   2.289   0.814   8.973  0.0086 -0.3360  0.0101
   75HK4     H8 6278   2.388   0.850   8.945 -0.7946  0.5912 -1.6572
   75HK4     N1 6279   2.360   0.591   9.065 -0.0676  0.2156  0.5830
   75HK4    C21 6280   2.287   0.492   9.135  0.0541 -0.2540  0.0529
   75HK4    C22 6281   2.146   0.526   9.148  0.0104 -0.6026  0.4989
   75HK4    C26 6282   2.051   0.428   9.168 -0.5744 -0.1544 -0.0616
   75HK4    H13 6283   1.950   0.462   9.194 -0.7928 -0.7110 -0.1593
   75HK4    C25 6284   2.085   0.293   9.173  0.0065 -0.0085 -0.0634
   75HK4    H12 6285   2.006   0.218   9.163 -0.6258  0.1750  3.2365
   75HK4    C24 6286   2.220   0.261   9.169 -0.0676 -0.2919 -0.3296
   75HK4    H11 6287   2.253   0.157   9.186  1.9461 -0.0831 -2.7618
   75HK4    C23 6288   2.318   0.358   9.151 -0.0288 -0.2990 -0.1579
   75HK4    H10 6289   2.422   0.333   9.168  0.6794  0.5082 -2.9739
   75HK4    C39 6290   2.498   0.605   9.077  0.0424  0.1893 -0.5962
   75HK4    C41 6291   2.583   0.495   9.050 -0.1094 -0.2053  0.5205
   75HK4    H21 6292   2.541   0.424   8.976  1.5932  1.6057 -2.2821
   75HK4    C42 6293   2.718   0.502   9.080 -0.0859 -0.3548  0.4502
   75HK4    H22 6294   2.786   0.437   9.022  2.6632  1.7177  1.2962
   75HK4    C43 6295   2.773   0.621   9.125  0.3202 -0.0864 -0.7456
   75HK4    H23 6296   2.878   0.645   9.109  0.7340 -0.1909  1.6112
   75HK4    C44 6297   2.691   0.727   9.161 -0.0549 -0.3747 -0.7502
   75HK4    H24 6298   2.743   0.811   9.209  3.0953 -1.4302 -2.2406
   75HK4    C45 6299   2.554   0.720   9.136 -0.0680  0.4074 -0.9109
   75HK4    H25 6300   2.489   0.803   9.166 -1.2131  0.0552 -2.3458
   76HK4    H28 6301   2.742   4.395  10.876  0.1005 -0.0044  0.8712
   76HK4    C48 6302   2.747   4.300  10.823 -0.0197  0.2907  0.3361
   76HK4    C47 6303   2.779   4.182  10.889 -0.5520 -0.0799 -0.0658
   76HK4    H27 6304   2.805   4.186  10.996 -2.9514  1.1127  0.5079
   76HK4    C46 6305   2.762   4.063  10.820  0.5016 -0.1470 -0.2211
   76HK4    H26 6306   2.784   3.967  10.870 -0.5626  0.8358  2.1943
   76HK4    C40 6307   2.706   4.061  10.690  0.3811  0.3210 -0.1793
   76HK4    C50 6308   2.679   4.183  10.626 -0.0473 -0.1546 -0.9075
   76HK4    H30 6309   2.620   4.187  10.533 -0.4815  0.8142 -0.6003
   76HK4    C49 6310   2.703   4.304  10.691 -0.2746 -0.7998  0.3850
   76HK4    H29 6311   2.670   4.401  10.652 -0.8492 -0.0420  2.7028
   76HK4     N2 6312   2.635   3.953  10.637 -0.2974  0.7519 -0.1501
   76HK4    C30 6313   2.576   3.854  10.718  0.2193  0.1713 -0.4756
   76HK4    C29 6314   2.516   3.857  10.844 -0.1553 -0.2802 -0.6451
   76HK4    H15 6315   2.520   3.949  10.902 -0.8101 -0.0573 -0.9355
   76HK4    C28 6316   2.447   3.753  10.905 -0.4171  0.3419  0.1257
   76HK4    C27 6317   2.441   3.632  10.834  0.6434  0.2936  0.1061
   76HK4    H14 6318   2.376   3.547  10.860  0.6282  1.1978  3.1803
   76HK4    C32 6319   2.488   3.624  10.704 -0.1722 -0.1506 -0.1680
   76HK4    H16 6320   2.454   3.539  10.645  1.1685 -1.2223  0.5697
   76HK4    C31 6321   2.557   3.730  10.646 -0.3062 -0.0002 -0.0504
   76HK4    C34 6322   2.601   3.761  10.511  0.3135 -0.1672  0.1085
   76HK4    C33 6323   2.644   3.900  10.506  0.3372 -0.1688  0.2652
   76HK4    C35 6324   2.706   3.951  10.393 -0.5764  0.5484  0.0826
   76HK4    H17 6325   2.760   4.046  10.383  3.7265 -1.9449 -1.6643
   76HK4    C36 6326   2.717   3.866  10.284  0.2534 -0.0075  0.6020
   76HK4    H18 6327   2.739   3.905  10.184 -1.1105 -0.6955  0.0094
   76HK4    C37 6328   2.676   3.733  10.287  0.1048  0.0160 -0.2993
   76HK4    H19 6329   2.679   3.679  10.192  3.0756 -0.0579 -0.2345
   76HK4    C38 6330   2.611   3.681  10.398  0.4141  0.1051 -0.0746
   76HK4    H20 6331   2.581   3.577  10.408  0.3342  0.1350  0.0000
   76HK4    C14 6332   2.419   3.751  11.049 -0.2473 -0.5074  0.1442
   76HK4     C9 6333   2.398   3.633  11.123  0.2362 -0.2692  0.6622
   76HK4     C8 6334   2.311   3.633  11.234 -0.3649  0.3845  0.2023
   76HK4    C11 6335   2.246   3.752   0.016 -0.7363  0.2588 -0.1092
   76HK4     H4 6336   2.158   3.750   0.081 -0.4444 -1.4937  0.2518
   76HK4    C12 6337   2.273   3.874  11.202  0.1230  0.6272  0.9731
   76HK4     H5 6338   2.213   3.964  11.225  1.0119  2.0535 -2.0630
   76HK4    C13 6339   2.364   3.871  11.097 -0.7042 -0.7673  0.2752
   76HK4     H6 6340   2.420   3.962  11.071  2.1695 -2.3698  0.5931
   76HK4     C7 6341   2.283   3.506   0.057 -0.0994  0.2781  0.1188
   76HK4     O2 6342   2.203   3.508   0.151  0.2460 -0.7321  0.4421
   76HK4     C4 6343   2.343   3.380   0.008 -0.0404  0.3070  0.1172
   76HK4     C3 6344   2.301   3.260   0.065  0.1033  0.0011 -0.4197
   76HK4     H3 6345   2.207   3.260   0.122 -1.7403  0.6204 -3.3780
   76HK4     C2 6346   2.345   3.138   0.016  0.5681 -0.1502  0.3619
   76HK4     H2 6347   2.295   3.046   0.051 -0.8471  0.2558 -0.5447
   76HK4     C1 6348   2.424   3.143  11.150  0.0817  0.0625  0.0311
   76HK4     H1 6349   2.460   3.044  11.119  0.6088 -0.3376  1.9122
   76HK4     C6 6350   2.477   3.259  11.089  0.5071  0.1370  0.5502
   76HK4     C5 6351   2.440   3.377  11.154  0.2084  0.1493  0.3524
   76HK4    C10 6352   2.482   3.512  11.105  0.4895 -0.0169  0.1403
   76HK4     O1 6353   2.603   3.531  11.093  0.4402  0.2630  0.0967
   76HK4    C16 6354   2.522   3.241  10.950 -0.3650 -0.6201  0.3645
   76HK4    C15 6355   2.462   3.152  10.859 -0.7500  0.6152 -0.5914
   76HK4     H7 6356   2.370   3.097  10.884 -0.9002  1.7430  1.4126
   76HK4    C20 6357   2.513   3.133  10.731 -0.2132  0.0873 -0.3020
   76HK4     H9 6358   2.477   3.050  10.669  1.6505 -1.3874  0.5381
   76HK4    C19 6359   2.629   3.197  10.691 -0.0694  0.0816  0.1067
   76HK4    C18 6360   2.701   3.281  10.785 -0.1584  0.1196  0.1373
   76HK4    C17 6361   2.644   3.295  10.911 -0.5109 -0.5225  0.0494
   76HK4     H8 6362   2.703   3.336  10.992 -0.9546  1.4523 -0.6021
   76HK4     N1 6363   2.819   3.327  10.723 -0.0506  0.0633  0.3040
   76HK4    C21 6364   2.823   3.272  10.594  0.1672  0.4623  0.1386
   76HK4    C22 6365   2.699   3.203  10.564  0.1274  0.4929  0.2305
   76HK4    C26 6366   2.669   3.149  10.439 -0.6271  1.1235  0.1335
   76HK4    H13 6367   2.594   3.071  10.439  1.1124 -0.5828  0.5491
   76HK4    C25 6368   2.760   3.168  10.336 -0.4113  0.3942  0.1848
   76HK4    H12 6369   2.739   3.136  10.234  1.7193  0.2606 -0.2473
   76HK4    C24 6370   2.880   3.234  10.364 -0.1366 -0.2254  0.4796
   76HK4    H11 6371   2.954   3.243  10.284 -1.3306  0.3236 -0.5867
   76HK4    C23 6372   2.916   3.278  10.491  0.1466  0.5710  0.1266
   76HK4    H10 6373   3.022   3.295  10.512 -0.4964  0.5185  3.6896
   76HK4    C39 6374   2.889   3.437  10.776  0.3850 -0.0761  0.0133
   76HK4    C41 6375   3.027   3.449  10.747  0.3203 -0.0777 -0.2993
   76HK4    H21 6376   3.080   3.353  10.738 -0.5016 -0.5937  0.2114
   76HK4    C42 6377   3.100   3.567  10.740  0.5059 -0.1743 -0.0036
   76HK4    H22 6378   3.203   3.572  10.703  0.1942  4.0536 -0.4805
   76HK4    C43 6379   3.029   3.686  10.753 -0.1385 -0.4507 -0.9440
   76HK4    H23 6380   3.077   3.783  10.735  1.1020 -0.0962  3.5932
   76HK4    C44 6381   2.895   3.683  10.786  0.2591 -0.0624  0.7531
   76HK4    H24 6382   2.841   3.778  10.799  1.1410  0.6443 -0.7075
   76HK4    C45 6383   2.828   3.562  10.798  0.2380 -0.1335 -0.0687
   76HK4    H25 6384   2.720   3.554  10.819  0.7844 -1.8004  2.3179
   77HK4    H28 6385   2.921   5.632   2.983 -0.3519 -0.2474 -1.6296
   77HK4    C48 6386   3.020   5.675   2.970 -0.1501 -0.0676  0.3282
   77HK4    C47 6387   3.110   5.604   2.891  0.0354  0.4583  0.0632
   77HK4    H27 6388   3.084   5.499   2.872  1.6078 -0.3333  2.1727
   77HK4    C46 6389   3.220   5.668   2.836  0.2570 -0.1466 -0.2019
   77HK4    H26 6390   3.311   5.613   2.810 -0.0723 -0.9601  0.3537
   77HK4    C40 6391   3.239   5.806   2.858 -0.3174 -0.0581 -0.2603
   77HK4    C50 6392   3.153   5.874   2.947  0.6651  0.3983  0.3386
   77HK4    H30 6393   3.165   5.976   2.987 -0.0566 -0.0981  1.8698
   77HK4    C49 6394   3.045   5.808   3.004  0.5062  0.0054 -0.4221
   77HK4    H29 6395   2.970   5.868   3.056  1.0884 -0.5946  1.1478
   77HK4     N2 6396   3.324   5.884   2.778 -0.1149  0.1077  0.1159
   77HK4    C30 6397   3.398   5.995   2.823  1.0370 -0.6240  0.0539
   77HK4    C29 6398   3.429   6.034   2.953  0.0835  0.0830  0.0764
   77HK4    H15 6399   3.391   5.978   3.039  1.6390 -1.5868 -0.2929
   77HK4    C28 6400   3.537   6.118   2.979  0.0794  0.1714 -0.1854
   77HK4    C27 6401   3.611   6.171   2.871  0.1055  0.0620 -0.2209
   77HK4    H14 6402   3.695   6.241   2.881 -0.3711  0.4906  0.9690
   77HK4    C32 6403   3.573   6.146   2.740 -0.1202  0.3783 -0.2175
   77HK4    H16 6404   3.644   6.169   2.661  0.6574 -0.2782  0.2847
   77HK4    C31 6405   3.468   6.058   2.714  0.4797 -0.3636 -0.1563
   77HK4    C34 6406   3.451   5.973   2.597 -0.2826 -0.0535 -0.2711
   77HK4    C33 6407   3.359   5.871   2.642  0.1706 -0.2498  0.2227
   77HK4    C35 6408   3.341   5.761   2.559  0.0255 -0.1365  0.1017
   77HK4    H17 6409   3.288   5.670   2.588  1.9903 -1.4437 -0.3372
   77HK4    C36 6410   3.407   5.756   2.436 -0.0596  0.1907  0.0425
   77HK4    H18 6411   3.378   5.689   2.354  0.7104 -0.5773  0.3806
   77HK4    C37 6412   3.497   5.853   2.394 -0.0760  0.0717 -0.2673
   77HK4    H19 6413   3.561   5.835   2.308 -1.8009  1.6018 -1.9125
   77HK4    C38 6414   3.514   5.966   2.474 -0.1012  0.0165 -0.1815
   77HK4    H20 6415   3.590   6.042   2.455 -0.9545  0.5235 -1.6056
   77HK4    C14 6416   3.539   6.185   3.110  0.2150 -0.2147  0.0086
   77HK4     C9 6417   3.582   6.316   3.130 -0.4582  0.0143 -0.0329
   77HK4     C8 6418   3.639   6.346   3.255 -0.0937  0.5001 -0.3110
   77HK4    C11 6419   3.643   6.251   3.356 -0.7095  0.3158 -0.4583
   77HK4     H4 6420   3.700   6.269   3.448  0.4178 -0.3532 -1.0103
   77HK4    C12 6421   3.596   6.121   3.340  0.3071 -0.1411  0.1857
   77HK4     H5 6422   3.619   6.041   3.411  2.2000  0.8074  0.6864
   77HK4    C13 6423   3.542   6.091   3.215  0.5671 -0.1365  0.0702
   77HK4     H6 6424   3.490   5.994   3.215 -1.3985  0.8801 -0.8732
   77HK4     C7 6425   3.680   6.485   3.285  0.4438  0.3222 -0.2175
   77HK4     O2 6426   3.770   6.506   3.366  0.4601 -0.5317 -0.0138
   77HK4     C4 6427   3.641   6.591   3.190 -0.4666  0.3287  0.1593
   77HK4     C3 6428   3.659   6.722   3.233 -0.6214  0.2073  0.5945
   77HK4     H3 6429   3.703   6.751   3.329 -0.9428 -0.0581  0.8190
   77HK4     C2 6430   3.611   6.829   3.157  0.1859 -0.1425 -0.4355
   77HK4     H2 6431   3.637   6.930   3.192 -2.2382 -0.1300  1.5322
   77HK4     C1 6432   3.555   6.797   3.034 -0.6226 -0.2270 -0.0512
   77HK4     H1 6433   3.494   6.874   2.986 -1.2199 -0.2478  0.6706
   77HK4     C6 6434   3.549   6.667   2.979  0.0448 -0.3319  0.1207
   77HK4     C5 6435   3.586   6.561   3.063  0.4917 -0.3526 -0.1008
   77HK4    C10 6436   3.541   6.422   3.034  0.0990 -0.1503 -0.4548
   77HK4     O1 6437   3.436   6.402   2.974  0.0513 -0.4352 -0.2754
   77HK4    C16 6438   3.568   6.668   2.833  0.3041 -0.1017  0.1540
   77HK4    C15 6439   3.655   6.762   2.774  0.3421 -0.1554  0.1253
   77HK4     H7 6440   3.728   6.805   2.844  1.1759  0.9173 -1.3751
   77HK4    C20 6441   3.636   6.804   2.643 -0.6324  0.2164  0.3759
   77HK4     H9 6442   3.698   6.888   2.611  0.8615 -0.7317  0.7005
   77HK4    C19 6443   3.539   6.750   2.559 -0.4997 -0.2221  0.5027
   77HK4    C18 6444   3.455   6.643   2.611 -0.2374 -0.4269  0.5077
   77HK4    C17 6445   3.472   6.617   2.746  0.3526 -0.6189  0.4007
   77HK4     H8 6446   3.396   6.547   2.780 -1.3435  0.6728 -0.6548
   77HK4     N1 6447   3.336   6.635   2.535  0.1141  0.1440 -0.1149
   77HK4    C21 6448   3.344   6.738   2.440  0.0453  0.3242  0.0721
   77HK4    C22 6449   3.473   6.803   2.441  0.1025  0.2033  0.3602
   77HK4    C26 6450   3.522   6.886   2.341 -0.3793  0.0187 -0.0231
   77HK4    H13 6451   3.628   6.911   2.342 -0.4997  0.4775  1.1063
   77HK4    C25 6452   3.436   6.913   2.235  0.1018  1.0919 -0.1438
   77HK4    H12 6453   3.465   6.972   2.148  1.6721 -1.4943 -1.4511
   77HK4    C24 6454   3.307   6.860   2.234  0.4852  0.1482 -0.4138
   77HK4    H11 6455   3.248   6.874   2.143  1.5615  0.8148 -1.0209
   77HK4    C23 6456   3.262   6.773   2.332  0.4536  0.3800 -0.2210
   77HK4    H10 6457   3.160   6.737   2.324  0.9796 -1.2360  0.0492
   77HK4    C39 6458   3.252   6.523   2.530  0.4632 -0.0893 -0.7546
   77HK4    C41 6459   3.120   6.540   2.485 -0.2252  0.4527  1.3950
   77HK4    H21 6460   3.075   6.641   2.479 -2.9628 -0.8332 -1.0745
   77HK4    C42 6461   3.034   6.439   2.443 -0.1635  0.6413  0.8099
   77HK4    H22 6462   2.935   6.457   2.398 -0.2950 -0.6139  0.5815
   77HK4    C43 6463   3.083   6.310   2.437  0.4885  0.9143  0.1865
   77HK4    H23 6464   3.024   6.224   2.405  0.2783  0.8740  0.6798
   77HK4    C44 6465   3.214   6.286   2.475  0.3016 -0.0021  0.2777
   77HK4    H24 6466   3.258   6.185   2.485  0.1418 -0.0976  0.0100
   77HK4    C45 6467   3.293   6.388   2.528  0.2149 -0.2068  0.8087
   77HK4    H25 6468   3.391   6.367   2.573  0.9845 -0.6250 -1.0122
   78HK4    H28 6469   7.509   5.647   4.839 -0.2585  0.1001  0.9634
   78HK4    C48 6470   7.440   5.708   4.781 -0.2179 -0.4341  0.3387
   78HK4    C47 6471   7.341   5.773   4.854  0.3660  0.1401  0.6261
   78HK4    H27 6472   7.357   5.790   4.961 -0.2469 -1.9692  1.0840
   78HK4    C46 6473   7.218   5.802   4.797  0.3176 -0.7941  0.2492
   78HK4    H26 6474   7.143   5.848   4.863  0.8702  1.9291 -0.9654
   78HK4    C40 6475   7.191   5.777   4.660  0.0481 -0.2183  0.1977
   78HK4    C50 6476   7.299   5.724   4.587  0.0325 -0.1164  0.1013
   78HK4    H30 6477   7.295   5.706   4.479 -1.0397 -2.7083  0.5296
   78HK4    C49 6478   7.418   5.682   4.646 -0.0688 -0.1777  0.2635
   78HK4    H29 6479   7.472   5.605   4.590  0.1733  1.1313 -1.3278
   78HK4     N2 6480   7.062   5.779   4.606  0.0043  0.2510  0.3179
   78HK4    C30 6481   6.942   5.760   4.677 -0.0433 -0.2053  0.1179
   78HK4    C29 6482   6.911   5.675   4.783 -0.1172 -0.3832 -0.0467
   78HK4    H15 6483   6.977   5.588   4.788  1.8726  1.1384  1.1631
   78HK4    C28 6484   6.787   5.679   4.846 -0.0847 -0.4791  0.0219
   78HK4    C27 6485   6.689   5.765   4.793 -0.1621 -0.6419 -0.0956
   78HK4    H14 6486   6.591   5.781   4.840 -0.2251 -2.7814  0.5366
   78HK4    C32 6487   6.708   5.834   4.673  0.0961  0.5356  0.6068
   78HK4    H16 6488   6.629   5.898   4.634 -0.3699 -1.0322 -1.1245
   78HK4    C31 6489   6.833   5.831   4.613  0.0353  0.2523  0.4879
   78HK4    C34 6490   6.888   5.882   4.489  0.1922 -0.0043  0.4523
   78HK4    C33 6491   7.030   5.851   4.489  0.1290 -0.3018 -0.0575
   78HK4    C35 6492   7.105   5.897   4.381 -0.1724  0.1963 -0.0575
   78HK4    H17 6493   7.210   5.869   4.378  0.3041  2.0383 -1.0928
   78HK4    C36 6494   7.051   5.977   4.281  0.1554  0.8427  0.2801
   78HK4    H18 6495   7.115   6.004   4.196  0.7666  0.4600  0.6184
   78HK4    C37 6496   6.919   6.019   4.292 -0.0982  0.0805  0.1688
   78HK4    H19 6497   6.882   6.112   4.249 -0.6175  0.6404  1.7731
   78HK4    C38 6498   6.836   5.966   4.391  0.2718  0.0757  0.4785
   78HK4    H20 6499   6.747   6.024   4.416 -0.5528 -1.9242  2.3815
   78HK4    C14 6500   6.784   5.633   4.986  0.4407 -0.4984  0.0284
   78HK4     C9 6501   6.694   5.691   5.076  0.0226 -0.7384 -0.2354
   78HK4     C8 6502   6.750   5.744   5.194 -0.5189  0.2130 -0.3962
   78HK4    C11 6503   6.880   5.709   5.230 -0.5981  0.1062 -0.2180
   78HK4     H4 6504   6.948   5.782   5.277 -0.1431  0.8780 -2.0269
   78HK4    C12 6505   6.951   5.609   5.166  0.5328  0.6559  0.1693
   78HK4     H5 6506   7.056   5.593   5.197  0.2301 -0.7695  0.4821
   78HK4    C13 6507   6.898   5.572   5.043  0.1088 -0.5011  0.6941
   78HK4     H6 6508   6.941   5.485   4.991  0.9772  0.0928  0.4218
   78HK4     C7 6509   6.671   5.828   5.286 -0.1603  0.2012 -0.0751
   78HK4     O2 6510   6.724   5.919   5.350  0.0495 -0.1114  0.1934
   78HK4     C4 6511   6.524   5.822   5.270 -0.1637  0.3491 -0.0964
   78HK4     C3 6512   6.446   5.899   5.354  0.1001  0.1103  0.3711
   78HK4     H3 6513   6.491   5.985   5.406 -0.9983  1.3990 -0.7539
   78HK4     C2 6514   6.313   5.867   5.379 -0.0259  0.4634  0.1590
   78HK4     H2 6515   6.253   5.931   5.446 -1.1628 -1.4608  1.0120
   78HK4     C1 6516   6.258   5.763   5.305  0.3321  0.0570  0.4628
   78HK4     H1 6517   6.153   5.733   5.322  1.0972 -3.9941 -1.4159
   78HK4     C6 6518   6.335   5.679   5.223 -0.1332  0.1226 -0.0391
   78HK4     C5 6519   6.466   5.717   5.195  0.0455 -0.1425  0.4271
   78HK4    C10 6520   6.548   5.665   5.081 -0.0797 -0.0668  0.3033
   78HK4     O1 6521   6.481   5.631   4.983  0.3979 -0.1537  0.0083
   78HK4    C16 6522   6.271   5.554   5.177 -0.2186 -0.2548  1.0893
   78HK4    C15 6523   6.132   5.542   5.156 -0.0814 -0.4290  0.2672
   78HK4     H7 6524   6.079   5.633   5.123 -1.4963 -0.5701  2.0354
   78HK4    C20 6525   6.065   5.422   5.132 -0.3283 -0.1966 -0.1991
   78HK4     H9 6526   5.956   5.422   5.136 -0.3261 -1.5255 -0.1203
   78HK4    C19 6527   6.138   5.304   5.120  0.0927  0.0464 -0.0396
   78HK4    C18 6528   6.281   5.315   5.137  0.1208  0.0368 -0.2625
   78HK4    C17 6529   6.343   5.436   5.167  0.0642  0.0115 -0.0406
   78HK4     H8 6530   6.446   5.437   5.200  0.1024 -0.8773 -0.1106
   78HK4     N1 6531   6.342   5.191   5.111  0.1588 -0.1138  0.5306
   78HK4    C21 6532   6.236   5.104   5.079  0.3632 -0.3221  0.4195
   78HK4    C22 6533   6.106   5.168   5.082  0.5392  0.0870 -0.5605
   78HK4    C26 6534   5.989   5.100   5.052  0.2207  0.5124 -0.2882
   78HK4    H13 6535   5.893   5.152   5.058  0.4628  0.9656 -0.4095
   78HK4    C25 6536   5.992   4.963   5.028  0.0562  0.3686  0.4783
   78HK4    H12 6537   5.910   4.919   4.972 -2.0481  2.7071  1.6595
   78HK4    C24 6538   6.117   4.902   5.030  0.0718  0.3643 -0.3834
   78HK4    H11 6539   6.131   4.808   4.974 -1.9946  1.2193 -2.3913
   78HK4    C23 6540   6.238   4.967   5.053  0.3243 -0.2575  0.0655
   78HK4    H10 6541   6.334   4.917   5.047 -0.5680 -1.9090 -0.8913
   78HK4    C39 6542   6.477   5.179   5.076  0.0474  0.5388 -0.1171
   78HK4    C41 6543   6.547   5.059   5.098 -0.3542  0.2388 -0.4875
   78HK4    H21 6544   6.505   4.976   5.157 -2.1944  0.9445 -0.7656
   78HK4    C42 6545   6.670   5.039   5.036  0.1341  0.3169  0.4497
   78HK4    H22 6546   6.725   4.943   5.041 -1.1332 -0.4732 -0.3446
   78HK4    C43 6547   6.730   5.138   4.960  0.1368 -0.4663 -0.5832
   78HK4    H23 6548   6.824   5.123   4.907 -0.6707 -0.6081 -2.0284
   78HK4    C44 6549   6.664   5.259   4.941  0.1982 -0.3459 -0.0330
   78HK4    H24 6550   6.711   5.339   4.881  1.1420  0.1170  1.2994
   78HK4    C45 6551   6.534   5.274   4.987  0.3372  0.5532  0.0844
   78HK4    H25 6552   6.473   5.354   4.943  0.6697  0.3072 -0.8208
   79HK4    H28 6553   9.408   0.963   8.434  0.2366 -0.2922  0.8378
   79HK4    C48 6554   9.438   1.051   8.491 -0.8209  0.6339  0.0005
   79HK4    C47 6555   9.438   1.053   8.630  0.6359  0.3155  0.0129
   79HK4    H27 6556   9.452   0.957   8.682  1.0637  0.0437 -0.5989
   79HK4    C46 6557   9.455   1.176   8.692  0.3194  0.1151  0.5000
   79HK4    H26 6558   9.422   1.178   8.797 -4.3846 -1.5377 -0.8299
   79HK4    C40 6559   9.486   1.297   8.626 -0.0604  0.0164  0.1387
   79HK4    C50 6560   9.487   1.284   8.486 -0.4964  0.3242  0.1029
   79HK4    H30 6561   9.477   1.371   8.419  0.5408  0.2021 -0.2238
   79HK4    C49 6562   9.471   1.164   8.418  0.1222  0.3289 -0.0534
   79HK4    H29 6563   9.501   1.169   8.312 -1.5382  0.7093 -0.5206
   79HK4     N2 6564   9.510   1.414   8.699 -0.2386 -0.1820  0.5150
   79HK4    C30 6565   9.484   1.432   8.836  0.1243 -0.3296  0.6072
   79HK4    C29 6566   9.374   1.399   8.914 -0.3503 -0.1888  0.0045
   79HK4    H15 6567   9.282   1.376   8.860 -0.3543  1.0209 -0.4989
   79HK4    C28 6568   9.366   1.431   9.049 -0.0505 -0.3887  0.0731
   79HK4    C27 6569   9.481   1.490   9.105 -0.2653  0.2389 -0.1515
   79HK4    H14 6570   9.472   1.530   9.207 -0.3724  0.8491 -0.3956
   79HK4    C32 6571   9.580   1.549   9.028 -0.2463  0.4360  0.0269
   79HK4    H16 6572   9.646   1.628   9.067  0.9894  0.6914 -2.4641
   79HK4    C31 6573   9.583   1.523   8.892 -0.1620  0.3318  0.0457
   79HK4    C34 6574   9.662   1.573   8.782 -0.3343 -0.5189 -0.4723
   79HK4    C33 6575   9.611   1.506   8.664 -0.6414 -0.1378 -0.5522
   79HK4    C35 6576   9.663   1.551   8.543 -0.3548  0.4031 -0.2309
   79HK4    H17 6577   9.621   1.510   8.451  0.9614 -2.8765  0.5277
   79HK4    C36 6578   9.760   1.650   8.532  0.3816 -0.2909 -0.0712
   79HK4    H18 6579   9.804   1.682   8.436  0.2429  0.2957  0.0571
   79HK4    C37 6580   9.805   1.714   8.647 -0.0019 -0.1195 -0.0154
   79HK4    H19 6581   9.882   1.789   8.633 -1.2528  1.2798  0.4412
   79HK4    C38 6582   9.753   1.678   8.770 -0.0371 -0.7405 -0.2057
   79HK4    H20 6583   9.802   1.728   8.854 -1.7763  3.5385 -1.5735
   79HK4    C14 6584   9.238   1.462   9.115 -0.2437 -0.1744 -0.4032
   79HK4     C9 6585   9.215   1.554   9.218 -0.7018  0.4532 -1.0666
   79HK4     C8 6586   9.111   1.526   9.309  0.5610 -0.2090  0.1935
   79HK4    C11 6587   9.016   1.427   9.288  0.2126  0.2213 -0.2739
   79HK4     H4 6588   8.949   1.386   9.365 -0.3099  0.7514 -0.4440
   79HK4    C12 6589   9.025   1.350   9.172 -0.1492 -0.3911  0.1019
   79HK4     H5 6590   8.938   1.299   9.128 -0.8629 -1.2749  2.4414
   79HK4    C13 6591   9.136   1.367   9.091 -0.3427 -0.1459 -0.1092
   79HK4     H6 6592   9.144   1.301   9.003 -1.0502  1.3854 -1.3581
   79HK4     C7 6593   9.108   1.606   9.433  0.3745 -0.3433  0.2751
   79HK4     O2 6594   9.014   1.601   9.513  0.1306 -0.6419 -0.0264
   79HK4     C4 6595   9.211   1.708   9.460  0.3446 -0.2945  0.2123
   79HK4     C3 6596   9.221   1.762   9.588 -0.6206  0.4489 -0.0184
   79HK4     H3 6597   9.148   1.755   9.669  1.8136 -0.3958  2.1725
   79HK4     C2 6598   9.323   1.853   9.613 -0.0459 -0.1904  0.0172
   79HK4     H2 6599   9.327   1.905   9.711 -1.7008  1.9216 -0.9765
   79HK4     C1 6600   9.407   1.895   9.511 -0.3251 -0.3363 -0.2670
   79HK4     H1 6601   9.492   1.956   9.545  0.3229 -0.8606 -0.9285
   79HK4     C6 6602   9.394   1.849   9.378 -0.4183 -0.0845 -0.3491
   79HK4     C5 6603   9.293   1.755   9.355 -0.5671  0.0719 -0.3421
   79HK4    C10 6604   9.287   1.684   9.224  0.3876 -0.1904 -0.2461
   79HK4     O1 6605   9.294   1.745   9.118  0.0774  0.1140 -0.0905
   79HK4    C16 6606   9.524   1.858   9.310  0.0076  0.4545  0.5255
   79HK4    C15 6607   9.652   1.845   9.369  0.0267 -0.0538  0.3837
   79HK4     H7 6608   9.651   1.817   9.476  0.4981 -0.1624  0.3598
   79HK4    C20 6609   9.770   1.877   9.303 -0.0878 -0.1988  0.1114
   79HK4     H9 6610   9.866   1.861   9.351 -0.1034 -1.5640 -0.3170
   79HK4    C19 6611   9.770   1.919   9.171 -0.3466 -0.2039  0.1080
   79HK4    C18 6612   9.641   1.935   9.106 -0.2614 -0.0681 -0.0243
   79HK4    C17 6613   9.527   1.907   9.180 -0.0444 -0.5872  0.1207
   79HK4     H8 6614   9.435   1.943   9.133  1.5979  3.3696 -0.2197
   79HK4     N1 6615   9.652   1.970   8.969 -0.1278 -0.3760 -0.0937
   79HK4    C21 6616   9.790   1.970   8.942 -0.0569  0.4896  0.2462
   79HK4    C22 6617   9.864   1.951   9.065 -0.2186 -0.0863  0.2574
   79HK4    C26 6618  10.001   1.973   9.065 -0.2411  0.0564  0.0116
   79HK4    H13 6619  10.063   1.949   9.151  0.0211  0.0441 -0.1823
   79HK4    C25 6620  10.061   2.020   8.949 -0.1001  0.2887  0.1774
   79HK4    H12 6621  10.170   2.026   8.950  0.1115 -2.6820 -0.5303
   79HK4    C24 6622   9.991   2.038   8.830  0.0720 -0.1538  0.0078
   79HK4    H11 6623  10.026   2.099   8.746  0.6294 -0.7984 -0.2317
   79HK4    C23 6624   9.854   2.014   8.826  0.0658 -0.1363  0.0765
   79HK4    H10 6625   9.796   2.053   8.743 -0.7289  1.5893  1.4051
   79HK4    C39 6626   9.560   2.054   8.905 -0.3840 -0.2407  0.4484
   79HK4    C41 6627   9.471   2.142   8.969 -0.0760  0.1366  0.3574
   79HK4    H21 6628   9.491   2.178   9.072 -1.7389  0.9377  0.4257
   79HK4    C42 6629   9.367   2.203   8.899  0.1951  0.1302 -0.0482
   79HK4    H22 6630   9.313   2.288   8.944  0.2884 -1.0426  2.4072
   79HK4    C43 6631   9.344   2.174   8.766  0.1730  0.4805 -0.1222
   79HK4    H23 6632   9.254   2.209   8.716 -0.3295 -0.4985  0.0777
   79HK4    C44 6633   9.433   2.088   8.701  0.1543  0.2746  0.1360
   79HK4    H24 6634   9.431   2.065   8.594  2.7941 -0.2458  0.1671
   79HK4    C45 6635   9.539   2.028   8.768 -0.2172 -0.1003  0.3968
   79HK4    H25 6636   9.559   1.932   8.720  0.7690 -0.1209  0.8334
   80HK4    H28 6637   4.691   6.418   4.850 -2.3104 -0.6695 -0.8768
   80HK4    C48 6638   4.713   6.447   4.747  0.0258  0.5628 -0.0607
   80HK4    C47 6639   4.607   6.488   4.666  0.5232  0.3146 -0.8443
   80HK4    H27 6640   4.525   6.542   4.714 -0.2395 -2.8970  1.6280
   80HK4    C46 6641   4.617   6.503   4.528 -0.6453  0.5487 -0.9027
   80HK4    H26 6642   4.528   6.523   4.466 -2.3676 -3.7115  0.0395
   80HK4    C40 6643   4.745   6.496   4.471 -0.2517  0.4802 -0.0239
   80HK4    C50 6644   4.853   6.456   4.552 -0.0536  0.0251 -0.5052
   80HK4    H30 6645   4.955   6.451   4.512  0.5922 -0.8266  1.1816
   80HK4    C49 6646   4.837   6.425   4.687 -0.3682 -0.2217 -0.6016
   80HK4    H29 6647   4.926   6.393   4.742 -2.0083 -2.4376  0.8332
   80HK4     N2 6648   4.766   6.509   4.333 -0.1639  0.3100 -0.0263
   80HK4    C30 6649   4.674   6.479   4.230 -0.7078  0.1607  0.5000
   80HK4    C29 6650   4.594   6.366   4.217 -0.4593  0.0767 -0.3033
   80HK4    H15 6651   4.562   6.318   4.309 -0.6438  0.4846 -0.1493
   80HK4    C28 6652   4.527   6.337   4.099  0.1859 -0.2613 -0.5848
   80HK4    C27 6653   4.542   6.424   3.989  0.0383  0.7139  0.1594
   80HK4    H14 6654   4.473   6.414   3.904 -0.0802  1.9877  0.1119
   80HK4    C32 6655   4.622   6.537   3.997  0.4082  0.4618  0.0700
   80HK4    H16 6656   4.631   6.604   3.912  3.0585  1.5777  1.1679
   80HK4    C31 6657   4.693   6.564   4.114  0.5963 -0.5368  0.1914
   80HK4    C34 6658   4.808   6.646   4.146  0.0429  0.1844  0.3503
   80HK4    C33 6659   4.850   6.609   4.280  0.3869 -0.0342  0.1863
   80HK4    C35 6660   4.948   6.682   4.347  0.4415 -0.0873  0.1606
   80HK4    H17 6661   4.982   6.645   4.444 -2.6930  3.7963  2.8787
   80HK4    C36 6662   5.009   6.788   4.281 -0.2003  0.3544  0.2755
   80HK4    H18 6663   5.107   6.818   4.320  0.1031  2.6343 -2.0734
   80HK4    C37 6664   4.975   6.821   4.150 -0.0126 -0.0078  0.1359
   80HK4    H19 6665   5.022   6.907   4.104  1.3914 -0.7044  0.2474
   80HK4    C38 6666   4.877   6.749   4.083  0.1750 -0.1237 -0.0131
   80HK4    H20 6667   4.857   6.776   3.979  1.0696  1.3912  0.1975
   80HK4    C14 6668   4.440   6.219   4.083 -0.0763 -0.1433 -0.0344
   80HK4     C9 6669   4.431   6.143   3.966  0.1438  0.7370 -0.6322
   80HK4     C8 6670   4.305   6.098   3.921  0.0829  0.5483 -0.2721
   80HK4    C11 6671   4.197   6.126   4.004  0.0527  0.4624 -0.2821
   80HK4     H4 6672   4.095   6.100   3.970 -0.2218  0.9970  0.1142
   80HK4    C12 6673   4.211   6.185   4.129 -0.0962  0.1731 -0.1273
   80HK4     H5 6674   4.133   6.172   4.206 -0.4779 -0.7137 -0.6608
   80HK4    C13 6675   4.336   6.221   4.177 -0.0387 -0.2034  0.0085
   80HK4     H6 6676   4.353   6.258   4.280 -0.6171  1.3606 -0.4391
   80HK4     C7 6677   4.289   6.019   3.797  0.0789 -0.5322  0.4193
   80HK4     O2 6678   4.177   5.994   3.752  0.1610 -0.3859  0.1318
   80HK4     C4 6679   4.411   5.974   3.726 -0.0882 -0.1330 -0.1173
   80HK4     C3 6680   4.403   5.887   3.618 -0.2487 -0.1736 -0.0740
   80HK4     H3 6681   4.316   5.823   3.598  0.3585 -0.9926 -0.1197
   80HK4     C2 6682   4.511   5.862   3.534 -0.3308 -0.6149 -0.0465
   80HK4     H2 6683   4.509   5.797   3.445 -0.4277 -2.3696  1.2179
   80HK4     C1 6684   4.632   5.926   3.560 -0.3875 -0.7059  0.4508
   80HK4     H1 6685   4.721   5.884   3.511 -0.5778 -1.8823  1.0984
   80HK4     C6 6686   4.644   6.016   3.667  0.0576 -0.1598 -0.0540
   80HK4     C5 6687   4.534   6.037   3.752 -0.0412 -0.2046 -0.1695
   80HK4    C10 6688   4.549   6.111   3.881  0.1386  0.2698 -0.4610
   80HK4     O1 6689   4.656   6.114   3.940 -0.0889  0.0667 -0.0345
   80HK4    C16 6690   4.763   6.102   3.658 -0.0515  0.0479  0.4894
   80HK4    C15 6691   4.798   6.165   3.537  0.2481  0.0918  0.5990
   80HK4     H7 6692   4.715   6.189   3.470  0.6984 -1.0620 -0.3843
   80HK4    C20 6693   4.922   6.222   3.511 -0.0292  0.3657 -0.1046
   80HK4     H9 6694   4.947   6.246   3.407  3.1476 -1.7527  0.0984
   80HK4    C19 6695   5.023   6.217   3.606  0.0991 -0.2427 -0.2722
   80HK4    C18 6696   4.996   6.144   3.729  0.1167 -0.6173 -0.4908
   80HK4    C17 6697   4.870   6.088   3.746  0.0672 -0.2689  0.2940
   80HK4     H8 6698   4.859   6.019   3.830 -2.6602  1.5302  1.4997
   80HK4     N1 6699   5.108   6.145   3.814 -0.1970 -0.4154 -0.0802
   80HK4    C21 6700   5.208   6.214   3.743 -0.2210 -0.5817 -0.2779
   80HK4    C22 6701   5.158   6.268   3.618 -0.0581  0.1180 -0.0436
   80HK4    C26 6702   5.245   6.341   3.538  0.2616 -0.1847  0.0264
   80HK4    H13 6703   5.224   6.381   3.439 -0.7334 -0.6016  0.0665
   80HK4    C25 6704   5.375   6.372   3.576  0.4563 -0.5232 -0.3707
   80HK4    H12 6705   5.438   6.448   3.531  1.2800 -0.2863  1.1467
   80HK4    C24 6706   5.416   6.328   3.702  0.3079 -0.3987 -0.2791
   80HK4    H11 6707   5.500   6.381   3.749  1.2413 -0.9330 -1.3348
   80HK4    C23 6708   5.340   6.242   3.779 -0.3634  0.1565 -0.3135
   80HK4    H10 6709   5.377   6.208   3.876  1.6816  2.3287 -0.3013
   80HK4    C39 6710   5.102   6.137   3.954  0.0549  0.0593 -0.0431
   80HK4    C41 6711   5.213   6.098   4.032  0.2703 -0.0743 -0.4183
   80HK4    H21 6712   5.293   6.041   3.982 -0.4105  0.6206 -2.3690
   80HK4    C42 6713   5.214   6.111   4.170 -0.2242 -0.4393 -0.3792
   80HK4    H22 6714   5.303   6.079   4.227  1.4487  0.9043 -2.1635
   80HK4    C43 6715   5.112   6.181   4.233 -0.0105 -0.3001 -0.1894
   80HK4    H23 6716   5.101   6.173   4.341 -1.3741 -0.3691 -0.3271
   80HK4    C44 6717   5.002   6.221   4.159  0.1127  0.5886  0.0964
   80HK4    H24 6718   4.957   6.312   4.202  0.1549 -0.3178  2.1221
   80HK4    C45 6719   4.995   6.199   4.021  0.1226 -0.0864  0.1990
   80HK4    H25 6720   4.901   6.221   3.968  0.1544 -1.1489 -0.3149
   81HK4    H28 6721   7.728   5.549   7.734 -0.0497 -0.8953  1.6822
   81HK4    C48 6722   7.722   5.635   7.800  0.4067  0.4657 -0.0291
   81HK4    C47 6723   7.822   5.665   7.892  0.0136  0.3787  0.4233
   81HK4    H27 6724   7.908   5.598   7.912 -0.8177 -0.3851  1.5427
   81HK4    C46 6725   7.816   5.780   7.969 -0.2257  0.2948  0.5302
   81HK4    H26 6726   7.894   5.808   8.041  0.0744  1.9101 -0.4020
   81HK4    C40 6727   7.711   5.874   7.955  0.0999  0.5039 -0.5742
   81HK4    C50 6728   7.619   5.842   7.854 -0.6932 -0.2120  0.3559
   81HK4    H30 6729   7.547   5.920   7.823 -2.7632 -1.2810  2.3818
   81HK4    C49 6730   7.623   5.728   7.774 -0.0250  0.0262  0.0392
   81HK4    H29 6731   7.553   5.716   7.690  0.2682  1.7989 -0.4948
   81HK4     N2 6732   7.654   5.936   8.067 -0.2268 -0.5981 -0.1219
   81HK4    C30 6733   7.675   5.893   8.200 -0.0420 -0.2024 -0.0226
   81HK4    C29 6734   7.694   5.769   8.258 -0.3327 -0.3007 -0.1311
   81HK4    H15 6735   7.721   5.682   8.198  1.5443  0.8131 -0.9383
   81HK4    C28 6736   7.697   5.748   8.396 -0.5648 -0.0756 -0.0910
   81HK4    C27 6737   7.685   5.864   8.475  0.0369  0.1454 -0.3244
   81HK4    H14 6738   7.713   5.859   8.581  3.2811  0.0181 -1.1282
   81HK4    C32 6739   7.655   5.990   8.424  0.0466  0.1610 -0.2962
   81HK4    H16 6740   7.640   6.077   8.489  1.0640  0.1092  0.0195
   81HK4    C31 6741   7.645   6.006   8.287  0.3624  0.1352 -0.3216
   81HK4    C34 6742   7.610   6.117   8.201  0.2121 -0.0309 -0.4753
   81HK4    C33 6743   7.611   6.070   8.064  0.6650 -0.3111 -0.3774
   81HK4    C35 6744   7.570   6.155   7.962 -0.1991 -0.5042 -0.2004
   81HK4    H17 6745   7.558   6.119   7.860  1.3638  1.4793 -1.1450
   81HK4    C36 6746   7.538   6.289   7.985  0.6888 -0.2567 -0.3674
   81HK4    H18 6747   7.528   6.365   7.906  0.7004  0.5840  0.4444
   81HK4    C37 6748   7.547   6.330   8.117 -0.8182 -0.3180 -0.2386
   81HK4    H19 6749   7.556   6.439   8.120  0.5904 -0.4058 -0.9054
   81HK4    C38 6750   7.573   6.249   8.227  0.3286 -0.0334 -0.2963
   81HK4    H20 6751   7.568   6.279   8.331 -0.3326 -0.3246 -0.2398
   81HK4    C14 6752   7.680   5.615   8.456  0.2829 -0.1348  0.0337
   81HK4     C9 6753   7.607   5.598   8.574 -0.0213 -0.1435 -0.1538
   81HK4     C8 6754   7.649   5.504   8.671 -0.1415  0.0485  0.0846
   81HK4    C11 6755   7.748   5.414   8.634  0.0531  0.2311  0.1584
   81HK4     H4 6756   7.755   5.326   8.700  2.7641 -1.4657 -2.2751
   81HK4    C12 6757   7.812   5.413   8.511  0.2333  0.4873  0.2498
   81HK4     H5 6758   7.860   5.320   8.479  0.8654  0.7855  0.3286
   81HK4    C13 6759   7.774   5.515   8.424  0.4385  0.1146 -0.2787
   81HK4     H6 6760   7.824   5.504   8.327  0.7388 -1.1161  0.0072
   81HK4     C7 6761   7.593   5.510   8.807  0.4573  0.4762  0.3170
   81HK4     O2 6762   7.595   5.409   8.877 -0.3644  0.0108 -0.3190
   81HK4     C4 6763   7.496   5.620   8.833  0.6848  0.7407  0.0519
   81HK4     C3 6764   7.468   5.661   8.963  0.0321 -0.2951  0.2395
   81HK4     H3 6765   7.524   5.618   9.048 -0.9900 -2.4494 -0.1235
   81HK4     C2 6766   7.358   5.742   8.986  0.0962 -0.0865 -0.1707
   81HK4     H2 6767   7.365   5.813   9.070  0.8645  1.4310 -1.4927
   81HK4     C1 6768   7.262   5.757   8.887 -0.1055  0.2081  0.0678
   81HK4     H1 6769   7.173   5.819   8.904 -0.2754 -1.0407  4.0858
   81HK4     C6 6770   7.278   5.704   8.757  0.1342  0.2300  0.0872
   81HK4     C5 6771   7.407   5.656   8.730  0.2407  0.3891  0.3112
   81HK4    C10 6772   7.470   5.654   8.595  0.1886  0.2052  0.2883
   81HK4     O1 6773   7.402   5.684   8.498 -0.0815 -0.1291  0.3754
   81HK4    C16 6774   7.155   5.677   8.682  0.0172 -0.2285  0.4434
   81HK4    C15 6775   7.039   5.755   8.703  0.0893  0.1681 -0.6027
   81HK4     H7 6776   7.044   5.865   8.698 -1.6722  0.2925  0.2339
   81HK4    C20 6777   6.912   5.707   8.674 -0.0011 -0.0438  0.1316
   81HK4     H9 6778   6.828   5.773   8.697  0.0415 -0.1258  0.5371
   81HK4    C19 6779   6.901   5.584   8.610 -0.1272 -0.0666  0.1952
   81HK4    C18 6780   7.019   5.516   8.561 -0.2102 -0.1295  0.0854
   81HK4    C17 6781   7.143   5.564   8.602 -0.2683  0.2077 -0.1308
   81HK4     H8 6782   7.232   5.511   8.568  0.1744 -0.2119  1.6865
   81HK4     N1 6783   6.987   5.403   8.482  0.3050 -0.3154  0.1397
   81HK4    C21 6784   6.847   5.388   8.484  0.2913 -0.2071  0.0823
   81HK4    C22 6785   6.794   5.499   8.561  0.1299 -0.5593  0.4863
   81HK4    C26 6786   6.664   5.491   8.609  0.0198 -0.6851  0.1672
   81HK4    H13 6787   6.619   5.571   8.668 -1.3366  0.2242 -2.0652
   81HK4    C25 6788   6.586   5.386   8.561 -1.1314  0.4903 -0.5758
   81HK4    H12 6789   6.481   5.368   8.581 -0.3200 -1.4942  2.2879
   81HK4    C24 6790   6.637   5.284   8.481 -0.0056  0.5060  0.1011
   81HK4    H11 6791   6.577   5.193   8.471 -3.9658  2.9777  0.2332
   81HK4    C23 6792   6.770   5.280   8.442 -0.2017  0.3960 -0.5695
   81HK4    H10 6793   6.816   5.196   8.390 -0.5235  0.3184 -0.7203
   81HK4    C39 6794   7.072   5.350   8.385 -0.1940 -0.2038 -0.3543
   81HK4    C41 6795   7.046   5.218   8.342 -0.2590 -0.3233  0.0478
   81HK4    H21 6796   7.002   5.146   8.413 -1.0553  0.9679  0.8871
   81HK4    C42 6797   7.068   5.178   8.211 -0.5910  0.4968 -0.2639
   81HK4    H22 6798   7.016   5.086   8.179 -0.7203  0.2258  0.7102
   81HK4    C43 6799   7.126   5.262   8.117 -0.1454  0.2353 -0.2168
   81HK4    H23 6800   7.130   5.235   8.011 -2.0635  0.6854 -0.4183
   81HK4    C44 6801   7.164   5.388   8.160 -0.3011  0.1455  0.1760
   81HK4    H24 6802   7.232   5.451   8.102  0.3496  1.5111  2.3407
   81HK4    C45 6803   7.131   5.434   8.288 -0.1221  0.3372  0.1534
   81HK4    H25 6804   7.163   5.536   8.312  0.6853  0.9870 -3.3728
   82HK4    H28 6805   9.345   8.817   1.963  0.9915  0.8195 -1.3044
   82HK4    C48 6806   9.405   8.736   1.922  0.1031 -0.2266 -0.5840
   82HK4    C47 6807   9.361   8.621   1.856 -0.3336 -0.1305 -0.4658
   82HK4    H27 6808   9.254   8.601   1.841 -0.6307 -0.6506  2.0929
   82HK4    C46 6809   9.443   8.528   1.793 -0.1712 -0.1454 -0.2306
   82HK4    H26 6810   9.400   8.440   1.743 -0.7052 -0.5352  0.9021
   82HK4    C40 6811   9.583   8.549   1.791 -0.1059 -0.5104  0.2204
   82HK4    C50 6812   9.628   8.666   1.855  0.1521  0.0116 -0.8968
   82HK4    H30 6813   9.731   8.656   1.891 -0.2788 -0.1575  0.3425
   82HK4    C49 6814   9.543   8.753   1.923  0.1134 -0.2993 -0.5551
   82HK4    H29 6815   9.587   8.825   1.994  0.8278 -0.1687 -1.1315
   82HK4     N2 6816   9.675   8.446   1.770  0.4202 -0.0659  0.3607
   82HK4    C30 6817   9.659   8.307   1.785  0.0933 -0.0341  0.2991
   82HK4    C29 6818   9.553   8.229   1.830  0.0006 -0.0290  0.0974
   82HK4    H15 6819   9.470   8.268   1.889  0.9422 -0.6391  1.8812
   82HK4    C28 6820   9.552   8.090   1.835  0.1873 -0.0040  0.9846
   82HK4    C27 6821   9.671   8.029   1.790 -0.0057  0.3784 -0.0636
   82HK4    H14 6822   9.688   7.921   1.799 -0.4680  0.4505  1.8235
   82HK4    C32 6823   9.773   8.099   1.728  0.0410  0.1049 -0.2965
   82HK4    H16 6824   9.859   8.044   1.688  2.2474  2.7154  0.6634
   82HK4    C31 6825   9.764   8.237   1.714  0.0351  0.1368  0.0485
   82HK4    C34 6826   9.853   8.338   1.658  0.4235 -0.1572  0.1214
   82HK4    C33 6827   9.791   8.465   1.691  0.4396 -0.2076  0.3545
   82HK4    C35 6828   9.846   8.584   1.646  0.0044  0.0112  0.3961
   82HK4    H17 6829   9.799   8.680   1.667 -0.0910  0.1311 -0.3208
   82HK4    C36 6830   9.965   8.580   1.573 -0.1458 -0.0941  0.1565
   82HK4    H18 6831  10.000   8.676   1.533  0.7491 -1.4201 -2.3543
   82HK4    C37 6832  10.028   8.460   1.543 -0.2107 -0.1218  0.1246
   82HK4    H19 6833  10.110   8.475   1.472 -0.5354  0.4110 -0.1422
   82HK4    C38 6834   9.970   8.340   1.583  0.2265 -0.4440 -0.1892
   82HK4    H20 6835  10.014   8.243   1.561 -0.6548 -1.1546  1.1322
   82HK4    C14 6836   9.447   8.024   1.914 -0.4310 -0.2475 -0.0224
   82HK4     C9 6837   9.466   7.894   1.965  0.0534 -0.1950 -0.0604
   82HK4     C8 6838   9.364   7.799   1.944 -0.3587  0.1366  0.4323
   82HK4    C11 6839   9.239   7.843   1.902 -0.3573  0.1678  0.4589
   82HK4     H4 6840   9.151   7.780   1.886  1.0578 -2.5267  2.8010
   82HK4    C12 6841   9.210   7.978   1.883 -0.0847  0.0987 -0.4769
   82HK4     H5 6842   9.113   8.013   1.847  0.0024  2.5863  1.5481
   82HK4    C13 6843   9.317   8.067   1.883 -0.3110  0.3709  0.3251
   82HK4     H6 6844   9.300   8.164   1.833  1.1220  0.4570 -0.0166
   82HK4     C7 6845   9.385   7.654   1.965 -0.1105  0.0838 -0.1727
   82HK4     O2 6846   9.316   7.574   1.903 -0.1845  0.1776 -0.2103
   82HK4     C4 6847   9.513   7.617   2.030 -0.0734  0.0370 -0.2776
   82HK4     C3 6848   9.537   7.484   2.062  0.4416  0.2986  0.4477
   82HK4     H3 6849   9.472   7.413   2.009 -0.8258  1.7568  0.0185
   82HK4     C2 6850   9.648   7.440   2.133  0.4099 -0.4745  0.0188
   82HK4     H2 6851   9.662   7.333   2.155 -1.0763 -0.9176 -1.0882
   82HK4     C1 6852   9.747   7.533   2.161 -0.4344  0.2933  0.4316
   82HK4     H1 6853   9.839   7.503   2.213 -1.2029 -4.2753 -0.6949
   82HK4     C6 6854   9.737   7.665   2.112 -0.3429  0.3578  0.5863
   82HK4     C5 6855   9.615   7.710   2.061 -0.3842  0.1289  0.4847
   82HK4    C10 6856   9.589   7.855   2.038  0.1766  0.1431 -0.0823
   82HK4     O1 6857   9.620   7.937   2.125  0.3360  0.0578 -0.0577
   82HK4    C16 6858   9.869   7.718   2.073 -0.1596  0.0544  0.7798
   82HK4    C15 6859   9.967   7.628   2.026 -0.1954  0.4727 -0.0980
   82HK4     H7 6860   9.929   7.531   1.990  0.3440  0.4330 -0.5510
   82HK4    C20 6861  10.105   7.636   2.034 -0.1915  0.0990  0.2609
   82HK4     H9 6862  10.169   7.551   2.012  0.7301  0.3364  1.9500
   82HK4    C19 6863  10.151   7.753   2.094  0.3132  0.1199 -0.1644
   82HK4    C18 6864  10.056   7.858   2.128  0.0964 -0.2330  0.3233
   82HK4    C17 6865   9.919   7.833   2.133  0.0158  0.2088  0.3297
   82HK4     H8 6866   9.849   7.897   2.186 -1.2884 -0.8036 -0.1444
   82HK4     N1 6867  10.119   7.957   2.206 -0.1981 -0.1527  0.4535
   82HK4    C21 6868  10.255   7.923   2.211 -0.0952  0.2356  0.2763
   82HK4    C22 6869  10.279   7.795   2.146  0.2454  0.6465 -0.4189
   82HK4    C26 6870  10.399   7.728   2.164  0.1102  0.5781  0.2591
   82HK4    H13 6871  10.408   7.624   2.131 -2.6711  0.6889 -0.9431
   82HK4    C25 6872  10.500   7.786   2.239  0.7085 -0.1748  0.0501
   82HK4    H12 6873  10.600   7.743   2.228  0.2571 -0.6743 -2.3633
   82HK4    C24 6874  10.470   7.904   2.306  0.3642 -0.0485 -0.3293
   82HK4    H11 6875  10.522   7.924   2.401 -2.6714  1.5197  1.0936
   82HK4    C23 6876  10.356   7.982   2.287  0.5518  0.1772 -0.5281
   82HK4    H10 6877  10.350   8.091   2.289  1.7622  0.2847 -1.9489
   82HK4    C39 6878  10.067   8.086   2.217  0.0281 -0.0383  0.1843
   82HK4    C41 6879  10.096   8.168   2.329  0.2632 -0.5399  0.4912
   82HK4    H21 6880  10.143   8.124   2.418  0.8595  0.1945  0.5450
   82HK4    C42 6881  10.082   8.306   2.320  0.0545 -0.6219 -0.5913
   82HK4    H22 6882  10.100   8.362   2.414  0.0927 -0.1359 -0.8882
   82HK4    C43 6883  10.039   8.362   2.201  0.6962  0.1017 -0.4894
   82HK4    H23 6884  10.017   8.468   2.194 -1.4830 -0.2103  0.9859
   82HK4    C44 6885  10.002   8.283   2.093 -0.7867  0.0444  0.0524
   82HK4    H24 6886   9.959   8.328   2.001 -0.8212 -0.9521 -0.4244
   82HK4    C45 6887  10.013   8.145   2.101  0.4513  0.1367  0.0730
   82HK4    H25 6888   9.973   8.086   2.017 -1.5043  0.1750  0.9392
   83HK4    H28 6889   6.815   9.385   1.211 -2.2855  0.8251  0.3139
   83HK4    C48 6890   6.835   9.490   1.190 -0.0525  0.2840 -0.3860
   83HK4    C47 6891   6.920   9.520   1.085  0.8021  0.2568  0.2876
   83HK4    H27 6892   6.995   9.443   1.061 -0.8517 -2.6039  3.8944
   83HK4    C46 6893   6.925   9.651   1.037  0.1034  0.2325  0.1313
   83HK4    H26 6894   6.978   9.661   0.941  0.7877 -1.0182  0.3589
   83HK4    C40 6895   6.861   9.757   1.104 -0.1134  0.0476  0.2204
   83HK4    C50 6896   6.797   9.728   1.226 -0.7725 -0.0596 -0.1493
   83HK4    H30 6897   6.786   9.806   1.303 -0.5592 -1.1787  1.0297
   83HK4    C49 6898   6.777   9.595   1.261 -0.0275 -0.0853  0.1860
   83HK4    H29 6899   6.705   9.571   1.340  0.4954 -0.7134  0.4773
   83HK4     N2 6900   6.880   9.888   1.059 -0.4864 -0.0830 -0.3261
   83HK4    C30 6901   6.991   9.931   0.984 -0.6098  0.2755 -0.3053
   83HK4    C29 6902   7.118   9.876   0.969 -0.4273  0.5595  0.1674
   83HK4    H15 6903   7.145   9.800   1.043 -0.8855  0.3639  0.1385
   83HK4    C28 6904   7.208   9.911   0.869 -0.0877 -0.7770 -0.0122
   83HK4    C27 6905   7.162  10.017   0.789 -0.2693 -0.3943  0.5852
   83HK4    H14 6906   7.239  10.053   0.718  2.7023 -2.4725  2.6295
   83HK4    C32 6907   7.045  10.090   0.807  0.3426  0.7865 -0.1067
   83HK4    H16 6908   7.019  10.172   0.740  3.2757  1.7020 -0.2047
   83HK4    C31 6909   6.961  10.052   0.911  0.1169  0.3826 -0.4347
   83HK4    C34 6910   6.824  10.083   0.947  0.2074  0.1067  0.1565
   83HK4    C33 6911   6.780   9.987   1.046 -0.2229  0.2419  0.0929
   83HK4    C35 6912   6.661  10.005   1.116 -0.3715 -0.0669 -0.0787
   83HK4    H17 6913   6.612   9.927   1.173 -1.3621  2.1702  2.2346
   83HK4    C36 6914   6.584  10.117   1.087  0.0411  0.2504  0.0270
   83HK4    H18 6915   6.477  10.122   1.114  0.3214  1.3498  0.9299
   83HK4    C37 6916   6.631  10.213   0.998  0.2637 -0.0000 -0.1219
   83HK4    H19 6917   6.562  10.289   0.962 -0.5745 -0.2042  1.0110
   83HK4    C38 6918   6.746  10.195   0.921  0.2069  0.0274 -0.2123
   83HK4    H20 6919   6.800  10.284   0.888  1.6881 -0.3734  1.0941
   83HK4    C14 6920   7.349   9.873   0.881  0.1092 -0.0747 -0.0947
   83HK4     C9 6921   7.463   9.941   0.835 -0.2028  0.1974 -0.4601
   83HK4     C8 6922   7.573   9.872   0.783  0.1425  0.3156  0.1001
   83HK4    C11 6923   7.580   9.734   0.799 -0.6217  0.2329 -0.2444
   83HK4     H4 6924   7.661   9.679   0.748  1.6383  0.5455  2.8784
   83HK4    C12 6925   7.481   9.664   0.867 -0.0164 -0.0829  0.3096
   83HK4     H5 6926   7.501   9.563   0.907 -0.4652 -0.1417  0.3833
   83HK4    C13 6927   7.367   9.734   0.902 -0.1442 -0.1068 -0.0689
   83HK4     H6 6928   7.296   9.683   0.969 -1.8085  0.9434 -0.9912
   83HK4     C7 6929   7.697   9.940   0.740  0.0995  0.2954 -0.0568
   83HK4     O2 6930   7.752   9.909   0.635  0.4483 -0.0806  0.2343
   83HK4     C4 6931   7.718  10.075   0.798  0.1800 -0.1550  0.9832
   83HK4     C3 6932   7.843  10.134   0.789 -0.0240  0.1154 -0.1122
   83HK4     H3 6933   7.927  10.065   0.803  0.4582  0.6730 -0.2159
   83HK4     C2 6934   7.868  10.268   0.818 -0.1661  0.3509 -1.0521
   83HK4     H2 6935   7.967  10.315   0.815  0.0227 -0.0267 -0.7778
   83HK4     C1 6936   7.754  10.346   0.834 -0.0551  0.2667  0.1607
   83HK4     H1 6937   7.761  10.456   0.846 -1.7524 -0.0492  5.8173
   83HK4     C6 6938   7.624  10.293   0.831  0.0686 -0.0306  0.1476
   83HK4     C5 6939   7.604  10.154   0.827  0.0805 -0.0344  0.2660
   83HK4    C10 6940   7.476  10.087   0.863 -0.0551  0.0920  0.0255
   83HK4     O1 6941   7.409  10.146   0.947 -0.0997 -0.3707  0.3164
   83HK4    C16 6942   7.530  10.392   0.775  0.0139 -0.0836  0.1420
   83HK4    C15 6943   7.557  10.460   0.655 -0.1470  0.1128  0.2186
   83HK4     H7 6944   7.648  10.440   0.596 -0.0014  1.0009  0.1336
   83HK4    C20 6945   7.482  10.570   0.616 -0.1105 -0.1442 -0.5875
   83HK4     H9 6946   7.519  10.640   0.540  0.0041  0.2197 -0.2023
   83HK4    C19 6947   7.376  10.606   0.698  0.7218  0.4410  0.2448
   83HK4    C18 6948   7.351  10.546   0.827  0.3749  0.0783  0.0105
   83HK4    C17 6949   7.433  10.440   0.863 -0.3344 -0.4881 -0.0172
   83HK4     H8 6950   7.457  10.437   0.969 -0.1672  1.2324  0.0068
   83HK4     N1 6951   7.240  10.608   0.889  0.2715  0.1209 -0.2155
   83HK4    C21 6952   7.191  10.699   0.793 -0.2500 -0.4662 -0.5034
   83HK4    C22 6953   7.273  10.706   0.674  0.4529  0.1118  0.0126
   83HK4    C26 6954   7.229  10.778   0.564  0.0093  0.5657  0.4825
   83HK4    H13 6955   7.289  10.797   0.475 -0.1928 -0.5999  0.0855
   83HK4    C25 6956   7.104  10.840   0.568 -0.5137 -0.3887 -0.5940
   83HK4    H12 6957   7.070  10.913   0.495 -1.2870  1.4408  1.5419
   83HK4    C24 6958   7.028  10.834   0.684  0.1520 -0.0530 -0.1369
   83HK4    H11 6959   6.947  10.906   0.704 -0.1201 -0.4744  0.2875
   83HK4    C23 6960   7.068  10.764   0.797 -0.0417 -0.0879 -0.0921
   83HK4    H10 6961   7.024  10.786   0.894  0.8680  1.8929 -0.1122
   83HK4    C39 6962   7.185  10.553   1.006 -0.2022 -0.2765 -0.6261
   83HK4    C41 6963   7.109  10.633   1.093  0.6246 -0.6929  0.4963
   83HK4    H21 6964   7.168  10.715   1.136  1.3571 -0.6823 -0.4985
   83HK4    C42 6965   6.994  10.595   1.161 -0.3229  0.1457 -0.6233
   83HK4    H22 6966   6.923  10.656   1.219  0.0953 -0.1832  0.2271
   83HK4    C43 6967   6.954  10.462   1.152  0.5427 -0.1508 -0.0901
   83HK4    H23 6968   6.852  10.433   1.177  0.4117 -0.1049 -0.5665
   83HK4    C44 6969   7.029  10.376   1.073  0.7546 -0.4210  0.4004
   83HK4    H24 6970   6.995  10.271   1.069  1.4493 -0.6018 -1.8862
   83HK4    C45 6971   7.141  10.419   1.003  0.5711 -0.5513  0.0247
   83HK4    H25 6972   7.206  10.345   0.954  1.4362 -0.2383  0.6739
   84HK4    H28 6973   5.378   5.057   8.259 -1.8930 -1.1785 -2.3121
   84HK4    C48 6974   5.314   5.003   8.329  0.0328 -0.5223  0.0393
   84HK4    C47 6975   5.215   4.920   8.279 -0.1773 -0.0033 -0.4151
   84HK4    H27 6976   5.210   4.900   8.170  0.0497  0.2851 -0.4762
   84HK4    C46 6977   5.134   4.851   8.369  0.2476  0.0667  0.0206
   84HK4    H26 6978   5.080   4.765   8.327  1.6080  0.0170 -1.7257
   84HK4    C40 6979   5.146   4.868   8.508 -0.2126  0.5583  0.0019
   84HK4    C50 6980   5.245   4.958   8.550  0.3907 -0.1557  0.1216
   84HK4    H30 6981   5.249   4.976   8.658 -0.4743  1.0435 -0.0289
   84HK4    C49 6982   5.332   5.025   8.465  0.1824 -0.0997 -0.0448
   84HK4    H29 6983   5.414   5.092   8.497  0.0678  0.2740 -0.5359
   84HK4     N2 6984   5.072   4.795   8.602  0.5700 -0.1954  0.0322
   84HK4    C30 6985   4.950   4.734   8.568  0.5170  0.1829 -0.4479
   84HK4    C29 6986   4.834   4.793   8.518  0.0842  0.1573  0.5013
   84HK4    H15 6987   4.842   4.900   8.495 -0.7310 -0.0269 -0.6654
   84HK4    C28 6988   4.710   4.732   8.511 -0.0268  0.4045  0.2627
   84HK4    C27 6989   4.709   4.599   8.559  0.3582  0.1446 -0.4363
   84HK4    H14 6990   4.618   4.540   8.541 -0.4275  2.1688 -3.5276
   84HK4    C32 6991   4.818   4.538   8.619  0.1011  0.5401  0.4488
   84HK4    H16 6992   4.818   4.430   8.631 -1.2810  0.4275 -0.4419
   84HK4    C31 6993   4.936   4.609   8.640  0.0230  0.6953  0.3560
   84HK4    C34 6994   5.051   4.595   8.727  0.4518 -0.3447 -0.3665
   84HK4    C33 6995   5.132   4.712   8.699  0.3305 -0.1123  0.2551
   84HK4    C35 6996   5.246   4.721   8.778  0.5517  0.0391 -0.0865
   84HK4    H17 6997   5.315   4.803   8.756 -0.5150  0.7645 -0.7982
   84HK4    C36 6998   5.279   4.622   8.870  0.1249  0.0416  0.0699
   84HK4    H18 6999   5.380   4.613   8.910 -0.1415 -1.8847  0.3703
   84HK4    C37 7000   5.190   4.521   8.904 -0.1593  0.4956  0.6830
   84HK4    H19 7001   5.214   4.450   8.984  0.1368 -0.3398 -0.1399
   84HK4    C38 7002   5.073   4.505   8.831  0.2089  0.1945  0.1520
   84HK4    H20 7003   5.025   4.408   8.816  1.2568 -0.2239 -0.5200
   84HK4    C14 7004   4.584   4.798   8.475 -0.1445 -0.0058 -0.0786
   84HK4     C9 7005   4.458   4.743   8.506 -0.3669  0.4898 -0.0954
   84HK4     C8 7006   4.357   4.747   8.408 -0.3311  0.3519 -0.1358
   84HK4    C11 7007   4.375   4.824   8.294 -0.3031 -0.1836 -0.5014
   84HK4     H4 7008   4.286   4.867   8.245 -0.9235 -0.8942 -0.0119
   84HK4    C12 7009   4.497   4.883   8.265 -0.1179 -0.1019  0.4068
   84HK4     H5 7010   4.519   4.936   8.170  0.5395  0.0557  0.6421
   84HK4    C13 7011   4.602   4.868   8.355  0.1103  0.4859  0.2449
   84HK4     H6 7012   4.691   4.932   8.346  0.5901 -0.1105  0.6797
   84HK4     C7 7013   4.229   4.676   8.432  0.0518 -0.2484  0.1456
   84HK4     O2 7014   4.154   4.658   8.336  0.3232  0.2301 -0.1592
   84HK4     C4 7015   4.207   4.607   8.561  0.0807 -0.0252  0.2690
   84HK4     C3 7016   4.086   4.544   8.587 -0.4734  0.9895  0.1801
   84HK4     H3 7017   4.007   4.564   8.514  0.2318 -1.0427 -1.1569
   84HK4     C2 7018   4.059   4.472   8.703 -0.3841 -0.8865 -0.9548
   84HK4     H2 7019   3.960   4.432   8.730 -0.3173 -0.2166  0.3004
   84HK4     C1 7020   4.170   4.447   8.783 -0.5510  0.2936 -0.3489
   84HK4     H1 7021   4.155   4.392   8.877  2.2365  1.9882  1.1408
   84HK4     C6 7022   4.297   4.503   8.761 -0.2046 -0.4557 -0.2536
   84HK4     C5 7023   4.310   4.597   8.658  0.2780 -0.1861  0.0452
   84HK4    C10 7024   4.432   4.680   8.639  0.0402  0.1081 -0.1901
   84HK4     O1 7025   4.462   4.744   8.739 -0.1211  0.4376 -0.3510
   84HK4    C16 7026   4.409   4.411   8.787 -0.2360 -0.4269 -0.0048
   84HK4    C15 7027   4.398   4.270   8.787 -0.0668 -0.4387  0.0770
   84HK4     H7 7028   4.324   4.224   8.719 -1.9730 -0.1846  1.9102
   84HK4    C20 7029   4.485   4.186   8.856  0.2350 -0.3709 -0.2244
   84HK4     H9 7030   4.473   4.077   8.857 -0.4858 -0.2939  0.2451
   84HK4    C19 7031   4.589   4.248   8.924 -0.0424 -0.3886  0.2149
   84HK4    C18 7032   4.606   4.392   8.933  0.3522 -0.3881 -0.5316
   84HK4    C17 7033   4.504   4.464   8.872 -0.1182 -0.6132 -0.0204
   84HK4     H8 7034   4.491   4.565   8.911 -3.6757  0.0524 -2.6852
   84HK4     N1 7035   4.721   4.429   9.005 -0.3696  0.1613  0.3490
   84HK4    C21 7036   4.786   4.307   9.034 -0.3265  0.2376  0.5739
   84HK4    C22 7037   4.707   4.194   8.989  0.2335  0.0404  0.0725
   84HK4    C26 7038   4.746   4.064   9.016 -0.4378 -0.1540  0.1132
   84HK4    H13 7039   4.678   3.980   9.001  3.0785 -2.8975 -1.0596
   84HK4    C25 7040   4.874   4.039   9.064 -0.1385  0.2570 -0.4781
   84HK4    H12 7041   4.895   3.942   9.109  1.7281  0.6929 -0.3910
   84HK4    C24 7042   4.956   4.147   9.093  0.0102 -0.1644  0.7070
   84HK4    H11 7043   5.064   4.132   9.109  0.5315  0.4384 -1.8975
   84HK4    C23 7044   4.914   4.279   9.080 -0.0711 -0.2980 -0.4487
   84HK4    H10 7045   4.989   4.357   9.092  0.4532 -0.7083 -1.0408
   84HK4    C39 7046   4.772   4.555   9.039 -0.2012  0.1901 -0.0153
   84HK4    C41 7047   4.834   4.585   9.162 -0.3672 -0.0770  0.1348
   84HK4    H21 7048   4.847   4.497   9.227  1.2586  1.4193  1.8999
   84HK4    C42 7049   4.892   4.710   9.180  0.2484 -0.3033 -0.2243
   84HK4    H22 7050   4.911   4.755   9.279  1.0310  0.7968 -0.8689
   84HK4    C43 7051   4.901   4.797   9.072  0.2612 -0.2107 -0.1487
   84HK4    H23 7052   4.921   4.898   9.110 -0.5221 -0.8430  2.0290
   84HK4    C44 7053   4.840   4.774   8.949 -0.1633  0.2838 -0.0354
   84HK4    H24 7054   4.838   4.846   8.866 -0.6863  0.5906  0.2350
   84HK4    C45 7055   4.771   4.654   8.939 -0.4766  0.4386  0.2338
   84HK4    H25 7056   4.721   4.628   8.844  0.9631 -1.7705  0.0464
   85HK4    H28 7057   0.976   3.678   4.087  1.1212  0.4313 -0.5220
   85HK4    C48 7058   1.031   3.584   4.091 -0.0456 -0.2367 -0.1315
   85HK4    C47 7059   1.119   3.564   3.985  0.4457  0.1762  0.2012
   85HK4    H27 7060   1.129   3.643   3.909 -0.1858  1.0637  1.0321
   85HK4    C46 7061   1.207   3.457   3.991 -0.1847 -0.3524  0.1182
   85HK4    H26 7062   1.289   3.451   3.917  0.9052 -1.4041  1.3892
   85HK4    C40 7063   1.213   3.368   4.100  0.5006  0.0372  0.4049
   85HK4    C50 7064   1.117   3.389   4.202  0.1423 -0.0044  0.0765
   85HK4    H30 7065   1.097   3.304   4.268  1.6017 -0.3754  0.0559
   85HK4    C49 7066   1.029   3.496   4.198 -0.7288 -0.7368 -0.5459
   85HK4    H29 7067   0.949   3.502   4.274 -1.6389  0.7642 -1.6017
   85HK4     N2 7068   1.286   3.249   4.104 -0.4748 -0.5935 -0.2066
   85HK4    C30 7069   1.359   3.198   3.994  0.0058  0.0936 -0.2127
   85HK4    C29 7070   1.333   3.208   3.858 -0.4810 -0.1198 -0.1379
   85HK4    H15 7071   1.231   3.234   3.831 -0.0646  1.6362 -0.0877
   85HK4    C28 7072   1.411   3.148   3.760  0.0042 -0.0988  0.2304
   85HK4    C27 7073   1.532   3.093   3.807 -0.1682 -0.6813 -0.0089
   85HK4    H14 7074   1.615   3.076   3.737 -2.2479 -2.2007 -2.2033
   85HK4    C32 7075   1.567   3.082   3.941  0.1746  0.2836 -0.0142
   85HK4    H16 7076   1.659   3.028   3.962  0.3451  1.1338  1.5037
   85HK4    C31 7077   1.483   3.137   4.037 -0.1695 -0.1557 -0.0592
   85HK4    C34 7078   1.480   3.139   4.182 -0.3971 -0.2110 -0.0642
   85HK4    C33 7079   1.359   3.210   4.219 -0.2553  0.0608 -0.1186
   85HK4    C35 7080   1.351   3.248   4.352 -0.2236 -1.0482  0.2050
   85HK4    H17 7081   1.270   3.311   4.389  0.2862  0.0190 -0.4920
   85HK4    C36 7082   1.449   3.212   4.444  0.0866  0.0794  0.3182
   85HK4    H18 7083   1.428   3.228   4.551  0.7354  1.2997  0.2710
   85HK4    C37 7084   1.558   3.134   4.409 -0.1082 -0.0659  0.0377
   85HK4    H19 7085   1.631   3.095   4.479  1.5900 -1.2743 -2.3266
   85HK4    C38 7086   1.576   3.100   4.275 -0.3704 -0.0184 -0.0105
   85HK4    H20 7087   1.664   3.047   4.238  1.2593  1.6652  1.3598
   85HK4    C14 7088   1.346   3.117   3.631  0.5275  0.2414 -0.1193
   85HK4     C9 7089   1.373   3.003   3.555 -0.2760 -0.0286 -0.0019
   85HK4     C8 7090   1.360   3.001   3.414 -0.0002 -0.0579 -0.0286
   85HK4    C11 7091   1.303   3.113   3.354 -0.4971 -0.1488  0.2633
   85HK4     H4 7092   1.308   3.113   3.244  0.9897 -0.2145  0.3197
   85HK4    C12 7093   1.274   3.225   3.431  0.0922  0.3701 -0.2700
   85HK4     H5 7094   1.245   3.320   3.383 -0.0953  0.7484  0.5915
   85HK4    C13 7095   1.289   3.230   3.569  0.1526 -0.0267 -0.2625
   85HK4     H6 7096   1.253   3.321   3.618  0.4291  1.0805 -2.0624
   85HK4     C7 7097   1.427   2.895   3.335  0.2604 -0.0645  0.2027
   85HK4     O2 7098   1.406   2.893   3.214  0.6310  0.2429  0.1311
   85HK4     C4 7099   1.501   2.790   3.408 -0.1112 -0.2664  0.2888
   85HK4     C3 7100   1.586   2.702   3.341 -0.6988 -0.6000 -0.0280
   85HK4     H3 7101   1.605   2.725   3.235 -0.8215 -0.0459  0.0690
   85HK4     C2 7102   1.666   2.608   3.404 -0.1453 -0.0088  0.1615
   85HK4     H2 7103   1.714   2.528   3.346  1.3366  0.9269  0.0688
   85HK4     C1 7104   1.676   2.614   3.542  0.0275 -0.2015  0.1584
   85HK4     H1 7105   1.753   2.554   3.592 -0.1438 -0.7377 -0.2201
   85HK4     C6 7106   1.592   2.699   3.617 -0.0256 -0.3789  0.3001
   85HK4     C5 7107   1.503   2.783   3.549  0.3825  0.0585  0.2994
   85HK4    C10 7108   1.419   2.880   3.624  0.3447  0.2268  0.0446
   85HK4     O1 7109   1.342   2.837   3.711  0.1628 -0.0659 -0.2597
   85HK4    C16 7110   1.658   2.749   3.738  0.3217  0.1383 -0.0989
   85HK4    C15 7111   1.795   2.777   3.755  0.2746  0.3440 -0.0517
   85HK4     H7 7112   1.855   2.755   3.665 -1.7283  1.1858 -1.6301
   85HK4    C20 7113   1.851   2.792   3.882 -0.2356  0.7739  0.1232
   85HK4     H9 7114   1.958   2.806   3.896 -0.3306  0.6602  1.0072
   85HK4    C19 7115   1.772   2.777   3.996 -0.4197 -0.0542 -0.1028
   85HK4    C18 7116   1.636   2.731   3.981 -0.3467 -0.1872 -0.3620
   85HK4    C17 7117   1.582   2.728   3.853 -0.1189 -0.2324 -0.4574
   85HK4     H8 7118   1.486   2.677   3.850  1.0359 -2.7535  2.7488
   85HK4     N1 7119   1.571   2.713   4.105  0.5086 -0.2397  0.0831
   85HK4    C21 7120   1.659   2.753   4.207  0.4364 -0.3985  0.2072
   85HK4    C22 7121   1.780   2.796   4.139  0.0063  0.2357 -0.1613
   85HK4    C26 7122   1.879   2.860   4.213 -0.2607  0.1192  0.3021
   85HK4    H13 7123   1.974   2.894   4.171  0.3601  0.0489  1.6387
   85HK4    C25 7124   1.862   2.886   4.348  0.5427 -0.2529  0.4782
   85HK4    H12 7125   1.941   2.936   4.404  1.7315 -0.5409 -0.9137
   85HK4    C24 7126   1.747   2.839   4.410 -0.1074  0.2778 -0.3064
   85HK4    H11 7127   1.740   2.855   4.519 -1.1932 -1.3498 -0.1113
   85HK4    C23 7128   1.643   2.775   4.343 -0.0502 -0.2871  0.1327
   85HK4    H10 7129   1.551   2.744   4.393  0.2970 -2.9672 -0.8246
   85HK4    C39 7130   1.435   2.679   4.116  0.3582  0.4733  0.3930
   85HK4    C41 7131   1.397   2.596   4.224 -0.1325 -0.2826 -0.3594
   85HK4    H21 7132   1.469   2.539   4.285 -0.3366 -1.0473 -0.8329
   85HK4    C42 7133   1.262   2.592   4.255 -0.0923 -0.1654 -0.1696
   85HK4    H22 7134   1.224   2.508   4.314  0.6031 -0.2587  0.1472
   85HK4    C43 7135   1.172   2.672   4.185  0.2507 -0.0139 -0.4406
   85HK4    H23 7136   1.066   2.651   4.174 -0.0775  2.0698 -1.4863
   85HK4    C44 7137   1.219   2.755   4.084  0.2101  0.1288 -0.3439
   85HK4    H24 7138   1.153   2.839   4.056 -0.1306  0.2600  0.8312
   85HK4    C45 7139   1.350   2.759   4.038  0.3201  0.0060 -0.0411
   85HK4    H25 7140   1.387   2.841   3.975 -1.6930  1.9616  1.2362
   86HK4    H28 7141   0.774   6.080   0.208  0.4848 -0.6907 -1.1163
   86HK4    C48 7142   0.810   5.999   0.271  0.0984 -0.1283 -0.1554
   86HK4    C47 7143   0.899   5.916   0.203  0.3056 -0.2481  0.2565
   86HK4    H27 7144   0.897   5.913   0.093 -1.3536 -0.5646  0.2847
   86HK4    C46 7145   0.966   5.816   0.273 -0.0545 -0.5791  0.1322
   86HK4    H26 7146   1.049   5.767   0.220 -1.6587 -1.5616 -1.5251
   86HK4    C40 7147   0.941   5.788   0.409 -0.0028 -0.2844  0.2027
   86HK4    C50 7148   0.840   5.864   0.471 -0.0425  0.0485 -0.2652
   86HK4    H30 7149   0.792   5.827   0.563 -1.2422  0.8416 -0.5639
   86HK4    C49 7150   0.780   5.970   0.404 -0.3935 -0.1539 -0.2729
   86HK4    H29 7151   0.726   6.044   0.465  2.7498 -0.0778  2.5559
   86HK4     N2 7152   0.989   5.669   0.464  0.2595 -0.2375  0.0760
   86HK4    C30 7153   1.003   5.543   0.401  0.0062 -0.3004  0.1478
   86HK4    C29 7154   0.977   5.510   0.269  0.6048 -0.1779 -0.0016
   86HK4    H15 7155   0.903   5.573   0.220  0.6415 -0.5721 -0.5768
   86HK4    C28 7156   0.984   5.379   0.222 -0.7796 -0.2015 -0.1551
   86HK4    C27 7157   1.016   5.282   0.319 -0.1204  0.1642 -0.0065
   86HK4    H14 7158   1.006   5.174   0.300  1.4764 -0.1561  0.8730
   86HK4    C32 7159   1.055   5.314   0.449 -0.2731 -0.1156  0.1080
   86HK4    H16 7160   1.079   5.232   0.517 -1.0361  0.1296  0.6716
   86HK4    C31 7161   1.056   5.445   0.494  0.0080 -0.1743  0.2791
   86HK4    C34 7162   1.071   5.520   0.617 -0.3665 -0.1611  0.3155
   86HK4    C33 7163   1.030   5.658   0.598  0.6676  0.1068 -0.0176
   86HK4    C35 7164   1.053   5.748   0.702 -0.1615 -0.0917  0.3433
   86HK4    H17 7165   1.040   5.855   0.692 -0.0681  0.0133  1.2778
   86HK4    C36 7166   1.120   5.713   0.819  0.5314  0.2354  0.0481
   86HK4    H18 7167   1.151   5.786   0.895 -0.6273 -0.0466  0.8124
   86HK4    C37 7168   1.151   5.579   0.839  0.0423  0.0881 -0.1806
   86HK4    H19 7169   1.212   5.552   0.924 -1.2840  2.2022  1.5060
   86HK4    C38 7170   1.123   5.484   0.741  0.0992 -0.2237  0.1032
   86HK4    H20 7171   1.157   5.382   0.755 -0.0471 -0.2043  0.5836
   86HK4    C14 7172   0.928   5.349   0.089  0.3964 -0.0815 -0.6869
   86HK4     C9 7173   0.851   5.235   0.062  0.5690 -0.4285  0.2469
   86HK4     C8 7174   0.840   5.177  11.182  0.1951 -0.4134  0.2681
   86HK4    C11 7175   0.908   5.241  11.079 -0.4114  0.0583  0.1634
   86HK4     H4 7176   0.904   5.191  10.982  0.0196 -1.9857  1.1789
   86HK4    C12 7177   0.986   5.355  11.101 -0.6616  0.3915 -0.6501
   86HK4     H5 7178   1.024   5.404  11.011 -0.5847 -0.2861 -0.9925
   86HK4    C13 7179   0.992   5.411  11.228 -0.3285  0.5734 -0.7499
   86HK4     H6 7180   1.069   5.488  11.245 -0.2680  0.3957 -0.1865
   86HK4     C7 7181   0.756   5.058  11.157  0.1287 -0.3653  0.2630
   86HK4     O2 7182   0.718   5.035  11.043 -0.5965  0.2409  0.3730
   86HK4     C4 7183   0.699   4.985   0.025 -0.1797  0.2532  0.4975
   86HK4     C3 7184   0.639   4.862   0.001  0.2094  0.1418  0.1076
   86HK4     H3 7185   0.625   4.823  11.147 -1.7610 -1.4599  0.9502
   86HK4     C2 7186   0.610   4.781   0.110  0.2439  0.0646  0.0584
   86HK4     H2 7187   0.585   4.675   0.096  0.2459 -0.3140  2.8127
   86HK4     C1 7188   0.647   4.825   0.236 -0.3117  0.0897  0.2136
   86HK4     H1 7189   0.604   4.772   0.322 -0.7734 -1.3001 -0.8490
   86HK4     C6 7190   0.705   4.950   0.269  0.2157 -0.0973  0.0026
   86HK4     C5 7191   0.717   5.033   0.157  0.1945  0.4202  0.3845
   86HK4    C10 7192   0.772   5.171   0.171  0.5249  0.2665  0.6293
   86HK4     O1 7193   0.692   5.239   0.234  0.1172  0.5234 -0.1564
   86HK4    C16 7194   0.795   4.945   0.385  0.2815 -0.0950 -0.0481
   86HK4    C15 7195   0.871   4.831   0.416 -0.2227 -0.4060  0.0407
   86HK4     H7 7196   0.891   4.768   0.328  0.1322  1.3936 -1.1715
   86HK4    C20 7197   0.937   4.820   0.538 -0.0899 -0.0892 -0.0048
   86HK4     H9 7198   0.996   4.733   0.567  0.7697  0.5763  0.2934
   86HK4    C19 7199   0.929   4.919   0.636  0.5650 -0.1094  0.0737
   86HK4    C18 7200   0.848   5.036   0.606  1.0256  0.0896 -0.4151
   86HK4    C17 7201   0.784   5.043   0.484  0.4465 -0.0050 -0.1185
   86HK4     H8 7202   0.694   5.104   0.476 -0.7189 -1.8156 -1.4775
   86HK4     N1 7203   0.874   5.139   0.699  0.0384  0.4932 -0.5844
   86HK4    C21 7204   0.970   5.089   0.790 -0.8358 -0.4658 -0.1750
   86HK4    C22 7205   1.004   4.953   0.755 -0.4140 -0.6223  0.8429
   86HK4    C26 7206   1.097   4.879   0.828  0.3083 -0.6806 -0.1206
   86HK4    H13 7207   1.112   4.772   0.810 -2.3416 -1.5427  2.4015
   86HK4    C25 7208   1.150   4.940   0.940  0.1191 -0.3932 -0.1863
   86HK4    H12 7209   1.227   4.893   1.002  2.2778 -0.9332 -3.1769
   86HK4    C24 7210   1.125   5.074   0.968  0.6661 -0.3128 -0.0635
   86HK4    H11 7211   1.184   5.122   1.048 -1.1377  2.2008 -0.1805
   86HK4    C23 7212   1.038   5.152   0.893  0.1168 -1.1939 -0.3514
   86HK4    H10 7213   1.013   5.252   0.929  0.3433 -1.5634  0.8422
   86HK4    C39 7214   0.804   5.259   0.716 -0.3036  0.2477 -0.2471
   86HK4    C41 7215   0.799   5.321   0.843  0.0903 -0.0068 -0.1090
   86HK4    H21 7216   0.793   5.260   0.935 -1.4762 -0.0700 -0.2523
   86HK4    C42 7217   0.761   5.454   0.857  0.5047  0.0894  0.1269
   86HK4    H22 7218   0.731   5.499   0.953  0.0277 -0.3283  0.1745
   86HK4    C43 7219   0.719   5.527   0.747 -0.0573 -0.5206 -0.0666
   86HK4    H23 7220   0.682   5.627   0.770  0.6563 -0.1464 -0.5232
   86HK4    C44 7221   0.720   5.466   0.622 -0.6745 -0.0586 -0.2980
   86HK4    H24 7222   0.674   5.520   0.537 -0.1781 -0.0869 -0.5866
   86HK4    C45 7223   0.769   5.337   0.604 -0.0113  0.1973 -0.3743
   86HK4    H25 7224   0.783   5.295   0.504 -0.7869  0.0726 -0.4350
   87HK4    H28 7225   5.266   0.150   7.542  1.4883  0.3516 -0.1923
   87HK4    C48 7226   5.206   0.236   7.574 -0.2714 -0.8145 -0.2911
   87HK4    C47 7227   5.145   0.245   7.699  0.1868  0.5169 -0.1599
   87HK4    H27 7228   5.150   0.161   7.769  0.8062  1.2295  0.6662
   87HK4    C46 7229   5.072   0.356   7.739 -0.7117 -0.1653  0.0953
   87HK4    H26 7230   5.050   0.371   7.846  2.3025 -1.2038  0.8965
   87HK4    C40 7231   5.040   0.461   7.650  0.0216 -0.2032 -0.2134
   87HK4    C50 7232   5.099   0.447   7.523 -0.4345 -0.3232 -0.4123
   87HK4    H30 7233   5.079   0.524   7.446 -0.2977  0.4657  0.3409
   87HK4    C49 7234   5.184   0.343   7.489  0.6241  0.1740  0.7031
   87HK4    H29 7235   5.241   0.364   7.397  0.4166 -1.1957  0.2485
   87HK4     N2 7236   4.924   0.540   7.657  0.2006  0.0321  0.1368
   87HK4    C30 7237   4.808   0.511   7.731 -0.2147 -0.0350 -0.5367
   87HK4    C29 7238   4.768   0.388   7.783  0.1789  0.2251  0.3906
   87HK4    H15 7239   4.831   0.299   7.770 -0.2361  0.0279 -0.3235
   87HK4    C28 7240   4.656   0.376   7.863  0.1066  0.1672  0.2846
   87HK4    C27 7241   4.582   0.494   7.888  0.0529  0.1134  0.3794
   87HK4    H14 7242   4.515   0.495   7.975 -0.3379 -1.8117  0.1293
   87HK4    C32 7243   4.616   0.620   7.839  0.1540 -0.1355 -0.1997
   87HK4    H16 7244   4.542   0.700   7.847  1.0718  0.7698 -0.7399
   87HK4    C31 7245   4.734   0.630   7.767  0.2983  0.0992  0.0702
   87HK4    C34 7246   4.812   0.742   7.719 -0.1343  0.1936 -0.4128
   87HK4    C33 7247   4.923   0.681   7.648 -0.2006 -0.0004 -0.3498
   87HK4    C35 7248   5.023   0.768   7.607  0.0287 -0.0120  0.1885
   87HK4    H17 7249   5.120   0.725   7.582 -0.9169 -2.4592  0.5849
   87HK4    C36 7250   5.004   0.905   7.617  0.4947  0.0556  0.1729
   87HK4    H18 7251   5.068   0.969   7.556 -0.2911  3.1818  2.4862
   87HK4    C37 7252   4.891   0.965   7.673 -0.1139 -0.1188 -0.8562
   87HK4    H19 7253   4.883   1.073   7.682  1.5193 -0.0663  0.1511
   87HK4    C38 7254   4.794   0.880   7.725 -0.1355  0.1923 -0.3900
   87HK4    H20 7255   4.711   0.931   7.774 -0.6958  1.4274 -2.5837
   87HK4    C14 7256   4.599   0.248   7.905  0.1876  0.1122  0.2258
   87HK4     C9 7257   4.462   0.218   7.913  0.0835  0.6404  0.3839
   87HK4     C8 7258   4.420   0.120   8.004  0.3414 -0.0940 -0.2819
   87HK4    C11 7259   4.511   0.055   8.086  0.4036  0.2889 -0.0464
   87HK4     H4 7260   4.467  11.235   8.160 -1.5219  1.8823  0.2927
   87HK4    C12 7261   4.647   0.075   8.065  0.4776 -0.0638  0.0808
   87HK4     H5 7262   4.703  11.231   8.084  2.8711  0.9204 -1.9659
   87HK4    C13 7263   4.694   0.171   7.975  0.2652  0.7224  0.7964
   87HK4     H6 7264   4.795   0.167   7.933  0.8876 -2.5086  2.3996
   87HK4     C7 7265   4.285   0.059   8.000  0.1796  0.2548 -0.1093
   87HK4     O2 7266   4.237   0.032   8.110 -0.2038 -0.3597 -0.4261
   87HK4     C4 7267   4.198   0.097   7.886 -0.0957 -0.4635 -0.1432
   87HK4     C3 7268   4.084   0.022   7.864  0.0290 -0.5813 -0.3989
   87HK4     H3 7269   4.060  11.175   7.915 -2.6522 -0.0201 -0.5527
   87HK4     C2 7270   3.990   0.065   7.771 -0.3020  0.3478  0.3431
   87HK4     H2 7271   3.904   0.005   7.737 -0.4772 -0.7858  2.6851
   87HK4     C1 7272   4.009   0.190   7.713  0.5516  0.1021  0.0789
   87HK4     H1 7273   3.928   0.241   7.659  0.8363 -0.1829 -0.6248
   87HK4     C6 7274   4.124   0.269   7.731  0.4189  0.4221 -0.4699
   87HK4     C5 7275   4.225   0.214   7.811 -0.4299 -0.1607  0.2059
   87HK4    C10 7276   4.366   0.262   7.808 -0.3291 -0.4450  0.3046
   87HK4     O1 7277   4.413   0.302   7.702 -0.0774 -0.4312  0.4230
   87HK4    C16 7278   4.103   0.414   7.738 -0.0353  0.3278  0.1245
   87HK4    C15 7279   3.978   0.454   7.791 -0.0129  0.3042  0.1989
   87HK4     H7 7280   3.943   0.401   7.881  1.0025 -0.6955  0.0284
   87HK4    C20 7281   3.910   0.568   7.749  0.2364  0.4550  0.2083
   87HK4     H9 7282   3.824   0.601   7.806 -1.0065 -0.5793 -1.0453
   87HK4    C19 7283   3.967   0.646   7.649  0.1399  0.1079 -0.1220
   87HK4    C18 7284   4.101   0.619   7.602  0.2321  0.1291  0.1285
   87HK4    C17 7285   4.161   0.502   7.648  0.4141  0.3423  0.4313
   87HK4     H8 7286   4.257   0.470   7.608  0.4033  0.6857  0.1199
   87HK4     N1 7287   4.128   0.693   7.485  0.2601  0.3188  0.2542
   87HK4    C21 7288   4.004   0.752   7.453  0.1621 -0.0045  0.0345
   87HK4    C22 7289   3.904   0.739   7.557 -0.0991 -0.1650 -0.2350
   87HK4    C26 7290   3.774   0.785   7.539  0.0517  0.2826 -0.1837
   87HK4    H13 7291   3.694   0.756   7.607  1.0832 -1.5793  0.2577
   87HK4    C25 7292   3.744   0.842   7.415 -0.0429 -0.6150 -0.5739
   87HK4    H12 7293   3.644   0.881   7.397  0.2475  0.1630 -0.5320
   87HK4    C24 7294   3.839   0.854   7.315  0.6248 -0.0051  0.1195
   87HK4    H11 7295   3.802   0.883   7.215 -1.3763 -1.3442  0.4212
   87HK4    C23 7296   3.968   0.805   7.329  0.7175  0.1873 -0.0485
   87HK4    H10 7297   4.013   0.767   7.238  0.6646 -0.9073  0.3693
   87HK4    C39 7298   4.254   0.744   7.454  0.3928 -0.2882 -0.2108
   87HK4    C41 7299   4.294   0.777   7.323  0.2645  0.5785 -0.0323
   87HK4    H21 7300   4.233   0.756   7.234  0.4210 -0.1367  0.0258
   87HK4    C42 7301   4.416   0.842   7.305  0.4852  0.0232 -0.5747
   87HK4    H22 7302   4.449   0.887   7.210  0.0242  0.4878 -0.5223
   87HK4    C43 7303   4.492   0.876   7.416 -0.3511 -0.1718  0.0665
   87HK4    H23 7304   4.595   0.908   7.397  0.1271 -1.3710  0.5884
   87HK4    C44 7305   4.458   0.843   7.546 -0.1550  0.1623  0.2024
   87HK4    H24 7306   4.519   0.869   7.634  0.0673 -1.7036  0.6187
   87HK4    C45 7307   4.338   0.776   7.563 -0.0153 -0.1258  0.0544
   87HK4    H25 7308   4.307   0.749   7.665 -0.4885 -2.0508 -0.5821
   88HK4    H28 7309   2.784   6.261   5.597  3.0105  0.7670  0.4638
   88HK4    C48 7310   2.797   6.188   5.677  0.3730  0.0537  0.2617
   88HK4    C47 7311   2.688   6.147   5.753  0.0861 -0.0718 -0.2149
   88HK4    H27 7312   2.587   6.180   5.725  0.4553 -0.2030 -1.7620
   88HK4    C46 7313   2.703   6.054   5.856  0.2150 -0.2693 -0.4112
   88HK4    H26 7314   2.617   5.994   5.887 -0.0592  0.5128  0.3721
   88HK4    C40 7315   2.830   6.017   5.904  0.1348  0.0003  0.0132
   88HK4    C50 7316   2.938   6.063   5.826  0.0908  0.3283  0.1434
   88HK4    H30 7317   3.036   6.019   5.847 -0.3029 -0.2445  0.7903
   88HK4    C49 7318   2.924   6.146   5.715  0.4832  0.0149 -0.1432
   88HK4    H29 7319   3.010   6.178   5.654  0.0096  1.5034 -0.0653
   88HK4     N2 7320   2.847   5.976   6.037  0.4299  0.2713  0.0586
   88HK4    C30 7321   2.763   6.005   6.146 -0.1686 -0.5399 -0.1873
   88HK4    C29 7322   2.656   6.092   6.164  0.4489  0.1407  0.2140
   88HK4    H15 7323   2.620   6.147   6.077  0.6496 -0.2636 -0.1267
   88HK4    C28 7324   2.588   6.106   6.284 -0.2235 -0.5708 -0.0853
   88HK4    C27 7325   2.625   6.017   6.386 -0.0367  0.2734  0.5853
   88HK4    H14 7326   2.562   6.002   6.475  0.6326 -1.7633  0.7412
   88HK4    C32 7327   2.732   5.929   6.375 -0.2374  0.0788  0.1716
   88HK4    H16 7328   2.765   5.884   6.469 -1.4202  0.3560  0.7247
   88HK4    C31 7329   2.806   5.923   6.258 -0.5205 -0.4420  0.0188
   88HK4    C34 7330   2.906   5.830   6.210  0.2467  0.3758  0.0300
   88HK4    C33 7331   2.932   5.869   6.073 -0.0422 -0.1896 -0.1875
   88HK4    C35 7332   3.030   5.804   5.999  0.2691  0.5218 -0.4067
   88HK4    H17 7333   3.025   5.815   5.891 -0.8703  2.2335 -0.2043
   88HK4    C36 7334   3.101   5.698   6.055 -0.3023  0.2005 -0.2865
   88HK4    H18 7335   3.184   5.656   5.996 -0.2818  1.6365 -1.3234
   88HK4    C37 7336   3.074   5.658   6.185  0.6307  0.7640  0.0844
   88HK4    H19 7337   3.124   5.576   6.236  0.8315  1.7813  1.5800
   88HK4    C38 7338   2.979   5.724   6.262 -0.1564 -0.0188 -0.2087
   88HK4    H20 7339   2.950   5.696   6.364 -0.1992  3.6357  0.8572
   88HK4    C14 7340   2.529   6.234   6.325  0.7643 -0.0575 -0.2720
   88HK4     C9 7341   2.537   6.283   6.456 -0.2023 -0.1859 -0.1670
   88HK4     C8 7342   2.429   6.356   6.512  0.0760 -0.0578  0.2079
   88HK4    C11 7343   2.324   6.386   6.426  0.2715 -0.4239 -0.1636
   88HK4     H4 7344   2.240   6.440   6.473 -0.1601 -0.4656 -0.8839
   88HK4    C12 7345   2.323   6.357   6.290  0.2475  0.4866 -0.3604
   88HK4     H5 7346   2.250   6.413   6.230  0.3139  2.1034  1.0349
   88HK4    C13 7347   2.427   6.279   6.240  0.1248 -0.1859  0.4228
   88HK4     H6 7348   2.426   6.247   6.135 -0.6869  0.2158  0.3055
   88HK4     C7 7349   2.439   6.393   6.654  0.3787  0.8519 -0.0470
   88HK4     O2 7350   2.333   6.420   6.712  0.1139 -0.4719  0.1128
   88HK4     C4 7351   2.561   6.372   6.735  0.0732 -0.3195  0.1187
   88HK4     C3 7352   2.565   6.402   6.871  0.2996  0.7261 -0.1146
   88HK4     H3 7353   2.515   6.493   6.908  0.6142  0.9782 -0.3029
   88HK4     C2 7354   2.654   6.343   6.960 -0.1957  0.3896  0.1591
   88HK4     H2 7355   2.661   6.362   7.068  0.3961  2.1891 -0.1768
   88HK4     C1 7356   2.755   6.265   6.904 -0.5141 -0.1514  0.3389
   88HK4     H1 7357   2.846   6.252   6.964 -1.5356  0.8961  2.1716
   88HK4     C6 7358   2.762   6.236   6.766 -0.2026  0.1227  0.2963
   88HK4     C5 7359   2.666   6.294   6.683 -0.1550 -0.4423 -0.1482
   88HK4    C10 7360   2.662   6.270   6.535 -0.1725 -0.1158 -0.2015
   88HK4     O1 7361   2.755   6.318   6.470 -0.3230 -0.1433 -0.4358
   88HK4    C16 7362   2.832   6.112   6.733  0.1513  0.2756  0.4743
   88HK4    C15 7363   2.842   6.008   6.828  0.7759  0.1641  0.2974
   88HK4     H7 7364   2.744   5.975   6.866 -0.8856  4.6406  0.2425
   88HK4    C20 7365   2.956   5.932   6.845  0.3028 -0.6040  0.0655
   88HK4     H9 7366   2.972   5.858   6.923  0.5826 -0.3684  0.2311
   88HK4    C19 7367   3.069   5.954   6.767  0.1015 -0.6308 -0.2341
   88HK4    C18 7368   3.059   6.047   6.657  0.0272 -0.3532  0.0083
   88HK4    C17 7369   2.940   6.119   6.645 -0.2595 -0.8518 -0.1350
   88HK4     H8 7370   2.932   6.192   6.565 -0.0706  0.4515  1.0307
   88HK4     N1 7371   3.187   6.085   6.610 -0.0636  0.1058  0.1239
   88HK4    C21 7372   3.282   6.020   6.692 -0.1154 -0.5727 -0.3427
   88HK4    C22 7373   3.212   5.942   6.792  0.0492  0.5514  0.6717
   88HK4    C26 7374   3.287   5.879   6.890  0.2034  0.0819  0.2578
   88HK4    H13 7375   3.235   5.809   6.956 -0.9331  0.2763 -0.4238
   88HK4    C25 7376   3.423   5.902   6.910  0.2360  0.1340 -0.0268
   88HK4    H12 7377   3.475   5.867   6.999 -0.3783 -2.0661 -0.4972
   88HK4    C24 7378   3.487   5.981   6.816 -0.0345  0.4893  0.0851
   88HK4    H11 7379   3.593   6.005   6.832 -0.3806  2.6698 -0.6862
   88HK4    C23 7380   3.419   6.033   6.706 -0.0956 -0.6832 -0.4411
   88HK4    H10 7381   3.484   6.031   6.619 -0.3627 -1.6369 -0.6209
   88HK4    C39 7382   3.208   6.132   6.480  0.0238 -0.1311  0.0498
   88HK4    C41 7383   3.330   6.193   6.445 -0.2363  0.3540 -0.0083
   88HK4    H21 7384   3.388   6.246   6.521  0.8515 -1.0288  0.1399
   88HK4    C42 7385   3.367   6.205   6.311 -0.3755 -0.1535 -0.0920
   88HK4    H22 7386   3.442   6.275   6.271 -0.2237 -0.0198  0.4282
   88HK4    C43 7387   3.287   6.153   6.210 -0.2347 -0.0113 -0.2759
   88HK4    H23 7388   3.323   6.150   6.107  1.2576 -1.6682  0.2797
   88HK4    C44 7389   3.164   6.093   6.237  0.0460 -0.4420  0.0497
   88HK4    H24 7390   3.091   6.071   6.158 -1.4406  3.5668  0.1842
   88HK4    C45 7391   3.131   6.087   6.372 -0.4422  0.7957 -0.0074
   88HK4    H25 7392   3.035   6.036   6.392  0.6014 -2.0350 -1.8175
   89HK4    H28 7393   9.081   4.738   4.035 -0.5105  1.6166  2.1617
   89HK4    C48 7394   8.976   4.738   4.007  0.1038  0.7056 -0.2484
   89HK4    C47 7395   8.890   4.802   4.095 -0.1955  0.4381 -0.3444
   89HK4    H27 7396   8.931   4.867   4.174 -0.0894 -1.2061  0.9809
   89HK4    C46 7397   8.754   4.786   4.074 -0.2258 -0.9863  0.7946
   89HK4    H26 7398   8.692   4.853   4.136  0.6977 -0.1946  0.8734
   89HK4    C40 7399   8.703   4.722   3.959  0.3070 -0.5662  0.3202
   89HK4    C50 7400   8.797   4.666   3.871  0.0403 -0.6617  0.0987
   89HK4    H30 7401   8.767   4.590   3.797 -0.3338 -0.5971  0.1820
   89HK4    C49 7402   8.934   4.673   3.891 -0.0057 -0.0566  0.2134
   89HK4    H29 7403   8.993   4.680   3.798  0.5822 -0.9776  0.5048
   89HK4     N2 7404   8.568   4.684   3.963  0.0145  0.4197  0.0369
   89HK4    C30 7405   8.487   4.673   4.078  0.1668 -0.0866  0.0975
   89HK4    C29 7406   8.519   4.657   4.213  0.6992 -0.7238 -0.1047
   89HK4    H15 7407   8.626   4.649   4.234  0.6793  0.9007  0.6665
   89HK4    C28 7408   8.420   4.636   4.307  0.3391 -0.1069 -0.3481
   89HK4    C27 7409   8.285   4.621   4.268  0.3040 -0.6376 -0.0184
   89HK4    H14 7410   8.215   4.582   4.344  0.1902  2.0672  1.3258
   89HK4    C32 7411   8.247   4.631   4.135 -0.1697  0.0041  0.1640
   89HK4    H16 7412   8.144   4.618   4.101 -0.4449  2.7667 -0.2174
   89HK4    C31 7413   8.347   4.658   4.043  0.1698 -0.6799  0.3310
   89HK4    C34 7414   8.338   4.661   3.898 -0.2302 -0.3847  0.3619
   89HK4    C33 7415   8.477   4.667   3.857 -0.3122  0.8428  0.2521
   89HK4    C35 7416   8.504   4.643   3.723  0.0627 -0.5472  0.5737
   89HK4    H17 7417   8.609   4.634   3.695  0.5531  0.1502  2.1312
   89HK4    C36 7418   8.407   4.621   3.626  0.2886  1.2050 -0.0604
   89HK4    H18 7419   8.437   4.576   3.531  0.6792  1.0849  0.1189
   89HK4    C37 7420   8.275   4.628   3.668  0.3301  0.4869  0.1809
   89HK4    H19 7421   8.189   4.640   3.602 -1.1901  2.4780  2.4688
   89HK4    C38 7422   8.239   4.649   3.801 -0.0673  0.1495  0.1313
   89HK4    H20 7423   8.136   4.648   3.836 -0.5227  2.0730 -1.0913
   89HK4    C14 7424   8.459   4.615   4.447 -0.1177 -0.1321 -0.2223
   89HK4     C9 7425   8.390   4.542   4.544  0.2694 -0.2428 -0.0267
   89HK4     C8 7426   8.385   4.589   4.677 -0.0847 -0.4951  0.0543
   89HK4    C11 7427   8.458   4.703   4.711  0.4759 -0.7440 -0.2896
   89HK4     H4 7428   8.466   4.733   4.816 -1.8333 -0.3716 -0.1749
   89HK4    C12 7429   8.535   4.777   4.623 -0.4034  0.2254 -0.2495
   89HK4     H5 7430   8.598   4.862   4.654  2.4428 -1.4630 -1.2863
   89HK4    C13 7431   8.533   4.726   4.494  0.1962 -0.4306 -0.0037
   89HK4     H6 7432   8.583   4.792   4.421 -0.3367 -0.3606 -0.3099
   89HK4     C7 7433   8.307   4.521   4.782 -0.0718  0.0707  0.4328
   89HK4     O2 7434   8.279   4.581   4.886 -0.2144  0.1585  0.3434
   89HK4     C4 7435   8.256   4.384   4.758 -0.0595  0.0646  0.4550
   89HK4     C3 7436   8.186   4.324   4.862 -0.3385  0.0779  0.2747
   89HK4     H3 7437   8.146   4.378   4.949  1.7273  0.8080  0.8171
   89HK4     C2 7438   8.171   4.186   4.860  1.0283 -0.0800  0.3142
   89HK4     H2 7439   8.112   4.127   4.932  1.1282 -0.8712 -0.2435
   89HK4     C1 7440   8.228   4.120   4.752  0.7777  0.0653  0.0913
   89HK4     H1 7441   8.208   4.012   4.756 -3.2719  0.7438 -0.2587
   89HK4     C6 7442   8.293   4.177   4.641  0.1199  0.2902 -0.1787
   89HK4     C5 7443   8.301   4.317   4.642 -0.0071  0.2910  0.3416
   89HK4    C10 7444   8.351   4.399   4.529 -0.1053 -0.1441 -0.0162
   89HK4     O1 7445   8.302   4.368   4.420  0.7152  0.0370 -0.4455
   89HK4    C16 7446   8.313   4.092   4.523 -0.5968  0.3133 -0.3203
   89HK4    C15 7447   8.230   3.979   4.506  0.0326 -0.1823 -0.1250
   89HK4     H7 7448   8.125   3.998   4.529  0.2581  0.9136  0.0138
   89HK4    C20 7449   8.268   3.872   4.425 -0.1932 -0.1992 -0.2106
   89HK4     H9 7450   8.212   3.779   4.425  0.2983 -0.5045  0.5385
   89HK4    C19 7451   8.383   3.885   4.347 -0.2794  0.1782 -0.2773
   89HK4    C18 7452   8.473   3.997   4.366  0.0002 -0.1778  0.5069
   89HK4    C17 7453   8.438   4.091   4.462 -0.4431  0.1820 -0.0042
   89HK4     H8 7454   8.506   4.176   4.468  0.4789 -0.3441 -2.4146
   89HK4     N1 7455   8.578   3.987   4.272 -0.5973  0.5794 -0.2400
   89HK4    C21 7456   8.544   3.880   4.187  0.0797  0.1334  0.0498
   89HK4    C22 7457   8.426   3.809   4.232  0.2473 -0.1137  0.1055
   89HK4    C26 7458   8.365   3.711   4.153  0.2380  0.0557 -0.0992
   89HK4    H13 7459   8.286   3.649   4.196  0.9585  0.3021  1.6475
   89HK4    C25 7460   8.419   3.684   4.028 -0.1646 -0.0729 -0.2435
   89HK4    H12 7461   8.363   3.612   3.968  2.4285 -0.3121 -2.4428
   89HK4    C24 7462   8.532   3.749   3.981  0.0253 -0.1069  0.1566
   89HK4    H11 7463   8.585   3.711   3.893  0.4826  0.7993  0.0348
   89HK4    C23 7464   8.587   3.851   4.058 -0.3059  0.2727 -0.1085
   89HK4    H10 7465   8.671   3.907   4.017  0.7856 -0.6516  0.8436
   89HK4    C39 7466   8.708   4.035   4.294 -0.0411 -0.7027 -0.6909
   89HK4    C41 7467   8.796   4.052   4.185 -0.0468  0.4771 -0.5190
   89HK4    H21 7468   8.750   4.097   4.096 -2.2118  0.1227  0.3772
   89HK4    C42 7469   8.933   4.070   4.201 -0.0279  0.2479 -0.4145
   89HK4    H22 7470   8.981   4.111   4.111  1.9397 -0.5502  0.2499
   89HK4    C43 7471   8.985   4.079   4.330 -0.3366 -0.0847 -0.2647
   89HK4    H23 7472   9.084   4.118   4.353  0.0788 -0.9924 -0.4873
   89HK4    C44 7473   8.904   4.057   4.441  0.1166 -0.3470  0.0118
   89HK4    H24 7474   8.953   4.041   4.538 -0.4645  0.0700  0.3711
   89HK4    C45 7475   8.767   4.041   4.422  0.1722  0.1657 -0.8274
   89HK4    H25 7476   8.702   4.017   4.507  0.5093 -1.3463 -0.9769
   90HK4    H28 7477   8.271   4.060  10.185 -0.5099  0.3337  1.5109
   90HK4    C48 7478   8.245   4.165  10.169  0.1178  0.2408 -0.1324
   90HK4    C47 7479   8.113   4.196  10.138 -0.0677 -0.5979 -0.1932
   90HK4    H27 7480   8.038   4.121  10.108  0.2541 -0.8373 -0.4067
   90HK4    C46 7481   8.074   4.327  10.164  0.9203 -0.2880 -0.2582
   90HK4    H26 7482   7.974   4.356  10.128  1.5540  2.2710 -0.0556
   90HK4    C40 7483   8.159   4.430  10.209  0.0241  0.2421  0.2200
   90HK4    C50 7484   8.289   4.390  10.245  0.1643  0.3140 -0.2003
   90HK4    H30 7485   8.368   4.461  10.273  0.2273  1.1163 -2.3626
   90HK4    C49 7486   8.333   4.261  10.217 -0.0861  0.0459  0.6233
   90HK4    H29 7487   8.441   4.243  10.229 -0.0932  0.6445  1.6747
   90HK4     N2 7488   8.124   4.564  10.230 -0.2031  0.1822  0.2317
   90HK4    C30 7489   7.994   4.611  10.256 -0.3565  0.2878 -0.7086
   90HK4    C29 7490   7.882   4.546  10.307 -0.3093  0.2690 -0.6312
   90HK4    H15 7491   7.904   4.452  10.359 -2.6092 -1.1579 -2.1087
   90HK4    C28 7492   7.761   4.610  10.330 -0.2456  0.1895 -0.0700
   90HK4    C27 7493   7.753   4.747  10.296 -0.1936  0.2054 -0.0172
   90HK4    H14 7494   7.653   4.793  10.299 -0.0830  0.3114  2.6613
   90HK4    C32 7495   7.864   4.817  10.249 -0.0043 -0.3690 -0.4457
   90HK4    H16 7496   7.843   4.918  10.213 -2.2386 -0.8007 -0.4562
   90HK4    C31 7497   7.987   4.755  10.237  0.5102  0.4775  0.3534
   90HK4    C34 7498   8.124   4.795  10.214  0.7032 -0.1436  0.4110
   90HK4    C33 7499   8.202   4.674  10.190  0.0191 -0.3497 -0.8251
   90HK4    C35 7500   8.328   4.689  10.135  0.2743  0.0138 -0.1599
   90HK4    H17 7501   8.392   4.602  10.117  2.1045  1.3741 -0.2903
   90HK4    C36 7502   8.386   4.814  10.119  0.2953 -0.0233 -0.3812
   90HK4    H18 7503   8.484   4.837  10.076  0.2421  0.7044 -0.1360
   90HK4    C37 7504   8.312   4.928  10.151  0.1123 -0.2982  0.1566
   90HK4    H19 7505   8.370   5.019  10.139  0.1902 -0.0392  2.2629
   90HK4    C38 7506   8.183   4.920  10.202  0.2420  0.0866  0.5482
   90HK4    H20 7507   8.128   5.009  10.232 -0.3514  0.2306 -0.9341
   90HK4    C14 7508   7.677   4.542  10.430 -0.0182 -0.1908 -0.1421
   90HK4     C9 7509   7.654   4.404  10.440  0.3538 -0.2552 -0.1347
   90HK4     C8 7510   7.626   4.350  10.567  0.4627 -0.3972 -0.1712
   90HK4    C11 7511   7.620   4.433  10.678  0.2704  0.3326 -0.7245
   90HK4     H4 7512   7.620   4.395  10.781  1.2024  3.8040  0.6122
   90HK4    C12 7513   7.617   4.572  10.669  0.1647  0.3742 -0.1259
   90HK4     H5 7514   7.597   4.633  10.758 -0.2846 -0.0864  0.0930
   90HK4    C13 7515   7.648   4.621  10.543 -0.5877  0.0387 -0.4488
   90HK4     H6 7516   7.647   4.730  10.528  0.6692 -0.0890 -1.5827
   90HK4     C7 7517   7.563   4.216  10.577 -0.6382  0.1090 -0.2071
   90HK4     O2 7518   7.587   4.150  10.679  0.1457  0.1694 -0.3512
   90HK4     C4 7519   7.500   4.152  10.459 -0.9509  0.1811 -0.0808
   90HK4     C3 7520   7.444   4.026  10.476 -0.7240  0.1263  0.2897
   90HK4     H3 7521   7.451   3.964  10.567  1.8213  0.5638  0.4296
   90HK4     C2 7522   7.375   3.968  10.370  0.1639 -0.2464 -0.0943
   90HK4     H2 7523   7.298   3.894  10.396 -1.5155  0.3340 -3.1924
   90HK4     C1 7524   7.367   4.038  10.250  0.1137 -0.0658  0.0127
   90HK4     H1 7525   7.305   4.001  10.167 -0.3877  1.3758 -0.2707
   90HK4     C6 7526   7.428   4.164  10.232  0.4663 -0.3231 -0.5873
   90HK4     C5 7527   7.507   4.217  10.334 -0.1150 -0.1669 -0.2172
   90HK4    C10 7528   7.609   4.325  10.322 -0.1943 -0.0716 -0.0529
   90HK4     O1 7529   7.697   4.293  10.241 -0.1994 -0.0382 -0.0696
   90HK4    C16 7530   7.364   4.255  10.135 -0.1134 -0.0918  0.0115
   90HK4    C15 7531   7.226   4.253  10.109 -0.0968  0.1799 -0.0979
   90HK4     H7 7532   7.155   4.226  10.189  0.5318 -0.7528  0.1481
   90HK4    C20 7533   7.171   4.291   9.987 -0.2540 -0.6701 -0.2952
   90HK4     H9 7534   7.064   4.298   9.968 -0.5353  1.3880  1.8723
   90HK4    C19 7535   7.248   4.352   9.889  0.0473  0.1757  0.4676
   90HK4    C18 7536   7.389   4.369   9.921  0.1811  0.3910 -0.2136
   90HK4    C17 7537   7.443   4.314  10.037 -0.3282 -0.4048 -0.3459
   90HK4     H8 7538   7.549   4.301  10.056 -1.2724 -2.1462  4.4933
   90HK4     N1 7539   7.456   4.419   9.808  0.4403 -0.3033 -0.3701
   90HK4    C21 7540   7.359   4.443   9.708  0.4064 -0.5790 -0.4033
   90HK4    C22 7541   7.227   4.418   9.762  0.5749  0.0496  0.3085
   90HK4    C26 7542   7.114   4.458   9.691  0.8607  0.1249 -0.1037
   90HK4    H13 7543   7.014   4.436   9.729  0.5088 -0.0242 -1.0925
   90HK4    C25 7544   7.132   4.522   9.569  0.2328  0.2594 -0.1305
   90HK4    H12 7545   7.047   4.543   9.504  0.2841 -0.0621 -0.2966
   90HK4    C24 7546   7.257   4.544   9.511  0.0722  0.2988 -0.4631
   90HK4    H11 7547   7.255   4.592   9.412 -0.4251 -0.2994 -0.7440
   90HK4    C23 7548   7.368   4.501   9.582 -0.1475  0.8071  0.1901
   90HK4    H10 7549   7.465   4.499   9.533 -0.4806 -0.3001 -0.4314
   90HK4    C39 7550   7.586   4.470   9.813  0.3035 -0.0580  0.8298
   90HK4    C41 7551   7.666   4.468   9.697 -0.1890  0.1992  0.4898
   90HK4    H21 7552   7.660   4.391   9.618  1.9967 -0.3825  0.8566
   90HK4    C42 7553   7.763   4.566   9.677  0.1525 -0.1298  0.5154
   90HK4    H22 7554   7.830   4.547   9.592  0.3811 -1.2463  0.9285
   90HK4    C43 7555   7.775   4.677   9.760 -0.3137  0.1238  0.2380
   90HK4    H23 7556   7.852   4.750   9.736 -1.0220  0.3473 -1.4772
   90HK4    C44 7557   7.700   4.680   9.877 -0.1723  0.0898  0.3285
   90HK4    H24 7558   7.702   4.770   9.940 -0.8477 -1.0008  1.9288
   90HK4    C45 7559   7.618   4.571   9.905  0.0730  0.0289  0.8142
   90HK4    H25 7560   7.574   4.557  10.005 -0.2287 -0.7714  0.5669
   91HK4    H28 7561   6.130   3.356   3.416  0.2685 -0.3334  0.6699
   91HK4    C48 7562   6.049   3.288   3.443 -0.4109  0.1154 -0.2009
   91HK4    C47 7563   5.970   3.307   3.556  0.3014 -0.0256  0.3247
   91HK4    H27 7564   5.977   3.400   3.615 -1.8065 -1.7215  3.4408
   91HK4    C46 7565   5.901   3.204   3.619 -0.2150  0.0199 -0.1575
   91HK4    H26 7566   5.816   3.231   3.684 -0.1992 -0.3583  0.0190
   91HK4    C40 7567   5.912   3.073   3.569 -0.4703 -0.0199 -0.1123
   91HK4    C50 7568   5.994   3.054   3.456 -0.3012  0.4535 -0.0735
   91HK4    H30 7569   6.014   2.950   3.427  0.5713  0.5083  0.3433
   91HK4    C49 7570   6.061   3.159   3.394  1.0212 -0.0346  0.5201
   91HK4    H29 7571   6.107   3.138   3.297  2.7818  0.7991  1.1503
   91HK4     N2 7572   5.888   2.966   3.655  0.0976 -0.1394 -0.0959
   91HK4    C30 7573   5.846   2.837   3.615 -0.0174 -0.1614  0.0896
   91HK4    C29 7574   5.766   2.801   3.508 -0.6599 -0.1953  0.5810
   91HK4    H15 7575   5.719   2.877   3.445  0.6471  0.2093  0.0891
   91HK4    C28 7576   5.752   2.669   3.464  0.0407 -0.0935  0.0322
   91HK4    C27 7577   5.803   2.567   3.547 -0.5639 -0.3636  0.0812
   91HK4    H14 7578   5.767   2.465   3.529 -0.7158 -0.3004  0.0321
   91HK4    C32 7579   5.873   2.600   3.663 -0.2032 -0.1884 -0.1819
   91HK4    H16 7580   5.880   2.514   3.730 -0.5724 -0.1947 -0.1477
   91HK4    C31 7581   5.889   2.731   3.704 -0.3161 -0.2660  0.1094
   91HK4    C34 7582   5.959   2.794   3.815 -0.2255  0.0273 -0.1122
   91HK4    C33 7583   5.958   2.933   3.773 -0.2275  0.1126  0.1723
   91HK4    C35 7584   6.023   3.023   3.856  0.1487 -0.2330  0.2583
   91HK4    H17 7585   6.013   3.129   3.835 -1.6649 -0.5083 -0.3887
   91HK4    C36 7586   6.095   2.981   3.967  0.4235 -0.3443  0.0369
   91HK4    H18 7587   6.174   3.045   4.009 -0.2702 -0.1081  0.9871
   91HK4    C37 7588   6.089   2.849   4.010  0.1963 -0.2748  0.2208
   91HK4    H19 7589   6.134   2.825   4.107  0.2354  1.2886  0.6050
   91HK4    C38 7590   6.030   2.754   3.928 -0.5067  0.2367  0.1382
   91HK4    H20 7591   6.049   2.650   3.953 -0.0815  0.2171 -0.2713
   91HK4    C14 7592   5.656   2.656   3.353 -0.0787  0.1265  0.1090
   91HK4     C9 7593   5.546   2.570   3.353  0.3465 -0.4222  0.0967
   91HK4     C8 7594   5.497   2.512   3.235  0.3598 -0.4716  0.1156
   91HK4    C11 7595   5.548   2.564   3.116  0.0404  0.0261  0.1949
   91HK4     H4 7596   5.491   2.550   3.023  1.6112  1.3986 -0.9935
   91HK4    C12 7597   5.659   2.647   3.111  0.4540 -0.5512 -0.1516
   91HK4     H5 7598   5.705   2.671   3.014  0.6596  0.2863  0.1487
   91HK4    C13 7599   5.714   2.693   3.230 -0.1926 -0.1215 -0.0184
   91HK4     H6 7600   5.801   2.760   3.236 -1.4134  1.3830  1.3019
   91HK4     C7 7601   5.411   2.391   3.231 -0.4679  0.1049  0.1886
   91HK4     O2 7602   5.347   2.358   3.132  0.3224  0.0493 -0.3088
   91HK4     C4 7603   5.378   2.334   3.363  0.0911  0.2085  0.3760
   91HK4     C3 7604   5.320   2.208   3.368  0.1232  0.2101  0.9415
   91HK4     H3 7605   5.270   2.164   3.280 -1.3287  1.5068  1.1072
   91HK4     C2 7606   5.318   2.129   3.482  0.2474 -0.4310  0.5069
   91HK4     H2 7607   5.277   2.027   3.481  0.7367 -0.6296  0.6948
   91HK4     C1 7608   5.367   2.189   3.597 -0.1295 -0.2114  0.5529
   91HK4     H1 7609   5.346   2.142   3.695 -0.1595 -1.2799  0.0387
   91HK4     C6 7610   5.416   2.321   3.608 -0.1483 -0.1822  0.2760
   91HK4     C5 7611   5.421   2.390   3.486  0.3679 -0.0240  0.3840
   91HK4    C10 7612   5.492   2.520   3.483  0.1688  0.0821  0.2159
   91HK4     O1 7613   5.450   2.607   3.559  0.4355 -0.1667  0.6496
   91HK4    C16 7614   5.526   2.322   3.705 -0.2457 -0.3871  0.3901
   91HK4    C15 7615   5.622   2.219   3.709  0.2108  0.0274  0.1140
   91HK4     H7 7616   5.616   2.125   3.652  0.4210 -0.0977  0.2947
   91HK4    C20 7617   5.720   2.220   3.808 -0.3835 -0.1346  0.7054
   91HK4     H9 7618   5.807   2.154   3.801  1.1037  1.8107  0.6664
   91HK4    C19 7619   5.725   2.328   3.895  0.1661  0.5937 -0.2283
   91HK4    C18 7620   5.634   2.441   3.885 -0.3465  0.2317  0.3413
   91HK4    C17 7621   5.529   2.428   3.795 -0.4492 -0.5227  0.5605
   91HK4     H8 7622   5.445   2.497   3.800 -0.1521 -0.1600  0.5519
   91HK4     N1 7623   5.659   2.549   3.972  0.5928  0.4091 -0.1482
   91HK4    C21 7624   5.771   2.501   4.044 -0.2529 -0.2998  0.7031
   91HK4    C22 7625   5.813   2.369   4.002  0.2476  0.1126 -0.1126
   91HK4    C26 7626   5.911   2.296   4.070  0.2119 -0.1954 -0.3933
   91HK4    H13 7627   5.948   2.202   4.030 -1.5156 -0.4567 -1.4281
   91HK4    C25 7628   5.961   2.352   4.187 -0.3889 -0.7495  0.1289
   91HK4    H12 7629   6.043   2.304   4.239  2.1710  1.8575 -1.3780
   91HK4    C24 7630   5.929   2.481   4.228 -0.1051 -0.5464 -0.2845
   91HK4    H11 7631   5.988   2.538   4.302 -0.6148  0.2640 -0.5020
   91HK4    C23 7632   5.837   2.553   4.155 -0.2674  0.0836  0.5304
   91HK4    H10 7633   5.831   2.661   4.167  0.1660  0.0986  0.6000
   91HK4    C39 7634   5.619   2.683   3.975  0.2849  0.3112  0.1034
   91HK4    C41 7635   5.623   2.773   4.083  0.1617  0.4147  0.0216
   91HK4    H21 7636   5.607   2.727   4.181 -0.0154 -0.4527 -0.4145
   91HK4    C42 7637   5.614   2.912   4.075  0.1308  0.4309  0.3348
   91HK4    H22 7638   5.600   2.970   4.167  4.4110 -1.1193  2.0734
   91HK4    C43 7639   5.593   2.970   3.951 -0.4022 -0.4088  0.0284
   91HK4    H23 7640   5.610   3.077   3.938 -0.0152 -0.3612  0.8841
   91HK4    C44 7641   5.582   2.885   3.841  0.5295  0.1493 -0.4975
   91HK4    H24 7642   5.560   2.923   3.740 -2.8015 -0.7316 -0.1564
   91HK4    C45 7643   5.596   2.747   3.851  0.5005  0.1837 -0.0039
   91HK4    H25 7644   5.561   2.688   3.765 -1.0544  0.4138  0.4533
   92HK4    H28 7645   8.862   7.638   9.021 -0.9997 -1.0088 -0.6104
   92HK4    C48 7646   8.823   7.735   8.989 -0.3160 -0.5533 -0.0638
   92HK4    C47 7647   8.879   7.807   8.884  0.2838  0.4267  0.9214
   92HK4    H27 7648   8.971   7.768   8.839  0.0694  0.9676  0.0156
   92HK4    C46 7649   8.823   7.927   8.843 -0.2129 -0.1137  0.0078
   92HK4    H26 7650   8.879   7.971   8.760 -0.8664 -2.0086 -1.4682
   92HK4    C40 7651   8.707   7.979   8.905 -0.0224 -0.0043  0.2669
   92HK4    C50 7652   8.660   7.903   9.014 -0.4015 -0.6191 -0.3203
   92HK4    H30 7653   8.560   7.930   9.052 -0.4559 -2.2143  0.7198
   92HK4    C49 7654   8.711   7.782   9.057 -0.0019 -0.2536  0.2453
   92HK4    H29 7655   8.665   7.732   9.144 -1.6494  0.4118 -0.2356
   92HK4     N2 7656   8.661   8.109   8.882 -0.2316 -0.0074  0.6503
   92HK4    C30 7657   8.732   8.192   8.793 -0.0401 -0.5118  0.3284
   92HK4    C29 7658   8.866   8.229   8.792 -0.1426 -0.1348  0.1333
   92HK4    H15 7659   8.940   8.171   8.847 -1.9483 -1.4078  1.2562
   92HK4    C28 7660   8.917   8.333   8.715 -0.2705 -0.0544  0.1608
   92HK4    C27 7661   8.826   8.399   8.630 -0.3211  0.6115  0.7238
   92HK4    H14 7662   8.863   8.475   8.560 -1.0525  0.3733  0.0661
   92HK4    C32 7663   8.690   8.367   8.634 -0.2079  0.0957  0.6313
   92HK4    H16 7664   8.634   8.407   8.549  0.2364  0.4694  0.5139
   92HK4    C31 7665   8.637   8.262   8.708  0.0254  0.0200  0.6923
   92HK4    C34 7666   8.510   8.227   8.767  0.0030  0.0272  0.6460
   92HK4    C33 7667   8.523   8.137   8.880 -0.3181 -0.4612  0.3008
   92HK4    C35 7668   8.409   8.104   8.951 -0.4486  0.2098  0.4153
   92HK4    H17 7669   8.411   8.059   9.051  0.2902 -2.9947 -0.9737
   92HK4    C36 7670   8.284   8.154   8.915 -0.0605  0.9195  0.0503
   92HK4    H18 7671   8.195   8.131   8.975 -0.3853 -1.6544 -1.3337
   92HK4    C37 7672   8.272   8.243   8.810  0.1300  0.7612 -0.1087
   92HK4    H19 7673   8.173   8.270   8.771  0.0055  0.8096  0.2355
   92HK4    C38 7674   8.386   8.284   8.742  0.2305  0.0948 -0.3360
   92HK4    H20 7675   8.384   8.363   8.667  0.4661 -0.6706 -1.1616
   92HK4    C14 7676   9.038   8.404   8.758  0.1837 -0.2921 -0.7228
   92HK4     C9 7677   9.056   8.543   8.758  0.1015 -0.2785  0.2820
   92HK4     C8 7678   9.182   8.606   8.763 -0.2867  0.4961  0.4306
   92HK4    C11 7679   9.292   8.521   8.776 -0.6347 -0.0329 -0.0178
   92HK4     H4 7680   9.390   8.558   8.743  0.8170 -2.6469  1.2549
   92HK4    C12 7681   9.279   8.384   8.795  0.1510 -0.1092 -0.0300
   92HK4     H5 7682   9.371   8.328   8.816  1.0965  0.8884 -1.4377
   92HK4    C13 7683   9.153   8.327   8.783  0.2438 -0.1804 -0.6488
   92HK4     H6 7684   9.141   8.218   8.771  1.2837 -0.3236 -0.4200
   92HK4     C7 7685   9.195   8.749   8.728 -0.1486  0.4993  0.4760
   92HK4     O2 7686   9.303   8.803   8.747  0.2666 -0.0973 -0.2032
   92HK4     C4 7687   9.072   8.829   8.706 -0.1333  0.3422 -0.1998
   92HK4     C3 7688   9.091   8.956   8.654  0.4033 -0.0004 -0.8473
   92HK4     H3 7689   9.193   8.991   8.630  1.8587 -3.0202  0.7120
   92HK4     C2 7690   8.987   9.024   8.592 -0.1427  0.0921  0.1656
   92HK4     H2 7691   9.004   9.128   8.561 -1.4437  0.2738  0.0069
   92HK4     C1 7692   8.865   8.957   8.581  0.1138 -0.3456 -0.0199
   92HK4     H1 7693   8.786   8.994   8.514 -0.1498 -1.3983 -0.2905
   92HK4     C6 7694   8.842   8.838   8.652  0.0038 -0.1126  0.3360
   92HK4     C5 7695   8.943   8.774   8.725  0.0984 -0.0512  0.2545
   92HK4    C10 7696   8.939   8.634   8.775  0.3941  0.0437  0.5616
   92HK4     O1 7697   8.867   8.616   8.874 -0.1058 -0.0858  0.1778
   92HK4    C16 7698   8.713   8.772   8.628 -0.2090  0.3539  0.2055
   92HK4    C15 7699   8.652   8.772   8.500  0.0891  0.1931  0.0666
   92HK4     H7 7700   8.707   8.798   8.408 -1.6652  0.8817 -0.8033
   92HK4    C20 7701   8.521   8.734   8.477  0.2800 -0.2392 -0.3209
   92HK4     H9 7702   8.466   8.756   8.386 -0.5916  0.5601  0.3955
   92HK4    C19 7703   8.450   8.692   8.589 -0.6360  0.4214 -0.6487
   92HK4    C18 7704   8.503   8.700   8.724 -0.1358 -0.4892 -0.7887
   92HK4    C17 7705   8.636   8.736   8.738 -0.2785 -0.2469 -0.0354
   92HK4     H8 7706   8.666   8.774   8.836 -1.0036 -1.5425  0.6930
   92HK4     N1 7707   8.408   8.679   8.826  0.1515 -0.4447 -0.5095
   92HK4    C21 7708   8.290   8.660   8.751  0.0323 -0.2825 -0.3622
   92HK4    C22 7709   8.307   8.673   8.607 -0.6525  0.8147 -0.3533
   92HK4    C26 7710   8.200   8.665   8.519 -1.0685 -0.1940  0.2366
   92HK4    H13 7711   8.195   8.655   8.411 -0.2368  2.1862 -0.0569
   92HK4    C25 7712   8.075   8.660   8.580 -0.9401 -0.4890  0.4779
   92HK4    H12 7713   7.986   8.657   8.518  0.2937  0.6989 -1.3770
   92HK4    C24 7714   8.053   8.659   8.718 -0.2640  0.4283  0.5936
   92HK4    H11 7715   7.950   8.679   8.751 -0.7354  0.9466 -1.1342
   92HK4    C23 7716   8.162   8.649   8.804  0.1608  0.1193  0.0317
   92HK4    H10 7717   8.151   8.615   8.907 -2.4499 -1.5350 -0.7398
   92HK4    C39 7718   8.438   8.612   8.944  0.0694  0.1515 -0.1473
   92HK4    C41 7719   8.356   8.631   9.058  0.3297 -0.3899  0.1342
   92HK4    H21 7720   8.295   8.722   9.065  0.0400 -0.6123  0.5161
   92HK4    C42 7721   8.370   8.550   9.170 -0.5748 -0.1567  0.4117
   92HK4    H22 7722   8.305   8.566   9.257  0.3946  2.0817  0.7599
   92HK4    C43 7723   8.469   8.453   9.170 -0.4814 -0.0594  0.0251
   92HK4    H23 7724   8.501   8.403   9.261 -2.9434 -0.2214  0.8173
   92HK4    C44 7725   8.561   8.436   9.066 -0.1899  0.7212  0.1497
   92HK4    H24 7726   8.658   8.386   9.073 -0.1321  0.4930 -2.1108
   92HK4    C45 7727   8.540   8.515   8.953 -0.2731 -0.2444 -0.5147
   92HK4    H25 7728   8.621   8.516   8.878  1.4725  1.1734  1.3276
   93HK4    H28 7729   7.768   3.326   2.138  1.9175 -2.5244  0.1710
   93HK4    C48 7730   7.677   3.268   2.157 -0.0769  0.2930 -0.4950
   93HK4    C47 7731   7.667   3.145   2.094 -0.0233 -0.2559  0.5557
   93HK4    H27 7732   7.758   3.097   2.055 -0.9557 -0.5334 -1.3431
   93HK4    C46 7733   7.550   3.072   2.111 -0.4252  0.2551 -0.0049
   93HK4    H26 7734   7.529   2.992   2.039 -2.4169  2.4657 -1.9571
   93HK4    C40 7735   7.442   3.112   2.193 -0.4637 -0.1033  0.1195
   93HK4    C50 7736   7.450   3.243   2.245 -0.4587 -0.0543 -0.0048
   93HK4    H30 7737   7.378   3.264   2.325 -1.2568 -2.0894 -0.1456
   93HK4    C49 7738   7.565   3.318   2.223 -0.4163 -0.2987 -0.6191
   93HK4    H29 7739   7.575   3.418   2.268  2.5548 -0.9662  0.3024
   93HK4     N2 7740   7.372   3.024   2.276 -0.2053 -0.1560  0.2829
   93HK4    C30 7741   7.417   2.902   2.330  0.1143 -0.2874 -0.2872
   93HK4    C29 7742   7.543   2.857   2.365  0.0810 -0.0818  0.0938
   93HK4    H15 7743   7.629   2.922   2.347  0.4181 -0.4196  0.4515
   93HK4    C28 7744   7.566   2.735   2.428  0.2461  0.0149  0.2211
   93HK4    C27 7745   7.458   2.649   2.455  0.0940  0.0272 -0.3387
   93HK4    H14 7746   7.474   2.561   2.520  0.8714  1.3854  1.3464
   93HK4    C32 7747   7.330   2.699   2.437 -0.1044 -0.4501 -0.2565
   93HK4    H16 7748   7.248   2.657   2.495 -2.7592  0.5572 -3.1353
   93HK4    C31 7749   7.305   2.822   2.376  0.2416  0.1448  0.7844
   93HK4    C34 7750   7.186   2.902   2.355  0.2338 -0.1018 -0.1374
   93HK4    C33 7751   7.232   3.025   2.294 -0.2487  0.1147 -0.0632
   93HK4    C35 7752   7.141   3.130   2.289 -0.2251  0.1145 -0.5097
   93HK4    H17 7753   7.172   3.227   2.249  0.1370 -0.7082 -2.2450
   93HK4    C36 7754   7.011   3.116   2.336 -0.1441  0.3622 -0.2035
   93HK4    H18 7755   6.948   3.206   2.331  1.6558  1.6868  0.6052
   93HK4    C37 7756   6.969   2.996   2.392  0.3029  0.4189  0.2506
   93HK4    H19 7757   6.870   2.985   2.437  1.0746 -1.3539  1.5873
   93HK4    C38 7758   7.056   2.889   2.402 -0.0139  0.0646 -0.7625
   93HK4    H20 7759   7.017   2.790   2.428  0.7233  0.2017  0.9580
   93HK4    C14 7760   7.705   2.687   2.438  0.0690 -0.4497  0.4592
   93HK4     C9 7761   7.742   2.553   2.451 -0.0566 -0.4900  0.4068
   93HK4     C8 7762   7.860   2.519   2.521  0.5789 -0.0671 -0.4406
   93HK4    C11 7763   7.943   2.608   2.588  0.2369 -0.1090  0.0454
   93HK4     H4 7764   8.037   2.579   2.638  0.0453 -1.5242 -0.3655
   93HK4    C12 7765   7.902   2.740   2.577 -0.1512 -0.2057  0.3119
   93HK4     H5 7766   7.942   2.812   2.649 -0.8249  1.7059 -1.1648
   93HK4    C13 7767   7.792   2.779   2.502  0.1760 -0.1349 -0.1356
   93HK4     H6 7768   7.760   2.884   2.507 -0.4489 -0.3576  0.7288
   93HK4     C7 7769   7.898   2.376   2.527 -0.1886 -0.2492  0.1825
   93HK4     O2 7770   7.993   2.343   2.599  0.3881  0.1285 -0.4055
   93HK4     C4 7771   7.819   2.270   2.461 -0.1393  0.0763 -0.4011
   93HK4     C3 7772   7.859   2.137   2.470  0.2156  0.2109  0.0637
   93HK4     H3 7773   7.958   2.111   2.509  1.0000 -1.9950 -3.2405
   93HK4     C2 7774   7.772   2.038   2.426  0.0591  0.3757 -0.0007
   93HK4     H2 7775   7.811   1.935   2.424  1.8012  1.0632 -2.3134
   93HK4     C1 7776   7.644   2.074   2.386  0.1135  0.2007 -0.3319
   93HK4     H1 7777   7.583   1.994   2.341 -1.0501  0.1437  1.2710
   93HK4     C6 7778   7.598   2.207   2.382  0.0816  0.1680 -1.1812
   93HK4     C5 7779   7.696   2.305   2.402 -0.1732  0.2365 -0.2352
   93HK4    C10 7780   7.674   2.449   2.369 -0.0319  0.1987 -0.4983
   93HK4     O1 7781   7.663   2.471   2.249 -0.5426 -0.0175 -0.4948
   93HK4    C16 7782   7.456   2.225   2.416  0.3584  0.3799 -0.0890
   93HK4    C15 7783   7.395   2.118   2.484 -0.1439  0.5582 -0.2552
   93HK4     H7 7784   7.456   2.037   2.527 -3.5324  0.0214  3.9765
   93HK4    C20 7785   7.257   2.102   2.483 -0.1393  0.4187  0.5432
   93HK4     H9 7786   7.208   2.041   2.559 -0.9594 -0.4426 -0.6460
   93HK4    C19 7787   7.178   2.194   2.414 -0.3902 -0.6949 -0.6713
   93HK4    C18 7788   7.238   2.315   2.360 -0.3601 -0.3083  0.2277
   93HK4    C17 7789   7.377   2.324   2.358 -0.3795 -0.0119  0.2402
   93HK4     H8 7790   7.428   2.412   2.320  0.6438 -0.2401  1.0476
   93HK4     N1 7791   7.141   2.394   2.296  0.2080  0.4291  0.2702
   93HK4    C21 7792   7.019   2.324   2.309  0.3339  0.0906 -0.3482
   93HK4    C22 7793   7.035   2.207   2.394 -0.4402  0.5644  0.4601
   93HK4    C26 7794   6.933   2.115   2.411 -0.2530  0.3271  0.2922
   93HK4    H13 7795   6.950   2.026   2.472 -3.8355  0.9119  2.2908
   93HK4    C25 7796   6.811   2.132   2.347 -0.2251 -0.0232  0.1396
   93HK4    H12 7797   6.740   2.050   2.343 -0.2205 -0.0516  0.5998
   93HK4    C24 7798   6.803   2.245   2.266  0.1379  0.2000  0.4115
   93HK4    H11 7799   6.720   2.247   2.194  1.0345 -0.9593 -0.6684
   93HK4    C23 7800   6.897   2.346   2.247  0.1147  0.1654  0.1087
   93HK4    H10 7801   6.872   2.446   2.214 -1.6264 -0.4370 -0.4280
   93HK4    C39 7802   7.168   2.479   2.188 -0.4071 -0.0776 -0.2828
   93HK4    C41 7803   7.272   2.451   2.097 -0.0645  0.1650  0.0365
   93HK4    H21 7804   7.316   2.351   2.082 -2.0625 -0.9391  1.4162
   93HK4    C42 7805   7.300   2.546   1.999 -0.0946  0.0043 -0.1274
   93HK4    H22 7806   7.366   2.518   1.916  0.3175 -1.5790  0.7165
   93HK4    C43 7807   7.238   2.670   1.991 -0.2096 -0.0216  0.3682
   93HK4    H23 7808   7.276   2.745   1.922 -0.3684 -1.2678 -1.0840
   93HK4    C44 7809   7.142   2.697   2.088 -0.4827  0.4551 -0.0325
   93HK4    H24 7810   7.106   2.801   2.096 -0.8612  0.6886 -3.7082
   93HK4    C45 7811   7.101   2.603   2.181  0.2240  0.2863  0.1056
   93HK4    H25 7812   7.015   2.628   2.244  0.6692 -0.0868  0.8761
   94HK4    H28 7813   8.184   6.059   1.491 -0.9430 -1.8544  0.3001
   94HK4    C48 7814   8.275   6.030   1.545 -0.1529  0.0624  0.0383
   94HK4    C47 7815   8.376   5.960   1.480 -0.0920 -0.1950  0.4124
   94HK4    H27 7816   8.361   5.915   1.381  2.1336 -2.8155  1.1996
   94HK4    C46 7817   8.500   5.950   1.543 -0.1458 -0.0768  0.5441
   94HK4    H26 7818   8.580   5.910   1.480 -2.5251 -0.4308 -2.3741
   94HK4    C40 7819   8.529   6.008   1.668 -0.2852 -0.1758  0.6219
   94HK4    C50 7820   8.417   6.067   1.730 -0.4018  0.3685 -0.1065
   94HK4    H30 7821   8.435   6.102   1.833  1.6008  1.2611 -0.7174
   94HK4    C49 7822   8.291   6.078   1.674 -0.6050 -0.2759  0.2199
   94HK4    H29 7823   8.211   6.131   1.729 -0.7596  1.7462 -1.9000
   94HK4     N2 7824   8.656   5.992   1.726  0.1784  0.1414 -0.2901
   94HK4    C30 7825   8.744   5.884   1.710  0.2054  0.2239 -0.6985
   94HK4    C29 7826   8.716   5.751   1.682 -0.4605  0.3450 -0.6203
   94HK4    H15 7827   8.613   5.716   1.673  0.7996 -4.3326  1.2320
   94HK4    C28 7828   8.816   5.654   1.679 -0.4244  0.3730 -0.2780
   94HK4    C27 7829   8.946   5.695   1.718 -0.3478 -0.4794  0.3829
   94HK4    H14 7830   9.015   5.611   1.733  1.4322  0.8750 -0.1351
   94HK4    C32 7831   8.980   5.826   1.748 -0.0309 -0.4346 -0.1507
   94HK4    H16 7832   9.072   5.860   1.796  0.0236  0.3071 -0.7759
   94HK4    C31 7833   8.880   5.922   1.742  0.0084 -0.3182  0.8391
   94HK4    C34 7834   8.874   6.058   1.791  0.4307  0.0547 -0.1226
   94HK4    C33 7835   8.734   6.096   1.780  0.3456 -0.1926  0.1034
   94HK4    C35 7836   8.704   6.228   1.812 -0.4297 -0.2542 -0.3700
   94HK4    H17 7837   8.599   6.255   1.805 -0.3051  0.0878 -0.9311
   94HK4    C36 7838   8.802   6.315   1.858 -0.4454 -0.2178 -0.4122
   94HK4    H18 7839   8.773   6.417   1.888 -1.8263 -0.7725  0.1771
   94HK4    C37 7840   8.936   6.278   1.864 -0.4526 -0.1780 -0.0079
   94HK4    H19 7841   9.010   6.341   1.913  1.1294 -0.7649 -1.5877
   94HK4    C38 7842   8.973   6.149   1.828  0.4028  0.1268 -0.2240
   94HK4    H20 7843   9.075   6.116   1.844  0.4923  1.7669  3.0279
   94HK4    C14 7844   8.781   5.511   1.681  0.5814  0.1191 -0.2649
   94HK4     C9 7845   8.863   5.416   1.742  0.7855  0.4326 -0.0503
   94HK4     C8 7846   8.904   5.302   1.671  0.2459  0.1911  0.0338
   94HK4    C11 7847   8.852   5.284   1.543 -0.3756  0.2875  0.2697
   94HK4     H4 7848   8.908   5.215   1.478 -0.0417 -1.2524  2.1378
   94HK4    C12 7849   8.752   5.364   1.489 -0.2243  0.1614 -0.1996
   94HK4     H5 7850   8.708   5.336   1.392 -0.3179 -0.2250 -0.0447
   94HK4    C13 7851   8.720   5.480   1.557  0.1628  0.1987 -0.0811
   94HK4     H6 7852   8.634   5.541   1.527  0.0507  0.5802  0.9966
   94HK4     C7 7853   8.982   5.190   1.728 -0.4414 -0.3822 -0.1335
   94HK4     O2 7854   9.051   5.119   1.655  0.1885 -0.0600  0.1478
   94HK4     C4 7855   8.989   5.174   1.875  0.4309 -0.0594 -0.1362
   94HK4     C3 7856   9.075   5.083   1.936  0.3936  0.4069  0.6165
   94HK4     H3 7857   9.151   5.028   1.878  0.1183  0.6555  0.0174
   94HK4     C2 7858   9.073   5.065   2.074  0.2124 -0.3409  0.5208
   94HK4     H2 7859   9.161   5.019   2.120  1.3261  1.5712  0.3682
   94HK4     C1 7860   8.985   5.145   2.146  0.6313  0.5763  0.0174
   94HK4     H1 7861   8.961   5.114   2.248  0.2187  1.0417  0.0650
   94HK4     C6 7862   8.905   5.245   2.087 -0.0911 -0.1066 -0.1613
   94HK4     C5 7863   8.912   5.266   1.949  0.2758 -0.1758 -0.1521
   94HK4    C10 7864   8.878   5.398   1.889  0.1339 -0.1699 -0.0590
   94HK4     O1 7865   8.891   5.502   1.954 -0.2186  0.1244 -0.4625
   94HK4    C16 7866   8.808   5.311   2.176 -0.0500 -0.6772  0.3057
   94HK4    C15 7867   8.830   5.319   2.315  0.5103 -0.1210  0.1868
   94HK4     H7 7868   8.927   5.282   2.354 -0.1009 -0.0799  1.7889
   94HK4    C20 7869   8.740   5.389   2.394  0.2449 -0.0201 -0.2057
   94HK4     H9 7870   8.760   5.409   2.500 -0.0198  0.2035 -0.1962
   94HK4    C19 7871   8.621   5.439   2.341  0.2306 -0.3155 -0.4560
   94HK4    C18 7872   8.591   5.424   2.200 -0.2802  0.3487 -0.4174
   94HK4    C17 7873   8.689   5.360   2.125  0.1980  0.0712  0.4373
   94HK4     H8 7874   8.657   5.325   2.027 -0.6651  2.9033 -0.3382
   94HK4     N1 7875   8.458   5.455   2.166 -0.4001  0.2721 -0.0109
   94HK4    C21 7876   8.402   5.492   2.291  0.0564  0.0767  0.2513
   94HK4    C22 7877   8.500   5.496   2.397  0.7024  0.5999 -0.3615
   94HK4    C26 7878   8.467   5.529   2.528 -0.4711 -0.2970 -0.4317
   94HK4    H13 7879   8.546   5.505   2.599  1.8915  0.5570 -2.7028
   94HK4    C25 7880   8.337   5.569   2.558 -0.0567  0.4520  0.3887
   94HK4    H12 7881   8.307   5.566   2.663 -0.0425  0.6767  0.3985
   94HK4    C24 7882   8.240   5.569   2.459  0.6013  0.3673 -0.2530
   94HK4    H11 7883   8.138   5.602   2.483  0.4956 -0.7975  0.9517
   94HK4    C23 7884   8.276   5.535   2.329 -0.0552  0.3577 -0.4328
   94HK4    H10 7885   8.207   5.578   2.256 -0.6480 -1.0086 -0.6995
   94HK4    C39 7886   8.419   5.504   2.041 -0.3369 -0.0298 -0.1511
   94HK4    C41 7887   8.287   5.481   1.997 -0.4428  0.0723  0.1013
   94HK4    H21 7888   8.221   5.417   2.057  0.5036 -0.6193  0.3996
   94HK4    C42 7889   8.229   5.555   1.894 -0.4656  0.0959  0.1327
   94HK4    H22 7890   8.122   5.538   1.875 -0.2521 -0.2783 -0.7737
   94HK4    C43 7891   8.302   5.660   1.840 -0.0314 -0.0496  0.4349
   94HK4    H23 7892   8.263   5.711   1.752  2.1798  1.9472  0.5510
   94HK4    C44 7893   8.433   5.685   1.881  0.0513  0.3806 -0.0849
   94HK4    H24 7894   8.491   5.770   1.843 -0.0914  0.3671 -0.3339
   94HK4    C45 7895   8.494   5.604   1.976 -0.2741 -0.2321 -0.3884
   94HK4    H25 7896   8.593   5.624   2.019 -1.2493  0.6529  1.5179
   95HK4    H28 7897   8.387   2.765   3.036  0.0831  0.0187  0.7213
   95HK4    C48 7898   8.309   2.838   3.058 -0.0708 -0.2083  0.9178
   95HK4    C47 7899   8.342   2.973   3.061  0.2301 -0.2662  0.0468
   95HK4    H27 7900   8.446   3.000   3.037 -0.3829  0.4652 -1.9022
   95HK4    C46 7901   8.253   3.073   3.095 -0.1548 -0.4411 -0.4374
   95HK4    H26 7902   8.278   3.172   3.055  1.1418 -1.1025 -1.2682
   95HK4    C40 7903   8.122   3.043   3.137 -0.0359 -0.2423  0.0810
   95HK4    C50 7904   8.088   2.906   3.133 -0.0198 -0.2570  0.3969
   95HK4    H30 7905   7.994   2.875   3.180  0.0392 -1.1996 -0.0911
   95HK4    C49 7906   8.178   2.807   3.095 -0.1761 -0.3954  0.3949
   95HK4    H29 7907   8.163   2.699   3.111 -0.4773 -0.7303 -1.9992
   95HK4     N2 7908   8.030   3.137   3.185  0.3126  0.1065  0.0688
   95HK4    C30 7909   8.055   3.265   3.239  0.1031  0.2967 -0.2795
   95HK4    C29 7910   8.175   3.322   3.279 -0.2247  0.1993  0.8589
   95HK4    H15 7911   8.265   3.261   3.281  1.0178  1.7979 -2.3921
   95HK4    C28 7912   8.175   3.450   3.334  0.1642  0.4919  0.1774
   95HK4    C27 7913   8.055   3.522   3.351 -0.0294  0.1805  0.1324
   95HK4    H14 7914   8.043   3.622   3.395 -0.9497  0.5692 -0.9862
   95HK4    C32 7915   7.934   3.465   3.314  0.3645 -0.1359 -0.6803
   95HK4    H16 7916   7.841   3.510   3.348 -0.4353 -1.9332 -0.4781
   95HK4    C31 7917   7.933   3.341   3.251 -0.3303 -0.4184 -0.1130
   95HK4    C34 7918   7.829   3.252   3.201 -0.1048 -0.4814 -0.4700
   95HK4    C33 7919   7.893   3.131   3.152  0.2698 -0.6275  0.3623
   95HK4    C35 7920   7.812   3.043   3.081 -0.3230  0.5475 -0.4380
   95HK4    H17 7921   7.865   2.991   3.001 -0.2334  0.6412 -0.4398
   95HK4    C36 7922   7.675   3.060   3.069 -0.5157 -0.5384  0.1989
   95HK4    H18 7923   7.612   2.991   3.011  0.7693 -0.3616 -1.4329
   95HK4    C37 7924   7.613   3.171   3.124  0.4611  0.2632 -0.3113
   95HK4    H19 7925   7.504   3.179   3.119  0.1212 -2.2258  2.0848
   95HK4    C38 7926   7.691   3.265   3.191 -0.0788  0.3825  0.1617
   95HK4    H20 7927   7.645   3.346   3.246  0.6409  0.9759 -0.0979
   95HK4    C14 7928   8.299   3.509   3.387  0.4371 -0.2800  0.4002
   95HK4     C9 7929   8.307   3.598   3.494 -0.0722 -0.0160  0.2197
   95HK4     C8 7930   8.403   3.701   3.498  0.1847 -0.2503  0.0188
   95HK4    C11 7931   8.506   3.698   3.405  0.3608  0.3783  0.1876
   95HK4     H4 7932   8.587   3.772   3.412 -0.5070  1.6332 -2.2052
   95HK4    C12 7933   8.511   3.603   3.303 -0.4387  0.0224  0.4706
   95HK4     H5 7934   8.578   3.615   3.216  0.0947  2.6298  1.1977
   95HK4    C13 7935   8.405   3.514   3.294 -0.3040 -0.0508 -0.4405
   95HK4     H6 7936   8.414   3.443   3.210 -0.1909 -0.7241  0.1282
   95HK4     C7 7937   8.383   3.819   3.585 -0.0090 -0.1659 -0.1410
   95HK4     O2 7938   8.467   3.908   3.580  0.1171 -0.2643  0.2112
   95HK4     C4 7939   8.269   3.821   3.680  0.1769  0.3126  0.0686
   95HK4     C3 7940   8.244   3.940   3.747 -0.0994  0.1916  0.1807
   95HK4     H3 7941   8.311   4.027   3.740 -1.1555  0.7275 -5.3390
   95HK4     C2 7942   8.129   3.960   3.823 -0.5449  0.6331 -0.5962
   95HK4     H2 7943   8.132   4.040   3.899  2.3980 -0.3372  0.3748
   95HK4     C1 7944   8.040   3.853   3.823  0.2280 -0.0183  0.0317
   95HK4     H1 7945   7.967   3.851   3.905  1.3128 -1.2972  0.9976
   95HK4     C6 7946   8.055   3.732   3.753  0.5073 -0.7631  1.3641
   95HK4     C5 7947   8.177   3.714   3.688 -0.1286  0.5539 -0.1952
   95HK4    C10 7948   8.212   3.592   3.610 -0.1574  0.3123  0.1674
   95HK4     O1 7949   8.230   3.492   3.679 -0.1822  0.3140  0.1771
   95HK4    C16 7950   7.925   3.672   3.718  0.3949  0.0682  0.3599
   95HK4    C15 7951   7.807   3.748   3.709  0.1628 -0.3564 -0.2379
   95HK4     H7 7952   7.813   3.856   3.728 -0.8956 -0.6225  1.8004
   95HK4    C20 7953   7.685   3.685   3.684  0.0630 -0.0909 -0.4160
   95HK4     H9 7954   7.593   3.744   3.693  0.3230  0.2707 -0.0746
   95HK4    C19 7955   7.677   3.550   3.653 -0.0054 -0.1869  0.0107
   95HK4    C18 7956   7.798   3.471   3.658  0.2335  0.1844  0.1267
   95HK4    C17 7957   7.913   3.534   3.703  0.1290  0.0705  0.5608
   95HK4     H8 7958   7.975   3.467   3.762 -1.3412 -2.0867 -0.3024
   95HK4     N1 7959   7.783   3.341   3.604 -0.0766  0.0661  0.4860
   95HK4    C21 7960   7.649   3.339   3.562  0.1125  0.1409 -0.1309
   95HK4    C22 7961   7.581   3.464   3.587 -0.0679  0.0600 -0.2187
   95HK4    C26 7962   7.445   3.481   3.559 -0.1074  0.2981  0.1046
   95HK4    H13 7963   7.380   3.555   3.605 -0.6275  1.0249 -1.7546
   95HK4    C25 7964   7.381   3.382   3.485  0.3255  0.2053 -0.1544
   95HK4    H12 7965   7.291   3.410   3.431  0.3595  0.9279  0.1552
   95HK4    C24 7966   7.448   3.265   3.451  0.6565  0.5586 -0.7077
   95HK4    H11 7967   7.398   3.192   3.386  1.1620  0.0192 -0.4958
   95HK4    C23 7968   7.577   3.240   3.496  0.2488 -0.1067  0.0951
   95HK4    H10 7969   7.608   3.136   3.508  0.6627 -0.1188 -0.9643
   95HK4    C39 7970   7.852   3.224   3.637 -0.3397 -0.2822 -0.1860
   95HK4    C41 7971   7.856   3.119   3.543 -0.5663 -0.0086 -0.5043
   95HK4    H21 7972   7.847   3.142   3.436  0.0526 -0.8510 -0.7424
   95HK4    C42 7973   7.868   2.987   3.586  0.0514  0.1436 -0.2008
   95HK4    H22 7974   7.850   2.903   3.518 -1.1493 -0.2449  0.5945
   95HK4    C43 7975   7.901   2.971   3.720 -0.4186  0.2022 -0.0776
   95HK4    H23 7976   7.953   2.880   3.747  0.9430  0.6808 -1.0014
   95HK4    C44 7977   7.906   3.071   3.817  0.6268  0.0494  0.0281
   95HK4    H24 7978   7.922   3.047   3.923  0.3180  2.4013  0.6256
   95HK4    C45 7979   7.874   3.199   3.774  0.6254 -0.0574 -0.2934
   95HK4    H25 7980   7.881   3.281   3.848  2.7789 -1.2210  0.8399
   96HK4    H28 7981   7.272   5.855   6.923 -0.9546  1.2375 -1.6983
   96HK4    C48 7982   7.329   5.942   6.957  0.1545  0.0027 -0.3238
   96HK4    C47 7983   7.362   6.049   6.875  0.1862 -0.0431 -0.3716
   96HK4    H27 7984   7.297   6.060   6.787 -0.8047 -1.0448  0.2391
   96HK4    C46 7985   7.441   6.156   6.917 -0.6546  0.3226  0.2976
   96HK4    H26 7986   7.481   6.229   6.844  1.7474 -0.3780  0.8509
   96HK4    C40 7987   7.471   6.164   7.054 -0.1184  0.1763  0.1930
   96HK4    C50 7988   7.435   6.060   7.142  0.6580 -0.3146 -0.0681
   96HK4    H30 7989   7.403   6.084   7.244  1.4981 -0.4578  0.2272
   96HK4    C49 7990   7.376   5.946   7.088 -0.5699  0.3200 -0.0723
   96HK4    H29 7991   7.367   5.859   7.154  0.2363  0.9613  0.8964
   96HK4     N2 7992   7.487   6.290   7.113  0.0718  0.3420 -0.2104
   96HK4    C30 7993   7.428   6.413   7.078 -0.5599  0.0091 -0.3346
   96HK4    C29 7994   7.323   6.440   6.991 -0.5638  0.0422 -0.3205
   96HK4    H15 7995   7.289   6.371   6.914  0.9557 -0.6136 -0.4243
   96HK4    C28 7996   7.263   6.566   6.995  0.0939  0.3405  0.3230
   96HK4    C27 7997   7.321   6.668   7.073  0.2560  0.5325 -0.0468
   96HK4    H14 7998   7.282   6.770   7.063  1.2935  0.9144 -0.2405
   96HK4    C32 7999   7.432   6.644   7.153 -0.1932 -0.7343  0.2142
   96HK4    H16 8000   7.465   6.717   7.227 -1.0505 -0.2834  0.1575
   96HK4    C31 8001   7.490   6.518   7.157 -0.1047 -0.6938  0.2444
   96HK4    C34 8002   7.597   6.461   7.237  0.9358 -0.0937 -0.6986
   96HK4    C33 8003   7.584   6.319   7.211 -0.5742 -0.2012  0.5983
   96HK4    C35 8004   7.676   6.234   7.271 -0.0502 -0.0951 -0.0568
   96HK4    H17 8005   7.671   6.125   7.268 -0.4193 -0.0423 -1.8798
   96HK4    C36 8006   7.773   6.287   7.355 -0.1893 -0.1316  0.1257
   96HK4    H18 8007   7.857   6.227   7.391  1.5606  0.2158 -3.2351
   96HK4    C37 8008   7.775   6.423   7.386  0.1361 -0.0707 -0.1601
   96HK4    H19 8009   7.856   6.467   7.442  2.3570 -3.2148 -0.7495
   96HK4    C38 8010   7.691   6.514   7.324 -0.0156  0.0595  0.2379
   96HK4    H20 8011   7.691   6.622   7.339  2.4968  0.4629 -2.2541
   96HK4    C14 8012   7.162   6.603   6.895  0.0194  0.0144  0.2760
   96HK4     C9 8013   7.149   6.731   6.840 -0.0696 -0.0346  0.1821
   96HK4     C8 8014   7.024   6.795   6.825  0.0696  0.1652 -0.1547
   96HK4    C11 8015   6.910   6.721   6.851  0.3540 -0.3610 -0.3890
   96HK4     H4 8016   6.813   6.772   6.838  0.1819  0.0420  2.2090
   96HK4    C12 8017   6.922   6.586   6.883 -0.2324 -0.2603  0.2966
   96HK4     H5 8018   6.843   6.516   6.851 -0.0035 -0.8414  1.0031
   96HK4    C13 8019   7.044   6.527   6.914 -0.0849  0.2986  0.7937
   96HK4     H6 8020   7.060   6.425   6.951 -0.5581  0.4779  1.4812
   96HK4     C7 8021   7.006   6.917   6.744  0.1239  0.4360  0.2407
   96HK4     O2 8022   6.911   6.991   6.772 -0.4351 -0.2449  0.1599
   96HK4     C4 8023   7.118   6.964   6.660  0.2512 -0.4887 -0.1153
   96HK4     C3 8024   7.100   7.082   6.588 -0.4678 -0.5260  0.0026
   96HK4     H3 8025   7.027   7.160   6.614 -0.2304 -0.0104 -0.8536
   96HK4     C2 8026   7.194   7.123   6.495 -0.7891 -0.2852 -0.2164
   96HK4     H2 8027   7.190   7.226   6.456 -0.9513  0.5392  1.9191
   96HK4     C1 8028   7.306   7.041   6.487 -0.0642  0.6913 -0.2244
   96HK4     H1 8029   7.358   7.061   6.393  0.2429  2.5145  0.3200
   96HK4     C6 8030   7.328   6.918   6.553  0.0544  0.5838 -0.4657
   96HK4     C5 8031   7.236   6.887   6.654  0.3714 -0.2813 -0.4382
   96HK4    C10 8032   7.261   6.779   6.753 -0.2448 -0.0834 -0.0666
   96HK4     O1 8033   7.377   6.748   6.779 -0.2802 -0.4089 -0.2814
   96HK4    C16 8034   7.430   6.831   6.495 -0.1874  0.1944 -0.3124
   96HK4    C15 8035   7.545   6.893   6.440 -0.2300  0.1113 -0.5024
   96HK4     H7 8036   7.581   6.987   6.484  1.6711 -1.2832  1.0717
   96HK4    C20 8037   7.621   6.828   6.343  0.2143 -0.2779  0.0945
   96HK4     H9 8038   7.708   6.877   6.299 -0.2124  0.5713  0.1650
   96HK4    C19 8039   7.583   6.701   6.302  0.0760 -0.1421 -0.1989
   96HK4    C18 8040   7.469   6.633   6.359  0.3003  0.0175  0.4438
   96HK4    C17 8041   7.393   6.704   6.451 -0.2783  0.1612 -0.1336
   96HK4     H8 8042   7.306   6.655   6.495  0.1025  0.0708  0.5383
   96HK4     N1 8043   7.449   6.502   6.309 -0.3640  0.4733 -0.4902
   96HK4    C21 8044   7.554   6.486   6.216 -0.3431  0.5840 -0.4874
   96HK4    C22 8045   7.643   6.600   6.216  0.6084 -0.1498  0.1790
   96HK4    C26 8046   7.748   6.600   6.126  0.1608 -0.0398 -0.3472
   96HK4    H13 8047   7.821   6.681   6.129 -0.0804  0.1769 -0.2813
   96HK4    C25 8048   7.765   6.497   6.034 -0.6022  0.1098 -0.6594
   96HK4    H12 8049   7.831   6.506   5.948  0.2155 -0.5439 -0.1004
   96HK4    C24 8050   7.675   6.391   6.036 -0.2946 -0.1481 -0.4094
   96HK4    H11 8051   7.693   6.311   5.963 -0.2666  0.8329 -1.4815
   96HK4    C23 8052   7.573   6.378   6.131  0.0859  0.2298  0.0536
   96HK4    H10 8053   7.525   6.281   6.145 -0.1779  0.7146  2.7038
   96HK4    C39 8054   7.382   6.403   6.382  0.1680  0.6136  0.1905
   96HK4    C41 8055   7.324   6.292   6.317  0.2770  0.4203  0.4212
   96HK4    H21 8056   7.328   6.291   6.207 -0.8724  0.1777  0.3704
   96HK4    C42 8057   7.255   6.191   6.383  0.2370  0.4000  0.3500
   96HK4    H22 8058   7.212   6.110   6.321 -3.9497  0.9352  2.3739
   96HK4    C43 8059   7.236   6.189   6.520 -0.7517 -0.1805  0.2108
   96HK4    H23 8060   7.155   6.128   6.561 -0.7531 -0.1375  0.2720
   96HK4    C44 8061   7.290   6.299   6.586  0.0060 -0.1995 -0.3766
   96HK4    H24 8062   7.300   6.303   6.695  2.8836  2.2635 -0.6656
   96HK4    C45 8063   7.361   6.400   6.521  0.4484 -0.1265  0.2176
   96HK4    H25 8064   7.418   6.464   6.590  1.4818 -0.1660 -0.5995
   97HK4    H28 8065   9.555   4.915   4.869  0.2425  0.4952 -0.5449
   97HK4    C48 8066   9.458   4.964   4.878  0.2904  0.4576  0.2430
   97HK4    C47 8067   9.420   5.029   4.995 -0.1515  0.2476  0.2190
   97HK4    H27 8068   9.495   5.027   5.076 -1.3324 -1.5765  1.3121
   97HK4    C46 8069   9.288   5.067   5.015 -0.2554  0.0821 -0.1550
   97HK4    H26 8070   9.252   5.102   5.113  0.8020  0.4855  0.0914
   97HK4    C40 8071   9.200   5.070   4.905 -0.2116 -0.1065 -0.1961
   97HK4    C50 8072   9.244   5.014   4.784 -0.2854 -0.0351 -0.2558
   97HK4    H30 8073   9.178   5.022   4.696 -1.4203  0.1128  0.6004
   97HK4    C49 8074   9.371   4.960   4.769 -0.0091  0.4054  0.4816
   97HK4    H29 8075   9.396   4.893   4.685  1.2194  1.5110 -0.0569
   97HK4     N2 8076   9.087   5.154   4.916  0.0907  0.3462 -0.5202
   97HK4    C30 8077   9.062   5.268   4.994 -0.2240 -0.5124  0.6497
   97HK4    C29 8078   9.147   5.371   5.035 -0.5640  0.2312 -0.4803
   97HK4    H15 8079   9.250   5.347   5.062 -0.5853 -1.4160 -1.7799
   97HK4    C28 8080   9.091   5.489   5.083  0.2915  0.7423 -0.7476
   97HK4    C27 8081   8.951   5.506   5.083  0.1203 -0.5979 -0.6375
   97HK4    H14 8082   8.909   5.606   5.102  1.0404 -0.7109  2.1110
   97HK4    C32 8083   8.865   5.406   5.040 -0.3388 -0.0404 -1.0135
   97HK4    H16 8084   8.760   5.432   5.023 -1.3254 -3.5005 -0.6574
   97HK4    C31 8085   8.919   5.288   4.989 -0.2618 -0.7620  0.7230
   97HK4    C34 8086   8.852   5.178   4.922 -0.0421 -0.0773 -0.6352
   97HK4    C33 8087   8.964   5.101   4.872  0.1570 -0.0587 -0.2217
   97HK4    C35 8088   8.935   4.978   4.815  0.2832  0.1224 -0.6753
   97HK4    H17 8089   9.010   4.913   4.770 -0.1828 -1.5725  0.9518
   97HK4    C36 8090   8.802   4.939   4.803  0.3494 -0.1907 -0.3823
   97HK4    H18 8091   8.786   4.836   4.767  0.7994 -0.4728  0.2215
   97HK4    C37 8092   8.695   5.015   4.850 -0.2153 -0.2610 -1.5371
   97HK4    H19 8093   8.594   4.977   4.839 -1.5733  1.9661  2.2629
   97HK4    C38 8094   8.720   5.136   4.913  0.2227 -1.0097 -0.2487
   97HK4    H20 8095   8.635   5.201   4.939  1.3895  1.1313 -1.6501
   97HK4    C14 8096   9.167   5.563   5.185 -0.1932  0.1991  0.0094
   97HK4     C9 8097   9.115   5.595   5.311  0.6354  0.1486  0.3698
   97HK4     C8 8098   9.125   5.725   5.364 -0.4384  0.4844 -0.2426
   97HK4    C11 8099   9.214   5.818   5.311  0.5259 -0.2670  0.0766
   97HK4     H4 8100   9.241   5.913   5.359 -1.0514  1.3135 -2.1242
   97HK4    C12 8101   9.276   5.782   5.192 -0.9133  0.2433 -0.8266
   97HK4     H5 8102   9.351   5.855   5.159 -3.2423  2.0091 -2.4659
   97HK4    C13 8103   9.253   5.660   5.130 -0.2912 -0.0189 -0.5356
   97HK4     H6 8104   9.314   5.637   5.041  1.2144 -0.8868  0.6857
   97HK4     C7 8105   9.043   5.757   5.483 -0.1767  0.1756  0.0181
   97HK4     O2 8106   9.037   5.875   5.519  0.2648  0.2164 -0.0379
   97HK4     C4 8107   8.966   5.654   5.556 -0.6960  0.3198 -0.3218
   97HK4     C3 8108   8.882   5.686   5.662 -0.2119  0.0895  0.1366
   97HK4     H3 8109   8.846   5.790   5.671 -0.5747 -0.1128  1.0128
   97HK4     C2 8110   8.811   5.583   5.722 -0.2127  0.1681  0.2643
   97HK4     H2 8111   8.748   5.609   5.808 -2.3424 -0.3849 -1.1011
   97HK4     C1 8112   8.816   5.450   5.682 -0.2793  0.3346 -0.3031
   97HK4     H1 8113   8.779   5.375   5.754  1.3316 -1.0976 -0.9241
   97HK4     C6 8114   8.883   5.419   5.562  0.0960  0.1377 -0.0414
   97HK4     C5 8115   8.969   5.519   5.515  0.0907  0.2088  0.1030
   97HK4    C10 8116   9.053   5.489   5.395 -0.5489  0.2556 -0.3582
   97HK4     O1 8117   9.116   5.384   5.394 -0.1998  0.4635 -0.2142
   97HK4    C16 8118   8.800   5.332   5.477  0.2722 -0.2829  0.2151
   97HK4    C15 8119   8.660   5.331   5.488  0.1773  0.4641 -0.8228
   97HK4     H7 8120   8.610   5.419   5.531  0.3793 -0.2611  0.9751
   97HK4    C20 8121   8.577   5.237   5.428 -0.1283  0.1029  0.1375
   97HK4     H9 8122   8.469   5.249   5.433  0.0449  1.9639 -0.2670
   97HK4    C19 8123   8.639   5.141   5.348  0.3000  0.2634  0.2760
   97HK4    C18 8124   8.782   5.120   5.352  0.2922 -0.0332 -0.8645
   97HK4    C17 8125   8.855   5.221   5.414 -0.0243  0.0624 -0.6513
   97HK4     H8 8126   8.961   5.202   5.431 -0.8208 -1.4585  3.0768
   97HK4     N1 8127   8.824   5.011   5.273 -0.1263 -0.5659 -0.3530
   97HK4    C21 8128   8.705   4.962   5.215 -0.7221  0.0646  0.3316
   97HK4    C22 8129   8.589   5.037   5.260 -0.4175  0.4920  0.4073
   97HK4    C26 8130   8.464   4.994   5.218 -0.0690 -0.1838  0.0629
   97HK4    H13 8131   8.372   5.039   5.254  0.3769 -1.2019  2.5977
   97HK4    C25 8132   8.452   4.888   5.128  0.2256  0.2702 -0.5190
   97HK4    H12 8133   8.352   4.851   5.108  0.0981 -0.0713  0.6851
   97HK4    C24 8134   8.563   4.819   5.082  0.0223  0.0812 -0.7220
   97HK4    H11 8135   8.544   4.732   5.018 -1.8934 -0.1119  0.0716
   97HK4    C23 8136   8.690   4.854   5.128 -0.3435 -0.0155  0.3673
   97HK4    H10 8137   8.773   4.784   5.122 -0.1022  0.0409  2.6174
   97HK4    C39 8138   8.947   4.950   5.300 -0.2962 -0.5028  0.5727
   97HK4    C41 8139   9.016   4.889   5.193 -0.3101  0.3684  0.0591
   97HK4    H21 8140   8.969   4.913   5.097  1.1465  2.0444 -0.2478
   97HK4    C42 8141   9.118   4.796   5.211 -0.1552  0.5628  0.1724
   97HK4    H22 8142   9.178   4.769   5.123  2.0016  2.0910  1.1281
   97HK4    C43 8143   9.140   4.748   5.340  0.0533 -0.1987 -0.1452
   97HK4    H23 8144   9.219   4.672   5.341  1.1661  0.9576  0.9068
   97HK4    C44 8145   9.074   4.809   5.446 -0.1729 -0.2913 -0.2321
   97HK4    H24 8146   9.072   4.759   5.544 -2.0886  0.3240  0.0609
   97HK4    C45 8147   8.984   4.914   5.431 -0.1179 -0.1213  0.6263
   97HK4    H25 8148   8.960   4.980   5.515 -1.4397 -1.5566  1.3944
   98HK4    H28 8149   2.825   7.484   8.285  0.9873 -0.2113  0.3918
   98HK4    C48 8150   2.881   7.481   8.192 -0.5433 -0.3116 -0.5541
   98HK4    C47 8151   2.853   7.562   8.083 -0.2430  0.4190 -0.0967
   98HK4    H27 8152   2.755   7.610   8.074  1.1873  3.3012 -0.9777
   98HK4    C46 8153   2.953   7.586   7.989  0.0645  0.1148  0.1529
   98HK4    H26 8154   2.924   7.655   7.908 -0.9787  2.1718  2.2219
   98HK4    C40 8155   3.077   7.518   7.987  0.0004  0.0021 -0.1139
   98HK4    C50 8156   3.102   7.437   8.100  0.3888  0.4902  0.1546
   98HK4    H30 8157   3.202   7.390   8.102  1.1623  2.0787 -0.5405
   98HK4    C49 8158   3.006   7.420   8.199 -0.0983  0.6294 -0.2904
   98HK4    H29 8159   3.030   7.359   8.288 -0.2270  1.4446  0.3150
   98HK4     N2 8160   3.180   7.550   7.898  0.1912  0.1786  0.1684
   98HK4    C30 8161   3.189   7.670   7.825 -0.4442  0.1203 -0.0156
   98HK4    C29 8162   3.140   7.794   7.866 -0.3457  0.1284  0.0818
   98HK4    H15 8163   3.078   7.804   7.955  0.0058 -0.4132  0.3939
   98HK4    C28 8164   3.179   7.908   7.797 -0.0953  0.1164  0.2034
   98HK4    C27 8165   3.264   7.899   7.685 -0.2234 -0.4100  0.1441
   98HK4    H14 8166   3.295   7.983   7.621  0.5338  0.2667  1.3985
   98HK4    C32 8167   3.320   7.777   7.650  0.0153 -0.3326  0.2530
   98HK4    H16 8168   3.399   7.774   7.575  0.4066  0.5606  0.6235
   98HK4    C31 8169   3.284   7.659   7.716 -0.2625 -0.2884  0.1807
   98HK4    C34 8170   3.331   7.522   7.718 -0.6883 -0.4368  0.0474
   98HK4    C33 8171   3.274   7.464   7.838 -0.1082 -0.3031  0.3868
   98HK4    C35 8172   3.305   7.329   7.855  0.0826 -0.3743 -0.5300
   98HK4    H17 8173   3.277   7.278   7.947 -1.1718  2.1334  0.5308
   98HK4    C36 8174   3.369   7.254   7.757  0.4088 -0.5016 -0.2156
   98HK4    H18 8175   3.367   7.145   7.771 -3.8852 -0.2122  2.1762
   98HK4    C37 8176   3.420   7.311   7.641 -0.1054 -0.1947 -0.2871
   98HK4    H19 8177   3.484   7.250   7.578  0.7559  2.5404 -2.1600
   98HK4    C38 8178   3.402   7.448   7.625 -0.5499 -0.2179 -0.0200
   98HK4    H20 8179   3.416   7.498   7.529 -0.1809  0.3081  0.3036
   98HK4    C14 8180   3.124   8.036   7.842  0.0534  0.2472  0.0129
   98HK4     C9 8181   3.103   8.144   7.754 -0.0998  0.0835 -0.1550
   98HK4     C8 8182   3.128   8.276   7.798  0.2180 -0.0074 -0.0501
   98HK4    C11 8183   3.161   8.296   7.931  0.1623  0.0596 -0.0463
   98HK4     H4 8184   3.186   8.398   7.964 -1.3983  0.3139  0.3502
   98HK4    C12 8185   3.160   8.193   8.024 -0.9440  0.0666 -0.0533
   98HK4     H5 8186   3.190   8.209   8.129  0.1223  0.8632 -0.4698
   98HK4    C13 8187   3.142   8.063   7.979 -0.1015 -0.1080  0.1023
   98HK4     H6 8188   3.166   7.986   8.054 -1.8974 -1.0557 -0.2616
   98HK4     C7 8189   3.102   8.396   7.715  0.4567 -0.2163 -0.4274
   98HK4     O2 8190   3.172   8.495   7.731 -0.5199  0.4195  0.0090
   98HK4     C4 8191   3.020   8.380   7.593  0.3868  0.0083 -0.4109
   98HK4     C3 8192   2.992   8.486   7.507 -0.5698  0.1908  0.1190
   98HK4     H3 8193   3.002   8.587   7.549 -1.0697  1.1519 -2.0261
   98HK4     C2 8194   2.906   8.474   7.399 -0.5558  0.8064  0.0388
   98HK4     H2 8195   2.886   8.562   7.336  0.6327  1.4585  0.5472
   98HK4     C1 8196   2.825   8.361   7.389  0.6029 -0.0207 -0.1021
   98HK4     H1 8197   2.769   8.349   7.296  1.3606  3.2566 -1.0474
   98HK4     C6 8198   2.846   8.258   7.482  0.0204 -0.1653 -0.1246
   98HK4     C5 8199   2.956   8.257   7.570  0.2846  0.0695 -0.4518
   98HK4    C10 8200   3.013   8.136   7.636 -0.2334  0.0448 -0.0505
   98HK4     O1 8201   3.012   8.032   7.570  0.0413 -0.0818  0.1434
   98HK4    C16 8202   2.739   8.158   7.490  0.3294 -0.4920 -0.0460
   98HK4    C15 8203   2.648   8.143   7.384  0.6859 -0.0505 -0.4119
   98HK4     H7 8204   2.677   8.165   7.280 -3.8381  0.5518 -1.6575
   98HK4    C20 8205   2.524   8.083   7.400  0.1528  1.2394  0.3864
   98HK4     H9 8206   2.487   8.047   7.304 -1.7071  1.2044  1.1040
   98HK4    C19 8207   2.486   8.031   7.523  0.3232  0.0690 -0.0482
   98HK4    C18 8208   2.580   8.041   7.633  0.1895  0.4791  0.0312
   98HK4    C17 8209   2.704   8.099   7.611  0.2114  0.5982  0.4558
   98HK4     H8 8210   2.772   8.105   7.696  1.4799 -0.2875 -0.4662
   98HK4     N1 8211   2.522   7.992   7.752  0.2390  0.6790  0.1360
   98HK4    C21 8212   2.394   7.940   7.721  0.5359  0.1560 -0.2179
   98HK4    C22 8213   2.368   7.970   7.582  0.2126  0.1815 -0.1522
   98HK4    C26 8214   2.258   7.916   7.517  0.3081 -0.1754 -0.0217
   98HK4    H13 8215   2.221   7.974   7.432 -0.0190 -1.4646 -0.7711
   98HK4    C25 8216   2.173   7.831   7.586 -0.2877  0.5356  0.1289
   98HK4    H12 8217   2.096   7.772   7.536 -1.0191 -1.0681  3.0317
   98HK4    C24 8218   2.206   7.794   7.716 -0.1586  0.2511  0.0159
   98HK4    H11 8219   2.147   7.720   7.773 -2.4018  2.8306  1.1507
   98HK4    C23 8220   2.311   7.850   7.788 -0.3158  0.9092 -0.2651
   98HK4    H10 8221   2.342   7.815   7.886 -1.5628 -1.8021 -0.7958
   98HK4    C39 8222   2.587   7.975   7.875 -0.3857 -0.5787  0.2994
   98HK4    C41 8223   2.515   7.960   7.995 -0.1633  0.4614  0.5639
   98HK4    H21 8224   2.420   8.014   8.009 -0.3057 -0.0998  1.8941
   98HK4    C42 8225   2.582   7.927   8.113  0.1050  0.5683  0.4403
   98HK4    H22 8226   2.527   7.900   8.204 -1.2385 -0.1333 -0.5594
   98HK4    C43 8227   2.719   7.905   8.111  0.0603  0.3157  0.0301
   98HK4    H23 8228   2.773   7.905   8.206  2.3166  2.8760 -1.1754
   98HK4    C44 8229   2.795   7.912   7.995 -0.1088  0.1158 -0.0902
   98HK4    H24 8230   2.903   7.888   7.992 -0.5983 -2.3080  0.8671
   98HK4    C45 8231   2.725   7.951   7.881 -0.2164  0.3247  0.0461
   98HK4    H25 8232   2.784   7.925   7.791  0.8352  1.1373  0.4851
   99HK4    H28 8233   1.526   3.591   1.349  0.8281  0.3606  0.3673
   99HK4    C48 8234   1.555   3.487   1.334  0.7654  0.3936  0.0020
   99HK4    C47 8235   1.589   3.437   1.209 -0.1322 -0.2041 -0.0100
   99HK4    H27 8236   1.543   3.475   1.117  1.9904  1.6599 -0.3607
   99HK4    C46 8237   1.648   3.311   1.204  0.2351 -0.0345  0.0159
   99HK4    H26 8238   1.695   3.287   1.107  2.2631  0.7807  0.7644
   99HK4    C40 8239   1.678   3.234   1.317 -0.0341 -0.0690  0.0641
   99HK4    C50 8240   1.638   3.288   1.441 -0.2375 -0.3228  0.1098
   99HK4    H30 8241   1.671   3.238   1.534 -2.0107  1.7164  1.8763
   99HK4    C49 8242   1.575   3.411   1.449  0.1395 -0.1063 -0.2187
   99HK4    H29 8243   1.544   3.451   1.547  0.7787  1.5131 -0.6651
   99HK4     N2 8244   1.764   3.123   1.310  0.3574  0.2280  0.1843
   99HK4    C30 8245   1.755   3.008   1.391  0.0171  0.3454  0.3114
   99HK4    C29 8246   1.666   2.959   1.487 -0.6824 -0.0747 -0.5425
   99HK4    H15 8247   1.566   3.001   1.485 -0.1660  1.2186 -0.0148
   99HK4    C28 8248   1.681   2.843   1.561  0.2458  0.3310 -0.0781
   99HK4    C27 8249   1.795   2.765   1.534  0.1745  0.2929 -0.2659
   99HK4    H14 8250   1.813   2.676   1.597 -2.4440 -0.5918 -0.7105
   99HK4    C32 8251   1.888   2.805   1.440 -0.0006  0.1165 -0.5161
   99HK4    H16 8252   1.979   2.746   1.429 -1.4722 -1.8130 -3.0096
   99HK4    C31 8253   1.870   2.923   1.368 -0.3731  0.0421 -0.5446
   99HK4    C34 8254   1.952   2.995   1.272 -0.0022  0.2210 -0.0947
   99HK4    C33 8255   1.888   3.121   1.242  0.3384  0.4517  0.1412
   99HK4    C35 8256   1.957   3.221   1.175 -0.1936  0.4606 -0.4040
   99HK4    H17 8257   1.910   3.319   1.161 -0.1403  0.2311 -2.3493
   99HK4    C36 8258   2.087   3.197   1.132 -0.3214 -0.1566 -0.4537
   99HK4    H18 8259   2.128   3.261   1.052 -0.1403 -0.9064 -0.9673
   99HK4    C37 8260   2.148   3.075   1.157 -0.0796  0.2339  0.8861
   99HK4    H19 8261   2.241   3.043   1.108 -0.6544  0.9693 -0.7156
   99HK4    C38 8262   2.081   2.974   1.225  0.0080 -0.3141  0.1593
   99HK4    H20 8263   2.132   2.878   1.235 -3.0667 -2.0068  0.2936
   99HK4    C14 8264   1.600   2.834   1.684  0.3034  0.3802 -0.0366
   99HK4     C9 8265   1.644   2.758   1.792 -0.5785 -0.5716 -0.3441
   99HK4     C8 8266   1.556   2.682   1.872 -0.5351  0.2594  0.5003
   99HK4    C11 8267   1.419   2.699   1.858 -0.4589  0.4312 -0.0147
   99HK4     H4 8268   1.352   2.670   1.940 -0.0360  0.3564  0.3044
   99HK4    C12 8269   1.370   2.783   1.758  0.2376  0.5605 -0.2519
   99HK4     H5 8270   1.265   2.794   1.728 -0.0769  0.9901  0.9793
   99HK4    C13 8271   1.460   2.846   1.673  0.3258  0.4666 -0.2282
   99HK4     H6 8272   1.424   2.932   1.615 -1.4747 -0.9203 -1.2547
   99HK4     C7 8273   1.612   2.582   1.966  0.5827 -0.0433 -0.4784
   99HK4     O2 8274   1.531   2.514   2.028  0.3237  0.5761 -0.1333
   99HK4     C4 8275   1.758   2.564   1.983  0.5933  0.7942  0.4211
   99HK4     C3 8276   1.805   2.464   2.068  0.0981 -0.0777 -0.3205
   99HK4     H3 8277   1.745   2.398   2.132  2.0385 -1.0575  0.5232
   99HK4     C2 8278   1.941   2.433   2.071  0.0745 -0.0922  0.7463
   99HK4     H2 8279   1.977   2.356   2.141  1.0049  0.3838  0.7963
   99HK4     C1 8280   2.028   2.505   1.991 -0.6601  0.1184  0.1265
   99HK4     H1 8281   2.134   2.477   1.983 -0.3804  1.0796  0.3294
   99HK4     C6 8282   1.984   2.608   1.904  0.1855  0.5556  0.2097
   99HK4     C5 8283   1.848   2.640   1.906  0.1830  0.5726 -0.2839
   99HK4    C10 8284   1.789   2.751   1.824 -0.6174  0.4022  0.0581
   99HK4     O1 8285   1.846   2.860   1.830  0.0778  0.0607 -0.2962
   99HK4    C16 8286   2.060   2.626   1.780  0.2492 -0.2505  0.1288
   99HK4    C15 8287   2.109   2.516   1.706  0.3733 -0.0483 -0.0944
   99HK4     H7 8288   2.073   2.416   1.736  0.2636  0.4806  1.6222
   99HK4    C20 8289   2.209   2.521   1.610  0.2647 -0.2512 -0.2189
   99HK4     H9 8290   2.221   2.436   1.543 -3.6682 -0.4421 -0.8046
   99HK4    C19 8291   2.252   2.648   1.573  0.4710 -0.2347  0.0737
   99HK4    C18 8292   2.199   2.762   1.646 -0.2027 -0.1988 -0.4610
   99HK4    C17 8293   2.114   2.752   1.755 -0.1655 -0.1827 -0.4297
   99HK4     H8 8294   2.116   2.830   1.831  1.0088 -0.8740  0.2653
   99HK4     N1 8295   2.252   2.880   1.591 -0.2764  0.0314 -0.0396
   99HK4    C21 8296   2.332   2.845   1.479 -0.2529 -0.1422  0.0314
   99HK4    C22 8297   2.347   2.701   1.478  0.1771 -0.0961 -0.1441
   99HK4    C26 8298   2.410   2.646   1.367 -0.0612 -0.1571 -0.2501
   99HK4    H13 8299   2.434   2.540   1.361  0.1186 -0.1313 -0.0064
   99HK4    C25 8300   2.455   2.724   1.261  0.2249 -0.0555 -0.0551
   99HK4    H12 8301   2.540   2.689   1.202  0.0895 -1.8913  0.8040
   99HK4    C24 8302   2.441   2.862   1.267 -0.4636 -0.0983 -0.6299
   99HK4    H11 8303   2.466   2.915   1.174  1.0904 -1.2734 -0.8966
   99HK4    C23 8304   2.376   2.923   1.373 -0.0482 -0.4930 -0.1420
   99HK4    H10 8305   2.353   3.029   1.358  0.0972 -0.5333 -0.6523
   99HK4    C39 8306   2.216   3.012   1.620 -0.0163  0.1706 -0.3391
   99HK4    C41 8307   2.320   3.106   1.639 -0.0156  0.0670  0.1710
   99HK4    H21 8308   2.414   3.077   1.687  0.2990  0.4761 -0.1957
   99HK4    C42 8309   2.293   3.241   1.620  0.1557  0.1074  0.2146
   99HK4    H22 8310   2.376   3.310   1.597 -1.3027  2.3756  1.5068
   99HK4    C43 8311   2.164   3.287   1.595 -0.0741 -0.2524  0.7281
   99HK4    H23 8312   2.144   3.394   1.587 -0.6661 -0.4762 -0.8629
   99HK4    C44 8313   2.062   3.194   1.586 -0.1462 -0.1146  0.1497
   99HK4    H24 8314   1.956   3.225   1.580  0.5649  2.5320  0.7495
   99HK4    C45 8315   2.084   3.058   1.600 -0.1369 -0.1623 -0.3094
   99HK4    H25 8316   2.003   2.987   1.579 -1.5140  1.2910  0.0348
  100HK4    H28 8317  10.309  10.534   6.605 -0.8042  2.9044 -1.5704
  100HK4    C48 8318  10.213  10.487   6.586  0.3206 -0.1392 -0.1323
  100HK4    C47 8319  10.205  10.351   6.559 -0.0039 -0.1203 -0.1355
  100HK4    H27 8320  10.299  10.297   6.545 -0.6760 -1.5097  0.5792
  100HK4    C46 8321  10.085  10.285   6.534 -0.0265  0.0183 -0.3944
  100HK4    H26 8322  10.079  10.176   6.528 -0.6111 -0.0681  1.2339
  100HK4    C40 8323   9.968  10.364   6.530  0.1680  0.3184 -0.2114
  100HK4    C50 8324   9.972  10.503   6.553  0.2328  0.1886  0.5626
  100HK4    H30 8325   9.881  10.564   6.543 -0.1518 -0.6472 -1.1172
  100HK4    C49 8326  10.095  10.561   6.578  0.3083 -0.0555  0.7701
  100HK4    H29 8327  10.105  10.668   6.601 -2.5883  0.6282 -0.9382
  100HK4     N2 8328   9.853  10.312   6.469  0.0601  0.4006 -0.0742
  100HK4    C30 8329   9.856  10.221   6.361  0.0807 -0.4074  0.6008
  100HK4    C29 8330   9.962  10.190   6.278 -0.4157 -0.1950 -0.1135
  100HK4    H15 8331  10.045  10.259   6.259 -0.1193 -0.6932 -0.6468
  100HK4    C28 8332   9.959  10.080   6.194 -0.3121  0.2805 -0.7468
  100HK4    C27 8333   9.846   9.996   6.205 -0.2100  0.2533  0.0992
  100HK4    H14 8334   9.844   9.893   6.167  0.0233  0.2953 -0.0279
  100HK4    C32 8335   9.739  10.022   6.290 -0.8379 -0.1974 -0.5446
  100HK4    H16 8336   9.654   9.955   6.302 -1.4579  0.3657 -1.7757
  100HK4    C31 8337   9.737  10.138   6.367 -0.0467 -0.2963 -0.3645
  100HK4    C34 8338   9.650  10.196   6.468 -0.0200 -0.3060 -0.3369
  100HK4    C33 8339   9.726  10.303   6.530  0.2747 -0.8330  0.2113
  100HK4    C35 8340   9.660  10.378   6.627  0.1768 -0.5330 -0.0862
  100HK4    H17 8341   9.711  10.466   6.668  0.6190 -1.1739  0.7678
  100HK4    C36 8342   9.528  10.356   6.665  0.1003 -0.1084 -0.1074
  100HK4    H18 8343   9.475  10.413   6.742 -0.6709 -0.6499 -0.2322
  100HK4    C37 8344   9.461  10.246   6.613  0.1581 -0.3271  0.2810
  100HK4    H19 8345   9.366  10.221   6.659  0.0983  0.2564  0.4724
  100HK4    C38 8346   9.523  10.168   6.515 -0.1488  0.2249 -0.3579
  100HK4    H20 8347   9.474  10.078   6.478  0.6060 -0.5585  0.5419
  100HK4    C14 8348  10.072  10.070   6.099  0.6002 -0.0941  0.3636
  100HK4     C9 8349  10.078   9.997   5.980 -0.0969 -0.5688  0.6117
  100HK4     C8 8350  10.203   9.981   5.917 -0.1753 -0.1044  0.3375
  100HK4    C11 8351  10.320  10.037   5.968 -0.2595  0.3100  0.0762
  100HK4     H4 8352  10.390  10.073   5.891 -2.2258  0.3554 -1.7239
  100HK4    C12 8353  10.320  10.093   6.096  0.5462  0.1966  0.1288
  100HK4     H5 8354  10.414  10.143   6.125  0.5307 -0.6184  1.6008
  100HK4    C13 8355  10.196  10.105   6.157  0.6259 -0.2040  0.3739
  100HK4     H6 8356  10.204  10.116   6.266  0.1097  1.9037  0.2239
  100HK4     C7 8357  10.224   9.872   5.820  0.2433  0.0930  0.2053
  100HK4     O2 8358  10.298   9.892   5.724  0.2958 -0.2383  0.1754
  100HK4     C4 8359  10.126   9.761   5.821  0.2160  0.1106 -0.1377
  100HK4     C3 8360  10.164   9.645   5.753 -0.2632 -0.2564  0.2176
  100HK4     H3 8361  10.271   9.622   5.747 -0.0968  0.9077 -1.4847
  100HK4     C2 8362  10.073   9.549   5.712  0.3395 -0.9435  0.4717
  100HK4     H2 8363  10.105   9.460   5.656  1.6751  0.8509 -1.7099
  100HK4     C1 8364   9.942   9.570   5.752  0.1871  0.3861 -0.7132
  100HK4     H1 8365   9.873   9.486   5.736  1.2280 -0.5221 -0.4734
  100HK4     C6 8366   9.899   9.694   5.806  0.1957 -0.1311  0.4861
  100HK4     C5 8367   9.991   9.793   5.844  0.1936  0.2069 -0.3928
  100HK4    C10 8368   9.967   9.915   5.926 -0.1270 -0.0981 -0.0331
  100HK4     O1 8369   9.858   9.971   5.917  0.0283  0.1850 -0.1688
  100HK4    C16 8370   9.762   9.731   5.767  0.2754  0.0076  0.3308
  100HK4    C15 8371   9.720   9.675   5.645 -0.2585  0.8717  0.1162
  100HK4     H7 8372   9.768   9.699   5.549  0.6620  0.1039  0.3712
  100HK4    C20 8373   9.601   9.604   5.641  0.1172  0.2323 -0.0788
  100HK4     H9 8374   9.572   9.557   5.547  0.9181 -0.1533 -0.1312
  100HK4    C19 8375   9.521   9.584   5.754  0.0418 -0.4288 -0.2502
  100HK4    C18 8376   9.555   9.658   5.874 -0.1236  0.1000 -0.5225
  100HK4    C17 8377   9.674   9.729   5.874 -0.0539 -0.0144  0.0571
  100HK4     H8 8378   9.694   9.800   5.955 -2.1417 -0.7387  1.2627
  100HK4     N1 8379   9.452   9.628   5.966  0.0757  0.4104 -0.2007
  100HK4    C21 8380   9.368   9.526   5.917 -0.1252  0.0963  0.7766
  100HK4    C22 8381   9.405   9.501   5.779 -0.4078  0.4566  0.6342
  100HK4    C26 8382   9.355   9.386   5.719 -0.0428  0.2344  0.7529
  100HK4    H13 8383   9.416   9.352   5.635 -1.0045  2.2459 -0.7766
  100HK4    C25 8384   9.256   9.312   5.783 -0.2164 -0.1463  0.0476
  100HK4    H12 8385   9.194   9.248   5.720 -0.7657  1.2069 -0.8073
  100HK4    C24 8386   9.220   9.339   5.914  0.0486 -0.4291  0.1813
  100HK4    H11 8387   9.144   9.276   5.964 -1.6263  0.6419 -0.9829
  100HK4    C23 8388   9.280   9.442   5.985  0.5473 -0.8943  0.4341
  100HK4    H10 8389   9.252   9.461   6.089  1.6524  0.5912  0.4877
  100HK4    C39 8390   9.429   9.690   6.090  0.1279  0.0989 -0.0348
  100HK4    C41 8391   9.297   9.720   6.127  0.1830  0.7310 -0.3433
  100HK4    H21 8392   9.207   9.692   6.069  0.2815 -2.9437  1.1609
  100HK4    C42 8393   9.269   9.771   6.253  0.3833 -0.3147  0.1229
  100HK4    H22 8394   9.163   9.788   6.276  0.8445  1.4028  1.0441
  100HK4    C43 8395   9.369   9.796   6.347  0.1259  0.0149  0.3108
  100HK4    H23 8396   9.348   9.848   6.440  1.4131 -1.7727  1.6362
  100HK4    C44 8397   9.497   9.753   6.315  0.1391  0.0338  0.3393
  100HK4    H24 8398   9.580   9.776   6.383 -0.0298  0.1419  0.5064
  100HK4    C45 8399   9.528   9.700   6.190 -0.1135  0.2312  0.1909
  100HK4    H25 8400   9.625   9.652   6.172 -1.4345 -1.9781 -1.2928
  101HK4    H28 8401   1.297   2.165  10.438 -0.8793  0.4101 -0.5939
  101HK4    C48 8402   1.336   2.152  10.337  0.4264 -0.4341  0.0084
  101HK4    C47 8403   1.368   2.260  10.256 -0.3450 -0.0516  0.2004
  101HK4    H27 8404   1.349   2.364  10.286 -0.1268  0.6313 -1.9443
  101HK4    C46 8405   1.425   2.233  10.132 -0.6194 -0.1338  0.0931
  101HK4    H26 8406   1.462   2.323  10.080 -0.8135 -1.6206 -2.6985
  101HK4    C40 8407   1.450   2.107  10.074  0.4849 -0.0306  0.3360
  101HK4    C50 8408   1.418   2.000  10.160  0.4917  0.0575  0.4473
  101HK4    H30 8409   1.433   1.897  10.126 -1.8992 -0.1298 -0.1441
  101HK4    C49 8410   1.361   2.026  10.284 -0.2179 -0.6773  0.2728
  101HK4    H29 8411   1.322   1.944  10.347 -0.5391 -0.3613  0.4846
  101HK4     N2 8412   1.440   2.089   9.935  0.1123  0.3283  0.3108
  101HK4    C30 8413   1.396   2.179   9.836  0.0723 -0.4670 -0.3954
  101HK4    C29 8414   1.293   2.271   9.846  0.3279 -0.2495  0.2611
  101HK4    H15 8415   1.257   2.290   9.947  1.3097 -2.0293  0.9573
  101HK4    C28 8416   1.240   2.331   9.732 -0.0528 -0.4923  0.3138
  101HK4    C27 8417   1.289   2.301   9.604 -0.3360  0.0723  0.0691
  101HK4    H14 8418   1.244   2.347   9.515  0.1407  1.5318  0.5712
  101HK4    C32 8419   1.391   2.207   9.593 -0.5115 -0.1087 -0.0149
  101HK4    H16 8420   1.429   2.179   9.495 -0.6486 -2.5538  0.6079
  101HK4    C31 8421   1.444   2.143   9.704  0.4550  0.0221 -0.3955
  101HK4    C34 8422   1.518   2.020   9.726  0.2082  0.0243  0.4453
  101HK4    C33 8423   1.526   1.998   9.869  0.0806  0.1807  0.4751
  101HK4    C35 8424   1.608   1.897   9.917 -0.2940 -0.3019  0.1035
  101HK4    H17 8425   1.595   1.865  10.020 -0.2113  0.5394  0.3840
  101HK4    C36 8426   1.685   1.820   9.830  0.7094  0.6691  0.1160
  101HK4    H18 8427   1.756   1.744   9.864  0.0930  0.2858  0.5550
  101HK4    C37 8428   1.679   1.853   9.695 -0.3598 -0.6384 -0.1651
  101HK4    H19 8429   1.765   1.813   9.640 -0.0924  0.3869 -0.5108
  101HK4    C38 8430   1.598   1.950   9.637  0.5004  0.4253  0.3875
  101HK4    H20 8431   1.590   1.961   9.529 -1.2883 -0.3178  0.4342
  101HK4    C14 8432   1.112   2.402   9.741  0.1556 -0.0859  0.0389
  101HK4     C9 8433   1.018   2.406   9.637  0.5469 -0.0392 -0.3076
  101HK4     C8 8434   0.949   2.525   9.605 -0.3991 -0.3867  0.4143
  101HK4    C11 8435   0.977   2.640   9.679  0.2610 -0.3425  0.1076
  101HK4     H4 8436   0.960   2.736   9.629  0.5101 -0.1110  0.4756
  101HK4    C12 8437   1.051   2.634   9.796  0.5606  0.3204 -0.0494
  101HK4     H5 8438   1.081   2.727   9.845 -3.2774  0.4615  2.2010
  101HK4    C13 8439   1.117   2.515   9.826 -0.3740 -0.1468  0.1553
  101HK4     H6 8440   1.146   2.490   9.929  1.6036 -2.2180 -0.8546
  101HK4     C7 8441   0.834   2.522   9.511  0.1719 -0.1524 -0.2999
  101HK4     O2 8442   0.784   2.626   9.471 -0.2638 -0.2444 -0.0038
  101HK4     C4 8443   0.775   2.391   9.476 -0.2964  0.0988 -0.4485
  101HK4     C3 8444   0.661   2.392   9.396 -0.5102  0.0171 -0.1449
  101HK4     H3 8445   0.627   2.485   9.349  0.1250  1.2435  1.7579
  101HK4     C2 8446   0.599   2.272   9.364 -0.3427 -0.1835  0.2798
  101HK4     H2 8447   0.531   2.265   9.278  0.3623 -2.3589 -0.1559
  101HK4     C1 8448   0.642   2.156   9.428  0.2238 -0.3352 -0.3651
  101HK4     H1 8449   0.575   2.070   9.418  1.4956 -1.5106  0.9993
  101HK4     C6 8450   0.755   2.149   9.512  0.3378  0.4191 -0.4514
  101HK4     C5 8451   0.826   2.269   9.525  0.3085  0.4182 -0.2771
  101HK4    C10 8452   0.958   2.277   9.593  0.2790  0.0383 -0.1750
  101HK4     O1 8453   1.028   2.177   9.581 -0.5917 -0.6365  0.3230
  101HK4    C16 8454   0.764   2.030   9.598 -0.6334  0.4324 -0.3225
  101HK4    C15 8455   0.706   1.911   9.551 -0.6234  0.3008 -0.0042
  101HK4     H7 8456   0.724   1.887   9.445 -1.4056  0.0924 -0.0888
  101HK4    C20 8457   0.647   1.808   9.624 -0.1739 -0.0602 -0.1468
  101HK4     H9 8458   0.607   1.716   9.581  1.0511 -0.9093  0.5035
  101HK4    C19 8459   0.655   1.815   9.762 -0.2435  0.3554 -0.1597
  101HK4    C18 8460   0.721   1.929   9.822 -0.0598  0.2526 -0.1675
  101HK4    C17 8461   0.766   2.030   9.737  0.2950 -0.0410 -0.3295
  101HK4     H8 8462   0.811   2.115   9.789 -0.4342  0.8077 -1.0712
  101HK4     N1 8463   0.729   1.915   9.962 -0.1551  0.1120 -0.1771
  101HK4    C21 8464   0.659   1.795   9.989 -0.1446  0.1379 -0.0321
  101HK4    C22 8465   0.609   1.729   9.870  0.5641 -0.1263 -0.1914
  101HK4    C26 8466   0.509   1.634   9.884  0.4015 -0.0020 -0.4909
  101HK4    H13 8467   0.429   1.625   9.811 -1.0882 -1.2953  1.2454
  101HK4    C25 8468   0.460   1.606  10.011  0.1696  0.1427 -0.5486
  101HK4    H12 8469   0.365   1.552  10.020  0.2516  0.2036  0.7582
  101HK4    C24 8470   0.518   1.657  10.126 -0.8232  0.3511 -0.1314
  101HK4    H11 8471   0.484   1.623  10.225  0.9174  0.9825  0.7088
  101HK4    C23 8472   0.621   1.750  10.114 -0.5469  0.0419 -0.1887
  101HK4    H10 8473   0.676   1.789  10.200  0.2581 -1.2616 -0.1086
  101HK4    C39 8474   0.835   1.969  10.035  0.0621 -0.3939 -0.1166
  101HK4    C41 8475   0.962   1.982   9.975  0.3160 -0.3929  0.4183
  101HK4    H21 8476   0.978   1.918   9.887  0.7529 -0.2948  0.4237
  101HK4    C42 8477   1.067   2.057  10.027  0.1881  0.2106 -0.1898
  101HK4    H22 8478   1.167   2.064   9.980  0.3038 -3.2144 -0.5601
  101HK4    C43 8479   1.045   2.130  10.143  0.0123 -0.0092 -0.0818
  101HK4    H23 8480   1.115   2.208  10.172 -0.3304  0.4049 -0.3645
  101HK4    C44 8481   0.919   2.126  10.202 -0.1843  0.5560 -0.4655
  101HK4    H24 8482   0.896   2.187  10.290 -1.2416 -2.9229  1.7763
  101HK4    C45 8483   0.816   2.048  10.151  0.2531 -0.1730 -0.2348
  101HK4    H25 8484   0.719   2.054  10.202  1.2850 -0.4188  1.7984
  102HK4    H28 8485  10.068  11.044  10.773  2.7482  0.4645 -2.3383
  102HK4    C48 8486  10.109  10.952  10.813 -0.1607  0.0742 -0.0742
  102HK4    C47 8487  10.051  10.830  10.779 -0.2588  0.0745  0.0967
  102HK4    H27 8488   9.975  10.835  10.700 -3.6071  2.6846  3.2465
  102HK4    C46 8489  10.084  10.716  10.852 -0.4004 -0.4843 -0.7000
  102HK4    H26 8490  10.024  10.625  10.837  0.6832 -1.4648  0.7876
  102HK4    C40 8491  10.172  10.719  10.962 -0.4639 -0.1420 -0.6574
  102HK4    C50 8492  10.230  10.845  10.987  0.1413 -0.2974 -1.2883
  102HK4    H30 8493  10.312  10.856  11.060 -0.8765  0.4224 -0.2537
  102HK4    C49 8494  10.202  10.961  10.916  0.2167  0.2488 -0.4292
  102HK4    H29 8495  10.239  11.058  10.952 -0.1305  0.0591  0.4587
  102HK4     N2 8496  10.197  10.605  11.041 -0.5337  0.1663 -0.1886
  102HK4    C30 8497  10.155  10.477  11.001 -0.6188  0.2087 -0.2379
  102HK4    C29 8498  10.180  10.409  10.882 -0.0114  0.3909 -0.2103
  102HK4    H15 8499  10.246  10.457  10.809 -1.7321  0.8174 -1.5111
  102HK4    C28 8500  10.154  10.274  10.866  0.3166  0.2656  0.2925
  102HK4    C27 8501  10.088  10.208  10.972  0.2724 -0.2227 -0.0429
  102HK4    H14 8502  10.059  10.102  10.962  1.5818 -0.7768  1.7486
  102HK4    C32 8503  10.062  10.268  11.094 -0.5048  0.0336 -0.3283
  102HK4    H16 8504  10.037  10.213  11.185 -0.6598  0.5196 -0.0740
  102HK4    C31 8505  10.091  10.403  11.109  0.8162 -0.3104  0.2687
  102HK4    C34 8506  10.107  10.491  11.223  0.4872 -0.0127  0.0802
  102HK4    C33 8507  10.183  10.607  11.181  0.2208  0.0951 -0.1131
  102HK4    C35 8508  10.266  10.674   0.023  0.0877  0.4959 -0.2843
  102HK4    H17 8509  10.345  10.739  11.232 -1.2012  1.8932 -0.6197
  102HK4    C36 8510  10.274  10.639   0.157 -0.5411 -0.3285 -0.4560
  102HK4    H18 8511  10.311  10.712   0.230  2.5976 -3.4582  1.2485
  102HK4    C37 8512  10.200  10.528   0.195 -0.0685 -0.3822  0.3222
  102HK4    H19 8513  10.221  10.482   0.291  1.5202 -0.1973  0.0819
  102HK4    C38 8514  10.117  10.457   0.109 -0.3002  0.0810  0.1662
  102HK4    H20 8515  10.063  10.366   0.135  0.2187 -0.8689 -2.0070
  102HK4    C14 8516  10.179  10.206  10.738  0.1217  0.1160  0.3348
  102HK4     C9 8517  10.104  10.103  10.679  0.0194  0.0893  0.5124
  102HK4     C8 8518  10.164  10.009  10.593 -0.3316  0.1004  0.2584
  102HK4    C11 8519  10.288  10.041  10.539  0.0853  0.1279  1.2146
  102HK4     H4 8520  10.307  10.006  10.436 -1.2711 -0.0815  1.0159
  102HK4    C12 8521  10.366  10.142  10.592  0.6246  0.2637  0.1597
  102HK4     H5 8522  10.467  10.164  10.553  0.6248 -1.4877 -0.8646
  102HK4    C13 8523  10.310  10.224  10.689  0.2458 -0.3658  0.4760
  102HK4     H6 8524  10.382  10.295  10.731  0.2960 -0.6660  0.8960
  102HK4     C7 8525  10.102   9.878  10.560 -0.4824  0.3153 -0.3318
  102HK4     O2 8526  10.171   9.795  10.502  0.1310  0.0190  0.8056
  102HK4     C4 8527   9.964   9.859  10.611 -0.3127 -0.5912 -0.2035
  102HK4     C3 8528   9.907   9.737  10.580  0.3425 -0.9245 -0.1184
  102HK4     H3 8529   9.920   9.685  10.484  1.8775 -1.7546  0.5337
  102HK4     C2 8530   9.791   9.697  10.647 -0.0387  0.1848 -0.1011
  102HK4     H2 8531   9.738   9.608  10.611 -2.7999  1.4736  0.6578
  102HK4     C1 8532   9.746   9.772  10.755 -0.2067  0.3604 -0.2943
  102HK4     H1 8533   9.669   9.730  10.821  0.4437  2.0004  1.5373
  102HK4     C6 8534   9.799   9.900  10.783  0.5812 -0.0517  0.1216
  102HK4     C5 8535   9.905   9.946  10.705  0.9913 -0.4028  0.4651
  102HK4    C10 8536   9.964  10.082  10.724  0.0045  0.0354  0.4403
  102HK4     O1 8537   9.884  10.174  10.737  0.1820  0.2091  0.3109
  102HK4    C16 8538   9.789   9.931  10.927 -0.0725  0.0264  0.0619
  102HK4    C15 8539   9.818   9.852  11.040  0.2863 -0.1703 -0.1671
  102HK4     H7 8540   9.794   9.744  11.036 -0.9632 -0.0576  3.0399
  102HK4    C20 8541   9.807   9.898  11.170 -0.0699  0.3970 -0.3947
  102HK4     H9 8542   9.844   9.843   0.008  1.9553  0.0477 -1.4636
  102HK4    C19 8543   9.755  10.026  11.193 -0.1395  0.3115 -0.0589
  102HK4    C18 8544   9.702  10.104  11.083  0.0520 -0.0763 -0.4323
  102HK4    C17 8545   9.721  10.048  10.958 -1.3231 -0.5555 -0.4406
  102HK4     H8 8546   9.683  10.104  10.873  0.1690  0.3061 -0.5652
  102HK4     N1 8547   9.673  10.234  11.131  0.3854 -0.0730 -0.2347
  102HK4    C21 8548   9.722  10.247   0.014 -0.3731 -0.0358  0.0441
  102HK4    C22 8549   9.771  10.117   0.056 -0.2620  0.0451  0.1741
  102HK4    C26 8550   9.838  10.109   0.178  0.4990  0.0517 -0.2419
  102HK4    H13 8551   9.855  10.014   0.228  0.7267 -0.0597 -0.5223
  102HK4    C25 8552   9.868  10.221   0.254  0.2211  0.2322 -0.4034
  102HK4    H12 8553   9.935  10.212   0.339 -1.8315 -0.5063  1.1688
  102HK4    C24 8554   9.819  10.344   0.211  0.0181  0.0321 -0.7635
  102HK4    H11 8555   9.840  10.439   0.264 -0.1635  0.7946 -2.0362
  102HK4    C23 8556   9.750  10.359   0.092 -0.3264  0.3458 -0.5263
  102HK4    H10 8557   9.730  10.455   0.045 -0.2769 -0.0184 -1.3172
  102HK4    C39 8558   9.631  10.341  11.050  0.0385  0.1151  0.1840
  102HK4    C41 8559   9.544  10.436  11.107 -0.7058 -0.4609  0.0191
  102HK4    H21 8560   9.495  10.422  11.205 -1.0818 -1.0815 -0.2554
  102HK4    C42 8561   9.522  10.562  11.052 -0.3276 -0.4329 -0.0627
  102HK4    H22 8562   9.446  10.629  11.095 -0.9502 -1.7072  0.8928
  102HK4    C43 8563   9.588  10.597  10.935  0.3738 -0.0577  0.4397
  102HK4    H23 8564   9.568  10.692  10.884  0.0590 -0.8077 -0.8457
  102HK4    C44 8565   9.682  10.511  10.880 -0.0828 -0.2094 -0.1087
  102HK4    H24 8566   9.739  10.544  10.792 -0.9959 -1.1230 -1.0640
  102HK4    C45 8567   9.705  10.388  10.939  0.7341  0.3406  0.7429
  102HK4    H25 8568   9.800  10.340  10.911 -0.3927 -1.7340  0.3229
  103HK4    H28 8569   9.117   2.261   8.415 -0.5047  0.7527  2.6094
  103HK4    C48 8570   9.045   2.332   8.374  0.2077 -0.0715 -0.1460
  103HK4    C47 8571   9.017   2.342   8.238 -0.5415  0.2647  0.0299
  103HK4    H27 8572   9.096   2.313   8.167  0.6510  2.7672  0.2680
  103HK4    C46 8573   8.913   2.419   8.187 -0.8401 -0.2076 -0.0663
  103HK4    H26 8574   8.893   2.422   8.079 -2.0773  2.3763  0.2155
  103HK4    C40 8575   8.836   2.498   8.275  0.0335  0.4493  0.1111
  103HK4    C50 8576   8.865   2.480   8.412 -0.2022 -0.1990  0.0832
  103HK4    H30 8577   8.802   2.535   8.483  2.0466 -2.3263  3.8526
  103HK4    C49 8578   8.967   2.402   8.465  0.6927  0.6845 -0.3065
  103HK4    H29 8579   9.010   2.413   8.565  2.1634  2.6441 -1.1322
  103HK4     N2 8580   8.769   2.611   8.228  0.1686  0.3390 -0.3518
  103HK4    C30 8581   8.648   2.661   8.281  0.2168 -0.1247  0.2003
  103HK4    C29 8582   8.548   2.597   8.353 -0.2198 -0.1161 -0.3990
  103HK4    H15 8583   8.572   2.494   8.381 -2.4890 -0.7938 -0.8271
  103HK4    C28 8584   8.430   2.656   8.396  0.2770  0.3324  0.3523
  103HK4    C27 8585   8.418   2.793   8.363  0.8060  0.5009  0.8409
  103HK4    H14 8586   8.331   2.856   8.387  0.1371 -0.3211  0.5973
  103HK4    C32 8587   8.515   2.865   8.293  0.3294  0.6378  0.3190
  103HK4    H16 8588   8.503   2.969   8.264 -0.4287  0.2938 -0.6310
  103HK4    C31 8589   8.627   2.799   8.244  0.2399  0.0593  0.8725
  103HK4    C34 8590   8.739   2.832   8.158 -0.3805  0.0245  0.0386
  103HK4    C33 8591   8.819   2.713   8.144  0.5914  0.6447  0.2682
  103HK4    C35 8592   8.929   2.716   8.059  0.6734  0.2471  0.3533
  103HK4    H17 8593   8.945   2.617   8.015  0.5058 -0.7197  2.4208
  103HK4    C36 8594   8.970   2.836   8.003  0.4217  0.3765  0.4504
  103HK4    H18 8595   9.052   2.845   7.930 -1.6991 -0.8049 -2.1818
  103HK4    C37 8596   8.895   2.950   8.031 -0.3879  0.1157 -0.6342
  103HK4    H19 8597   8.901   3.032   7.959 -0.0253  0.1955 -0.5120
  103HK4    C38 8598   8.780   2.956   8.108  0.0152 -0.1283 -0.0178
  103HK4    H20 8599   8.734   3.050   8.138  1.0268  0.5875 -0.7053
  103HK4    C14 8600   8.353   2.602   8.509 -0.3722  0.0845 -0.2098
  103HK4     C9 8601   8.299   2.473   8.517 -0.0055 -0.0630 -0.1063
  103HK4     C8 8602   8.276   2.413   8.642 -0.0932  0.1327 -0.0305
  103HK4    C11 8603   8.306   2.486   8.757  0.2757  0.0420 -0.0702
  103HK4     H4 8604   8.289   2.441   8.856  0.3926  0.4154  0.1223
  103HK4    C12 8605   8.353   2.617   8.750  0.1762  0.0613 -0.4306
  103HK4     H5 8606   8.356   2.675   8.843  0.9302  0.0800 -0.4616
  103HK4    C13 8607   8.374   2.677   8.627  0.0381  0.2280 -0.3743
  103HK4     H6 8608   8.419   2.777   8.621  1.3065 -0.2995  0.1023
  103HK4     C7 8609   8.197   2.289   8.651  0.1787 -0.0680 -0.3896
  103HK4     O2 8610   8.173   2.239   8.761  0.1898  0.0936 -0.3160
  103HK4     C4 8611   8.145   2.218   8.532 -0.4570  0.2962 -0.3306
  103HK4     C3 8612   8.043   2.125   8.545 -0.0393 -0.1392 -0.1356
  103HK4     H3 8613   7.995   2.093   8.639  1.5790 -1.0614  0.3863
  103HK4     C2 8614   7.991   2.069   8.429  0.1235 -0.5377 -0.0184
  103HK4     H2 8615   7.891   2.025   8.435 -0.7100  1.1257 -1.3752
  103HK4     C1 8616   8.049   2.095   8.305 -0.2505  0.4377  0.0086
  103HK4     H1 8617   8.025   2.021   8.226 -1.0116  0.0925  0.5513
  103HK4     C6 8618   8.159   2.182   8.295 -0.4391  0.6270 -0.4182
  103HK4     C5 8619   8.198   2.256   8.407  0.0143  0.0679 -0.2004
  103HK4    C10 8620   8.256   2.393   8.399 -0.2558  0.1837 -0.1830
  103HK4     O1 8621   8.255   2.453   8.291 -1.0716  0.2549 -0.1467
  103HK4    C16 8622   8.222   2.191   8.162  0.5479  0.6267  0.0408
  103HK4    C15 8623   8.150   2.150   8.048  0.0173  0.2262  0.5162
  103HK4     H7 8624   8.045   2.181   8.044  0.0076  0.0398 -2.8942
  103HK4    C20 8625   8.206   2.087   7.936 -0.1621  0.2322  0.4245
  103HK4     H9 8626   8.136   2.047   7.863  0.6933 -1.0032  0.2849
  103HK4    C19 8627   8.341   2.057   7.940 -0.1353  0.2658 -0.1637
  103HK4    C18 8628   8.422   2.115   8.046 -0.2827  0.2496 -0.0435
  103HK4    C17 8629   8.360   2.184   8.150  0.5650  0.5192  0.2824
  103HK4     H8 8630   8.417   2.237   8.227 -0.4805  1.9987  0.0579
  103HK4     N1 8631   8.547   2.051   8.054 -0.5375 -0.1557  0.7395
  103HK4    C21 8632   8.531   1.935   7.977 -0.0975  0.2625  0.0137
  103HK4    C22 8633   8.418   1.946   7.887 -0.1554  0.1417  0.0707
  103HK4    C26 8634   8.396   1.854   7.785 -0.1620  0.0504  0.1546
  103HK4    H13 8635   8.321   1.862   7.706  0.5824 -0.4264 -0.6011
  103HK4    C25 8636   8.482   1.746   7.771  0.0529  0.2355  0.0710
  103HK4    H12 8637   8.464   1.670   7.696 -2.6899  1.6517 -0.7500
  103HK4    C24 8638   8.597   1.737   7.849  0.2538  0.0979 -0.2421
  103HK4    H11 8639   8.666   1.653   7.833 -0.7382 -1.4935  3.3556
  103HK4    C23 8640   8.619   1.831   7.949 -0.1149  0.3589 -0.4036
  103HK4    H10 8641   8.697   1.807   8.022 -0.4243  0.5653 -0.0005
  103HK4    C39 8642   8.666   2.124   8.066 -0.3699 -0.4291  0.7344
  103HK4    C41 8643   8.786   2.061   8.107  0.1600  0.3165  0.3215
  103HK4    H21 8644   8.775   1.981   8.181  2.7904  0.5208  0.9761
  103HK4    C42 8645   8.906   2.078   8.038  0.0728 -0.1159  0.0663
  103HK4    H22 8646   8.989   2.006   8.047  0.4553  0.3930  0.5636
  103HK4    C43 8647   8.913   2.163   7.928 -0.6610 -0.2054 -0.0562
  103HK4    H23 8648   9.006   2.172   7.872 -0.7604 -0.3290 -0.2374
  103HK4    C44 8649   8.804   2.245   7.900 -0.4554  0.0372 -0.1578
  103HK4    H24 8650   8.814   2.307   7.810  1.6361  0.9542  0.6581
  103HK4    C45 8651   8.687   2.227   7.972 -0.1120 -1.0202  0.1385
  103HK4    H25 8652   8.625   2.314   7.998 -0.4200 -1.2823  0.2965
  104HK4    H28 8653   0.014   8.826   4.449  0.7349 -0.3803  0.2249
  104HK4    C48 8654   0.018   8.752   4.369  0.2036 -0.0446 -0.1175
  104HK4    C47 8655  11.242   8.621   4.411 -0.0048 -0.1539 -0.5785
  104HK4    H27 8656   0.016   8.581   4.511  1.6362  0.2824 -0.7439
  104HK4    C46 8657  11.211   8.526   4.314  0.2338 -0.3720 -0.4400
  104HK4    H26 8658  11.175   8.426   4.342 -1.2297  0.1813 -0.2579
  104HK4    C40 8659  11.209   8.560   4.177  0.5366  0.0222 -0.3467
  104HK4    C50 8660  11.235   8.694   4.140 -0.0192  0.1860 -0.1551
  104HK4    H30 8661  11.228   8.728   4.036 -0.1927  0.4853 -0.0463
  104HK4    C49 8662   0.010   8.792   4.236  0.5628  0.0154 -0.1202
  104HK4    H29 8663   0.005   8.899   4.212 -1.9209  0.2105  1.1609
  104HK4     N2 8664  11.212   8.469   4.071 -0.2189 -0.1073 -0.2634
  104HK4    C30 8665   0.013   8.338   4.088  0.2904  0.1432  0.2476
  104HK4    C29 8666   0.106   8.284   4.176  0.6199  0.6530  0.2140
  104HK4    H15 8667   0.174   8.344   4.236  0.6556  1.4199 -0.5932
  104HK4    C28 8668   0.128   8.147   4.179 -0.0577  0.5371 -0.2363
  104HK4    C27 8669   0.064   8.065   4.083  0.0368 -0.0322  0.1808
  104HK4    H14 8670   0.092   7.960   4.067 -1.0802 -0.4511  0.9063
  104HK4    C32 8671  11.220   8.117   3.991  0.3697 -0.1475 -0.2196
  104HK4    H16 8672  11.181   8.048   3.917  0.8921  0.0761 -0.7033
  104HK4    C31 8673  11.188   8.252   3.997  0.4086 -0.1636  0.4431
  104HK4    C34 8674  11.088   8.331   3.927  0.7620 -0.1270 -0.0189
  104HK4    C33 8675  11.112   8.467   3.972 -0.1088  0.1496 -0.3801
  104HK4    C35 8676  11.059   8.568   3.893 -0.5268  0.1857 -0.0556
  104HK4    H17 8677  11.107   8.666   3.891  1.9875 -1.0071 -0.6350
  104HK4    C36 8678  10.970   8.536   3.791 -0.4061 -0.4891  0.0471
  104HK4    H18 8679  10.897   8.610   3.755  0.8088  0.1543 -1.1783
  104HK4    C37 8680  10.947   8.407   3.744  0.5540 -0.3780 -0.7568
  104HK4    H19 8681  10.874   8.395   3.664 -1.0329 -0.4294  0.6725
  104HK4    C38 8682  11.009   8.305   3.816 -0.7412  0.0433  0.9909
  104HK4    H20 8683  11.019   8.202   3.784 -0.0522 -1.0067  4.3623
  104HK4    C14 8684   0.253   8.102   4.240 -0.3933 -0.3877 -0.2139
  104HK4     C9 8685   0.327   7.993   4.192  0.3129 -0.0918  0.1975
  104HK4     C8 8686   0.394   7.908   4.283  0.5015  0.3006  0.4267
  104HK4    C11 8687   0.404   7.944   4.417 -0.0748 -0.1050  0.5823
  104HK4     H4 8688   0.442   7.877   4.496 -0.8354  0.3159  1.3200
  104HK4    C12 8689   0.346   8.063   4.460  0.1549  0.3297 -0.2886
  104HK4     H5 8690   0.359   8.090   4.566  0.8401 -3.4117  0.6419
  104HK4    C13 8691   0.273   8.143   4.373 -0.5314 -0.2355 -0.2414
  104HK4     H6 8692   0.223   8.231   4.419 -0.0884 -0.7913  1.3445
  104HK4     C7 8693   0.476   7.792   4.243  0.2557  0.1535  0.3500
  104HK4     O2 8694   0.499   7.700   4.320  0.0147 -0.5792 -0.4452
  104HK4     C4 8695   0.502   7.774   4.098 -0.5061  0.4050  0.1783
  104HK4     C3 8696   0.589   7.676   4.053 -0.2803  0.4660  0.4749
  104HK4     H3 8697   0.660   7.627   4.122 -1.9399 -1.2841  0.9914
  104HK4     C2 8698   0.610   7.656   3.917 -0.1947  0.1355  0.5363
  104HK4     H2 8699   0.666   7.567   3.884  1.6488  2.5060 -3.0000
  104HK4     C1 8700   0.534   7.726   3.824  0.1918  0.3678  0.3925
  104HK4     H1 8701   0.552   7.692   3.721 -1.8374 -2.3494  0.8824
  104HK4     C6 8702   0.429   7.810   3.868  0.2754  0.9184 -0.4644
  104HK4     C5 8703   0.423   7.842   4.004 -0.9021 -0.5278 -0.1659
  104HK4    C10 8704   0.348   7.963   4.048  0.7166  0.3867  0.1506
  104HK4     O1 8705   0.350   8.065   3.979  0.2366  0.5375  0.3538
  104HK4    C16 8706   0.327   7.842   3.767 -0.4076  0.6875  0.1497
  104HK4    C15 8707   0.193   7.867   3.803 -0.5276  0.2996 -0.0303
  104HK4     H7 8708   0.162   7.856   3.908 -0.2242  1.2985  0.1742
  104HK4    C20 8709   0.092   7.887   3.710 -0.0551 -0.4941 -0.7272
  104HK4     H9 8710  11.235   7.894   3.740  0.4566 -1.3328  1.3624
  104HK4    C19 8711   0.119   7.880   3.574 -0.1328 -0.7959 -0.7271
  104HK4    C18 8712   0.258   7.875   3.534  0.2366 -0.2985  0.4882
  104HK4    C17 8713   0.356   7.861   3.632  0.5185 -0.2421  0.2143
  104HK4     H8 8714   0.459   7.850   3.597  0.5567  2.4375 -0.6327
  104HK4     N1 8715   0.269   7.862   3.394  0.2922  0.5487  0.4138
  104HK4    C21 8716   0.138   7.832   3.353  0.5168  0.3225 -0.1394
  104HK4    C22 8717   0.038   7.858   3.455 -0.2523 -0.0855 -0.7800
  104HK4    C26 8718  11.153   7.821   3.445 -0.4011  0.1500  0.2792
  104HK4    H13 8719  11.077   7.860   3.513  0.0733 -0.4545  1.1598
  104HK4    C25 8720  11.112   7.740   3.340 -0.3549  0.3468  0.1112
  104HK4    H12 8721  11.007   7.711   3.338 -0.3230  0.0866  1.7563
  104HK4    C24 8722  11.202   7.722   3.236  0.1470  0.1319  0.5815
  104HK4    H11 8723  11.167   7.679   3.141 -2.2168  2.2703  0.4358
  104HK4    C23 8724   0.085   7.771   3.240  0.4531 -0.6703  0.4219
  104HK4    H10 8725   0.140   7.752   3.148  2.2735 -0.4675  1.4512
  104HK4    C39 8726   0.371   7.897   3.305  0.0999 -0.0769 -0.0525
  104HK4    C41 8727   0.379   7.855   3.170 -0.3757 -0.3762  0.0124
  104HK4    H21 8728   0.355   7.751   3.145 -1.1552 -0.1743 -0.1086
  104HK4    C42 8729   0.430   7.935   3.069 -0.8165  0.2013  0.2450
  104HK4    H22 8730   0.439   7.903   2.964  0.4804  0.3624  0.2964
  104HK4    C43 8731   0.497   8.052   3.105  0.5538 -0.3176 -0.5834
  104HK4    H23 8732   0.565   8.099   3.034  1.4028  0.8754  1.0022
  104HK4    C44 8733   0.507   8.089   3.239  0.2629 -0.3193 -0.5597
  104HK4    H24 8734   0.575   8.169   3.271  3.4832 -3.5778  1.1818
  104HK4    C45 8735   0.447   8.012   3.337  0.2243 -0.0644 -0.3843
  104HK4    H25 8736   0.451   8.055   3.438 -2.8485  0.0724 -0.2669
  105HK4    H28 8737   0.308   3.152   2.901 -0.7179  0.5607 -0.6675
  105HK4    C48 8738   0.310   3.043   2.902 -0.0167  0.5721 -0.0735
  105HK4    C47 8739   0.431   2.987   2.944 -0.2232  0.6076  0.5609
  105HK4    H27 8740   0.514   3.058   2.939 -0.6013  0.8590 -3.3198
  105HK4    C46 8741   0.427   2.860   3.001 -0.0847  0.1444 -0.4596
  105HK4    H26 8742   0.521   2.806   3.020 -1.2371 -0.8499  2.6610
  105HK4    C40 8743   0.311   2.783   3.022  0.1257 -0.1355 -0.3325
  105HK4    C50 8744   0.195   2.840   2.966  0.0137 -0.1898 -0.1548
  105HK4    H30 8745   0.115   2.771   2.936  0.5192 -0.6121 -0.5420
  105HK4    C49 8746   0.195   2.966   2.908  0.5461 -0.3104 -0.4205
  105HK4    H29 8747   0.099   3.007   2.874  0.3545  0.2396  0.7654
  105HK4     N2 8748   0.305   2.681   3.118 -0.4000  0.1584 -0.0531
  105HK4    C30 8749   0.371   2.669   3.242 -0.7638  0.6779  0.1955
  105HK4    C29 8750   0.434   2.768   3.317 -0.3092  0.2619  0.3714
  105HK4    H15 8751   0.459   2.860   3.264 -0.9011 -0.3484 -1.0202
  105HK4    C28 8752   0.451   2.758   3.454  0.3053  0.0747  0.2830
  105HK4    C27 8753   0.417   2.638   3.520  0.0650  0.0630  0.1387
  105HK4    H14 8754   0.408   2.650   3.629 -1.7112 -0.4087  0.0609
  105HK4    C32 8755   0.364   2.532   3.448  0.2604  0.1792 -0.1757
  105HK4    H16 8756   0.370   2.429   3.483  2.8134 -0.3155 -1.8932
  105HK4    C31 8757   0.342   2.545   3.311  1.0733 -0.0797 -0.3387
  105HK4    C34 8758   0.244   2.483   3.223  0.5924  0.1254  0.0442
  105HK4    C33 8759   0.228   2.564   3.104 -0.5202  0.1998  0.2419
  105HK4    C35 8760   0.161   2.511   2.994  0.4240 -0.3059 -0.0942
  105HK4    H17 8761   0.145   2.576   2.908 -0.3195  1.0509  1.0623
  105HK4    C36 8762   0.110   2.381   2.994  0.2925 -0.2544 -0.4071
  105HK4    H18 8763   0.077   2.335   2.900  0.7196 -2.2717  0.4217
  105HK4    C37 8764   0.136   2.300   3.104  0.9962 -0.2476 -0.5673
  105HK4    H19 8765   0.129   2.194   3.083 -1.6880  0.2605 -2.4462
  105HK4    C38 8766   0.197   2.353   3.217 -0.3506  0.4730 -0.1654
  105HK4    H20 8767   0.225   2.293   3.304  0.5572  0.1367 -0.6808
  105HK4    C14 8768   0.538   2.849   3.530  0.7329  0.5295 -0.7359
  105HK4     C9 8769   0.612   2.815   3.645 -0.0748  0.2243 -0.3045
  105HK4     C8 8770   0.637   2.906   3.749 -0.6693  0.2304 -0.1646
  105HK4    C11 8771   0.604   3.040   3.728 -0.6337  0.3741  0.6796
  105HK4     H4 8772   0.639   3.121   3.795 -0.5000  1.4315 -0.6516
  105HK4    C12 8773   0.546   3.083   3.610  0.1906  0.0922  0.1674
  105HK4     H5 8774   0.531   3.192   3.604 -3.0200 -0.2830  0.4110
  105HK4    C13 8775   0.507   2.986   3.518 -0.1773  0.3901  0.0066
  105HK4     H6 8776   0.468   3.014   3.420  0.0295  0.4089 -0.0713
  105HK4     C7 8777   0.694   2.865   3.879 -0.1729  0.4129 -0.3222
  105HK4     O2 8778   0.734   2.948   3.961 -0.3508 -0.3560  0.5574
  105HK4     C4 8779   0.702   2.721   3.912  0.0608  0.3482 -0.6681
  105HK4     C3 8780   0.738   2.679   4.039 -0.5338  0.1579 -0.5597
  105HK4     H3 8781   0.740   2.746   4.126 -0.8383  0.0208 -0.4480
  105HK4     C2 8782   0.750   2.543   4.068  0.0541  0.3795  0.2751
  105HK4     H2 8783   0.794   2.508   4.162  2.7353 -1.8656 -1.7372
  105HK4     C1 8784   0.709   2.453   3.970  0.6636  0.2882  0.1017
  105HK4     H1 8785   0.712   2.345   3.990 -0.0364  0.6670  2.4846
  105HK4     C6 8786   0.676   2.492   3.839 -0.1026 -0.1647  0.1588
  105HK4     C5 8787   0.688   2.628   3.807  0.1078 -0.2551 -0.1433
  105HK4    C10 8788   0.663   2.677   3.668 -0.0360  0.3045  0.0824
  105HK4     O1 8789   0.731   2.630   3.578 -0.4683 -0.0626 -0.0546
  105HK4    C16 8790   0.589   2.397   3.768 -0.6352  0.5424 -0.1460
  105HK4    C15 8791   0.493   2.314   3.829  0.4883 -0.4640  0.2736
  105HK4     H7 8792   0.479   2.335   3.936  0.6922 -3.2380  0.8795
  105HK4    C20 8793   0.436   2.193   3.789 -0.3827  0.1488 -0.3566
  105HK4     H9 8794   0.381   2.127   3.856  1.1934 -1.4193 -0.5921
  105HK4    C19 8795   0.489   2.144   3.670  0.5531 -0.2810  0.2274
  105HK4    C18 8796   0.584   2.224   3.596 -0.0387  0.1224 -0.1059
  105HK4    C17 8797   0.636   2.342   3.649  0.3721 -0.3990  0.6735
  105HK4     H8 8798   0.731   2.366   3.602  0.0108 -0.5070 -0.1225
  105HK4     N1 8799   0.618   2.159   3.476  0.3562 -0.1187  0.1335
  105HK4    C21 8800   0.540   2.042   3.472  0.0071  0.1071  0.2946
  105HK4    C22 8801   0.452   2.031   3.586 -0.0352 -0.1040  0.2434
  105HK4    C26 8802   0.360   1.927   3.597 -0.4151  0.1621 -0.4322
  105HK4    H13 8803   0.303   1.918   3.689 -0.0053  0.0917 -0.1827
  105HK4    C25 8804   0.350   1.840   3.489 -0.5669  0.4579 -0.6590
  105HK4    H12 8805   0.280   1.757   3.500  0.3353 -0.3569 -0.9477
  105HK4    C24 8806   0.434   1.848   3.378 -0.0979  0.3686 -0.3161
  105HK4    H11 8807   0.411   1.782   3.293  2.1577 -0.9082  0.0349
  105HK4    C23 8808   0.530   1.948   3.369 -0.0335  0.3423  0.0832
  105HK4    H10 8809   0.588   1.966   3.278 -0.3027  2.1032  0.2404
  105HK4    C39 8810   0.721   2.203   3.392  0.2568 -0.2596 -0.0618
  105HK4    C41 8811   0.815   2.111   3.340  0.3347 -0.1882 -0.0467
  105HK4    H21 8812   0.825   2.016   3.394  2.8482 -0.1338 -0.3334
  105HK4    C42 8813   0.914   2.135   3.246  0.3583  0.2457  0.0876
  105HK4    H22 8814   0.965   2.052   3.195  1.8517  0.3417  1.3887
  105HK4    C43 8815   0.924   2.267   3.202  0.5212  0.2498  0.1378
  105HK4    H23 8816   0.985   2.300   3.118 -1.9201  3.2299 -0.5639
  105HK4    C44 8817   0.833   2.360   3.250  0.3600 -0.0392  0.3980
  105HK4    H24 8818   0.834   2.464   3.215 -0.9911  0.4515  1.7270
  105HK4    C45 8819   0.730   2.334   3.339  0.3583 -0.0874  0.3818
  105HK4    H25 8820   0.665   2.413   3.379  0.2627 -0.1931  0.4349
  106HK4    H28 8821   6.330   3.133   1.823 -0.6869 -0.2484  0.6394
  106HK4    C48 8822   6.314   3.027   1.803 -0.0357 -0.1766 -0.3236
  106HK4    C47 8823   6.231   2.984   1.700 -0.0977  0.4118 -0.5246
  106HK4    H27 8824   6.163   3.051   1.646  1.4661 -0.3667 -3.6076
  106HK4    C46 8825   6.235   2.850   1.662 -0.1951  0.2349  0.0877
  106HK4    H26 8826   6.190   2.832   1.563  0.0629  2.4980 -0.4772
  106HK4    C40 8827   6.311   2.747   1.720 -0.4051 -0.0887 -0.2085
  106HK4    C50 8828   6.385   2.794   1.830  0.3637 -0.3030 -0.6258
  106HK4    H30 8829   6.444   2.728   1.896  1.6541  2.8477  1.5268
  106HK4    C49 8830   6.385   2.928   1.869 -0.2527 -0.3730 -0.3855
  106HK4    H29 8831   6.448   2.955   1.955  1.2567 -1.4250 -1.1492
  106HK4     N2 8832   6.285   2.610   1.702 -0.2085 -0.1623  0.0563
  106HK4    C30 8833   6.171   2.563   1.635 -0.5082  0.0979  0.3814
  106HK4    C29 8834   6.046   2.622   1.616 -0.5497 -0.0379  0.2369
  106HK4    H15 8835   6.017   2.706   1.679  0.8277  0.4244  0.2791
  106HK4    C28 8836   5.954   2.558   1.534 -0.1123 -0.2940 -0.0639
  106HK4    C27 8837   5.974   2.425   1.493  0.2068 -0.2493 -0.0545
  106HK4    H14 8838   5.903   2.376   1.425 -0.6612 -0.4661  1.0060
  106HK4    C32 8839   6.094   2.361   1.521  0.3078  0.0447  0.1874
  106HK4    H16 8840   6.101   2.253   1.506 -1.0894  0.2361 -2.1392
  106HK4    C31 8841   6.196   2.427   1.590  0.1074  0.2354  0.2978
  106HK4    C34 8842   6.328   2.390   1.635  0.1416 -0.2869 -0.2241
  106HK4    C33 8843   6.382   2.508   1.700 -0.2619 -0.2110 -0.0277
  106HK4    C35 8844   6.518   2.519   1.725 -0.2821 -0.0640  0.0226
  106HK4    H17 8845   6.562   2.610   1.765 -0.9975 -0.2645  1.2632
  106HK4    C36 8846   6.600   2.413   1.684  0.3224  0.3125  0.2468
  106HK4    H18 8847   6.709   2.419   1.683  0.3624 -0.3331  0.2322
  106HK4    C37 8848   6.551   2.307   1.609  0.4785  0.1452  0.3850
  106HK4    H19 8849   6.619   2.226   1.583 -1.1088 -0.4630 -2.0515
  106HK4    C38 8850   6.415   2.294   1.583  0.5411 -0.1456  0.1823
  106HK4    H20 8851   6.378   2.218   1.515  0.8201 -0.6584  0.6007
  106HK4    C14 8852   5.835   2.636   1.497 -0.0915  0.2116  0.9172
  106HK4     C9 8853   5.712   2.579   1.461  0.1343 -0.1667  0.7402
  106HK4     C8 8854   5.626   2.644   1.369  0.2255 -0.3835  0.4989
  106HK4    C11 8855   5.662   2.770   1.322 -0.1572 -0.4349  0.0638
  106HK4     H4 8856   5.596   2.825   1.254  1.7363  1.2536 -0.4433
  106HK4    C12 8857   5.782   2.828   1.360 -0.2298 -0.4072  0.2574
  106HK4     H5 8858   5.815   2.922   1.312 -3.4645 -0.7021 -2.7861
  106HK4    C13 8859   5.866   2.766   1.451  0.0761 -0.0791  0.2017
  106HK4     H6 8860   5.963   2.807   1.481 -0.1888  0.6329  0.0898
  106HK4     C7 8861   5.486   2.604   1.342  0.1178  0.2641  0.0945
  106HK4     O2 8862   5.428   2.619   1.234 -0.1217 -0.4837  0.1130
  106HK4     C4 8863   5.437   2.495   1.429  0.0927  0.4466  0.3089
  106HK4     C3 8864   5.299   2.473   1.429  0.1265  0.2361  0.1573
  106HK4     H3 8865   5.230   2.558   1.419 -0.9376 -0.7460 -1.1224
  106HK4     C2 8866   5.240   2.363   1.489  0.2611 -0.0440 -0.2136
  106HK4     H2 8867   5.134   2.338   1.469 -0.0549  0.6721  0.5072
  106HK4     C1 8868   5.316   2.279   1.570 -0.1466 -0.1232  0.0888
  106HK4     H1 8869   5.275   2.183   1.603 -0.7719 -0.1308 -0.7100
  106HK4     C6 8870   5.454   2.305   1.575 -0.1935  0.1100  0.2438
  106HK4     C5 8871   5.517   2.410   1.509 -0.1767  0.0508  0.1638
  106HK4    C10 8872   5.654   2.463   1.534  0.1807 -0.7394 -0.1261
  106HK4     O1 8873   5.697   2.439   1.646  0.8050  0.0904 -0.1853
  106HK4    C16 8874   5.530   2.194   1.636  0.1921  0.2397  0.0020
  106HK4    C15 8875   5.473   2.115   1.738  0.2347  0.1323 -0.0586
  106HK4     H7 8876   5.439   2.164   1.830  3.0352  2.3317 -0.1251
  106HK4    C20 8877   5.470   1.976   1.740  0.6550  0.1183 -0.2160
  106HK4     H9 8878   5.419   1.921   1.819 -3.5794  0.5756 -2.4726
  106HK4    C19 8879   5.534   1.910   1.636 -0.0404 -0.0587 -0.5355
  106HK4    C18 8880   5.614   1.986   1.542 -0.0814  0.3256 -0.2624
  106HK4    C17 8881   5.609   2.124   1.546 -0.1064  0.3275 -0.3313
  106HK4     H8 8882   5.682   2.183   1.490  1.6722 -0.0255  1.5296
  106HK4     N1 8883   5.661   1.898   1.442  0.1612  0.2270 -0.0598
  106HK4    C21 8884   5.605   1.772   1.469  0.1600  0.1325 -0.5047
  106HK4    C22 8885   5.519   1.775   1.585  0.5654 -0.2559 -0.1935
  106HK4    C26 8886   5.446   1.660   1.614  0.0713  0.1711  0.2593
  106HK4    H13 8887   5.373   1.666   1.695  0.7457  1.0243  0.8038
  106HK4    C25 8888   5.447   1.546   1.534 -1.3301  0.5649 -0.3337
  106HK4    H12 8889   5.387   1.459   1.558 -1.9794  0.8523 -0.8910
  106HK4    C24 8890   5.540   1.539   1.431 -0.4724  0.2578  0.4555
  106HK4    H11 8891   5.554   1.445   1.375  0.1715  1.1893 -0.9740
  106HK4    C23 8892   5.615   1.652   1.399  0.0377 -0.1950  0.0393
  106HK4    H10 8893   5.707   1.630   1.346 -0.1224 -0.2356 -0.2223
  106HK4    C39 8894   5.779   1.917   1.369  0.3248  0.2616  0.2116
  106HK4    C41 8895   5.809   1.832   1.260 -0.2473  1.2041 -0.6906
  106HK4    H21 8896   5.727   1.791   1.199 -0.6910  0.7676  0.1927
  106HK4    C42 8897   5.934   1.818   1.202 -0.2067 -0.3004 -0.2434
  106HK4    H22 8898   5.946   1.738   1.127 -2.8571  1.1321 -2.2704
  106HK4    C43 8899   6.035   1.895   1.259 -0.3392  0.2725 -0.7902
  106HK4    H23 8900   6.138   1.866   1.236 -0.6720 -0.6187 -1.1709
  106HK4    C44 8901   6.012   1.986   1.362  0.2044 -0.2629 -0.1933
  106HK4    H24 8902   6.099   2.029   1.413 -0.2558  0.9645 -0.4387
  106HK4    C45 8903   5.884   2.001   1.412  0.3911  0.2194  0.1350
  106HK4    H25 8904   5.860   2.093   1.468  2.3128  1.6284 -1.2815
  107HK4    H28 8905   6.244   6.610   1.939  0.1071 -1.4379 -3.0426
  107HK4    C48 8906   6.150   6.563   1.969  0.0192  0.3886 -0.3419
  107HK4    C47 8907   6.040   6.585   1.887  0.0015  0.1523 -0.3834
  107HK4    H27 8908   6.045   6.648   1.797 -3.7077  0.4681 -0.4297
  107HK4    C46 8909   5.929   6.504   1.906  0.2271 -0.1184 -0.2198
  107HK4    H26 8910   5.846   6.514   1.835 -0.4749  0.4327  0.6695
  107HK4    C40 8911   5.924   6.407   2.009  0.0273 -0.0245 -0.1414
  107HK4    C50 8912   6.036   6.391   2.093  0.2077  0.0287 -0.3722
  107HK4    H30 8913   6.032   6.324   2.180 -0.2724 -1.4011 -1.4814
  107HK4    C49 8914   6.150   6.469   2.072 -0.0116  0.3471 -0.3794
  107HK4    H29 8915   6.244   6.453   2.127 -0.0169  0.4898 -0.3298
  107HK4     N2 8916   5.804   6.353   2.057 -0.0113 -0.2554 -0.4921
  107HK4    C30 8917   5.678   6.413   2.040  0.0105 -0.0699  0.0094
  107HK4    C29 8918   5.639   6.546   2.027  0.5506  0.1536  0.6044
  107HK4    H15 8919   5.718   6.620   2.019  0.3269  0.3524  0.2257
  107HK4    C28 8920   5.510   6.590   2.056  0.3889 -0.0060  0.1488
  107HK4    C27 8921   5.411   6.497   2.094  0.2599 -0.1186 -0.4654
  107HK4    H14 8922   5.323   6.544   2.142 -0.3849 -0.7080 -1.0634
  107HK4    C32 8923   5.446   6.363   2.097 -0.3505 -0.2704  0.0657
  107HK4    H16 8924   5.377   6.290   2.141  0.1152 -1.4482 -1.1139
  107HK4    C31 8925   5.574   6.317   2.072  0.0508  0.2516  1.1369
  107HK4    C34 8926   5.647   6.195   2.103  0.2336  0.0274 -0.1249
  107HK4    C33 8927   5.790   6.217   2.093  0.2577 -0.2534 -0.3720
  107HK4    C35 8928   5.878   6.109   2.093  0.1881 -0.3087 -0.3344
  107HK4    H17 8929   5.984   6.132   2.097 -0.3546  2.1265  1.2971
  107HK4    C36 8930   5.836   5.977   2.102 -0.5192 -0.1214 -0.7879
  107HK4    H18 8931   5.907   5.893   2.097 -0.6595 -0.4050  1.3687
  107HK4    C37 8932   5.699   5.960   2.115 -0.5363  0.1541 -0.6225
  107HK4    H19 8933   5.659   5.859   2.121  0.5147 -0.3689 -2.0736
  107HK4    C38 8934   5.606   6.063   2.118 -0.3973  0.2619  0.2288
  107HK4    H20 8935   5.499   6.045   2.119 -0.7901  2.3538 -0.4225
  107HK4    C14 8936   5.484   6.734   2.067  0.3976 -0.0153  0.2957
  107HK4     C9 8937   5.390   6.788   2.156  0.1883 -0.1921  0.1810
  107HK4     C8 8938   5.306   6.894   2.115  0.1873 -0.2858 -0.0582
  107HK4    C11 8939   5.331   6.953   1.992  0.2094 -0.0667  0.0525
  107HK4     H4 8940   5.261   7.027   1.950 -0.9160 -1.4562 -0.5558
  107HK4    C12 8941   5.428   6.907   1.904  0.2967  0.3839 -0.0921
  107HK4     H5 8942   5.453   6.963   1.814 -1.3247  1.1670 -0.0628
  107HK4    C13 8943   5.506   6.798   1.943  0.1825  0.5261  0.5359
  107HK4     H6 8944   5.577   6.761   1.868 -2.0840  2.5662 -2.7126
  107HK4     C7 8945   5.198   6.942   2.204  0.3860  0.1261 -0.0395
  107HK4     O2 8946   5.114   7.018   2.159  0.3639 -0.3558 -0.8193
  107HK4     C4 8947   5.181   6.873   2.334 -0.4284 -0.0326 -0.2287
  107HK4     C3 8948   5.074   6.911   2.413 -0.2263 -0.1083  0.0831
  107HK4     H3 8949   5.011   7.000   2.397  1.8500  1.4171  0.3345
  107HK4     C2 8950   5.034   6.830   2.519 -0.2353  0.0593  0.2083
  107HK4     H2 8951   4.935   6.851   2.561  1.1490  2.4073  2.4834
  107HK4     C1 8952   5.110   6.717   2.547  0.0662  0.3287  0.4811
  107HK4     H1 8953   5.072   6.659   2.633 -0.4540  1.4012  0.9834
  107HK4     C6 8954   5.229   6.680   2.481 -0.2773  0.0607  0.0076
  107HK4     C5 8955   5.262   6.765   2.374 -0.9512 -0.6260 -0.7522
  107HK4    C10 8956   5.388   6.742   2.297 -0.1195  0.2558  0.3240
  107HK4     O1 8957   5.498   6.747   2.352 -0.2610  0.3303  0.6000
  107HK4    C16 8958   5.257   6.536   2.473  0.5811  0.2197  0.0749
  107HK4    C15 8959   5.154   6.441   2.454  0.5113  0.2662  0.2133
  107HK4     H7 8960   5.048   6.471   2.453  0.8234  1.4013 -1.0476
  107HK4    C20 8961   5.187   6.307   2.446  0.3595  0.2498 -0.1681
  107HK4     H9 8962   5.116   6.231   2.412  1.2185 -0.6107 -0.0892
  107HK4    C19 8963   5.320   6.270   2.465  0.1872 -0.3542 -0.1169
  107HK4    C18 8964   5.423   6.365   2.501 -0.0534 -0.3888  0.6537
  107HK4    C17 8965   5.387   6.500   2.504  0.5539 -0.2081 -0.3123
  107HK4     H8 8966   5.453   6.577   2.544  1.0541 -1.4266  1.2796
  107HK4     N1 8967   5.549   6.305   2.519  0.2943 -0.0417 -0.5937
  107HK4    C21 8968   5.529   6.171   2.478  0.6679 -0.2819  0.0038
  107HK4    C22 8969   5.389   6.143   2.451  0.6482 -0.1051 -0.0859
  107HK4    C26 8970   5.360   6.012   2.416  0.4484 -0.1264  0.1592
  107HK4    H13 8971   5.258   5.987   2.388  0.8419  0.5724 -1.9578
  107HK4    C25 8972   5.454   5.909   2.417  0.2330 -0.3261 -0.0698
  107HK4    H12 8973   5.425   5.806   2.400  0.0483  0.0215 -1.9741
  107HK4    C24 8974   5.586   5.939   2.448 -0.0441  0.2541  0.5548
  107HK4    H11 8975   5.649   5.853   2.422 -2.9124 -2.4735  2.2828
  107HK4    C23 8976   5.624   6.070   2.478  0.9988  0.0286  0.2371
  107HK4    H10 8977   5.727   6.091   2.507  1.0601 -1.1889  0.9664
  107HK4    C39 8978   5.671   6.371   2.529  0.3557 -0.1919 -0.3739
  107HK4    C41 8979   5.785   6.318   2.593 -0.0509  0.0232  0.5342
  107HK4    H21 8980   5.779   6.228   2.657  0.8837 -0.1962  0.3245
  107HK4    C42 8981   5.913   6.368   2.574  0.1383 -0.7986 -0.4000
  107HK4    H22 8982   5.998   6.327   2.632 -0.0779  0.6560  0.9846
  107HK4    C43 8983   5.945   6.465   2.479  0.0102 -0.4965 -0.1348
  107HK4    H23 8984   6.048   6.490   2.459  0.6677 -1.3653  1.9545
  107HK4    C44 8985   5.838   6.513   2.405  0.3994 -0.3303 -0.5831
  107HK4    H24 8986   5.849   6.599   2.337  2.9394 -0.6351 -0.5946
  107HK4    C45 8987   5.710   6.468   2.435  0.3291  0.3688  0.1881
  107HK4    H25 8988   5.631   6.505   2.368  0.9658  0.0893 -0.7235
  108HK4    H28 8989   0.796   9.944   0.157  0.9115  0.5742 -2.9998
  108HK4    C48 8990   0.710   9.888   0.120  0.1433 -0.5215  0.3003
  108HK4    C47 8991   0.581   9.899   0.171  0.0758  0.6336 -0.1146
  108HK4    H27 8992   0.564   9.946   0.269  0.3741  4.7397 -1.8972
  108HK4    C46 8993   0.472   9.849   0.101  0.3225  0.1059 -0.1231
  108HK4    H26 8994   0.373   9.864   0.146 -0.6656 -2.5781 -1.3043
  108HK4    C40 8995   0.486   9.772  11.231 -0.0529 -0.2034  0.0304
  108HK4    C50 8996   0.618   9.759  11.182  0.1850 -0.4449  0.7310
  108HK4    H30 8997   0.639   9.723  11.080 -1.9678  0.1157  0.0652
  108HK4    C49 8998   0.725   9.818   0.001  0.4199 -0.2219  0.1589
  108HK4    H29 8999   0.824   9.817  11.203  1.0183 -0.2407  1.4337
  108HK4     N2 9000   0.380   9.696  11.183 -0.0753 -0.1592  0.0100
  108HK4    C30 9001   0.265   9.656   0.007 -0.1326  0.0276  0.0202
  108HK4    C29 9002   0.254   9.630   0.143 -0.2222 -0.2650 -0.0422
  108HK4    H15 9003   0.343   9.590   0.192  0.7982  3.9882  1.8047
  108HK4    C28 9004   0.138   9.639   0.219 -0.0186  0.2004  0.2204
  108HK4    C27 9005   0.021   9.659   0.142  0.2093  0.5717 -0.0303
  108HK4    H14 9006  11.174   9.680   0.193  0.1746 -2.2040  1.1043
  108HK4    C32 9007   0.024   9.679   0.004  0.2463 -0.2869 -0.1561
  108HK4    H16 9008  11.183   9.715  11.202 -0.9360 -2.2219  0.4879
  108HK4    C31 9009   0.143   9.675  11.180  0.0644 -0.5264 -0.4435
  108HK4    C34 9010   0.187   9.720  11.049  0.4165 -0.0975 -0.1797
  108HK4    C33 9011   0.331   9.711  11.051  0.4027 -0.3120 -0.1847
  108HK4    C35 9012   0.399   9.707  10.930  0.3364  0.3102 -0.2423
  108HK4    H17 9013   0.504   9.677  10.931 -0.2880 -1.9190  0.0523
  108HK4    C36 9014   0.335   9.722  10.808 -0.3343 -0.2925  0.0365
  108HK4    H18 9015   0.380   9.749  10.711  0.7532  1.2253  0.9481
  108HK4    C37 9016   0.196   9.722  10.800 -0.3212  0.9385 -0.2076
  108HK4    H19 9017   0.140   9.698  10.710  2.4761  1.0305 -2.0434
  108HK4    C38 9018   0.130   9.721  10.923  0.0497 -0.0393 -0.0137
  108HK4    H20 9019   0.022   9.702  10.925  0.3313 -1.8417 -0.7695
  108HK4    C14 9020   0.128   9.609   0.362  0.4285 -0.0001  0.2114
  108HK4     C9 9021   0.016   9.562   0.433  0.5827 -0.6877  0.0011
  108HK4     C8 9022  11.247   9.589   0.570  0.0976 -0.9729 -0.0044
  108HK4    C11 9023   0.107   9.649   0.634 -0.3513 -0.1058 -0.0525
  108HK4     H4 9024   0.104   9.645   0.744 -1.0022  1.1795 -0.0179
  108HK4    C12 9025   0.227   9.677   0.569 -0.3296  0.0114  0.0394
  108HK4     H5 9026   0.317   9.697   0.629 -0.7683 -0.0120  0.7201
  108HK4    C13 9027   0.236   9.668   0.431  0.4038  0.2069  0.0739
  108HK4     H6 9028   0.318   9.716   0.376 -0.1734  0.2477 -0.7492
  108HK4     C7 9029  11.115   9.566   0.634 -0.3206  0.3417 -0.3783
  108HK4     O2 9030  11.078   9.649   0.717  0.0927 -0.0083  0.1611
  108HK4     C4 9031  11.015   9.489   0.557  0.3220 -0.5920 -0.2917
  108HK4     C3 9032  10.889   9.466   0.613  0.0938  0.2416 -0.4449
  108HK4     H3 9033  10.853   9.521   0.701 -1.4952 -2.1638  0.4373
  108HK4     C2 9034  10.799   9.378   0.554 -0.4808  0.5790 -0.0689
  108HK4     H2 9035  10.737   9.311   0.616  1.3535 -1.1636 -0.0911
  108HK4     C1 9036  10.818   9.343   0.421 -0.7093  0.3186 -0.0347
  108HK4     H1 9037  10.740   9.279   0.378  1.1190 -1.6529 -0.5253
  108HK4     C6 9038  10.932   9.388   0.350 -0.6793 -0.0897 -0.2400
  108HK4     C5 9039  11.036   9.441   0.427 -0.3991 -0.1682 -0.5667
  108HK4    C10 9040  11.168   9.471   0.365 -0.1592  0.0591  0.0462
  108HK4     O1 9041  11.216   9.377   0.303 -0.4731 -0.0349 -0.0558
  108HK4    C16 9042  10.894   9.440   0.218  0.3022  0.7357 -0.1919
  108HK4    C15 9043  10.773   9.502   0.181  0.0615  0.5267  0.2437
  108HK4     H7 9044  10.706   9.537   0.261 -0.7132 -2.0305  0.7728
  108HK4    C20 9045  10.736   9.522   0.048  0.2779  0.4883  0.1782
  108HK4     H9 9046  10.656   9.591   0.024  0.9714  0.5649 -1.9944
  108HK4    C19 9047  10.810   9.470  11.191 -0.2199 -0.0090  0.0711
  108HK4    C18 9048  10.939   9.411  11.224 -0.1787  0.1170  0.1423
  108HK4    C17 9049  10.973   9.400   0.110  0.2922  0.1372  0.0259
  108HK4     H8 9050  11.054   9.334   0.138 -0.0470  0.3361  1.5310
  108HK4     N1 9051  11.009   9.353  11.117 -0.0426  0.1903  0.1917
  108HK4    C21 9052  10.922   9.379  11.009 -0.0488  0.1666  0.1935
  108HK4    C22 9053  10.800   9.447  11.048 -0.3310 -0.2979  0.1217
  108HK4    C26 9054  10.692   9.474  10.965 -0.3306 -0.3210  0.1134
  108HK4    H13 9055  10.593   9.505  10.999 -0.3225 -2.0431  1.7605
  108HK4    C25 9056  10.718   9.442  10.832 -0.9445  0.5979 -0.2330
  108HK4    H12 9057  10.634   9.439  10.762  1.0445  0.8488 -2.6922
  108HK4    C24 9058  10.837   9.390  10.784 -0.4943  0.6072  0.8587
  108HK4    H11 9059  10.854   9.377  10.676 -0.8008  0.6970  0.7995
  108HK4    C23 9060  10.937   9.352  10.874 -0.0915  0.0905  0.2017
  108HK4    H10 9061  11.036   9.345  10.830  0.2995  2.7147  0.5851
  108HK4    C39 9062  11.139   9.300  11.110 -0.2526 -0.3252  0.2156
  108HK4    C41 9063  11.187   9.221  11.003 -0.0228  0.5583 -0.3312
  108HK4    H21 9064  11.110   9.168  10.945  0.4753 -0.1878 -0.3132
  108HK4    C42 9065   0.070   9.174  10.998 -0.2687 -0.1379 -0.2577
  108HK4    H22 9066   0.100   9.108  10.915 -1.6698  0.6312 -1.3925
  108HK4    C43 9067   0.159   9.205  11.100 -0.1898  0.5028 -0.5220
  108HK4    H23 9068   0.260   9.166  11.088 -0.8090 -0.8111 -1.6223
  108HK4    C44 9069   0.117   9.291  11.201  0.6161  0.8445 -0.4708
  108HK4    H24 9070   0.178   9.310   0.043 -1.7638 -0.3438  1.4647
  108HK4    C45 9071  11.234   9.337  11.206  0.1766 -0.4113 -0.1741
  108HK4    H25 9072  11.216   9.411   0.037 -0.4452 -0.3409 -0.3836
  109HK4    H28 9073   4.333   1.134  11.177 -0.7871 -0.6085  0.6106
  109HK4    C48 9074   4.268   1.148  11.090 -0.5641  0.3887  0.5905
  109HK4    C47 9075   4.181   1.047  11.051  0.4639 -0.2551 -0.0474
  109HK4    H27 9076   4.175   0.946  11.094  1.9451 -0.0342  0.6957
  109HK4    C46 9077   4.109   1.056  10.932 -0.5181  0.2383  0.5809
  109HK4    H26 9078   4.032   0.979  10.910 -0.8102  0.1286  1.9381
  109HK4    C40 9079   4.124   1.167  10.846  0.6967 -0.5186 -0.1958
  109HK4    C50 9080   4.209   1.270  10.890  0.1348  0.0926 -0.5409
  109HK4    H30 9081   4.201   1.364  10.833  1.3450  2.2676  2.7002
  109HK4    C49 9082   4.278   1.261  11.010 -0.5007 -0.1714 -0.1932
  109HK4    H29 9083   4.356   1.336  11.033  0.1367 -0.9160  0.1273
  109HK4     N2 9084   4.086   1.158  10.712  0.2725  0.2635 -0.1306
  109HK4    C30 9085   4.083   1.041  10.634  0.0798  0.0050  0.2612
  109HK4    C29 9086   4.149   0.920  10.654 -0.2962 -0.2256  0.0986
  109HK4    H15 9087   4.226   0.922  10.731 -1.3184  1.4766  1.1176
  109HK4    C28 9088   4.129   0.808  10.574  0.1458 -0.1805 -0.0754
  109HK4    C27 9089   4.047   0.825  10.461 -0.0333  0.1489  0.1061
  109HK4    H14 9090   4.020   0.737  10.401 -1.7359  0.1533  0.8417
  109HK4    C32 9091   3.981   0.945  10.433 -0.0126  0.1474  0.0520
  109HK4    H16 9092   3.911   0.947  10.349  1.0822  0.5284 -0.8633
  109HK4    C31 9093   3.997   1.053  10.518  0.1902  0.0163  0.1791
  109HK4    C34 9094   3.929   1.180  10.534  0.2070 -0.0296  0.6063
  109HK4    C33 9095   4.007   1.248  10.636  0.0927  0.5069  0.3447
  109HK4    C35 9096   3.958   1.370  10.681 -0.0638  0.5158  0.1473
  109HK4    H17 9097   4.019   1.436  10.743 -0.7637  2.1417 -0.8555
  109HK4    C36 9098   3.835   1.419  10.638 -0.2955  0.2090  0.4554
  109HK4    H18 9099   3.798   1.512  10.684 -1.0564 -0.3586  1.0093
  109HK4    C37 9100   3.761   1.354  10.540 -0.4352  0.0422  0.6743
  109HK4    H19 9101   3.658   1.383  10.521  0.0153  1.1661 -0.0632
  109HK4    C38 9102   3.810   1.235  10.488  0.3734  0.3807  0.6563
  109HK4    H20 9103   3.747   1.163  10.436  0.4682  1.4124 -0.9131
  109HK4    C14 9104   4.191   0.678  10.600 -0.7201 -0.5311  0.2674
  109HK4     C9 9105   4.204   0.573  10.507 -0.3945 -0.3406  0.0949
  109HK4     C8 9106   4.196   0.440  10.553 -0.4984 -0.2262  0.4110
  109HK4    C11 9107   4.189   0.419  10.690 -0.1134 -0.4412  0.4000
  109HK4     H4 9108   4.151   0.326  10.735 -2.1419  0.0841 -0.1401
  109HK4    C12 9109   4.198   0.522  10.784  0.5647 -0.0014 -0.1454
  109HK4     H5 9110   4.206   0.508  10.892  0.8341 -0.1278 -0.1814
  109HK4    C13 9111   4.203   0.653  10.738  0.0975  0.1858  0.3363
  109HK4     H6 9112   4.193   0.736  10.810 -0.6557  0.6422 -0.2861
  109HK4     C7 9113   4.198   0.322  10.464 -0.0576 -0.0136  0.1373
  109HK4     O2 9114   4.135   0.223  10.500  0.4389 -0.5659 -0.4950
  109HK4     C4 9115   4.237   0.351  10.324  0.2601  0.1755  0.2641
  109HK4     C3 9116   4.224   0.249  10.230  0.2019  0.5883 -0.1767
  109HK4     H3 9117   4.157   0.165  10.255  0.6401  0.7957  1.7949
  109HK4     C2 9118   4.287   0.248  10.107  0.3215  0.0515 -0.1105
  109HK4     H2 9119   4.275   0.169  10.031  0.9664  2.3882 -2.7577
  109HK4     C1 9120   4.360   0.364  10.080 -0.3591  0.3593 -0.6395
  109HK4     H1 9121   4.412   0.365   9.983  1.3221 -1.1108  0.2176
  109HK4     C6 9122   4.369   0.474  10.167  0.2074 -0.2449  0.0718
  109HK4     C5 9123   4.298   0.473  10.288  0.0903  0.1871  0.0090
  109HK4    C10 9124   4.267   0.591  10.374  0.5922 -0.1008  0.5884
  109HK4     O1 9125   4.299   0.705  10.343  0.3540 -0.1853  0.0204
  109HK4    C16 9126   4.435   0.589  10.103  0.2954 -0.1616  0.3132
  109HK4    C15 9127   4.419   0.622   9.967  0.3404 -0.1882  0.2984
  109HK4     H7 9128   4.338   0.571   9.913 -1.0152  0.7603  1.3894
  109HK4    C20 9129   4.514   0.698   9.900 -0.1329 -0.1399 -0.3164
  109HK4     H9 9130   4.488   0.738   9.802  3.8969 -0.8288 -1.7584
  109HK4    C19 9131   4.627   0.747   9.964 -0.1250 -0.1988 -0.2852
  109HK4    C18 9132   4.648   0.712  10.104 -0.7847  1.2577  0.1868
  109HK4    C17 9133   4.549   0.637  10.166  0.2225  0.0258  0.3038
  109HK4     H8 9134   4.562   0.614  10.272  2.2836  0.2125  0.1168
  109HK4     N1 9135   4.767   0.768  10.153 -0.1186  0.1585 -0.1579
  109HK4    C21 9136   4.828   0.824  10.038  0.1507  0.0896 -0.0476
  109HK4    C22 9137   4.745   0.819   9.920 -0.1926  0.2045  0.1902
  109HK4    C26 9138   4.783   0.873   9.798 -0.4415  0.7248  0.3402
  109HK4    H13 9139   4.730   0.855   9.704  2.3563 -0.1077 -1.1388
  109HK4    C25 9140   4.906   0.938   9.788  0.1214 -0.3760  0.0018
  109HK4    H12 9141   4.931   0.993   9.697  2.1894 -0.6575  0.3751
  109HK4    C24 9142   4.990   0.931   9.899  0.1785  0.0216 -0.0151
  109HK4    H11 9143   5.087   0.981   9.886 -0.2040  0.4297 -1.4218
  109HK4    C23 9144   4.956   0.877  10.022  0.0749  0.3110  0.0854
  109HK4    H10 9145   5.031   0.872  10.101  0.1613  0.5176  0.0137
  109HK4    C39 9146   4.768   0.837  10.275  0.1556  0.0303 -0.0851
  109HK4    C41 9147   4.887   0.847  10.350  0.0547 -0.1793  0.1026
  109HK4    H21 9148   4.971   0.781  10.321  0.2490 -0.0868  0.4559
  109HK4    C42 9149   4.896   0.925  10.464  0.5383 -0.3126  0.1560
  109HK4    H22 9150   4.992   0.931  10.518  1.1283  1.0544 -1.0033
  109HK4    C43 9151   4.786   0.996  10.511  0.7415  0.3147 -0.3155
  109HK4    H23 9152   4.794   1.037  10.612 -1.5092  0.9724 -0.3916
  109HK4    C44 9153   4.667   0.983  10.441  0.5968 -0.3266  0.0484
  109HK4    H24 9154   4.579   1.013  10.500 -1.1460  0.8055 -2.9992
  109HK4    C45 9155   4.655   0.901  10.329  0.1132  0.0131 -0.1526
  109HK4    H25 9156   4.558   0.873  10.286 -0.0914  1.2009 -0.4841
  110HK4    H28 9157   1.973   3.671  10.628 -0.9948 -0.4731  0.3257
  110HK4    C48 9158   2.007   3.608  10.710 -0.3637  0.1624  0.5523
  110HK4    C47 9159   2.062   3.660  10.826  0.0369  0.0773  0.4013
  110HK4    H27 9160   2.114   3.757  10.825 -0.5495  0.3864 -1.3195
  110HK4    C46 9161   2.072   3.584  10.943  1.3782 -0.7620 -0.2416
  110HK4    H26 9162   2.096   3.630  11.040 -0.1088 -0.9591  0.2220
  110HK4    C40 9163   2.026   3.451  10.948 -0.2088 -0.2135  0.0822
  110HK4    C50 9164   1.984   3.400  10.824  0.0869  0.0263 -0.1225
  110HK4    H30 9165   1.936   3.301  10.817  0.9050 -0.2879 -1.5218
  110HK4    C49 9166   1.971   3.474  10.707  0.0355  0.0676 -0.0909
  110HK4    H29 9167   1.892   3.444  10.637  1.0716 -2.0430 -0.4062
  110HK4     N2 9168   2.018   3.382  11.070 -0.1187 -0.0667  0.1709
  110HK4    C30 9169   2.012   3.242  11.078 -0.2484 -0.0776 -0.1118
  110HK4    C29 9170   2.062   3.140  10.998  0.1777 -0.3055  0.4443
  110HK4    H15 9171   2.141   3.168  10.928  3.1081 -2.5398  2.7179
  110HK4    C28 9172   2.033   3.005  11.016 -0.6507 -0.1563  0.2372
  110HK4    C27 9173   1.970   2.972  11.138 -0.5266 -0.7396  0.1435
  110HK4    H14 9174   1.977   2.866  11.164  0.0216 -0.3259  1.7816
  110HK4    C32 9175   1.923   3.066  11.230  0.7312  0.0693 -0.0244
  110HK4    H16 9176   1.852   3.029   0.055 -0.5410  0.9570 -0.7927
  110HK4    C31 9177   1.939   3.200  11.197  0.0672  0.2034  0.1815
  110HK4    C34 9178   1.917   3.320   0.027 -0.3554  0.0565  0.2818
  110HK4    C33 9179   1.951   3.428  11.185  0.3845 -0.0331  0.4497
  110HK4    C35 9180   1.917   3.556  11.227 -0.4019  0.1255 -0.6253
  110HK4    H17 9181   1.945   3.639  11.162 -0.3405 -0.9751 -2.0183
  110HK4    C36 9182   1.858   3.581   0.103  0.0738 -0.1648 -0.3380
  110HK4    H18 9183   1.837   3.683   0.136 -1.7009 -1.0772  1.4578
  110HK4    C37 9184   1.827   3.475   0.187  0.5626 -0.1667 -0.1588
  110HK4    H19 9185   1.788   3.493   0.288 -0.0652  0.8824 -0.5859
  110HK4    C38 9186   1.852   3.344   0.148 -0.5439 -0.5172  0.2961
  110HK4    H20 9187   1.805   3.264   0.206 -1.7689  0.0875  0.1590
  110HK4    C14 9188   2.004   2.933  10.892  0.3488 -0.5790  0.2457
  110HK4     C9 9189   1.883   2.862  10.885  0.0944 -0.1472  0.2415
  110HK4     C8 9190   1.876   2.742  10.812 -0.2826  0.3458 -0.5419
  110HK4    C11 9191   1.984   2.712  10.730  0.1680 -0.3055  0.2837
  110HK4     H4 9192   1.977   2.628  10.659  1.7611 -0.9872  0.9050
  110HK4    C12 9193   2.096   2.793  10.721 -0.4743  0.5627  0.0159
  110HK4     H5 9194   2.171   2.756  10.649 -1.0481 -2.0376  0.6951
  110HK4    C13 9195   2.114   2.897  10.812  0.4476  0.5430 -0.1391
  110HK4     H6 9196   2.203   2.961  10.803  0.1533  0.7778 -1.5238
  110HK4     C7 9197   1.743   2.676  10.804  0.1192 -0.6034  0.4140
  110HK4     O2 9198   1.728   2.573  10.739  0.0235 -0.4491  0.1908
  110HK4     C4 9199   1.623   2.723  10.875 -0.1217 -0.3655 -0.1481
  110HK4     C3 9200   1.513   2.639  10.893 -0.8038  0.6238  0.3752
  110HK4     H3 9201   1.503   2.556  10.822 -1.0555  0.4978  0.5586
  110HK4     C2 9202   1.408   2.667  10.979 -0.9877  0.1316  0.3106
  110HK4     H2 9203   1.323   2.601  11.003  0.7838 -2.2863  0.0683
  110HK4     C1 9204   1.419   2.784  11.053 -0.1083  0.3124 -0.1015
  110HK4     H1 9205   1.344   2.804  11.131 -1.2470  0.5996 -1.2639
  110HK4     C6 9206   1.524   2.876  11.034  0.3831 -0.2674 -0.1932
  110HK4     C5 9207   1.629   2.845  10.946  0.2648 -0.2775 -0.3329
  110HK4    C10 9208   1.757   2.920  10.940  0.0060  0.1660 -0.2896
  110HK4     O1 9209   1.746   3.041  10.917 -0.0300  0.2141 -0.0229
  110HK4    C16 9210   1.529   2.967  11.149 -0.2446 -0.2798 -0.1575
  110HK4    C15 9211   1.502   2.922   0.033  0.1721  0.0122  0.0258
  110HK4     H7 9212   1.503   2.814   0.048  1.5651 -0.0829 -0.6626
  110HK4    C20 9213   1.492   3.007   0.142  0.4135 -0.3534  0.3318
  110HK4     H9 9214   1.464   2.962   0.238 -1.1076 -0.7482 -0.2818
  110HK4    C19 9215   1.516   3.143   0.130 -0.0909 -0.2843  0.0872
  110HK4    C18 9216   1.538   3.194  11.243 -0.6956 -0.1582  0.0355
  110HK4    C17 9217   1.541   3.105  11.137  0.0432 -0.2768  0.1553
  110HK4     H8 9218   1.540   3.149  11.037 -2.4708 -3.5431 -1.3643
  110HK4     N1 9219   1.521   3.334  11.247 -0.0728 -0.0887  0.3301
  110HK4    C21 9220   1.498   3.372   0.132 -0.4270  0.4628  0.1124
  110HK4    C22 9221   1.494   3.256   0.219  0.9407  0.1672 -0.2167
  110HK4    C26 9222   1.475   3.272   0.356 -0.0010  0.3416 -0.3636
  110HK4    H13 9223   1.482   3.192   0.429 -0.7065  0.7190  0.1162
  110HK4    C25 9224   1.451   3.398   0.408 -0.1308  0.0579  0.2700
  110HK4    H12 9225   1.424   3.406   0.513 -0.2303 -2.2276  0.4409
  110HK4    C24 9226   1.442   3.511   0.327 -0.2954 -0.0840  0.0900
  110HK4    H11 9227   1.423   3.615   0.357 -0.6476 -0.5728  1.5658
  110HK4    C23 9228   1.472   3.495   0.192  0.0267  0.5744  0.0820
  110HK4    H10 9229   1.462   3.588   0.135  0.4931 -0.2640 -1.3824
  110HK4    C39 9230   1.548   3.415  11.136  0.1835 -0.1932  0.3134
  110HK4    C41 9231   1.496   3.546  11.121  0.0817 -0.2679  0.0001
  110HK4    H21 9232   1.408   3.575  11.180  0.4381  1.0620 -0.1138
  110HK4    C42 9233   1.550   3.636  11.030  0.0932 -0.2514  0.0236
  110HK4    H22 9234   1.505   3.736  11.025  0.7961  0.1647  1.7134
  110HK4    C43 9235   1.659   3.611  10.948  0.3979  0.4747  0.2048
  110HK4    H23 9236   1.694   3.684  10.874 -0.7604  0.1082 -0.7241
  110HK4    C44 9237   1.704   3.480  10.959 -0.5898  0.1599  0.6176
  110HK4    H24 9238   1.765   3.448  10.873  1.6664  3.6517  0.8167
  110HK4    C45 9239   1.653   3.386  11.047  0.5470 -0.3115  0.7826
  110HK4    H25 9240   1.708   3.291  11.052  2.9735  0.9017 -1.2423
  111HK4    H28 9241   3.716   3.673   7.748 -0.4993 -1.8262  0.2743
  111HK4    C48 9242   3.720   3.676   7.857 -0.1143  0.3300  0.2214
  111HK4    C47 9243   3.839   3.647   7.923 -0.2969 -0.3397  0.2658
  111HK4    H27 9244   3.934   3.644   7.866 -1.0626  1.7327 -1.2002
  111HK4    C46 9245   3.834   3.637   8.061  0.2381  0.4305  0.3508
  111HK4    H26 9246   3.923   3.610   8.119 -0.4100  0.6709  1.4697
  111HK4    C40 9247   3.713   3.643   8.134 -0.0192 -0.8215  0.0390
  111HK4    C50 9248   3.595   3.664   8.061  0.1310  0.0716  0.0546
  111HK4    H30 9249   3.496   3.661   8.110 -0.1945 -1.0357 -0.6586
  111HK4    C49 9250   3.599   3.687   7.924 -0.3138 -0.3213 -0.0274
  111HK4    H29 9251   3.512   3.702   7.859  0.2153  0.4445 -0.5796
  111HK4     N2 9252   3.714   3.679   8.270  0.0445 -0.0053 -0.1739
  111HK4    C30 9253   3.812   3.748   8.343  0.3576 -0.1991 -0.4116
  111HK4    C29 9254   3.893   3.857   8.313 -0.3490  0.4192 -0.0917
  111HK4    H15 9255   3.904   3.875   8.206 -2.3689  1.1197 -0.1838
  111HK4    C28 9256   3.964   3.939   8.399 -0.0350 -0.2881  0.3307
  111HK4    C27 9257   3.966   3.897   8.534 -0.0538 -0.1106  0.3852
  111HK4    H14 9258   4.017   3.960   8.608  2.9854 -1.4362 -0.5168
  111HK4    C32 9259   3.891   3.786   8.571 -0.0528 -0.2882 -0.1400
  111HK4    H16 9260   3.868   3.767   8.676 -0.1358 -0.0314 -0.1106
  111HK4    C31 9261   3.808   3.715   8.484 -0.4078  0.3325 -0.3092
  111HK4    C34 9262   3.694   3.628   8.505 -0.0077 -0.1535 -0.1503
  111HK4    C33 9263   3.639   3.615   8.371  0.3600 -0.5296 -0.2684
  111HK4    C35 9264   3.517   3.550   8.362 -0.1014  0.2189  0.4503
  111HK4    H17 9265   3.459   3.569   8.272 -0.3737 -0.1372  0.5502
  111HK4    C36 9266   3.455   3.490   8.471 -0.3442  0.5316  0.4834
  111HK4    H18 9267   3.357   3.442   8.462  0.7883 -2.2819  2.5385
  111HK4    C37 9268   3.519   3.486   8.595 -0.0336  0.0053  0.3094
  111HK4    H19 9269   3.457   3.459   8.681 -1.5591 -2.3176 -1.4547
  111HK4    C38 9270   3.632   3.565   8.612 -0.2140  0.3274  0.0105
  111HK4    H20 9271   3.659   3.593   8.714  0.1876 -0.6129  0.1659
  111HK4    C14 9272   4.064   4.031   8.341  0.1044 -0.3020  0.5445
  111HK4     C9 9273   4.188   4.059   8.397  0.3953 -0.0899 -0.1992
  111HK4     C8 9274   4.247   4.186   8.381 -0.4452  0.3499  0.1763
  111HK4    C11 9275   4.189   4.271   8.288 -0.2845  0.2341 -0.0307
  111HK4     H4 9276   4.251   4.357   8.260  0.6948 -0.3406  0.3545
  111HK4    C12 9277   4.073   4.235   8.220 -0.4981 -0.1133  0.5161
  111HK4     H5 9278   4.017   4.309   8.161 -1.6996  1.3160  3.3235
  111HK4    C13 9279   4.005   4.117   8.245 -0.0812 -0.3276  0.6321
  111HK4     H6 9280   3.907   4.102   8.198  0.3417 -0.8225 -0.1036
  111HK4     C7 9281   4.382   4.216   8.436  0.0418 -0.2733 -0.6760
  111HK4     O2 9282   4.408   4.336   8.443 -0.4571 -0.2253  0.4191
  111HK4     C4 9283   4.460   4.113   8.508  0.0047  0.2526  0.1183
  111HK4     C3 9284   4.594   4.133   8.536 -0.0504  0.1484  0.4567
  111HK4     H3 9285   4.629   4.236   8.519  1.7528 -0.5560 -0.2492
  111HK4     C2 9286   4.667   4.035   8.602  0.4152  0.4227  0.3599
  111HK4     H2 9287   4.776   4.038   8.612  0.4291  0.5662  0.1621
  111HK4     C1 9288   4.594   3.928   8.654 -0.2955  0.3649 -0.7411
  111HK4     H1 9289   4.651   3.858   8.717  0.4753  0.0567 -1.7688
  111HK4     C6 9290   4.458   3.903   8.627 -0.2000 -0.4151 -0.5121
  111HK4     C5 9291   4.395   3.992   8.539 -0.2376  0.4473  0.3822
  111HK4    C10 9292   4.271   3.955   8.465  0.2274 -0.1607 -0.0972
  111HK4     O1 9293   4.260   3.842   8.419 -0.7377 -0.2709  0.4071
  111HK4    C16 9294   4.394   3.815   8.726 -0.1858  0.4964  0.3095
  111HK4    C15 9295   4.457   3.778   8.846  0.2390  0.4536  0.0759
  111HK4     H7 9296   4.536   3.842   8.888  0.9860 -0.3875 -0.0231
  111HK4    C20 9297   4.422   3.670   8.927 -0.2891  0.2648 -0.4034
  111HK4     H9 9298   4.466   3.656   9.026 -0.1940 -0.6577 -0.5697
  111HK4    C19 9299   4.321   3.583   8.887 -0.0124 -0.1417 -0.2334
  111HK4    C18 9300   4.250   3.613   8.764 -0.1520 -0.1233 -0.1472
  111HK4    C17 9301   4.285   3.732   8.701 -0.0710  0.2534  0.6086
  111HK4     H8 9302   4.195   3.772   8.655 -0.5904 -0.1094  1.3071
  111HK4     N1 9303   4.165   3.506   8.730  0.1140 -0.4882  0.3365
  111HK4    C21 9304   4.190   3.402   8.822  0.7699 -0.4937  0.1540
  111HK4    C22 9305   4.283   3.448   8.923  0.1347  0.0140  0.5109
  111HK4    C26 9306   4.346   3.351   9.000  0.1783 -0.5868 -0.2749
  111HK4    H13 9307   4.428   3.382   9.066  0.3431  0.0852 -0.7867
  111HK4    C25 9308   4.319   3.216   8.988 -0.3955 -0.4964 -0.0144
  111HK4    H12 9309   4.380   3.144   9.042  1.6882  1.5189  0.3762
  111HK4    C24 9310   4.225   3.178   8.893 -0.3305 -0.1215 -0.2280
  111HK4    H11 9311   4.215   3.069   8.880  1.0519 -0.3362  0.4656
  111HK4    C23 9312   4.160   3.267   8.808 -0.2998 -0.2091 -0.3417
  111HK4    H10 9313   4.062   3.238   8.769 -0.4535  1.1309 -0.9733
  111HK4    C39 9314   4.097   3.502   8.608  0.0094 -0.0409  0.3781
  111HK4    C41 9315   3.974   3.436   8.593  0.4087 -0.6714 -0.1282
  111HK4    H21 9316   3.903   3.448   8.676  0.9916  1.1090  0.1281
  111HK4    C42 9317   3.923   3.408   8.467 -0.1086 -0.1301 -0.0405
  111HK4    H22 9318   3.817   3.381   8.453  0.5274 -2.7150 -0.0967
  111HK4    C43 9319   4.004   3.427   8.356 -0.3613 -0.1659 -0.2318
  111HK4    H23 9320   3.967   3.430   8.253 -0.2690 -1.8101 -0.3186
  111HK4    C44 9321   4.131   3.483   8.364 -0.3491 -0.1830 -0.3018
  111HK4    H24 9322   4.197   3.488   8.276  1.1424 -0.8415  0.7497
  111HK4    C45 9323   4.173   3.522   8.491 -0.4428 -0.8610 -0.0588
  111HK4    H25 9324   4.271   3.572   8.497 -0.7857  0.2254 -2.7879
  112HK4    H28 9325   4.509   9.131   5.970 -0.0196  0.4932 -0.4312
  112HK4    C48 9326   4.567   9.060   5.911 -0.1714 -0.4019  0.4771
  112HK4    C47 9327   4.705   9.044   5.921 -0.1306 -0.3040  0.0650
  112HK4    H27 9328   4.758   9.125   5.971  0.1159  0.8107 -1.9468
  112HK4    C46 9329   4.768   8.948   5.842 -0.4096 -0.7256  0.3499
  112HK4    H26 9330   4.872   8.917   5.861 -0.3644 -0.5824  0.3359
  112HK4    C40 9331   4.702   8.883   5.736  0.0079  0.0119 -0.3653
  112HK4    C50 9332   4.562   8.890   5.737  0.0225  0.2641 -0.0564
  112HK4    H30 9333   4.510   8.825   5.664  4.7988 -1.3999 -2.1838
  112HK4    C49 9334   4.498   8.978   5.823 -0.1356  0.2559 -0.1641
  112HK4    H29 9335   4.388   8.970   5.821 -0.0103 -1.7452 -2.5566
  112HK4     N2 9336   4.765   8.825   5.625  0.1765  0.2261 -0.3835
  112HK4    C30 9337   4.896   8.861   5.586  0.3837  0.1166  0.2119
  112HK4    C29 9338   4.970   8.978   5.584  0.5584  0.0064  0.0807
  112HK4    H15 9339   4.905   9.066   5.582  0.2008 -0.2524 -2.6950
  112HK4    C28 9340   5.097   8.996   5.530  0.4674  0.2100 -0.0680
  112HK4    C27 9341   5.146   8.879   5.469 -0.5102 -0.5248  0.5592
  112HK4    H14 9342   5.230   8.903   5.403 -0.4776  1.6519  1.3501
  112HK4    C32 9343   5.089   8.752   5.478 -0.1628 -0.7661 -0.6531
  112HK4    H16 9344   5.140   8.664   5.439  1.9894  0.3680 -0.4809
  112HK4    C31 9345   4.962   8.742   5.535  0.1948 -0.0197  0.2872
  112HK4    C34 9346   4.859   8.642   5.527  0.0999  0.1185 -0.2040
  112HK4    C33 9347   4.735   8.694   5.582  0.1560  0.1319 -0.0880
  112HK4    C35 9348   4.631   8.606   5.606  0.2502  0.0717  0.0959
  112HK4    H17 9349   4.547   8.617   5.675 -1.9906  0.9062 -2.6354
  112HK4    C36 9350   4.638   8.474   5.565  0.1753  0.1583 -0.1975
  112HK4    H18 9351   4.547   8.411   5.566  1.2607 -1.4369  0.1638
  112HK4    C37 9352   4.759   8.423   5.518 -0.0022 -0.2509 -0.2146
  112HK4    H19 9353   4.768   8.326   5.470  0.8482  0.0804 -0.7248
  112HK4    C38 9354   4.871   8.504   5.507 -0.2233  0.0709 -0.0836
  112HK4    H20 9355   4.968   8.468   5.475 -0.4468  0.1191 -0.8348
  112HK4    C14 9356   5.157   9.130   5.526  0.4673  0.1999 -0.4059
  112HK4     C9 9357   5.267   9.176   5.452  0.6867  0.1947 -0.0842
  112HK4     C8 9358   5.350   9.280   5.498  0.2498  0.7074 -0.4407
  112HK4    C11 9359   5.295   9.363   5.596 -0.4020 -0.3239  0.0738
  112HK4     H4 9360   5.346   9.460   5.606  0.8369 -1.1451  2.0363
  112HK4    C12 9361   5.175   9.339   5.662 -0.1216 -0.5984  0.4815
  112HK4     H5 9362   5.130   9.410   5.733  0.4530  2.7302 -2.3563
  112HK4    C13 9363   5.112   9.222   5.623  0.1579 -0.6902  0.2976
  112HK4     H6 9364   5.024   9.196   5.684  0.4688  1.4858  1.7164
  112HK4     C7 9365   5.475   9.309   5.424  0.4849  0.3600 -0.1843
  112HK4     O2 9366   5.572   9.357   5.481  0.7033 -0.1684 -0.1051
  112HK4     C4 9367   5.503   9.246   5.292 -0.1783 -0.5511  0.1065
  112HK4     C3 9368   5.613   9.280   5.215 -0.4872  0.0781 -0.0595
  112HK4     H3 9369   5.690   9.354   5.240  0.1920 -0.1158 -1.5215
  112HK4     C2 9370   5.653   9.200   5.108  0.2359  0.2713  0.0674
  112HK4     H2 9371   5.719   9.256   5.040 -0.0591  2.7071  1.7134
  112HK4     C1 9372   5.573   9.092   5.074  0.4030 -0.0293  0.6216
  112HK4     H1 9373   5.611   9.022   4.999 -0.4373  2.7923 -2.5776
  112HK4     C6 9374   5.456   9.051   5.142 -0.3057  0.2841 -0.3881
  112HK4     C5 9375   5.423   9.139   5.246 -0.5148 -0.2579  0.0057
  112HK4    C10 9376   5.295   9.117   5.318 -0.4708 -0.5491 -0.0036
  112HK4     O1 9377   5.197   9.097   5.247 -0.4571  0.6024 -0.3469
  112HK4    C16 9378   5.445   8.906   5.163  0.1890  0.2729 -0.1843
  112HK4    C15 9379   5.562   8.831   5.185 -0.1675 -0.0881  0.5139
  112HK4     H7 9380   5.661   8.880   5.180 -0.8448  1.4218  1.8918
  112HK4    C20 9381   5.555   8.694   5.212  0.1274 -0.0367  0.8426
  112HK4     H9 9382   5.648   8.640   5.226  0.9162  1.6744  2.5628
  112HK4    C19 9383   5.432   8.631   5.208  0.2058 -0.1398 -0.0167
  112HK4    C18 9384   5.315   8.705   5.162  0.1929  0.2091  0.5667
  112HK4    C17 9385   5.323   8.842   5.145  0.0913  0.2221  0.6277
  112HK4     H8 9386   5.240   8.878   5.083  1.5789 -1.2285 -2.2918
  112HK4     N1 9387   5.207   8.618   5.185  0.0672  0.2011 -0.0571
  112HK4    C21 9388   5.251   8.498   5.245 -0.0719 -0.3383 -1.0105
  112HK4    C22 9389   5.396   8.498   5.254 -0.0884 -0.3110 -0.7371
  112HK4    C26 9390   5.469   8.386   5.290 -0.4611 -0.2875  0.0996
  112HK4    H13 9391   5.577   8.376   5.278 -0.5507  0.2724 -1.1863
  112HK4    C25 9392   5.399   8.269   5.318 -0.0484 -0.3977  0.6959
  112HK4    H12 9393   5.451   8.186   5.364  0.1676 -0.4507  0.3591
  112HK4    C24 9394   5.260   8.267   5.314 -0.0460  0.3030  0.0450
  112HK4    H11 9395   5.211   8.178   5.358 -1.5008  0.8276 -0.4672
  112HK4    C23 9396   5.186   8.381   5.281 -0.3324  0.0225 -0.2884
  112HK4    H10 9397   5.079   8.382   5.263 -0.0770  1.5900 -1.8431
  112HK4    C39 9398   5.089   8.633   5.111  0.0596  0.3190 -0.0204
  112HK4    C41 9399   4.964   8.604   5.171 -0.2838  0.6912 -0.5569
  112HK4    H21 9400   4.951   8.571   5.275  0.2598  0.9058 -0.4204
  112HK4    C42 9401   4.846   8.612   5.098 -0.4148  0.0250 -0.4221
  112HK4    H22 9402   4.747   8.580   5.134 -1.1771  2.6025 -0.1260
  112HK4    C43 9403   4.856   8.653   4.965 -0.3278  0.8110 -0.1739
  112HK4    H23 9404   4.762   8.672   4.914 -0.2340 -0.7877 -0.9709
  112HK4    C44 9405   4.972   8.697   4.903  0.0089 -0.2796 -0.3223
  112HK4    H24 9406   4.980   8.751   4.807 -1.6454  0.2396 -0.1843
  112HK4    C45 9407   5.087   8.684   4.980 -0.0666 -0.0873 -0.1786
  112HK4    H25 9408   5.185   8.711   4.937 -0.0896  1.1936  0.5360
  113HK4    H28 9409   9.184   9.461   6.524  0.7292 -0.5416 -1.0696
  113HK4    C48 9410   9.105   9.500   6.460  0.2883  0.0646 -0.1611
  113HK4    C47 9411   9.003   9.581   6.508  0.3673  0.1250 -0.0903
  113HK4    H27 9412   8.984   9.593   6.616  1.8945  1.9512 -0.0081
  113HK4    C46 9413   8.904   9.630   6.423 -0.0842  0.1112  0.4210
  113HK4    H26 9414   8.831   9.702   6.462  1.3571  0.5584  2.3814
  113HK4    C40 9415   8.908   9.598   6.285 -0.1968 -0.0128  0.4452
  113HK4    C50 9416   9.015   9.517   6.240 -0.1930  0.3729 -0.2510
  113HK4    H30 9417   9.027   9.527   6.131  2.1775  1.3008  0.0657
  113HK4    C49 9418   9.109   9.463   6.326 -0.3305  0.1859 -0.2178
  113HK4    H29 9419   9.196   9.409   6.286  1.3521  0.2663  3.1321
  113HK4     N2 9420   8.796   9.618   6.204 -0.1102 -0.3883  0.2376
  113HK4    C30 9421   8.789   9.630   6.063  0.2300 -0.7002  0.1924
  113HK4    C29 9422   8.889   9.668   5.974 -0.2046  0.3603  0.1520
  113HK4    H15 9423   8.976   9.729   6.000  0.0151  0.4522 -0.7868
  113HK4    C28 9424   8.882   9.639   5.838 -0.1144  0.2384  0.1727
  113HK4    C27 9425   8.762   9.579   5.794 -0.1064  0.6281 -0.3733
  113HK4    H14 9426   8.754   9.547   5.689  0.4716 -1.5076  0.2002
  113HK4    C32 9427   8.656   9.547   5.878  0.0765  0.4946 -0.1930
  113HK4    H16 9428   8.561   9.507   5.844 -0.2794 -1.1212  2.5729
  113HK4    C31 9429   8.667   9.568   6.015 -0.1053  0.2173 -0.1362
  113HK4    C34 9430   8.585   9.540   6.131 -0.2063  0.1136 -0.2303
  113HK4    C33 9431   8.665   9.585   6.244 -0.4204  0.3474 -0.1700
  113HK4    C35 9432   8.599   9.608   6.363  0.1939 -0.7890  0.3966
  113HK4    H17 9433   8.650   9.659   6.445  0.0214 -0.3051  0.2013
  113HK4    C36 9434   8.466   9.572   6.382  0.1436 -0.7843  0.0548
  113HK4    H18 9435   8.410   9.604   6.471  0.3912  1.2251 -0.4716
  113HK4    C37 9436   8.400   9.510   6.276 -0.4547  0.6398 -0.4148
  113HK4    H19 9437   8.299   9.475   6.292 -0.3650 -0.5671 -2.3341
  113HK4    C38 9438   8.452   9.502   6.147 -0.2341  0.1936 -0.2986
  113HK4    H20 9439   8.384   9.509   6.062  0.4750  1.4168 -0.7872
  113HK4    C14 9440   8.969   9.714   5.748 -0.2611  0.1647 -0.0284
  113HK4     C9 9441   8.943   9.748   5.614 -0.0850  0.2693 -0.0377
  113HK4     C8 9442   9.047   9.786   5.528  0.1710  0.1017  0.2023
  113HK4    C11 9443   9.179   9.798   5.571  0.1053 -0.3671  0.5433
  113HK4     H4 9444   9.261   9.808   5.499  0.5086 -0.6341  0.9642
  113HK4    C12 9445   9.204   9.781   5.707  0.4781  0.0125  0.5224
  113HK4     H5 9446   9.297   9.826   5.744  0.6353 -1.2662  1.7497
  113HK4    C13 9447   9.103   9.734   5.789  0.0007 -0.6864 -0.4469
  113HK4     H6 9448   9.137   9.699   5.888  1.4383  0.4593 -0.5310
  113HK4     C7 9449   9.019   9.784   5.382  0.0159 -0.2260  0.2389
  113HK4     O2 9450   9.089   9.856   5.312 -0.2263 -0.1862  0.0398
  113HK4     C4 9451   8.891   9.731   5.330  0.1586 -0.2028 -0.1435
  113HK4     C3 9452   8.877   9.712   5.193  0.3622 -0.4828 -0.1249
  113HK4     H3 9453   8.972   9.692   5.142  2.3006  2.3107  2.2475
  113HK4     C2 9454   8.751   9.710   5.133  0.1530  0.4653  0.2628
  113HK4     H2 9455   8.735   9.728   5.026 -0.8127 -0.5323  0.2250
  113HK4     C1 9456   8.639   9.695   5.215 -0.1868  0.1055 -0.2671
  113HK4     H1 9457   8.547   9.647   5.180  0.4180 -1.4137  0.1877
  113HK4     C6 9458   8.653   9.703   5.355 -0.0275 -0.0483 -0.2749
  113HK4     C5 9459   8.777   9.728   5.414 -0.0107  0.0893 -0.3630
  113HK4    C10 9460   8.804   9.751   5.559  0.0131 -0.2366 -0.3169
  113HK4     O1 9461   8.724   9.822   5.619  0.2720 -0.3225  0.1311
  113HK4    C16 9462   8.523   9.724   5.419  0.4820  0.7353  0.5085
  113HK4    C15 9463   8.491   9.663   5.542 -0.0193  0.0198  0.0267
  113HK4     H7 9464   8.568   9.594   5.579  0.4398  1.1942  1.3207
  113HK4    C20 9465   8.387   9.705   5.624  0.2315  0.2452  0.2321
  113HK4     H9 9466   8.371   9.665   5.724  0.8557 -2.9516 -0.8754
  113HK4    C19 9467   8.305   9.804   5.571 -0.0654 -0.1876 -0.1262
  113HK4    C18 9468   8.340   9.884   5.455 -0.1172 -0.2166 -0.1603
  113HK4    C17 9469   8.447   9.834   5.382 -0.3402 -0.1637 -0.5173
  113HK4     H8 9470   8.484   9.890   5.296  0.6499  0.0785  0.0666
  113HK4     N1 9471   8.240   9.973   5.411  0.0333 -0.3891 -0.8510
  113HK4    C21 9472   8.142   9.954   5.511  0.7233  0.6004  0.0163
  113HK4    C22 9473   8.174   9.852   5.609  0.0243  0.1396 -0.2292
  113HK4    C26 9474   8.096   9.831   5.722 -0.2711  0.4287 -0.3783
  113HK4    H13 9475   8.107   9.745   5.788 -0.4001  0.4001 -0.3881
  113HK4    C25 9476   7.980   9.906   5.738 -0.3339  0.2108  0.1839
  113HK4    H12 9477   7.917   9.884   5.825 -0.1553 -0.1045  0.2341
  113HK4    C24 9478   7.950  10.004   5.644 -0.1150  0.1803  0.0834
  113HK4    H11 9479   7.856  10.061   5.643 -0.4024 -0.2754 -1.7698
  113HK4    C23 9480   8.027  10.030   5.531 -0.0853 -0.5834 -0.0764
  113HK4    H10 9481   8.010  10.117   5.468  1.4620 -2.0334 -2.5951
  113HK4    C39 9482   8.257  10.074   5.315 -0.1903  0.4487 -0.0162
  113HK4    C41 9483   8.134  10.112   5.257 -0.3387 -0.0123 -0.0003
  113HK4    H21 9484   8.033  10.069   5.270 -0.2173  0.0555  1.1984
  113HK4    C42 9485   8.135  10.217   5.166 -0.4821  0.5576  0.6513
  113HK4    H22 9486   8.038  10.252   5.126  0.5022  3.7025  0.9328
  113HK4    C43 9487   8.254  10.282   5.139 -0.2945 -0.0240  0.0771
  113HK4    H23 9488   8.255  10.337   5.044 -0.5296  1.1347  0.7418
  113HK4    C44 9489   8.375  10.239   5.190 -0.2526 -0.1967 -0.1705
  113HK4    H24 9490   8.452  10.318   5.190 -0.0958 -0.3397  0.2406
  113HK4    C45 9491   8.380  10.133   5.281  0.0482 -0.0152  0.0282
  113HK4    H25 9492   8.482  10.096   5.299  0.9897  2.7343  0.6299
  114HK4    H28 9493   0.895   6.790   9.897 -0.8209  1.2359 -0.8124
  114HK4    C48 9494   0.994   6.831   9.876 -0.0229 -0.2099  0.0906
  114HK4    C47 9495   1.040   6.935   9.956 -0.2114  0.1206 -0.2341
  114HK4    H27 9496   0.971   6.982  10.027 -0.9006 -2.7374  1.1037
  114HK4    C46 9497   1.173   6.971   9.939 -0.1510 -0.0391 -0.1078
  114HK4    H26 9498   1.228   7.011  10.026  0.9524 -1.4620 -0.1377
  114HK4    C40 9499   1.257   6.911   9.843 -0.0018 -0.0477  0.0277
  114HK4    C50 9500   1.205   6.806   9.765  0.4053 -0.2075 -0.0272
  114HK4    H30 9501   1.266   6.771   9.681  0.7119  0.5084 -0.1062
  114HK4    C49 9502   1.073   6.767   9.781  0.3295  0.1218  0.1537
  114HK4    H29 9503   1.029   6.678   9.733  3.3528 -0.5511 -1.4697
  114HK4     N2 9504   1.374   6.975   9.800 -0.0451  0.0900  0.1142
  114HK4    C30 9505   1.390   7.114   9.790 -0.1731  0.1136  0.2549
  114HK4    C29 9506   1.294   7.212   9.762  0.0203  0.3228  0.3162
  114HK4    H15 9507   1.189   7.184   9.757  0.3822 -1.0730  0.0235
  114HK4    C28 9508   1.330   7.343   9.733 -0.1126  0.2860 -0.0220
  114HK4    C27 9509   1.467   7.376   9.739 -0.0139 -0.1925  0.4943
  114HK4    H14 9510   1.500   7.481   9.735  0.1430 -0.2604 -0.1133
  114HK4    C32 9511   1.564   7.281   9.765  0.2892  0.0322  0.1957
  114HK4    H16 9512   1.670   7.303   9.747 -0.4296  0.5943 -3.6638
  114HK4    C31 9513   1.530   7.148   9.791 -0.1912  0.1855  0.3620
  114HK4    C34 9514   1.607   7.026   9.796 -0.1946  0.1869  0.4523
  114HK4    C33 9515   1.505   6.923   9.798 -0.0624  0.0474  0.1204
  114HK4    C35 9516   1.547   6.793   9.829 -0.2135 -0.0792 -0.2058
  114HK4    H17 9517   1.479   6.708   9.831  0.5904 -0.7109  0.0068
  114HK4    C36 9518   1.681   6.770   9.857 -0.0501  0.1191 -0.8172
  114HK4    H18 9519   1.700   6.693   9.932  1.8572  1.4133  0.0532
  114HK4    C37 9520   1.778   6.868   9.846 -0.1088  0.2429 -0.2131
  114HK4    H19 9521   1.878   6.840   9.878  0.5607  0.3266 -2.1437
  114HK4    C38 9522   1.742   6.999   9.815 -0.1171  0.3126  0.0836
  114HK4    H20 9523   1.810   7.081   9.791  0.4937 -0.6215 -1.4915
  114HK4    C14 9524   1.230   7.424   9.664 -0.4142 -0.1768 -0.1316
  114HK4     C9 9525   1.252   7.512   9.557  0.6323  0.3932  0.5474
  114HK4     C8 9526   1.165   7.622   9.543 -0.0432 -0.2420 -0.2824
  114HK4    C11 9527   1.044   7.629   9.611  0.3238  0.1273  0.3412
  114HK4     H4 9528   0.968   7.699   9.573  0.9824  0.4521 -0.3832
  114HK4    C12 9529   1.016   7.539   9.714 -1.0325 -0.0744 -0.1840
  114HK4     H5 9530   0.928   7.559   9.777 -0.9414 -0.2376 -0.0059
  114HK4    C13 9531   1.114   7.444   9.741 -0.6598  0.1881 -0.5908
  114HK4     H6 9532   1.095   7.388   9.834 -2.0968  0.2761 -0.8101
  114HK4     C7 9533   1.214   7.741   9.471  0.4876 -0.5315 -0.4074
  114HK4     O2 9534   1.140   7.838   9.451  0.6096 -0.3995 -0.2113
  114HK4     C4 9535   1.356   7.747   9.431  0.4912  0.3773 -0.2657
  114HK4     C3 9536   1.403   7.866   9.377 -0.1587  0.4735 -0.6266
  114HK4     H3 9537   1.347   7.960   9.379 -0.4072  0.3148  0.0020
  114HK4     C2 9538   1.528   7.874   9.316  0.0222  0.4193 -0.2666
  114HK4     H2 9539   1.568   7.969   9.277  2.2427  0.2003  1.3528
  114HK4     C1 9540   1.605   7.758   9.308 -0.6357 -0.0020 -0.4752
  114HK4     H1 9541   1.702   7.750   9.257  0.8218 -0.2186  2.2625
  114HK4     C6 9542   1.566   7.637   9.369  0.5471 -0.1979 -0.0965
  114HK4     C5 9543   1.436   7.632   9.421  0.6846  0.4595  0.3194
  114HK4    C10 9544   1.372   7.506   9.469  0.5743  0.5660  0.4553
  114HK4     O1 9545   1.376   7.406   9.397 -0.2565  0.6361  0.3096
  114HK4    C16 9546   1.673   7.561   9.433  0.1339 -0.7405 -0.0418
  114HK4    C15 9547   1.786   7.622   9.491 -0.0354 -0.0206 -0.4646
  114HK4     H7 9548   1.808   7.729   9.472  0.6639  0.0380  0.5936
  114HK4    C20 9549   1.889   7.544   9.542  0.0880  0.2442 -0.3062
  114HK4     H9 9550   1.981   7.588   9.581 -0.3204 -0.3235  1.3294
  114HK4    C19 9551   1.889   7.405   9.537 -0.5387  0.2120  0.5246
  114HK4    C18 9552   1.777   7.345   9.467  0.5155 -0.2082 -0.8188
  114HK4    C17 9553   1.675   7.423   9.416 -0.1779 -0.7194 -0.2262
  114HK4     H8 9554   1.617   7.379   9.335 -0.6561 -3.0681  1.3315
  114HK4     N1 9555   1.799   7.206   9.455  0.1221 -0.3550  0.0876
  114HK4    C21 9556   1.920   7.174   9.520  0.3831 -0.1682 -0.3054
  114HK4    C22 9557   1.981   7.297   9.566 -0.3784  0.1640 -0.1715
  114HK4    C26 9558   2.089   7.290   9.653 -0.1808 -0.0207 -0.4297
  114HK4    H13 9559   2.146   7.383   9.658 -0.6639  0.3816 -1.9531
  114HK4    C25 9560   2.140   7.169   9.700  0.0677  0.2469 -0.0174
  114HK4    H12 9561   2.222   7.160   9.771 -0.3900  0.3839  0.5379
  114HK4    C24 9562   2.082   7.052   9.653 -0.1163  0.2361  0.2352
  114HK4    H11 9563   2.124   6.954   9.681  0.1785 -0.0349 -1.1205
  114HK4    C23 9564   1.975   7.055   9.564  0.1744 -0.1986 -0.1249
  114HK4    H10 9565   1.935   6.958   9.536  1.0949 -0.1777 -1.6126
  114HK4    C39 9566   1.697   7.112   9.432 -0.1658  0.0946 -0.4986
  114HK4    C41 9567   1.730   6.989   9.373  0.3627 -0.0590  0.1072
  114HK4    H21 9568   1.835   6.956   9.367  0.5537  0.4412  0.7430
  114HK4    C42 9569   1.631   6.892   9.365  0.0920  0.1648  0.7652
  114HK4    H22 9570   1.651   6.802   9.306 -1.2728  0.1697  0.2705
  114HK4    C43 9571   1.500   6.908   9.411 -0.2235 -0.2853  0.0278
  114HK4    H23 9572   1.443   6.821   9.441 -0.6897  0.1179  0.3102
  114HK4    C44 9573   1.463   7.031   9.465  0.0660 -0.2144  0.0662
  114HK4    H24 9574   1.362   7.057   9.497 -0.5837 -1.8970 -0.5697
  114HK4    C45 9575   1.561   7.130   9.464 -0.0432 -0.1072  0.1523
  114HK4    H25 9576   1.532   7.233   9.490 -1.5074  0.0256 -1.8309
  115HK4    H28 9577   8.460   2.374   4.845  2.5997 -0.6806  1.8287
  115HK4    C48 9578   8.536   2.414   4.779  0.3531  0.4702 -0.1297
  115HK4    C47 9579   8.495   2.470   4.658 -0.5059 -0.6510 -0.3745
  115HK4    H27 9580   8.393   2.507   4.643 -0.5421  0.3555  2.0425
  115HK4    C46 9581   8.582   2.465   4.550 -0.1359 -0.2665 -0.0990
  115HK4    H26 9582   8.551   2.487   4.446  0.2900  0.6616 -0.0334
  115HK4    C40 9583   8.712   2.410   4.559 -0.0222  0.0088 -0.0523
  115HK4    C50 9584   8.749   2.355   4.683  0.0772 -0.3040 -0.2211
  115HK4    H30 9585   8.841   2.296   4.693 -0.1916 -0.8633 -0.9754
  115HK4    C49 9586   8.662   2.358   4.791  0.2805  0.3240 -0.0729
  115HK4    H29 9587   8.706   2.325   4.887 -0.7281  0.7342  0.5352
  115HK4     N2 9588   8.786   2.380   4.443 -0.3229  0.0762 -0.2631
  115HK4    C30 9589   8.738   2.328   4.322 -0.4979  1.4508 -0.7873
  115HK4    C29 9590   8.615   2.276   4.281 -0.1035 -0.7039  0.6728
  115HK4    H15 9591   8.524   2.313   4.328  1.1566  2.2355  0.9498
  115HK4    C28 9592   8.598   2.215   4.157  0.4685 -0.4843  0.4812
  115HK4    C27 9593   8.709   2.198   4.072 -0.0369  0.0744 -0.2953
  115HK4    H14 9594   8.686   2.167   3.969 -0.2171 -0.2079 -0.1720
  115HK4    C32 9595   8.835   2.242   4.112  0.0713 -0.6717  0.2162
  115HK4    H16 9596   8.925   2.208   4.061  0.2269  0.1280 -0.0428
  115HK4    C31 9597   8.851   2.306   4.234 -0.2945  0.2981 -0.2407
  115HK4    C34 9598   8.968   2.363   4.298 -0.0985 -0.8972  0.4833
  115HK4    C33 9599   8.924   2.403   4.430 -0.3679  0.4987 -0.0261
  115HK4    C35 9600   9.019   2.447   4.522 -0.3565  0.5057 -0.0447
  115HK4    H17 9601   8.986   2.495   4.614  2.4591  1.0944  0.6891
  115HK4    C36 9602   9.152   2.458   4.484 -0.2712  0.4188  0.2245
  115HK4    H18 9603   9.226   2.501   4.552  0.9465 -1.0452 -0.1306
  115HK4    C37 9604   9.195   2.419   4.357 -0.5104 -0.4197  0.3939
  115HK4    H19 9605   9.303   2.415   4.343 -0.6259  0.0955 -0.6848
  115HK4    C38 9606   9.103   2.369   4.266 -0.2169 -0.3764  0.0744
  115HK4    H20 9607   9.131   2.323   4.171 -1.3226 -1.4964  0.2742
  115HK4    C14 9608   8.484   2.126   4.130  0.0339  0.2426 -0.0849
  115HK4     C9 9609   8.488   1.996   4.078 -0.2729  0.2139 -0.0396
  115HK4     C8 9610   8.391   1.947   3.990  0.2767 -0.1243 -0.4623
  115HK4    C11 9611   8.279   2.026   3.968  0.3415  0.2490  0.5369
  115HK4     H4 9612   8.199   2.005   3.895 -1.4792  0.3540  2.4696
  115HK4    C12 9613   8.254   2.147   4.033  0.5904  0.6842 -0.1710
  115HK4     H5 9614   8.160   2.203   4.024 -0.3928 -0.6991  1.3168
  115HK4    C13 9615   8.358   2.187   4.115 -0.1542  0.1343  1.0443
  115HK4     H6 9616   8.344   2.283   4.168 -0.7999  0.6690 -0.0859
  115HK4     C7 9617   8.414   1.823   3.912 -0.1433 -0.0728 -0.6735
  115HK4     O2 9618   8.342   1.802   3.815  0.1510 -1.0123 -0.6910
  115HK4     C4 9619   8.538   1.744   3.930 -0.1348  0.0574 -0.1237
  115HK4     C3 9620   8.571   1.641   3.842  0.3405  0.1744 -0.0839
  115HK4     H3 9621   8.502   1.600   3.768 -0.6937 -0.5272  1.2469
  115HK4     C2 9622   8.699   1.588   3.842  0.3223  0.1218 -0.0484
  115HK4     H2 9623   8.700   1.484   3.806 -1.2791  0.2829 -0.5528
  115HK4     C1 9624   8.799   1.639   3.926 -0.0364 -0.0420  0.4801
  115HK4     H1 9625   8.900   1.601   3.907 -0.0843 -0.7001  1.4872
  115HK4     C6 9626   8.774   1.746   4.013 -0.1366  0.4079 -0.0952
  115HK4     C5 9627   8.641   1.792   4.014 -0.0839  0.5622 -0.4676
  115HK4    C10 9628   8.602   1.903   4.105 -0.1492  0.3181 -0.1963
  115HK4     O1 9629   8.635   1.898   4.223 -0.1737  0.0267 -0.2017
  115HK4    C16 9630   8.892   1.826   4.047  0.3825 -0.1750 -0.5252
  115HK4    C15 9631   8.981   1.865   3.945  0.6964 -0.6200 -0.4230
  115HK4     H7 9632   8.950   1.846   3.841 -0.7446 -0.7459  0.0260
  115HK4    C20 9633   9.097   1.931   3.984  0.1886  0.0461 -0.0222
  115HK4     H9 9634   9.172   1.959   3.910  0.7910  0.3549  0.7030
  115HK4    C19 9635   9.128   1.961   4.116 -0.2682 -0.0477  0.1063
  115HK4    C18 9636   9.038   1.915   4.221 -0.7361  0.2267 -0.1741
  115HK4    C17 9637   8.927   1.842   4.181 -0.0962 -0.6686 -0.3368
  115HK4     H8 9638   8.879   1.776   4.253  0.7711 -2.6740 -1.5550
  115HK4     N1 9639   9.081   1.962   4.347 -0.1831 -0.7402 -0.0014
  115HK4    C21 9640   9.196   2.039   4.322 -0.7383  0.1683  0.2398
  115HK4    C22 9641   9.231   2.041   4.181 -0.4301 -0.0070  0.3134
  115HK4    C26 9642   9.349   2.103   4.142 -0.7658  0.2314 -0.3401
  115HK4    H13 9643   9.390   2.114   4.042  0.9586 -1.8223  0.0990
  115HK4    C25 9644   9.430   2.157   4.240 -0.4425 -1.3425  0.2728
  115HK4    H12 9645   9.527   2.193   4.206 -0.1219  0.5787  3.0601
  115HK4    C24 9646   9.399   2.159   4.376 -0.0421  0.5415  0.3453
  115HK4    H11 9647   9.466   2.213   4.445 -1.9766  1.5564  1.4643
  115HK4    C23 9648   9.277   2.106   4.414  0.1229 -0.2468 -0.2088
  115HK4    H10 9649   9.233   2.149   4.504  1.5804  3.5040 -1.1945
  115HK4    C39 9650   8.996   1.979   4.457 -0.1932 -0.0292 -0.1187
  115HK4    C41 9651   9.048   1.992   4.588 -0.4914 -0.1010  0.0072
  115HK4    H21 9652   9.151   1.962   4.609 -0.0589  1.1262 -0.2868
  115HK4    C42 9653   8.958   2.017   4.691 -0.0560 -0.3865  0.4546
  115HK4    H22 9654   8.998   2.053   4.787 -1.9243  2.0685  0.3517
  115HK4    C43 9655   8.822   2.040   4.670  0.1773  0.3685 -0.2566
  115HK4    H23 9656   8.758   2.060   4.755  0.8832 -1.0655  0.6328
  115HK4    C44 9657   8.771   2.034   4.541 -0.2229 -0.2468 -0.0687
  115HK4    H24 9658   8.666   2.053   4.516 -0.0637 -0.9585 -1.3663
  115HK4    C45 9659   8.859   2.002   4.437 -0.1469  0.2235 -0.1463
  115HK4    H25 9660   8.824   2.011   4.334  0.6327 -0.4089 -0.4674
  116HK4    H28 9661   8.666   5.269  11.126 -2.3095  1.5490 -1.3764
  116HK4    C48 9662   8.701   5.349  11.190  0.0858 -0.5703  0.0297
  116HK4    C47 9663   8.613   5.359   0.049  0.4756 -0.9547  0.3974
  116HK4    H27 9664   8.505   5.337   0.037  0.4303 -1.1263  1.1395
  116HK4    C46 9665   8.652   5.389   0.179 -0.0313  0.9955  0.1260
  116HK4    H26 9666   8.574   5.387   0.257 -0.4002  0.5143 -0.2466
  116HK4    C40 9667   8.790   5.400   0.204  0.0473  0.0219  0.1485
  116HK4    C50 9668   8.880   5.384   0.097 -0.1189  0.5973 -0.0797
  116HK4    H30 9669   8.982   5.351   0.123 -0.2547 -0.6381 -1.1368
  116HK4    C49 9670   8.838   5.360  11.215  0.0761 -0.5603  0.0652
  116HK4    H29 9671   8.914   5.347  11.137  2.3474  3.8982  1.3819
  116HK4     N2 9672   8.822   5.471   0.321  0.0860  0.0668  0.1112
  116HK4    C30 9673   8.744   5.570   0.384 -0.9964 -0.7139  0.0066
  116HK4    C29 9674   8.682   5.676   0.319  0.7746  0.5772  0.3985
  116HK4    H15 9675   8.691   5.693   0.212 -0.5438  0.2087  0.2195
  116HK4    C28 9676   8.618   5.768   0.401 -0.8804 -0.0970 -0.1120
  116HK4    C27 9677   8.629   5.764   0.541  0.5296  0.4854 -0.1979
  116HK4    H14 9678   8.551   5.815   0.599  0.4236  0.4166 -0.2797
  116HK4    C32 9679   8.708   5.670   0.606 -0.6641 -0.4220 -0.0485
  116HK4    H16 9680   8.747   5.685   0.707 -1.2738 -4.9255  0.9447
  116HK4    C31 9681   8.763   5.569   0.528  0.3124  0.1772 -0.1523
  116HK4    C34 9682   8.860   5.465   0.557  0.0540 -0.1972 -0.6160
  116HK4    C33 9683   8.894   5.412   0.427  1.0020  0.0925 -0.4915
  116HK4    C35 9684   8.973   5.298   0.431 -0.3344 -0.8247  0.2502
  116HK4    H17 9685   8.998   5.251   0.336 -0.2534  1.4874 -0.9039
  116HK4    C36 9686   9.031   5.253   0.549  0.3600 -0.0034  0.2231
  116HK4    H18 9687   9.095   5.165   0.537 -0.0170 -0.0752 -1.3629
  116HK4    C37 9688   9.010   5.315   0.672 -0.4941 -0.0103  0.0866
  116HK4    H19 9689   9.060   5.282   0.764  2.5264  0.7505 -1.2084
  116HK4    C38 9690   8.921   5.422   0.674 -0.6691 -0.1501 -0.2188
  116HK4    H20 9691   8.905   5.484   0.762  0.0622  0.1372 -0.2901
  116HK4    C14 9692   8.579   5.893   0.333 -0.1007  0.1600 -0.0982
  116HK4     C9 9693   8.601   6.023   0.379 -0.4197 -0.0028  0.5206
  116HK4     C8 9694   8.503   6.120   0.348  0.0535  0.1201 -0.6246
  116HK4    C11 9695   8.400   6.100   0.258 -0.5127  0.4296 -0.0502
  116HK4     H4 9696   8.321   6.175   0.241 -0.7367  0.5811  1.6051
  116HK4    C12 9697   8.387   5.973   0.203 -0.9598  0.2483  0.4665
  116HK4     H5 9698   8.321   5.957   0.116  0.3754  1.0517 -0.7190
  116HK4    C13 9699   8.475   5.872   0.240 -0.1164  0.7307 -0.2157
  116HK4     H6 9700   8.455   5.767   0.212 -1.1349  0.7367  0.4552
  116HK4     C7 9701   8.522   6.259   0.394 -0.2186 -0.0426 -0.0099
  116HK4     O2 9702   8.431   6.341   0.387 -0.4302 -0.2668  0.1252
  116HK4     C4 9703   8.650   6.300   0.457 -0.2808 -0.1137  0.1654
  116HK4     C3 9704   8.667   6.430   0.502  0.4102  0.1313 -0.7740
  116HK4     H3 9705   8.579   6.495   0.513  1.6915  1.6321  0.8741
  116HK4     C2 9706   8.792   6.474   0.544  0.2432 -0.0622 -0.0701
  116HK4     H2 9707   8.799   6.577   0.582  1.5061 -0.5726  1.1254
  116HK4     C1 9708   8.905   6.394   0.533  0.2773 -0.0006 -0.1267
  116HK4     H1 9709   8.997   6.430   0.582  1.5106 -1.4666 -1.3421
  116HK4     C6 9710   8.890   6.264   0.483 -0.3106  0.0641 -0.1223
  116HK4     C5 9711   8.762   6.214   0.456 -0.2228 -0.0349 -0.3479
  116HK4    C10 9712   8.733   6.070   0.430 -0.1481 -0.0970 -0.0899
  116HK4     O1 9713   8.811   5.986   0.474  0.1200  0.0418 -0.2985
  116HK4    C16 9714   9.017   6.205   0.438 -0.0708  0.6143 -0.1504
  116HK4    C15 9715   9.147   6.233   0.483 -0.0683  0.2098  0.0952
  116HK4     H7 9716   9.164   6.279   0.582 -0.0930 -0.7791  0.5690
  116HK4    C20 9717   9.266   6.202   0.419 -0.0876 -0.0008  0.1601
  116HK4     H9 9718   9.354   6.265   0.430 -1.1467  1.2835  1.4092
  116HK4    C19 9719   9.259   6.121   0.306  0.5169 -0.0034  0.1222
  116HK4    C18 9720   9.128   6.080   0.259  0.4936  0.3264 -0.0956
  116HK4    C17 9721   9.014   6.125   0.324  0.5639 -0.4645  0.5841
  116HK4     H8 9722   8.921   6.111   0.268  0.8469  1.9133 -0.5276
  116HK4     N1 9723   9.145   5.975   0.167  0.0643  0.6460 -0.5419
  116HK4    C21 9724   9.282   5.943   0.170 -0.0498  0.1550 -0.3888
  116HK4    C22 9725   9.361   6.030   0.257  0.0887 -0.4832  0.1259
  116HK4    C26 9726   9.499   6.019   0.269  0.1037 -0.1250  0.2940
  116HK4    H13 9727   9.553   6.090   0.331  1.5660 -0.4587 -0.5805
  116HK4    C25 9728   9.565   5.913   0.206  0.1166 -0.2564  0.5294
  116HK4    H12 9729   9.661   5.884   0.247  0.9812 -0.0319 -1.2945
  116HK4    C24 9730   9.494   5.835   0.116  0.4534  0.1105 -0.0569
  116HK4    H11 9731   9.546   5.755   0.061  1.1741 -1.1711  2.4151
  116HK4    C23 9732   9.356   5.849   0.100  0.4478  0.2131  0.0558
  116HK4    H10 9733   9.305   5.770   0.044 -0.9709  0.6080  0.7614
  116HK4    C39 9734   9.063   5.955   0.056  0.0454  0.1845 -0.4433
  116HK4    C41 9735   8.984   6.048  11.233 -0.5616 -0.1653 -0.2321
  116HK4    H21 9736   9.004   6.155  11.243 -1.2925 -0.0696  0.2677
  116HK4    C42 9737   8.879   6.013  11.150 -0.4105 -0.3171 -0.3585
  116HK4    H22 9738   8.817   6.090  11.102 -0.3130 -0.8223 -1.3266
  116HK4    C43 9739   8.843   5.879  11.139 -0.3328 -0.3857  0.2033
  116HK4    H23 9740   8.755   5.856  11.079  1.2401  0.0158 -2.3473
  116HK4    C44 9741   8.917   5.782  11.206 -0.1798 -0.4842 -0.1085
  116HK4    H24 9742   8.902   5.675  11.188 -0.9106 -0.3819 -0.1173
  116HK4    C45 9743   9.021   5.820   0.042 -0.7547  0.3545  0.2294
  116HK4    H25 9744   9.063   5.735   0.097  0.9588  0.7960 -0.3388
  117HK4    H28 9745   8.898   9.972   1.817  0.4255 -0.9707  0.7514
  117HK4    C48 9746   8.820   9.905   1.779  0.1369 -0.1291 -0.1604
  117HK4    C47 9747   8.847   9.821   1.672  0.8037 -0.5083  0.2998
  117HK4    H27 9748   8.926   9.854   1.604  1.1194 -0.1331  0.8529
  117HK4    C46 9749   8.757   9.722   1.635  0.3359  0.0916 -0.1829
  117HK4    H26 9750   8.765   9.664   1.541 -3.0673  0.2429 -0.6420
  117HK4    C40 9751   8.634   9.708   1.703  0.0061  0.6282 -0.6664
  117HK4    C50 9752   8.607   9.795   1.811  0.3889  0.2221 -0.2414
  117HK4    H30 9753   8.507   9.794   1.858 -0.3989 -0.1122 -1.8890
  117HK4    C49 9754   8.700   9.891   1.848  0.2831  0.1724  0.1589
  117HK4    H29 9755   8.667   9.964   1.923 -0.3257 -0.9909  1.0460
  117HK4     N2 9756   8.530   9.633   1.647 -0.6175  0.6146  0.4890
  117HK4    C30 9757   8.503   9.609   1.511 -0.1149  0.1550  0.4651
  117HK4    C29 9758   8.542   9.687   1.402  0.1831 -0.4643  0.1281
  117HK4    H15 9759   8.615   9.767   1.412  0.5088 -0.7640  0.1721
  117HK4    C28 9760   8.492   9.673   1.273  0.6439 -0.0747 -0.0965
  117HK4    C27 9761   8.395   9.572   1.254 -0.2731  0.6740  0.4992
  117HK4    H14 9762   8.363   9.545   1.152 -1.3419 -0.9822  1.2452
  117HK4    C32 9763   8.344   9.497   1.360 -0.7006  0.3128  0.0381
  117HK4    H16 9764   8.250   9.444   1.343 -1.2510  1.3416 -0.1940
  117HK4    C31 9765   8.395   9.515   1.488 -0.4697  0.6894 -0.1046
  117HK4    C34 9766   8.365   9.459   1.618 -0.1742  0.0050 -0.3276
  117HK4    C33 9767   8.451   9.534   1.708 -0.3533  0.0071 -0.1545
  117HK4    C35 9768   8.441   9.505   1.844  0.3138 -0.4443 -0.1991
  117HK4    H17 9769   8.487   9.574   1.915  0.0693 -0.0049 -0.4626
  117HK4    C36 9770   8.360   9.402   1.887  0.5775 -0.5514  0.0484
  117HK4    H18 9771   8.368   9.356   1.987 -0.4490  1.9622  1.3104
  117HK4    C37 9772   8.276   9.333   1.799  0.0652  0.3602 -0.1837
  117HK4    H19 9773   8.192   9.287   1.851  0.0979  0.7194  0.1879
  117HK4    C38 9774   8.280   9.358   1.663 -0.0153 -0.1036 -0.2720
  117HK4    H20 9775   8.230   9.290   1.594 -1.7145 -0.7152  1.5131
  117HK4    C14 9776   8.512   9.777   1.172  0.0017  0.2181  0.0744
  117HK4     C9 9777   8.429   9.803   1.063 -0.2409  1.0568  0.4556
  117HK4     C8 9778   8.487   9.841   0.940 -0.1666  0.0952  0.1953
  117HK4    C11 9779   8.617   9.890   0.934 -0.1622  0.0441 -0.2176
  117HK4     H4 9780   8.645   9.968   0.861  0.7486 -0.8777 -0.8600
  117HK4    C12 9781   8.691   9.890   1.052  0.2108 -0.1389 -0.4553
  117HK4     H5 9782   8.790   9.939   1.049 -0.5438  1.3463 -1.5283
  117HK4    C13 9783   8.643   9.827   1.166 -0.3132  1.0448 -0.0209
  117HK4     H6 9784   8.718   9.811   1.246 -2.5377 -1.4598  1.6384
  117HK4     C7 9785   8.410   9.821   0.815  0.0102  0.3624  0.0435
  117HK4     O2 9786   8.459   9.823   0.702  0.0526 -0.5098  0.0404
  117HK4     C4 9787   8.265   9.790   0.827  0.1633 -0.4514 -0.1643
  117HK4     C3 9788   8.192   9.745   0.718 -0.3574  0.7277 -0.3037
  117HK4     H3 9789   8.237   9.722   0.621 -2.5543  3.2263 -1.9782
  117HK4     C2 9790   8.057   9.712   0.723 -0.1196 -0.2303 -0.1063
  117HK4     H2 9791   8.013   9.671   0.631  0.8146 -1.1982 -0.1246
  117HK4     C1 9792   7.987   9.744   0.838  0.2728  0.4293 -0.0478
  117HK4     H1 9793   7.879   9.722   0.844  0.4186 -0.2061  0.3044
  117HK4     C6 9794   8.056   9.806   0.944  0.0336  0.0543  0.3347
  117HK4     C5 9795   8.196   9.810   0.949  0.0579 -0.0088 -0.2960
  117HK4    C10 9796   8.280   9.806   1.072 -0.3012 -0.0106 -0.0512
  117HK4     O1 9797   8.227   9.815   1.182 -0.3980  0.1394 -0.1098
  117HK4    C16 9798   7.973   9.875   1.044  0.0163  0.5148  0.0076
  117HK4    C15 9799   7.836   9.844   1.057  0.1494 -0.0715  0.0153
  117HK4     H7 9800   7.807   9.738   1.050  0.5194 -0.2723  1.2788
  117HK4    C20 9801   7.744   9.936   1.105  0.2360  0.2506 -0.4432
  117HK4     H9 9802   7.639   9.907   1.100  0.3248  0.2310 -3.9116
  117HK4    C19 9803   7.779  10.066   1.139 -0.2049  0.5038 -0.9350
  117HK4    C18 9804   7.919  10.100   1.129 -0.1361  0.4571 -0.1970
  117HK4    C17 9805   8.007  10.005   1.078  0.2730  0.2036  0.9717
  117HK4     H8 9806   8.108  10.043   1.060 -0.1869  1.0527  0.1436
  117HK4     N1 9807   7.934  10.240   1.138  0.2908  0.3840  0.1499
  117HK4    C21 9808   7.805  10.295   1.153  0.0982 -0.1507  0.4907
  117HK4    C22 9809   7.706  10.190   1.161 -0.2838  0.2120  0.5374
  117HK4    C26 9810   7.576  10.223   1.197 -0.5505  0.2731 -0.4700
  117HK4    H13 9811   7.498  10.150   1.219  0.7601 -0.5173  1.6825
  117HK4    C25 9812   7.544  10.356   1.220 -0.1895  0.2415  0.2079
  117HK4    H12 9813   7.439  10.383   1.215 -0.5887 -0.8018  2.4963
  117HK4    C24 9814   7.638  10.459   1.216  0.0619  0.0225  0.3603
  117HK4    H11 9815   7.604  10.562   1.237 -2.6489 -0.9586  0.9773
  117HK4    C23 9816   7.769  10.426   1.183 -0.0361 -0.0928  0.0805
  117HK4    H10 9817   7.850  10.499   1.182 -1.3159  1.3457 -1.5061
  117HK4    C39 9818   8.054  10.298   1.181  0.4037  0.0998  0.2270
  117HK4    C41 9819   8.084  10.430   1.143 -0.3367  0.3151  0.3884
  117HK4    H21 9820   8.041  10.477   1.054 -0.9331 -1.2821 -0.1896
  117HK4    C42 9821   8.172  10.514   1.210 -0.5923  0.4761  0.5199
  117HK4    H22 9822   8.191  10.616   1.173 -0.5581  0.3873  0.2902
  117HK4    C43 9823   8.239  10.460   1.320  0.0609  0.0649 -0.0724
  117HK4    H23 9824   8.290  10.532   1.383 -0.2036 -0.2899  0.5455
  117HK4    C44 9825   8.213  10.329   1.357 -0.1009  0.0590 -0.2075
  117HK4    H24 9826   8.269  10.300   1.447 -0.0428 -0.7572 -0.5059
  117HK4    C45 9827   8.122  10.245   1.293 -0.4540 -0.1966  0.6148
  117HK4    H25 9828   8.076  10.164   1.352 -0.0312 -0.0358  1.1656
  118HK4    H28 9829   7.087   1.210   0.435 -1.1113  2.7889 -0.9599
  118HK4    C48 9830   6.987   1.189   0.474 -0.3377 -0.1325 -0.4164
  118HK4    C47 9831   6.956   1.064   0.526  0.1128  0.0849  0.3864
  118HK4    H27 9832   7.009   0.973   0.494 -1.6003 -1.3726  1.6411
  118HK4    C46 9833   6.855   1.044   0.619 -0.0231 -0.1649  0.1859
  118HK4    H26 9834   6.835   0.943   0.658 -1.2736  0.1099  0.2857
  118HK4    C40 9835   6.778   1.151   0.670 -0.0830 -0.0821 -0.0791
  118HK4    C50 9836   6.802   1.273   0.603  1.0827 -0.0950  0.2912
  118HK4    H30 9837   6.747   1.362   0.636 -0.2509 -1.2456  1.2404
  118HK4    C49 9838   6.903   1.294   0.510  0.7964  0.6028  0.1340
  118HK4    H29 9839   6.924   1.394   0.470  1.5209  0.4885  0.2354
  118HK4     N2 9840   6.654   1.131   0.731  0.0414 -0.0578  0.1793
  118HK4    C30 9841   6.592   1.231   0.808 -0.0525 -0.2597  0.3660
  118HK4    C29 9842   6.635   1.356   0.851 -0.0160 -0.1684  0.0596
  118HK4    H15 9843   6.741   1.375   0.867  0.4059 -1.6330 -0.7977
  118HK4    C28 9844   6.544   1.440   0.913  0.1659  0.3249 -0.3369
  118HK4    C27 9845   6.411   1.400   0.938  0.3271  0.0743  0.1238
  118HK4    H14 9846   6.342   1.465   0.993  1.7322  2.7485 -1.1766
  118HK4    C32 9847   6.364   1.276   0.896  0.0391  0.4609 -0.7024
  118HK4    H16 9848   6.258   1.256   0.884  0.0070 -1.3216  2.0101
  118HK4    C31 9849   6.454   1.192   0.831 -0.0422 -0.3701  0.2458
  118HK4    C34 9850   6.431   1.069   0.757  0.3600 -0.3729  0.1253
  118HK4    C33 9851   6.560   1.030   0.704  0.3868 -0.3859  0.1973
  118HK4    C35 9852   6.572   0.901   0.653  0.2293 -0.6376  0.7905
  118HK4    H17 9853   6.639   0.874   0.571  0.1831  1.9312 -0.1449
  118HK4    C36 9854   6.470   0.807   0.665 -0.4506 -0.0847 -0.5148
  118HK4    H18 9855   6.474   0.705   0.624  0.1206  0.7337 -2.5656
  118HK4    C37 9856   6.352   0.841   0.732  0.1329  0.2234  0.3656
  118HK4    H19 9857   6.267   0.775   0.745 -1.3413  1.7154 -1.4151
  118HK4    C38 9858   6.333   0.973   0.771 -0.1719  0.1928  0.3150
  118HK4    H20 9859   6.236   1.005   0.811  1.3638  3.7198  1.3102
  118HK4    C14 9860   6.584   1.569   0.972  0.2122  0.1162  0.0939
  118HK4     C9 9861   6.530   1.635   1.083  0.2025 -0.2847  0.3269
  118HK4     C8 9862   6.544   1.775   1.088 -0.2396 -0.2173 -0.2146
  118HK4    C11 9863   6.613   1.845   0.990  0.1135  0.1481  0.2913
  118HK4     H4 9864   6.602   1.954   0.981 -0.0174 -0.0433 -2.1699
  118HK4    C12 9865   6.683   1.779   0.889 -0.0369  0.1365  0.1964
  118HK4     H5 9866   6.756   1.822   0.820 -0.3225  2.2451  1.1781
  118HK4    C13 9867   6.665   1.641   0.882  0.1636  0.1191  0.0519
  118HK4     H6 9868   6.731   1.586   0.812  1.3713  1.4119  0.1523
  118HK4     C7 9869   6.513   1.844   1.216 -0.2868  0.2618 -0.4832
  118HK4     O2 9870   6.509   1.967   1.218 -0.0583  0.2787 -0.8423
  118HK4     C4 9871   6.466   1.767   1.333 -0.3125  0.2922 -0.4734
  118HK4     C3 9872   6.470   1.819   1.462  0.0822 -0.6127 -0.1166
  118HK4     H3 9873   6.543   1.898   1.485  0.9145 -1.0303 -1.2392
  118HK4     C2 9874   6.408   1.754   1.568 -0.2192 -0.1879 -0.0344
  118HK4     H2 9875   6.410   1.806   1.665 -0.5248 -2.0844  1.0099
  118HK4     C1 9876   6.332   1.643   1.535 -1.0314  0.3481  0.0226
  118HK4     H1 9877   6.256   1.614   1.610 -0.0896 -0.2905  0.7412
  118HK4     C6 9878   6.327   1.586   1.407 -0.5131  0.4561 -0.0451
  118HK4     C5 9879   6.410   1.640   1.308  0.0944 -0.0242  0.1947
  118HK4    C10 9880   6.464   1.560   1.194 -0.7694 -0.1360 -0.1442
  118HK4     O1 9881   6.507   1.450   1.227  0.1370  0.2415 -0.0492
  118HK4    C16 9882   6.208   1.503   1.383 -0.1050 -0.2145  0.2229
  118HK4    C15 9883   6.154   1.503   1.252  0.6748  0.1029 -0.1021
  118HK4     H7 9884   6.196   1.565   1.172  3.2773 -1.0615  0.3164
  118HK4    C20 9885   6.045   1.421   1.225  0.6881  0.0627 -0.0326
  118HK4     H9 9886   5.999   1.442   1.129 -0.9907 -2.1396  0.2426
  118HK4    C19 9887   5.994   1.336   1.322  0.1345 -0.3334 -0.6701
  118HK4    C18 9888   6.062   1.320   1.449  0.0366 -0.4544 -0.6327
  118HK4    C17 9889   6.167   1.407   1.475 -0.1295 -0.4325 -0.0146
  118HK4     H8 9890   6.222   1.403   1.569  0.7477 -0.0337 -0.4960
  118HK4     N1 9891   6.015   1.206   1.518  0.1377 -0.2638 -0.2473
  118HK4    C21 9892   5.919   1.145   1.435  0.4278 -0.5618 -0.3681
  118HK4    C22 9893   5.900   1.225   1.316 -0.4055  0.0705  0.1782
  118HK4    C26 9894   5.813   1.172   1.221 -0.4149  0.6670 -0.1484
  118HK4    H13 9895   5.771   1.235   1.143 -1.4567 -0.3477 -0.4237
  118HK4    C25 9896   5.749   1.050   1.233 -0.1651  0.6211  0.7939
  118HK4    H12 9897   5.688   1.007   1.153 -0.3164 -0.2732  1.3750
  118HK4    C24 9898   5.774   0.973   1.346  0.4344 -0.0564  0.2079
  118HK4    H11 9899   5.727   0.875   1.359  0.4846 -0.1835 -0.5662
  118HK4    C23 9900   5.856   1.021   1.448  0.3453 -0.4391  0.4602
  118HK4    H10 9901   5.841   0.973   1.545  0.2814  2.8697  2.1631
  118HK4    C39 9902   6.041   1.169   1.650 -0.0382  0.2566 -0.0680
  118HK4    C41 9903   6.036   1.035   1.694  0.0698  0.2635 -0.0357
  118HK4    H21 9904   6.055   0.959   1.618  0.3302 -2.2975  2.5074
  118HK4    C42 9905   6.019   1.006   1.829  0.4402 -0.1030 -0.0661
  118HK4    H22 9906   6.012   0.903   1.866  2.1474 -0.6085 -1.0964
  118HK4    C43 9907   6.013   1.106   1.926 -0.4527 -0.2301  0.0154
  118HK4    H23 9908   6.017   1.090   2.034  2.6354  0.9418  0.1135
  118HK4    C44 9909   6.019   1.239   1.887 -0.4974 -0.2030  0.1019
  118HK4    H24 9910   6.009   1.316   1.964  1.2180  0.1037  0.0479
  118HK4    C45 9911   6.039   1.267   1.752  0.3392 -0.0644  0.2481
  118HK4    H25 9912   6.040   1.373   1.724  2.0384  0.1404  0.9930
  119HK4    H28 9913  10.234   0.991   3.534  1.0969 -0.1439  0.8840
  119HK4    C48 9914  10.190   0.925   3.609  0.4358 -0.1910  0.4634
  119HK4    C47 9915  10.094   0.978   3.694  0.3991  0.4027  0.0520
  119HK4    H27 9916  10.070   1.083   3.671  0.3987 -0.4012 -4.0659
  119HK4    C46 9917  10.029   0.905   3.792  0.5023 -0.0779 -0.2341
  119HK4    H26 9918   9.953   0.947   3.859  1.0492 -1.9168  1.6339
  119HK4    C40 9919  10.051   0.766   3.799  0.5157 -0.0698 -0.1071
  119HK4    C50 9920  10.141   0.711   3.705  0.0065 -0.9655 -0.0837
  119HK4    H30 9921  10.169   0.605   3.709 -0.4160 -1.0719  0.0162
  119HK4    C49 9922  10.209   0.787   3.610 -1.3297 -0.4643 -0.6535
  119HK4    H29 9923  10.269   0.737   3.533 -0.0609 -0.1437  0.1110
  119HK4     N2 9924  10.029   0.694   3.917  0.9293  0.0783  0.0590
  119HK4    C30 9925  10.021   0.748   4.047  0.5018 -0.1730  0.1360
  119HK4    C29 9926  10.027   0.878   4.095 -0.2156 -0.0732 -0.0385
  119HK4    H15 9927  10.081   0.952   4.037  0.9310  0.0051  1.1143
  119HK4    C28 9928   9.987   0.916   4.223 -0.1738 -0.1762  0.0042
  119HK4    C27 9929   9.938   0.815   4.309 -0.2851 -0.1442 -0.0203
  119HK4    H14 9930   9.907   0.850   4.408  1.4291 -0.1851  0.5483
  119HK4    C32 9931   9.920   0.685   4.262  1.0231 -0.3250 -0.0389
  119HK4    H16 9932   9.897   0.610   4.338 -0.8249  2.4405  2.2116
  119HK4    C31 9933   9.960   0.649   4.134  0.2557 -0.3791 -0.2661
  119HK4    C34 9934   9.927   0.531   4.057 -0.1212 -0.3971 -0.0781
  119HK4    C33 9935   9.967   0.568   3.923  0.3700  0.3644  0.2734
  119HK4    C35 9936   9.928   0.484   3.819 -0.9638  0.4143  0.7256
  119HK4    H17 9937   9.990   0.485   3.729 -1.5941  0.0526  0.2804
  119HK4    C36 9938   9.842   0.378   3.846 -0.2025 -0.3696  0.0989
  119HK4    H18 9939   9.809   0.316   3.761  2.8880  1.6654 -2.6871
  119HK4    C37 9940   9.798   0.345   3.974 -0.8665  0.2189  0.0197
  119HK4    H19 9941   9.725   0.264   3.979  0.6833 -1.2129 -0.1533
  119HK4    C38 9942   9.846   0.420   4.081  0.1351 -0.5459  0.1052
  119HK4    H20 9943   9.819   0.389   4.182  1.5247 -1.1038  0.3160
  119HK4    C14 9944  10.020   1.048   4.278 -0.1268 -0.2059  0.0466
  119HK4     C9 9945  10.045   1.078   4.413 -0.1962 -0.3378  0.0902
  119HK4     C8 9946  10.008   1.202   4.469 -0.3666 -0.3906  0.0954
  119HK4    C11 9947   9.973   1.301   4.378  0.3006 -0.3175 -0.0835
  119HK4     H4 9948   9.975   1.404   4.417  2.9335  0.2077 -1.5116
  119HK4    C12 9949   9.958   1.285   4.241  0.5749 -0.0709 -0.1417
  119HK4     H5 9950   9.952   1.372   4.173  0.4487  0.3254  0.3792
  119HK4    C13 9951   9.989   1.158   4.195  0.5850 -0.0945 -0.0678
  119HK4     H6 9952   9.966   1.137   4.089  0.2123  0.4580 -0.0942
  119HK4     C7 9953  10.000   1.217   4.616 -0.0967  0.3956  0.0312
  119HK4     O2 9954   9.956   1.323   4.660 -0.3343  0.1601  0.3629
  119HK4     C4 9955  10.052   1.109   4.703  0.3125  0.4172 -0.1843
  119HK4     C3 9956  10.049   1.120   4.842  0.2974 -0.3142 -0.1224
  119HK4     H3 9957  10.029   1.216   4.891 -1.1360 -0.9549  0.5651
  119HK4     C2 9958  10.076   1.019   4.933  0.0223 -0.0288  0.2763
  119HK4     H2 9959  10.063   1.033   5.041  0.7684 -0.4802  0.4304
  119HK4     C1 9960  10.133   0.906   4.874  0.0153  0.0280  0.1577
  119HK4     H1 9961  10.158   0.817   4.934 -2.8798 -1.5312 -0.8841
  119HK4     C6 9962  10.144   0.890   4.735 -0.3647  0.4899  0.0758
  119HK4     C5 9963  10.116   0.996   4.647  0.3296  0.4368 -0.2084
  119HK4    C10 9964  10.123   0.985   4.499 -0.3018 -0.6587 -0.1609
  119HK4     O1 9965  10.233   0.948   4.458 -0.3951 -0.7993 -0.2826
  119HK4    C16 9966  10.100   0.756   4.693 -0.0095  0.6385 -0.7932
  119HK4    C15 9967   9.988   0.696   4.754  0.7400  0.0538  0.0439
  119HK4     H7 9968   9.930   0.748   4.832 -2.1126  0.0525 -1.9873
  119HK4    C20 9969   9.938   0.577   4.704  0.3034  0.2492  0.0120
  119HK4     H9 9970   9.842   0.541   4.742  0.1863  0.8345  0.2669
  119HK4    C19 9971  10.012   0.508   4.609  0.2340  0.0376  0.1094
  119HK4    C18 9972  10.145   0.554   4.574  0.2213 -0.1354 -0.1717
  119HK4    C17 9973  10.182   0.684   4.607  0.4151 -0.3450  0.4201
  119HK4     H8 9974  10.288   0.710   4.600  0.5450 -0.7802  0.6917
  119HK4     N1 9975  10.205   0.466   4.481  0.4616 -0.0243 -0.1208
  119HK4    C21 9976  10.110   0.367   4.451 -0.0123  0.4975 -0.3497
  119HK4    C22 9977   9.990   0.388   4.529  0.3866 -0.2356  0.4781
  119HK4    C26 9978   9.874   0.319   4.496  0.0349  0.5164  0.1134
  119HK4    H13 9979   9.793   0.335   4.567  0.2298  1.9793  0.0249
  119HK4    C25 9980   9.860   0.227   4.393  0.3169  0.4169  0.1638
  119HK4    H12 9981   9.765   0.175   4.379  0.9329 -1.1342  1.6112
  119HK4    C24 9982   9.977   0.209   4.319 -0.0609 -0.1377 -0.3037
  119HK4    H11 9983   9.964   0.165   4.219 -1.3332 -0.6392  0.0772
  119HK4    C23 9984  10.096   0.273   4.350 -0.1547 -0.2982  0.3985
  119HK4    H10 9985  10.186   0.239   4.298  0.4056  2.2491 -0.3879
  119HK4    C39 9986  10.316   0.491   4.400 -0.0340 -0.3020 -0.8813
  119HK4    C41 9987  10.397   0.383   4.359  0.4893 -0.4115  0.4207
  119HK4    H21 9988  10.408   0.299   4.430 -0.1629 -0.2448  0.7271
  119HK4    C42 9989  10.468   0.387   4.240 -1.0925 -0.4209 -0.5331
  119HK4    H22 9990  10.520   0.294   4.214  1.2337  0.8684 -0.6381
  119HK4    C43 9991  10.477   0.506   4.167 -0.0526  0.0428  0.3382
  119HK4    H23 9992  10.546   0.515   4.083  3.0798  1.1859  2.9148
  119HK4    C44 9993  10.414   0.620   4.215  0.0811  0.1781  0.1907
  119HK4    H24 9994  10.437   0.713   4.161  3.5043 -0.3653  0.5780
  119HK4    C45 9995  10.329   0.609   4.324 -0.0621  0.3318  0.0939
  119HK4    H25 9996  10.249   0.683   4.338 -1.3640 -0.7055 -1.6637
  120HK4    H28 9997   4.852   8.212   2.198  0.1476  1.3090  0.8888
  120HK4    C48 9998   4.927   8.166   2.262  0.6027  0.0732 -0.5020
  120HK4    C47 9999   4.970   8.034   2.248  0.3999 -0.0166 -0.2627
  120HK4    H2710000   4.932   7.970   2.167  1.4119 -0.5707 -0.3085
  120HK4    C4610001   5.050   7.968   2.341  0.4869  0.3997 -0.0404
  120HK4    H2610002   5.087   7.870   2.309 -1.9362  0.0220 -1.8646
  120HK4    C4010003   5.091   8.032   2.460  0.2631  0.3375  0.0714
  120HK4    C5010004   5.049   8.166   2.471 -0.3738  0.1578 -0.1157
  120HK4    H3010005   5.086   8.229   2.554  0.7662  0.4938 -0.8629
  120HK4    C4910006   4.975   8.233   2.374  0.1171  0.2742 -0.4119
  120HK4    H2910007   4.947   8.339   2.384 -0.0451  0.1567  0.4376
  120HK4     N210008   5.118   7.963   2.578  0.3470  0.3317  0.0486
  120HK4    C3010009   5.073   7.833   2.608 -0.0010  0.4530  0.0460
  120HK4    C2910010   4.969   7.754   2.558 -0.1531  0.3919  0.4495
  120HK4    H1510011   4.891   7.809   2.504  0.8288  0.8906 -0.4864
  120HK4    C2810012   4.963   7.617   2.578 -0.3607  0.4104  0.5117
  120HK4    C2710013   5.065   7.561   2.658  0.0542  0.1010 -0.2252
  120HK4    H1410014   5.077   7.451   2.662 -0.6651 -0.1062 -2.8957
  120HK4    C3210015   5.161   7.636   2.726 -0.6133  0.1204  0.7136
  120HK4    H1610016   5.230   7.582   2.790  2.0558  1.6356 -0.8317
  120HK4    C3110017   5.161   7.773   2.707 -0.0873  0.0092 -0.1424
  120HK4    C3410018   5.250   7.877   2.755  0.2647 -0.3822  0.0569
  120HK4    C3310019   5.219   7.993   2.672  0.4733 -0.2857  0.1136
  120HK4    C3510020   5.277   8.115   2.702  0.6132 -0.2709 -0.2169
  120HK4    H1710021   5.271   8.200   2.633  0.2315 -1.4164 -1.6060
  120HK4    C3610022   5.356   8.127   2.816  0.5800 -0.0499 -0.2151
  120HK4    H1810023   5.376   8.228   2.853  1.1119 -0.4831  0.6897
  120HK4    C3710024   5.383   8.017   2.896 -0.1853 -0.0782  0.0075
  120HK4    H1910025   5.426   8.040   2.993  0.2042  2.7902 -0.8128
  120HK4    C3810026   5.334   7.891   2.864  0.3536 -0.2826 -0.0229
  120HK4    H2010027   5.369   7.805   2.923  1.3869  0.6208  0.7026
  120HK4    C1410028   4.848   7.538   2.533  0.1686 -0.1192  0.0837
  120HK4     C910029   4.808   7.411   2.576  0.8423 -0.3520  0.0404
  120HK4     C810030   4.767   7.309   2.487 -0.3462 -0.0513  0.2223
  120HK4    C1110031   4.728   7.350   2.360  0.2477  0.4223  0.1873
  120HK4     H410032   4.681   7.279   2.290  1.7533 -1.2188  0.7853
  120HK4    C1210033   4.747   7.481   2.318  0.5092  0.3438  0.0516
  120HK4     H510034   4.703   7.517   2.223  0.2320  0.2484  0.1428
  120HK4    C1310035   4.809   7.573   2.402 -0.3837  0.5969  0.4378
  120HK4     H610036   4.847   7.669   2.365 -0.5398  0.5277  0.0915
  120HK4     C710037   4.759   7.168   2.531 -0.6394 -0.0396  0.2058
  120HK4     O210038   4.785   7.087   2.442  0.2096  0.1411  0.2841
  120HK4     C410039   4.773   7.138   2.675 -0.0550 -0.1812  0.1237
  120HK4     C310040   4.749   7.007   2.714  1.0327 -0.3487  0.2393
  120HK4     H310041   4.714   6.934   2.639 -0.6047  1.0553 -0.4050
  120HK4     C210042   4.776   6.972   2.846 -0.3935 -0.5431  0.4894
  120HK4     H210043   4.763   6.869   2.883 -1.4256 -1.2897 -1.8721
  120HK4     C110044   4.838   7.067   2.927 -0.0147  0.0263 -0.4565
  120HK4     H110045   4.879   7.034   3.024  0.4371  2.1761  0.0926
  120HK4     C610046   4.863   7.199   2.886  0.6583 -0.1008 -0.4510
  120HK4     C510047   4.811   7.241   2.763  0.3630  0.0147 -0.2857
  120HK4    C1010048   4.814   7.385   2.722  0.0402  0.1508  0.1681
  120HK4     O110049   4.760   7.467   2.796  0.6239  0.5807  0.1143
  120HK4    C1610050   4.995   7.244   2.933  0.3217  0.4924 -0.0715
  120HK4    C1510051   5.104   7.156   2.949 -0.2793 -0.2776 -0.1710
  120HK4     H710052   5.106   7.047   2.938  0.4840 -0.3721  0.7537
  120HK4    C2010053   5.229   7.202   2.991 -0.4833 -0.2363  0.3898
  120HK4     H910054   5.319   7.143   2.976  0.7745  2.1367 -1.7805
  120HK4    C1910055   5.248   7.337   3.018  0.3372 -0.0867 -0.8980
  120HK4    C1810056   5.133   7.425   3.022  0.6648  0.3332 -0.6321
  120HK4    C1710057   5.011   7.375   2.976  0.4127  0.5096 -0.1585
  120HK4     H810058   4.919   7.430   2.996 -0.2496 -1.5211  2.7232
  120HK4     N110059   5.175   7.546   3.080 -0.1204  0.3224 -0.0237
  120HK4    C2110060   5.314   7.541   3.107 -0.1165 -0.5773 -0.2045
  120HK4    C2210061   5.363   7.411   3.066  0.1705 -0.6606  0.4075
  120HK4    C2610062   5.494   7.374   3.096  0.5876  0.2357 -0.2834
  120HK4    H1310063   5.533   7.285   3.046  1.3682  0.1151  0.5222
  120HK4    C2510064   5.575   7.457   3.173  0.4253  0.3515 -0.2340
  120HK4    H1210065   5.656   7.411   3.230 -0.0645 -0.3056 -0.0685
  120HK4    C2410066   5.533   7.585   3.204 -0.3872  0.0909 -0.2603
  120HK4    H1110067   5.595   7.655   3.262  2.7188 -2.6704 -0.1508
  120HK4    C2310068   5.403   7.624   3.172 -0.5077 -0.2095 -0.1387
  120HK4    H1010069   5.363   7.722   3.199  0.8143  0.9373 -2.1805
  120HK4    C3910070   5.091   7.655   3.105 -0.3243  0.1398  0.0891
  120HK4    C4110071   5.115   7.744   3.212 -0.5702 -0.2000  0.4282
  120HK4    H2110072   5.178   7.719   3.298  0.6728 -0.4654 -0.5466
  120HK4    C4210073   5.063   7.872   3.219  0.1106  0.0889  0.2258
  120HK4    H2210074   5.069   7.916   3.320 -2.4084  1.5074 -0.1878
  120HK4    C4310075   4.987   7.917   3.112  0.1125 -0.5059 -0.0259
  120HK4    H2310076   4.951   8.020   3.101 -2.9963 -1.6299 -0.8833
  120HK4    C4410077   4.956   7.834   3.006 -0.2655  0.5417 -0.7471
  120HK4    H2410078   4.867   7.859   2.946  1.1125  2.4143 -2.0667
  120HK4    C4510079   5.000   7.702   3.008  0.0190  0.6464  0.0095
  120HK4    H2510080   4.991   7.642   2.916  0.2845  1.4663 -0.5479
  121HK4    H2810081   2.128   8.827   4.280 -1.2026  1.8817 -0.1538
  121HK4    C4810082   2.226   8.873   4.264 -0.0405 -0.3695  0.1511
  121HK4    C4710083   2.284   8.957   4.359 -0.5312  0.6770 -0.4680
  121HK4    H2710084   2.237   8.958   4.459  1.6960  0.3409  0.5964
  121HK4    C4610085   2.410   9.012   4.339 -0.1990 -0.0447 -0.3415
  121HK4    H2610086   2.450   9.079   4.416 -1.7810  1.9975 -1.2687
  121HK4    C4010087   2.477   8.995   4.216 -0.0929  0.2223 -0.3216
  121HK4    C5010088   2.420   8.914   4.116 -0.3178 -0.1446  0.1016
  121HK4    H3010089   2.476   8.890   4.024 -0.2037  1.2294 -0.1986
  121HK4    C4910090   2.299   8.853   4.148 -0.5116  0.0707 -0.2250
  121HK4    H2910091   2.262   8.773   4.082 -0.0804  1.3253 -2.0334
  121HK4     N210092   2.597   9.060   4.186 -0.0184  0.2734  0.0834
  121HK4    C3010093   2.628   9.190   4.232  0.0289  0.0934  0.5692
  121HK4    C2910094   2.543   9.290   4.278 -0.0147 -0.0063  0.7014
  121HK4    H1510095   2.437   9.274   4.258 -0.0124  2.3925 -1.5941
  121HK4    C2810096   2.596   9.407   4.331  0.7057 -0.2458  0.5157
  121HK4    C2710097   2.736   9.426   4.327  0.6432  0.1070  0.0665
  121HK4    H1410098   2.785   9.499   4.393  0.3420  1.8906 -1.6403
  121HK4    C3210099   2.817   9.337   4.258  0.4572 -0.1293  0.1581
  121HK4    H1610100   2.901   9.372   4.198  0.6499 -1.5730 -0.4374
  121HK4    C3110101   2.770   9.214   4.214  0.0273 -0.0457  0.3720
  121HK4    C3410102   2.820   9.099   4.141 -0.0516  0.0300  0.2040
  121HK4    C3310103   2.714   9.000   4.135 -0.3370  0.3856 -0.7922
  121HK4    C3510104   2.734   8.883   4.063 -0.3933 -0.2793  0.2602
  121HK4    H1710105   2.669   8.798   4.086 -0.1946  0.0536  2.1875
  121HK4    C3610106   2.850   8.871   3.987 -0.1375  0.4105  0.5427
  121HK4    H1810107   2.869   8.782   3.926  0.9469  0.6604  0.5035
  121HK4    C3710108   2.951   8.966   3.990  0.1961  0.0690  0.0167
  121HK4    H1910109   3.051   8.942   3.954  1.0028  0.8689  1.6477
  121HK4    C3810110   2.939   9.077   4.073 -0.1769  0.0638 -0.0294
  121HK4    H2010111   3.016   9.154   4.077 -1.0720  0.9458  0.3351
  121HK4    C1410112   2.509   9.499   4.406  0.7164 -0.1475  0.4055
  121HK4     C910113   2.541   9.633   4.428 -0.7213  0.3396 -0.4019
  121HK4     C810114   2.529   9.687   4.557  0.5089  0.0105 -0.1485
  121HK4    C1110115   2.474   9.611   4.660  0.0800  0.0219 -0.3735
  121HK4     H410116   2.477   9.651   4.762 -1.2728 -0.7192 -0.0261
  121HK4    C1210117   2.422   9.484   4.637 -0.6645  0.2977 -0.2275
  121HK4     H510118   2.373   9.425   4.716  0.0823 -1.8071 -1.2957
  121HK4    C1310119   2.445   9.430   4.511  0.1864 -0.1205  0.1024
  121HK4     H610120   2.407   9.328   4.493  0.1254  0.3452 -2.5102
  121HK4     C710121   2.598   9.816   4.581  0.0637  0.2244 -0.0203
  121HK4     O210122   2.552   9.880   4.676 -0.3174  0.0206 -0.0633
  121HK4     C410123   2.684   9.888   4.484  0.4946 -0.1158  0.1108
  121HK4     C310124   2.761   9.995   4.526 -0.0438  0.4108 -0.2402
  121HK4     H310125   2.783  10.017   4.632 -2.2345  0.1302  0.2807
  121HK4     C210126   2.836  10.066   4.432  0.7281  0.0158  0.0699
  121HK4     H210127   2.896  10.154   4.458 -2.9795  3.3650 -1.9981
  121HK4     C110128   2.827  10.023   4.300  0.1275 -0.0497  0.1259
  121HK4     H110129   2.885  10.076   4.222 -0.2045 -0.9892 -0.7727
  121HK4     C610130   2.750   9.915   4.255 -0.1834  0.1608  0.1486
  121HK4     C510131   2.671   9.848   4.350 -0.1535  0.0757  0.1130
  121HK4    C1010132   2.592   9.725   4.322  0.6547 -0.3470 -0.3446
  121HK4     O110133   2.525   9.725   4.218  0.0151  0.0010  0.0658
  121HK4    C1610134   2.759   9.889   4.110 -0.5787  0.6746  0.0307
  121HK4    C1510135   2.780   9.992   4.016  0.6889  0.3070 -0.1013
  121HK4     H710136   2.770  10.096   4.051  1.0670  0.4508 -0.4142
  121HK4    C2010137   2.821   9.973   3.885  0.4993  0.5124 -0.1914
  121HK4     H910138   2.843  10.059   3.821 -1.0530 -0.5945 -2.2945
  121HK4    C1910139   2.834   9.842   3.840 -0.4036  0.3115  0.1400
  121HK4    C1810140   2.803   9.734   3.931  0.8399 -0.3385 -0.1889
  121HK4    C1710141   2.776   9.758   4.066 -0.5884  0.9134 -0.6816
  121HK4     H810142   2.772   9.677   4.138 -0.7392  0.9918 -0.6024
  121HK4     N110143   2.813   9.605   3.875  0.5019 -0.5415  0.2159
  121HK4    C2110144   2.880   9.630   3.754  0.1978  0.0891  0.1753
  121HK4    C2210145   2.891   9.772   3.726  0.0055  0.1548  0.4391
  121HK4    C2610146   2.961   9.814   3.614 -0.7521 -0.0549 -0.1167
  121HK4    H1310147   2.951   9.915   3.573 -1.4596 -0.0769 -0.0106
  121HK4    C2510148   3.030   9.722   3.536 -0.1558  0.1308  0.1916
  121HK4    H1210149   3.106   9.746   3.462  1.5696  0.6393  2.0859
  121HK4    C2410150   3.012   9.587   3.562 -0.1470  0.0468 -0.2415
  121HK4    H1110151   3.052   9.514   3.489  1.1784 -0.2700  0.7675
  121HK4    C2310152   2.930   9.538   3.663  0.5961  0.0882  0.3931
  121HK4    H1010153   2.873   9.451   3.629  0.6727 -0.0024  0.4953
  121HK4    C3910154   2.723   9.500   3.899 -0.2847  0.0001 -0.3214
  121HK4    C4110155   2.749   9.367   3.860  0.6182  0.0905 -0.0503
  121HK4    H2110156   2.849   9.331   3.831  0.2773 -0.8051 -0.1285
  121HK4    C4210157   2.654   9.266   3.859  0.1704  0.5126 -0.1387
  121HK4    H2210158   2.679   9.170   3.810 -2.4271 -0.9758  1.3730
  121HK4    C4310159   2.525   9.290   3.903  0.2086  0.6659 -0.1118
  121HK4    H2310160   2.449   9.213   3.890  1.1114 -0.1618 -0.5532
  121HK4    C4410161   2.495   9.418   3.948 -0.3512  0.5977 -0.2921
  121HK4    H2410162   2.398   9.446   3.993  1.0803  2.3711  1.7944
  121HK4    C4510163   2.589   9.519   3.938 -0.1948  0.4582 -0.2368
  121HK4    H2510164   2.564   9.623   3.961  1.9787  1.5879 -2.6788
  122HK4    H2810165   6.146  11.164   9.840  0.4929  0.8053 -0.1159
  122HK4    C4810166   6.230  11.110   9.884  0.0555  0.1015 -0.1282
  122HK4    C4710167   6.233  11.111  10.023 -0.5283 -0.4893 -0.1066
  122HK4    H2710168   6.152  11.162  10.077 -1.5060 -2.0837 -0.0289
  122HK4    C4610169   6.353  11.075  10.083 -0.2187  0.0820 -0.3812
  122HK4    H2610170   6.344  11.082  10.192 -0.5716 -2.9720 -0.1834
  122HK4    C4010171   6.469  11.029  10.016  0.0147 -0.3699  0.3280
  122HK4    C5010172   6.459  11.039   9.876 -0.1443  0.7759  0.4126
  122HK4    H3010173   6.545  11.007   9.815  0.0675  0.8593  0.6703
  122HK4    C4910174   6.342  11.075   9.810 -0.0847 -0.1569 -0.2134
  122HK4    H2910175   6.334  11.096   9.703  2.7734  0.5394 -0.3243
  122HK4     N210176   6.589  11.022  10.087  0.1173 -0.1625  0.1769
  122HK4    C3010177   6.617  11.084  10.210  0.2465  0.4064 -0.1354
  122HK4    C2910178   6.575  11.203  10.267  0.6999  0.6570 -0.3246
  122HK4    H1510179   6.504   0.017  10.213 -0.4725 -0.1595  0.2587
  122HK4    C2810180   6.640   0.009  10.378  0.3671  0.4201 -0.0098
  122HK4    C2710181   6.749  11.190  10.438  0.3364  0.0757 -0.3281
  122HK4    H1410182   6.803  11.239  10.521  1.4421  0.0683 -1.0282
  122HK4    C3210183   6.790  11.068  10.388 -0.2498 -0.3506  0.2262
  122HK4    H1610184   6.859  11.009  10.449  1.0770  1.8904  0.9235
  122HK4    C3110185   6.725  11.014  10.277  0.3348  0.2642 -0.4220
  122HK4    C3410186   6.764  10.911  10.183  0.2906  0.1504 -0.3169
  122HK4    C3310187   6.685  10.922  10.061 -0.0051 -0.1951 -0.1564
  122HK4    C3510188   6.707  10.841   9.950  0.0215 -0.3738 -0.0226
  122HK4    H1710189   6.650  10.852   9.858 -3.8200 -0.5239  2.2306
  122HK4    C3610190   6.807  10.744   9.957  0.5964  0.1589 -0.6971
  122HK4    H1810191   6.824  10.679   9.870  1.7844  1.4151 -1.4162
  122HK4    C3710192   6.889  10.736  10.069 -0.1131 -0.1272 -0.1891
  122HK4    H1910193   6.978  10.673  10.077 -1.1248 -1.6179 -0.4403
  122HK4    C3810194   6.870  10.821  10.176  0.1750  0.0078 -0.2434
  122HK4    H2010195   6.952  10.833  10.247 -0.1294 -2.4134  0.5423
  122HK4    C1410196   6.603   0.145  10.418 -0.2382  0.0535  0.6869
  122HK4     C910197   6.687   0.248  10.464  0.2736 -0.3198  0.5899
  122HK4     C810198   6.658   0.330  10.575 -0.0655  0.1249  0.1769
  122HK4    C1110199   6.528   0.313  10.623 -0.1961  0.1677 -0.1571
  122HK4     H410200   6.514   0.341  10.729  0.7018  1.7384 -0.4456
  122HK4    C1210201   6.433   0.234  10.560  0.0747 -0.1902 -0.1260
  122HK4     H510202   6.328   0.238  10.595  0.0907  1.1994 -0.2053
  122HK4    C1310203   6.469   0.143  10.462 -0.6085 -0.1278 -0.4423
  122HK4     H610204   6.405   0.061  10.425 -1.3329  0.0493  0.3996
  122HK4     C710205   6.767   0.404  10.642  0.0433 -0.1336  0.2830
  122HK4     O210206   6.746   0.501  10.714  0.3238  0.2587 -0.1577
  122HK4     C410207   6.903   0.392  10.586 -0.1789  0.7986 -0.4652
  122HK4     C310208   7.010   0.430  10.666  0.0248 -0.5638 -0.0781
  122HK4     H310209   7.004   0.460  10.771 -0.0826  0.4810 -0.3819
  122HK4     C210210   7.140   0.423  10.617  0.1217  0.5376  0.0108
  122HK4     H210211   7.227   0.439  10.682  1.3796 -2.6129 -0.8075
  122HK4     C110212   7.152   0.405  10.479  0.4214  0.6207  0.0243
  122HK4     H110213   7.255   0.401  10.440  0.1596 -1.6537 -0.4528
  122HK4     C610214   7.045   0.377  10.392  0.3843 -0.2700  0.3530
  122HK4     C510215   6.920   0.356  10.450  0.0623  0.0160 -0.2298
  122HK4    C1010216   6.811   0.276  10.387  0.0996 -0.4325  0.2714
  122HK4     O110217   6.810   0.243  10.268 -0.4923 -0.5443  0.3064
  122HK4    C1610218   7.061   0.443  10.261 -0.2653 -0.5320  0.1344
  122HK4    C1510219   7.142   0.558  10.248 -0.6931 -0.2209  0.2073
  122HK4     H710220   7.169   0.598  10.347 -1.1667  1.6870 -0.4115
  122HK4    C2010221   7.207   0.614  10.139 -0.3790 -0.2121  0.3959
  122HK4     H910222   7.243   0.717  10.133 -0.2263 -0.2734  0.2662
  122HK4    C1910223   7.187   0.549  10.018  0.3050 -0.1550  0.2491
  122HK4    C1810224   7.108   0.427  10.020 -0.3300  0.2287 -0.6198
  122HK4    C1710225   7.051   0.380  10.138  0.5432  0.0737 -0.2492
  122HK4     H810226   7.023   0.275  10.131 -1.2534  0.6353 -1.9164
  122HK4     N110227   7.131   0.350   9.904  0.1622 -0.7606  0.1135
  122HK4    C2110228   7.212   0.429   9.820 -0.3351  0.1090  0.4421
  122HK4    C2210229   7.254   0.549   9.889 -0.3226  0.4051 -0.0766
  122HK4    C2610230   7.370   0.613   9.849  0.2561 -0.3449  0.4031
  122HK4    H1310231   7.410   0.699   9.904  1.0433 -0.4924  0.0714
  122HK4    C2510232   7.441   0.566   9.739 -0.5174 -0.0801 -0.2100
  122HK4    H1210233   7.534   0.617   9.714  0.6164 -0.9792  2.0372
  122HK4    C2410234   7.399   0.451   9.674  0.0857 -0.1775 -0.4261
  122HK4    H1110235   7.451   0.423   9.581 -0.3866  0.0357 -0.7554
  122HK4    C2310236   7.287   0.379   9.714  0.0616  0.4154  0.5791
  122HK4    H1010237   7.248   0.313   9.637  0.9630 -0.4743  0.8679
  122HK4    C3910238   7.046   0.253   9.850  0.0442 -0.6936  0.1787
  122HK4    C4110239   7.088   0.150   9.763  0.1290 -0.4517 -0.0684
  122HK4    H2110240   7.195   0.131   9.752  0.8485  2.6618  1.0427
  122HK4    C4210241   6.988   0.079   9.696 -0.5264 -0.0844  0.5066
  122HK4    H2210242   7.014   0.005   9.619  1.4283  0.9244  0.1455
  122HK4    C4310243   6.853   0.101   9.715 -0.6223 -0.6586  0.4880
  122HK4    H2310244   6.783   0.039   9.658 -0.0575 -1.2359  0.4118
  122HK4    C4410245   6.811   0.201   9.802  0.1543  0.0745  0.0158
  122HK4    H2410246   6.707   0.236   9.795 -0.3980 -1.7536 -1.4315
  122HK4    C4510247   6.908   0.278   9.864  0.1582 -0.0666  0.1813
  122HK4    H2510248   6.873   0.365   9.922 -0.8339  0.4895 -1.2140
  123HK4    H2810249   9.477   4.340  10.029  0.9896 -1.3184  1.0965
  123HK4    C4810250   9.529   4.433  10.050 -0.8894 -0.1394  0.5675
  123HK4    C4710251   9.531   4.532   9.952 -0.7033 -0.1573  0.5559
  123HK4    H2710252   9.471   4.515   9.861 -1.3577 -2.2113  1.3292
  123HK4    C4610253   9.602   4.649   9.973 -0.0827 -0.5395  0.5936
  123HK4    H2610254   9.559   4.743   9.936 -0.7264 -0.2198  2.0911
  123HK4    C4010255   9.686   4.672  10.085 -0.0067  0.2114  0.3825
  123HK4    C5010256   9.674   4.573  10.185  0.2886 -0.3285 -0.1091
  123HK4    H3010257   9.723   4.589  10.282  0.4006 -1.6700  0.0530
  123HK4    C4910258   9.597   4.458  10.168 -0.5605  0.1712  0.3118
  123HK4    H2910259   9.603   4.379  10.244 -1.6859  0.1778  0.4152
  123HK4     N210260   9.799   4.754  10.078  0.0347  0.1550  0.3937
  123HK4    C3010261   9.866   4.791   9.960 -0.4272 -0.0809  0.0618
  123HK4    C2910262   9.876   4.723   9.839  0.3270 -0.1413  0.1536
  123HK4    H1510263   9.812   4.639   9.811 -0.4873  1.3064 -2.4390
  123HK4    C2810264   9.981   4.753   9.753  0.3746 -0.2044  0.1898
  123HK4    C2710265  10.066   4.861   9.785 -0.1872  0.2301  0.2209
  123HK4    H1410266  10.157   4.881   9.726 -0.5112  0.7689 -0.1034
  123HK4    C3210267  10.053   4.937   9.900 -0.0862  0.0108  0.3783
  123HK4    H1610268  10.113   5.027   9.917  0.4996 -0.7482  2.5657
  123HK4    C3110269   9.952   4.904   9.989 -0.2717 -0.2066  0.0842
  123HK4    C3410270   9.936   4.937  10.129  0.5390 -0.0988  0.1564
  123HK4    C3310271   9.839   4.843  10.181 -0.3388  0.7316  0.0430
  123HK4    C3510272   9.785   4.866  10.307  0.1582  0.2764  0.3412
  123HK4    H1710273   9.751   4.780  10.364 -1.8699  0.4914 -0.4931
  123HK4    C3610274   9.817   4.982  10.376 -0.1743  0.0289  0.9073
  123HK4    H1810275   9.797   4.998  10.483 -1.8908 -0.0747  0.6148
  123HK4    C3710276   9.902   5.077  10.321  0.3870 -0.7115  0.4964
  123HK4    H1910277   9.922   5.169  10.376 -2.2783 -2.3693  4.4705
  123HK4    C3810278   9.967   5.052  10.201 -0.0019  0.0745  0.1182
  123HK4    H2010279  10.061   5.097  10.168  0.2667 -1.1696 -0.8478
  123HK4    C1410280  10.019   4.658   9.647  0.0048 -0.0916 -0.0454
  123HK4     C910281  10.150   4.635   9.604 -0.0400 -0.1890 -0.1287
  123HK4     C810282  10.178   4.630   9.465 -0.1507  1.0425 -0.2080
  123HK4    C1110283  10.071   4.614   9.377 -0.1857  0.2520 -0.0337
  123HK4     H410284  10.080   4.597   9.269  1.3626 -0.2364  0.1557
  123HK4    C1210285   9.939   4.612   9.419 -0.2981 -0.1291 -0.4069
  123HK4     H510286   9.859   4.591   9.346 -1.3793 -0.2333  0.7774
  123HK4    C1310287   9.915   4.636   9.554  0.2320  0.2355 -0.3775
  123HK4     H610288   9.813   4.622   9.591  0.2276  1.6108  0.1575
  123HK4     C710289  10.315   4.619   9.412 -0.0810  0.5247  0.0714
  123HK4     O210290  10.349   4.677   9.309  0.2818  0.0580 -0.0745
  123HK4     C410291  10.420   4.585   9.511 -0.4793 -0.1418  0.2619
  123HK4     C310292  10.551   4.570   9.469 -0.2415 -0.3205  1.0603
  123HK4     H310293  10.574   4.628   9.378 -1.8127 -1.0053  0.1987
  123HK4     C210294  10.653   4.498   9.531  0.6814  0.4829  0.4998
  123HK4     H210295  10.754   4.485   9.490  1.0605 -0.8450  1.8163
  123HK4     C110296  10.612   4.440   9.650  0.3587 -0.6964 -0.1795
  123HK4     H110297  10.668   4.351   9.681  0.7099 -0.9363 -1.4894
  123HK4     C610298  10.483   4.459   9.705  0.6272  0.4296  0.0631
  123HK4     C510299  10.389   4.541   9.641  0.1928  0.3409  0.5851
  123HK4    C1010300  10.258   4.589   9.695  0.0417  0.4609  0.1142
  123HK4     O110301  10.256   4.604   9.817 -0.8785  0.7116  0.0627
  123HK4    C1610302  10.449   4.370   9.817  0.0104  0.1778 -0.3228
  123HK4    C1510303  10.546   4.297   9.889 -0.5032 -0.5445 -0.3576
  123HK4     H710304  10.646   4.343   9.887 -1.4617  1.5963 -0.4615
  123HK4    C2010305  10.537   4.172   9.949  0.3226 -0.2433  0.4045
  123HK4     H910306  10.623   4.118   9.987 -0.3729 -1.1186  0.7503
  123HK4    C1910307  10.409   4.118   9.950  0.1395  0.1902  0.8334
  123HK4    C1810308  10.301   4.192   9.888  0.0592 -0.1636  0.5485
  123HK4    C1710309  10.323   4.311   9.819  0.1870 -0.1677  0.5827
  123HK4     H810310  10.232   4.350   9.774  0.3211  0.2438  0.6687
  123HK4     N110311  10.179   4.125   9.913  0.1200 -0.5357 -0.1479
  123HK4    C2110312  10.212   4.013   9.993  0.1234  0.0484  0.6728
  123HK4    C2210313  10.355   3.994  10.001  0.1368 -0.1479  0.0187
  123HK4    C2610314  10.416   3.880  10.052 -0.0455 -0.3104 -0.1251
  123HK4    H1310315  10.525   3.870  10.051  0.0733  0.9471 -1.9640
  123HK4    C2510316  10.331   3.776  10.090 -0.3960  0.0721  0.1431
  123HK4    H1210317  10.381   3.698  10.147  1.5935  0.1033 -1.4923
  123HK4    C2410318  10.192   3.788  10.087 -0.4291 -0.3632 -0.0792
  123HK4    H1110319  10.130   3.697  10.090  0.6919 -1.1024  1.7787
  123HK4    C2310320  10.136   3.906  10.041 -0.0162 -0.0089  0.3191
  123HK4    H1010321  10.028   3.917  10.055 -0.1342 -0.3576 -0.3221
  123HK4    C3910322  10.051   4.179   9.896  0.1992 -0.3230 -0.0729
  123HK4    C4110323   9.943   4.090   9.881 -0.0368 -0.0355 -0.0558
  123HK4    H2110324   9.968   3.989   9.847  1.0677  0.0859  0.3949
  123HK4    C4210325   9.808   4.125   9.884 -0.1429 -0.4154 -0.2952
  123HK4    H2210326   9.722   4.056   9.889  0.7671 -1.5161  0.5135
  123HK4    C4310327   9.779   4.260   9.895  0.5970 -0.2968  0.1998
  123HK4    H2310328   9.679   4.279   9.932 -0.2755  2.1595 -3.1465
  123HK4    C4410329   9.881   4.355   9.896  0.3581 -0.0361 -0.0818
  123HK4    H2410330   9.857   4.462   9.903  1.2281  0.2447 -1.2706
  123HK4    C4510331  10.013   4.314   9.906  0.2938 -0.2849 -0.2297
  123HK4    H2510332  10.090   4.380   9.948 -0.1798  0.2377 -0.1785
  124HK4    H2810333   3.483   9.212   7.781  0.4670 -1.4893  2.0679
  124HK4    C4810334   3.503   9.313   7.817 -0.0657 -0.7215  0.2677
  124HK4    C4710335   3.619   9.341   7.889 -0.1205  0.2259 -0.0002
  124HK4    H2710336   3.707   9.278   7.870  1.0430  1.4143  1.4396
  124HK4    C4610337   3.627   9.464   7.952  0.3102  0.4908 -0.5676
  124HK4    H2610338   3.728   9.486   7.991  1.2397 -1.0921 -2.0158
  124HK4    C4010339   3.527   9.563   7.948 -0.2090 -0.0252 -0.4443
  124HK4    C5010340   3.411   9.528   7.877 -0.3421 -0.5727  0.0438
  124HK4    H3010341   3.316   9.576   7.904 -0.4593 -0.8285  0.0844
  124HK4    C4910342   3.401   9.407   7.808  0.0418 -0.6231  0.0711
  124HK4    H2910343   3.322   9.389   7.734 -0.0710 -0.3927  0.1347
  124HK4     N210344   3.519   9.671   8.037  0.3271 -0.3326 -0.0200
  124HK4    C3010345   3.577   9.685   8.165  0.0138 -0.1903  0.1077
  124HK4    C2910346   3.601   9.589   8.264  0.2170  0.1406  0.3800
  124HK4    H1510347   3.564   9.490   8.239 -2.2012  0.9548  0.5852
  124HK4    C2810348   3.648   9.613   8.392  1.0365 -0.0456  0.1100
  124HK4    C2710349   3.667   9.749   8.422 -0.4072  0.2260 -0.1795
  124HK4    H1410350   3.710   9.787   8.516  3.4999  1.3075 -2.2796
  124HK4    C3210351   3.636   9.853   8.334  0.1612  0.3953 -0.1830
  124HK4    H1610352   3.663   9.956   8.356 -0.8332  0.2713  1.8184
  124HK4    C3110353   3.590   9.823   8.207 -0.0013 -0.1550 -0.0005
  124HK4    C3410354   3.545   9.901   8.094  0.6075 -0.1689 -0.2548
  124HK4    C3310355   3.494   9.804   7.999  0.4169 -0.3118 -0.0077
  124HK4    C3510356   3.437   9.849   7.880  0.5831 -0.0016  0.0291
  124HK4    H1710357   3.405   9.774   7.808  2.6411 -1.7185  0.8693
  124HK4    C3610358   3.428   9.984   7.849  0.2346  0.0437  0.3152
  124HK4    H1810359   3.394  10.010   7.748 -1.3417  1.6308  1.2233
  124HK4    C3710360   3.478  10.075   7.942 -0.5065  0.1510  0.6141
  124HK4    H1910361   3.501  10.179   7.920  1.1301 -0.0990  1.0766
  124HK4    C3810362   3.538  10.036   8.062 -0.0428 -0.0672  0.3176
  124HK4    H2010363   3.558  10.103   8.146  0.3947 -2.1871  1.9239
  124HK4    C1410364   3.652   9.507   8.494  0.2319 -0.3805 -0.2015
  124HK4     C910365   3.647   9.528   8.632  0.2143  0.0970 -0.2740
  124HK4     C810366   3.721   9.453   8.726  0.3237  0.2040 -0.2738
  124HK4    C1110367   3.794   9.345   8.677 -0.2315 -0.4420  0.3201
  124HK4     H410368   3.849   9.282   8.748  1.6912  0.7877 -0.0590
  124HK4    C1210369   3.787   9.309   8.543 -0.0966  0.2498  0.1277
  124HK4     H510370   3.832   9.213   8.513 -1.2409 -0.7577  1.6184
  124HK4    C1310371   3.719   9.390   8.452  0.2240 -0.2563 -0.5721
  124HK4     H610372   3.724   9.365   8.345  1.4180 -0.0181 -0.5763
  124HK4     C710373   3.731   9.490   8.868 -0.4100 -0.2245 -0.1128
  124HK4     O210374   3.782   9.421   8.956 -0.1543  0.3031  0.1545
  124HK4     C410375   3.661   9.614   8.909 -0.5434 -0.3349 -0.0028
  124HK4     C310376   3.684   9.664   9.037  0.2462  0.2317 -0.3623
  124HK4     H310377   3.728   9.602   9.116  1.0215 -0.6054 -1.4362
  124HK4     C210378   3.633   9.787   9.077  0.2140 -0.1160  0.6675
  124HK4     H210379   3.649   9.815   9.182 -2.6424 -0.5410  1.2422
  124HK4     C110380   3.551   9.857   8.990  0.4872 -0.4238  0.1594
  124HK4     H110381   3.538   9.963   9.016 -0.4444 -1.1582  2.8699
  124HK4     C610382   3.514   9.803   8.865 -0.0952  0.0720  0.1091
  124HK4     C510383   3.568   9.680   8.826 -0.0628  0.1677 -0.1446
  124HK4    C1010384   3.550   9.627   8.688 -0.0648 -0.3600  0.0593
  124HK4     O110385   3.436   9.625   8.641  0.0300  0.3401 -0.1978
  124HK4    C1610386   3.407   9.887   8.810 -0.4317 -0.1777  0.3804
  124HK4    C1510387   3.408   9.914   8.671  0.1606  0.5509  0.5207
  124HK4     H710388   3.490   9.876   8.610  0.1790  0.6857  0.4642
  124HK4    C2010389   3.296   9.960   8.602  0.2276 -0.3475 -0.1901
  124HK4     H910390   3.305  10.003   8.503  1.5504  0.8622  0.4357
  124HK4    C1910391   3.182   9.984   8.677  0.2445  0.2478 -0.3574
  124HK4    C1810392   3.175   9.962   8.821 -0.1741 -0.4588 -0.4840
  124HK4    C1710393   3.288   9.905   8.879 -0.5827 -0.5491  0.2181
  124HK4     H810394   3.267   9.837   8.962 -0.2062 -1.4404 -0.4133
  124HK4     N110395   3.050   9.991   8.878  0.4229  0.4830  0.3495
  124HK4    C2110396   2.974  10.039   8.770 -0.2356 -0.1579  0.5260
  124HK4    C2210397   3.051  10.038   8.647  0.0568  0.4084  0.7058
  124HK4    C2610398   2.990  10.060   8.524 -0.1292 -0.7552  0.5808
  124HK4    H1310399   3.020  10.016   8.429 -0.5018  1.4271 -0.5949
  124HK4    C2510400   2.857  10.103   8.521  0.1564  0.1082  0.1586
  124HK4    H1210401   2.816  10.109   8.420 -0.8990 -0.5194  0.5519
  124HK4    C2410402   2.787  10.108   8.641  0.3774  0.3397  0.2792
  124HK4    H1110403   2.678  10.125   8.641  0.4154  0.5831  0.5701
  124HK4    C2310404   2.840  10.076   8.765 -0.3875 -0.7249  0.3358
  124HK4    H1010405   2.788  10.098   8.858 -0.8618  2.0199 -0.5391
  124HK4    C3910406   3.012  10.010   9.012 -0.1235  0.1356  0.2471
  124HK4    C4110407   3.112  10.049   9.104  0.3408 -0.3999 -0.0218
  124HK4    H2110408   3.192  10.118   9.075 -1.3734  1.8013  0.3447
  124HK4    C4210409   3.087  10.015   9.237  0.3809  0.0870  0.1140
  124HK4    H2210410   3.164  10.055   9.304 -1.0653  1.4458  1.0004
  124HK4    C4310411   2.976   9.945   9.284 -0.0213  0.3623 -0.4151
  124HK4    H2310412   2.974   9.892   9.380  0.3235  0.7235 -0.2047
  124HK4    C4410413   2.874   9.916   9.195  0.0893 -0.4740 -0.2698
  124HK4    H2410414   2.788   9.856   9.231 -1.6942  1.9331 -0.4285
  124HK4    C4510415   2.895   9.951   9.063 -0.4496  0.4688 -0.1136
  124HK4    H2510416   2.808   9.951   8.995 -0.5587  0.8132  0.0293
  125HK4    H2810417   1.444   7.432   2.504  0.8093  0.2469 -0.6420
  125HK4    C4810418   1.498   7.525   2.521  0.0208  0.6527 -0.2825
  125HK4    C4710419   1.592   7.565   2.427  0.5214  0.0686 -0.0428
  125HK4    H2710420   1.626   7.483   2.363  1.1944  0.6285 -0.4152
  125HK4    C4610421   1.662   7.683   2.451  0.2617  0.0599  0.7963
  125HK4    H2610422   1.763   7.691   2.406  0.0000  0.0814  0.2104
  125HK4    C4010423   1.643   7.758   2.568 -0.2551  0.1525  0.6517
  125HK4    C5010424   1.547   7.711   2.660 -0.2042  0.0056  0.6300
  125HK4    H3010425   1.536   7.752   2.762 -0.0600  0.6689  0.3809
  125HK4    C4910426   1.473   7.595   2.638 -0.2038  0.1256 -0.0101
  125HK4    H2910427   1.409   7.564   2.722  0.1633 -2.1535 -0.5579
  125HK4     N210428   1.684   7.892   2.572  0.1445  0.0483  0.0403
  125HK4    C3010429   1.733   7.961   2.685 -0.0927  0.1477  0.0814
  125HK4    C2910430   1.753   7.915   2.815  0.3448 -0.0530 -0.0559
  125HK4    H1510431   1.770   7.809   2.830 -0.5865  0.1654  2.8101
  125HK4    C2810432   1.786   8.002   2.918  0.5318  0.4387 -0.5268
  125HK4    C2710433   1.802   8.140   2.893  0.2584  0.5550 -0.0460
  125HK4    H1410434   1.862   8.202   2.961 -0.0567  1.1941 -0.3453
  125HK4    C3210435   1.775   8.187   2.765 -0.2458  0.2211 -0.0638
  125HK4    H1610436   1.761   8.293   2.746 -0.3595  0.6856  2.4293
  125HK4    C3110437   1.745   8.103   2.658  0.5380  0.0548 -0.1569
  125HK4    C3410438   1.705   8.126   2.521  0.1026  0.4479  0.0351
  125HK4    C3310439   1.676   7.992   2.474  0.6821  0.2589  0.2085
  125HK4    C3510440   1.638   7.986   2.340 -0.2752 -0.4050  0.5018
  125HK4    H1710441   1.619   7.891   2.291 -1.1403  0.0165  0.0081
  125HK4    C3610442   1.621   8.103   2.266  0.8228 -0.5412  0.0277
  125HK4    H1810443   1.594   8.090   2.160 -3.1295  1.9207  0.6470
  125HK4    C3710444   1.650   8.228   2.320  0.7216 -0.1937 -0.7227
  125HK4    H1910445   1.628   8.319   2.265  1.5500 -0.2343 -1.1264
  125HK4    C3810446   1.689   8.246   2.452 -0.8812  0.1361 -0.2881
  125HK4    H2010447   1.704   8.345   2.494  1.7315 -0.7662  1.0435
  125HK4    C1410448   1.796   7.954   3.057  0.0617  0.4923 -0.4752
  125HK4     C910449   1.797   8.040   3.167  0.3151  0.6136 -0.5715
  125HK4     C810450   1.875   8.014   3.282 -0.7812 -0.4409 -0.0489
  125HK4    C1110451   1.943   7.893   3.296  0.2321  0.1465  0.1551
  125HK4     H410452   1.993   7.865   3.390 -1.0655 -1.1851  0.4686
  125HK4    C1210453   1.922   7.796   3.199  0.2341  0.3953 -0.0962
  125HK4     H510454   1.974   7.700   3.210 -0.6641 -0.1511 -0.5491
  125HK4    C1310455   1.853   7.828   3.083  0.1924  0.6457 -0.0030
  125HK4     H610456   1.847   7.752   3.004 -0.8155  0.2525  0.4464
  125HK4     C710457   1.892   8.127   3.376  0.7877 -0.1115 -0.7079
  125HK4     O210458   1.971   8.112   3.468  0.0851  0.1579 -0.0570
  125HK4     C410459   1.818   8.254   3.365  0.0990 -0.4500  0.0083
  125HK4     C310460   1.832   8.355   3.460  0.2639 -0.0728 -0.4228
  125HK4     H310461   1.877   8.331   3.557 -1.3009  1.0905  0.6163
  125HK4     C210462   1.780   8.482   3.435 -0.3182 -0.0657  0.8144
  125HK4     H210463   1.804   8.564   3.504  1.7410  0.2170 -0.2140
  125HK4     C110464   1.719   8.510   3.313 -0.0975  0.2855  0.7851
  125HK4     H110465   1.695   8.615   3.291 -1.0670 -0.2652 -0.8830
  125HK4     C610466   1.686   8.408   3.222  0.4329  0.5562  0.2924
  125HK4     C510467   1.730   8.280   3.258  0.7764  0.4929 -0.3276
  125HK4    C1010468   1.705   8.157   3.177  0.1113  0.4044  0.0157
  125HK4     O110469   1.584   8.133   3.167  0.2697 -0.4643  0.0944
  125HK4    C1610470   1.666   8.452   3.083  0.3554 -0.3043  0.0245
  125HK4    C1510471   1.730   8.568   3.034 -0.0704  0.0212  0.2383
  125HK4     H710472   1.800   8.620   3.103  1.2146 -1.2949 -0.0424
  125HK4    C2010473   1.694   8.624   2.913 -0.0436  0.0645  0.2495
  125HK4     H910474   1.754   8.704   2.869 -1.3178  0.1894 -1.3067
  125HK4    C1910475   1.590   8.568   2.840 -0.0418  0.1487  0.1826
  125HK4    C1810476   1.514   8.456   2.892  0.1037 -0.0906 -0.1198
  125HK4    C1710477   1.559   8.400   3.011  0.2909  0.0420 -0.1295
  125HK4     H810478   1.488   8.334   3.060  1.8138 -0.9548  0.7775
  125HK4     N110479   1.414   8.422   2.798 -0.1633  0.0809  0.1030
  125HK4    C2110480   1.418   8.507   2.686 -0.0465  0.1271  0.1435
  125HK4    C2210481   1.524   8.601   2.715 -0.2293  0.2830  0.3153
  125HK4    C2610482   1.530   8.719   2.641  0.1218 -0.0684 -0.2122
  125HK4    H1310483   1.624   8.774   2.638  0.0517  0.1444  1.1025
  125HK4    C2510484   1.432   8.754   2.550  0.3265 -0.2356 -0.5001
  125HK4    H1210485   1.433   8.855   2.509  0.6452 -1.1981 -2.9904
  125HK4    C2410486   1.329   8.665   2.520 -0.0925  0.1842 -0.3030
  125HK4    H1110487   1.233   8.705   2.484 -1.8009 -2.5360  1.0169
  125HK4    C2310488   1.329   8.542   2.585 -0.0398  0.4786  0.2597
  125HK4    H1010489   1.272   8.464   2.535  0.3543  0.2612  0.1499
  125HK4    C3910490   1.359   8.294   2.787  0.6641 -0.1614 -1.2489
  125HK4    C4110491   1.227   8.277   2.742  0.1948 -0.0199  0.0512
  125HK4    H2110492   1.166   8.367   2.729 -0.9191 -0.8712 -0.7956
  125HK4    C4210493   1.161   8.154   2.741 -0.3368  0.2595  1.0211
  125HK4    H2210494   1.051   8.157   2.728 -0.1601  1.5332 -0.2715
  125HK4    C4310495   1.233   8.042   2.780 -0.4777 -0.1655  0.0622
  125HK4    H2310496   1.196   7.940   2.776  0.6453 -0.5440 -1.3721
  125HK4    C4410497   1.368   8.051   2.810 -0.4607 -0.1122 -0.0280
  125HK4    H2410498   1.432   7.962   2.800  1.1827  0.7042  2.4954
  125HK4    C4510499   1.429   8.175   2.819 -0.2369 -0.2511  0.4554
  125HK4    H2510500   1.538   8.179   2.835  0.0747  2.1913 -1.7906
  126HK4    H2810501   6.446   5.651   8.195 -0.9220  1.4020 -1.6454
  126HK4    C4810502   6.536   5.635   8.135 -0.0997 -0.6205  0.0745
  126HK4    C4710503   6.554   5.714   8.022  0.6069  0.1623  0.7298
  126HK4    H2710504   6.464   5.727   7.962  1.2521 -1.1580 -0.5624
  126HK4    C4610505   6.680   5.731   7.965 -0.0027  0.4660 -0.5185
  126HK4    H2610506   6.688   5.799   7.879 -0.5378  1.0350 -0.1232
  126HK4    C4010507   6.789   5.662   8.020  0.0223  0.8720 -0.0572
  126HK4    C5010508   6.768   5.578   8.131 -0.1239  0.0219 -0.7247
  126HK4    H3010509   6.856   5.536   8.182  0.5222  0.3272 -1.5797
  126HK4    C4910510   6.642   5.563   8.189  0.1796 -0.3887 -0.1658
  126HK4    H2910511   6.625   5.500   8.277  3.9102 -2.0108 -0.4776
  126HK4     N210512   6.909   5.646   7.949  0.0838 -0.0113  0.2368
  126HK4    C3010513   6.914   5.629   7.809  0.0016  0.0691  0.2236
  126HK4    C2910514   6.813   5.634   7.714  0.4414 -0.2316 -0.2594
  126HK4    H1510515   6.716   5.591   7.738  0.1729 -0.7626 -2.2114
  126HK4    C2810516   6.834   5.662   7.579  0.1493  0.2545 -0.2079
  126HK4    C2710517   6.970   5.674   7.545  0.2304 -0.6457 -0.2283
  126HK4    H1410518   6.995   5.726   7.451  0.6530 -0.9263 -0.2725
  126HK4    C3210519   7.077   5.655   7.632  0.1350  0.1092  0.0583
  126HK4    H1610520   7.177   5.631   7.597 -0.6570 -0.6537 -1.7924
  126HK4    C3110521   7.052   5.642   7.768 -0.0378 -0.2746 -0.0112
  126HK4    C3410522   7.132   5.654   7.889  0.5167 -0.0448 -0.3976
  126HK4    C3310523   7.039   5.672   7.998  0.3869 -0.1272 -0.4949
  126HK4    C3510524   7.082   5.732   8.116 -0.0051 -0.3372 -0.2397
  126HK4    H1710525   7.018   5.764   8.198 -1.0692  2.4342 -2.0709
  126HK4    C3610526   7.215   5.769   8.132  0.0577 -0.5138 -0.3371
  126HK4    H1810527   7.262   5.776   8.231  0.1377 -0.4949 -0.3757
  126HK4    C3710528   7.302   5.750   8.025 -0.0797  0.5506 -0.6459
  126HK4    H1910529   7.403   5.791   8.037  1.8095 -3.9702 -0.2655
  126HK4    C3810530   7.264   5.693   7.905  0.6095 -0.3474 -0.4388
  126HK4    H2010531   7.339   5.671   7.828 -0.0303  0.3664 -1.2760
  126HK4    C1410532   6.729   5.682   7.478 -0.3294 -0.2431  0.1802
  126HK4     C910533   6.755   5.704   7.342 -0.1327 -0.2233  0.2210
  126HK4     C810534   6.674   5.783   7.258 -0.0306 -0.1963  0.1449
  126HK4    C1110535   6.560   5.834   7.319 -0.1776 -0.0682 -0.2335
  126HK4     H410536   6.494   5.906   7.267  0.9902  1.6095  0.5573
  126HK4    C1210537   6.520   5.803   7.449  0.2087 -0.1586 -0.1342
  126HK4     H510538   6.416   5.814   7.485  0.0532 -1.7368 -0.0649
  126HK4    C1310539   6.605   5.727   7.527 -0.3565 -0.3972  0.2513
  126HK4     H610540   6.571   5.681   7.621  0.1255  1.1884  1.2263
  126HK4     C710541   6.687   5.800   7.112 -0.7468 -0.8415  0.0024
  126HK4     O210542   6.602   5.862   7.048 -0.2954  0.1332  0.3397
  126HK4     C410543   6.813   5.744   7.057 -0.3822  0.0444 -0.0807
  126HK4     C310544   6.836   5.762   6.921  0.1302  0.4277  0.0560
  126HK4     H310545   6.798   5.849   6.865  0.2362 -0.6422 -1.7191
  126HK4     C210546   6.934   5.687   6.858 -0.1915 -0.1722  0.2594
  126HK4     H210547   6.932   5.688   6.748  0.8719 -0.1402  0.2351
  126HK4     C110548   7.029   5.616   6.931 -0.0379 -0.1432  0.0903
  126HK4     H110549   7.116   5.573   6.880  0.6118 -0.9369  1.8255
  126HK4     C610550   7.023   5.627   7.072 -0.2798 -0.2366  0.0898
  126HK4     C510551   6.905   5.670   7.133 -0.1669  0.3171 -0.0758
  126HK4    C1010552   6.864   5.631   7.271 -0.2023  0.0451 -0.1628
  126HK4     O110553   6.889   5.516   7.308  0.0558  0.3205  0.5206
  126HK4    C1610554   7.144   5.586   7.145 -0.2502 -0.4805 -0.0939
  126HK4    C1510555   7.192   5.667   7.250 -0.0084 -0.4456 -0.2304
  126HK4     H710556   7.145   5.766   7.263  1.1356  0.0491  0.2356
  126HK4    C2010557   7.303   5.637   7.328 -0.2479  0.1230  0.3383
  126HK4     H910558   7.355   5.710   7.389  0.9458  0.2611 -0.8213
  126HK4    C1910559   7.355   5.509   7.312  0.0172  0.2094  0.5175
  126HK4    C1810560   7.302   5.420   7.211  0.4683 -0.0650  0.5217
  126HK4    C1710561   7.196   5.458   7.131  0.6678 -0.1507  0.2148
  126HK4     H810562   7.162   5.394   7.049  2.0544 -0.6928  0.0630
  126HK4     N110563   7.392   5.314   7.186 -0.1621 -0.4877  0.0643
  126HK4    C2110564   7.498   5.333   7.276 -0.1660 -0.0807 -0.0161
  126HK4    C2210565   7.486   5.458   7.349  0.5373  0.5037 -0.9006
  126HK4    C2610566   7.593   5.505   7.424  0.2247 -0.1194 -0.0605
  126HK4    H1310567   7.571   5.576   7.504 -0.4598 -1.9731  1.4296
  126HK4    C2510568   7.712   5.434   7.431  0.3513  0.1387  0.4428
  126HK4    H1210569   7.790   5.462   7.502 -0.5579 -1.9698  2.3491
  126HK4    C2410570   7.720   5.315   7.360 -0.4106  0.1284  0.3640
  126HK4    H1110571   7.820   5.277   7.335 -1.3482 -2.5572  0.6131
  126HK4    C2310572   7.617   5.262   7.284 -0.0194  0.1461 -0.1890
  126HK4    H1010573   7.633   5.179   7.216  0.6022  0.2534 -0.1707
  126HK4    C3910574   7.348   5.186   7.147 -0.8671 -0.1493 -0.2675
  126HK4    C4110575   7.433   5.090   7.090 -0.5242  0.0257 -0.0530
  126HK4    H2110576   7.525   5.121   7.038  0.2498  0.0606  1.3117
  126HK4    C4210577   7.409   4.954   7.109 -0.1058 -0.1009 -0.4148
  126HK4    H2210578   7.473   4.879   7.061  1.2416  0.3385  0.6608
  126HK4    C4310579   7.294   4.915   7.176 -0.2740 -0.3153 -0.8270
  126HK4    H2310580   7.276   4.808   7.180 -4.0644  0.2864  1.0367
  126HK4    C4410581   7.196   5.005   7.217 -0.0074 -0.2448 -0.3438
  126HK4    H2410582   7.098   4.965   7.247 -1.3374  2.6932 -0.5365
  126HK4    C4510583   7.226   5.140   7.202 -0.7257 -0.0245  0.1541
  126HK4    H2510584   7.148   5.215   7.219 -0.9911  0.0117 -1.2013
  127HK4    H2810585  11.094  10.887  10.224 -0.1849  0.2713 -1.4894
  127HK4    C4810586  11.090  10.994  10.242  0.0487  0.0814 -0.2160
  127HK4    C4710587  11.112  11.051  10.367  0.3711  0.2491 -0.3511
  127HK4    H2710588  11.129  10.988  10.455  2.3376  1.5289  0.2099
  127HK4    C4610589  11.102  11.188  10.385  0.2130  0.2045 -0.0929
  127HK4    H2610590  11.140  11.224  10.482  2.6384 -2.1681 -0.1077
  127HK4    C4010591  11.073   0.027  10.277 -0.4517  0.1364  0.0226
  127HK4    C5010592  11.057  11.214  10.151  0.7534 -0.2967  0.0679
  127HK4    H3010593  11.026   0.033  10.069  1.0239  0.1617  0.3347
  127HK4    C4910594  11.066  11.077  10.132 -1.2964 -0.3971 -0.2826
  127HK4    H2910595  11.003  11.036  10.052 -2.5680  1.2137 -0.1242
  127HK4     N210596  11.025   0.156  10.298 -0.5281  0.1050  0.0328
  127HK4    C3010597  10.982   0.202  10.424 -0.0398  0.0052  0.2416
  127HK4    C2910598  10.925   0.140  10.535 -0.1149 -0.2613  0.0528
  127HK4    H1510599  10.900   0.034  10.529 -2.6998  0.3376 -0.2833
  127HK4    C2810600  10.885   0.209  10.649  0.2925 -0.0630  0.0752
  127HK4    C2710601  10.894   0.350  10.648 -0.2343 -0.0296  0.1414
  127HK4    H1410602  10.856   0.407  10.735  0.9570  1.0795 -0.0637
  127HK4    C3210603  10.952   0.418  10.542 -0.5605 -0.0348 -0.0402
  127HK4    H1610604  10.976   0.523  10.557  1.8699 -0.9951  3.3109
  127HK4    C3110605  10.988   0.347  10.428  0.4209 -0.0155  0.2585
  127HK4    C3410606  11.019   0.391  10.293 -0.6975  0.4764  0.1579
  127HK4    C3310607  11.051   0.270  10.219 -0.2320  0.3762  0.5240
  127HK4    C3510608  11.120   0.278  10.098 -0.5215  0.0569  0.3328
  127HK4    H1710609  11.161   0.191  10.048 -0.8335  0.9119 -1.4611
  127HK4    C3610610  11.160   0.402  10.051 -0.4714 -0.0469  0.1099
  127HK4    H1810611  11.205   0.414   9.951 -0.1836 -0.2239  0.2172
  127HK4    C3710612  11.140   0.518  10.125 -0.0553  0.2203 -0.1904
  127HK4    H1910613  11.190   0.612  10.102 -0.2722  0.2608 -0.5040
  127HK4    C3810614  11.063   0.512  10.241 -0.4812  0.1249 -0.4776
  127HK4    H2010615  11.040   0.607  10.288 -2.1750 -0.1160 -0.7958
  127HK4    C1410616  10.837   0.135  10.766 -0.0769  0.1890  0.0837
  127HK4     C910617  10.750   0.195  10.858 -0.1773 -0.1987  0.2411
  127HK4     C810618  10.764   0.174  10.997 -0.2364 -0.3675  0.2245
  127HK4    C1110619  10.857   0.078  11.037  0.3015  0.1716  0.2850
  127HK4     H410620  10.875   0.063  11.144  0.5456 -0.5797  0.1452
  127HK4    C1210621  10.941   0.011  10.949  0.3914  0.7676 -0.0776
  127HK4     H510622  11.006  11.179  10.986 -0.1229  0.0414 -0.7336
  127HK4    C1310623  10.928   0.038  10.813 -0.2961 -0.1536 -0.2016
  127HK4     H610624  10.993  11.236  10.740  2.2348  0.5024  1.5544
  127HK4     C710625  10.665   0.226  11.093 -0.1552 -0.2291  0.2326
  127HK4     O210626  10.651   0.165  11.199  0.2307 -0.5830  0.0822
  127HK4     C410627  10.567   0.325  11.043  0.2303  0.0810  0.0994
  127HK4     C310628  10.500   0.401  11.138  0.1258 -0.0942  0.1674
  127HK4     H310629  10.529   0.399  11.244 -1.1985 -1.1092  0.5256
  127HK4     C210630  10.406   0.494  11.095  0.1698 -0.2489 -0.2611
  127HK4     H210631  10.342   0.547  11.167 -0.3603 -0.3538 -0.6526
  127HK4     C110632  10.379   0.505  10.959 -0.5207  0.8917 -0.0396
  127HK4     H110633  10.302   0.581  10.938 -1.3780 -0.4081 -1.7089
  127HK4     C610634  10.448   0.430  10.862 -0.3427  0.3328  0.5155
  127HK4     C510635  10.545   0.338  10.904 -0.0456  0.4863  0.1818
  127HK4    C1010636  10.629   0.264  10.806 -0.3057 -0.2307  0.4939
  127HK4     O110637  10.581   0.217  10.702  0.0540  0.3405  0.0639
  127HK4    C1610638  10.377   0.422  10.734 -0.1637  0.5720  0.3998
  127HK4    C1510639  10.237   0.405  10.724 -0.0149 -0.3341 -0.2423
  127HK4     H710640  10.190   0.341  10.800 -1.4044  0.2381 -0.6148
  127HK4    C2010641  10.159   0.447  10.617 -0.0853  0.1560  0.0001
  127HK4     H910642  10.051   0.436  10.618 -0.0995  0.2494 -0.4884
  127HK4    C1910643  10.219   0.503  10.505  0.3077  0.0167  0.1398
  127HK4    C1810644  10.363   0.518  10.512  0.3994 -0.5000 -0.6918
  127HK4    C1710645  10.437   0.479  10.623 -0.3674  0.0563  0.0198
  127HK4     H810646  10.544   0.501  10.623 -0.0914 -1.2747  1.0840
  127HK4     N110647  10.419   0.570  10.393 -0.0144 -0.0861 -0.7075
  127HK4    C2110648  10.307   0.598  10.312 -0.5305  0.6958  0.2803
  127HK4    C2210649  10.183   0.556  10.375 -0.3531  0.5493  0.5304
  127HK4    C2610650  10.062   0.588  10.314 -0.0951  0.3861 -0.0657
  127HK4    H1310651   9.964   0.566  10.356  1.0424  1.5372  3.3986
  127HK4    C2510652  10.064   0.668  10.201 -0.4783  0.1337 -0.2519
  127HK4    H1210653   9.973   0.678  10.142 -1.1241  1.3713  0.9271
  127HK4    C2410654  10.182   0.711  10.141  0.2036 -0.6608  0.5196
  127HK4    H1110655  10.183   0.784  10.059  2.3481 -2.1459 -0.8416
  127HK4    C2310656  10.304   0.681  10.201  0.7473  0.1423 -0.1764
  127HK4    H1010657  10.393   0.730  10.161  0.5427  1.0509  0.4913
  127HK4    C3910658  10.545   0.533  10.345  0.1536 -0.3714 -0.0512
  127HK4    C4110659  10.614   0.613  10.251 -0.2879 -0.0804 -0.1274
  127HK4    H2110660  10.606   0.723  10.255 -1.0817 -0.1685  0.9991
  127HK4    C4210661  10.713   0.561  10.169  0.3474 -0.1869  0.7093
  127HK4    H2210662  10.790   0.619  10.117 -2.5755  0.6430 -2.8894
  127HK4    C4310663  10.740   0.425  10.170  0.5771 -0.1454  0.2500
  127HK4    H2310664  10.790   0.377  10.086 -1.9999 -0.1000 -1.3684
  127HK4    C4410665  10.677   0.343  10.263 -0.0453 -0.0864 -0.1173
  127HK4    H2410666  10.707   0.237  10.257 -1.7474 -0.5398 -1.1003
  127HK4    C4510667  10.584   0.397  10.351  0.4451 -0.2633  0.5133
  127HK4    H2510668  10.537   0.330  10.424  0.0879 -0.8815 -0.2841
  128HK4    H2810669   5.437   5.223   4.502  1.0656  2.0705  0.9471
  128HK4    C4810670   5.383   5.201   4.594  0.0927  0.0912 -0.0571
  128HK4    C4710671   5.310   5.084   4.612 -0.3179  0.2801 -0.4766
  128HK4    H2710672   5.323   5.006   4.537  3.6257  0.4230 -0.0653
  128HK4    C4610673   5.234   5.063   4.727  0.2115 -0.4288 -0.2538
  128HK4    H2610674   5.182   4.966   4.731 -0.0179 -0.3093 -0.3466
  128HK4    C4010675   5.221   5.164   4.825 -0.4362 -0.1573 -0.6100
  128HK4    C5010676   5.299   5.279   4.803 -0.0738 -0.2570  0.1512
  128HK4    H3010677   5.301   5.360   4.878 -0.6198 -1.7671  1.8142
  128HK4    C4910678   5.381   5.300   4.692  0.2252 -0.3207  0.3594
  128HK4    H2910679   5.436   5.393   4.676  2.0873 -1.3065  0.8211
  128HK4     N210680   5.117   5.168   4.917  0.1784 -0.5097  0.1065
  128HK4    C3010681   4.994   5.099   4.907 -0.0990  0.0030  0.0025
  128HK4    C2910682   4.916   5.069   4.795  0.1441 -0.3014 -0.0859
  128HK4    H1510683   4.940   5.110   4.697 -0.5609 -1.1010 -0.6038
  128HK4    C2810684   4.792   5.009   4.809  0.2965 -0.5474  0.2163
  128HK4    C2710685   4.748   4.956   4.932 -0.1621 -0.6357  0.0171
  128HK4    H1410686   4.664   4.885   4.939  0.6615 -1.6367 -0.0357
  128HK4    C3210687   4.827   4.979   5.044 -0.2415  0.0663 -0.0724
  128HK4    H1610688   4.809   4.916   5.131 -3.7816 -0.0583 -0.8150
  128HK4    C3110689   4.944   5.054   5.035 -0.2557  0.0924 -0.0268
  128HK4    C3410690   5.037   5.114   5.129 -0.0303 -0.3775  0.0536
  128HK4    C3310691   5.143   5.179   5.055 -0.4791  0.4758  0.1553
  128HK4    C3510692   5.258   5.225   5.120  0.1937 -0.8987 -0.0512
  128HK4    H1710693   5.348   5.251   5.065 -0.1741  0.7937  0.1278
  128HK4    C3610694   5.260   5.210   5.258 -0.0073  0.5393  0.1128
  128HK4    H1810695   5.336   5.253   5.324 -0.1332  2.0760 -0.7263
  128HK4    C3710696   5.161   5.145   5.331 -0.4452  0.8724 -0.1715
  128HK4    H1910697   5.179   5.116   5.435 -0.2298 -0.9965 -0.7043
  128HK4    C3810698   5.051   5.092   5.266  0.0192 -0.3830  0.0478
  128HK4    H2010699   4.973   5.047   5.328 -0.1208  2.1170  1.7102
  128HK4    C1410700   4.693   5.064   4.715  0.0461  0.3184  0.9804
  128HK4     C910701   4.559   5.089   4.748 -0.2009  0.8666 -0.4149
  128HK4     C810702   4.454   5.055   4.661 -0.1927  0.0599 -0.1168
  128HK4    C1110703   4.482   5.002   4.535  0.4602  0.4703 -0.1456
  128HK4     H410704   4.405   4.998   4.457 -1.6252  0.7334  1.8464
  128HK4    C1210705   4.615   4.987   4.497  0.4009  0.3975 -0.3227
  128HK4     H510706   4.647   4.951   4.398  0.6647 -1.0192  0.2550
  128HK4    C1310707   4.718   5.017   4.585 -0.5669  0.1044  0.9377
  128HK4     H610708   4.823   5.031   4.554 -0.2485  0.2296  2.0703
  128HK4     C710709   4.317   5.060   4.716 -0.0107 -0.8733  0.4342
  128HK4     O210710   4.221   5.007   4.658 -0.1165 -0.4430  0.2121
  128HK4     C410711   4.292   5.124   4.847  0.1590 -0.3831  0.2259
  128HK4     C310712   4.168   5.118   4.908  0.2191  0.0231  0.3971
  128HK4     H310713   4.092   5.050   4.866 -0.2451  1.5257 -1.2399
  128HK4     C210714   4.141   5.204   5.014  0.2016 -0.0650  0.4627
  128HK4     H210715   4.070   5.169   5.090  0.4092  2.2354  1.7462
  128HK4     C110716   4.224   5.312   5.043 -0.1082  0.4621 -0.5903
  128HK4     H110717   4.189   5.377   5.124  2.2069 -0.6433  1.3678
  128HK4     C610718   4.348   5.325   4.977  0.3204  0.2494  0.1751
  128HK4     C510719   4.386   5.218   4.895 -0.2415  0.0405  0.1876
  128HK4    C1010720   4.526   5.186   4.857 -0.2106  0.6545 -0.2292
  128HK4     O110721   4.613   5.234   4.929 -0.2611  0.5327 -0.0879
  128HK4    C1610722   4.395   5.462   4.955 -0.0269  0.2861 -0.3405
  128HK4    C1510723   4.356   5.576   5.030 -0.0208 -0.1469  0.3246
  128HK4     H710724   4.277   5.559   5.104 -1.7850  0.9149 -1.2808
  128HK4    C2010725   4.385   5.710   5.011 -0.2742 -0.2232 -0.6198
  128HK4     H910726   4.341   5.792   5.068  2.0454 -1.4294  3.0523
  128HK4    C1910727   4.471   5.735   4.904  0.3542 -0.0997 -0.0926
  128HK4    C1810728   4.521   5.625   4.823 -0.1015 -0.1032 -0.3747
  128HK4    C1710729   4.477   5.496   4.849 -0.4366 -0.0701 -0.7716
  128HK4     H810730   4.486   5.427   4.765  0.1006 -1.9778  0.8083
  128HK4     N110731   4.622   5.672   4.736 -0.4000 -0.2005 -0.7762
  128HK4    C2110732   4.632   5.811   4.757  0.4956 -0.4929  0.8202
  128HK4    C2210733   4.533   5.855   4.853  0.3073  0.1098  0.3507
  128HK4    C2610734   4.530   5.989   4.892  0.9600  0.1033  0.4339
  128HK4    H1310735   4.481   6.016   4.985  0.2528  0.0371  0.0825
  128HK4    C2510736   4.618   6.080   4.834  0.4104  0.6178  0.3995
  128HK4    H1210737   4.623   6.185   4.861 -0.4903  1.1207 -1.2858
  128HK4    C2410738   4.715   6.036   4.744 -0.2633 -0.7762  0.3400
  128HK4    H1110739   4.763   6.120   4.691 -2.3315  0.0990 -0.1730
  128HK4    C2310740   4.724   5.903   4.706  0.0845 -0.6151 -0.1433
  128HK4    H1010741   4.802   5.870   4.637  0.2789  0.3195 -0.3751
  128HK4    C3910742   4.718   5.590   4.676  0.0816 -0.1867 -0.0260
  128HK4    C4110743   4.778   5.630   4.555 -0.1072 -0.0532 -0.0750
  128HK4    H2110744   4.748   5.722   4.503 -0.5606 -0.5405 -0.6836
  128HK4    C4210745   4.889   5.561   4.509  0.2061  0.3115  0.1368
  128HK4    H2210746   4.926   5.588   4.409  0.1419 -0.2583 -0.0381
  128HK4    C4310747   4.951   5.460   4.582  0.2502  0.0933 -0.2036
  128HK4    H2310748   5.048   5.425   4.548  1.1498  0.8508  1.5067
  128HK4    C4410749   4.894   5.418   4.701  0.3745  0.1378 -0.1278
  128HK4    H2410750   4.937   5.336   4.760  0.3601  1.0087  1.1170
  128HK4    C4510751   4.783   5.487   4.749  0.4081  0.0701  0.0477
  128HK4    H2510752   4.743   5.443   4.841  1.9063 -0.0726  0.6458
  129HK4    H2810753   7.283   7.865   9.522 -1.5616 -0.2388  1.6066
  129HK4    C4810754   7.358   7.916   9.582 -0.7467  0.2232  0.2372
  129HK4    C4710755   7.412   7.845   9.688 -0.2178  0.2725  0.0028
  129HK4    H2710756   7.362   7.756   9.729  0.5180  0.3170  1.0214
  129HK4    C4610757   7.523   7.896   9.755 -0.6164  0.0846  0.8224
  129HK4    H2610758   7.548   7.845   9.849 -1.4290  0.2555  1.1346
  129HK4    C4010759   7.579   8.021   9.721  0.0486 -0.5137 -0.3252
  129HK4    C5010760   7.526   8.088   9.609  0.6234  0.1611 -0.1940
  129HK4    H3010761   7.570   8.179   9.565  0.5441  0.3590  0.1393
  129HK4    C4910762   7.412   8.039   9.546  0.4375 -0.2332  0.4518
  129HK4    H2910763   7.360   8.108   9.479  2.1446 -1.2863 -2.0609
  129HK4     N210764   7.661   8.091   9.811  0.0313 -0.8039 -0.0815
  129HK4    C3010765   7.662   8.076   9.951 -0.1731  0.1457  0.0277
  129HK4    C2910766   7.562   8.042  10.042 -0.2649  0.6447  0.1119
  129HK4    H1510767   7.480   7.987   9.995 -1.5687  1.4875  1.3714
  129HK4    C2810768   7.566   8.059  10.180  0.1074 -1.0296  0.3146
  129HK4    C2710769   7.690   8.105  10.228 -0.2100  0.0122  0.1424
  129HK4    H1410770   7.713   8.104  10.336 -1.7287  2.0090  0.5108
  129HK4    C3210771   7.794   8.135  10.142  0.0860 -0.9657  0.1504
  129HK4    H1610772   7.882   8.180  10.188 -0.7052 -0.0133  0.7462
  129HK4    C3110773   7.785   8.132  10.003 -0.3706  0.4737  0.1417
  129HK4    C3410774   7.852   8.193   9.890 -0.3071  0.0263 -0.0655
  129HK4    C3310775   7.783   8.150   9.771 -0.5173  0.3565 -0.0612
  129HK4    C3510776   7.837   8.185   9.648 -0.0877  0.4705  0.1586
  129HK4    H1710777   7.794   8.153   9.553 -0.3329  2.3343 -0.3698
  129HK4    C3610778   7.948   8.269   9.645  0.5922 -0.4257 -0.3140
  129HK4    H1810779   7.981   8.311   9.548  2.1018  1.5326  1.0084
  129HK4    C3710780   8.010   8.320   9.758 -0.3259 -0.0457  0.0302
  129HK4    H1910781   8.102   8.380   9.757  1.0983 -2.1538 -1.6716
  129HK4    C3810782   7.961   8.279   9.882 -0.3465  0.0898  0.0649
  129HK4    H2010783   8.004   8.305   9.979  0.3690 -2.9352  0.5984
  129HK4    C1410784   7.446   8.049  10.263 -0.1665  0.0437  0.0569
  129HK4     C910785   7.432   8.115  10.386  0.0506 -0.3466  0.2936
  129HK4     C810786   7.350   8.073  10.492 -0.3339 -0.0072  0.1327
  129HK4    C1110787   7.283   7.954  10.468 -0.0121 -0.1015 -0.3084
  129HK4     H410788   7.228   7.901  10.548 -1.7730 -0.4767 -1.7318
  129HK4    C1210789   7.285   7.888  10.346  0.5112 -0.3887 -0.1478
  129HK4     H510790   7.209   7.810  10.329  0.3093 -0.3269  0.4711
  129HK4    C1310791   7.366   7.934  10.243  0.0946 -0.0717 -0.3362
  129HK4     H610792   7.359   7.878  10.149 -0.0222 -1.5761  0.5496
  129HK4     C710793   7.354   8.133  10.627  0.1815  0.5067 -0.1085
  129HK4     O210794   7.256   8.123  10.701 -0.1167  0.3821 -0.5232
  129HK4     C410795   7.463   8.230  10.657  0.1457  0.4747  0.1253
  129HK4     C310796   7.485   8.276  10.786 -1.0743  0.0392  0.4982
  129HK4     H310797   7.443   8.227  10.875  0.9564 -0.4883  1.1801
  129HK4     C210798   7.559   8.390  10.815 -0.1160 -0.3998 -0.1801
  129HK4     H210799   7.564   8.437  10.914 -1.0262  0.8013 -0.6874
  129HK4     C110800   7.625   8.454  10.710  0.3076  0.0091  0.3320
  129HK4     H110801   7.675   8.549  10.732  0.1733  0.5451 -1.6288
  129HK4     C610802   7.616   8.400  10.580 -0.5242  0.5661  0.1514
  129HK4     C510803   7.532   8.293  10.551  0.9553 -0.5828  0.0144
  129HK4    C1010804   7.508   8.240  10.414  0.0574 -0.2939  0.0525
  129HK4     O110805   7.498   8.326  10.326 -0.6978 -0.4576 -0.0227
  129HK4    C1610806   7.745   8.416  10.511 -0.6059  0.0281 -0.1312
  129HK4    C1510807   7.864   8.432  10.586 -0.7826  0.7518  0.0085
  129HK4     H710808   7.865   8.410  10.694  0.1237 -0.2957 -0.1942
  129HK4    C2010809   7.982   8.479  10.529 -0.2408 -0.5937 -0.0223
  129HK4     H910810   8.077   8.491  10.582 -0.9288  0.4355  1.0194
  129HK4    C1910811   7.977   8.530  10.400  0.0729  0.1213  0.2462
  129HK4    C1810812   7.855   8.526  10.321 -0.0126  0.9526  0.3205
  129HK4    C1710813   7.744   8.473  10.384  0.2718 -0.5341 -0.3957
  129HK4     H810814   7.645   8.514  10.363  0.4336  0.0600 -0.0124
  129HK4     N110815   7.885   8.563  10.188 -0.2072 -0.1964 -0.0529
  129HK4    C2110816   8.025   8.575  10.178 -0.2100 -0.0104  0.1003
  129HK4    C2210817   8.083   8.572  10.311  0.0136 -0.2562  0.0008
  129HK4    C2610818   8.220   8.593  10.325  0.0095 -0.0014 -0.3060
  129HK4    H1310819   8.253   8.617  10.426 -2.1185 -0.5555  0.5485
  129HK4    C2510820   8.302   8.608  10.214  0.2686  0.0820 -0.1029
  129HK4    H1210821   8.403   8.647  10.225  0.3418 -0.0883 -0.1802
  129HK4    C2410822   8.244   8.603  10.088  0.2121  0.1586 -0.0807
  129HK4    H1110823   8.313   8.586  10.004  0.6342 -1.2919  0.5523
  129HK4    C2310824   8.108   8.590  10.066  0.1479  0.0726  0.3785
  129HK4    H1010825   8.070   8.579   9.965  0.2257  2.7857  0.0030
  129HK4    C3910826   7.788   8.572  10.088 -0.3258 -0.0009  0.0791
  129HK4    C4110827   7.819   8.628   9.962 -0.8121 -0.0077 -0.0425
  129HK4    H2110828   7.891   8.710   9.952 -1.2492  0.0096 -3.5204
  129HK4    C4210829   7.761   8.589   9.842 -0.4141  0.2156 -0.3096
  129HK4    H2210830   7.809   8.620   9.747  1.2373  1.1211  0.7934
  129HK4    C4310831   7.660   8.494   9.839 -0.0605 -0.1699  0.0286
  129HK4    H2310832   7.610   8.482   9.742  3.0706 -1.1177 -1.5371
  129HK4    C4410833   7.625   8.436   9.960 -0.3237  0.1326  0.0983
  129HK4    H2410834   7.548   8.357   9.968  1.6860 -1.7452  1.5897
  129HK4    C4510835   7.687   8.475  10.078 -0.0896 -0.2510  0.1062
  129HK4    H2510836   7.661   8.410  10.163  1.5923 -0.0695  0.7695
  130HK4    H2810837   4.249   7.757   7.945  0.2311  0.0172  0.1529
  130HK4    C4810838   4.311   7.789   7.861  0.0891 -0.1662 -0.0212
  130HK4    C4710839   4.410   7.699   7.823  0.4081  0.1815 -0.0147
  130HK4    H2710840   4.389   7.591   7.834  3.8348 -0.5804 -0.4047
  130HK4    C4610841   4.525   7.745   7.761  0.3057 -0.4151 -0.6573
  130HK4    H2610842   4.613   7.680   7.769 -0.2100 -1.3250 -2.2069
  130HK4    C4010843   4.529   7.880   7.722  0.0956  0.0273  0.7940
  130HK4    C5010844   4.422   7.969   7.748  0.0226  0.2966 -0.3717
  130HK4    H3010845   4.426   8.072   7.710  2.3211  0.4771  0.2581
  130HK4    C4910846   4.317   7.923   7.827  0.7245 -0.0978  0.3489
  130HK4    H2910847   4.237   7.983   7.873  0.3727 -0.4560  0.2069
  130HK4     N210848   4.638   7.927   7.647 -0.1875 -0.0113  0.3532
  130HK4    C3010849   4.690   8.057   7.635 -0.0216 -0.1281 -0.1763
  130HK4    C2910850   4.667   8.172   7.710  0.1536 -0.2887  0.1199
  130HK4    H1510851   4.600   8.162   7.796 -1.5557  0.5654 -1.1023
  130HK4    C2810852   4.706   8.298   7.667  0.4276 -0.3707  0.1234
  130HK4    C2710853   4.788   8.305   7.553 -0.1852  0.0720 -0.2956
  130HK4    H1410854   4.831   8.400   7.519  2.1288 -0.0368  2.0794
  130HK4    C3210855   4.826   8.193   7.480 -0.2734  0.1801 -0.5064
  130HK4    H1610856   4.896   8.213   7.399 -1.5138  0.2735 -1.5704
  130HK4    C3110857   4.775   8.069   7.518  0.3125  0.1152  0.0880
  130HK4    C3410858   4.777   7.937   7.458 -0.2460  0.1392  0.0128
  130HK4    C3310859   4.693   7.853   7.540 -0.1898  0.2426  0.1746
  130HK4    C3510860   4.656   7.732   7.483 -0.2137  0.5470 -0.4514
  130HK4    H1710861   4.584   7.673   7.540 -1.4375  1.3696 -1.1289
  130HK4    C3610862   4.705   7.690   7.359  0.0972 -0.4519  0.0083
  130HK4    H1810863   4.678   7.591   7.318 -3.5779 -0.1551  1.4745
  130HK4    C3710864   4.785   7.772   7.281 -0.0406  0.1456  0.4941
  130HK4    H1910865   4.790   7.759   7.173  0.1797  1.8025  0.2895
  130HK4    C3810866   4.824   7.895   7.334  0.1126  0.2670  0.1033
  130HK4    H2010867   4.895   7.954   7.278 -0.3562  1.2048  0.4944
  130HK4    C1410868   4.640   8.416   7.727 -0.2341 -0.4092 -0.5179
  130HK4     C910869   4.631   8.541   7.665  0.0716 -0.1899 -0.1188
  130HK4     C810870   4.637   8.660   7.742  0.0349 -0.2537 -0.0220
  130HK4    C1110871   4.617   8.653   7.879 -0.3679 -0.4670 -0.0872
  130HK4     H410872   4.610   8.740   7.947 -0.0679 -0.0967 -0.5269
  130HK4    C1210873   4.613   8.529   7.940 -0.4668 -0.3089  0.2263
  130HK4     H510874   4.626   8.519   8.049 -0.5202  1.4804  0.4077
  130HK4    C1310875   4.621   8.412   7.866 -0.6606  0.1734 -0.5592
  130HK4     H610876   4.619   8.315   7.919  1.0215  0.4320  0.0133
  130HK4     C710877   4.665   8.793   7.683  0.2400 -0.1352  0.3447
  130HK4     O210878   4.680   8.892   7.755  0.6052 -0.4316  0.6785
  130HK4     C410879   4.682   8.799   7.536 -0.4279  0.1660  0.2797
  130HK4     C310880   4.718   8.920   7.478  0.6311 -0.2041  0.1462
  130HK4     H310881   4.754   9.002   7.542 -1.7662  0.2416  1.0080
  130HK4     C210882   4.743   8.925   7.342 -0.2452 -0.3391 -0.0253
  130HK4     H210883   4.787   9.017   7.301 -0.2933 -0.8510 -1.2493
  130HK4     C110884   4.727   8.811   7.264  0.7378 -0.3688 -0.1881
  130HK4     H110885   4.743   8.821   7.156 -3.8874  1.5826 -0.7866
  130HK4     C610886   4.690   8.685   7.317 -0.2528  0.1158  0.2876
  130HK4     C510887   4.662   8.686   7.454 -0.5790  0.2371  0.2207
  130HK4    C1010888   4.619   8.558   7.518  0.1985 -0.2005 -0.1311
  130HK4     O110889   4.521   8.502   7.469  0.0395 -0.0622  0.0299
  130HK4    C1610890   4.760   8.578   7.245 -0.1795  0.6179 -0.3947
  130HK4    C1510891   4.884   8.596   7.180  0.1646 -0.0794  0.0589
  130HK4     H710892   4.938   8.686   7.214 -1.7791  0.3953  2.0265
  130HK4    C2010893   4.942   8.510   7.088  0.4421  0.0788  0.0838
  130HK4     H910894   5.037   8.519   7.036 -1.6006  1.5483 -3.5096
  130HK4    C1910895   4.879   8.387   7.068  0.2301  0.1201  0.5005
  130HK4    C1810896   4.747   8.365   7.124  0.2638 -0.0828  0.4976
  130HK4    C1710897   4.693   8.462   7.207  0.3643  0.0113  0.4522
  130HK4     H810898   4.586   8.458   7.230  0.5120  1.3920  1.4332
  130HK4     N110899   4.701   8.234   7.100 -0.0775 -0.0549  0.9942
  130HK4    C2110900   4.809   8.173   7.033 -0.4055  0.1392  0.2891
  130HK4    C2210901   4.921   8.262   7.009 -0.3741  0.0686  0.1788
  130HK4    C2610902   5.037   8.220   6.944  0.1805 -0.1608  1.3101
  130HK4    H1310903   5.113   8.293   6.918  0.1682 -0.5615  0.1298
  130HK4    C2510904   5.040   8.086   6.907 -0.3006  0.1414  0.1540
  130HK4    H1210905   5.143   8.051   6.896 -0.4852  0.6217 -3.6072
  130HK4    C2410906   4.942   7.993   6.938 -0.2607  0.4046  1.0783
  130HK4    H1110907   4.957   7.885   6.923 -0.3490  0.4319  0.8008
  130HK4    C2310908   4.826   8.039   7.000 -1.1072  0.1965 -0.3325
  130HK4    H1010909   4.756   7.960   7.027 -1.1428 -0.4924 -2.3453
  130HK4    C3910910   4.594   8.166   7.160 -0.4546 -0.3071  0.0473
  130HK4    C4110911   4.536   8.059   7.090 -0.5286 -0.1034 -0.2087
  130HK4    H2110912   4.558   8.049   6.982 -0.9433  4.3297 -0.8161
  130HK4    C4210913   4.451   7.974   7.160 -0.1527 -0.1054  0.2415
  130HK4    H2210914   4.411   7.887   7.105  1.2645  0.3707 -1.5946
  130HK4    C4310915   4.420   7.989   7.295 -0.2551 -0.1471  0.2230
  130HK4    H2310916   4.361   7.915   7.349  1.0576 -0.7096  0.9064
  130HK4    C4410917   4.472   8.101   7.358 -0.4042  0.0302  0.0324
  130HK4    H2410918   4.467   8.116   7.466  1.0274 -0.3951  0.1739
  130HK4    C4510919   4.566   8.185   7.297 -0.0853 -0.2655  0.1179
  130HK4    H2510920   4.604   8.278   7.340  2.4569 -0.5995 -1.3144
  131HK4    H2810921   2.482   5.879   7.036  1.1258 -1.6387 -0.9914
  131HK4    C4810922   2.564   5.882   7.107 -0.0809 -0.2359  0.3651
  131HK4    C4710923   2.643   5.773   7.140  0.6252  0.1393 -0.0785
  131HK4    H2710924   2.607   5.669   7.132 -0.7799  0.5440  0.7445
  131HK4    C4610925   2.770   5.783   7.196  0.3965 -0.0611  0.4832
  131HK4    H2610926   2.820   5.691   7.227 -2.1320 -1.3388  0.8966
  131HK4    C4010927   2.834   5.907   7.218  0.5670  0.0583 -0.6112
  131HK4    C5010928   2.749   6.015   7.188 -0.4315 -0.6212 -0.2653
  131HK4    H3010929   2.790   6.116   7.200  1.0003 -1.0923 -0.9887
  131HK4    C4910930   2.620   6.006   7.139 -0.2824  0.1618 -0.8115
  131HK4    H2910931   2.574   6.097   7.099 -1.6542 -0.7084 -1.2719
  131HK4     N210932   2.965   5.917   7.267  0.4724 -0.3061 -0.2765
  131HK4    C3010933   3.032   5.815   7.337  0.5972 -0.1108 -0.1116
  131HK4    C2910934   2.987   5.702   7.406  0.0403  0.2887  0.1850
  131HK4    H1510935   2.880   5.701   7.426  0.3256  1.4773  1.8906
  131HK4    C2810936   3.073   5.621   7.478 -0.1784 -0.1851 -0.0880
  131HK4    C2710937   3.212   5.647   7.475 -0.1247 -0.4745 -0.1662
  131HK4    H1410938   3.282   5.563   7.482 -1.0612 -1.3015 -0.7064
  131HK4    C3210939   3.263   5.764   7.418  0.0759 -0.3884  0.1878
  131HK4    H1610940   3.366   5.795   7.437  0.8688 -1.6774 -1.9349
  131HK4    C3110941   3.173   5.845   7.350  0.4466  0.3206  0.5413
  131HK4    C3410942   3.183   5.974   7.284 -0.0857  0.0692 -0.0385
  131HK4    C3310943   3.056   6.019   7.231  0.0992 -0.0961 -0.6263
  131HK4    C3510944   3.046   6.122   7.139 -0.3020 -0.0476 -0.5353
  131HK4    H1710945   2.964   6.128   7.068  0.1029  2.1663 -0.8651
  131HK4    C3610946   3.154   6.205   7.112 -0.0123 -0.1018  0.4526
  131HK4    H1810947   3.138   6.300   7.058 -0.0168 -0.2327  0.2200
  131HK4    C3710948   3.278   6.167   7.161  0.1800  0.0923  0.1250
  131HK4    H1910949   3.365   6.228   7.134  0.0301  0.1881 -0.1350
  131HK4    C3810950   3.289   6.054   7.242 -0.0943  0.4938  0.7303
  131HK4    H2010951   3.394   6.032   7.261  0.1135  1.1659  0.3992
  131HK4    C1410952   3.016   5.522   7.570 -0.0816 -0.0006  0.1712
  131HK4     C910953   3.084   5.483   7.687 -1.0109  0.3084  0.8168
  131HK4     C810954   3.069   5.354   7.742 -0.1470 -0.1256  0.0367
  131HK4    C1110955   2.982   5.263   7.684  0.4123 -0.5085 -0.2052
  131HK4     H410956   2.975   5.159   7.721 -0.7103 -0.5225 -0.4454
  131HK4    C1210957   2.906   5.302   7.575 -0.5992 -0.4879  0.4963
  131HK4     H510958   2.825   5.240   7.532  0.2933  0.5644 -2.8603
  131HK4    C1310959   2.925   5.427   7.518 -0.1654 -0.3502  0.9410
  131HK4     H610960   2.864   5.457   7.432  1.7833  3.8264  0.8838
  131HK4     C710961   3.142   5.321   7.866 -0.1829  0.0146  0.0969
  131HK4     O210962   3.140   5.206   7.910 -0.1158 -0.0738 -0.1295
  131HK4     C410963   3.219   5.425   7.938 -0.4940  0.1268  0.2622
  131HK4     C310964   3.272   5.400   8.065  0.0542  0.0168  0.0120
  131HK4     H310965   3.245   5.310   8.123  1.5398 -0.2785  0.2552
  131HK4     C210966   3.358   5.490   8.124 -0.0060 -0.0129  0.1476
  131HK4     H210967   3.417   5.456   8.211 -1.9826  0.2142  1.5922
  131HK4     C110968   3.383   5.614   8.066  0.0964 -0.1843 -0.1772
  131HK4     H110969   3.434   5.685   8.133 -2.0211  1.7103 -0.5119
  131HK4     C610970   3.329   5.643   7.939  0.1057  0.3866 -0.0550
  131HK4     C510971   3.241   5.551   7.881  0.4928 -0.1021  0.1267
  131HK4    C1010972   3.156   5.589   7.764  0.1306 -0.1435  0.3779
  131HK4     O110973   3.090   5.690   7.788  0.3580  0.1793 -0.3553
  131HK4    C1610974   3.415   5.729   7.857  0.5660 -0.0448 -0.0267
  131HK4    C1510975   3.556   5.720   7.857  0.5409 -0.4777 -0.0727
  131HK4     H710976   3.605   5.636   7.907  0.2920 -1.0139 -0.7238
  131HK4    C2010977   3.636   5.804   7.781  0.2856  0.2718  0.4753
  131HK4     H910978   3.744   5.786   7.780  0.3120  0.4248 -0.2445
  131HK4    C1910979   3.588   5.902   7.695  0.0487 -0.3634 -0.1257
  131HK4    C1810980   3.444   5.912   7.701  0.0718 -0.0272 -0.0965
  131HK4    C1710981   3.362   5.827   7.774  0.2987 -0.2208 -0.0640
  131HK4     H810982   3.264   5.868   7.799  0.0364  0.1574 -1.6155
  131HK4     N110983   3.404   6.026   7.629 -0.0995 -0.2747 -0.3988
  131HK4    C2110984   3.521   6.082   7.574 -0.0639 -0.1429 -0.1879
  131HK4    C2210985   3.641   6.013   7.618 -0.1359  0.2355  0.6071
  131HK4    C2610986   3.763   6.035   7.556 -0.4534 -0.5745 -0.3166
  131HK4    H1310987   3.845   5.967   7.579  1.9641  2.4253  0.3319
  131HK4    C2510988   3.772   6.121   7.446 -0.4110 -0.3990 -0.1762
  131HK4    H1210989   3.861   6.123   7.384  1.0563 -0.0995  1.8747
  131HK4    C2410990   3.657   6.187   7.403 -0.0605  0.0917 -0.3585
  131HK4    H1110991   3.664   6.268   7.329 -1.0115 -1.1085 -1.8158
  131HK4    C2310992   3.535   6.170   7.466  0.0846 -0.0957 -0.1294
  131HK4    H1010993   3.440   6.199   7.422 -0.7107  0.5581  1.9267
  131HK4    C3910994   3.282   6.093   7.642 -0.0532 -0.1595 -0.5532
  131HK4    C4110995   3.282   6.234   7.640  0.6356 -0.1513 -0.2494
  131HK4    H2110996   3.370   6.299   7.648  0.2424  0.5196 -1.1890
  131HK4    C4210997   3.163   6.305   7.622  0.3680 -0.5829 -0.1842
  131HK4    H2210998   3.154   6.413   7.605 -0.6522 -0.6727 -0.2418
  131HK4    C4310999   3.042   6.237   7.618  0.0470  0.0293 -0.8660
  131HK4    H2311000   2.951   6.293   7.597 -1.1712 -1.2103  0.8953
  131HK4    C4411001   3.035   6.098   7.628 -0.3898  0.1345  0.3305
  131HK4    H2411002   2.944   6.045   7.658 -0.1031  0.2068  1.3362
  131HK4    C4511003   3.156   6.030   7.638 -0.3136  0.2895  0.4734
  131HK4    H2511004   3.146   5.922   7.619  2.0498  0.1439 -0.0808
  132HK4    H2811005   1.015   6.189  10.277 -0.1328 -0.3280  0.0943
  132HK4    C4811006   0.969   6.214  10.182 -0.1270 -0.2258  0.1176
  132HK4    C4711007   1.017   6.171  10.058 -0.1064  0.8140 -0.2372
  132HK4    H2711008   1.104   6.104  10.051  1.7655  3.0962  0.4911
  132HK4    C4611009   0.966   6.221   9.939 -0.2965  0.0616 -0.4739
  132HK4    H2611010   1.012   6.184   9.846  0.1557 -0.5725 -0.0001
  132HK4    C4011011   0.865   6.320   9.933 -0.1973  0.2124  0.2537
  132HK4    C5011012   0.826   6.369  10.059  0.1184  0.3718  0.2907
  132HK4    H3011013   0.777   6.467  10.071  0.1608  0.5196 -0.7105
  132HK4    C4911014   0.877   6.318  10.178  0.6623  0.4775  0.1045
  132HK4    H2911015   0.844   6.377  10.264 -0.2895  0.2316 -0.0878
  132HK4     N211016   0.816   6.374   9.814 -0.6733  0.3592  0.5192
  132HK4    C3011017   0.889   6.390   9.694 -0.2157 -0.0322  0.7463
  132HK4    C2911018   1.026   6.398   9.673 -0.3543 -0.1793 -0.2170
  132HK4    H1511019   1.081   6.430   9.761 -1.9199  2.0090 -0.0038
  132HK4    C2811020   1.088   6.388   9.549 -0.0711  0.5128 -0.1333
  132HK4    C2711021   1.001   6.399   9.438 -0.2121  0.2097 -0.0563
  132HK4    H1411022   1.033   6.352   9.344  0.6191  0.8910 -0.1234
  132HK4    C3211023   0.863   6.399   9.456 -0.1598  0.1556  0.3488
  132HK4    H1611024   0.810   6.382   9.362  2.9208 -1.3507 -1.1978
  132HK4    C3111025   0.800   6.397   9.579  0.1134 -0.1728  0.4842
  132HK4    C3411026   0.665   6.397   9.631  0.0293  0.3844  0.2607
  132HK4    C3311027   0.680   6.380   9.775 -0.6189  0.1299  0.2992
  132HK4    C3511028   0.571   6.319   9.836 -0.5497  0.4397  0.7308
  132HK4    H1711029   0.584   6.291   9.940 -1.8071  2.3744  1.4435
  132HK4    C3611030   0.451   6.282   9.775 -0.2758  0.0924  0.4030
  132HK4    H1811031   0.360   6.254   9.829  0.7570 -2.0040  1.0824
  132HK4    C3711032   0.439   6.303   9.638  0.2270 -0.0847  0.3261
  132HK4    H1911033   0.347   6.277   9.586  0.2399  3.8102 -1.8295
  132HK4    C3811034   0.545   6.363   9.571 -0.1939  0.8150  0.4574
  132HK4    H2011035   0.541   6.393   9.466  1.7211 -0.9377 -0.1499
  132HK4    C1411036   1.229   6.425   9.535  0.0975 -0.1958 -0.3579
  132HK4     C911037   1.290   6.490   9.428 -0.0362  0.2469 -0.1717
  132HK4     C811038   1.420   6.446   9.395  0.0434 -0.0008  0.4664
  132HK4    C1111039   1.496   6.365   9.479  0.8347  0.2906  0.0417
  132HK4     H411040   1.593   6.328   9.445  0.0319 -0.9781 -0.9180
  132HK4    C1211041   1.441   6.322   9.599  0.3263 -0.2612 -0.3805
  132HK4     H511042   1.506   6.268   9.669 -1.1596 -2.4207 -0.6352
  132HK4    C1311043   1.307   6.349   9.625  0.5513  0.5948 -0.0736
  132HK4     H611044   1.261   6.297   9.711 -0.4338  0.9166 -0.3974
  132HK4     C711045   1.493   6.515   9.285  0.3286 -0.1052  0.5863
  132HK4     O211046   1.586   6.454   9.233  0.1458  0.1423 -0.0385
  132HK4     C411047   1.426   6.623   9.210  0.2824 -0.3294  0.3054
  132HK4     C311048   1.503   6.700   9.124 -0.2659  0.0429  0.1449
  132HK4     H311049   1.611   6.686   9.111  0.1855  3.7532 -0.8193
  132HK4     C211050   1.439   6.797   9.047 -0.4208  0.0510  0.2831
  132HK4     H211051   1.493   6.869   8.983 -0.4735 -0.7123 -0.6422
  132HK4     C111052   1.303   6.820   9.059 -0.4490  0.1788 -0.2452
  132HK4     H111053   1.260   6.897   8.994  4.1837  2.6106 -0.5810
  132HK4     C611054   1.222   6.732   9.135  0.2178 -0.2840 -0.0706
  132HK4     C511055   1.288   6.649   9.226  0.3989  0.2852  0.3278
  132HK4    C1011056   1.230   6.605   9.356 -0.4824  0.0234 -0.1596
  132HK4     O111057   1.166   6.684   9.425 -0.1823  0.2933 -0.1860
  132HK4    C1611058   1.084   6.712   9.090  0.0977  0.5543 -0.0938
  132HK4    C1511059   1.052   6.760   8.961  0.1320  0.0436 -0.2969
  132HK4     H711060   1.131   6.751   8.886  2.2800  1.1234  1.7762
  132HK4    C2011061   0.924   6.789   8.914 -0.3328 -0.6922  0.4768
  132HK4     H911062   0.911   6.826   8.812  0.5686 -0.9547  0.2548
  132HK4    C1911063   0.818   6.776   9.002 -0.2685 -0.7194  0.5512
  132HK4    C1811064   0.844   6.737   9.139 -0.1104 -0.5700  0.5646
  132HK4    C1711065   0.972   6.692   9.170  0.2895  0.2290  0.0933
  132HK4     H811066   0.979   6.632   9.261  1.1036  0.0197 -0.1083
  132HK4     N111067   0.721   6.731   9.207 -0.2641 -0.2848  0.3127
  132HK4    C2111068   0.622   6.777   9.118  0.2041 -0.4245 -0.2835
  132HK4    C2211069   0.678   6.815   8.990  0.1342  0.5905 -0.0238
  132HK4    C2611070   0.604   6.883   8.895 -0.3447 -0.0630 -0.1224
  132HK4    H1311071   0.637   6.882   8.791 -2.4350 -1.1346 -0.8077
  132HK4    C2511072   0.472   6.918   8.922 -0.2099  0.2865  0.0821
  132HK4    H1211073   0.405   6.956   8.845 -2.5812  0.2568  2.0648
  132HK4    C2411074   0.422   6.883   9.047  0.0516 -0.3923  0.0010
  132HK4    H1111075   0.313   6.887   9.058  0.0579 -1.4114  0.4817
  132HK4    C2311076   0.492   6.817   9.147  0.4704  0.1843  0.0958
  132HK4    H1011077   0.448   6.816   9.247 -0.7669  1.0260 -0.4359
  132HK4    C3911078   0.715   6.739   9.347  0.2512 -0.2779  0.3381
  132HK4    C4111079   0.599   6.689   9.410  0.3868  0.0032  0.8127
  132HK4    H2111080   0.529   6.626   9.354 -2.0006  3.1284  0.1401
  132HK4    C4211081   0.567   6.721   9.541 -0.6638  0.4862  0.4473
  132HK4    H2211082   0.469   6.693   9.582 -0.4339  1.3442  1.6210
  132HK4    C4311083   0.659   6.798   9.612  0.4795 -0.0496 -0.4337
  132HK4    H2311084   0.644   6.819   9.718 -0.1296  1.5901 -0.8462
  132HK4    C4411085   0.770   6.855   9.551  0.1996  0.7743 -0.1803
  132HK4    H2411086   0.825   6.936   9.601  2.2366  0.5722 -2.0188
  132HK4    C4511087   0.799   6.827   9.418  0.0879  0.2281 -0.0951
  132HK4    H2511088   0.869   6.894   9.365 -1.9670  1.3494 -1.4948
  133HK4    H2811089   0.696   4.370   5.857  1.3186  1.0871  0.2031
  133HK4    C4811090   0.761   4.287   5.882 -0.0054 -0.0058  0.1017
  133HK4    C4711091   0.856   4.301   5.983  0.4653  0.2110 -0.3654
  133HK4    H2711092   0.873   4.392   6.042 -0.5056 -1.3994  2.4649
  133HK4    C4611093   0.930   4.188   6.017 -0.2658 -0.2832 -0.4059
  133HK4    H2611094   1.000   4.196   6.101  0.1641  0.8044 -0.8495
  133HK4    C4011095   0.908   4.062   5.959  0.2338 -0.1011 -0.9947
  133HK4    C5011096   0.823   4.057   5.846 -0.3715 -0.3022 -0.5361
  133HK4    H3011097   0.825   3.961   5.792  2.5964 -0.4370 -0.2791
  133HK4    C4911098   0.748   4.168   5.811 -0.4406 -0.0801  0.3091
  133HK4    H2911099   0.678   4.164   5.726 -0.9671 -0.1589  0.7465
  133HK4     N211100   0.977   3.950   6.008 -0.5640  0.0246  0.4320
  133HK4    C3011101   1.102   3.949   6.073 -0.2120 -0.1873 -0.2406
  133HK4    C2911102   1.205   4.041   6.065  0.6335 -1.1061  0.0548
  133HK4    H1511103   1.195   4.112   5.983 -0.5740 -0.0768  1.0744
  133HK4    C2811104   1.323   4.025   6.137  0.5794 -0.9591  0.1729
  133HK4    C2711105   1.327   3.917   6.227  0.6945 -0.6113  0.5942
  133HK4    H1411106   1.417   3.912   6.289  1.3477 -0.1539 -0.3100
  133HK4    C3211107   1.226   3.821   6.238  0.3083 -0.3224 -0.3811
  133HK4    H1611108   1.231   3.733   6.301  0.0156  1.1981  1.8108
  133HK4    C3111109   1.113   3.831   6.157 -0.0196  0.0933  0.1278
  133HK4    C3411110   0.988   3.759   6.144  0.1147 -0.0902 -0.1321
  133HK4    C3311111   0.913   3.829   6.042  0.0786 -0.5645 -0.4352
  133HK4    C3511112   0.805   3.766   5.980 -0.4797 -0.0899  0.0499
  133HK4    H1711113   0.728   3.818   5.924 -1.0307 -1.3623 -0.3943
  133HK4    C3611114   0.775   3.636   6.019 -0.5418 -0.1492 -0.1988
  133HK4    H1811115   0.684   3.588   5.978 -2.1492  1.6341  1.2207
  133HK4    C3711116   0.852   3.565   6.110 -0.1306  0.4341 -0.0893
  133HK4    H1911117   0.847   3.457   6.124  0.2512  0.3588 -0.5135
  133HK4    C3811118   0.956   3.628   6.177  0.5261 -0.2710 -0.4420
  133HK4    H2011119   1.006   3.576   6.259  1.2255 -1.2232 -1.4587
  133HK4    C1411120   1.438   4.117   6.124 -0.1188 -0.1637 -0.4013
  133HK4     C911121   1.570   4.085   6.154 -0.0494  0.2522 -0.2595
  133HK4     C811122   1.641   4.174   6.237 -0.2580  0.2360 -0.0617
  133HK4    C1111123   1.598   4.306   6.241  0.0205  0.3208  0.1764
  133HK4     H411124   1.666   4.379   6.288  0.1112  0.6331 -0.4375
  133HK4    C1211125   1.481   4.348   6.179  0.2893  0.4851 -0.2231
  133HK4     H511126   1.452   4.454   6.171  0.1943  0.4575 -0.2431
  133HK4    C1311127   1.397   4.252   6.123  0.9927  0.1767 -0.7561
  133HK4     H611128   1.303   4.280   6.075  1.1125 -0.2404 -1.2331
  133HK4     C711129   1.745   4.116   6.325 -0.1966  0.3986 -0.0281
  133HK4     O211130   1.805   4.194   6.399  0.4122  0.4122 -0.5375
  133HK4     C411131   1.776   3.972   6.318 -0.1120  0.4312 -0.3479
  133HK4     C311132   1.876   3.930   6.406 -0.3563  0.3445 -0.1142
  133HK4     H311133   1.897   3.971   6.506 -0.0268 -2.7189  1.1366
  133HK4     C211134   1.955   3.822   6.370 -0.1398  0.4346  0.0948
  133HK4     H211135   2.059   3.805   6.404 -0.8741 -0.0526  2.1270
  133HK4     C111136   1.921   3.744   6.260  0.0556  0.2123  0.1921
  133HK4     H111137   2.003   3.681   6.222 -0.0471 -0.3055  0.8128
  133HK4     C611138   1.804   3.769   6.187  0.1243 -0.1982 -0.0616
  133HK4     C511139   1.733   3.887   6.214  0.1512 -0.2102  0.0572
  133HK4    C1011140   1.632   3.952   6.126  0.6547  0.5177  0.0074
  133HK4     O111141   1.617   3.911   6.011 -0.0662  0.0786  0.2479
  133HK4    C1611142   1.782   3.676   6.075  0.0853 -0.0179 -0.2044
  133HK4    C1511143   1.887   3.611   6.007 -0.0836  0.4150 -0.8885
  133HK4     H711144   1.984   3.656   6.029 -0.4000  1.9053 -2.4530
  133HK4    C2011145   1.883   3.492   5.935 -0.5764 -0.1104 -0.0095
  133HK4     H911146   1.963   3.432   5.892 -1.7000 -0.2000 -2.0839
  133HK4    C1911147   1.757   3.434   5.925 -0.4530 -0.4345  0.3221
  133HK4    C1811148   1.644   3.508   5.977 -0.3988 -0.5153  0.5536
  133HK4    C1711149   1.656   3.620   6.057  0.0825 -0.0043 -0.2274
  133HK4     H811150   1.568   3.653   6.113 -0.5044 -1.1676 -0.4628
  133HK4     N111151   1.523   3.436   5.958 -0.3153 -0.4597 -0.1983
  133HK4    C2111152   1.557   3.323   5.880 -0.1901 -0.5153 -0.0616
  133HK4    C2211153   1.700   3.320   5.855 -0.3113  0.2153 -0.8733
  133HK4    C2611154   1.749   3.220   5.772 -0.1961 -0.0047 -0.5447
  133HK4    H1311155   1.856   3.208   5.758  0.1795 -1.3259  2.9332
  133HK4    C2511156   1.663   3.130   5.710  0.0068 -0.3845 -0.2711
  133HK4    H1211157   1.697   3.079   5.620 -0.9671 -1.6736  0.0711
  133HK4    C2411158   1.526   3.130   5.734  0.0035  0.1134 -0.2966
  133HK4    H1111159   1.460   3.058   5.686 -0.6032  1.2696 -1.2178
  133HK4    C2311160   1.476   3.231   5.816 -0.4862  0.1431 -0.6370
  133HK4    H1011161   1.375   3.215   5.854 -0.0589  0.2452  0.5677
  133HK4    C3911162   1.399   3.500   5.951 -0.3039 -0.4455 -0.2653
  133HK4    C4111163   1.281   3.431   5.985 -0.2880 -0.3062  0.0729
  133HK4    H2111164   1.275   3.346   6.055 -0.9687  0.0505  0.4518
  133HK4    C4211165   1.160   3.493   5.956 -0.1635  0.1037  0.4418
  133HK4    H2211166   1.066   3.437   5.952 -0.5519  0.7756  0.0134
  133HK4    C4311167   1.149   3.615   5.889  0.0622 -0.3835 -0.4833
  133HK4    H2311168   1.052   3.662   5.900  1.2721  1.8845  0.7074
  133HK4    C4411169   1.263   3.689   5.862 -0.4085  0.3916 -0.3466
  133HK4    H2411170   1.263   3.789   5.817  0.0705 -0.0739 -1.4061
  133HK4    C4511171   1.384   3.628   5.894 -0.8723 -0.6006 -0.4745
  133HK4    H2511172   1.479   3.682   5.880 -1.2162  0.4172  0.9408
  134HK4    H2811173   0.508   8.514   6.748 -3.9600 -0.3537  1.2557
  134HK4    C4811174   0.543   8.426   6.803 -0.2654 -0.0339 -0.4188
  134HK4    C4711175   0.679   8.397   6.813 -0.3115  0.0810  0.5575
  134HK4    H2711176   0.752   8.454   6.754 -0.6060 -1.3768 -1.2399
  134HK4    C4611177   0.722   8.294   6.896  0.4936 -0.7220 -0.8507
  134HK4    H2611178   0.823   8.295   6.941  0.5138  1.4591 -0.9107
  134HK4    C4011179   0.631   8.210   6.964  0.1486 -0.1281 -0.5863
  134HK4    C5011180   0.495   8.235   6.936  0.1107 -0.0034 -0.2836
  134HK4    H3011181   0.419   8.163   6.970  0.9924 -0.8957 -0.1670
  134HK4    C4911182   0.449   8.348   6.869 -0.0331  0.3078  0.3270
  134HK4    H2911183   0.345   8.382   6.866 -0.4420 -1.0228 -1.7063
  134HK4     N211184   0.664   8.075   6.977  0.0400 -0.1328 -0.3474
  134HK4    C3011185   0.745   8.000   6.890  0.7328 -0.2831  0.4206
  134HK4    C2911186   0.815   8.021   6.772  0.4531 -0.5937  0.1959
  134HK4    H1511187   0.782   8.113   6.723 -3.0476 -2.5345 -1.2459
  134HK4    C2811188   0.877   7.924   6.694  0.2765 -0.3986 -0.1874
  134HK4    C2711189   0.869   7.791   6.741  1.0066 -0.3558  0.0605
  134HK4    H1411190   0.905   7.715   6.670  0.3127  1.0459 -1.8106
  134HK4    C3211191   0.801   7.767   6.860  0.7715  0.3688  0.0736
  134HK4    H1611192   0.779   7.662   6.880  0.7327  0.3767  0.0703
  134HK4    C3111193   0.748   7.865   6.943  0.4423 -0.2309  0.5732
  134HK4    C3411194   0.672   7.856   7.066 -0.2206 -0.4793  0.1478
  134HK4    C3311195   0.620   7.991   7.082 -0.1713 -0.3677 -0.6225
  134HK4    C3511196   0.537   8.016   7.190  0.6689 -0.6628  0.1011
  134HK4    H1711197   0.492   8.114   7.209  1.7945 -0.3519  1.2117
  134HK4    C3611198   0.497   7.915   7.276 -0.8218 -0.6615 -0.5626
  134HK4    H1811199   0.420   7.936   7.351 -0.1675 -0.6505  0.1109
  134HK4    C3711200   0.546   7.786   7.255 -0.0704 -0.4339 -0.2421
  134HK4    H1911201   0.500   7.708   7.315 -0.8735  0.2006 -0.0256
  134HK4    C3811202   0.637   7.754   7.154  0.9477 -0.4378  0.6681
  134HK4    H2011203   0.669   7.652   7.136  2.4957  0.2309 -0.5341
  134HK4    C1411204   0.897   7.944   6.550  0.7585 -0.1066 -0.0796
  134HK4     C911205   0.852   7.859   6.448 -0.2891  0.2112  0.1149
  134HK4     C811206   0.912   7.867   6.320 -0.7190  0.3270 -0.0801
  134HK4    C1111207   1.001   7.968   6.289  0.5160 -0.5802  0.4455
  134HK4     H411208   1.020   7.994   6.183 -1.5235 -0.0144  0.1928
  134HK4    C1211209   1.040   8.059   6.386  0.5221 -0.1387  0.0356
  134HK4     H511210   1.130   8.121   6.376  2.1496 -2.5160 -0.3656
  134HK4    C1311211   0.985   8.048   6.513  0.1409  0.4120 -0.0791
  134HK4     H611212   1.007   8.118   6.595 -0.0996  0.2181  0.1508
  134HK4     C711213   0.883   7.753   6.230  0.4323 -0.0480  0.0148
  134HK4     O211214   0.916   7.762   6.112 -0.5163 -0.3765 -0.2828
  134HK4     C411215   0.800   7.639   6.276  0.1000  0.0304 -0.3908
  134HK4     C311216   0.798   7.520   6.203  0.1928 -0.1179 -0.1511
  134HK4     H311217   0.861   7.523   6.112 -0.5797 -0.8211 -0.7119
  134HK4     C211218   0.747   7.401   6.252 -0.0343  0.2600  0.5353
  134HK4     H211219   0.748   7.306   6.198  0.1975 -1.3697  3.2983
  134HK4     C111220   0.678   7.405   6.373  0.3933 -0.2061  0.8014
  134HK4     H111221   0.659   7.304   6.413 -0.2426  0.4695  2.2402
  134HK4     C611222   0.669   7.525   6.446  0.7125  0.2612  0.0825
  134HK4     C511223   0.725   7.643   6.396 -0.1027  0.3941 -0.5276
  134HK4    C1011224   0.737   7.769   6.475 -0.0584 -0.0597  0.1942
  134HK4     O111225   0.629   7.821   6.501 -0.1305 -0.0553 -0.1091
  134HK4    C1611226   0.634   7.515   6.589  0.2263 -0.0563 -0.0558
  134HK4    C1511227   0.675   7.401   6.661  0.1105  0.0671  0.2045
  134HK4     H711228   0.760   7.335   6.637  0.9274  1.1011  0.1950
  134HK4    C2011229   0.627   7.379   6.790  0.3276  0.0355  0.2799
  134HK4     H911230   0.671   7.296   6.845  1.0965 -0.5774 -1.2177
  134HK4    C1911231   0.538   7.466   6.851  0.2506  0.0713  0.1179
  134HK4    C1811232   0.487   7.577   6.773  0.5952  0.5092  0.5121
  134HK4    C1711233   0.532   7.593   6.642  0.2315 -0.2814  0.2828
  134HK4     H811234   0.468   7.638   6.567 -0.9919 -2.0986  0.2087
  134HK4     N111235   0.398   7.651   6.853 -0.1908  0.3964 -0.2476
  134HK4    C2111236   0.378   7.583   6.975 -0.1066 -0.0256 -0.4685
  134HK4    C2211237   0.466   7.467   6.977 -0.4567 -0.2888 -0.2778
  134HK4    C2611238   0.468   7.388   7.091 -0.0165  0.3217  0.1431
  134HK4    H1311239   0.514   7.289   7.089 -0.4274  0.1350 -0.2528
  134HK4    C2511240   0.402   7.425   7.208 -0.2177  0.7484 -0.1040
  134HK4    H1211241   0.433   7.379   7.302  0.9349 -1.4884 -1.5280
  134HK4    C2411242   0.323   7.539   7.204 -0.1363  0.7957 -0.3674
  134HK4    H1111243   0.284   7.570   7.302 -2.7900 -0.9865 -0.8047
  134HK4    C2311244   0.309   7.619   7.090 -0.3819  0.2553 -0.7178
  134HK4    H1011245   0.272   7.719   7.110 -1.1625  0.2030 -1.8838
  134HK4    C3911246   0.338   7.772   6.819 -0.0782  0.5744  0.1896
  134HK4    C4111247   0.212   7.815   6.866 -0.0446  0.1392  0.6766
  134HK4    H2111248   0.141   7.735   6.894  1.3491 -1.1388  0.6228
  134HK4    C4211249   0.170   7.946   6.849 -0.3556 -0.0880 -0.3572
  134HK4    H2211250   0.072   7.980   6.886  1.2286  1.4256  2.6571
  134HK4    C4311251   0.239   8.034   6.767 -0.7658 -0.0150 -0.6278
  134HK4    H2311252   0.216   8.141   6.763  1.1048  0.4999  1.5208
  134HK4    C4411253   0.361   7.992   6.716 -0.4640 -0.1061  0.1624
  134HK4    H2411254   0.425   8.063   6.662  0.9049 -0.2734  1.5113
  134HK4    C4511255   0.413   7.866   6.746  0.2102  0.1087 -0.1135
  134HK4    H2511256   0.522   7.862   6.731  0.4334 -0.7249  1.7555
  135HK4    H2811257   8.170  10.336   0.778  0.4311 -0.0603 -1.3113
  135HK4    C4811258   8.265  10.321   0.829 -0.1496  0.0951 -0.1489
  135HK4    C4711259   8.273  10.195   0.888  0.0522  0.3618  0.3949
  135HK4    H2711260   8.201  10.116   0.861 -1.3512  1.9792 -0.6993
  135HK4    C4611261   8.382  10.171   0.972  0.4162 -0.3471 -0.2693
  135HK4    H2611262   8.402  10.066   0.998 -1.2515 -0.4762  0.5646
  135HK4    C4011263   8.474  10.271   1.009  0.4162 -0.3461 -0.2708
  135HK4    C5011264   8.455  10.395   0.945 -0.0816 -0.2935 -0.0234
  135HK4    H3011265   8.517  10.479   0.981  0.4052 -1.0405  0.8952
  135HK4    C4911266   8.357  10.423   0.850 -0.1122  0.0099  0.0926
  135HK4    H2911267   8.344  10.520   0.801  0.3980  1.7886  3.3370
  135HK4     N211268   8.575  10.263   1.105  0.0884 -0.0417  0.1070
  135HK4    C3011269   8.572  10.176   1.216  0.6754  0.1945  0.3153
  135HK4    C2911270   8.470  10.124   1.295  0.3825  0.3424  0.0393
  135HK4    H1511271   8.375  10.110   1.244  0.1181  0.2603  0.5488
  135HK4    C2811272   8.489  10.063   1.418 -0.4273 -0.3728 -0.1831
  135HK4    C2711273   8.620  10.035   1.463 -0.2961  0.1541 -0.2366
  135HK4    H1411274   8.636   9.980   1.557 -1.8656 -1.2061 -0.7444
  135HK4    C3211275   8.728  10.068   1.382  0.2032 -0.5297  0.1457
  135HK4    H1611276   8.831  10.034   1.395  0.6821  1.3437  1.4262
  135HK4    C3111277   8.703  10.142   1.267  0.5939  0.1390  0.4884
  135HK4    C3411278   8.790  10.212   1.174 -0.0835  0.4501  0.0868
  135HK4    C3311279   8.712  10.288   1.078 -0.0039 -0.0775 -0.3949
  135HK4    C3511280   8.779  10.379   0.998  0.3078  0.0617  0.0221
  135HK4    H1711281   8.720  10.445   0.934 -1.8242 -1.1161  0.7121
  135HK4    C3611282   8.917  10.389   1.001  0.2732  0.3757  0.6421
  135HK4    H1811283   8.954  10.469   0.935 -0.0936  0.1826  0.2013
  135HK4    C3711284   8.997  10.301   1.073  0.1026 -0.6130 -0.3530
  135HK4    H1911285   9.105  10.308   1.068  0.1643 -1.5326 -0.3144
  135HK4    C3811286   8.928  10.222   1.164 -0.0532  0.0317  0.0990
  135HK4    H2011287   8.992  10.150   1.215  2.2999  3.6569  2.5020
  135HK4    C1411288   8.382  10.051   1.518 -0.2621  0.0883  0.0511
  135HK4     C911289   8.384  10.083   1.654  0.1726  0.2264  0.0115
  135HK4     C811290   8.316  10.007   1.751  0.2990 -0.1925 -0.2332
  135HK4    C1111291   8.235   9.902   1.709 -0.6710  0.3345  0.2878
  135HK4     H411292   8.192   9.838   1.787  1.2408 -1.3141  0.0534
  135HK4    C1211293   8.218   9.877   1.573  0.0727 -0.1229  0.2779
  135HK4     H511294   8.191   9.775   1.540  0.0124  0.5824 -1.8788
  135HK4    C1311295   8.284   9.957   1.481 -0.1056 -0.1214  0.1561
  135HK4     H611296   8.246   9.944   1.378 -1.3706 -3.1129  0.9375
  135HK4     C711297   8.337  10.028   1.896 -0.0553  0.0377 -0.2146
  135HK4     O211298   8.277   9.959   1.978 -0.3585  0.2481 -0.2639
  135HK4     C411299   8.436  10.130   1.938 -0.0696 -0.0518  0.0483
  135HK4     C311300   8.462  10.123   2.074 -0.6846 -0.4668  0.1464
  135HK4     H311301   8.401  10.064   2.144 -0.2260 -1.1701 -0.0360
  135HK4     C211302   8.573  10.193   2.122 -0.4478 -0.4302 -0.4589
  135HK4     H211303   8.588  10.205   2.230  1.0605 -0.7560 -0.6237
  135HK4     C111304   8.647  10.266   2.030 -0.2786  0.2607  0.2266
  135HK4     H111305   8.720  10.332   2.079  1.1989  2.0033 -4.1122
  135HK4     C611306   8.627  10.275   1.890 -0.1332  0.4277  0.2161
  135HK4     C511307   8.513  10.206   1.848  0.2808 -0.2387  0.1904
  135HK4    C1011308   8.462  10.199   1.708 -0.4855  0.4854  0.4295
  135HK4     O111309   8.439  10.307   1.653 -0.6957  0.2203 -0.0080
  135HK4    C1611310   8.752  10.304   1.818 -0.1736 -0.0407 -0.0526
  135HK4    C1511311   8.879  10.305   1.878  0.0197 -0.2513 -0.4677
  135HK4     H711312   8.904  10.226   1.951  0.6572  2.1988  2.0445
  135HK4    C2011313   8.985  10.376   1.823 -0.3904  0.2435 -0.6260
  135HK4     H911314   9.082  10.363   1.872 -0.5384 -0.1627 -0.4422
  135HK4    C1911315   8.983  10.438   1.699  0.4087  0.1751 -0.6775
  135HK4    C1811316   8.860  10.417   1.625 -0.1363  0.5438  0.1198
  135HK4    C1711317   8.754  10.350   1.687  0.2228 -0.2479 -0.1171
  135HK4     H811318   8.673  10.322   1.620 -0.9863  0.8287  0.8826
  135HK4     N111319   8.866  10.491   1.506 -0.1849  0.1110 -0.1541
  135HK4    C2111320   8.991  10.557   1.504 -0.1831  0.1178  0.2211
  135HK4    C2211321   9.064  10.534   1.627  0.2818  0.8604  0.0853
  135HK4    C2611322   9.199  10.565   1.636  0.5668 -0.2360 -0.2488
  135HK4    H1311323   9.259  10.512   1.711  0.8304 -0.3250 -0.5229
  135HK4    C2511324   9.260  10.624   1.526  0.0628  0.6777 -0.0407
  135HK4    H1211325   9.368  10.609   1.526 -0.1183 -0.7368 -0.8574
  135HK4    C2411326   9.193  10.646   1.406 -0.6555 -0.2300  0.1932
  135HK4    H1111327   9.246  10.676   1.315 -0.8217 -1.4687 -0.3188
  135HK4    C2311328   9.059  10.610   1.395 -0.4232 -0.9071 -0.4457
  135HK4    H1011329   9.011  10.629   1.299 -0.0050 -2.2344 -0.9161
  135HK4    C3911330   8.755  10.531   1.430 -0.3499  0.1624  0.1109
  135HK4    C4111331   8.762  10.562   1.292  0.6198 -0.0651  0.0983
  135HK4    H2111332   8.836  10.510   1.231  1.0242  0.0639  0.4813
  135HK4    C4211333   8.666  10.639   1.227  0.5557  0.0803  0.3610
  135HK4    H2211334   8.678  10.647   1.118  0.3427 -0.7255  0.2762
  135HK4    C4311335   8.565  10.701   1.300  0.3129  0.1461 -0.0272
  135HK4    H2311336   8.508  10.778   1.249  1.3028  0.4999 -0.6074
  135HK4    C4411337   8.557  10.675   1.436  0.1907 -0.0311 -0.0677
  135HK4    H2411338   8.462  10.703   1.484  0.8475 -2.7875  3.0385
  135HK4    C4511339   8.649  10.591   1.499  0.3094  0.6694  0.6905
  135HK4    H2511340   8.640  10.581   1.608  0.6233  2.8431  0.9411
  136HK4    H2811341   2.407  10.209   8.839 -2.0012 -1.6625  2.5181
  136HK4    C4811342   2.486  10.236   8.908  0.2980  0.0254 -0.6113
  136HK4    C4711343   2.533  10.367   8.902  0.6819 -0.1399 -1.1625
  136HK4    H2711344   2.477  10.439   8.840  1.1544 -0.8539 -2.4470
  136HK4    C4611345   2.645  10.405   8.975  0.0733 -0.1122 -0.2325
  136HK4    H2611346   2.696  10.498   8.947 -0.2288  0.1997  0.2519
  136HK4    C4011347   2.706  10.315   9.064  0.2704 -0.2014 -0.4594
  136HK4    C5011348   2.648  10.187   9.079 -0.1766  0.0138 -0.3479
  136HK4    H3011349   2.703  10.116   9.142 -0.4897  0.0619 -0.0153
  136HK4    C4911350   2.542  10.146   8.998 -0.6041  0.1801  0.1216
  136HK4    H2911351   2.490  10.050   9.008 -1.3261  0.8322  3.1482
  136HK4     N211352   2.838  10.334   9.106  0.1084  0.0277 -0.0561
  136HK4    C3011353   2.941  10.403   9.038  0.0346  0.2305  0.0353
  136HK4    C2911354   2.965  10.406   8.901  0.1132 -0.0090  0.0431
  136HK4    H1511355   2.891  10.366   8.832  0.0415 -0.3322  0.3032
  136HK4    C2811356   3.080  10.454   8.841  0.4786 -0.5844  0.2806
  136HK4    C2711357   3.171  10.514   8.931  0.4047 -0.1643  0.0758
  136HK4    H1411358   3.239  10.585   8.882 -0.5065  1.3573  0.9599
  136HK4    C3211359   3.163  10.501   9.069 -0.1851  0.3816  0.0977
  136HK4    H1611360   3.257  10.506   9.123  0.8770 -0.3165 -1.6543
  136HK4    C3111361   3.050  10.441   9.126  0.2593 -0.4908  0.0752
  136HK4    C3411362   3.019  10.386   9.256  0.0936 -0.5416  0.0117
  136HK4    C3311363   2.892  10.318   9.235  0.2770 -0.8160 -0.2277
  136HK4    C3511364   2.843  10.240   9.339  0.1210 -0.1343  0.2121
  136HK4    H1711365   2.737  10.214   9.332  0.0140  0.3603 -0.0932
  136HK4    C3611366   2.905  10.236   9.463  0.7449 -0.5661 -0.1158
  136HK4    H1811367   2.853  10.201   9.554  1.1522  1.7785  1.0567
  136HK4    C3711368   3.027  10.301   9.481  0.2920  0.1719  0.2869
  136HK4    H1911369   3.075  10.298   9.579 -3.1628 -2.1379  2.0139
  136HK4    C3811370   3.079  10.382   9.381  0.4652 -0.4887 -0.1618
  136HK4    H2011371   3.172  10.437   9.392  1.3453 -1.4692 -2.5340
  136HK4    C1411372   3.130  10.390   8.718 -0.3092 -0.5410 -0.0676
  136HK4     C911373   3.259  10.344   8.688  0.1534  0.4899  0.2909
  136HK4     C811374   3.302  10.334   8.555 -0.1571  0.3538  0.2009
  136HK4    C1111375   3.222  10.372   8.448 -0.1179  0.0155  0.0492
  136HK4     H411376   3.254  10.381   8.343  1.2057  1.8677  0.5829
  136HK4    C1211377   3.090  10.399   8.482 -0.1535  0.1275 -0.1806
  136HK4     H511378   3.023  10.389   8.395 -0.8726 -1.0565  0.4867
  136HK4    C1311379   3.041  10.412   8.611 -0.0718  0.0639 -0.1430
  136HK4     H611380   2.941  10.454   8.626 -0.1994  0.5851 -2.3453
  136HK4     C711381   3.430  10.269   8.516 -0.1463  0.3131  0.2996
  136HK4     O211382   3.459  10.249   8.398 -0.1115 -0.4222  0.4313
  136HK4     C411383   3.526  10.239   8.624 -0.1180 -0.2566  0.1172
  136HK4     C311384   3.644  10.172   8.592  0.0614  0.1084  0.0132
  136HK4     H311385   3.652  10.130   8.490  2.1293 -2.4824  1.1924
  136HK4     C211386   3.739  10.136   8.686  0.5569  0.4365 -0.3606
  136HK4     H211387   3.841  10.099   8.666  0.0463 -1.1146 -0.1450
  136HK4     C111388   3.714  10.173   8.818 -0.0367 -0.0780 -0.3266
  136HK4     H111389   3.796  10.164   8.890 -0.7720  0.9462  0.6531
  136HK4     C611390   3.602  10.251   8.853  0.0801 -0.1970  0.3070
  136HK4     C511391   3.501  10.271   8.759  0.2528 -0.0771  0.1472
  136HK4    C1011392   3.359  10.304   8.791  0.2239 -0.0730  0.0079
  136HK4     O111393   3.317  10.244   8.890  0.1324  0.2120  0.1424
  136HK4    C1611394   3.603  10.309   8.989  0.6545  0.6798 -0.0645
  136HK4    C1511395   3.534  10.429   9.014 -0.5691 -0.0249 -0.0342
  136HK4     H711396   3.502  10.497   8.934  0.0139  1.3944  0.9187
  136HK4    C2011397   3.531  10.490   9.139 -0.0334 -0.2618  0.0928
  136HK4     H911398   3.485  10.588   9.146 -1.5650 -0.9559 -0.1668
  136HK4    C1911399   3.598  10.430   9.246  0.5918  0.2239 -0.0194
  136HK4    C1811400   3.652  10.297   9.225 -0.2054 -0.1139  0.0369
  136HK4    C1711401   3.663  10.246   9.097 -0.7234 -0.3799  0.1001
  136HK4     H811402   3.735  10.166   9.074 -0.8737  0.3568 -3.2027
  136HK4     N111403   3.690  10.243   9.349  0.5896  0.2363 -0.0468
  136HK4    C2111404   3.668  10.343   9.445 -0.0639 -0.0770  0.1282
  136HK4    C2211405   3.616  10.465   9.385 -0.0238 -0.0582  0.1333
  136HK4    C2611406   3.609  10.582   9.459  0.3270  0.0855 -0.0614
  136HK4    H1311407   3.594  10.676   9.405  0.4904  0.0651 -0.1476
  136HK4    C2511408   3.647  10.580   9.593  0.6730 -0.1321 -0.1608
  136HK4    H1211409   3.618  10.667   9.653 -0.3703  0.5753 -1.6534
  136HK4    C2411410   3.689  10.463   9.655  0.0261 -0.3384 -0.1037
  136HK4    H1111411   3.690  10.452   9.765 -1.0504 -2.2378 -0.2679
  136HK4    C2311412   3.710  10.350   9.578  1.0596 -0.0609 -0.2269
  136HK4    H1011413   3.779  10.277   9.620 -0.9488 -0.2539  2.8713
  136HK4    C3911414   3.656  10.109   9.375 -0.0371  0.3666 -0.2048
  136HK4    C4111415   3.741  10.042   9.466 -0.2851  0.0308 -0.2209
  136HK4    H2111416   3.841  10.082   9.485 -0.8172  1.1928  0.1662
  136HK4    C4211417   3.701   9.928   9.536  0.2094  0.1776  0.2974
  136HK4    H2211418   3.752   9.904   9.630  0.3447  2.8834  0.9668
  136HK4    C4311419   3.573   9.876   9.524  0.1345  0.4737 -0.1950
  136HK4    H2311420   3.545   9.792   9.588 -1.5483  1.6385  0.6342
  136HK4    C4411421   3.489   9.931   9.427 -0.7397  0.0940  0.3348
  136HK4    H2411422   3.400   9.873   9.401 -0.8158  0.2372  0.2796
  136HK4    C4511423   3.533  10.044   9.358  0.2074 -0.2510  0.3567
  136HK4    H2511424   3.460  10.084   9.286  0.5501  1.4753  0.9562
  137HK4    H2811425   9.263   1.375   2.900  0.1715 -1.1244  2.4576
  137HK4    C4811426   9.355   1.420   2.937  0.4518  0.1944  0.2885
  137HK4    C4711427   9.397   1.386   3.065  0.1522 -0.5442  0.1926
  137HK4    H2711428   9.319   1.356   3.137 -1.4359 -0.5024 -1.4681
  137HK4    C4611429   9.519   1.429   3.116  0.3639 -0.4820 -0.3804
  137HK4    H2611430   9.544   1.398   3.218  0.2625 -0.1109 -0.2420
  137HK4    C4011431   9.605   1.503   3.032  0.4395 -0.4754 -0.2982
  137HK4    C5011432   9.555   1.542   2.906 -0.4641  0.2122  0.2699
  137HK4    H3011433   9.571   1.646   2.874  1.0791  0.2443  1.1138
  137HK4    C4911434   9.434   1.498   2.854 -0.3769  0.5212 -0.1934
  137HK4    H2911435   9.422   1.501   2.744  1.3491 -1.1664 -0.4433
  137HK4     N211436   9.723   1.560   3.080  0.1296  0.0358 -0.1438
  137HK4    C3011437   9.747   1.598   3.214  0.1184  0.7350 -0.3373
  137HK4    C2911438   9.658   1.658   3.302 -0.1365 -0.3695  0.1664
  137HK4    H1511439   9.580   1.716   3.251  0.0738 -1.2210 -1.1242
  137HK4    C2811440   9.704   1.684   3.431  0.6014 -0.1946 -0.1318
  137HK4    C2711441   9.837   1.658   3.471  0.5167 -0.4111  0.0185
  137HK4    H1411442   9.876   1.691   3.568  0.4798  0.1225 -0.1452
  137HK4    C3211443   9.927   1.607   3.380  0.3874 -0.1740 -0.2446
  137HK4    H1611444  10.034   1.603   3.404  0.2056 -1.5804  0.3842
  137HK4    C3111445   9.887   1.587   3.248  0.0030 -0.1011 -0.1378
  137HK4    C3411446   9.949   1.550   3.122  0.0729 -0.0683 -0.1132
  137HK4    C3311447   9.847   1.527   3.022  0.0595 -0.4528 -0.0118
  137HK4    C3511448   9.887   1.483   2.896  0.4209 -0.0535 -0.0397
  137HK4    H1711449   9.818   1.463   2.814  1.3160  1.4326 -1.1742
  137HK4    C3611450  10.019   1.459   2.860  0.4342  0.1746 -0.1344
  137HK4    H1811451  10.048   1.430   2.758 -0.2601 -0.2266 -0.2206
  137HK4    C3711452  10.117   1.486   2.955  0.4524 -0.0399 -0.0887
  137HK4    H1911453  10.220   1.469   2.924  0.0368 -0.0427 -1.5022
  137HK4    C3811454  10.081   1.529   3.082  0.0825  0.4382 -0.3511
  137HK4    H2011455  10.153   1.523   3.164 -0.0147  2.1319 -0.1371
  137HK4    C1411456   9.619   1.762   3.521  0.0917 -0.4554 -0.3856
  137HK4     C911457   9.671   1.836   3.628 -0.2564  0.1310 -0.6176
  137HK4     C811458   9.615   1.826   3.757  0.6225 -1.1074 -0.3191
  137HK4    C1111459   9.497   1.754   3.768  0.0389 -0.1502 -0.2709
  137HK4     H411460   9.476   1.728   3.873 -0.1778  1.1269  0.0121
  137HK4    C1211461   9.422   1.709   3.660  0.1537  0.3100 -0.5459
  137HK4     H511462   9.322   1.667   3.683  1.3230 -4.3231 -3.1941
  137HK4    C1311463   9.489   1.710   3.538 -0.0504 -0.1961 -0.6657
  137HK4     H611464   9.431   1.676   3.451 -2.4880 -2.7035  1.8208
  137HK4     C711465   9.656   1.914   3.868 -0.8527  0.0141 -0.6451
  137HK4     O211466   9.615   1.897   3.983  0.1108  0.5652 -0.2029
  137HK4     C411467   9.753   2.022   3.836 -0.4326 -0.1778 -0.0343
  137HK4     C311468   9.805   2.100   3.939 -0.5150 -0.1892  0.0146
  137HK4     H311469   9.796   2.055   4.039 -1.7224  1.5375  0.7150
  137HK4     C211470   9.866   2.223   3.918 -0.2151 -0.3465 -0.0445
  137HK4     H211471   9.919   2.269   4.002 -2.1783  1.8863  0.0265
  137HK4     C111472   9.871   2.273   3.789  0.1095  0.4029  0.2543
  137HK4     H111473   9.924   2.366   3.762  3.1981 -1.0782  0.9151
  137HK4     C611474   9.819   2.196   3.683  0.7726 -0.2304  0.3815
  137HK4     C511475   9.767   2.067   3.703  0.2725 -0.0802  0.0708
  137HK4    C1011476   9.748   1.961   3.601 -0.1751  0.1887 -0.1265
  137HK4     O111477   9.822   1.964   3.503 -0.2170  0.2097 -0.1573
  137HK4    C1611478   9.807   2.262   3.552 -0.7831  0.3957  0.8218
  137HK4    C1511479   9.886   2.373   3.515 -0.3751 -0.3391 -0.5555
  137HK4     H711480   9.981   2.390   3.569 -0.8267 -0.0423  0.1544
  137HK4    C2011481   9.857   2.461   3.412  0.0224  0.5825  0.1099
  137HK4     H911482   9.890   2.565   3.418 -0.4484  0.6666  1.3568
  137HK4    C1911483   9.754   2.424   3.326  0.5920 -0.1208 -0.2750
  137HK4    C1811484   9.670   2.310   3.354  0.2711  0.2112  0.1135
  137HK4    C1711485   9.695   2.242   3.473 -0.1294 -0.1142  0.0139
  137HK4     H811486   9.618   2.174   3.510 -0.2209  1.1187  2.1653
  137HK4     N111487   9.586   2.287   3.243  0.5413 -0.4416  0.0394
  137HK4    C2111488   9.610   2.394   3.154 -0.4214 -0.0315  0.2717
  137HK4    C2211489   9.717   2.481   3.198 -0.6944  0.3020  0.2822
  137HK4    C2611490   9.747   2.597   3.127 -0.0194  0.0927  0.2211
  137HK4    H1311491   9.815   2.677   3.156  0.4710  0.0417 -0.7853
  137HK4    C2511492   9.673   2.624   3.013  0.2786 -0.2181 -0.0483
  137HK4    H1211493   9.670   2.724   2.968 -2.1697 -0.0143  0.5137
  137HK4    C2411494   9.569   2.543   2.969 -0.0543  0.2685 -0.1675
  137HK4    H1111495   9.516   2.566   2.875 -1.1082  1.9815  0.8270
  137HK4    C2311496   9.532   2.432   3.045 -0.1823  0.6608  0.3424
  137HK4    H1011497   9.445   2.375   3.015  1.1153 -1.4829  0.5362
  137HK4    C3911498   9.538   2.160   3.210 -0.1590 -0.1021 -0.2539
  137HK4    C4111499   9.413   2.136   3.149 -0.5773  0.5478  0.3376
  137HK4    H2111500   9.323   2.193   3.179 -0.3788  0.9180  0.2413
  137HK4    C4211501   9.390   2.027   3.066  0.6162  0.0568  0.6389
  137HK4    H2211502   9.298   2.019   3.006  0.3575 -0.9954  1.1792
  137HK4    C4311503   9.490   1.932   3.054  0.0053 -0.5344  0.1938
  137HK4    H2311504   9.471   1.859   2.975 -0.8350 -0.2374  0.1162
  137HK4    C4411505   9.609   1.942   3.126  0.0728 -0.2672  0.0424
  137HK4    H2411506   9.675   1.854   3.116  0.4903  0.0416  0.0770
  137HK4    C4511507   9.631   2.055   3.203 -0.0790 -0.0286 -0.2597
  137HK4    H2511508   9.728   2.061   3.256  0.8490  1.9668 -2.1077
  138HK4    H2811509   8.843   7.846   2.536 -0.1139 -1.1750  0.2561
  138HK4    C4811510   8.913   7.844   2.620  0.4693  0.3949 -0.1877
  138HK4    C4711511   8.989   7.732   2.652 -0.0333  0.0454 -0.2081
  138HK4    H2711512   8.965   7.633   2.613 -2.7998  0.3799  0.5304
  138HK4    C4611513   9.066   7.739   2.768 -0.6569  0.0813  0.2101
  138HK4    H2611514   9.148   7.666   2.773 -1.9471 -1.3369  1.1849
  138HK4    C4011515   9.076   7.850   2.855 -0.3701  0.1093  0.1425
  138HK4    C5011516   8.993   7.957   2.816 -0.0255  0.3656  0.1103
  138HK4    H3011517   8.995   8.056   2.864  0.8064  0.3416  0.1251
  138HK4    C4911518   8.918   7.959   2.699 -0.2518  0.1292  0.2531
  138HK4    H2911519   8.884   8.056   2.660 -0.2215 -0.0405 -0.2064
  138HK4     N211520   9.125   7.847   2.986 -0.0842 -0.2184  0.0309
  138HK4    C3011521   9.145   7.739   3.074  1.0469  0.0178  0.0650
  138HK4    C2911522   9.097   7.609   3.069 -0.1915  0.4606  0.3249
  138HK4    H1511523   9.021   7.587   2.994  0.0467  2.6523 -0.5740
  138HK4    C2811524   9.127   7.510   3.162 -0.3710  0.2154  0.1209
  138HK4    C2711525   9.217   7.550   3.263 -0.0287 -0.0581 -0.0780
  138HK4    H1411526   9.261   7.467   3.319 -1.9774  0.2604  1.9597
  138HK4    C3211527   9.265   7.679   3.284  0.0713 -0.1383  0.1856
  138HK4    H1611528   9.324   7.711   3.369 -0.6039  0.1518  0.5486
  138HK4    C3111529   9.233   7.771   3.185  0.1384  0.4080  0.6741
  138HK4    C3411530   9.257   7.914   3.174  0.4864  0.2712 -0.3802
  138HK4    C3311531   9.194   7.952   3.049 -0.7229  0.1213  0.1754
  138HK4    C3511532   9.208   8.086   3.014  0.8509 -0.1438 -0.2441
  138HK4    H1711533   9.157   8.137   2.932 -0.3673 -0.3297  0.3896
  138HK4    C3611534   9.272   8.176   3.098  0.1790 -0.0922  0.2076
  138HK4    H1811535   9.259   8.283   3.076 -1.2266 -0.2870  0.0127
  138HK4    C3711536   9.333   8.137   3.217  0.3563  0.7009  0.3769
  138HK4    H1911537   9.382   8.200   3.291  0.1738 -0.3885  1.4317
  138HK4    C3811538   9.321   8.005   3.257  0.1997  0.4766 -0.3889
  138HK4    H2011539   9.362   7.981   3.355 -1.3720  0.8869  0.4011
  138HK4    C1411540   9.019   7.411   3.179 -0.4635  0.3326  0.2241
  138HK4     C911541   8.974   7.379   3.307 -0.5763 -0.3661  0.0129
  138HK4     C811542   8.944   7.244   3.335 -0.3890 -0.3874  0.1122
  138HK4    C1111543   8.954   7.148   3.235  0.2370  0.0157 -0.2149
  138HK4     H411544   8.941   7.040   3.252  0.1870  0.1717  0.7584
  138HK4    C1211545   8.986   7.181   3.104 -0.3769 -0.5699 -0.5125
  138HK4     H511546   8.977   7.108   3.023 -1.4772 -0.0611 -0.8618
  138HK4    C1311547   9.021   7.313   3.077  0.1088 -0.3954  0.9310
  138HK4     H611548   9.063   7.344   2.980 -0.9679  0.0145  0.5870
  138HK4     C711549   8.900   7.198   3.469 -0.4199 -0.3465  0.1150
  138HK4     O211550   8.876   7.082   3.500 -0.0034 -0.5096 -0.1541
  138HK4     C411551   8.893   7.298   3.578 -0.0356  0.0048 -0.1819
  138HK4     C311552   8.853   7.259   3.705  0.4165  0.6014  0.1516
  138HK4     H311553   8.783   7.174   3.707  0.1559  0.8157  0.1004
  138HK4     C211554   8.862   7.347   3.812  0.2003  0.2419  0.4719
  138HK4     H211555   8.855   7.312   3.916 -0.0962 -1.4269 -0.0981
  138HK4     C111556   8.919   7.472   3.789  0.0472  0.2178 -0.0607
  138HK4     H111557   8.914   7.545   3.871 -0.8887  0.8451 -0.6699
  138HK4     C611558   8.955   7.521   3.662  0.4578 -0.0587 -0.0517
  138HK4     C511559   8.933   7.432   3.556 -0.2242  0.0849 -0.0322
  138HK4    C1011560   8.955   7.478   3.417 -0.0115 -0.1561 -0.0775
  138HK4     O111561   8.913   7.588   3.381 -0.0719 -0.1327  0.0664
  138HK4    C1611562   9.045   7.636   3.652 -0.1669  0.4392 -0.0338
  138HK4    C1511563   9.160   7.628   3.733 -0.2354  0.1483  0.0296
  138HK4     H711564   9.202   7.529   3.756  0.9325  0.7514  0.5247
  138HK4    C2011565   9.254   7.730   3.743 -0.0783  0.0317 -0.2245
  138HK4     H911566   9.344   7.712   3.801  1.1555 -0.7579 -2.3023
  138HK4    C1911567   9.217   7.851   3.683  0.0008  0.0304 -0.2758
  138HK4    C1811568   9.091   7.870   3.615  0.0214  0.0833 -0.2953
  138HK4    C1711569   9.009   7.759   3.598 -0.0263  0.1822 -0.7183
  138HK4     H811570   8.910   7.773   3.553  0.1552 -0.3460 -1.2833
  138HK4     N111571   9.072   8.003   3.571  0.3944  0.1161 -0.3591
  138HK4    C2111572   9.190   8.063   3.618  0.4214  0.2085 -0.5465
  138HK4    C2211573   9.283   7.979   3.691 -0.4777  0.2269  0.6360
  138HK4    C2611574   9.387   8.033   3.766  0.2740 -0.1088 -0.1549
  138HK4    H1311575   9.427   7.971   3.847 -1.0267  2.3571  2.4483
  138HK4    C2511576   9.408   8.170   3.765 -0.3719 -0.0021  0.6741
  138HK4    H1211577   9.488   8.206   3.830 -1.6753  1.4339  1.5053
  138HK4    C2411578   9.320   8.255   3.699 -0.1377  0.3130  0.7650
  138HK4    H1111579   9.340   8.363   3.704  1.0662  0.1410 -0.0600
  138HK4    C2311580   9.215   8.200   3.627  0.4500  0.1670  0.0100
  138HK4    H1011581   9.154   8.268   3.568  3.7730 -0.1934 -4.0517
  138HK4    C3911582   9.002   8.034   3.453  0.2978 -0.1227 -0.3672
  138HK4    C4111583   8.941   8.161   3.450 -0.0292 -0.2766 -0.1673
  138HK4    H2111584   8.950   8.225   3.539 -0.3201 -2.0808  1.1981
  138HK4    C4211585   8.853   8.191   3.347  0.4720  0.0205 -0.5074
  138HK4    H2211586   8.819   8.293   3.325  0.5455  0.2961  0.6290
  138HK4    C4311587   8.827   8.099   3.245 -0.0217 -0.5158  0.1004
  138HK4    H2311588   8.755   8.125   3.168 -0.8604 -1.3099  0.5964
  138HK4    C4411589   8.898   7.979   3.238 -0.1577 -0.6034  0.2151
  138HK4    H2411590   8.880   7.924   3.145 -1.2536  0.2379 -0.0803
  138HK4    C4511591   8.975   7.944   3.348  0.6974 -0.3324 -0.2917
  138HK4    H2511592   9.024   7.845   3.346 -1.5543 -1.5291  0.8134
  139HK4    H2811593   2.470   8.400   5.389 -1.4270  1.0610  0.0149
  139HK4    C4811594   2.557   8.466   5.394 -0.3520 -0.3460  0.1853
  139HK4    C4711595   2.560   8.571   5.485 -0.3072  0.2758 -0.5235
  139HK4    H2711596   2.475   8.588   5.553  1.6609  2.5844  1.4506
  139HK4    C4611597   2.672   8.654   5.489  0.0436 -0.1940 -0.5418
  139HK4    H2611598   2.683   8.724   5.573  0.6583 -2.3687  1.2670
  139HK4    C4011599   2.770   8.637   5.390  0.5064 -0.1165 -0.1013
  139HK4    C5011600   2.765   8.529   5.299  0.8898 -0.3775  0.1889
  139HK4    H3011601   2.842   8.524   5.220  0.0905 -0.8246 -0.5783
  139HK4    C4911602   2.659   8.439   5.303 -0.3098  1.0020 -0.1752
  139HK4    H2911603   2.649   8.362   5.226  0.6329  2.7935 -2.1249
  139HK4     N211604   2.850   8.747   5.357  0.3070  0.2713  0.7172
  139HK4    C3011605   2.818   8.884   5.373  0.1615  0.2326  0.7767
  139HK4    C2911606   2.693   8.943   5.370  0.0090 -0.1203  0.0469
  139HK4    H1511607   2.605   8.880   5.353  0.9371 -2.0917  2.2951
  139HK4    C2811608   2.684   9.081   5.384 -0.0773 -0.1448  0.2367
  139HK4    C2711609   2.799   9.162   5.400 -0.0785  0.0715 -0.7779
  139HK4    H1411610   2.793   9.271   5.412  1.7929  0.2285 -1.0956
  139HK4    C3211611   2.925   9.102   5.403 -0.0965  0.0749  0.1350
  139HK4    H1611612   3.016   9.161   5.407  2.8039 -4.1542 -0.3302
  139HK4    C3111613   2.937   8.964   5.391  0.2372 -0.0147  1.4005
  139HK4    C3411614   3.048   8.874   5.366  0.0403  0.3123 -0.7875
  139HK4    C3311615   2.990   8.743   5.341  0.1830  0.1625 -0.3548
  139HK4    C3511616   3.073   8.646   5.287 -0.2873 -0.3295 -0.1941
  139HK4    H1711617   3.038   8.543   5.277 -1.7250  0.3429 -2.3651
  139HK4    C3611618   3.204   8.678   5.253 -0.2360 -0.5014 -0.1608
  139HK4    H1811619   3.261   8.603   5.197  0.5305  2.5431 -3.6141
  139HK4    C3711620   3.257   8.804   5.280  0.4536 -0.7760 -0.2202
  139HK4    H1911621   3.358   8.824   5.245  0.8804 -1.7394  0.4543
  139HK4    C3811622   3.182   8.902   5.344  0.2331 -0.5791 -0.7800
  139HK4    H2011623   3.225   8.990   5.392  0.8034 -0.7313 -1.0086
  139HK4    C1411624   2.557   9.147   5.349 -0.2303 -0.4238  0.2688
  139HK4     C911625   2.547   9.276   5.296  0.6409 -0.3225  0.3397
  139HK4     C811626   2.441   9.357   5.343  0.2411 -0.3546 -0.4994
  139HK4    C1111627   2.348   9.307   5.433 -0.0133  0.0291 -0.5481
  139HK4     H411628   2.260   9.366   5.461  0.9600  2.1069 -1.7406
  139HK4    C1211629   2.350   9.174   5.475  0.3849  0.4655  0.8855
  139HK4     H511630   2.285   9.135   5.555 -0.1218 -2.5186 -0.8983
  139HK4    C1311631   2.454   9.094   5.429 -0.6897 -0.3061 -0.2432
  139HK4     H611632   2.446   8.987   5.456  2.3840 -0.0209  2.1430
  139HK4     C711633   2.420   9.491   5.284 -0.1664 -0.2179 -0.0483
  139HK4     O211634   2.344   9.571   5.337  0.3994  0.1416  0.2255
  139HK4     C411635   2.499   9.533   5.165  0.2415  0.1675  0.3572
  139HK4     C311636   2.461   9.650   5.100  0.3560  0.0452  0.0708
  139HK4     H311637   2.354   9.664   5.077  0.6223  0.0846 -1.1370
  139HK4     C211638   2.548   9.712   5.012  0.3703 -0.1735 -0.0682
  139HK4     H211639   2.521   9.804   4.958 -0.7485 -0.5937 -0.2371
  139HK4     C111640   2.676   9.658   4.999  0.3358 -0.3847  0.4516
  139HK4     H111641   2.747   9.698   4.925 -0.2437 -0.1370  0.0280
  139HK4     C611642   2.719   9.541   5.062  0.4346 -0.5935  0.0034
  139HK4     C511643   2.623   9.473   5.139  0.2589  0.1633  0.4525
  139HK4    C1011644   2.633   9.333   5.189 -0.1042 -0.0673 -0.1226
  139HK4     O111645   2.672   9.248   5.109 -0.3047 -0.2606 -0.0153
  139HK4    C1611646   2.858   9.528   5.109  0.4384 -0.0100  0.1573
  139HK4    C1511647   2.923   9.639   5.166 -0.0680  0.9108 -1.0466
  139HK4     H711648   2.862   9.725   5.197 -1.1314  0.0313 -0.6505
  139HK4    C2011649   3.056   9.634   5.207 -0.5272 -0.1662  0.3610
  139HK4     H911650   3.106   9.718   5.256  0.2889 -1.7104  2.2378
  139HK4    C1911651   3.131   9.518   5.194 -0.0640  0.2731 -1.0424
  139HK4    C1811652   3.068   9.405   5.128  0.0033 -0.4302  0.0877
  139HK4    C1711653   2.939   9.418   5.079 -0.0983 -0.4608  0.3445
  139HK4     H811654   2.904   9.335   5.018 -1.1435  0.1706  0.0718
  139HK4     N111655   3.160   9.298   5.117  0.4194  0.0058 -0.6628
  139HK4    C2111656   3.272   9.337   5.192 -0.2982  0.3939  0.2217
  139HK4    C2211657   3.262   9.474   5.237 -0.1715  0.5999 -0.3707
  139HK4    C2611658   3.345   9.527   5.335  0.2760  0.3786 -0.6268
  139HK4    H1311659   3.340   9.631   5.368  0.7527 -0.0312  0.7999
  139HK4    C2511660   3.442   9.447   5.395 -0.5007  0.0301  0.1776
  139HK4    H1211661   3.514   9.481   5.468 -1.1694 -1.0519  1.3562
  139HK4    C2411662   3.445   9.312   5.361 -0.5075  0.0504  0.1001
  139HK4    H1111663   3.494   9.246   5.434 -0.3568  0.0893  0.0347
  139HK4    C2311664   3.365   9.259   5.260  0.6376  0.4243 -1.0120
  139HK4    H1011665   3.365   9.152   5.241  0.5324 -0.1208  1.8046
  139HK4    C3911666   3.125   9.178   5.054 -0.2478 -0.2199  0.1308
  139HK4    C4111667   3.233   9.111   4.993  0.0865  0.3392  0.1062
  139HK4    H2111668   3.291   9.167   4.918 -0.1795 -0.4978 -0.7343
  139HK4    C4211669   3.229   8.973   4.976 -0.0870  0.3697 -0.1333
  139HK4    H2211670   3.320   8.915   4.958 -0.0481  0.8068 -1.3729
  139HK4    C4311671   3.112   8.907   5.014  0.2020 -0.0646 -0.0051
  139HK4    H2311672   3.118   8.798   5.017  0.5022 -0.0451  0.1729
  139HK4    C4411673   3.000   8.970   5.065  0.3177 -0.0709  0.2551
  139HK4    H2411674   2.906   8.915   5.081 -0.6841  1.0317 -1.6954
  139HK4    C4511675   3.009   9.106   5.089 -0.4203  0.0158  0.0440
  139HK4    H2511676   2.927   9.154   5.144 -1.5881 -1.7219 -0.1509
  140HK4    H2811677   8.062   1.588   8.853 -0.6917  0.5813 -1.6483
  140HK4    C4811678   8.128   1.674   8.863 -0.3564  0.1469 -0.0061
  140HK4    C4711679   8.256   1.649   8.911 -0.2802  0.4610 -0.0464
  140HK4    H2711680   8.281   1.573   8.986 -1.1525  1.8014  1.6477
  140HK4    C4611681   8.355   1.739   8.872  0.3725 -0.6913 -1.0988
  140HK4    H2611682   8.458   1.712   8.899  0.1803  1.1864  1.7442
  140HK4    C4011683   8.331   1.855   8.796 -0.0417  0.0922  0.1940
  140HK4    C5011684   8.198   1.877   8.755  0.0360  0.4932  0.1495
  140HK4    H3011685   8.173   1.977   8.716 -0.0266  0.3945 -0.0663
  140HK4    C4911686   8.098   1.785   8.786  0.2283  0.1604 -0.2143
  140HK4    H2911687   7.995   1.804   8.751 -0.3369 -2.1546  0.1357
  140HK4     N211688   8.421   1.962   8.786  0.3856 -0.2674  0.1638
  140HK4    C3011689   8.493   2.026   8.889  0.1336  0.3899 -0.0638
  140HK4    C2911690   8.489   2.006   9.027  0.0796  0.3983 -0.0654
  140HK4    H1511691   8.445   1.912   9.061  1.3871 -0.4215 -0.6046
  140HK4    C2811692   8.546   2.091   9.121  0.0079  0.5236 -0.1353
  140HK4    C2711693   8.622   2.200   9.074  0.3472  0.5205  0.4027
  140HK4    H1411694   8.650   2.281   9.143  1.2382 -0.4951  1.2597
  140HK4    C3211695   8.633   2.225   8.938  0.0013  0.0339  0.2861
  140HK4    H1611696   8.686   2.313   8.900  0.8939  0.0624  1.5990
  140HK4    C3111697   8.570   2.141   8.847  0.1985  0.3239 -0.1230
  140HK4    C3411698   8.550   2.150   8.703 -0.1200 -0.3168 -0.1185
  140HK4    C3311699   8.458   2.041   8.676 -0.4187 -0.0987  0.0176
  140HK4    C3511700   8.430   2.015   8.542  0.3773 -0.6353 -0.0525
  140HK4    H1711701   8.334   1.974   8.510  0.8606  0.0389 -2.4486
  140HK4    C3611702   8.508   2.076   8.444 -0.4536  0.1024 -0.2677
  140HK4    H1811703   8.500   2.050   8.338  2.5244  1.9921 -1.0168
  140HK4    C3711704   8.596   2.179   8.474 -0.2054 -0.2503  0.2228
  140HK4    H1911705   8.663   2.214   8.396 -1.0310  0.5235 -0.1464
  140HK4    C3811706   8.614   2.224   8.605 -0.2272  0.0847  0.1134
  140HK4    H2011707   8.642   2.328   8.619  0.0721  0.0731 -0.3780
  140HK4    C1411708   8.479   2.102   9.251 -0.0538 -0.0586 -0.1174
  140HK4     C911709   8.438   2.219   9.317  0.6216  0.3425 -0.4065
  140HK4     C811710   8.435   2.227   9.457 -0.4785 -0.2451 -0.3925
  140HK4    C1111711   8.473   2.113   9.526 -0.1223 -0.1980 -0.5097
  140HK4     H411712   8.469   2.113   9.636  0.7974  0.2953 -0.4694
  140HK4    C1211713   8.521   1.997   9.466  0.0797 -0.4546  0.1376
  140HK4     H511714   8.567   1.919   9.529 -0.6438 -0.7760  0.2774
  140HK4    C1311715   8.515   1.988   9.327 -0.0069  0.1059  0.1056
  140HK4     H611716   8.521   1.891   9.277 -2.4314 -0.3954  0.7335
  140HK4     C711717   8.389   2.347   9.530  0.3893  0.0046 -0.2458
  140HK4     O211718   8.410   2.361   9.650 -0.6093  0.1779 -0.0883
  140HK4     C411719   8.319   2.451   9.451  0.2288  0.1760  0.1205
  140HK4     C311720   8.290   2.576   9.505 -0.0937 -0.0133  0.3893
  140HK4     H311721   8.299   2.593   9.613 -2.8631 -1.3695  0.8776
  140HK4     C211722   8.227   2.675   9.430 -0.3453 -0.3908  0.0987
  140HK4     H211723   8.262   2.779   9.439 -0.3039 -0.4791  1.0213
  140HK4     C111724   8.167   2.639   9.310  0.3838 -0.1594 -0.3413
  140HK4     H111725   8.104   2.715   9.261 -1.2019 -0.1164  1.6635
  140HK4     C611726   8.184   2.508   9.261 -0.1860 -0.3093 -0.1380
  140HK4     C511727   8.277   2.422   9.320  0.1142  0.2066  0.1475
  140HK4    C1011728   8.351   2.316   9.245  0.4738  0.5343  0.0345
  140HK4     O111729   8.346   2.326   9.123 -0.0692 -0.2020 -0.0106
  140HK4    C1611730   8.105   2.480   9.140 -0.0599 -0.2468 -0.2361
  140HK4    C1511731   8.086   2.572   9.035  0.0968  0.0358 -0.0178
  140HK4     H711732   8.124   2.675   9.048  0.2348 -0.1751  1.4045
  140HK4    C2011733   8.005   2.539   8.928  0.0526 -0.2801  0.1139
  140HK4     H911734   8.002   2.604   8.840 -2.8917  2.2802  1.9828
  140HK4    C1911735   7.941   2.416   8.922 -0.1555 -0.1505 -0.3839
  140HK4    C1811736   7.963   2.318   9.026  0.3621  0.0875 -0.2729
  140HK4    C1711737   8.035   2.360   9.138  0.3915 -0.5127 -0.0667
  140HK4     H811738   8.007   2.312   9.232  1.7685 -0.3477  0.4420
  140HK4     N111739   7.901   2.194   9.002  0.2238  0.0815  0.1212
  140HK4    C2111740   7.828   2.215   8.883  0.1946 -0.1129  0.0989
  140HK4    C2211741   7.846   2.350   8.834 -0.2057 -0.2008 -0.2890
  140HK4    C2611742   7.777   2.393   8.721 -0.0604 -0.1470 -0.3603
  140HK4    H1311743   7.788   2.496   8.687  1.3937 -0.2019 -0.0891
  140HK4    C2511744   7.695   2.302   8.656 -0.0211 -0.2224 -0.3007
  140HK4    H1211745   7.661   2.334   8.557  0.7642 -1.4986 -0.9951
  140HK4    C2411746   7.677   2.170   8.697  0.7079 -0.3311 -0.3245
  140HK4    H1111747   7.599   2.106   8.653  0.2961  1.1510 -1.8369
  140HK4    C2311748   7.747   2.129   8.809 -0.5018  0.1056  0.5977
  140HK4    H1011749   7.749   2.024   8.836 -1.9325 -0.0270  0.1751
  140HK4    C3911750   7.945   2.072   9.054  0.2591  0.0165 -0.0672
  140HK4    C4111751   7.859   1.962   9.074  0.1531  0.1252  0.0808
  140HK4    H2111752   7.750   1.972   9.064 -0.0301 -0.0232  1.7973
  140HK4    C4211753   7.908   1.836   9.107  0.0473  0.1998  0.5255
  140HK4    H2211754   7.836   1.754   9.121 -1.1227  1.1968  0.4323
  140HK4    C4311755   8.044   1.820   9.129  0.1621 -0.3150 -0.5268
  140HK4    H2311756   8.075   1.716   9.119 -2.4517 -1.0256 -1.6905
  140HK4    C4411757   8.132   1.928   9.119  0.2449 -0.3040  0.2729
  140HK4    H2411758   8.229   1.926   9.169  0.4767  0.1625 -0.1512
  140HK4    C4511759   8.083   2.050   9.075  0.1898 -0.4628 -0.1140
  140HK4    H2511760   8.153   2.129   9.042  0.6179 -0.6656  0.3168
  141HK4    H2811761   6.800  11.057   7.354  0.3430 -0.8842 -1.0134
  141HK4    C4811762   6.838  11.008   7.443 -0.0528 -0.0099 -0.3499
  141HK4    C4711763   6.841  11.070   7.568  0.3030 -0.0245 -0.3510
  141HK4    H2711764   6.768  11.146   7.600 -0.2889 -1.0008  0.6698
  141HK4    C4611765   6.923  11.017   7.667 -0.3565  0.2458  0.3463
  141HK4    H2611766   6.910  11.047   7.772 -1.3300 -1.1542  0.6434
  141HK4    C4011767   7.011  10.909   7.645  0.3939  1.0527 -0.6509
  141HK4    C5011768   7.005  10.851   7.517  0.1128  0.3770 -0.3323
  141HK4    H3011769   7.061  10.758   7.497  0.5290  0.1695  1.7737
  141HK4    C4911770   6.916  10.895   7.419 -0.2011 -0.1316 -0.2820
  141HK4    H2911771   6.917  10.854   7.317 -1.0202  0.6420 -0.6052
  141HK4     N211772   7.125  10.885   7.722 -0.3789 -0.0982  0.1383
  141HK4    C3011773   7.188  10.986   7.798 -0.4600 -0.0552  0.1436
  141HK4    C2911774   7.202  11.121   7.768 -0.7898 -0.0875 -0.1697
  141HK4    H1511775   7.165  11.159   7.673  0.2253  1.5300  0.0581
  141HK4    C2811776   7.277  11.207   7.847 -0.3353 -0.4666 -0.1842
  141HK4    C2711777   7.357  11.145   7.945 -0.2268 -0.3278 -0.1860
  141HK4    H1411778   7.440  11.201   7.992  1.2430 -1.3419 -1.5169
  141HK4    C3211779   7.355  11.009   7.973  0.1791 -0.2673  0.1289
  141HK4    H1611780   7.412  10.952   8.047 -0.7846  0.4917  1.4689
  141HK4    C3111781   7.268  10.926   7.904  0.0970  0.0870 -0.1958
  141HK4    C3411782   7.253  10.783   7.887 -0.0790  0.0537  0.2451
  141HK4    C3311783   7.155  10.761   7.782  0.5790 -0.1030 -0.3418
  141HK4    C3511784   7.111  10.632   7.756  0.1200  0.0361 -0.2738
  141HK4    H1711785   7.021  10.622   7.695 -0.5199 -1.1936  0.8418
  141HK4    C3611786   7.173  10.524   7.818  0.1939 -0.0152 -0.4403
  141HK4    H1811787   7.175  10.425   7.768  2.9376  0.8487 -2.1444
  141HK4    C3711788   7.272  10.542   7.913 -0.1495 -0.4157  0.0024
  141HK4    H1911789   7.327  10.457   7.951 -1.1434 -0.3711  1.5804
  141HK4    C3811790   7.312  10.672   7.946 -0.3543 -0.3132 -0.1657
  141HK4    H2011791   7.386  10.680   8.025  0.0228  3.4485 -0.8130
  141HK4    C1411792   7.322   0.089   7.796  0.0760 -0.1994  0.8423
  141HK4     C911793   7.455   0.134   7.789 -0.0970  0.1552 -0.2897
  141HK4     C811794   7.488   0.271   7.787  0.1481  0.0904 -0.7059
  141HK4    C1111795   7.380   0.359   7.791  0.0788 -0.0607  0.8996
  141HK4     H411796   7.393   0.467   7.807  1.1524  0.0416 -0.5576
  141HK4    C1211797   7.247   0.319   7.794  0.1161 -0.2785 -0.0479
  141HK4     H511798   7.173   0.397   7.771 -1.3262 -1.3309  0.8981
  141HK4    C1311799   7.217   0.183   7.797  0.0174 -0.2521  0.2103
  141HK4     H611800   7.115   0.146   7.812 -0.3432  0.3825 -0.6554
  141HK4     C711801   7.619   0.323   7.830 -0.0015 -0.1899  0.0917
  141HK4     O211802   7.661   0.431   7.789 -0.1631 -0.1082  0.1411
  141HK4     C411803   7.715   0.223   7.884  0.2953 -0.0611 -0.1892
  141HK4     C311804   7.813   0.275   7.968  0.0650 -0.0837  0.0996
  141HK4     H311805   7.846   0.380   7.967  0.5404 -0.2348 -0.9387
  141HK4     C211806   7.895   0.189   8.040 -0.1202 -0.2498  0.1105
  141HK4     H211807   7.973   0.233   8.104 -1.8291  0.5179  1.7346
  141HK4     C111808   7.884   0.053   8.013 -0.0434 -0.1863 -0.2397
  141HK4     H111809   7.962  11.230   8.046 -0.1891  0.1460  0.8558
  141HK4     C611810   7.783   0.001   7.931 -0.5223 -0.4306  0.5015
  141HK4     C511811   7.697   0.086   7.859 -0.2928 -0.1310  0.5808
  141HK4    C1011812   7.574   0.045   7.786  0.0117  0.2977 -0.1824
  141HK4     O111813   7.589  11.208   7.698 -0.1136 -0.1075  0.1815
  141HK4    C1611814   7.739  11.113   7.967 -0.1981 -0.5708  0.3755
  141HK4    C1511815   7.741  11.080   8.104 -0.3388  0.4282  0.6251
  141HK4     H711816   7.732  11.162   8.178  1.0754  1.9966 -0.9176
  141HK4    C2011817   7.724  10.949   8.149 -0.1500  0.2274  0.1026
  141HK4     H911818   7.686  10.932   8.250 -2.5565 -0.0656 -0.8226
  141HK4    C1911819   7.691  10.849   8.059 -0.1190  0.2543  0.0565
  141HK4    C1811820   7.689  10.884   7.918  0.2881 -0.3347 -0.0978
  141HK4    C1711821   7.718  11.013   7.874 -0.1506 -0.2102 -0.0222
  141HK4     H811822   7.761  11.018   7.773  0.7880 -1.5451  0.2965
  141HK4     N111823   7.661  10.774   7.835 -0.4692 -0.2288  0.0074
  141HK4    C2111824   7.654  10.662   7.920  0.1738 -0.1419  0.1818
  141HK4    C2211825   7.673  10.705   8.057 -0.0637  0.2459  0.0921
  141HK4    C2611826   7.684  10.614   8.161  0.2326 -0.1897 -0.3185
  141HK4    H1311827   7.711  10.655   8.258  0.3176 -0.8039 -0.0819
  141HK4    C2511828   7.680  10.478   8.136  0.6250 -0.3710  0.5661
  141HK4    H1211829   7.688  10.398   8.210 -2.2456 -1.4121 -0.1455
  141HK4    C2411830   7.663  10.439   8.004  0.1863  0.0674  0.4910
  141HK4    H1111831   7.665  10.330   7.986  2.0073 -0.4976  3.8473
  141HK4    C2311832   7.650  10.525   7.895  0.6502 -0.1691  0.2460
  141HK4    H1011833   7.618  10.491   7.797  1.2193 -0.7871  0.2747
  141HK4    C3911834   7.603  10.782   7.708 -0.4048 -0.1043 -0.0115
  141HK4    C4111835   7.609  10.681   7.610 -0.0821 -0.1241  0.0269
  141HK4    H2111836   7.679  10.597   7.625  0.8524  0.9007  1.5330
  141HK4    C4211837   7.544  10.690   7.487  1.1631 -0.1321 -0.6403
  141HK4    H2211838   7.540  10.602   7.422 -1.1647 -1.5947  1.3855
  141HK4    C4311839   7.469  10.803   7.455  0.2440 -0.4406  0.3810
  141HK4    H2311840   7.440  10.830   7.353 -0.0306 -1.8752  0.0725
  141HK4    C4411841   7.465  10.909   7.544 -0.3772  0.1093 -0.2932
  141HK4    H2411842   7.418  11.006   7.522  1.4603  1.1584  0.3357
  141HK4    C4511843   7.524  10.892   7.669 -0.1899 -0.0864 -0.4092
  141HK4    H2511844   7.486  10.961   7.745 -1.2750 -0.5156 -0.5565
  142HK4    H2811845  10.362   5.402   8.322 -0.6811 -0.1641  0.2516
  142HK4    C4811846  10.387   5.296   8.329 -0.3019 -0.0856  0.1255
  142HK4    C4711847  10.367   5.216   8.440 -0.1820 -0.6543 -0.2636
  142HK4    H2711848  10.355   5.268   8.536  2.7746  0.0318 -0.2414
  142HK4    C4611849  10.394   5.079   8.437 -0.1029 -0.6532  0.2550
  142HK4    H2611850  10.382   5.019   8.528  3.3458  0.5281  1.5893
  142HK4    C4011851  10.429   5.021   8.313  0.0658  0.2026 -0.1109
  142HK4    C5011852  10.464   5.104   8.205 -0.3683 -0.0274 -0.4320
  142HK4    H3011853  10.498   5.077   8.104  0.4952 -1.7316  0.3027
  142HK4    C4911854  10.448   5.242   8.217 -0.9799 -0.1176 -0.2325
  142HK4    H2911855  10.479   5.306   8.133  0.1356  0.3984  0.5698
  142HK4     N211856  10.398   4.888   8.280  0.2055  0.1167  0.1010
  142HK4    C3011857  10.290   4.824   8.345 -0.2317  0.2124 -0.5303
  142HK4    C2911858  10.160   4.870   8.364 -0.0925  0.4964 -0.2642
  142HK4    H1511859  10.150   4.978   8.373 -1.4136  0.2912  0.8762
  142HK4    C2811860  10.054   4.784   8.391  0.2613  0.0634 -0.2338
  142HK4    C2711861  10.093   4.650   8.412  0.0491  0.1686  0.8256
  142HK4    H1411862  10.015   4.573   8.399  0.2822  0.3919 -2.1063
  142HK4    C3211863  10.220   4.596   8.398  0.0731  0.4664 -0.1494
  142HK4    H1611864  10.243   4.490   8.403 -0.0867  0.3415 -1.7964
  142HK4    C3111865  10.319   4.682   8.352  0.1030  0.2876 -0.4206
  142HK4    C3411866  10.440   4.655   8.277  0.1740 -0.0930 -0.1715
  142HK4    C3311867  10.485   4.787   8.235  0.2064  0.0389  0.2732
  142HK4    C3511868  10.614   4.799   8.185  0.0570  0.3122 -0.0512
  142HK4    H1711869  10.646   4.898   8.154 -1.2640  0.4366 -1.0090
  142HK4    C3611870  10.690   4.688   8.147 -0.2669  0.3180 -0.7179
  142HK4    H1811871  10.798   4.699   8.132  0.2529 -0.7529  1.9231
  142HK4    C3711872  10.638   4.562   8.174 -0.2197  0.4417 -0.0330
  142HK4    H1911873  10.694   4.479   8.130 -0.1517 -0.1941  1.2376
  142HK4    C3811874  10.519   4.546   8.243 -0.2597 -0.3702 -0.2908
  142HK4    H2011875  10.480   4.446   8.264  2.1502 -1.8294 -2.4086
  142HK4    C1411876   9.914   4.823   8.372  0.3384  0.1746 -0.5808
  142HK4     C911877   9.801   4.746   8.404  0.2695  0.6165  0.2747
  142HK4     C811878   9.681   4.757   8.331  0.3081  0.0793  0.1331
  142HK4    C1111879   9.675   4.852   8.229 -0.2362  0.1073  0.1851
  142HK4     H411880   9.588   4.880   8.169  0.5327 -3.4248 -2.7523
  142HK4    C1211881   9.784   4.934   8.200  0.1346 -0.3997  0.1351
  142HK4     H511882   9.777   5.020   8.132  0.3845 -0.2423  0.3112
  142HK4    C1311883   9.902   4.920   8.271  0.3297  0.8414  0.0597
  142HK4     H611884   9.977   5.000   8.256 -0.4886  1.5128 -0.4709
  142HK4     C711885   9.561   4.678   8.365  0.3125  0.0165  0.0045
  142HK4     O211886   9.453   4.697   8.309  0.1432  0.0700  0.3423
  142HK4     C411887   9.567   4.589   8.484 -0.2642  0.4877  0.3881
  142HK4     C311888   9.456   4.518   8.526 -0.4029  0.6961  0.3727
  142HK4     H311889   9.359   4.546   8.481 -0.3542  0.6583  0.2442
  142HK4     C211890   9.465   4.415   8.620 -0.3074 -0.0486 -0.4411
  142HK4     H211891   9.377   4.369   8.666  0.1664 -0.2267  0.3010
  142HK4     C111892   9.589   4.382   8.673 -0.4733  0.1605  0.0724
  142HK4     H111893   9.595   4.308   8.755  2.6647  0.1504 -0.0871
  142HK4     C611894   9.707   4.446   8.628 -0.4577 -0.2560 -0.4845
  142HK4     C511895   9.691   4.555   8.542  0.0806 -0.4937 -0.8961
  142HK4    C1011896   9.803   4.650   8.517 -0.4306  0.3865  0.0953
  142HK4     O111897   9.848   4.693   8.623 -0.0926  0.1421  0.0483
  142HK4    C1611898   9.826   4.361   8.644 -0.2979  0.1152  0.2810
  142HK4    C1511899   9.812   4.222   8.663 -0.1573  0.0341 -0.1985
  142HK4     H711900   9.718   4.187   8.619 -0.6623 -0.0209  0.9091
  142HK4    C2011901   9.910   4.138   8.712 -0.1330  0.2932  0.1991
  142HK4     H911902   9.888   4.035   8.742 -2.4157  1.0757  1.3310
  142HK4    C1911903  10.037   4.189   8.741  0.2166 -0.0662 -0.7005
  142HK4    C1811904  10.053   4.330   8.713 -0.3662  0.1438  0.0036
  142HK4    C1711905   9.954   4.413   8.663 -0.4548  0.3924  0.5872
  142HK4     H811906   9.980   4.503   8.607  1.9563 -0.3292  0.5257
  142HK4     N111907  10.187   4.371   8.728 -0.3105 -0.0959  0.1941
  142HK4    C2111908  10.256   4.254   8.766  0.1189  0.2441  0.4568
  142HK4    C2211909  10.170   4.137   8.762  0.1135  0.2395  0.7472
  142HK4    C2611910  10.216   4.010   8.795 -0.1980 -0.0805 -0.0537
  142HK4    H1311911  10.165   3.930   8.741  0.6034 -0.6813  0.0836
  142HK4    C2511912  10.345   3.999   8.844 -0.0482  0.2803 -0.3545
  142HK4    H1211913  10.390   3.903   8.868  0.3370  0.0850 -1.8019
  142HK4    C2411914  10.425   4.111   8.863  0.4995 -0.1716  0.0244
  142HK4    H1111915  10.527   4.102   8.904  0.6222  0.2614 -0.1839
  142HK4    C2311916  10.381   4.237   8.824  0.1922 -0.2336  0.1690
  142HK4    H1011917  10.446   4.324   8.838 -0.2797 -0.0407  1.1314
  142HK4    C3911918  10.224   4.494   8.783  0.4063 -0.4268  0.4601
  142HK4    C4111919  10.343   4.559   8.742 -0.2208  0.4932  0.0613
  142HK4    H2111920  10.406   4.514   8.664  0.3355  0.9804  0.2353
  142HK4    C4211921  10.391   4.668   8.813 -0.6655  0.4792  0.3882
  142HK4    H2211922  10.483   4.718   8.781 -1.9617  2.0621 -0.9488
  142HK4    C4311923  10.322   4.716   8.923  0.0817  0.3847  0.8976
  142HK4    H2311924  10.373   4.790   8.984  0.6145 -0.9314  2.0943
  142HK4    C4411925  10.201   4.659   8.963 -0.1680  0.4481  0.2359
  142HK4    H2411926  10.141   4.702   9.045 -1.3444 -0.1438 -0.2976
  142HK4    C4511927  10.155   4.549   8.893  0.6960 -0.0582  0.4599
  142HK4    H2511928  10.055   4.510   8.920  0.3224 -0.1969 -1.0666
  143HK4    H2811929   8.415   7.202   0.427 -0.3264 -1.7791  0.7354
  143HK4    C4811930   8.502   7.214   0.493 -0.2575  0.3095  0.2994
  143HK4    C4711931   8.519   7.122   0.595  0.0233 -0.8148 -0.7558
  143HK4    H2711932   8.438   7.048   0.605 -2.0195  1.4253 -0.4076
  143HK4    C4611933   8.633   7.121   0.674 -0.3305  0.0362 -0.2281
  143HK4    H2611934   8.648   7.051   0.757 -0.5329  1.5579  1.1101
  143HK4    C4011935   8.737   7.214   0.655  0.0765 -0.4011 -0.1716
  143HK4    C5011936   8.715   7.307   0.550 -0.2651 -0.1624  0.1085
  143HK4    H3011937   8.765   7.405   0.551 -0.5507 -0.0216  1.3940
  143HK4    C4911938   8.601   7.310   0.472 -0.1425  0.1073 -0.0674
  143HK4    H2911939   8.567   7.391   0.406 -1.6879  0.4089  1.0537
  143HK4     N211940   8.854   7.225   0.732  0.0338 -0.1704 -0.1400
  143HK4    C3011941   8.880   7.169   0.859  0.1815  0.3032  0.0370
  143HK4    C2911942   8.794   7.173   0.969  0.3765  0.0657  0.1972
  143HK4    H1511943   8.701   7.226   0.952  0.5721 -0.1079 -1.5496
  143HK4    C2811944   8.842   7.128   1.091 -0.3327 -0.4195  0.2985
  143HK4    C2711945   8.977   7.091   1.100 -0.4190 -0.6896  0.4559
  143HK4    H1411946   9.014   7.051   1.196  1.0987 -0.1722  0.1058
  143HK4    C3211947   9.069   7.103   0.996 -0.4887 -0.5769  0.4072
  143HK4    H1611948   9.176   7.089   1.008 -0.6286 -2.7880 -0.6030
  143HK4    C3111949   9.022   7.147   0.873  0.1400  0.3265  0.4874
  143HK4    C3411950   9.084   7.197   0.752  0.0285 -0.3975  0.1266
  143HK4    C3311951   8.977   7.246   0.667  0.1857  0.1964  0.2685
  143HK4    C3511952   9.023   7.306   0.550  0.4704 -0.2676  0.1433
  143HK4    H1711953   8.948   7.330   0.475  1.3796  3.5769  0.3882
  143HK4    C3611954   9.158   7.318   0.518  0.3747 -0.2725 -0.2563
  143HK4    H1811955   9.191   7.347   0.417  3.1995 -1.4206  0.3070
  143HK4    C3711956   9.256   7.279   0.608  0.1341  0.4637  0.3235
  143HK4    H1911957   9.360   7.313   0.601  0.9470 -1.6253  1.7465
  143HK4    C3811958   9.219   7.210   0.722 -0.0366 -0.0295 -0.0287
  143HK4    H2011959   9.296   7.182   0.795 -0.6747  0.1644  0.7227
  143HK4    C1411960   8.766   7.178   1.207 -0.7387 -0.3661  0.0131
  143HK4     C911961   8.817   7.209   1.334 -0.7316  1.0180 -0.3164
  143HK4     C811962   8.747   7.175   1.452  0.3603 -0.1848  0.0001
  143HK4    C1111963   8.620   7.120   1.434  0.3852 -0.2168 -0.0983
  143HK4     H411964   8.560   7.087   1.520  0.0549 -0.2040 -0.3259
  143HK4    C1211965   8.557   7.108   1.311 -0.2676 -0.1363  0.2262
  143HK4     H511966   8.452   7.081   1.297 -0.6003  1.9754 -1.6513
  143HK4    C1311967   8.630   7.141   1.198 -0.7860 -0.1653 -0.1163
  143HK4     H611968   8.594   7.128   1.095 -0.5461  2.8199 -0.6318
  143HK4     C711969   8.813   7.190   1.583  0.2782 -0.7655  0.1071
  143HK4     O211970   8.754   7.164   1.688  0.0390  0.0435  0.1736
  143HK4     C411971   8.949   7.246   1.598  0.0248 -0.1653  0.1576
  143HK4     C311972   9.009   7.266   1.722 -0.2341  0.0031  0.2577
  143HK4     H311973   8.949   7.263   1.814  0.7826 -0.2483  0.9228
  143HK4     C211974   9.139   7.314   1.733 -0.2952  0.1715  0.2271
  143HK4     H211975   9.177   7.340   1.833  0.2556 -1.2088  0.3934
  143HK4     C111976   9.214   7.334   1.617 -0.5262  0.0453  0.0546
  143HK4     H111977   9.305   7.396   1.628  0.9541 -1.3912 -3.4171
  143HK4     C611978   9.160   7.303   1.491  0.1664  0.0313 -0.2441
  143HK4     C511979   9.024   7.272   1.481  0.1656 -0.1340  0.2541
  143HK4    C1011980   8.953   7.269   1.350 -0.8277  0.9534  0.7573
  143HK4     O111981   8.973   7.365   1.276  0.3702 -0.2145 -0.4445
  143HK4    C1611982   9.256   7.277   1.383  0.1340  0.4019 -0.3626
  143HK4    C1511983   9.364   7.190   1.408 -0.1337  0.0281 -0.5025
  143HK4     H711984   9.377   7.139   1.504  1.4693 -0.1118 -0.7787
  143HK4    C2011985   9.461   7.164   1.311  0.8634  0.5473  0.3431
  143HK4     H911986   9.532   7.083   1.319 -0.3090 -0.8758 -2.6891
  143HK4    C1911987   9.463   7.244   1.197 -0.4253 -0.6336 -0.5276
  143HK4    C1811988   9.371   7.356   1.183 -0.1403 -0.3153  0.1265
  143HK4    C1711989   9.266   7.363   1.274 -0.5261  0.4730 -0.3722
  143HK4     H811990   9.203   7.452   1.270 -0.4796  0.5124 -0.2103
  143HK4     N111991   9.390   7.422   1.060 -0.3907  0.1592  0.3402
  143HK4    C2111992   9.481   7.342   0.987 -0.2198  0.2969  0.4049
  143HK4    C2211993   9.529   7.232   1.069  0.8813  0.4943  0.0266
  143HK4    C2611994   9.607   7.128   1.020 -0.0598 -0.0248 -0.3708
  143HK4    H1311995   9.631   7.046   1.088 -1.7575  1.2280  1.8120
  143HK4    C2511996   9.632   7.132   0.883 -0.1642  0.4345 -0.3764
  143HK4    H1211997   9.664   7.041   0.832 -0.6972  0.1319 -0.1723
  143HK4    C2411998   9.588   7.238   0.804 -0.4565  0.2042 -0.5234
  143HK4    H1111999   9.612   7.235   0.697  0.3347  1.5619 -0.3933
  143HK4    C2312000   9.508   7.342   0.851 -0.6550 -0.3245  0.3155
  143HK4    H1012001   9.454   7.401   0.778  0.0515 -0.9335 -0.7073
  143HK4    C3912002   9.294   7.499   0.992 -0.3710  0.1302  0.2768
  143HK4    C4112003   9.337   7.596   0.899 -0.0779  0.0512  0.3321
  143HK4    H2112004   9.444   7.614   0.878  0.3970 -0.4561  2.1861
  143HK4    C4212005   9.249   7.647   0.805 -0.2913  0.0382  0.5269
  143HK4    H2212006   9.292   7.725   0.740 -0.2819  0.1590  0.6791
  143HK4    C4312007   9.115   7.612   0.798 -0.1975 -0.0637 -1.0777
  143HK4    H2312008   9.049   7.648   0.720  0.7704  1.6068 -1.1429
  143HK4    C4412009   9.070   7.519   0.892  0.1856  0.1764 -0.6530
  143HK4    H2412010   8.963   7.495   0.896 -0.0222  1.1585 -0.1181
  143HK4    C4512011   9.158   7.464   0.985 -0.4674  0.5257  0.1783
  143HK4    H2512012   9.115   7.377   1.036  0.0819 -0.8915 -1.7284
  144HK4    H2812013   9.599   4.895   7.361  1.3102 -0.1525  0.6475
  144HK4    C4812014   9.509   4.868   7.416  0.7714  0.0194 -0.1392
  144HK4    C4712015   9.516   4.864   7.555 -0.3338  0.0115 -0.0731
  144HK4    H2712016   9.616   4.861   7.602  0.0949  0.9333 -0.8911
  144HK4    C4612017   9.398   4.856   7.628 -0.0060 -0.3687  0.4213
  144HK4    H2612018   9.392   4.846   7.737 -1.8926  0.1395  0.3758
  144HK4    C4012019   9.271   4.848   7.568  0.2415 -0.2549 -0.1174
  144HK4    C5012020   9.274   4.824   7.429  0.2791 -0.6128 -0.0555
  144HK4    H3012021   9.178   4.814   7.377 -0.5942 -0.4116  1.4910
  144HK4    C4912022   9.389   4.836   7.352  0.3738  0.6679  0.2755
  144HK4    H2912023   9.374   4.856   7.245  1.6863  1.9533  0.3065
  144HK4     N212024   9.160   4.905   7.631  0.1894 -0.3439 -0.1283
  144HK4    C3012025   9.153   5.011   7.723 -0.5221 -0.2590 -0.2767
  144HK4    C2912026   9.223   5.131   7.727 -0.6152 -0.2148  0.0223
  144HK4    H1512027   9.312   5.141   7.666 -0.8263 -0.6508 -0.3592
  144HK4    C2812028   9.183   5.247   7.792 -0.3775 -0.3921  0.4945
  144HK4    C2712029   9.059   5.240   7.860 -0.7596  0.7090 -0.0737
  144HK4    H1412030   9.016   5.325   7.914 -2.3376  0.1306 -0.4021
  144HK4    C3212031   8.988   5.121   7.866  0.3672  0.0490  0.2598
  144HK4    H1612032   8.924   5.113   7.954 -0.0230 -1.0606 -0.1165
  144HK4    C3112033   9.034   5.004   7.806  0.0296 -0.2191  0.5284
  144HK4    C3412034   8.963   4.888   7.757  0.2511 -0.2005  0.1633
  144HK4    C3312035   9.036   4.838   7.642 -0.2701  0.4339 -0.4487
  144HK4    C3512036   8.978   4.741   7.561  0.1135  0.0631 -0.2856
  144HK4    H1712037   9.004   4.727   7.456 -1.3610 -2.2714 -0.3631
  144HK4    C3612038   8.857   4.681   7.594  0.1170  0.2934  0.1607
  144HK4    H1812039   8.807   4.609   7.528  0.5497 -1.0312  1.2637
  144HK4    C3712040   8.798   4.720   7.713 -0.0848  0.6760 -0.0633
  144HK4    H1912041   8.703   4.670   7.733 -1.5693  1.7364 -4.0711
  144HK4    C3812042   8.843   4.826   7.791  0.0899  0.2476  0.4226
  144HK4    H2012043   8.775   4.878   7.858  0.6649  1.3119  0.1938
  144HK4    C1412044   9.268   5.366   7.806 -1.1810  0.2944 -0.3293
  144HK4     C912045   9.269   5.461   7.909  0.7874  0.0968 -0.1356
  144HK4     C812046   9.323   5.590   7.889  0.2608  0.2669 -0.4891
  144HK4    C1112047   9.387   5.619   7.770  0.3497  0.1356 -0.4744
  144HK4     H412048   9.456   5.704   7.772 -0.3480  0.6972 -0.0393
  144HK4    C1212049   9.383   5.530   7.663  0.7439  0.1871 -0.5328
  144HK4     H512050   9.436   5.557   7.570 -2.2368  2.3969 -1.6980
  144HK4    C1312051   9.332   5.403   7.686 -0.1530  0.6924  0.3345
  144HK4     H612052   9.323   5.338   7.598  0.9718  0.6558  0.2290
  144HK4     C712053   9.292   5.698   7.986  0.0018 -0.3131  0.0815
  144HK4     O212054   9.323   5.815   7.963  0.1470 -0.2812  0.4311
  144HK4     C412055   9.227   5.662   8.114  0.1717 -0.0430  0.2445
  144HK4     C312056   9.204   5.768   8.201 -1.0154  0.1712 -0.3269
  144HK4     H312057   9.246   5.868   8.180  1.0081  0.0283  2.7641
  144HK4     C212058   9.146   5.746   8.325  0.4722 -0.4723  0.2726
  144HK4     H212059   9.140   5.823   8.404  1.1242 -1.3371  1.1619
  144HK4     C112060   9.092   5.621   8.351 -0.2753 -0.1242  0.4140
  144HK4     H112061   9.079   5.598   8.458 -2.2614  1.7434  0.6224
  144HK4     C612062   9.089   5.519   8.254  0.1549  0.3887 -0.1476
  144HK4     C512063   9.179   5.534   8.148  0.5830 -0.2297  0.1216
  144HK4    C1012064   9.221   5.433   8.047 -0.0238  0.0588 -0.4217
  144HK4     O112065   9.257   5.325   8.094  0.1987  0.1186 -0.4628
  144HK4    C1612066   8.972   5.431   8.264  0.5008 -0.0429  0.1999
  144HK4    C1512067   8.864   5.447   8.353  0.7144  0.0549  0.4379
  144HK4     H712068   8.827   5.547   8.379 -2.1388 -1.0059  0.6375
  144HK4    C2012069   8.796   5.341   8.411 -0.1982  0.4381  0.0783
  144HK4     H912070   8.735   5.354   8.500  0.2628 -1.5114  0.7022
  144HK4    C1912071   8.820   5.211   8.368 -0.1174  0.4320  0.1454
  144HK4    C1812072   8.927   5.188   8.272 -0.6730  0.0319 -0.3828
  144HK4    C1712073   8.993   5.300   8.222  0.3459 -0.1645  0.5028
  144HK4     H812074   9.031   5.276   8.123  0.8431  1.1309  0.3706
  144HK4     N112075   8.937   5.053   8.233  0.1349 -0.0077 -0.0248
  144HK4    C2112076   8.850   4.983   8.318  0.0983  0.1040  0.0279
  144HK4    C2212077   8.772   5.077   8.396 -0.2512  0.3241 -0.5823
  144HK4    C2612078   8.660   5.035   8.468 -0.2430  0.2641 -0.6029
  144HK4    H1312079   8.594   5.105   8.519  1.8976  0.9840  1.3007
  144HK4    C2512080   8.628   4.900   8.463  0.0668  0.1651 -0.0256
  144HK4    H1212081   8.535   4.867   8.509 -0.3626  0.0745 -0.9512
  144HK4    C2412082   8.704   4.809   8.390 -0.2921  0.2671 -0.5318
  144HK4    H1112083   8.664   4.707   8.385 -0.4507  0.2180  1.3184
  144HK4    C2312084   8.817   4.848   8.319 -0.0098  0.1293 -0.1631
  144HK4    H1012085   8.884   4.766   8.291 -1.9167 -2.3470  2.2045
  144HK4    C3912086   9.059   5.005   8.182  0.4381  0.4926  0.2166
  144HK4    C4112087   9.046   4.890   8.101  0.3025  0.5966  0.0913
  144HK4    H2112088   8.947   4.848   8.076  0.7075  1.4361 -3.1683
  144HK4    C4212089   9.159   4.833   8.044  0.0980  0.6995 -0.4167
  144HK4    H2212090   9.152   4.745   7.980  0.5891 -0.6881  1.4060
  144HK4    C4312091   9.285   4.884   8.072  0.5720 -0.6667 -0.0553
  144HK4    H2312092   9.376   4.827   8.050  0.2533 -1.7686  1.3753
  144HK4    C4412093   9.303   4.998   8.149  0.0480 -0.3336 -0.4273
  144HK4    H2412094   9.398   5.053   8.161 -1.6659  2.0671  3.1604
  144HK4    C4512095   9.189   5.052   8.207  0.6449 -0.3871  0.8144
  144HK4    H2512096   9.193   5.137   8.277 -0.3452 -0.3098  0.7821
  145HK4    H2812097   7.894   7.147  10.385  0.7748 -2.6997  0.6304
  145HK4    C4812098   7.997   7.163  10.355  0.3424  0.0599  0.5468
  145HK4    C4712099   8.037   7.282  10.294 -0.1794  0.2067  0.4964
  145HK4    H2712100   7.973   7.364  10.257  1.3609  1.7099  1.1348
  145HK4    C4612101   8.175   7.288  10.279 -0.1642 -0.7473  0.1692
  145HK4    H2612102   8.210   7.380  10.230 -0.3085 -0.9740 -0.3674
  145HK4    C4012103   8.273   7.193  10.314  0.0504 -0.7571 -0.4428
  145HK4    C5012104   8.220   7.072  10.364  0.1744 -0.6805 -0.1168
  145HK4    H3012105   8.289   6.992  10.396  0.8415 -0.1972 -0.3367
  145HK4    C4912106   8.084   7.060  10.389  0.1506 -0.3179 -0.0875
  145HK4    H2912107   8.040   6.960  10.391 -1.2716  0.2989  0.1568
  145HK4     N212108   8.406   7.212  10.276  0.2125  0.3640  0.6512
  145HK4    C3012109   8.459   7.298  10.177 -0.0937 -0.4377 -0.2163
  145HK4    C2912110   8.404   7.333  10.054 -0.1059 -0.0376 -0.0974
  145HK4    H1512111   8.322   7.274  10.013 -0.6764  0.5373  0.2032
  145HK4    C2812112   8.461   7.422   9.964  0.0063 -0.0145 -0.0033
  145HK4    C2712113   8.584   7.480  10.001 -0.3355  0.6745  0.0480
  145HK4    H1412114   8.648   7.543   9.937  2.0632 -1.0149  0.7164
  145HK4    C3212115   8.645   7.441  10.120 -0.6193 -0.1741 -0.0829
  145HK4    H1612116   8.737   7.487  10.155  0.5454 -1.0227 -1.9498
  145HK4    C3112117   8.592   7.347  10.208 -0.3811  0.0380  0.2864
  145HK4    C3412118   8.626   7.276  10.329  0.3679 -0.7166 -0.3554
  145HK4    C3312119   8.512   7.194  10.367  0.3444 -0.3636  0.3554
  145HK4    C3512120   8.514   7.122  10.485 -0.5875  0.3629  0.8185
  145HK4    H1712121   8.436   7.052  10.516 -1.1704 -0.0601 -1.5550
  145HK4    C3612122   8.622   7.145  10.568  0.1225  0.1523 -0.0394
  145HK4    H1812123   8.621   7.095  10.666  0.9597 -2.3092 -1.2344
  145HK4    C3712124   8.730   7.228  10.541  0.3867 -0.2825 -0.3370
  145HK4    H1912125   8.820   7.221  10.604  1.1285 -0.7348 -1.4316
  145HK4    C3812126   8.732   7.292  10.418  0.0640  0.1124 -0.1405
  145HK4    H2012127   8.819   7.354  10.396 -0.9593  2.5411  2.4305
  145HK4    C1412128   8.403   7.432   9.829 -0.1224  0.2317  0.0733
  145HK4     C912129   8.482   7.465   9.719 -0.2916 -0.1170 -0.1518
  145HK4     C812130   8.439   7.531   9.602 -0.0294 -0.3137 -0.3574
  145HK4    C1112131   8.303   7.562   9.598  0.0254 -0.0009  0.1050
  145HK4     H412132   8.263   7.617   9.511  0.7063 -2.5489 -1.8864
  145HK4    C1212133   8.220   7.528   9.703  0.3042  0.7283  0.5661
  145HK4     H512134   8.111   7.535   9.692 -0.0317 -3.7512 -0.0903
  145HK4    C1312135   8.265   7.456   9.813 -0.1933 -0.0121  0.2953
  145HK4     H612136   8.195   7.425   9.892  1.0322  0.8604  1.7789
  145HK4     C712137   8.528   7.600   9.507 -0.1015 -0.5373 -0.5919
  145HK4     O212138   8.488   7.619   9.392  0.1802 -0.1921 -0.6340
  145HK4     C412139   8.671   7.602   9.546 -0.3668  0.5404  0.3697
  145HK4     C312140   8.759   7.682   9.475  0.3277 -0.5836 -0.0598
  145HK4     H312141   8.724   7.752   9.398  2.0938 -1.7370 -1.9509
  145HK4     C212142   8.896   7.684   9.502  0.1569  0.0964  0.7883
  145HK4     H212143   8.968   7.754   9.457  0.5315 -1.7829 -1.6424
  145HK4     C112144   8.943   7.593   9.595  0.6974 -0.3137  0.1169
  145HK4     H112145   9.052   7.594   9.614  0.8297 -0.0981 -0.6325
  145HK4     C612146   8.859   7.505   9.666 -0.0491  0.1564 -0.1911
  145HK4     C512147   8.723   7.503   9.633 -0.1259  0.4316  0.1032
  145HK4    C1012148   8.624   7.420   9.708 -0.2020  0.1916 -0.2589
  145HK4     O112149   8.641   7.299   9.720  0.6083  0.3116 -0.1700
  145HK4    C1612150   8.906   7.485   9.804  0.2174  0.0575 -0.2954
  145HK4    C1512151   8.981   7.579   9.878  0.2751 -0.4204  0.2498
  145HK4     H712152   8.988   7.680   9.836 -2.2693  0.0241  0.8181
  145HK4    C2012153   9.025   7.560  10.008  0.3420 -0.4133  0.2332
  145HK4     H912154   9.062   7.647  10.062  0.5258 -0.5877  0.3904
  145HK4    C1912155   9.004   7.439  10.074 -0.0828 -0.3116  0.2850
  145HK4    C1812156   8.949   7.336   9.988 -0.3222  0.0555 -0.0022
  145HK4    C1712157   8.906   7.357   9.858 -0.1671  0.1658 -0.0340
  145HK4     H812158   8.892   7.269   9.795 -0.3572  1.3106 -1.6169
  145HK4     N112159   8.955   7.212  10.055 -0.3278  0.3403  0.5346
  145HK4    C2112160   9.014   7.231  10.181  0.1323 -0.6243  0.4689
  145HK4    C2212161   9.052   7.370  10.192 -0.3618 -0.4748  0.3038
  145HK4    C2612162   9.092   7.415  10.318 -0.1218  0.1266  0.0180
  145HK4    H1312163   9.133   7.516  10.323 -0.6729  0.4960 -2.1860
  145HK4    C2512164   9.084   7.338  10.433 -0.7527 -0.4158 -0.3845
  145HK4    H1212165   9.094   7.375  10.535 -4.0387  1.1915 -0.5852
  145HK4    C2412166   9.053   7.203  10.422  0.5684 -0.8488  0.9864
  145HK4    H1112167   9.052   7.141  10.512  0.8474 -0.4447  1.2674
  145HK4    C2312168   9.026   7.153  10.295  0.8043 -0.2211  0.6809
  145HK4    H1012169   9.002   7.047  10.286  1.3084 -0.1657 -1.4693
  145HK4    C3912170   8.869   7.104  10.029  0.0344  0.0138  0.7126
  145HK4    C4112171   8.901   6.970  10.059 -0.3024  0.0241  1.1149
  145HK4    H2112172   9.006   6.940  10.046 -0.6955 -1.0041  0.2661
  145HK4    C4212173   8.809   6.866  10.050 -0.0944 -0.0537 -0.1471
  145HK4    H2212174   8.817   6.765  10.093 -0.6461  0.2633  0.7210
  145HK4    C4312175   8.678   6.885  10.005 -0.3702 -0.0469  0.6453
  145HK4    H2312176   8.601   6.810  10.017 -1.5849  1.1418  0.3767
  145HK4    C4412177   8.644   7.015   9.970 -0.0918  0.0039  0.5568
  145HK4    H2412178   8.552   7.043   9.916  0.7984  2.5561  0.2671
  145HK4    C4512179   8.736   7.118   9.984  0.4425 -0.2965 -0.6388
  145HK4    H2512180   8.689   7.216   9.963 -1.0668 -0.9355 -0.3068
  146HK4    H2812181   0.171   6.163   1.332 -1.1956  0.7503 -1.3860
  146HK4    C4812182   0.254   6.198   1.271 -0.1743  0.4255 -0.2118
  146HK4    C4712183   0.336   6.304   1.309 -0.2682  0.6568 -0.6473
  146HK4    H2712184   0.297   6.362   1.393  0.5617 -0.2822  0.4107
  146HK4    C4612185   0.466   6.320   1.262  0.1627 -0.0255  0.3044
  146HK4    H2612186   0.523   6.403   1.306 -1.6233  0.1906  2.3060
  146HK4    C4012187   0.518   6.227   1.169 -0.3681  0.0064 -0.0265
  146HK4    C5012188   0.425   6.136   1.115 -0.0836 -0.1774 -0.2064
  146HK4    H3012189   0.467   6.079   1.031 -0.7494 -2.0995  0.7279
  146HK4    C4912190   0.297   6.119   1.165  0.1295 -0.1633  0.3506
  146HK4    H2912191   0.231   6.054   1.106 -1.2335  0.2287  1.4110
  146HK4     N212192   0.634   6.260   1.097  0.0506 -0.2287  0.5316
  146HK4    C3012193   0.694   6.387   1.083 -0.0592 -0.2964 -0.5574
  146HK4    C2912194   0.635   6.512   1.067 -0.0324 -0.2461 -0.2719
  146HK4    H1512195   0.530   6.522   1.095 -0.0646 -0.2507 -0.3894
  146HK4    C2812196   0.705   6.625   1.025  0.3767 -0.1784  0.5923
  146HK4    C2712197   0.844   6.615   1.004  0.3198  0.2602  0.0014
  146HK4    H1412198   0.915   6.699   1.005 -0.5814  1.0301 -0.1721
  146HK4    C3212199   0.905   6.490   1.003  0.1396  0.1689  0.2199
  146HK4    H1612200   1.002   6.483   0.953 -0.7491  2.4056 -1.9177
  146HK4    C3112201   0.831   6.377   1.035 -0.0541  0.0520 -0.6209
  146HK4    C3412202   0.854   6.235   1.011  0.0944 -0.0697  0.2277
  146HK4    C3312203   0.734   6.169   1.058 -0.0079 -0.0606 -0.0216
  146HK4    C3512204   0.730   6.030   1.064  0.4062 -0.0868 -0.2937
  146HK4    H1712205   0.644   5.990   1.118  0.1983 -2.5203 -2.3909
  146HK4    C3612206   0.840   5.956   1.024  0.4950 -0.0448 -0.1264
  146HK4    H1812207   0.829   5.848   1.007  2.4621 -0.2170 -0.4154
  146HK4    C3712208   0.951   6.024   0.973  0.2379 -0.3008 -1.0252
  146HK4    H1912209   1.023   5.965   0.916 -0.0093  0.7158 -2.4107
  146HK4    C3812210   0.964   6.162   0.969 -0.2400 -0.2309 -0.3625
  146HK4    H2012211   1.056   6.215   0.944 -1.2084  1.8924  0.5053
  146HK4    C1412212   0.619   6.718   0.952  0.4231 -0.4661  0.1692
  146HK4     C912213   0.645   6.748   0.818  0.1850 -0.1670  0.1876
  146HK4     C812214   0.630   6.879   0.768 -1.2715 -0.4720 -0.1863
  146HK4    C1112215   0.580   6.978   0.852  0.1436  0.2012 -0.1314
  146HK4     H412216   0.588   7.086   0.832 -1.3128  0.3942  0.3055
  146HK4    C1212217   0.536   6.950   0.981  0.5391  0.0266 -0.0325
  146HK4     H512218   0.484   7.023   1.045 -0.5132  0.3839 -1.2709
  146HK4    C1312219   0.563   6.822   1.029  0.2631 -0.1551 -0.3609
  146HK4     H612220   0.541   6.798   1.134  2.4943  1.0450  0.4153
  146HK4     C712221   0.655   6.919   0.628 -0.1336 -0.3093  0.0629
  146HK4     O212222   0.676   7.034   0.591 -0.0551 -0.4168 -0.2351
  146HK4     C412223   0.694   6.810   0.536  0.1328  0.1255 -0.3426
  146HK4     C312224   0.738   6.833   0.406  0.1566  0.3284 -0.2976
  146HK4     H312225   0.799   6.924   0.392  0.3163  0.3318  0.4057
  146HK4     C212226   0.738   6.738   0.305 -0.2617 -0.0278  0.0333
  146HK4     H212227   0.756   6.771   0.201  0.8429  0.8952  0.5074
  146HK4     C112228   0.682   6.614   0.332  0.1265 -0.1790  0.1458
  146HK4     H112229   0.682   6.538   0.253 -3.2782 -1.5748  1.3725
  146HK4     C612230   0.639   6.584   0.463  0.1310  0.0281  0.1942
  146HK4     C512231   0.655   6.677   0.566 -0.6477  0.4220 -0.0294
  146HK4    C1012232   0.648   6.644   0.711  0.0741  0.0925 -0.0669
  146HK4     O112233   0.655   6.527   0.748 -0.9303 -0.1129 -0.5067
  146HK4    C1612234   0.550   6.467   0.473 -0.1298  0.2374  0.3535
  146HK4    C1512235   0.557   6.361   0.380 -0.1011  0.3494  0.2264
  146HK4     H712236   0.653   6.348   0.329  0.1682  0.8489  0.5985
  146HK4    C2012237   0.455   6.272   0.349  0.0226  0.3275 -0.1131
  146HK4     H912238   0.460   6.210   0.259  0.0790  1.2379 -0.7378
  146HK4    C1912239   0.331   6.294   0.408 -0.2716  0.7254 -0.8738
  146HK4    C1812240   0.319   6.407   0.498 -0.2802 -0.0476  0.0918
  146HK4    C1712241   0.425   6.491   0.529 -0.2134 -0.2287  0.3692
  146HK4     H812242   0.409   6.584   0.583 -0.4492  0.2765 -0.5570
  146HK4     N112243   0.190   6.406   0.554 -0.1952 -0.3475  0.2850
  146HK4    C2112244   0.122   6.298   0.494 -0.6876  0.2878 -0.3124
  146HK4    C2212245   0.204   6.226   0.398 -0.1570  0.3576  0.0799
  146HK4    C2612246   0.178   6.093   0.366  0.8926  0.0175  0.6327
  146HK4    H1312247   0.240   6.054   0.286 -1.0916  1.1026 -1.4812
  146HK4    C2512248   0.072   6.025   0.425  0.2312  0.2769 -0.2439
  146HK4    H1212249   0.032   5.933   0.382 -0.3361 -1.3377  3.4828
  146HK4    C2412250  11.239   6.093   0.516  0.0072 -0.1920 -0.0876
  146HK4    H1112251  11.158   6.046   0.573 -0.8473  1.6661  0.2406
  146HK4    C2312252   0.016   6.226   0.547 -0.1916 -0.1864  0.0462
  146HK4    H1012253  11.204   6.271   0.626 -0.7792  1.1115 -1.1373
  146HK4    C3912254   0.166   6.457   0.682  0.4746  0.3928  0.1144
  146HK4    C4112255   0.037   6.502   0.715  0.2182  0.0883 -0.4889
  146HK4    H2112256  11.213   6.506   0.631 -2.6057 -1.1501  1.7849
  146HK4    C4212257  11.238   6.523   0.844  0.3065  0.1341 -0.4644
  146HK4    H2212258  11.137   6.558   0.873  1.3860  2.0219  1.1011
  146HK4    C4312259   0.070   6.488   0.951  0.0823 -0.3480 -0.4529
  146HK4    H2312260   0.040   6.492   1.056  0.4760  0.0706 -0.3519
  146HK4    C4412261   0.193   6.431   0.918  0.3315 -0.1060  0.0554
  146HK4    H2412262   0.248   6.381   0.999  4.8284  1.4050 -1.9045
  146HK4    C4512263   0.248   6.419   0.791  0.4655  0.2644  0.0754
  146HK4    H2512264   0.349   6.381   0.769  1.0479  1.7148  0.2036
  147HK4    H2812265  10.548   0.373   0.951 -1.7361  2.8980  0.0511
  147HK4    C4812266  10.484   0.321   1.022  1.0082 -0.6083  0.0607
  147HK4    C4712267  10.508   0.313   1.159  0.2414  0.0905  0.2348
  147HK4    H2712268  10.572   0.386   1.210  1.5998 -0.6579 -0.3845
  147HK4    C4612269  10.446   0.221   1.242  0.3580  0.0018  0.2237
  147HK4    H2612270  10.437   0.250   1.348 -0.5037 -1.0027  0.4400
  147HK4    C4012271  10.372   0.115   1.186  0.3172  0.0508  0.1860
  147HK4    C5012272  10.344   0.122   1.048 -0.3924  0.0754  0.3324
  147HK4    H3012273  10.328   0.023   1.003 -1.0505 -0.4607  1.7038
  147HK4    C4912274  10.391   0.230   0.974  0.2068 -0.0425  0.5362
  147HK4    H2912275  10.354   0.257   0.874  1.8636  1.0159  0.1915
  147HK4     N212276  10.331   0.006   1.264 -0.4084  0.0459 -0.2012
  147HK4    C3012277  10.390  11.215   1.386 -0.3413  0.5015 -0.0866
  147HK4    C2912278  10.521  11.237   1.426 -0.1540 -0.3335 -0.2332
  147HK4    H1512279  10.587   0.037   1.354  1.1930 -0.0882  1.1349
  147HK4    C2812280  10.561  11.193   1.552 -0.3485 -0.0324 -0.0687
  147HK4    C2712281  10.468  11.127   1.635 -0.1410  0.0092  0.1957
  147HK4    H1412282  10.509  11.096   1.733 -0.7363 -0.0159  0.4376
  147HK4    C3212283  10.339  11.096   1.592  0.1750 -0.4170 -0.4489
  147HK4    H1612284  10.263  11.045   1.649  0.8744 -0.5897  0.3415
  147HK4    C3112285  10.299  11.134   1.464 -0.1540  0.2193 -0.1596
  147HK4    C3412286  10.177  11.121   1.387 -0.5587  1.0235  0.3356
  147HK4    C3312287  10.202  11.198   1.266 -0.4268  0.0831 -0.2413
  147HK4    C3512288  10.106  11.194   1.165 -0.4601 -0.2451 -0.1974
  147HK4    H1712289  10.123  11.238   1.067  0.2457  1.7432  0.7957
  147HK4    C3612290   9.989  11.124   1.190 -0.2068 -0.5732  0.0764
  147HK4    H1812291   9.911  11.106   1.114 -1.2806 -2.0312  1.4935
  147HK4    C3712292   9.961  11.056   1.308 -0.2372  0.1613  0.4936
  147HK4    H1912293   9.858  11.032   1.337 -0.3300  0.5415  0.4823
  147HK4    C3812294  10.060  11.048   1.405  0.2690 -0.4265 -0.0711
  147HK4    H2012295  10.054  10.957   1.463 -2.7701  0.7727  1.5886
  147HK4    C1412296  10.703  11.166   1.579 -0.3481 -0.1908 -0.2352
  147HK4     C912297  10.756  11.052   1.641  0.4900  0.0744 -0.4671
  147HK4     C812298  10.873  11.055   1.720  0.3369  0.0904 -0.2389
  147HK4    C1112299  10.952  11.169   1.712  0.1616  0.2357  0.1123
  147HK4     H412300  11.045  11.187   1.767  0.1446 -0.3753  0.3392
  147HK4    C1212301  10.909   0.033   1.641  0.1610  0.3143  0.2358
  147HK4     H512302  10.974   0.123   1.640 -0.0618  0.4659 -0.6566
  147HK4    C1312303  10.785   0.032   1.580  0.6842 -0.9172 -0.8361
  147HK4     H612304  10.741   0.128   1.548 -1.4774 -2.0915 -1.5358
  147HK4     C712305  10.908  10.946   1.814  0.3665  0.3593  0.0608
  147HK4     O212306  10.993  10.968   1.900  0.1486  0.0992  0.3449
  147HK4     C412307  10.824  10.825   1.820 -0.2842  0.8294  0.6075
  147HK4     C312308  10.847  10.722   1.911  0.2198  0.1262 -0.3075
  147HK4     H312309  10.940  10.726   1.970 -0.0153  0.5479  0.0344
  147HK4     C212310  10.761  10.614   1.926  0.2465  0.1054 -0.3024
  147HK4     H212311  10.767  10.543   2.009 -0.8957  0.5056  0.1344
  147HK4     C112312  10.651  10.604   1.841 -0.1016  0.0916  0.1527
  147HK4     H112313  10.611  10.501   1.839  1.3386 -0.4991  0.9648
  147HK4     C612314  10.624  10.701   1.743  0.1958 -0.2502 -0.2712
  147HK4     C512315  10.717  10.805   1.730 -0.2233  0.2408  0.6605
  147HK4    C1012316  10.694  10.917   1.634  1.1014 -0.2213 -0.2145
  147HK4     O112317  10.652  10.894   1.521  0.3961  0.7019 -0.1513
  147HK4    C1612318  10.481  10.732   1.727  0.1961 -0.3187 -0.4184
  147HK4    C1512319  10.398  10.739   1.841 -0.1303  0.0760 -0.6788
  147HK4     H712320  10.450  10.748   1.937  0.4319  3.4324 -1.2190
  147HK4    C2012321  10.259  10.746   1.835 -0.1578  0.7455  0.4888
  147HK4     H912322  10.209  10.793   1.919 -1.2362  1.0688 -0.3219
  147HK4    C1912323  10.193  10.740   1.712  0.2834  0.6322  0.2577
  147HK4    C1812324  10.274  10.730   1.592 -0.1985  0.5112 -0.0533
  147HK4    C1712325  10.412  10.736   1.607 -0.1576  0.0544 -0.2047
  147HK4     H812326  10.465  10.705   1.517 -0.7906  0.5350 -0.7480
  147HK4     N112327  10.194  10.708   1.478  0.2177 -0.2636 -0.2006
  147HK4    C2112328  10.061  10.700   1.524  0.4206  0.5259  0.5371
  147HK4    C2212329  10.057  10.719   1.668  0.2499  0.1523  0.5814
  147HK4    C2612330   9.933  10.722   1.731 -0.1699  0.4398 -0.2472
  147HK4    H1312331   9.934  10.762   1.832 -1.1468  1.2402 -0.5483
  147HK4    C2512332   9.814  10.702   1.663  0.1549  0.0672 -0.7157
  147HK4    H1212333   9.716  10.704   1.712  0.9494  1.4620  0.8505
  147HK4    C2412334   9.815  10.679   1.526 -0.0974  0.2440 -0.7492
  147HK4    H1112335   9.722  10.660   1.469  0.4136  1.1132 -1.8971
  147HK4    C2312336   9.938  10.676   1.463  0.5066  0.4198  0.4140
  147HK4    H1012337   9.942  10.686   1.354  0.3718  1.5397  0.5076
  147HK4    C3912338  10.238  10.715   1.345  0.2737  0.1318 -0.1613
  147HK4    C4112339  10.164  10.651   1.244 -0.2121  0.0374  0.2498
  147HK4    H2112340  10.110  10.559   1.267 -0.8692  0.6639  1.2226
  147HK4    C4212341  10.167  10.695   1.112  0.4192 -0.3498  0.1356
  147HK4    H2212342  10.101  10.657   1.032 -0.0190  0.8836 -0.0945
  147HK4    C4312343  10.242  10.807   1.080 -0.2318  0.0984  0.1500
  147HK4    H2312344  10.257  10.838   0.976  0.8360 -1.3260 -0.1434
  147HK4    C4412345  10.309  10.879   1.179 -0.5202  0.4577  0.0817
  147HK4    H2412346  10.338  10.984   1.167 -0.3753  0.3880 -0.2012
  147HK4    C4512347  10.312  10.829   1.308  0.1520  0.2613 -0.0086
  147HK4    H2512348  10.361  10.890   1.386 -1.1513 -0.1528  1.1577
  148HK4    H2812349   8.817   3.216   7.325 -0.7214  0.7766 -0.1306
  148HK4    C4812350   8.719   3.170   7.316 -0.2435 -0.2513 -0.1693
  148HK4    C4712351   8.601   3.237   7.286  0.0351  0.6382  0.7006
  148HK4    H2712352   8.611   3.347   7.290  0.2724  0.6012  1.0982
  148HK4    C4612353   8.483   3.168   7.260  0.6465 -0.0959 -0.1134
  148HK4    H2612354   8.398   3.235   7.241  0.2501 -1.1958 -2.4143
  148HK4    C4012355   8.479   3.027   7.262  0.1911 -0.0821  0.0553
  148HK4    C5012356   8.601   2.962   7.293  0.1705 -0.3636 -0.4461
  148HK4    H3012357   8.603   2.853   7.307 -0.8034 -0.5637 -1.7088
  148HK4    C4912358   8.719   3.031   7.315 -0.0217 -0.2526  0.2202
  148HK4    H2912359   8.814   2.980   7.333  0.3240  0.4920  0.5540
  148HK4     N212360   8.384   2.950   7.195  0.0719  0.2738 -0.1871
  148HK4    C3012361   8.302   2.977   7.083 -0.3374  0.4100  0.1413
  148HK4    C2912362   8.314   3.084   6.996 -0.3288  0.6368  0.4212
  148HK4    H1512363   8.390   3.162   7.009  0.8902 -0.4766  0.0715
  148HK4    C2812364   8.232   3.104   6.885  0.2927 -0.4859 -0.2557
  148HK4    C2712365   8.134   3.004   6.871 -0.4382  0.1748  0.1029
  148HK4    H1412366   8.077   3.015   6.777  1.4532  1.1726 -0.9451
  148HK4    C3212367   8.114   2.896   6.956 -0.3854 -0.1018 -0.2363
  148HK4    H1612368   8.045   2.820   6.920 -2.5498  0.9530  1.5639
  148HK4    C3112369   8.194   2.882   7.068  0.1770 -0.0651 -0.6308
  148HK4    C3412370   8.213   2.784   7.173 -0.0758  0.4403 -0.1073
  148HK4    C3312371   8.325   2.834   7.251  0.0480  0.2908 -0.1820
  148HK4    C3512372   8.354   2.764   7.367 -0.1434  0.1880 -0.1964
  148HK4    H1712373   8.415   2.813   7.443  0.8004  1.0356 -1.4770
  148HK4    C3612374   8.282   2.650   7.403 -0.6168  0.5994  0.1646
  148HK4    H1812375   8.307   2.607   7.501  0.2070  0.7191  0.0118
  148HK4    C3712376   8.194   2.593   7.312  0.1309  0.1631 -0.2905
  148HK4    H1912377   8.153   2.498   7.346 -1.1107  0.2564 -1.4836
  148HK4    C3812378   8.155   2.659   7.197 -0.3092  0.5893  0.1010
  148HK4    H2012379   8.114   2.596   7.118 -1.4871 -0.2277  1.3425
  148HK4    C1412380   8.222   3.229   6.809 -0.1208 -0.2666  0.1535
  148HK4     C912381   8.098   3.281   6.768 -0.1217  0.0466  0.5480
  148HK4     C812382   8.090   3.365   6.656 -0.2719 -0.2221  0.3559
  148HK4    C1112383   8.210   3.407   6.598  0.0145 -0.1990  0.9590
  148HK4     H412384   8.210   3.484   6.519  1.5124 -1.8399 -0.6891
  148HK4    C1212385   8.336   3.369   6.642  0.2299 -0.4501  0.1359
  148HK4     H512386   8.421   3.405   6.582  0.4672  0.1319  0.8148
  148HK4    C1312387   8.339   3.280   6.748 -0.0405 -0.0649  0.4730
  148HK4     H612388   8.437   3.263   6.796 -0.7592  0.6944  2.2626
  148HK4     C712389   7.958   3.413   6.610 -0.1662 -0.2378  0.0294
  148HK4     O212390   7.956   3.485   6.510 -0.5385  0.2098  0.3595
  148HK4     C412391   7.835   3.369   6.679 -0.1788 -0.2667 -0.0125
  148HK4     C312392   7.711   3.397   6.621  0.1537 -0.1020 -0.6463
  148HK4     H312393   7.705   3.479   6.549 -0.9470 -1.1092 -1.7208
  148HK4     C212394   7.601   3.315   6.644  0.5155 -0.5112 -0.3692
  148HK4     H212395   7.499   3.326   6.607 -0.6375 -0.2170  2.7473
  148HK4     C112396   7.617   3.211   6.736  0.3213 -0.2225 -0.0060
  148HK4     H112397   7.543   3.130   6.736  0.0652 -0.0578 -2.6787
  148HK4     C612398   7.730   3.199   6.819 -0.2052  0.2961  0.7832
  148HK4     C512399   7.842   3.277   6.786  0.1750 -0.7703 -0.4673
  148HK4    C1012400   7.975   3.253   6.848 -0.1421 -0.2413  0.4189
  148HK4     O112401   7.982   3.258   6.971 -0.1158  0.2773  0.3964
  148HK4    C1612402   7.740   3.081   6.906 -0.4046 -0.3284 -0.0408
  148HK4    C1512403   7.700   2.955   6.859  0.1432 -0.4860 -0.0900
  148HK4     H712404   7.715   2.917   6.757 -1.6097 -1.4732 -0.0209
  148HK4    C2012405   7.634   2.863   6.940 -0.0276 -0.1671  0.1314
  148HK4     H912406   7.611   2.762   6.907 -4.3068 -0.0375  2.3005
  148HK4    C1912407   7.601   2.899   7.071  0.2447  0.2765  0.0801
  148HK4    C1812408   7.654   3.021   7.128  0.6234  0.0263  0.2674
  148HK4    C1712409   7.711   3.111   7.039  0.2857  0.0135  0.0370
  148HK4     H812410   7.742   3.208   7.076  3.4168 -1.4440  1.4482
  148HK4     N112411   7.590   3.046   7.252 -0.3084  0.1122 -0.2226
  148HK4    C2112412   7.507   2.936   7.282  0.5031 -0.5136 -0.2571
  148HK4    C2212413   7.502   2.850   7.165 -0.2103 -0.0569 -0.5653
  148HK4    C2612414   7.406   2.750   7.157  0.2076 -0.4421 -0.8167
  148HK4    H1312415   7.386   2.707   7.058 -0.8169  0.0782 -0.8420
  148HK4    C2512416   7.311   2.742   7.257  0.9572  0.4781 -0.0218
  148HK4    H1212417   7.225   2.675   7.245  0.4758  0.7702  1.6414
  148HK4    C2412418   7.317   2.827   7.367 -0.0177  0.2293  0.2319
  148HK4    H1112419   7.229   2.831   7.433 -1.4824  1.5503 -1.7109
  148HK4    C2312420   7.415   2.923   7.385  0.4560 -0.1588 -0.2570
  148HK4    H1012421   7.446   2.948   7.487  1.6914 -1.8050 -0.2129
  148HK4    C3912422   7.629   3.147   7.340 -0.0758 -0.4357  0.3091
  148HK4    C4112423   7.536   3.195   7.435  0.0586  0.3189  0.0653
  148HK4    H2112424   7.428   3.192   7.416  0.4126  0.9773 -2.2116
  148HK4    C4212425   7.571   3.270   7.547  0.2381  0.2665  0.0470
  148HK4    H2212426   7.485   3.307   7.605  0.0908 -1.2796  0.8467
  148HK4    C4312427   7.702   3.310   7.565  0.3319 -0.3101  0.6578
  148HK4    H2312428   7.727   3.387   7.639  0.3736 -1.4356  1.8357
  148HK4    C4412429   7.798   3.268   7.473 -0.0654  0.2805 -0.0315
  148HK4    H2412430   7.904   3.271   7.500 -0.2516  1.0815  0.6324
  148HK4    C4512431   7.760   3.192   7.363 -0.2591  0.2158  0.0781
  148HK4    H2512432   7.843   3.170   7.294  0.0485  1.2308  0.1057
  149HK4    H2812433   3.091   8.043   7.013  1.4623 -1.0940  1.0939
  149HK4    C4812434   3.175   8.080   6.954  0.2098 -0.4422 -0.3033
  149HK4    C4712435   3.160   8.207   6.899  0.2898 -0.1360  0.3795
  149HK4    H2712436   3.077   8.274   6.927  0.4830 -0.1379  0.9593
  149HK4    C4612437   3.243   8.251   6.796  0.3767  0.3768  0.6666
  149HK4    H2612438   3.222   8.350   6.754 -2.2980  0.0616  1.2108
  149HK4    C4012439   3.346   8.169   6.747 -0.5314 -0.2214 -0.2524
  149HK4    C5012440   3.361   8.042   6.807  0.4107 -0.0048 -0.0115
  149HK4    H3012441   3.420   7.960   6.764  2.2005  1.2090  0.0872
  149HK4    C4912442   3.275   7.997   6.907  0.3590 -0.3227 -0.1981
  149HK4    H2912443   3.312   7.907   6.959  3.5049  0.1321 -1.5045
  149HK4     N212444   3.413   8.200   6.627  0.1122 -0.0368  0.1506
  149HK4    C3012445   3.373   8.289   6.526 -0.0393 -0.8761 -0.5351
  149HK4    C2912446   3.250   8.343   6.489  0.3180  0.3417  0.0506
  149HK4    H1512447   3.165   8.325   6.555  1.3072  1.8114  1.8066
  149HK4    C2812448   3.223   8.423   6.379 -0.1785 -0.0759 -0.1307
  149HK4    C2712449   3.338   8.464   6.309 -0.4941  0.7978 -0.1449
  149HK4    H1412450   3.325   8.527   6.220  0.4674  1.5139  0.2085
  149HK4    C3212451   3.466   8.415   6.336 -0.7660  0.3805  0.3879
  149HK4    H1612452   3.544   8.445   6.267 -0.3799  0.5224  0.8827
  149HK4    C3112453   3.484   8.326   6.441  0.0816  0.1997  0.0872
  149HK4    C3412454   3.591   8.235   6.478  0.2852  0.2187 -0.4453
  149HK4    C3312455   3.547   8.168   6.599 -0.0755 -0.0543 -0.7279
  149HK4    C3512456   3.636   8.085   6.666  0.2204  0.7714 -0.0945
  149HK4    H1712457   3.629   8.065   6.773 -1.6787  0.6543 -0.2196
  149HK4    C3612458   3.762   8.063   6.612 -0.0243  0.3794 -0.5023
  149HK4    H1812459   3.834   8.008   6.675 -0.0545 -0.9421 -1.5922
  149HK4    C3712460   3.803   8.125   6.495  0.0768 -0.4967 -0.9326
  149HK4    H1912461   3.906   8.110   6.460  0.7152  1.2888  0.1480
  149HK4    C3812462   3.719   8.213   6.429  0.1707 -0.1431 -0.5828
  149HK4    H2012463   3.755   8.271   6.344 -1.0521  0.1815 -0.8900
  149HK4    C1412464   3.093   8.398   6.314 -0.1440  0.1356 -0.2795
  149HK4     C912465   3.064   8.338   6.191  0.2541  1.1360 -0.8699
  149HK4     C812466   2.930   8.318   6.149  0.0538  0.2268  0.1889
  149HK4    C1112467   2.827   8.360   6.232 -0.0180 -0.2583  0.3496
  149HK4     H412468   2.724   8.359   6.194  0.0361 -1.6552  0.2125
  149HK4    C1212469   2.850   8.426   6.352 -0.0735 -0.2744  0.3697
  149HK4     H512470   2.774   8.493   6.396 -1.6440 -0.8215 -1.4462
  149HK4    C1312471   2.982   8.438   6.392  0.0019 -0.1833  0.0917
  149HK4     H612472   3.010   8.480   6.490 -2.5741  2.4947 -0.2455
  149HK4     C712473   2.900   8.241   6.026  0.1519  0.5053 -0.0103
  149HK4     O212474   2.785   8.227   5.985  0.0799  0.2568  0.2716
  149HK4     C412475   3.017   8.198   5.946 -0.0431 -0.5435  0.2696
  149HK4     C312476   2.998   8.118   5.835 -0.3310  0.2707 -0.2728
  149HK4     H312477   2.919   8.042   5.828 -2.4022  2.2335  1.3150
  149HK4     C212478   3.090   8.120   5.730  0.4970  0.0026  0.4436
  149HK4     H212479   3.075   8.060   5.639 -1.7635 -0.0300  0.7987
  149HK4     C112480   3.200   8.204   5.738  0.7540 -0.3021  0.1328
  149HK4     H112481   3.264   8.208   5.649  3.2750  1.1481  1.9275
  149HK4     C612482   3.230   8.279   5.854 -0.0946 -0.0271  0.1822
  149HK4     C512483   3.141   8.264   5.960 -0.1012 -0.4029  0.1248
  149HK4    C1012484   3.175   8.298   6.101  0.4660 -0.0055 -0.1084
  149HK4     O112485   3.267   8.233   6.151  0.8658  0.6144 -0.0299
  149HK4    C1612486   3.341   8.375   5.850  0.2015 -0.3522  0.4981
  149HK4    C1512487   3.342   8.499   5.918 -0.0051 -0.4477  0.6703
  149HK4     H712488   3.251   8.524   5.974 -1.6419 -2.5408 -1.0074
  149HK4    C2012489   3.451   8.586   5.925  0.3714 -0.8628  0.0152
  149HK4     H912490   3.443   8.685   5.969 -0.3045 -1.7176  1.8440
  149HK4    C1912491   3.574   8.541   5.877  0.6999  0.4287 -0.3622
  149HK4    C1812492   3.582   8.405   5.828  0.0806  0.2049  0.1391
  149HK4    C1712493   3.466   8.331   5.809  0.2156 -0.0149  0.1766
  149HK4     H812494   3.484   8.224   5.794 -1.4079 -0.4293  1.0346
  149HK4     N112495   3.714   8.369   5.795 -0.1571 -0.1396 -0.4377
  149HK4    C2112496   3.783   8.492   5.791  0.0494 -0.2443 -0.1383
  149HK4    C2212497   3.702   8.600   5.844  0.6387  0.4288 -0.5975
  149HK4    C2612498   3.738   8.733   5.828 -0.3463  0.7613 -0.0647
  149HK4    H1312499   3.688   8.814   5.883 -0.6539  1.1143 -0.8417
  149HK4    C2512500   3.854   8.765   5.758 -0.0066  0.4614  0.3656
  149HK4    H1212501   3.880   8.869   5.742  0.0186  0.4743  0.4943
  149HK4    C2412502   3.928   8.660   5.705  0.4255  0.6690  0.5540
  149HK4    H1112503   4.003   8.678   5.626 -0.6311  1.1220 -0.3591
  149HK4    C2312504   3.899   8.525   5.722  0.2041  0.7166  0.5766
  149HK4    H1012505   3.956   8.450   5.668  1.6887  1.9782  0.3537
  149HK4    C3912506   3.778   8.257   5.850  0.0759  0.2531  0.0918
  149HK4    C4112507   3.900   8.217   5.791  0.0185  0.0035  0.1447
  149HK4    H2112508   3.914   8.234   5.683  0.2285 -0.8760  0.0357
  149HK4    C4212509   3.993   8.154   5.872  0.2731 -0.1347 -0.2548
  149HK4    H2212510   4.089   8.135   5.822 -0.2981 -1.5338 -0.8523
  149HK4    C4312511   3.971   8.126   6.006  0.2616  0.2652 -0.1744
  149HK4    H2312512   4.042   8.070   6.066  1.2457  0.7410 -0.8880
  149HK4    C4412513   3.848   8.158   6.064  0.1822 -0.5369  0.1155
  149HK4    H2412514   3.826   8.160   6.172 -0.1095  1.6306  0.0476
  149HK4    C4512515   3.756   8.227   5.986  0.5421 -0.0794  0.0959
  149HK4    H2512516   3.657   8.252   6.027  1.4491 -1.1686  3.0430
  150HK4    H2812517   8.737   5.381   3.037  0.8352 -1.0930  1.0158
  150HK4    C4812518   8.738   5.308   2.956  0.1827  0.1041 -0.0786
  150HK4    C4712519   8.622   5.273   2.887  0.5222  0.0258 -0.6089
  150HK4    H2712520   8.526   5.322   2.905  0.1892 -1.0153  0.4882
  150HK4    C4612521   8.626   5.167   2.798  0.1330 -0.2467 -0.3007
  150HK4    H2612522   8.556   5.170   2.713 -0.0321 -2.1763 -0.2562
  150HK4    C4012523   8.746   5.096   2.774  0.2974  0.0381 -0.3233
  150HK4    C5012524   8.865   5.135   2.837  0.4993 -0.0303 -0.6607
  150HK4    H3012525   8.960   5.081   2.818  0.3975 -0.7203  0.7743
  150HK4    C4912526   8.854   5.238   2.930 -0.2119 -0.4938 -0.2328
  150HK4    H2912527   8.939   5.260   2.997 -1.2946  2.5101  0.2014
  150HK4     N212528   8.742   4.977   2.700 -0.0450 -0.0793 -0.1151
  150HK4    C3012529   8.631   4.890   2.690  0.0830 -0.2290 -0.2644
  150HK4    C2912530   8.515   4.878   2.766  0.0175 -0.3428 -0.3824
  150HK4    H1512531   8.516   4.930   2.862  0.2370 -3.1441  1.1842
  150HK4    C2812532   8.417   4.782   2.748 -0.1763 -0.2496  0.1765
  150HK4    C2712533   8.443   4.693   2.643  0.2088 -0.1938  0.2252
  150HK4    H1412534   8.363   4.621   2.621 -0.3790 -0.0150  1.7221
  150HK4    C3212535   8.555   4.701   2.560  0.1555 -0.0820  0.1655
  150HK4    H1612536   8.569   4.630   2.479  1.5544  1.5942 -1.0942
  150HK4    C3112537   8.650   4.801   2.578  0.3143 -0.1534 -0.2869
  150HK4    C3412538   8.769   4.846   2.508  0.1392  0.3692 -0.2483
  150HK4    C3312539   8.828   4.948   2.592  0.1901  0.1152  0.0218
  150HK4    C3512540   8.951   5.002   2.558 -0.1116  0.4884 -0.5129
  150HK4    H1712541   8.991   5.092   2.604  0.7530  0.5638 -1.3893
  150HK4    C3612542   9.013   4.945   2.448 -0.1626 -0.7015  0.0673
  150HK4    H1812543   9.101   4.999   2.410 -0.0180  0.3439  1.8787
  150HK4    C3712544   8.960   4.849   2.361  0.4070 -0.5652 -0.4276
  150HK4    H1912545   9.005   4.819   2.266  1.3498 -0.4699 -0.0229
  150HK4    C3812546   8.835   4.799   2.395  0.1007  0.3091 -0.2447
  150HK4    H2012547   8.795   4.712   2.344 -1.5528  0.6789  0.4039
  150HK4    C1412548   8.311   4.774   2.851 -0.6671  0.0384 -0.3026
  150HK4     C912549   8.252   4.653   2.891 -0.2245 -0.1078 -0.0924
  150HK4     C812550   8.124   4.666   2.947 -0.1415 -0.3784  0.1652
  150HK4    C1112551   8.065   4.792   2.962  0.3283 -0.1675  0.2592
  150HK4     H412552   7.959   4.803   2.988  0.0714  2.1110 -1.5856
  150HK4    C1212553   8.127   4.914   2.937 -0.1330  0.0974  0.4097
  150HK4     H512554   8.086   5.009   2.972 -0.7570  0.6809 -1.8272
  150HK4    C1312555   8.250   4.898   2.875 -0.2718  0.1509  0.1152
  150HK4     H612556   8.300   4.983   2.827 -0.8571  0.9293  0.8620
  150HK4     C712557   8.061   4.548   3.011 -0.2238 -0.5903 -0.3093
  150HK4     O212558   7.938   4.551   3.019 -0.2270  0.5572 -0.5771
  150HK4     C412559   8.137   4.422   3.022  0.2083 -0.2404  0.8522
  150HK4     C312560   8.084   4.319   3.100 -0.0991 -0.5520  0.2442
  150HK4     H312561   8.005   4.339   3.174  0.7972  3.2792  0.2758
  150HK4     C212562   8.138   4.191   3.092 -0.2411 -0.6091  0.2000
  150HK4     H212563   8.100   4.109   3.155  2.5122 -2.4903 -0.4984
  150HK4     C112564   8.237   4.166   2.998  0.1091  0.3218  0.3191
  150HK4     H112565   8.266   4.061   2.987 -1.1505  0.2673 -2.9715
  150HK4     C612566   8.284   4.269   2.914 -0.7156  0.2189 -0.2735
  150HK4     C512567   8.246   4.402   2.936 -0.3896  0.2719 -0.0276
  150HK4    C1012568   8.324   4.523   2.894  0.1191  0.0881  0.3839
  150HK4     O112569   8.445   4.523   2.913  0.2592 -0.2990 -0.4760
  150HK4    C1612570   8.374   4.222   2.808 -0.1277  0.4879  0.1082
  150HK4    C1512571   8.399   4.297   2.691 -0.0909  0.0378 -0.1752
  150HK4     H712572   8.323   4.371   2.661  0.8299  2.5335  3.2773
  150HK4    C2012573   8.491   4.257   2.595 -0.2433 -0.6393 -0.0385
  150HK4     H912574   8.533   4.326   2.522 -0.3621 -2.2859 -1.7182
  150HK4    C1912575   8.556   4.134   2.606  0.3870 -0.2635  0.4444
  150HK4    C1812576   8.525   4.053   2.722 -0.1349 -0.0425  0.4609
  150HK4    C1712577   8.440   4.101   2.821  0.3412  0.7813  0.4726
  150HK4     H812578   8.471   4.056   2.916  0.4887 -0.6281 -0.2270
  150HK4     N112579   8.579   3.923   2.718 -0.1258 -0.0270 -0.0128
  150HK4    C2112580   8.659   3.924   2.603 -0.1051 -0.1414 -0.0008
  150HK4    C2212581   8.653   4.052   2.536  0.9107  0.2257  0.5906
  150HK4    C2612582   8.714   4.069   2.412  0.6725 -0.3634  0.3887
  150HK4    H1312583   8.706   4.166   2.363 -0.9960 -0.1330  1.0718
  150HK4    C2512584   8.800   3.976   2.355 -0.0647 -0.6552 -0.2542
  150HK4    H1212585   8.873   4.015   2.283  0.3530  0.1672  0.5842
  150HK4    C2412586   8.809   3.856   2.423  0.2888 -0.4392  0.0888
  150HK4    H1112587   8.873   3.773   2.389 -0.2253 -1.3971  1.3960
  150HK4    C2312588   8.737   3.828   2.539 -0.0360 -0.0709 -0.0229
  150HK4    H1012589   8.740   3.728   2.583 -1.0786  0.6946  1.8331
  150HK4    C3912590   8.525   3.809   2.781 -0.4418  0.1792  0.0867
  150HK4    C4112591   8.396   3.812   2.837 -0.3785  0.3076  0.2335
  150HK4    H2112592   8.322   3.882   2.795  0.4505  0.9104 -0.2413
  150HK4    C4212593   8.353   3.719   2.930  0.0569 -0.5733 -0.4427
  150HK4    H2212594   8.252   3.720   2.974 -0.5827  2.7165 -1.8621
  150HK4    C4312595   8.435   3.613   2.966  0.3833 -0.1404  0.0864
  150HK4    H2312596   8.401   3.529   3.028  0.0015  0.5449  0.8160
  150HK4    C4412597   8.560   3.603   2.905  0.2355 -0.6061 -0.1426
  150HK4    H2412598   8.623   3.513   2.908  0.1165 -0.6769  0.2416
  150HK4    C4512599   8.607   3.701   2.819 -0.5658  0.1584  0.2866
  150HK4    H2512600   8.711   3.719   2.787  0.2636 -0.5722  2.4414
  151HK4    H2812601   4.345   8.257   7.718 -0.4944 -1.1607 -0.2341
  151HK4    C4812602   4.260   8.305   7.767  0.0081 -0.0406 -0.4653
  151HK4    C4712603   4.148   8.228   7.794 -0.2852  0.2984 -0.7037
  151HK4    H2712604   4.141   8.131   7.742  1.9823  0.0010 -0.4964
  151HK4    C4612605   4.038   8.290   7.852 -0.0337 -0.2272  0.3530
  151HK4    H2612606   3.949   8.237   7.889 -0.4350  0.7789  0.8467
  151HK4    C4012607   4.031   8.430   7.866  0.2102 -0.1665 -0.1472
  151HK4    C5012608   4.146   8.507   7.838  0.1021  0.1386  0.2287
  151HK4    H3012609   4.147   8.617   7.839  1.8477  0.1416  1.6020
  151HK4    C4912610   4.260   8.443   7.788 -0.3140 -0.0360 -0.5030
  151HK4    H2912611   4.332   8.508   7.737 -0.2501  0.7187  0.5287
  151HK4     N212612   3.906   8.492   7.873  0.3037  0.0089  0.0020
  151HK4    C3012613   3.788   8.440   7.817  0.1040 -0.1926  0.6077
  151HK4    C2912614   3.764   8.340   7.724  0.2497  0.3443 -0.0095
  151HK4    H1512615   3.849   8.311   7.662  1.5304 -1.5155  2.5246
  151HK4    C2812616   3.637   8.296   7.688  0.1463  0.6080  0.0418
  151HK4    C2712617   3.527   8.355   7.754 -0.3408  0.2998 -0.4926
  151HK4    H1412618   3.427   8.320   7.725  0.2411  0.6599 -3.0742
  151HK4    C3212619   3.545   8.458   7.846  0.0151 -0.1269 -0.0761
  151HK4    H1612620   3.452   8.508   7.870 -0.8705 -1.1917 -1.1794
  151HK4    C3112621   3.672   8.506   7.875 -0.0798  0.2265 -0.2364
  151HK4    C3412622   3.720   8.603   7.972 -0.2107 -0.1867  0.2453
  151HK4    C3312623   3.864   8.595   7.960 -0.2592  0.4165 -0.7571
  151HK4    C3512624   3.940   8.681   8.038 -0.1423 -0.0954 -0.3067
  151HK4    H1712625   4.047   8.666   8.052 -0.3005 -1.4394 -0.5142
  151HK4    C3612626   3.871   8.775   8.114 -0.0625 -0.7911  0.6452
  151HK4    H1812627   3.929   8.852   8.167 -0.7276  0.5337 -0.4883
  151HK4    C3712628   3.733   8.785   8.128 -0.1080 -0.0869 -0.2191
  151HK4    H1912629   3.685   8.871   8.174 -0.7780 -0.1073 -0.8568
  151HK4    C3812630   3.657   8.691   8.058 -0.3445 -0.1069  0.0619
  151HK4    H2012631   3.549   8.684   8.073 -0.3729 -0.4321 -0.3046
  151HK4    C1412632   3.612   8.223   7.563 -0.1057  0.1625  0.3546
  151HK4     C912633   3.503   8.249   7.479  0.4911 -0.2665 -0.5617
  151HK4     C812634   3.431   8.144   7.420 -0.4209 -0.1552  0.3395
  151HK4    C1112635   3.474   8.014   7.440 -0.3021 -0.1025  0.4294
  151HK4     H412636   3.423   7.940   7.376  1.2834  0.8043 -1.9370
  151HK4    C1212637   3.592   7.983   7.507 -0.0728 -0.0205  0.0660
  151HK4     H512638   3.639   7.890   7.473 -0.8593  0.2580 -1.8126
  151HK4    C1312639   3.658   8.089   7.567 -0.3387  0.0737  0.1940
  151HK4     H612640   3.732   8.068   7.645  0.3996  1.5551 -0.0698
  151HK4     C712641   3.319   8.175   7.328 -0.1769 -0.0677  0.0684
  151HK4     O212642   3.259   8.080   7.276 -0.4321 -0.2089  0.6233
  151HK4     C412643   3.286   8.315   7.294 -0.3653 -0.0983  0.1317
  151HK4     C312644   3.166   8.345   7.230 -0.2744 -0.3034 -0.1394
  151HK4     H312645   3.066   8.308   7.260  0.3306  0.7732  3.4531
  151HK4     C212646   3.168   8.448   7.137 -0.2382 -0.1134  0.0680
  151HK4     H212647   3.083   8.466   7.070  0.0163  3.7218  0.6544
  151HK4     C112648   3.283   8.526   7.122 -0.0802 -0.4322 -0.4056
  151HK4     H112649   3.279   8.591   7.033  1.9607  0.0733 -0.1478
  151HK4     C612650   3.394   8.506   7.205 -0.4643  0.1471  0.2503
  151HK4     C512651   3.393   8.405   7.303 -0.3228 -0.1308 -0.0353
  151HK4    C1012652   3.488   8.383   7.415 -0.5455 -0.0205  0.1740
  151HK4     O112653   3.530   8.488   7.464 -0.0576  0.1483 -0.5985
  151HK4    C1612654   3.509   8.593   7.177 -0.1917 -0.3478 -0.1616
  151HK4    C1512655   3.502   8.713   7.104  0.0452 -0.0959  0.2250
  151HK4     H712656   3.411   8.773   7.087 -0.0138 -0.1233  0.4388
  151HK4    C2012657   3.610   8.776   7.044 -0.2380 -0.2510 -0.4658
  151HK4     H912658   3.603   8.883   7.023 -1.3085 -0.6623 -2.2387
  151HK4    C1912659   3.736   8.716   7.044 -0.2140 -0.2055 -0.1761
  151HK4    C1812660   3.748   8.592   7.118  0.1454 -0.1264 -0.1052
  151HK4    C1712661   3.636   8.536   7.178  0.0995  0.3083  0.2154
  151HK4     H812662   3.648   8.433   7.212  1.6070 -0.6987 -3.2229
  151HK4     N112663   3.882   8.547   7.118  0.0490 -0.4209 -0.4720
  151HK4    C2112664   3.951   8.633   7.030 -0.2437  0.1660 -0.1335
  151HK4    C2212665   3.865   8.740   6.983 -0.3369 -0.0073 -0.3592
  151HK4    C2612666   3.901   8.800   6.863  0.1125  0.5274  0.0366
  151HK4    H1312667   3.847   8.889   6.831 -0.1891  1.4720  2.9988
  151HK4    C2512668   4.011   8.753   6.792  0.0564  0.2904  0.1085
  151HK4    H1212669   4.044   8.813   6.707 -1.0302  1.4168  0.4585
  151HK4    C2412670   4.093   8.649   6.834  0.3529  0.4651 -0.0384
  151HK4    H1112671   4.152   8.599   6.756  1.9235  2.3545 -0.0901
  151HK4    C2312672   4.059   8.589   6.955 -0.1376  0.4814 -0.1671
  151HK4    H1012673   4.117   8.502   6.985 -2.9941 -0.6891  2.1711
  151HK4    C3912674   3.942   8.482   7.227  0.1645  0.2582 -0.1278
  151HK4    C4112675   4.062   8.414   7.199  0.0857 -0.0304  0.2302
  151HK4    H2112676   4.068   8.337   7.121  1.3929 -0.5903  0.8690
  151HK4    C4212677   4.171   8.415   7.286  0.4752 -0.0134 -0.2523
  151HK4    H2212678   4.262   8.358   7.262  0.3225 -0.6468  0.6364
  151HK4    C4312679   4.162   8.471   7.413  0.2417 -0.0981 -0.2320
  151HK4    H2312680   4.254   8.483   7.471  0.3716  0.2423 -0.5070
  151HK4    C4412681   4.040   8.525   7.452  0.5798  0.9307 -0.5687
  151HK4    H2412682   4.030   8.563   7.555  0.2741  0.7124 -0.5150
  151HK4    C4512683   3.935   8.526   7.361  0.2343  0.4524 -0.1886
  151HK4    H2512684   3.836   8.557   7.398  0.0320 -1.0542  0.5444
  152HK4    H2812685   7.462   5.333   4.610  0.1322  0.1184 -1.7420
  152HK4    C4812686   7.366   5.280   4.616 -0.0122  0.4935 -0.5497
  152HK4    C4712687   7.355   5.170   4.700 -0.3140  0.5713 -0.4889
  152HK4    H2712688   7.449   5.117   4.723  0.0014  2.4043  2.8012
  152HK4    C4612689   7.239   5.093   4.699 -0.0356  0.1379  0.0546
  152HK4    H2612690   7.228   5.014   4.774 -1.0426 -0.0335 -0.2741
  152HK4    C4012691   7.135   5.124   4.609  0.0287  0.2221  0.0087
  152HK4    C5012692   7.145   5.241   4.530 -0.0762  0.1059 -0.1794
  152HK4    H3012693   7.070   5.262   4.453 -0.9475 -2.0130  0.0553
  152HK4    C4912694   7.261   5.318   4.534 -0.2321  0.3486 -0.3343
  152HK4    H2912695   7.257   5.418   4.489 -3.9657  0.6786  0.5262
  152HK4     N212696   7.049   5.025   4.559  0.2411  0.0061  0.0697
  152HK4    C3012697   7.087   4.892   4.533  0.3951  0.0811 -0.0902
  152HK4    C2912698   7.203   4.827   4.495  0.4116  0.2009 -0.2459
  152HK4    H1512699   7.295   4.884   4.511  0.2414  0.1399  0.9443
  152HK4    C2812700   7.203   4.700   4.439  0.0146 -0.0381  0.2959
  152HK4    C2712701   7.080   4.634   4.416 -0.2895  0.7123 -0.2541
  152HK4    H1412702   7.075   4.531   4.377  2.3461  0.6181 -0.4403
  152HK4    C3212703   6.961   4.696   4.450 -0.4337  0.0417  0.4768
  152HK4    H1612704   6.865   4.648   4.428  0.0821 -1.1282  0.7524
  152HK4    C3112705   6.962   4.821   4.510  0.2853  0.1997  0.1417
  152HK4    C3412706   6.856   4.920   4.516  0.0451 -0.0436 -0.1241
  152HK4    C3312707   6.910   5.050   4.552  0.1880 -0.2211  0.2990
  152HK4    C3512708   6.829   5.162   4.564 -0.0510 -0.3451 -0.1535
  152HK4    H1712709   6.878   5.260   4.566  2.1051 -1.4064  2.2934
  152HK4    C3612710   6.695   5.148   4.531 -0.0980  0.1575 -0.1826
  152HK4    H1812711   6.631   5.238   4.533 -1.5870 -0.9027  1.5277
  152HK4    C3712712   6.637   5.025   4.502 -0.3620  0.2323  0.0273
  152HK4    H1912713   6.536   5.018   4.461 -0.8427  2.0047  0.8588
  152HK4    C3812714   6.720   4.915   4.488 -0.1524  0.2953  0.7749
  152HK4    H2012715   6.682   4.816   4.461  0.0371  0.8990 -1.8146
  152HK4    C1412716   7.324   4.651   4.371 -0.2443  0.0274 -0.2152
  152HK4     C912717   7.322   4.568   4.258 -0.1538 -0.6158  0.2558
  152HK4     C812718   7.413   4.461   4.243  0.3891 -0.1123 -0.0475
  152HK4    C1112719   7.516   4.456   4.335  0.0384 -0.5437  0.3290
  152HK4     H412720   7.599   4.389   4.308  0.2412 -0.7057  1.3374
  152HK4    C1212721   7.526   4.542   4.444 -0.2235  0.0347 -0.1004
  152HK4     H512722   7.620   4.539   4.501  0.2615 -1.2182 -0.9356
  152HK4    C1312723   7.432   4.643   4.460 -0.3647 -0.1007 -0.0789
  152HK4     H612724   7.435   4.695   4.558  2.6971 -3.1890  1.5765
  152HK4     C712725   7.391   4.363   4.134  0.0319 -0.3484  0.2359
  152HK4     O212726   7.462   4.263   4.134  0.2245 -0.2122 -0.2004
  152HK4     C412727   7.279   4.374   4.038 -0.2335 -0.6326  0.5124
  152HK4     C312728   7.256   4.278   3.940  0.0844 -0.9999  0.7966
  152HK4     H312729   7.327   4.204   3.902 -1.1569 -1.3669 -0.8341
  152HK4     C212730   7.132   4.276   3.878  0.2339  0.3278  0.4312
  152HK4     H212731   7.111   4.197   3.804 -0.3682  0.1588  0.7734
  152HK4     C112732   7.033   4.366   3.915  0.0348  0.1465  0.3430
  152HK4     H112733   6.938   4.364   3.859  0.9664  2.3762 -1.3883
  152HK4     C612734   7.062   4.476   3.998 -0.0379 -0.3577  1.0429
  152HK4     C512735   7.190   4.483   4.054  0.6584  0.2670 -0.5970
  152HK4    C1012736   7.230   4.595   4.144  0.5527 -0.0297 -0.1834
  152HK4     O112737   7.242   4.701   4.084 -0.1346 -0.0555 -0.3759
  152HK4    C1612738   6.947   4.558   4.039 -0.0560 -0.0334  0.3513
  152HK4    C1512739   6.824   4.491   4.056  0.2651 -0.6779  0.1365
  152HK4     H712740   6.821   4.381   4.063  3.2494 -0.8396 -0.6146
  152HK4    C2012741   6.712   4.563   4.098  0.2103 -0.3290 -0.6047
  152HK4     H912742   6.627   4.499   4.120 -1.1872  1.0379 -1.9850
  152HK4    C1912743   6.719   4.701   4.100  0.0815 -0.3357  0.2489
  152HK4    C1812744   6.838   4.774   4.062 -0.1901  0.1165  0.2646
  152HK4    C1712745   6.951   4.697   4.038 -0.3199 -0.0252  0.1188
  152HK4     H812746   7.028   4.763   4.000  0.1426 -1.7229 -1.9284
  152HK4     N112747   6.821   4.914   4.057 -0.3098  0.0775 -0.4681
  152HK4    C2112748   6.687   4.931   4.100  0.0007 -0.0421  0.5494
  152HK4    C2212749   6.622   4.805   4.130  0.4312 -0.1892  0.8876
  152HK4    C2612750   6.490   4.794   4.174 -0.0007  0.1908 -0.2829
  152HK4    H1312751   6.438   4.698   4.175 -2.1261  1.3191  1.0092
  152HK4    C2512752   6.417   4.910   4.194  0.0146  0.0305  0.7273
  152HK4    H1212753   6.317   4.908   4.238  0.5448 -2.9853  1.9365
  152HK4    C2412754   6.475   5.031   4.159 -0.0747 -0.0914  0.1522
  152HK4    H1112755   6.411   5.118   4.181 -1.5394 -1.0777 -0.1312
  152HK4    C2312756   6.605   5.043   4.112 -0.0146 -0.0301  0.3306
  152HK4    H1012757   6.646   5.142   4.091  1.0454 -0.4705  0.2726
  152HK4    C3912758   6.925   5.007   4.063 -0.4454  0.1849  0.2755
  152HK4    C4112759   6.902   5.140   4.022  0.0115  0.1455 -0.1060
  152HK4    H2112760   6.835   5.166   3.939 -1.9576 -2.2591  0.6830
  152HK4    C4212761   6.980   5.247   4.065 -0.2931  0.3918 -0.1685
  152HK4    H2212762   6.969   5.344   4.015 -2.7452  0.1860 -0.0728
  152HK4    C4312763   7.089   5.220   4.147 -0.3589  0.0146 -0.2052
  152HK4    H2312764   7.150   5.303   4.181 -0.3538  0.1289 -0.4932
  152HK4    C4412765   7.118   5.089   4.184 -0.2000  0.1050 -0.0066
  152HK4    H2412766   7.223   5.069   4.212  0.9836  3.3700 -1.8432
  152HK4    C4512767   7.033   4.984   4.151 -0.3623  0.1801  0.1711
  152HK4    H2512768   7.039   4.889   4.206  1.0681 -1.4674 -2.7029
  153HK4    H2812769   6.018  10.470   4.230 -0.6543  0.4982  0.9672
  153HK4    C4812770   6.104  10.475   4.296 -0.0515 -0.0349  0.2365
  153HK4    C4712771   6.230  10.446   4.247 -0.0614  0.1057  0.1278
  153HK4    H2712772   6.230  10.426   4.139 -1.2864  0.9312 -0.0238
  153HK4    C4612773   6.348  10.461   4.320 -0.0150  0.8410 -0.0892
  153HK4    H2612774   6.447  10.436   4.279 -0.5326  0.2544 -1.0001
  153HK4    C4012775   6.344  10.507   4.453 -0.2766  0.3467  0.0777
  153HK4    C5012776   6.215  10.535   4.504 -0.3924 -0.1000  0.0261
  153HK4    H3012777   6.199  10.588   4.599  1.2847 -0.8319  0.7488
  153HK4    C4912778   6.099  10.515   4.429 -0.5296 -0.0312  0.2192
  153HK4    H2912779   6.001  10.522   4.478 -0.2753  1.4490  0.5685
  153HK4     N212780   6.455  10.549   4.528 -0.1789 -0.0122  0.1320
  153HK4    C3012781   6.579  10.593   4.478 -0.1113 -0.2479  0.0941
  153HK4    C2912782   6.617  10.622   4.347  0.0204 -0.2691  0.1271
  153HK4    H1512783   6.539  10.644   4.274 -0.5988  0.2007  0.9137
  153HK4    C2812784   6.749  10.638   4.307 -0.0929  0.3116 -0.0260
  153HK4    C2712785   6.841  10.641   4.413 -0.2289  0.1285  0.0973
  153HK4    H1412786   6.944  10.676   4.394 -0.4555  1.1076  0.6482
  153HK4    C3212787   6.806  10.621   4.546 -0.1918 -0.1206  0.0712
  153HK4    H1612788   6.884  10.637   4.621  0.2154  1.7708 -0.7436
  153HK4    C3112789   6.678  10.580   4.583  0.1024 -1.3441 -0.2322
  153HK4    C3412790   6.607  10.540   4.703 -0.2567  0.2313  0.1006
  153HK4    C3312791   6.469  10.517   4.665 -0.0164 -0.9596 -0.0980
  153HK4    C3512792   6.393  10.440   4.751  0.1018 -0.6923  0.2456
  153HK4    H1712793   6.305  10.388   4.712 -1.0626 -0.7095  2.7937
  153HK4    C3612794   6.453  10.390   4.867  0.6659 -0.1207  0.1994
  153HK4    H1812795   6.399  10.329   4.941 -0.5730 -0.1661 -0.7134
  153HK4    C3712796   6.584  10.414   4.905  0.4195  0.2288  0.8295
  153HK4    H1912797   6.623  10.384   5.003 -0.8365  0.2906  1.3577
  153HK4    C3812798   6.663  10.490   4.820 -0.1360 -0.3218 -0.1896
  153HK4    H2012799   6.767  10.506   4.851 -0.0264  0.5906 -0.9903
  153HK4    C1412800   6.787  10.595   4.171 -0.1132  0.1102  0.0316
  153HK4     C912801   6.893  10.511   4.136 -0.1746  0.0576 -0.0322
  153HK4     C812802   6.952  10.524   4.008 -0.0406  0.0010  0.0243
  153HK4    C1112803   6.897  10.600   3.906  0.0870  0.2034  0.1062
  153HK4     H412804   6.946  10.628   3.811  1.3942 -0.6751  0.5065
  153HK4    C1212805   6.779  10.667   3.935  0.1253  0.5246 -0.4682
  153HK4     H512806   6.734  10.737   3.863  0.2091  1.3210  0.2453
  153HK4    C1312807   6.729  10.667   4.064  0.0051 -0.6002 -0.5113
  153HK4     H612808   6.630  10.712   4.082 -0.2597  0.1491 -3.6452
  153HK4     C712809   7.082  10.458   3.981  0.0013 -0.1423  0.5702
  153HK4     O212810   7.135  10.467   3.871  0.4643  0.1456  0.8106
  153HK4     C412811   7.136  10.368   4.086 -0.3422 -0.5577  0.3877
  153HK4     C312812   7.264  10.315   4.073 -0.5786 -0.9828 -0.2175
  153HK4     H312813   7.304  10.303   3.971  2.3165  0.6494  0.6730
  153HK4     C212814   7.345  10.258   4.170  0.1501 -0.3779 -0.4710
  153HK4     H212815   7.448  10.227   4.146  0.8502  1.0880  0.5006
  153HK4     C112816   7.289  10.252   4.297  0.0769 -0.0672 -0.4863
  153HK4     H112817   7.355  10.240   4.384  1.2982  2.6444 -0.9916
  153HK4     C612818   7.160  10.303   4.321  0.4280  0.5008  0.2308
  153HK4     C512819   7.083  10.355   4.216 -0.1779  0.2303  0.5363
  153HK4    C1012820   6.945  10.408   4.230 -0.1160  0.4433  0.3540
  153HK4     O112821   6.865  10.336   4.289 -0.1362  0.1887  0.0181
  153HK4    C1612822   7.125  10.355   4.454 -0.5362 -0.0180  0.1876
  153HK4    C1512823   7.210  10.431   4.536 -0.4158 -0.1898  0.2259
  153HK4     H712824   7.272  10.509   4.488  0.5312  0.1464  1.9340
  153HK4    C2012825   7.202  10.438   4.675  0.2779 -0.2046  0.2712
  153HK4     H912826   7.289  10.469   4.732 -1.3926  1.6365  1.8979
  153HK4    C1912827   7.100  10.367   4.737  0.5858 -0.1278  0.8609
  153HK4    C1812828   7.015  10.281   4.657  0.8845  0.0084  0.3971
  153HK4    C1712829   7.034  10.274   4.520 -0.8203  0.2664  0.1416
  153HK4     H812830   6.993  10.186   4.469  1.8929  0.6382 -2.7921
  153HK4     N112831   6.915  10.213   4.731  0.4132  0.0375 -0.2132
  153HK4    C2112832   6.941  10.264   4.860 -0.3026 -0.2552  0.0475
  153HK4    C2212833   7.059  10.347   4.875 -0.2140 -0.4790  0.5733
  153HK4    C2612834   7.086  10.408   4.997  0.8707  0.2082 -0.0091
  153HK4    H1312835   7.185  10.454   4.997  0.9687  0.0360 -1.6561
  153HK4    C2512836   7.007  10.392   5.110  0.5320 -0.1583 -0.2967
  153HK4    H1212837   7.031  10.437   5.206 -2.7059 -0.5494  0.7630
  153HK4    C2412838   6.898  10.306   5.099  0.3394  0.0079  0.3030
  153HK4    H1112839   6.860  10.256   5.189  1.8330  0.1865  1.0548
  153HK4    C2312840   6.871  10.244   4.978  0.6466 -0.6172  0.5526
  153HK4    H1012841   6.793  10.168   4.972  1.0114 -0.8580 -1.6697
  153HK4    C3912842   6.797  10.156   4.682  0.2382  0.1612  0.0645
  153HK4    C4112843   6.736  10.043   4.739 -0.0372  0.3091  0.0628
  153HK4    H2112844   6.781   9.993   4.826 -3.3677 -2.6792  0.2136
  153HK4    C4212845   6.619   9.984   4.693 -0.5716  0.5490  1.1086
  153HK4    H2212846   6.574   9.900   4.749 -0.3628 -0.6945 -0.5732
  153HK4    C4312847   6.564  10.031   4.575  0.5290  0.1132  0.4156
  153HK4    H2312848   6.477   9.979   4.535 -0.0681  2.1940 -1.0700
  153HK4    C4412849   6.621  10.144   4.516 -0.2490 -0.0048 -0.5794
  153HK4    H2412850   6.579  10.183   4.423  1.1018  0.1662 -1.1212
  153HK4    C4512851   6.728  10.212   4.572 -0.5318 -0.2860  0.3166
  153HK4    H2512852   6.753  10.315   4.544 -1.0128  0.0415  1.0760
  154HK4    H2812853   4.117   7.509  10.825  0.1061 -1.2160  0.1413
  154HK4    C4812854   4.081   7.501  10.928 -0.2531  0.1480  0.1376
  154HK4    C4712855   3.949   7.539  10.947 -0.2903 -0.0419  0.2542
  154HK4    H2712856   3.903   7.606  10.872  1.7869  0.3605 -0.6877
  154HK4    C4612857   3.880   7.516  11.065 -0.1175  0.1465  0.3950
  154HK4    H2612858   3.770   7.515  11.061 -0.0985  1.7990 -1.3508
  154HK4    C4012859   3.938   7.453  11.178  0.0761 -0.3282  0.0310
  154HK4    C5012860   4.074   7.424  11.155  0.0055 -0.5918 -0.0421
  154HK4    H3012861   4.134   7.366  11.227  0.5422  2.0887  1.7531
  154HK4    C4912862   4.145   7.444  11.037 -0.1144  0.0049 -0.0162
  154HK4    H2912863   4.249   7.410  11.030 -0.1925 -0.3031  0.2759
  154HK4     N212864   3.894   7.465   0.062  0.1591 -0.0398  0.0344
  154HK4    C3012865   3.817   7.565   0.124  0.1280 -0.1115  0.1124
  154HK4    C2912866   3.774   7.693   0.090 -0.5122 -0.4775 -0.4858
  154HK4    H1512867   3.797   7.728  11.238  2.7089 -1.7980 -0.2660
  154HK4    C2812868   3.702   7.781   0.170  1.2699  0.1392  0.4724
  154HK4    C2712869   3.671   7.735   0.299  0.3163  0.1941  0.2705
  154HK4    H1412870   3.593   7.792   0.351 -0.8762 -0.9458 -0.2382
  154HK4    C3212871   3.704   7.607   0.345 -0.4936 -0.1805 -0.1873
  154HK4    H1612872   3.705   7.584   0.451 -0.6921 -2.2806 -0.6253
  154HK4    C3112873   3.772   7.525   0.256  0.4398  0.0815  0.2779
  154HK4    C3412874   3.826   7.392   0.276  0.4682  0.0612  0.0762
  154HK4    C3312875   3.888   7.355   0.151 -0.6150 -0.3096 -0.3511
  154HK4    C3512876   3.955   7.233   0.146 -0.8352 -0.4290 -0.4549
  154HK4    H1712877   3.977   7.187   0.050 -1.5655 -3.5623  0.8340
  154HK4    C3612878   3.972   7.168   0.267  0.0089  0.3537 -0.1459
  154HK4    H1812879   4.034   7.078   0.268 -0.2484  0.1545 -1.9402
  154HK4    C3712880   3.908   7.199   0.387 -0.2062 -0.3462 -0.0817
  154HK4    H1912881   3.924   7.144   0.480  0.3358 -0.0530 -0.0039
  154HK4    C3812882   3.827   7.312   0.390  0.4557  0.1240  0.1214
  154HK4    H2012883   3.785   7.344   0.485 -1.9045 -0.1245 -0.8000
  154HK4    C1412884   3.696   7.925   0.139 -0.5284 -0.0237  0.0263
  154HK4     C912885   3.702   8.025   0.237  0.1086  0.4060 -0.4521
  154HK4     C812886   3.650   8.152   0.205  0.5386  0.5677 -0.5004
  154HK4    C1112887   3.613   8.174   0.073 -0.3776 -0.4008 -0.4091
  154HK4     H412888   3.564   8.270   0.050  0.2138 -0.0862 -0.3671
  154HK4    C1212889   3.613   8.079  11.220 -0.5274 -0.2035 -0.5960
  154HK4     H512890   3.593   8.110  11.116 -1.8360  0.6205 -0.1083
  154HK4    C1312891   3.658   7.952   0.006 -0.0091  0.1132 -0.0913
  154HK4     H612892   3.681   7.882  11.172  0.3056  0.2237 -0.1022
  154HK4     C712893   3.641   8.251   0.315 -0.1618  0.0194 -0.0638
  154HK4     O212894   3.569   8.349   0.296 -0.5687 -0.3760 -0.6103
  154HK4     C412895   3.694   8.221   0.450  0.0333 -0.1806 -0.1863
  154HK4     C312896   3.677   8.311   0.554 -0.3159 -0.4474 -0.0135
  154HK4     H312897   3.593   8.381   0.551  0.1377  0.1499  1.0174
  154HK4     C212898   3.742   8.296   0.677 -0.2780 -0.2800 -0.0132
  154HK4     H212899   3.735   8.375   0.753  0.1611  0.2015 -0.4650
  154HK4     C112900   3.814   8.179   0.698 -0.4805 -0.3291  0.4089
  154HK4     H112901   3.864   8.164   0.795  2.3565  1.2743 -0.7373
  154HK4     C612902   3.825   8.078   0.599 -0.0862  0.1543 -0.0494
  154HK4     C512903   3.774   8.107   0.472  0.1492 -0.1023 -0.2008
  154HK4    C1012904   3.790   8.014   0.357  0.3097  0.4138 -0.5982
  154HK4     O112905   3.906   7.981   0.332  0.5044  0.1495  0.6393
  154HK4    C1612906   3.828   7.943   0.656 -0.4159 -0.0764 -0.5842
  154HK4    C1512907   3.768   7.916   0.780  0.0111  0.0574 -0.3468
  154HK4     H712908   3.700   7.986   0.831 -1.7572 -1.5747 -0.3946
  154HK4    C2012909   3.786   7.792   0.841  0.4780  0.3647  0.1488
  154HK4     H912910   3.718   7.760   0.920  1.3452  0.2246  0.8422
  154HK4    C1912911   3.868   7.694   0.785 -0.1711 -0.0416 -0.1048
  154HK4    C1812912   3.932   7.719   0.657  0.0903  0.2862  0.0893
  154HK4    C1712913   3.911   7.845   0.602 -0.1402  0.0438 -0.3789
  154HK4     H812914   3.987   7.873   0.528  0.3732  0.2314  0.2180
  154HK4     N112915   4.003   7.605   0.617  0.0409  0.1848  0.2882
  154HK4    C2112916   3.973   7.504   0.711  0.3426 -0.3182 -0.1475
  154HK4    C2212917   3.896   7.557   0.822 -0.8967 -0.4218 -0.9484
  154HK4    C2612918   3.863   7.474   0.929  0.2991  0.0602 -0.2005
  154HK4    H1312919   3.854   7.525   1.025  0.9787  0.0834 -0.1457
  154HK4    C2512920   3.891   7.338   0.923  0.0241  0.0149 -0.4579
  154HK4    H1212921   3.851   7.268   0.996 -0.8963 -0.3220 -1.2876
  154HK4    C2412922   3.966   7.286   0.819 -0.8544 -0.7418 -0.7194
  154HK4    H1112923   4.002   7.182   0.817 -0.7205 -0.8198  2.6724
  154HK4    C2312924   4.008   7.370   0.717  0.1886 -0.3528  0.0177
  154HK4    H1012925   4.050   7.323   0.628  0.3105  0.1235 -0.1798
  154HK4    C3912926   4.079   7.597   0.499 -0.2512 -0.2343  0.1258
  154HK4    C4112927   4.178   7.497   0.489  0.2420  0.2683 -0.0062
  154HK4    H2112928   4.210   7.443   0.579 -0.3542  0.0570  0.0824
  154HK4    C4212929   4.246   7.461   0.374 -0.3971 -0.4657 -0.1591
  154HK4    H2212930   4.325   7.385   0.374 -1.2931 -1.4050  0.2522
  154HK4    C4312931   4.220   7.537   0.260  0.3217  0.0682  0.0283
  154HK4    H2312932   4.234   7.486   0.164 -2.0601 -0.1850 -0.1998
  154HK4    C4412933   4.133   7.645   0.263  0.2868  0.0232  0.6467
  154HK4    H2412934   4.146   7.727   0.191 -0.0730  0.9175  1.5907
  154HK4    C4512935   4.058   7.666   0.378 -0.5636 -0.2741  0.1551
  154HK4    H2512936   3.974   7.736   0.366  0.1535  0.2585 -1.9596
  155HK4    H2812937   7.819   9.351   0.762  0.4396 -0.0149 -0.7571
  155HK4    C4812938   7.732   9.380   0.702  0.2661  0.2275 -0.3901
  155HK4    C4712939   7.600   9.352   0.735  0.3106  0.4556 -0.0058
  155HK4    H2712940   7.572   9.291   0.822 -2.3355  0.3689 -0.8552
  155HK4    C4612941   7.500   9.397   0.649 -0.0814 -0.1480  0.1323
  155HK4    H2612942   7.399   9.370   0.684  0.1137 -1.5167 -0.3254
  155HK4    C4012943   7.528   9.477   0.536  0.0242 -0.1492  0.1574
  155HK4    C5012944   7.662   9.500   0.500 -0.0530 -0.4289 -0.3214
  155HK4    H3012945   7.690   9.563   0.415 -0.1153 -1.0501 -0.8017
  155HK4    C4912946   7.760   9.448   0.584  0.3604  0.6563 -0.1200
  155HK4    H2912947   7.866   9.469   0.562  0.4865  1.0586  0.8217
  155HK4     N212948   7.429   9.523   0.448 -0.2510  0.2041  0.6481
  155HK4    C3012949   7.309   9.456   0.420 -0.0367 -0.0103  0.2452
  155HK4    C2912950   7.282   9.319   0.416  0.3147 -0.0839  0.4926
  155HK4    H1512951   7.336   9.251   0.482  2.3534  0.3244 -0.7049
  155HK4    C2812952   7.174   9.265   0.349  0.3806 -0.4031  0.6447
  155HK4    C2712953   7.095   9.362   0.284  0.8273 -0.4196  0.0635
  155HK4    H1412954   7.016   9.340   0.211 -0.4908 -1.8378  1.8673
  155HK4    C3212955   7.106   9.500   0.295  0.4050 -0.4013  0.2951
  155HK4    H1612956   7.053   9.561   0.221  2.2303 -0.1495 -0.8246
  155HK4    C3112957   7.215   9.551   0.364  0.2893  0.1921  0.0420
  155HK4    C3412958   7.282   9.680   0.364  0.1390  0.2707  0.1916
  155HK4    C3312959   7.414   9.661   0.421  0.1554  0.1467  0.1121
  155HK4    C3512960   7.486   9.771   0.463  0.0197  0.1460  0.3461
  155HK4    H1712961   7.593   9.769   0.484  0.7686  1.2988 -3.0320
  155HK4    C3612962   7.427   9.896   0.445 -0.2116 -0.0695 -0.3823
  155HK4    H1812963   7.475   9.992   0.469  0.8677 -0.7212  0.0926
  155HK4    C3712964   7.300   9.915   0.392  0.0087  0.2005 -0.8075
  155HK4    H1912965   7.251  10.013   0.393  1.7075  1.0616 -0.2231
  155HK4    C3812966   7.225   9.806   0.349 -0.0746  0.1067 -0.4211
  155HK4    H2012967   7.126   9.822   0.308 -0.1290 -0.9938 -0.7310
  155HK4    C1412968   7.165   9.122   0.315 -0.1058 -0.2228  0.0118
  155HK4     C912969   7.109   9.069   0.198 -0.1063 -0.1508 -0.0195
  155HK4     C812970   7.038   8.947   0.195 -1.2169  0.4780  0.2563
  155HK4    C1112971   7.044   8.867   0.308  0.1858 -0.1128 -0.2214
  155HK4     H412972   7.023   8.759   0.294  1.8249 -0.2374 -1.9569
  155HK4    C1212973   7.114   8.913   0.419 -0.2102  0.1849 -0.0932
  155HK4     H512974   7.105   8.856   0.513 -0.3791  2.3111  1.2106
  155HK4    C1312975   7.178   9.036   0.425 -0.0339  0.0777  0.2367
  155HK4     H612976   7.247   9.050   0.510 -0.8531  0.0752  0.9103
  155HK4     C712977   6.975   8.898   0.071 -0.3286  0.1967 -0.0918
  155HK4     O212978   6.897   8.803   0.074  0.5080 -0.4883 -0.1699
  155HK4     C412979   6.985   8.981  11.196  0.2383  0.0128 -0.1702
  155HK4     C312980   6.946   8.926  11.075 -0.2883 -0.5837  0.2677
  155HK4     H312981   6.902   8.826  11.062  1.7009 -1.6103  1.2667
  155HK4     C212982   6.964   8.993  10.954 -0.1820  0.2033  0.7202
  155HK4     H212983   6.945   8.942  10.858  0.4230  0.4073  0.4862
  155HK4     C112984   7.015   9.122  10.953  0.4111 -0.0286  0.2981
  155HK4     H112985   7.039   9.167  10.856 -2.2964  0.8517 -0.0049
  155HK4     C612986   7.041   9.187  11.076 -0.1149  0.2530  0.2609
  155HK4     C512987   7.044   9.109  11.191  0.1747  0.0509  0.1158
  155HK4    C1012988   7.123   9.138   0.066 -0.5922  0.8218  0.4305
  155HK4     O112989   7.241   9.166   0.044 -0.4197  0.4739  0.9043
  155HK4    C1612990   7.018   9.332  11.074  0.0720  0.2821  0.1556
  155HK4    C1512991   6.953   9.398  10.968  0.1764  0.1484  0.0103
  155HK4     H712992   6.863   9.341  10.938 -0.2205  0.9434 -0.3138
  155HK4    C2012993   6.963   9.531  10.930 -0.6408  0.1303 -0.2934
  155HK4     H912994   6.904   9.567  10.845 -2.0984 -0.6845  0.3686
  155HK4    C1912995   7.053   9.610  11.000 -0.9056  0.2184 -0.0504
  155HK4    C1812996   7.127   9.543  11.106 -0.4197  0.2113 -0.3939
  155HK4    C1712997   7.101   9.414  11.150  0.6839  0.0369 -0.2511
  155HK4     H812998   7.125   9.391   0.006 -2.2485  0.6741  0.6047
  155HK4     N112999   7.226   9.624  11.165 -0.2987 -0.1741 -0.0701
  155HK4    C2113000   7.209   9.747  11.099 -0.0093 -0.1185 -0.0435
  155HK4    C2213001   7.096   9.748  11.008 -0.0253 -0.0519 -0.0220
  155HK4    C2613002   7.059   9.863  10.939 -0.1166  0.0457  0.1924
  155HK4    H1313003   6.976   9.863  10.868  0.7598  0.3173 -0.8415
  155HK4    C2513004   7.140   9.975  10.951  0.2508 -0.2006  0.0279
  155HK4    H1213005   7.131  10.056  10.879 -1.4360  0.0094  0.4508
  155HK4    C2413006   7.256   9.975  11.027 -0.2698  0.8382  0.8333
  155HK4    H1113007   7.321  10.064  11.026  0.0794  0.5903  1.0863
  155HK4    C2313008   7.288   9.862  11.101  0.0210 -0.1245 -0.7200
  155HK4    H1013009   7.389   9.854  11.141 -0.8366  0.4457  1.7200
  155HK4    C3913010   7.349   9.583  11.218 -0.0897  0.0081 -0.4134
  155HK4    C4113011   7.414   9.668   0.062  0.1921 -0.0245 -0.5782
  155HK4    H2113012   7.354   9.753   0.098 -1.4250 -0.7652 -1.4791
  155HK4    C4213013   7.533   9.630   0.123 -0.2164  0.0603  0.2791
  155HK4    H2213014   7.589   9.694   0.193  0.7181  0.5603 -0.9028
  155HK4    C4313015   7.588   9.505   0.101  0.1606  0.3087 -0.1850
  155HK4    H2313016   7.685   9.485   0.147 -0.4764  1.8169  1.8724
  155HK4    C4413017   7.526   9.427   0.005  0.2239  0.5964 -0.4581
  155HK4    H2413018   7.552   9.320   0.016 -0.2974  0.3888 -1.1690
  155HK4    C4513019   7.414   9.464  11.180 -0.3956 -0.2973  0.0301
  155HK4    H2513020   7.373   9.398  11.102 -0.3886  1.5423 -1.5832
  156HK4    H2813021   5.689   3.691   2.421 -2.2165  1.2824  0.2315
  156HK4    C4813022   5.725   3.739   2.512 -0.2762  0.0078  0.1771
  156HK4    C4713023   5.710   3.675   2.634 -0.0696 -0.1337  0.1276
  156HK4    H2713024   5.683   3.568   2.637 -0.0610 -0.1442 -0.1267
  156HK4    C4613025   5.758   3.739   2.747  0.0850 -0.1731  0.0844
  156HK4    H2613026   5.753   3.676   2.838  0.8809 -2.6369 -1.5324
  156HK4    C4013027   5.799   3.874   2.745  0.2152 -0.2165 -0.1246
  156HK4    C5013028   5.814   3.932   2.617  0.0869  0.0390 -0.0221
  156HK4    H3013029   5.868   4.026   2.598 -0.8344  0.7887  0.9957
  156HK4    C4913030   5.779   3.867   2.499  0.9387 -0.5100  0.0231
  156HK4    H2913031   5.775   3.918   2.402 -0.4358  0.3893  0.5365
  156HK4     N213032   5.785   3.954   2.858 -0.1091 -0.0583 -0.2788
  156HK4    C3013033   5.694   3.933   2.964  0.1516 -0.0339 -0.0508
  156HK4    C2913034   5.580   3.856   2.979  0.0492  0.1326  0.0276
  156HK4    H1513035   5.556   3.788   2.896 -1.6973 -0.7547  1.2298
  156HK4    C2813036   5.493   3.848   3.087 -0.1217 -0.0419 -0.1205
  156HK4    C2713037   5.534   3.923   3.199 -0.2348  0.9310 -0.7256
  156HK4    H1413038   5.514   3.876   3.297  1.7382  1.9080  0.1823
  156HK4    C3213039   5.644   4.008   3.189  0.4276  0.1387 -0.1841
  156HK4    H1613040   5.665   4.081   3.267  2.1826 -0.8347  0.2806
  156HK4    C3113041   5.725   4.019   3.077  0.1083  0.4255 -0.3874
  156HK4    C3413042   5.838   4.097   3.032  0.5770  0.1097  0.2398
  156HK4    C3313043   5.877   4.053   2.899 -0.1513 -0.1843  0.1234
  156HK4    C3513044   5.983   4.111   2.830 -0.7627  1.1159  0.2666
  156HK4    H1713045   6.017   4.074   2.734 -4.7961 -0.7632 -0.5498
  156HK4    C3613046   6.054   4.208   2.900  0.5389  0.6075 -0.3495
  156HK4    H1813047   6.162   4.219   2.880  1.1999 -3.2718  0.7516
  156HK4    C3713048   6.006   4.261   3.019  0.0183 -0.2071 -0.1883
  156HK4    H1913049   6.043   4.357   3.055 -1.4259  0.1834  0.2689
  156HK4    C3813050   5.901   4.206   3.091 -0.0496  0.4753  0.2389
  156HK4    H2013051   5.892   4.221   3.198 -0.0665 -2.4505  0.6711
  156HK4    C1413052   5.352   3.822   3.057 -0.1192  0.2042 -0.3563
  156HK4     C913053   5.256   3.885   3.137  0.1025 -0.3157  0.3257
  156HK4     C813054   5.154   3.808   3.197  0.0790 -0.0167  0.6755
  156HK4    C1113055   5.141   3.676   3.157  0.1729  0.0990  0.2566
  156HK4     H413056   5.077   3.605   3.212 -1.2281  1.5070  0.4665
  156HK4    C1213057   5.221   3.614   3.062 -0.2301 -0.2304  0.1274
  156HK4     H513058   5.196   3.516   3.018  0.4669 -0.6715  0.6843
  156HK4    C1313059   5.328   3.689   3.014 -0.5327  0.1471  0.0465
  156HK4     H613060   5.369   3.655   2.918 -2.0281  1.5967 -1.1416
  156HK4     C713061   5.042   3.876   3.265 -0.1372  0.3509 -0.0319
  156HK4     O213062   4.990   3.808   3.354 -0.6275  0.1637 -0.4651
  156HK4     C413063   5.034   4.023   3.260 -0.1072  0.3645  0.2732
  156HK4     C313064   4.928   4.084   3.327 -0.2305 -0.1117  0.5124
  156HK4     H313065   4.865   4.022   3.393 -1.5037 -0.0844 -0.6566
  156HK4     C213066   4.889   4.215   3.303  0.3429  0.0540  0.4887
  156HK4     H213067   4.807   4.262   3.359  0.5479  0.9969  0.0168
  156HK4     C113068   4.955   4.284   3.202 -0.1874 -0.5545 -0.2754
  156HK4     H113069   4.940   4.393   3.205  1.4373 -0.1625 -3.4906
  156HK4     C613070   5.061   4.225   3.129  0.1843 -0.2144 -0.0166
  156HK4     C513071   5.107   4.098   3.166  0.1772 -0.1986  0.0448
  156HK4    C1013072   5.230   4.031   3.117 -0.0554 -0.4212 -0.2332
  156HK4     O113073   5.315   4.103   3.065 -0.1642  0.0528  0.2418
  156HK4    C1613074   5.122   4.316   3.031  0.2388 -0.3312 -0.0890
  156HK4    C1513075   5.123   4.456   3.046 -0.1525 -0.3728  0.3688
  156HK4     H713076   5.126   4.501   3.146 -0.7028 -1.9376  1.0865
  156HK4    C2013077   5.155   4.551   2.949 -0.2244 -0.5408  0.1797
  156HK4     H913078   5.153   4.656   2.981 -2.7010 -0.5363  0.0898
  156HK4    C1913079   5.186   4.501   2.823  0.6387 -0.1150  0.2188
  156HK4    C1813080   5.184   4.358   2.800 -0.1482 -0.1392  0.4128
  156HK4    C1713081   5.156   4.271   2.904  0.9020 -0.7044  0.2203
  156HK4     H813082   5.173   4.164   2.888 -1.5315 -1.1415  0.3510
  156HK4     N113083   5.216   4.330   2.665 -0.3389 -0.0913  0.3575
  156HK4    C2113084   5.245   4.456   2.610 -0.0402 -0.3537 -0.0854
  156HK4    C2213085   5.225   4.568   2.701  0.1494 -0.3388 -0.0620
  156HK4    C2613086   5.265   4.699   2.678  0.1139 -0.3104  0.0434
  156HK4    H1313087   5.274   4.781   2.748  0.5641  1.6704 -2.2529
  156HK4    C2513088   5.310   4.727   2.549  0.3393 -0.2310  0.1401
  156HK4    H1213089   5.321   4.830   2.514  0.6629  0.0928  1.1514
  156HK4    C2413090   5.329   4.622   2.460 -0.3853  0.5101 -0.8909
  156HK4    H1113091   5.360   4.658   2.361  1.2568 -2.2762 -1.4222
  156HK4    C2313092   5.305   4.489   2.489  0.7899  0.6063  0.5772
  156HK4    H1013093   5.353   4.414   2.425 -1.1863 -1.1514  1.0870
  156HK4    C3913094   5.278   4.214   2.618 -0.1948  0.2541 -0.3046
  156HK4    C4113095   5.273   4.169   2.484 -0.1901  0.0224 -0.2270
  156HK4    H2113096   5.196   4.211   2.417 -1.0120  0.1033  0.7449
  156HK4    C4213097   5.357   4.069   2.439 -0.3438 -0.1956 -0.0354
  156HK4    H2213098   5.355   4.043   2.332 -3.7383  0.5247 -0.2013
  156HK4    C4313099   5.440   4.005   2.530 -0.2289 -0.3635 -0.2572
  156HK4    H2313100   5.517   3.939   2.490 -1.8649 -0.6882 -2.9401
  156HK4    C4413101   5.442   4.038   2.665 -0.6737 -0.3720 -0.2475
  156HK4    H2413102   5.501   3.977   2.735 -1.3169 -0.9984 -0.2465
  156HK4    C4513103   5.364   4.145   2.706 -0.4688 -0.1730 -0.3742
  156HK4    H2513104   5.366   4.173   2.812  2.3189 -4.0047  0.6928
  157HK4    H2813105   4.650   3.310   3.039 -0.0129 -0.3855 -0.2852
  157HK4    C4813106   4.660   3.416   3.062 -0.0454 -0.3112 -0.6185
  157HK4    C4713107   4.541   3.486   3.050 -0.4267 -0.7199  0.7861
  157HK4    H2713108   4.442   3.446   3.023 -1.7215  1.9511  1.3989
  157HK4    C4613109   4.537   3.613   3.106  0.4851 -0.2836 -0.1332
  157HK4    H2613110   4.436   3.657   3.112 -0.0891 -1.7938  1.5957
  157HK4    C4013111   4.640   3.677   3.177  0.3120  0.0846 -0.2138
  157HK4    C5013112   4.756   3.599   3.189  0.0798 -0.2535 -0.1725
  157HK4    H3013113   4.800   3.622   3.287  1.9922  2.6277 -1.6367
  157HK4    C4913114   4.765   3.471   3.135 -0.4982 -0.4118  0.1070
  157HK4    H2913115   4.855   3.409   3.145  1.0297  1.6404 -0.6596
  157HK4     N213116   4.636   3.814   3.207 -0.4095  0.0393 -0.1062
  157HK4    C3013117   4.579   3.912   3.123 -0.5291 -0.0948 -0.1821
  157HK4    C2913118   4.586   3.925   2.985 -0.0630  0.1134 -0.1410
  157HK4    H1513119   4.623   3.835   2.936  0.7401  1.1078 -1.3724
  157HK4    C2813120   4.538   4.037   2.918 -0.0752  0.2381  0.0763
  157HK4    C2713121   4.463   4.134   2.988  0.1797  0.2595  0.3215
  157HK4    H1413122   4.389   4.196   2.936 -1.0402 -0.6807  0.8957
  157HK4    C3213123   4.465   4.128   3.127  0.3276  0.2024  0.3161
  157HK4    H1613124   4.397   4.191   3.184  0.0284 -1.0980  1.4304
  157HK4    C3113125   4.530   4.026   3.197 -0.1102 -0.1591  0.1965
  157HK4    C3413126   4.574   3.998   3.332  0.5618 -0.1396 -0.0201
  157HK4    C3313127   4.634   3.866   3.339  0.1678 -0.3145  0.0431
  157HK4    C3513128   4.667   3.813   3.463  0.1697 -0.2177  0.0845
  157HK4    H1713129   4.692   3.708   3.482 -0.2337 -0.9554 -3.1555
  157HK4    C3613130   4.659   3.893   3.576 -0.1133  0.7326 -0.6081
  157HK4    H1813131   4.683   3.850   3.674  1.4427  1.2248 -0.7599
  157HK4    C3713132   4.622   4.027   3.568  0.1514  0.8386 -0.0503
  157HK4    H1913133   4.622   4.089   3.657 -0.1755 -0.9514  1.2222
  157HK4    C3813134   4.574   4.076   3.447 -0.3387  0.0771 -0.1689
  157HK4    H2013135   4.524   4.173   3.439 -0.4022  0.1103  0.6095
  157HK4    C1413136   4.572   4.062   2.777  0.7297  0.4840  0.3068
  157HK4     C913137   4.552   4.184   2.711  0.5813  0.3308  0.0672
  157HK4     C813138   4.535   4.193   2.571 -0.5669  0.1283  0.1946
  157HK4    C1113139   4.565   4.082   2.493  0.0405  0.3923  0.0533
  157HK4     H413140   4.551   4.079   2.384  2.6203 -0.2619 -0.2988
  157HK4    C1213141   4.602   3.961   2.550 -0.0820  0.3952  0.1369
  157HK4     H513142   4.618   3.876   2.481 -0.3840  1.6361 -1.5026
  157HK4    C1313143   4.599   3.956   2.689 -0.4426  0.3232  0.1281
  157HK4     H613144   4.610   3.854   2.730 -3.0050 -0.4714 -1.0308
  157HK4     C713145   4.466   4.310   2.513 -0.1440  0.1217 -0.3191
  157HK4     O213146   4.454   4.318   2.390 -0.4076  0.1497 -0.2907
  157HK4     C413147   4.436   4.427   2.599 -0.0993 -0.0450 -0.0786
  157HK4     C313148   4.365   4.536   2.550  0.1143  0.0495 -0.1765
  157HK4     H313149   4.335   4.533   2.444 -1.1033  1.4589  0.1217
  157HK4     C213150   4.343   4.652   2.622  0.1014  0.0312 -0.1496
  157HK4     H213151   4.275   4.724   2.574 -0.4638 -1.5518 -1.7656
  157HK4     C113152   4.403   4.666   2.746 -0.3711  0.2059  0.0592
  157HK4     H113153   4.406   4.762   2.800 -0.3977  0.5412 -0.5366
  157HK4     C613154   4.464   4.554   2.806 -0.0381  0.3213 -0.0617
  157HK4     C513155   4.486   4.438   2.730  0.1814  0.4711 -0.2300
  157HK4    C1013156   4.554   4.316   2.780  0.0158  0.4296 -0.1047
  157HK4     O113157   4.654   4.336   2.850 -0.0992  0.1798  0.1317
  157HK4    C1613158   4.522   4.581   2.939 -0.3153 -0.1779  0.1590
  157HK4    C1513159   4.499   4.499   3.052  0.0793 -0.6526 -0.1035
  157HK4     H713160   4.406   4.440   3.061  0.9002 -1.7781  1.0968
  157HK4    C2013161   4.573   4.508   3.169 -0.2792  0.1766  0.0647
  157HK4     H913162   4.557   4.446   3.257  0.6373 -0.0224  0.0995
  157HK4    C1913163   4.674   4.603   3.179 -0.6242  0.6047 -0.4458
  157HK4    C1813164   4.707   4.685   3.064  0.1214  0.2432 -0.4940
  157HK4    C1713165   4.632   4.664   2.949  0.0495 -0.6029 -0.2993
  157HK4     H813166   4.646   4.733   2.866 -2.2881  0.5785  0.2540
  157HK4     N113167   4.821   4.763   3.090  0.1679 -0.0725  0.2703
  157HK4    C2113168   4.864   4.722   3.218 -0.0533 -0.4512  0.2251
  157HK4    C2213169   4.771   4.633   3.283 -0.4563 -0.4103 -0.2986
  157HK4    C2613170   4.801   4.562   3.399  0.2091  0.2486 -0.0649
  157HK4    H1313171   4.723   4.512   3.456 -0.3018  0.3142 -0.6981
  157HK4    C2513172   4.928   4.574   3.454  0.1779  0.2882  0.0001
  157HK4    H1213173   4.958   4.533   3.551  2.2289 -0.7615 -1.0362
  157HK4    C2413174   5.023   4.652   3.389  0.3516  0.0484 -0.0360
  157HK4    H1113175   5.130   4.638   3.408  0.6553  2.4783  0.2175
  157HK4    C2313176   4.992   4.722   3.273 -0.0796  0.4479  0.3123
  157HK4    H1013177   5.076   4.775   3.228  0.2715  0.4040  0.9200
  157HK4    C3913178   4.895   4.831   2.993 -0.5078  0.4885  0.1442
  157HK4    C4113179   4.966   4.948   3.029  0.7424 -0.1225 -0.2743
  157HK4    H2113180   4.945   4.995   3.127  1.9323 -0.3006  0.0729
  157HK4    C4213181   5.047   5.017   2.939  0.4350  0.4808 -0.0936
  157HK4    H2213182   5.111   5.100   2.971 -0.6606  0.7707  1.4193
  157HK4    C4313183   5.054   4.971   2.808 -0.5900 -0.2460  0.0937
  157HK4    H2313184   5.124   5.025   2.744  0.0143 -0.1993  0.7842
  157HK4    C4413185   4.986   4.859   2.761 -0.4857 -0.2653 -0.0106
  157HK4    H2413186   5.000   4.810   2.663 -0.3896  1.9657 -1.1599
  157HK4    C4513187   4.918   4.790   2.860  0.0019 -0.1276  0.4201
  157HK4    H2513188   4.859   4.702   2.830 -0.7834  0.4768  0.1639
  158HK4    H2813189   1.141  10.148   8.062  0.8912  2.0039 -3.5066
  158HK4    C4813190   1.037  10.148   8.032 -0.2281 -0.0552  0.0402
  158HK4    C4713191   0.986  10.054   7.943 -0.1455  0.1463 -0.2197
  158HK4    H2713192   1.049   9.982   7.890 -0.5087 -1.1674  1.1212
  158HK4    C4613193   0.850  10.036   7.922 -0.0146 -0.6180 -0.4065
  158HK4    H2613194   0.809   9.966   7.847 -2.0341  0.9748 -0.8448
  158HK4    C4013195   0.751  10.096   8.002  0.3729 -0.7032  0.1416
  158HK4    C5013196   0.802  10.192   8.091 -0.2143 -0.1756 -0.0893
  158HK4    H3013197   0.735  10.255   8.151 -1.9311  0.7261 -2.8716
  158HK4    C4913198   0.939  10.208   8.110 -0.2409 -0.3431  0.2456
  158HK4    H2913199   0.974  10.263   8.199  1.8255 -1.6834  0.3086
  158HK4     N213200   0.616  10.093   7.965  0.2764  0.3591  0.3859
  158HK4    C3013201   0.567  10.078   7.834  0.8444 -0.4944  0.2702
  158HK4    C2913202   0.628  10.108   7.712 -0.2583 -0.5306 -0.2946
  158HK4    H1513203   0.708  10.181   7.706  1.1624 -1.9906  0.6014
  158HK4    C2813204   0.573  10.068   7.591 -0.4753 -0.1555 -0.3220
  158HK4    C2713205   0.448  10.004   7.598 -0.5292 -0.0281 -0.1219
  158HK4    H1413206   0.416   9.959   7.502 -0.0684 -1.2302  0.2749
  158HK4    C3213207   0.375   9.981   7.714  0.2883 -0.1268  0.3717
  158HK4    H1613208   0.280   9.927   7.715  0.2300 -0.1040 -1.7473
  158HK4    C3113209   0.437  10.015   7.834  0.4472  0.3150  0.1670
  158HK4    C3413210   0.402  10.002   7.974  0.1419  0.3840  0.0984
  158HK4    C3313211   0.513  10.054   8.053  0.4144 -0.3808  0.2155
  158HK4    C3513212   0.491  10.063   8.190 -0.5598  0.0694  0.0394
  158HK4    H1713213   0.572  10.102   8.252 -0.2739  2.2630 -1.6326
  158HK4    C3613214   0.370  10.026   8.246 -0.6002  0.1409 -0.0024
  158HK4    H1813215   0.359  10.038   8.355 -2.1597  1.6598 -0.3029
  158HK4    C3713216   0.264   9.980   8.169 -0.3874 -0.2840 -0.0396
  158HK4    H1913217   0.187   9.917   8.215 -1.0425 -0.1325 -0.9141
  158HK4    C3813218   0.280   9.969   8.031  0.1657  0.1110 -0.0093
  158HK4    H2013219   0.196   9.947   7.965  0.2865 -1.4564  0.3255
  158HK4    C1413220   0.634  10.134   7.474  0.0143  0.3018  0.1880
  158HK4     C913221   0.560  10.186   7.367 -0.0235 -0.5628 -0.2140
  158HK4     C813222   0.616  10.197   7.238  0.0250  0.3726 -0.1170
  158HK4    C1113223   0.749  10.158   7.224 -0.0443  0.1420 -0.1336
  158HK4     H413224   0.792  10.172   7.124  0.8691  0.7287  0.3365
  158HK4    C1213225   0.828  10.106   7.325 -0.3917  0.0581  0.0972
  158HK4     H513226   0.934  10.082   7.305 -0.0430 -0.2424  2.1351
  158HK4    C1313227   0.769  10.102   7.451  0.0007  0.1739  0.2855
  158HK4     H613228   0.830  10.075   7.539  0.2465 -1.7635 -0.4546
  158HK4     C713229   0.535  10.239   7.121  0.1431  1.4333  0.1709
  158HK4     O213230   0.592  10.263   7.015 -0.4086  0.0506 -0.4603
  158HK4     C413231   0.392  10.269   7.141 -0.2666 -0.2313 -0.2146
  158HK4     C313232   0.313  10.297   7.030 -0.2827  1.0029  0.1106
  158HK4     H313233   0.366  10.310   6.935  0.4673  2.7116  0.7374
  158HK4     C213234   0.174  10.305   7.037 -0.4052 -0.6344 -0.3746
  158HK4     H213235   0.111  10.319   6.948 -0.0068  0.9763 -0.4162
  158HK4     C113236   0.122  10.285   7.165 -0.1135 -0.0094 -0.1587
  158HK4     H113237   0.014  10.299   7.180  0.0356 -1.4088  2.4537
  158HK4     C613238   0.191  10.259   7.285 -0.0747 -0.3535 -0.2580
  158HK4     C513239   0.330  10.256   7.267 -0.0570 -0.3497 -0.1231
  158HK4    C1013240   0.420  10.233   7.383  0.1348 -0.0829 -0.2195
  158HK4     O113241   0.395  10.291   7.489 -0.1049 -0.3556 -0.1234
  158HK4    C1613242   0.118  10.180   7.385  0.5971 -0.1311  0.4045
  158HK4    C1513243   0.051  10.059   7.357 -0.4570  0.5533 -0.0143
  158HK4     H713244   0.051  10.031   7.250 -0.5109  4.0202 -0.9884
  158HK4    C2013245  11.235   9.985   7.456  0.0182 -0.0132 -0.1326
  158HK4     H913246  11.178   9.898   7.423 -2.6121  2.3186 -2.0369
  158HK4    C1913247  11.233  10.025   7.589 -0.9625  0.5556 -0.3144
  158HK4    C1813248   0.036  10.156   7.621  0.6315 -0.2119  0.3449
  158HK4    C1713249   0.098  10.222   7.516  0.3757  0.0026  0.3273
  158HK4     H813250   0.130  10.325   7.531 -0.4567  0.7314 -2.5978
  158HK4     N113251   0.029  10.182   7.760  0.1872 -0.4111  0.3595
  158HK4    C2113252  11.215  10.069   7.818 -0.2968 -0.2466  0.1718
  158HK4    C2213253  11.191   9.969   7.716  0.0222  0.0577 -0.2015
  158HK4    C2613254  11.161   9.840   7.758 -0.0166  0.1886  0.1816
  158HK4    H1313255  11.151   9.759   7.686  1.2550 -0.7905  1.0755
  158HK4    C2513256  11.143   9.803   7.891 -0.2150 -0.4951 -0.0358
  158HK4    H1213257  11.140   9.695   7.910 -0.8652 -0.5707 -0.5209
  158HK4    C2413258  11.160   9.903   7.985 -0.4720 -0.0150 -0.4968
  158HK4    H1113259  11.170   9.881   8.093 -1.2383 -1.4304 -0.6967
  158HK4    C2313260  11.207  10.029   7.951  0.4291 -0.1466  0.2457
  158HK4    H1013261  11.233  10.106   8.024  0.2733  1.3885 -1.2713
  158HK4    C3913262   0.112  10.271   7.828 -0.0250  0.1321 -0.0889
  158HK4    C4113263   0.072  10.313   7.956  0.3785  0.0061  0.0824
  158HK4    H2113264  11.213  10.328   7.976  0.3969  1.6193 -0.9369
  158HK4    C4213265   0.165  10.352   8.051  0.0008 -0.2037  0.5395
  158HK4    H2213266   0.130  10.377   8.152  1.9437  1.0984  0.9188
  158HK4    C4313267   0.301  10.356   8.023 -0.0943 -0.4305  0.0392
  158HK4    H2313268   0.375  10.356   8.104  0.2415 -0.2554 -0.2659
  158HK4    C4413269   0.338  10.325   7.893  0.3852 -0.7063  0.2383
  158HK4    H2413270   0.442  10.348   7.864  0.4546 -1.1348  0.1437
  158HK4    C4513271   0.249  10.284   7.795 -0.0515  0.7207  0.0283
  158HK4    H2513272   0.291  10.240   7.703 -2.2080 -3.6603  1.0182
  159HK4    H2813273   8.249   2.198   5.026 -0.1743  0.1542 -0.7443
  159HK4    C4813274   8.294   2.291   5.063 -0.2017 -0.1677  0.1125
  159HK4    C4713275   8.429   2.304   5.093 -0.2096 -0.5108  0.3013
  159HK4    H2713276   8.499   2.226   5.060  1.2244  1.3433 -1.1337
  159HK4    C4613277   8.472   2.424   5.148 -0.2273 -0.3832  0.0340
  159HK4    H2613278   8.576   2.452   5.123 -0.6435  1.3444  0.1687
  159HK4    C4013279   8.385   2.519   5.206 -0.3415 -0.4640 -0.0061
  159HK4    C5013280   8.248   2.496   5.182 -0.5031  0.1686  0.2985
  159HK4    H3013281   8.175   2.566   5.225 -2.3545 -0.3528 -1.9484
  159HK4    C4913282   8.204   2.387   5.109 -0.0438 -0.3236  0.7525
  159HK4    H2913283   8.099   2.383   5.078  0.3683  2.2990 -1.1371
  159HK4     N213284   8.434   2.645   5.241 -0.0356 -0.5717 -0.0492
  159HK4    C3013285   8.537   2.717   5.176  0.2321 -0.4857  0.4511
  159HK4    C2913286   8.616   2.693   5.064  0.3429  0.3269  0.3573
  159HK4    H1513287   8.607   2.601   5.007  2.2445 -0.5020  1.3492
  159HK4    C2813288   8.714   2.782   5.024  0.3631 -0.0220 -0.3836
  159HK4    C2713289   8.736   2.900   5.098 -0.3313  0.0975 -0.3672
  159HK4    H1413290   8.799   2.978   5.053 -1.7940 -0.0529 -2.7924
  159HK4    C3213291   8.662   2.929   5.213  0.1579  0.6067 -0.1757
  159HK4    H1613292   8.673   3.026   5.261  3.6552  2.3259 -4.0595
  159HK4    C3113293   8.562   2.839   5.249  0.4631  0.0940 -0.5946
  159HK4    C3413294   8.472   2.838   5.363  0.6869 -0.1694 -0.4190
  159HK4    C3313295   8.404   2.710   5.363 -0.3106  0.3579 -0.6083
  159HK4    C3513296   8.351   2.657   5.480  0.5744  0.5500 -0.1078
  159HK4    H1713297   8.335   2.549   5.479  3.7189  0.0447 -1.4200
  159HK4    C3613298   8.364   2.727   5.599  0.0191 -0.0463  0.3050
  159HK4    H1813299   8.362   2.671   5.694 -1.3348  0.4032  0.5606
  159HK4    C3713300   8.412   2.857   5.593  0.5802 -0.2791 -0.3188
  159HK4    H1913301   8.401   2.920   5.682  1.0136 -1.9170  0.9066
  159HK4    C3813302   8.470   2.912   5.480  0.3414 -0.2028 -0.4054
  159HK4    H2013303   8.518   3.008   5.498  3.0397 -1.3328 -1.2699
  159HK4    C1413304   8.815   2.737   4.926 -0.0611 -0.9659 -0.3917
  159HK4     C913305   8.953   2.761   4.932 -0.3081  0.4339  0.0159
  159HK4     C813306   9.023   2.767   4.809  0.3856 -0.3005  0.3745
  159HK4    C1113307   8.960   2.742   4.688  0.4067  0.1025  0.2812
  159HK4     H413308   9.015   2.715   4.597  0.7795  3.6560 -0.6011
  159HK4    C1213309   8.825   2.709   4.685  0.2088  0.8944  0.2436
  159HK4     H513310   8.769   2.698   4.591 -0.2527  0.5349  0.5555
  159HK4    C1313311   8.753   2.705   4.804 -0.5069 -0.7534 -0.2205
  159HK4     H613312   8.644   2.690   4.794 -0.3145 -2.6331  0.4504
  159HK4     C713313   9.166   2.804   4.800  0.2428  0.2565  0.3670
  159HK4     O213314   9.243   2.767   4.711 -0.1812 -0.6675  0.3693
  159HK4     C413315   9.227   2.847   4.927  0.0799 -0.1194  0.5731
  159HK4     C313316   9.347   2.917   4.932  0.1282 -0.1838  0.3337
  159HK4     H313317   9.390   2.966   4.843 -0.7547  0.5286  0.2928
  159HK4     C213318   9.413   2.936   5.053  0.2305  0.0545  0.2413
  159HK4     H213319   9.502   3.000   5.059 -1.5718  2.3660  4.2329
  159HK4     C113320   9.368   2.867   5.165 -0.0649  0.0630  0.1296
  159HK4     H113321   9.434   2.879   5.253  1.9373  1.6020 -1.5333
  159HK4     C613322   9.258   2.779   5.159 -0.0470  0.0611 -0.1514
  159HK4     C513323   9.177   2.788   5.045 -0.4289 -0.7288  0.0536
  159HK4    C1013324   9.034   2.749   5.056 -0.4011 -0.8627 -0.0411
  159HK4     O113325   8.986   2.715   5.164  0.2166 -0.2709  0.4270
  159HK4    C1613326   9.262   2.670   5.258  0.5270 -0.2954 -0.5632
  159HK4    C1513327   9.330   2.686   5.381 -1.0683 -0.0153  0.2937
  159HK4     H713328   9.328   2.789   5.420  1.4334  0.7129 -1.3960
  159HK4    C2013329   9.384   2.578   5.450 -0.6903 -0.0298 -0.0258
  159HK4     H913330   9.432   2.587   5.547 -1.0901 -3.4872  0.5460
  159HK4    C1913331   9.371   2.450   5.399 -0.1355 -0.3424  0.6107
  159HK4    C1813332   9.307   2.435   5.269  0.3344  0.0689  0.3312
  159HK4    C1713333   9.249   2.543   5.204  0.1877 -0.3779 -0.2854
  159HK4     H813334   9.169   2.525   5.132  0.7051 -2.8300 -0.2966
  159HK4     N113335   9.318   2.305   5.215  0.0164  0.2084 -0.0660
  159HK4    C2113336   9.398   2.236   5.309 -0.3488 -0.5624 -0.3187
  159HK4    C2213337   9.427   2.318   5.424 -0.0315 -0.5058 -0.4387
  159HK4    C2613338   9.516   2.274   5.522  0.5375  0.6648 -0.4107
  159HK4    H1313339   9.544   2.337   5.606 -0.7443 -1.4360  1.6797
  159HK4    C2513340   9.575   2.149   5.507  0.6824  0.7157 -0.2669
  159HK4    H1213341   9.655   2.124   5.575 -1.0993 -1.2984  1.1389
  159HK4    C2413342   9.548   2.071   5.395  0.0203  0.8979 -0.2378
  159HK4    H1113343   9.575   1.964   5.396  0.5279  1.0048  2.7970
  159HK4    C2313344   9.465   2.116   5.292  0.6231  0.0775 -1.0909
  159HK4    H1013345   9.475   2.064   5.197  1.0686 -2.5038  0.3104
  159HK4    C3913346   9.304   2.270   5.080 -0.2944  0.3113 -0.0637
  159HK4    C4113347   9.280   2.140   5.031 -0.3494  0.2587  0.1024
  159HK4    H2113348   9.240   2.077   5.111  1.4193 -0.3330  0.5394
  159HK4    C4213349   9.262   2.108   4.897 -0.9679  0.4849  0.1300
  159HK4    H2213350   9.232   2.009   4.859 -1.3282  0.5324  0.2877
  159HK4    C4313351   9.270   2.206   4.799 -0.0004  0.1360 -0.1512
  159HK4    H2313352   9.223   2.192   4.702 -0.7889 -1.4678  0.4432
  159HK4    C4413353   9.303   2.334   4.842 -0.3414  0.1490  0.0824
  159HK4    H2413354   9.287   2.416   4.770 -1.6061 -0.7672 -0.6960
  159HK4    C4513355   9.316   2.365   4.977 -0.0089  0.3486  0.0067
  159HK4    H2513356   9.354   2.466   4.994  1.4180 -0.6217  2.8497
  160HK4    H2813357  11.059   6.830   1.547 -0.1218 -1.0082  0.1770
  160HK4    C4813358  11.145   6.834   1.613 -0.1822  0.4434  0.1866
  160HK4    C4713359   0.002   6.916   1.573  0.1023 -0.2020 -0.4073
  160HK4    H2713360   0.001   6.958   1.471 -3.4157 -1.0903 -0.8021
  160HK4    C4613361   0.109   6.937   1.658 -0.1840 -0.0909 -0.0738
  160HK4    H2613362   0.187   7.003   1.618 -1.0014  0.6735 -0.4156
  160HK4    C4013363   0.123   6.867   1.780 -0.0435  0.0170 -0.0277
  160HK4    C5013364   0.013   6.785   1.816  0.0050 -0.0328  0.0069
  160HK4    H3013365   0.023   6.717   1.902 -3.5870 -0.9270 -0.2127
  160HK4    C4913366  11.147   6.774   1.738  0.3505 -0.7827 -0.3973
  160HK4    H2913367  11.058   6.722   1.778  0.2373 -0.0161  0.3826
  160HK4     N213368   0.243   6.836   1.845 -0.1489 -0.0992  0.1144
  160HK4    C3013369   0.369   6.830   1.782  0.0571 -0.5102  0.5652
  160HK4    C2913370   0.417   6.855   1.654 -0.0081 -0.1653  0.6069
  160HK4    H1513371   0.346   6.859   1.570  0.0056  1.0063  0.6446
  160HK4    C2813372   0.551   6.853   1.619  0.0093  1.0951  0.5789
  160HK4    C2713373   0.643   6.808   1.717  0.1844 -1.0837 -0.5472
  160HK4    H1413374   0.751   6.823   1.705 -0.0532  0.4219 -0.9449
  160HK4    C3213375   0.604   6.785   1.849  0.6613 -0.0596 -0.2166
  160HK4    H1613376   0.674   6.747   1.923  1.1469  0.9564 -0.1532
  160HK4    C3113377   0.471   6.810   1.882  0.6965 -0.1511 -0.0100
  160HK4    C3413378   0.403   6.804   2.010  0.2294 -0.2900 -0.2667
  160HK4    C3313379   0.263   6.834   1.984  0.0945 -0.6192  0.0738
  160HK4    C3513380   0.179   6.857   2.092 -0.3101 -0.4267 -0.2813
  160HK4    H1713381   0.074   6.879   2.070 -0.5555  1.0009  2.1152
  160HK4    C3613382   0.237   6.848   2.218  0.2056  0.3347 -0.4665
  160HK4    H1813383   0.168   6.860   2.303  0.4503  0.8730 -0.3415
  160HK4    C3713384   0.372   6.823   2.244 -0.0806 -0.5928  0.1453
  160HK4    H1913385   0.413   6.835   2.344 -0.3853 -1.5748  0.3980
  160HK4    C3813386   0.458   6.801   2.137 -0.1244  0.3452 -0.0920
  160HK4    H2013387   0.564   6.780   2.149 -0.4907 -1.0501  0.8774
  160HK4    C1413388   0.588   6.865   1.478  0.0971  0.2001  0.5206
  160HK4     C913389   0.704   6.805   1.429  0.0283  0.0850  0.4989
  160HK4     C813390   0.780   6.881   1.337 -0.4729  0.2976  0.2590
  160HK4    C1113391   0.740   7.007   1.295 -0.2035  0.2109 -0.2677
  160HK4     H413392   0.806   7.070   1.233  3.0963 -0.6395  2.1742
  160HK4    C1213393   0.617   7.055   1.338 -0.0646  0.2654  0.0730
  160HK4     H513394   0.593   7.157   1.304  1.2854  0.6140  0.1253
  160HK4    C1313395   0.532   6.981   1.420  0.2237  0.1242  0.2445
  160HK4     H613396   0.426   7.011   1.423 -0.2994 -1.2282 -2.6789
  160HK4     C713397   0.912   6.829   1.294 -0.3849  0.2912  0.5360
  160HK4     O213398   0.963   6.882   1.195 -0.2662 -0.3808  0.2379
  160HK4     C413399   0.967   6.701   1.344 -0.0475  0.2092 -0.0428
  160HK4     C313400   1.089   6.657   1.296  0.3279  0.4051  0.7359
  160HK4     H313401   1.131   6.716   1.214 -1.2337  0.5064  0.0032
  160HK4     C213402   1.147   6.537   1.338  0.0774 -0.1272 -0.4197
  160HK4     H213403   1.250   6.509   1.312 -0.4704 -2.2153 -0.4058
  160HK4     C113404   1.079   6.474   1.442 -0.1976  0.0054 -0.5195
  160HK4     H113405   1.142   6.397   1.489  0.6557  1.9726  1.6565
  160HK4     C613406   0.955   6.515   1.496  0.4246  0.6922  0.3966
  160HK4     C513407   0.891   6.623   1.434 -0.2124 -0.2025 -0.5335
  160HK4    C1013408   0.751   6.667   1.459  0.0657  0.1043  0.5304
  160HK4     O113409   0.667   6.580   1.433  0.2604  0.1431 -0.2525
  160HK4    C1613410   0.929   6.472   1.634 -0.2141 -0.0133  0.0620
  160HK4    C1513411   1.029   6.431   1.725 -0.1206  0.1260  0.0231
  160HK4     H713412   1.134   6.445   1.698  0.2367  1.4258  2.0292
  160HK4    C2013413   0.995   6.380   1.850  0.1874 -0.5744 -0.1778
  160HK4     H913414   1.071   6.336   1.916 -0.6450 -0.1252  1.0998
  160HK4    C1913415   0.863   6.362   1.891  0.1612 -0.2349 -0.1137
  160HK4    C1813416   0.760   6.391   1.794 -0.1662 -0.2935  0.2168
  160HK4    C1713417   0.799   6.442   1.670 -0.1557  0.1390  0.3991
  160HK4     H813418   0.731   6.414   1.590  1.1078 -1.5864 -0.0972
  160HK4     N113419   0.636   6.393   1.861 -0.0597  0.3926  0.3897
  160HK4    C2113420   0.657   6.369   1.998  0.2090 -0.1985  0.2429
  160HK4    C2213421   0.799   6.349   2.020  0.2388 -0.3600 -0.0871
  160HK4    C2613422   0.846   6.323   2.148 -0.0654  0.1295  0.1277
  160HK4    H1313423   0.952   6.301   2.166 -0.5883 -1.2462  1.6463
  160HK4    C2513424   0.755   6.319   2.252 -0.1922  0.9245  0.0502
  160HK4    H1213425   0.796   6.286   2.348 -0.3419  0.0468 -0.1821
  160HK4    C2413426   0.617   6.321   2.230 -0.2488 -0.1507  0.2507
  160HK4    H1113427   0.547   6.302   2.312  0.0709  1.4331  0.9041
  160HK4    C2313428   0.568   6.357   2.105  0.0689 -0.1142  0.1356
  160HK4    H1013429   0.464   6.385   2.092  0.3158  0.6749 -0.1707
  160HK4    C3913430   0.512   6.391   1.796  0.1413 -0.9708  0.0476
  160HK4    C4113431   0.394   6.443   1.853  0.0831 -0.7499 -0.2723
  160HK4    H2113432   0.406   6.530   1.920  1.8699 -0.8389 -0.4311
  160HK4    C4213433   0.272   6.422   1.791 -0.0664  0.5991 -0.4607
  160HK4    H2213434   0.186   6.486   1.814 -2.7570 -3.2675  0.7280
  160HK4    C4313435   0.260   6.334   1.683 -0.0493  0.1159 -0.0712
  160HK4    H2313436   0.164   6.319   1.633 -0.0478  0.1829 -0.0947
  160HK4    C4413437   0.375   6.273   1.636  0.0118  0.4331 -0.3338
  160HK4    H2413438   0.376   6.190   1.564 -1.1338 -0.9673  1.2278
  160HK4    C4513439   0.502   6.311   1.680  0.2709 -0.3597 -0.3884
  160HK4    H2513440   0.591   6.272   1.629  1.2683 -1.0637  1.8318
  161HK4    H2813441   5.693   0.334   4.964  0.9904 -1.5980 -0.3887
  161HK4    C4813442   5.597   0.289   4.942 -0.0396  0.2228  0.2519
  161HK4    C4713443   5.578   0.231   4.817 -0.2930  0.1834  0.3067
  161HK4    H2713444   5.644   0.263   4.735 -0.2975 -0.5193  0.0249
  161HK4    C4613445   5.476   0.141   4.789 -0.2693  0.2935 -0.1403
  161HK4    H2613446   5.473   0.080   4.698 -0.1092 -1.6085  1.0815
  161HK4    C4013447   5.386   0.111   4.894  0.0374 -0.0128  0.0358
  161HK4    C5013448   5.399   0.179   5.017 -0.4248 -0.1567  0.1644
  161HK4    H3013449   5.340   0.147   5.104  0.4477  1.5991  1.4438
  161HK4    C4913450   5.502   0.270   5.042 -0.0141 -0.6077  0.1182
  161HK4    H2913451   5.524   0.316   5.139 -1.2464  0.4943 -0.1066
  161HK4     N213452   5.304  11.245   4.898 -0.1003  0.0791 -0.1406
  161HK4    C3013453   5.317  11.132   4.814  0.2823  0.1130 -0.1262
  161HK4    C2913454   5.438  11.085   4.764  0.4591  0.3744  0.0531
  161HK4    H1513455   5.524  11.153   4.769  0.3147  0.5513  0.1462
  161HK4    C2813456   5.456  10.954   4.721  0.3561  0.5072 -0.4008
  161HK4    C2713457   5.347  10.866   4.735  0.4977  0.3943  0.0218
  161HK4    H1413458   5.353  10.756   4.738 -2.1894  0.0658 -3.0705
  161HK4    C3213459   5.221  10.911   4.775  0.1516  0.3748 -1.0270
  161HK4    H1613460   5.136  10.845   4.790  1.2950 -0.7817  0.5895
  161HK4    C3113461   5.206  11.040   4.824  0.3328  0.0542 -0.1176
  161HK4    C3413462   5.121  11.103   4.922  0.3249 -0.0379 -0.0635
  161HK4    C3313463   5.185  11.225   4.969  0.0112  0.0854  0.0490
  161HK4    C3513464   5.113   0.056   5.058  0.0538  0.3055 -0.1126
  161HK4    H1713465   5.135   0.161   5.076 -0.3857  0.4905 -0.6488
  161HK4    C3613466   4.999   0.004   5.119  0.0420  0.2593 -0.1719
  161HK4    H1813467   4.948   0.072   5.189  0.6311 -0.8650  1.3938
  161HK4    C3713468   4.949  11.127   5.085  0.0761  0.1497  0.1802
  161HK4    H1913469   4.854  11.092   5.125 -0.7250  1.0891 -0.8809
  161HK4    C3813470   5.006  11.053   4.981  0.2390  0.3690  0.1119
  161HK4    H2013471   4.971  10.951   4.963 -1.6054  1.3726 -2.2533
  161HK4    C1413472   5.574  10.917   4.641  0.2119 -0.0232 -0.3662
  161HK4     C913473   5.573  10.820   4.540 -0.3080 -0.5389  0.1251
  161HK4     C813474   5.676  10.724   4.534  0.1760  0.0194 -0.5205
  161HK4    C1113475   5.782  10.725   4.624  0.0261  0.5504 -0.3469
  161HK4     H413476   5.862  10.649   4.625 -0.4357  0.0718  0.7437
  161HK4    C1213477   5.788  10.832   4.712  1.0473  0.4398 -0.2752
  161HK4     H513478   5.874  10.848   4.780 -1.2346 -0.8102  3.0180
  161HK4    C1313479   5.693  10.933   4.715  0.1345 -0.4190 -0.1511
  161HK4     H613480   5.714  11.028   4.767  0.5831  0.9502 -2.7172
  161HK4     C713481   5.687  10.628   4.422  0.3263 -0.4052 -0.1464
  161HK4     O213482   5.747  10.521   4.426  0.7019 -0.1412  1.3035
  161HK4     C413483   5.595  10.653   4.308  0.3366 -0.3685 -0.1471
  161HK4     C313484   5.623  10.588   4.188  0.1765  0.5127 -0.6671
  161HK4     H313485   5.722  10.559   4.152 -0.4226 -0.0981 -1.8409
  161HK4     C213486   5.521  10.578   4.094  0.1060 -0.2251 -0.5192
  161HK4     H213487   5.539  10.554   3.988  1.3364 -2.4472  0.1521
  161HK4     C113488   5.392  10.619   4.122  0.3870  0.3119 -0.0023
  161HK4     H113489   5.314  10.595   4.048  1.8389  0.3922 -1.5810
  161HK4     C613490   5.363  10.679   4.247  0.2332  0.3846 -0.0728
  161HK4     C513491   5.470  10.712   4.331  0.3665 -0.3898  0.0727
  161HK4    C1013492   5.466  10.817   4.437 -0.2201 -0.3619  0.0297
  161HK4     O113493   5.403  10.920   4.416 -0.1647 -0.3804 -0.2224
  161HK4    C1613494   5.222  10.701   4.280  0.2071  0.1693 -0.0416
  161HK4    C1513495   5.126  10.713   4.177 -0.1270  0.1851  0.2672
  161HK4     H713496   5.149  10.708   4.070  2.6313 -2.7156  0.9127
  161HK4    C2013497   4.992  10.722   4.214  0.0018  0.9700  0.5602
  161HK4     H913498   4.917  10.747   4.139 -0.8508  0.5889  1.2843
  161HK4    C1913499   4.950  10.705   4.345  0.0776  0.3284  0.5027
  161HK4    C1813500   5.048  10.668   4.445 -0.0524 -0.7938  0.2183
  161HK4    C1713501   5.182  10.680   4.412 -0.2310  0.1338 -0.1774
  161HK4     H813502   5.256  10.701   4.489 -0.4918  2.3610 -0.4961
  161HK4     N113503   4.979  10.617   4.557 -0.1432  0.5479  0.7828
  161HK4    C2113504   4.840  10.631   4.535 -0.0814  0.0650  0.0679
  161HK4    C2213505   4.818  10.685   4.402 -0.1038 -0.6834 -0.2411
  161HK4    C2613506   4.688  10.711   4.360 -0.0922  0.4457  0.3837
  161HK4    H1313507   4.673  10.752   4.260 -2.3262  0.5660  0.7399
  161HK4    C2513508   4.581  10.692   4.446 -0.3085 -0.0996 -0.0004
  161HK4    H1213509   4.485  10.740   4.423  0.1212  0.9446  0.3399
  161HK4    C2413510   4.604  10.636   4.571  0.0556  0.1661  0.0530
  161HK4    H1113511   4.523  10.609   4.641  0.3692  0.7821  0.6660
  161HK4    C2313512   4.730  10.598   4.614  0.0458  0.5786  0.4569
  161HK4    H1013513   4.734  10.544   4.708  2.3232  2.6580  1.6188
  161HK4    C3913514   5.033  10.515   4.635  0.1302  0.3377  0.3206
  161HK4    C4113515   5.119  10.413   4.589  0.0714  0.2923  0.3076
  161HK4    H2113516   5.139  10.411   4.481  0.6516  1.6384  0.3694
  161HK4    C4213517   5.187  10.321   4.669 -0.2064 -0.4112 -0.2658
  161HK4    H2213518   5.259  10.248   4.629  2.1903  2.1534 -0.7806
  161HK4    C4313519   5.173  10.332   4.807  0.1529 -0.4975 -0.2238
  161HK4    H2313520   5.247  10.288   4.874  1.1339 -1.2468 -1.7632
  161HK4    C4413521   5.083  10.427   4.853  0.0447 -0.5575 -0.3134
  161HK4    H2413522   5.059  10.423   4.960  1.5350 -1.4439  0.0067
  161HK4    C4513523   5.013  10.518   4.775  0.1754  0.0990  0.3342
  161HK4    H2513524   4.928  10.566   4.826 -0.1282 -2.5895  2.4517
  162HK4    H2813525   9.062   9.175  10.238 -0.2084 -0.5826 -1.3216
  162HK4    C4813526   9.089   9.260  10.175  0.5218 -0.0362 -0.2901
  162HK4    C4713527   8.991   9.324  10.101  0.2791  0.4585  0.4649
  162HK4    H2713528   8.883   9.311  10.118 -0.0090  2.6583  0.4761
  162HK4    C4613529   9.030   9.409   9.999 -0.0091 -0.2185 -0.2112
  162HK4    H2613530   8.954   9.477   9.958  0.8983  1.2905  0.5673
  162HK4    C4013531   9.162   9.433   9.955  0.0287  0.2418  0.1520
  162HK4    C5013532   9.250   9.362  10.038  0.0321 -0.1068 -0.1538
  162HK4    H3013533   9.354   9.397  10.040  0.5496 -1.6071  0.5020
  162HK4    C4913534   9.224   9.275  10.143  0.6202  0.1067  0.1731
  162HK4    H2913535   9.299   9.201  10.175  0.4495  0.1723  0.7299
  162HK4     N213536   9.209   9.472   9.829 -0.1578  0.0460  0.0203
  162HK4    C3013537   9.131   9.474   9.711 -0.3691  0.7336  0.1696
  162HK4    C2913538   9.014   9.406   9.680  0.2251 -0.1955 -0.0476
  162HK4    H1513539   8.951   9.365   9.758 -1.7777 -0.3305 -1.7030
  162HK4    C2813540   8.954   9.418   9.555 -0.1135  0.6031  0.1899
  162HK4    C2713541   9.012   9.510   9.465  0.2149  0.6876  0.4847
  162HK4    H1413542   8.964   9.516   9.366  0.7337 -0.3943  0.1635
  162HK4    C3213543   9.129   9.578   9.495  0.4633  0.4793 -0.0293
  162HK4    H1613544   9.171   9.648   9.423 -0.3327  1.1801  0.1792
  162HK4    C3113545   9.198   9.559   9.615 -0.0296  0.5873  0.2731
  162HK4    C3413546   9.319   9.612   9.673  0.0323  0.3473  0.3603
  162HK4    C3313547   9.318   9.559   9.808  0.0449 -0.1725  0.1614
  162HK4    C3513548   9.407   9.614   9.900 -0.4689  0.6617  0.1655
  162HK4    H1713549   9.401   9.592  10.006 -0.1789  0.3650  0.1204
  162HK4    C3613550   9.502   9.707   9.859 -0.0515  0.3132  0.3429
  162HK4    H1813551   9.588   9.739   9.920  1.4671 -0.5796 -1.3048
  162HK4    C3713552   9.502   9.759   9.730 -1.0607  0.2943  0.3321
  162HK4    H1913553   9.582   9.828   9.705  0.8077 -1.7013  0.6301
  162HK4    C3813554   9.408   9.713   9.639  0.0751 -0.0394 -0.6786
  162HK4    H2013555   9.400   9.753   9.538  1.9743 -2.4780 -1.8511
  162HK4    C1413556   8.841   9.329   9.522 -0.1221  0.6778  0.0298
  162HK4     C913557   8.797   9.302   9.392 -0.0692 -0.1005  0.1761
  162HK4     C813558   8.661   9.287   9.360 -0.0713 -0.0577  0.1532
  162HK4    C1113559   8.565   9.313   9.457 -0.4420 -0.4480 -0.1111
  162HK4     H413560   8.457   9.326   9.441 -0.7838 -2.4403  0.4184
  162HK4    C1213561   8.603   9.332   9.589  0.1835 -0.4630 -0.2866
  162HK4     H513562   8.528   9.357   9.667  0.8494  1.0873 -0.1224
  162HK4    C1313563   8.739   9.333   9.618  0.0654 -0.0166  0.2598
  162HK4     H613564   8.764   9.308   9.722 -1.2812 -1.8599  0.1701
  162HK4     C713565   8.612   9.245   9.227 -0.2016 -0.3663  0.2965
  162HK4     O213566   8.503   9.283   9.186  0.0878 -0.0345 -0.1773
  162HK4     C413567   8.709   9.177   9.137  0.2031  0.3440  0.1857
  162HK4     C313568   8.670   9.139   9.009  0.6161  0.4762  0.0239
  162HK4     H313569   8.563   9.137   8.982  0.1417 -1.0801  1.9107
  162HK4     C213570   8.750   9.052   8.936  0.3358  0.1810  0.0670
  162HK4     H213571   8.718   9.005   8.842 -2.1691  1.0793  0.4402
  162HK4     C113572   8.862   8.998   8.997  0.0946 -0.3506  0.0501
  162HK4     H113573   8.904   8.909   8.948  0.9080  0.0300  0.0340
  162HK4     C613574   8.905   9.037   9.126  0.2809  0.0463 -0.1299
  162HK4     C513575   8.834   9.139   9.190  0.5625  0.4999 -0.5380
  162HK4    C1013576   8.886   9.218   9.306 -0.0679 -0.0490  0.1263
  162HK4     O113577   9.005   9.249   9.301 -0.1844  0.2984 -0.7304
  162HK4    C1613578   9.034   8.985   9.172  0.4004  0.2951 -0.1873
  162HK4    C1513579   9.125   8.932   9.079 -0.1147 -0.3602 -0.3193
  162HK4     H713580   9.134   8.980   8.980 -0.6155  0.6099  0.0980
  162HK4    C2013581   9.223   8.840   9.117  0.0961 -0.0856 -0.1866
  162HK4     H913582   9.277   8.784   9.041 -0.6045 -0.4446 -0.4175
  162HK4    C1913583   9.233   8.797   9.249 -0.1253  0.6518  0.0809
  162HK4    C1813584   9.138   8.850   9.345  0.1735  0.1714  0.6348
  162HK4    C1713585   9.041   8.940   9.304  0.2306 -0.2156 -0.3535
  162HK4     H813586   8.972   8.976   9.379 -0.2257  0.4432 -1.0750
  162HK4     N113587   9.170   8.798   9.473 -0.2968 -0.4918  0.4811
  162HK4    C2113588   9.278   8.709   9.457  0.1777  0.1848 -0.0936
  162HK4    C2213589   9.321   8.705   9.318 -0.1544  0.4076 -0.2071
  162HK4    C2613590   9.449   8.656   9.293 -0.1268  0.3033  0.1403
  162HK4    H1313591   9.485   8.683   9.194  1.1099 -1.7011  0.0063
  162HK4    C2513592   9.534   8.625   9.399 -0.2436  0.1248  0.1823
  162HK4    H1213593   9.633   8.586   9.377 -0.8456 -0.7626 -1.0132
  162HK4    C2413594   9.490   8.620   9.531 -0.2039 -0.3908  0.1754
  162HK4    H1113595   9.556   8.600   9.617 -1.8548 -2.9122  0.8822
  162HK4    C2313596   9.359   8.659   9.558 -0.1097  0.0270  0.0527
  162HK4    H1013597   9.318   8.626   9.653  2.0155  1.5887  1.5606
  162HK4    C3913598   9.142   8.865   9.592  0.9810  0.2305  0.3810
  162HK4    C4113599   9.133   8.802   9.718 -0.6790 -0.6158 -0.1497
  162HK4    H2113600   9.128   8.692   9.716  1.5259 -0.7516  0.8806
  162HK4    C4213601   9.143   8.875   9.835 -0.8068 -0.0348 -0.4947
  162HK4    H2213602   9.175   8.831   9.931 -0.0101  1.3391 -0.1208
  162HK4    C4313603   9.139   9.014   9.828  0.5006  0.0185 -0.2196
  162HK4    H2313604   9.111   9.074   9.915  2.8251 -0.3033  0.7873
  162HK4    C4413605   9.139   9.079   9.705 -0.6514 -0.1777 -0.3312
  162HK4    H2413606   9.136   9.189   9.702  1.1494 -0.1258 -0.7070
  162HK4    C4513607   9.146   9.006   9.587  0.1306  0.2293 -0.5433
  162HK4    H2513608   9.171   9.063   9.496 -0.6787 -0.1328 -1.0000
  163HK4    H2813609   9.722   8.420   6.279 -1.0626 -1.1368 -0.8937
  163HK4    C4813610   9.725   8.340   6.353 -0.0170 -0.2324  0.0484
  163HK4    C4713611   9.783   8.364   6.477 -0.3497 -0.0063  0.1606
  163HK4    H2713612   9.815   8.465   6.506 -1.9182  0.0814  1.6731
  163HK4    C4613613   9.819   8.261   6.564  0.2471 -0.0419 -0.1297
  163HK4    H2613614   9.873   8.285   6.656  2.7407 -1.1437 -1.2603
  163HK4    C4013615   9.798   8.126   6.530  0.3577  0.0667 -0.6406
  163HK4    C5013616   9.728   8.110   6.408 -0.5458 -0.1753 -0.0965
  163HK4    H3013617   9.701   8.009   6.376  0.2831 -0.5085  0.2193
  163HK4    C4913618   9.695   8.209   6.317  0.4193 -0.1917 -0.4741
  163HK4    H2913619   9.637   8.192   6.225  1.5113 -2.6233 -0.7419
  163HK4     N213620   9.834   8.012   6.603 -0.3911  0.2756  0.0608
  163HK4    C3013621   9.941   8.021   6.694 -0.3021  0.3762 -0.0561
  163HK4    C2913622  10.043   8.116   6.696  0.2140 -0.1711  0.1550
  163HK4    H1513623  10.067   8.169   6.605  0.5927  1.9670  1.4656
  163HK4    C2813624  10.138   8.119   6.798  0.3398 -0.5326  0.0474
  163HK4    C2713625  10.116   8.023   6.899 -0.3626 -0.5890 -0.1529
  163HK4    H1413626  10.191   8.022   6.979  0.6951  0.6471 -1.0962
  163HK4    C3213627  10.016   7.926   6.903 -0.6682 -0.2753 -0.1856
  163HK4    H1613628  10.000   7.847   6.975 -0.5190  0.1935  0.3706
  163HK4    C3113629   9.923   7.923   6.799 -0.6302  0.2444 -0.2378
  163HK4    C3413630   9.811   7.840   6.759 -0.4035 -0.0546 -0.2713
  163HK4    C3313631   9.754   7.903   6.642 -0.3250  0.1293 -0.2094
  163HK4    C3513632   9.635   7.856   6.587 -0.4753  0.2126  0.0403
  163HK4    H1713633   9.583   7.897   6.500 -0.4778  0.5757  0.2099
  163HK4    C3613634   9.581   7.746   6.651  0.1530 -0.3714 -0.4309
  163HK4    H1813635   9.485   7.720   6.604  0.3073 -0.2850 -0.7885
  163HK4    C3713636   9.636   7.677   6.759  0.2091 -0.3610 -0.4506
  163HK4    H1913637   9.588   7.591   6.806 -1.5350  1.0612  0.4250
  163HK4    C3813638   9.752   7.728   6.817  0.3367 -0.5761 -0.5160
  163HK4    H2013639   9.803   7.681   6.900 -0.0053  0.8914  0.5494
  163HK4    C1413640  10.269   8.183   6.786 -0.0421  0.2440  0.0357
  163HK4     C913641  10.385   8.141   6.852 -0.3326 -0.2068  0.2608
  163HK4     C813642  10.488   8.234   6.880 -0.2052 -0.3279  0.1867
  163HK4    C1113643  10.483   8.365   6.834 -0.1289 -0.3868  0.0000
  163HK4     H413644  10.559   8.440   6.862 -1.8921  1.5262 -0.2015
  163HK4    C1213645  10.378   8.398   6.750  0.4048 -0.2421 -0.6111
  163HK4     H513646  10.377   8.496   6.700 -2.3532  0.0011 -0.2062
  163HK4    C1313647  10.271   8.312   6.728 -0.4152  0.4731  0.5234
  163HK4     H613648  10.204   8.340   6.645 -0.2321  2.6714  1.0720
  163HK4     C713649  10.599   8.190   6.968  0.0191 -0.1893 -0.0320
  163HK4     O213650  10.687   8.270   6.997 -0.0300  0.0641 -0.5701
  163HK4     C413651  10.607   8.056   7.031  0.5415 -0.1105  0.0670
  163HK4     C313652  10.697   8.024   7.132  0.3625 -0.4328  0.1255
  163HK4     H313653  10.789   8.085   7.141 -0.2846  0.5221  0.4106
  163HK4     C213654  10.695   7.897   7.188  0.2257 -0.2824  0.4578
  163HK4     H213655  10.762   7.870   7.272 -1.3998 -2.5435  1.0611
  163HK4     C113656  10.610   7.801   7.136  0.2158 -0.3631  0.6231
  163HK4     H113657  10.616   7.698   7.176 -2.7836 -0.1377  1.8636
  163HK4     C613658  10.519   7.827   7.032  0.6676  0.1558  0.3563
  163HK4     C513659  10.522   7.957   6.979  0.8437 -0.1430 -0.3733
  163HK4    C1013660  10.421   7.999   6.878  0.2911 -0.0627  0.2163
  163HK4     O113661  10.423   7.941   6.770 -0.3263  0.3451 -0.0149
  163HK4    C1613662  10.395   7.748   7.029  0.6676  0.1677 -0.0526
  163HK4    C1513663  10.335   7.719   7.153 -0.4716  0.1351 -0.6072
  163HK4     H713664  10.382   7.768   7.239  0.1003 -1.9405  0.2984
  163HK4    C2013665  10.220   7.641   7.161 -0.4742  0.2645  0.6403
  163HK4     H913666  10.173   7.624   7.259 -0.7315  1.4024  0.7216
  163HK4    C1913667  10.178   7.568   7.051  0.2686  0.1736  0.4157
  163HK4    C1813668  10.250   7.578   6.926 -0.4818  0.5437  0.0063
  163HK4    C1713669  10.347   7.678   6.919  0.7506 -0.5949  0.3889
  163HK4     H813670  10.375   7.705   6.817 -0.4603 -0.6272  0.0292
  163HK4     N113671  10.188   7.505   6.822  0.0951 -0.3920  0.3145
  163HK4    C2113672  10.071   7.457   6.882 -0.1881 -0.0911  0.0087
  163HK4    C2213673  10.059   7.489   7.023 -0.0953  0.9263 -0.2125
  163HK4    C2613674   9.942   7.469   7.095  0.1845  0.2826  0.0663
  163HK4    H1313675   9.953   7.469   7.203  1.7193 -0.7044 -0.0843
  163HK4    C2513676   9.823   7.421   7.042  0.1135  0.4964  0.0218
  163HK4    H1213677   9.736   7.386   7.098 -0.6433  1.5739 -0.4615
  163HK4    C2413678   9.830   7.406   6.904  0.3755 -0.2301  0.1076
  163HK4    H1113679   9.746   7.365   6.847 -0.5796  1.0401  0.5688
  163HK4    C2313680   9.948   7.416   6.831 -0.1128  0.4357 -0.6064
  163HK4    H1013681   9.930   7.399   6.725 -2.4449 -0.6273 -0.0718
  163HK4    C3913682  10.257   7.428   6.727 -0.0039  0.1539 -0.2058
  163HK4    C4113683  10.188   7.353   6.630  0.2228  0.3109 -0.4870
  163HK4    H2113684  10.089   7.390   6.599  0.4662  0.5876 -0.9392
  163HK4    C4213685  10.245   7.250   6.556 -0.3991 -0.6129  0.3133
  163HK4    H2213686  10.188   7.192   6.482 -4.6416  1.3582  1.8764
  163HK4    C4313687  10.377   7.217   6.583 -0.0120  0.2280 -0.5224
  163HK4    H2313688  10.430   7.128   6.547  0.2768 -0.8176  2.3600
  163HK4    C4413689  10.443   7.288   6.682 -0.2649 -0.4361  0.1373
  163HK4    H2413690  10.536   7.244   6.721 -0.3634 -0.3495  0.4691
  163HK4    C4513691  10.393   7.398   6.750 -0.2335 -0.5334  0.3138
  163HK4    H2513692  10.463   7.462   6.806 -0.6217  1.9146 -1.9045
  164HK4    H2813693   2.281  10.808  10.470 -2.7375  1.3802  0.1933
  164HK4    C4813694   2.325  10.900  10.430  0.4774 -0.3997 -0.5395
  164HK4    C4713695   2.247  10.996  10.367  0.1917 -0.3661 -0.1322
  164HK4    H2713696   2.143  10.968  10.342 -0.5102  2.1453 -0.2007
  164HK4    C4613697   2.297  11.118  10.323  0.6737 -0.6233 -0.2971
  164HK4    H2613698   2.231  11.182  10.262  1.9971 -0.6798 -1.8279
  164HK4    C4013699   2.430  11.157  10.346  0.5198  0.1202 -0.6526
  164HK4    C5013700   2.508  11.055  10.404 -0.1604 -0.0759 -0.0762
  164HK4    H3013701   2.613  11.081  10.422  0.4460 -2.2980 -0.2028
  164HK4    C4913702   2.458  10.933  10.449  0.3790 -0.2831 -0.0439
  164HK4    H2913703   2.516  10.865  10.513  0.0085  0.3861  1.0008
  164HK4     N213704   2.462   0.046  10.350  0.2580  0.1734 -0.3029
  164HK4    C3013705   2.373   0.154  10.360  0.0067 -0.0253 -0.3851
  164HK4    C2913706   2.250   0.152  10.427  0.3055  0.3920  0.1847
  164HK4    H1513707   2.210   0.060  10.469 -0.3772 -0.4229 -2.1661
  164HK4    C2813708   2.161   0.257  10.412  0.2318  0.3290  0.1846
  164HK4    C2713709   2.199   0.365  10.329  0.3891 -0.1092 -0.3105
  164HK4    H1413710   2.133   0.451  10.312  1.8027  0.8982 -0.8875
  164HK4    C3213711   2.318   0.368  10.256  0.6462  0.5236  0.1298
  164HK4    H1613712   2.350   0.458  10.203  4.1830 -2.9973 -4.1222
  164HK4    C3113713   2.407   0.262  10.270  0.3993  0.3204  0.1803
  164HK4    C3413714   2.530   0.217  10.208  0.4391  0.3382  0.2460
  164HK4    C3313715   2.565   0.088  10.264  0.3053  0.0656 -0.2974
  164HK4    C3513716   2.684   0.024  10.229  0.5551  0.1482  0.3926
  164HK4    H1713717   2.721  11.182  10.276  1.8596  0.0252 -0.8196
  164HK4    C3613718   2.762   0.080  10.128  0.3775  0.3573  0.3704
  164HK4    H1813719   2.831   0.011  10.078 -2.6483 -0.7638 -2.4885
  164HK4    C3713720   2.733   0.204  10.072  0.2462  0.3133  0.3424
  164HK4    H1913721   2.797   0.246   9.994 -0.7614 -0.1832 -0.7812
  164HK4    C3813722   2.617   0.269  10.113  0.3364  0.5304  0.2576
  164HK4    H2013723   2.593   0.355  10.051 -0.6279 -0.3989 -0.6907
  164HK4    C1413724   2.019   0.238  10.445  0.1632  0.0388 -0.2739
  164HK4     C913725   1.912   0.290  10.371  0.2842  0.6821  0.0055
  164HK4     C813726   1.790   0.326  10.432 -0.2383 -0.1315 -0.5579
  164HK4    C1113727   1.780   0.315  10.570  0.1660 -0.1879 -0.5323
  164HK4     H413728   1.703   0.374  10.622  0.5409  0.6077 -0.8695
  164HK4    C1213729   1.882   0.259  10.647 -0.2842 -0.3367 -0.0387
  164HK4     H513730   1.875   0.266  10.756  0.8339  0.4436 -0.0075
  164HK4    C1313731   2.001   0.225  10.584 -0.2448  0.2787 -0.3033
  164HK4     H613732   2.069   0.155  10.635 -0.2288  0.3229 -0.2657
  164HK4     C713733   1.669   0.344  10.349 -0.6173 -0.2807 -0.0369
  164HK4     O213734   1.557   0.354  10.398 -0.4765  0.0873  0.2139
  164HK4     C413735   1.682   0.324  10.203  0.1461 -0.2057  0.0157
  164HK4     C313736   1.570   0.311  10.122  0.0225 -0.9751  0.3095
  164HK4     H313737   1.480   0.263  10.163  0.7300 -2.2891  0.3701
  164HK4     C213738   1.583   0.320   9.984  0.4887 -0.6004  0.3775
  164HK4     H213739   1.492   0.304   9.924  0.8540  1.1793 -0.7155
  164HK4     C113740   1.707   0.351   9.930  0.0230  0.0932 -0.3182
  164HK4     H113741   1.716   0.344   9.821  1.4383 -0.6718 -0.1673
  164HK4     C613742   1.822   0.377  10.009  0.0724  0.0856 -0.3880
  164HK4     C513743   1.808   0.340  10.143 -0.0899 -0.0555 -0.4409
  164HK4    C1013744   1.921   0.284  10.222 -0.2708  0.1891 -0.0090
  164HK4     O113745   1.992   0.206  10.159 -0.0885  0.2514  0.1215
  164HK4    C1613746   1.910   0.488   9.970  0.3518 -0.1517 -0.4294
  164HK4    C1513747   2.038   0.506  10.026  0.0132  0.7491  0.0669
  164HK4     H713748   2.100   0.418  10.048  0.1106  0.1110 -2.6002
  164HK4    C2013749   2.106   0.628  10.015  0.4922  0.5572  0.8741
  164HK4     H913750   2.193   0.644  10.078  0.7617 -1.4443  1.0490
  164HK4    C1913751   2.053   0.729   9.935 -0.0711 -0.1286  0.3699
  164HK4    C1813752   1.935   0.703   9.856 -0.3710  0.8051  0.5122
  164HK4    C1713753   1.865   0.586   9.882  0.4451  0.1772 -0.1170
  164HK4     H813754   1.771   0.572   9.828  0.0667  1.3545  0.2419
  164HK4     N113755   1.907   0.808   9.765 -0.1106  0.4842  0.0573
  164HK4    C2113756   2.006   0.904   9.792 -0.1413  0.4461  0.3070
  164HK4    C2213757   2.093   0.864   9.901 -0.1203 -0.1924  0.0552
  164HK4    C2613758   2.178   0.953   9.965 -0.4120  0.2119 -0.1215
  164HK4    H1313759   2.236   0.934  10.056  2.7417 -3.6158 -2.7784
  164HK4    C2513760   2.176   1.086   9.925 -0.7482  0.1975 -0.1540
  164HK4    H1213761   2.247   1.154   9.972  0.5150 -0.5128 -0.9906
  164HK4    C2413762   2.099   1.130   9.817 -0.2654  0.4261 -0.4111
  164HK4    H1113763   2.089   1.237   9.796 -0.5509  0.1546 -1.7080
  164HK4    C2313764   2.016   1.037   9.755  0.6652  0.0136 -1.0518
  164HK4    H1013765   1.964   1.064   9.663  1.3053 -0.1029 -1.4499
  164HK4    C3913766   1.847   0.790   9.640 -0.5828 -0.1059  0.3617
  164HK4    C4113767   1.779   0.901   9.585  0.5624  0.1533 -0.5398
  164HK4    H2113768   1.767   0.995   9.640 -1.8084 -0.5732  0.2432
  164HK4    C4213769   1.713   0.885   9.463 -0.1604  0.2574 -0.1655
  164HK4    H2213770   1.642   0.958   9.422 -0.4530 -0.0408 -0.1886
  164HK4    C4313771   1.712   0.759   9.404 -0.0023  0.2021 -0.0536
  164HK4    H2313772   1.650   0.751   9.314 -1.0876  2.9413  0.3961
  164HK4    C4413773   1.783   0.650   9.453 -0.2198 -0.1394 -0.4971
  164HK4    H2413774   1.779   0.554   9.400  3.1440 -0.1002 -0.9183
  164HK4    C4513775   1.855   0.668   9.570 -0.6248  0.2720 -0.3085
  164HK4    H2513776   1.920   0.587   9.605 -0.6328  0.8796  1.1616
  165HK4    H2813777   6.441  10.569   2.326  0.3866 -1.0503  0.4800
  165HK4    C4813778   6.429  10.464   2.302 -0.1107 -0.8428 -0.1949
  165HK4    C4713779   6.335  10.434   2.203 -0.1380  0.2309 -0.5006
  165HK4    H2713780   6.282  10.515   2.152 -0.6657  1.0865  1.3965
  165HK4    C4613781   6.331  10.308   2.143 -0.0490 -0.1525  0.2853
  165HK4    H2613782   6.230  10.279   2.111 -0.4136 -0.1794  1.4283
  165HK4    C4013783   6.425  10.208   2.174 -0.4002 -0.5409  0.0893
  165HK4    C5013784   6.522  10.249   2.269 -0.0318  0.2115 -0.5979
  165HK4    H3013785   6.614  10.189   2.275 -0.2324 -0.0548 -0.1633
  165HK4    C4913786   6.523  10.369   2.339  0.4297 -0.1913  0.0976
  165HK4    H2913787   6.594  10.384   2.422  0.1720 -1.6250  0.5897
  165HK4     N213788   6.443  10.089   2.103  0.8742 -0.3206  0.0127
  165HK4    C3013789   6.399  10.070   1.970  0.3256 -0.0178  0.1472
  165HK4    C2913790   6.409  10.160   1.865  0.3426  0.2595  0.3885
  165HK4    H1513791   6.460  10.254   1.883 -0.3152  0.9776 -1.3014
  165HK4    C2813792   6.375  10.119   1.736  1.0024  0.1766  0.2420
  165HK4    C2713793   6.328   9.988   1.715  0.2655  0.4704  0.0533
  165HK4    H1413794   6.334   9.938   1.617 -0.9715 -0.4867  0.4533
  165HK4    C3213795   6.317   9.895   1.817  0.2437  0.0469 -0.3358
  165HK4    H1613796   6.286   9.792   1.797 -2.2821  0.8354 -0.7047
  165HK4    C3113797   6.356   9.934   1.944 -0.3196  0.2529 -0.2265
  165HK4    C3413798   6.371   9.866   2.071 -0.9582 -0.1508 -0.3637
  165HK4    C3313799   6.444   9.959   2.156  0.1203 -0.6375 -0.7407
  165HK4    C3513800   6.477   9.922   2.286 -0.3239  0.0643 -0.4252
  165HK4    H1713801   6.542   9.985   2.347 -0.0248  1.2112 -1.8842
  165HK4    C3613802   6.438   9.797   2.332  0.3395  0.0413  0.0833
  165HK4    H1813803   6.457   9.762   2.435  0.2314 -0.9194 -0.2202
  165HK4    C3713804   6.375   9.706   2.248  0.4272 -0.1849  0.2648
  165HK4    H1913805   6.352   9.605   2.281 -0.4562 -0.3193 -0.7417
  165HK4    C3813806   6.343   9.738   2.117 -0.0757 -0.0832  0.4106
  165HK4    H2013807   6.294   9.671   2.046 -0.3290  1.4746 -0.9183
  165HK4    C1413808   6.354  10.225   1.636  0.1174  0.0476  0.2863
  165HK4     C913809   6.278  10.199   1.521  0.0559  0.7140  0.1764
  165HK4     C813810   6.306  10.260   1.397 -0.5724  0.2332 -0.2031
  165HK4    C1113811   6.404  10.359   1.393 -0.4112  0.0878  0.1048
  165HK4     H413812   6.415  10.420   1.303  0.6806 -0.8738 -0.4352
  165HK4    C1213813   6.480  10.394   1.504  0.4751 -0.5416 -0.2920
  165HK4     H513814   6.559  10.470   1.499  0.4084 -0.4133  0.4979
  165HK4    C1313815   6.450  10.328   1.623  0.0305  0.0888 -0.0515
  165HK4     H613816   6.491  10.377   1.712  0.0049 -1.6152  0.9165
  165HK4     C713817   6.235  10.220   1.273 -0.4444  0.4955 -0.3601
  165HK4     O213818   6.245  10.291   1.173  0.2999  1.4112  0.3498
  165HK4     C413819   6.135  10.112   1.278 -0.1089  0.2165  0.5950
  165HK4     C313820   6.088  10.063   1.156 -0.2862  0.3630  0.6048
  165HK4     H313821   6.123  10.105   1.061 -2.5812 -0.1797 -0.5254
  165HK4     C213822   5.998   9.957   1.149  0.0058  0.1524 -0.0107
  165HK4     H213823   5.934   9.936   1.062 -0.3930  1.6661 -0.0924
  165HK4     C113824   5.964   9.896   1.270  0.2081 -0.4900 -0.2768
  165HK4     H113825   5.909   9.801   1.269 -0.6765 -0.0260  2.2881
  165HK4     C613826   6.012   9.940   1.395  0.2532 -0.4651 -0.3032
  165HK4     C513827   6.097  10.051   1.399  0.3064 -0.5273  0.3533
  165HK4    C1013828   6.158  10.111   1.521  0.3906  0.2562 -0.0720
  165HK4     O113829   6.092  10.119   1.624  0.2695 -0.4816 -0.0899
  165HK4    C1613830   6.024   9.837   1.500 -0.4683 -0.0717  0.1687
  165HK4    C1513831   6.055   9.704   1.466  0.3655  0.2247 -0.2765
  165HK4     H713832   6.092   9.689   1.364 -0.3123 -1.4390 -0.2957
  165HK4    C2013833   6.044   9.588   1.543  0.0315  0.3087 -0.1908
  165HK4     H913834   6.068   9.489   1.503 -0.9775 -0.0970  0.2052
  165HK4    C1913835   6.003   9.602   1.675 -0.0105 -0.2972 -0.1388
  165HK4    C1813836   5.965   9.736   1.713  0.1645 -0.2739 -0.0442
  165HK4    C1713837   5.980   9.848   1.631  0.4505  0.0700  0.4702
  165HK4     H813838   5.926   9.938   1.660 -0.2046 -0.2006  0.0947
  165HK4     N113839   5.923   9.728   1.847  0.5650  0.1260  0.1047
  165HK4    C2113840   5.913   9.594   1.889  0.2100  0.1916  0.2413
  165HK4    C2213841   5.970   9.512   1.783 -0.8109 -0.0120 -0.1486
  165HK4    C2613842   5.942   9.376   1.788 -0.0889 -0.1889 -0.8156
  165HK4    H1313843   5.967   9.315   1.700 -0.7886 -2.2255  0.3551
  165HK4    C2513844   5.863   9.314   1.884 -0.2999  0.4773 -0.5614
  165HK4    H1213845   5.867   9.206   1.895 -0.6881  0.5813  0.7121
  165HK4    C2413846   5.815   9.394   1.988 -0.3754  0.3345 -0.4880
  165HK4    H1113847   5.790   9.343   2.082  0.9291 -0.4253 -0.5462
  165HK4    C2313848   5.839   9.531   1.987 -0.3058  0.3233 -0.0593
  165HK4    H1013849   5.814   9.584   2.079 -0.9534  0.6501 -0.4236
  165HK4    C3913850   5.900   9.841   1.928 -0.5139  0.5325 -0.7538
  165HK4    C4113851   5.814   9.832   2.039  0.1383  0.1151 -0.2804
  165HK4    H2113852   5.724   9.770   2.027  0.5998 -0.6592  0.1839
  165HK4    C4213853   5.822   9.928   2.139 -0.0708  0.0665 -0.2195
  165HK4    H2213854   5.755   9.914   2.225 -1.0483 -0.4954 -1.0677
  165HK4    C4313855   5.917  10.029   2.145 -0.1112  0.0736  0.3280
  165HK4    H2313856   5.924  10.095   2.232  2.5460  1.4426 -0.8780
  165HK4    C4413857   6.005  10.034   2.038 -0.2235  0.1798  0.2391
  165HK4    H2413858   6.073  10.121   2.034  0.4390 -0.3806 -1.2991
  165HK4    C4513859   5.998   9.942   1.934  0.0548 -0.0763  0.4428
  165HK4    H2513860   6.074   9.945   1.854  0.4386 -1.8104  0.7256
  166HK4    H2813861   9.133   8.342   6.585 -1.3341  2.9001  1.0744
  166HK4    C4813862   9.028   8.311   6.582 -0.3553 -0.4619 -0.4129
  166HK4    C4713863   8.960   8.281   6.465  0.3982 -0.8340 -0.7639
  166HK4    H2713864   9.015   8.266   6.371  2.9715 -3.8056  1.1102
  166HK4    C4613865   8.822   8.262   6.466  0.3037 -0.1133 -0.3606
  166HK4    H2613866   8.767   8.227   6.377 -0.1152  0.1708 -0.2160
  166HK4    C4013867   8.748   8.259   6.586  0.0749  0.9539 -0.4650
  166HK4    C5013868   8.821   8.287   6.703 -0.3196  0.2910 -0.0600
  166HK4    H3013869   8.780   8.248   6.798  1.2271  1.5591  1.1654
  166HK4    C4913870   8.955   8.321   6.700 -0.3769  0.4640 -0.5048
  166HK4    H2913871   9.009   8.342   6.794  1.0762 -3.0789 -0.4926
  166HK4     N213872   8.620   8.205   6.606  0.6910 -0.3791 -0.0719
  166HK4    C3013873   8.554   8.123   6.512  0.3193 -0.4703  0.2715
  166HK4    C2913874   8.604   8.018   6.436  0.0886 -0.0395 -0.4869
  166HK4    H1513875   8.712   8.006   6.446  0.2635  2.4119  0.7859
  166HK4    C2813876   8.525   7.924   6.370 -0.1519 -0.3684  0.2637
  166HK4    C2713877   8.387   7.952   6.370 -0.0617  0.0646 -0.3350
  166HK4    H1413878   8.322   7.895   6.301  0.6254 -0.5090 -0.5179
  166HK4    C3213879   8.330   8.054   6.444  0.1145 -0.4892  0.5671
  166HK4    H1613880   8.229   8.090   6.424  0.6288  0.4504 -0.3936
  166HK4    C3113881   8.410   8.139   6.520  0.3308 -0.1840 -0.0032
  166HK4    C3413882   8.394   8.238   6.624 -0.2273  0.1423 -0.3982
  166HK4    C3313883   8.523   8.271   6.682  0.0065 -1.5013  0.0419
  166HK4    C3513884   8.516   8.345   6.800  0.0519 -0.2365 -0.7295
  166HK4    H1713885   8.604   8.359   6.864 -0.5213 -1.1808  0.2847
  166HK4    C3613886   8.398   8.405   6.841  0.3388 -0.1961  0.0550
  166HK4    H1813887   8.395   8.468   6.932 -1.5514 -1.6724  1.0468
  166HK4    C3713888   8.281   8.402   6.766  0.2539  0.0773  0.1756
  166HK4    H1913889   8.184   8.444   6.793 -0.0631 -0.1166 -0.6527
  166HK4    C3813890   8.283   8.314   6.659  0.1593  0.6754 -0.3170
  166HK4    H2013891   8.187   8.301   6.609  0.3268 -0.9646 -0.2408
  166HK4    C1413892   8.588   7.839   6.268 -0.1179  0.2919 -0.2666
  166HK4     C913893   8.535   7.815   6.141  0.0634 -0.0265 -0.2803
  166HK4     C813894   8.556   7.688   6.081 -0.4638 -0.4143  0.3529
  166HK4    C1113895   8.633   7.592   6.145 -0.8232 -0.5573  0.5766
  166HK4     H413896   8.658   7.504   6.084 -3.0267 -0.5093 -0.4384
  166HK4    C1213897   8.696   7.612   6.267 -0.9888 -0.3769  0.6314
  166HK4     H513898   8.780   7.553   6.307  0.6829  1.3520 -0.2383
  166HK4    C1313899   8.669   7.737   6.322  0.0944  0.3533 -0.4683
  166HK4     H613900   8.710   7.751   6.423 -0.5233 -3.6711  0.4182
  166HK4     C713901   8.519   7.673   5.939  0.2972  0.1353  0.0926
  166HK4     O213902   8.582   7.591   5.872  0.2071 -0.1762  0.3918
  166HK4     C413903   8.446   7.778   5.865 -0.2097 -0.1075  0.2432
  166HK4     C313904   8.411   7.769   5.731 -0.0235  0.4204  0.1586
  166HK4     H313905   8.461   7.697   5.665 -1.3989 -0.7332  0.3663
  166HK4     C213906   8.321   7.856   5.670 -0.2392 -0.2724 -0.5239
  166HK4     H213907   8.293   7.850   5.564  0.8161 -0.4070 -0.8014
  166HK4     C113908   8.248   7.941   5.752 -0.1595 -0.1057 -0.6268
  166HK4     H113909   8.193   8.024   5.705 -1.7571 -0.4855  0.5189
  166HK4     C613910   8.271   7.951   5.891 -0.0404  0.2486 -0.6685
  166HK4     C513911   8.383   7.881   5.938 -0.1461  0.3214 -0.3034
  166HK4    C1013912   8.450   7.912   6.067 -0.4724 -0.2723  0.0110
  166HK4     O113913   8.476   8.031   6.089  0.4387 -0.4332 -0.1719
  166HK4    C1613914   8.153   7.979   5.975  0.1366  0.1537 -0.3882
  166HK4    C1513915   8.022   7.952   5.930 -0.0436  1.1209 -0.4590
  166HK4     H713916   8.015   7.884   5.844  0.6493  1.4433 -0.7766
  166HK4    C2013917   7.911   8.017   5.981 -0.4312  0.1479 -0.0484
  166HK4     H913918   7.807   7.991   5.961 -0.4075 -1.7112  2.1357
  166HK4    C1913919   7.921   8.116   6.078 -0.1807 -0.3058  0.3892
  166HK4    C1813920   8.057   8.157   6.110 -0.1953 -0.2256  0.3424
  166HK4    C1713921   8.167   8.084   6.065 -0.3049 -0.3381  0.2511
  166HK4     H813922   8.249   8.085   6.137 -1.7677 -0.7075  1.9849
  166HK4     N113923   8.057   8.278   6.181 -0.5422 -0.0863  0.1021
  166HK4    C2113924   7.923   8.317   6.200 -0.4942  0.1557 -0.0519
  166HK4    C2213925   7.838   8.223   6.130 -0.1515  0.0966 -0.3855
  166HK4    C2613926   7.703   8.254   6.129 -0.2216 -0.1995  0.1644
  166HK4    H1313927   7.630   8.207   6.064 -0.7578  0.5419  0.2244
  166HK4    C2513928   7.647   8.367   6.189 -0.3805 -0.1072 -0.1625
  166HK4    H1213929   7.539   8.380   6.189 -0.0716  2.7191 -0.6730
  166HK4    C2413930   7.729   8.460   6.252 -0.0379 -0.2605 -0.3808
  166HK4    H1113931   7.685   8.551   6.295 -0.7298 -0.7895  0.0430
  166HK4    C2313932   7.865   8.430   6.257 -0.0731 -0.2179  1.1247
  166HK4    H1013933   7.917   8.508   6.312 -1.8560  3.0152 -1.6163
  166HK4    C3913934   8.164   8.366   6.204 -0.0682 -0.6108 -0.0990
  166HK4    C4113935   8.179   8.442   6.322  0.4421 -0.2891 -0.3646
  166HK4    H2113936   8.098   8.442   6.396  0.3976 -0.8329 -0.4150
  166HK4    C4213937   8.286   8.528   6.340 -0.1902  0.6348 -0.9599
  166HK4    H2213938   8.306   8.576   6.437 -2.6204  0.6893 -0.4667
  166HK4    C4313939   8.382   8.543   6.240  0.6473 -0.1532 -0.2858
  166HK4    H2313940   8.458   8.619   6.257  1.0414 -0.0580 -2.2990
  166HK4    C4413941   8.368   8.472   6.121 -0.0819 -0.2200 -0.1594
  166HK4    H2413942   8.438   8.481   6.037  1.6055 -0.3176  1.2065
  166HK4    C4513943   8.264   8.380   6.106 -0.0644 -0.2651 -0.0457
  166HK4    H2513944   8.271   8.300   6.031 -1.3407 -0.7272  0.3321
  167HK4    H2813945   2.355  10.493   6.951 -0.6960  0.0730  0.3968
  167HK4    C4813946   2.361  10.539   6.852 -0.6520 -0.8144 -0.0119
  167HK4    C4713947   2.311  10.664   6.820  0.1410 -0.4347  0.2128
  167HK4    H2713948   2.250  10.710   6.899  0.9117 -0.0922  0.6121
  167HK4    C4613949   2.325  10.718   6.692  0.8452 -0.2777  0.3571
  167HK4    H2613950   2.261  10.803   6.668  0.6437 -1.0648 -2.0470
  167HK4    C4013951   2.399  10.649   6.594  0.2611 -0.1240 -0.1899
  167HK4    C5013952   2.449  10.522   6.631 -0.0566 -0.2947 -0.3402
  167HK4    H3013953   2.499  10.457   6.559 -2.2405 -2.7737  0.3103
  167HK4    C4913954   2.437  10.469   6.759  0.0577  0.1345 -0.1502
  167HK4    H2913955   2.471  10.366   6.776  0.6541  0.3346 -0.0772
  167HK4     N213956   2.464  10.713   6.487 -0.0840  0.1813 -0.2153
  167HK4    C3013957   2.514  10.845   6.482 -0.0267  0.1581 -0.2046
  167HK4    C2913958   2.543  10.935   6.584  0.7006 -0.3665  0.0538
  167HK4    H1513959   2.490  10.929   6.679 -0.0279  0.4939 -0.3010
  167HK4    C2813960   2.630  11.042   6.566  0.4696 -0.2049 -0.1067
  167HK4    C2713961   2.676  11.074   6.437 -0.1002 -0.1838 -0.3043
  167HK4    H1413962   2.744  11.156   6.409 -1.4114 -0.0861 -3.3849
  167HK4    C3213963   2.644  10.988   6.333  0.3563 -0.4731 -0.2100
  167HK4    H1613964   2.698  10.995   6.239  1.1587 -2.7464  0.0440
  167HK4    C3113965   2.570  10.871   6.351 -0.6335  0.1069 -0.4767
  167HK4    C3413966   2.543  10.756   6.268  0.0021 -0.3060 -0.1083
  167HK4    C3313967   2.482  10.660   6.358 -0.3727 -0.0989 -0.1429
  167HK4    C3513968   2.443  10.540   6.300  0.1676 -0.4321  0.1825
  167HK4    H1713969   2.379  10.474   6.359 -0.7961  0.1296 -0.2111
  167HK4    C3613970   2.457  10.524   6.162 -0.3589  0.3373  0.0369
  167HK4    H1813971   2.442  10.426   6.115 -0.6738  0.2121  0.3871
  167HK4    C3713972   2.505  10.619   6.073  0.1443  0.3508  0.3274
  167HK4    H1913973   2.486  10.610   5.966 -3.1266 -0.3650  0.9308
  167HK4    C3813974   2.557  10.735   6.131  0.4530  0.4700 -0.1827
  167HK4    H2013975   2.626  10.796   6.073 -1.3030 -0.4073 -3.3461
  167HK4    C1413976   2.623  11.137   6.678  0.5722  0.1088 -0.3643
  167HK4     C913977   2.596   0.025   6.664  0.2475  0.0211 -0.5998
  167HK4     C813978   2.627   0.115   6.768 -0.1719 -0.2262 -0.2625
  167HK4    C1113979   2.666   0.059   6.890  0.4342 -0.1315 -0.4122
  167HK4     H413980   2.663   0.122   6.980 -1.8108 -0.5298 -0.1827
  167HK4    C1213981   2.676  11.171   6.914  0.9729 -0.0410 -0.1060
  167HK4     H513982   2.668  11.138   7.018  1.6925 -0.1246 -0.0797
  167HK4    C1313983   2.664  11.087   6.803 -0.4460  0.0602 -0.0460
  167HK4     H613984   2.691  10.981   6.817  1.2953  0.5282  0.3727
  167HK4     C713985   2.611   0.262   6.757 -0.1561 -0.1821  0.2651
  167HK4     O213986   2.646   0.335   6.849  0.8007 -0.0678 -0.1749
  167HK4     C413987   2.573   0.326   6.629  0.3297  0.0486  0.2344
  167HK4     C313988   2.539   0.461   6.629 -0.7132 -0.2119 -0.2228
  167HK4     H313989   2.571   0.528   6.709  1.1973 -0.0859 -1.0624
  167HK4     C213990   2.498   0.521   6.510  0.3279  0.4202 -0.2740
  167HK4     H213991   2.456   0.622   6.499  0.5985  0.6167  0.4783
  167HK4     C113992   2.512   0.438   6.399  0.5536 -0.1688  0.1921
  167HK4     H113993   2.507   0.483   6.299 -0.2504 -0.9712 -0.1431
  167HK4     C613994   2.547   0.301   6.397 -0.4230 -0.4126 -0.4005
  167HK4     C513995   2.552   0.238   6.521 -1.0472  0.5154  0.1057
  167HK4    C1013996   2.543   0.090   6.541 -0.5453  0.4662 -0.0291
  167HK4     O113997   2.443   0.040   6.490 -0.2960  0.0322 -0.0947
  167HK4    C1613998   2.638   0.258   6.290  0.0612 -0.2102 -0.0733
  167HK4    C1513999   2.718   0.355   6.227 -0.5006 -0.0060 -0.4786
  167HK4     H714000   2.773   0.425   6.292 -1.0958  0.6772 -0.7120
  167HK4    C2014001   2.760   0.346   6.095 -0.0557  0.6449 -0.3835
  167HK4     H914002   2.815   0.425   6.042  0.1907  0.4590 -0.4004
  167HK4    C1914003   2.729   0.234   6.019 -0.9937  0.8522 -0.3134
  167HK4    C1814004   2.656   0.126   6.083  0.4385  0.0246 -0.0645
  167HK4    C1714005   2.606   0.147   6.211 -0.3038  0.0995 -0.3641
  167HK4     H814006   2.533   0.076   6.250  0.2301 -1.1758 -1.6698
  167HK4     N114007   2.641   0.010   6.005 -0.0587 -0.0949  0.2110
  167HK4    C2114008   2.722   0.038   5.894  0.0265  0.4027  0.3964
  167HK4    C2214009   2.772   0.174   5.894 -0.2298  0.4984  0.1179
  167HK4    C2614010   2.854   0.218   5.791 -0.4492  0.4569 -0.0755
  167HK4    H1314011   2.866   0.326   5.781  0.4480  0.4230  0.4994
  167HK4    C2514012   2.892   0.134   5.687 -0.5992  0.0263  0.2184
  167HK4    H1214013   2.963   0.171   5.613  0.6989 -1.7377  0.5338
  167HK4    C2414014   2.845   0.003   5.692  0.2676 -0.2733  0.6348
  167HK4    H1114015   2.892  11.177   5.625  0.7524  0.5073  0.1091
  167HK4    C2314016   2.759  11.201   5.790 -0.0498  0.1523  0.5731
  167HK4    H1014017   2.693  11.119   5.765 -2.2216  1.1548  2.8783
  167HK4    C3914018   2.516  11.194   5.996 -0.1495  0.0246  0.5639
  167HK4    C4114019   2.511  11.060   5.951 -0.0466  0.3355 -0.3854
  167HK4    H2114020   2.598  10.996   5.971  0.2194  1.1331  1.1276
  167HK4    C4214021   2.394  11.011   5.895  0.1819  0.1945 -0.7415
  167HK4    H2214022   2.397  10.917   5.839  0.1988 -1.2504  1.6460
  167HK4    C4314023   2.277  11.085   5.884  0.0642  0.2162  0.6058
  167HK4    H2314024   2.186  11.035   5.850 -0.0005 -0.2827  1.4924
  167HK4    C4414025   2.274  11.216   5.931  0.1913  0.3916  0.1271
  167HK4    H2414026   2.183   0.030   5.928 -0.9827 -1.2968  0.2313
  167HK4    C4514027   2.394   0.015   5.981  0.2948  0.6225 -0.3413
  167HK4    H2514028   2.402   0.122   6.007  1.3955 -0.2711  3.2129
  168HK4    H2814029   1.173   4.412  10.471 -2.4725  1.2720  0.3149
  168HK4    C4814030   1.153   4.397  10.365  0.1718 -0.2241 -0.0129
  168HK4    C4714031   1.066   4.301  10.314  0.0060 -0.1398  0.1137
  168HK4    H2714032   1.038   4.215  10.375 -1.1127  1.1718  1.4907
  168HK4    C4614033   1.019   4.317  10.184 -0.3923 -0.3343  0.2318
  168HK4    H2614034   0.946   4.246  10.143  1.1747 -1.3386 -0.8798
  168HK4    C4014035   1.065   4.412  10.091  0.2047 -0.5403  0.3156
  168HK4    C5014036   1.163   4.498  10.146 -0.0526 -0.1949  0.2350
  168HK4    H3014037   1.195   4.578  10.078 -1.2421  0.2933  0.2350
  168HK4    C4914038   1.203   4.494  10.279  0.0082  0.0715  0.2271
  168HK4    H2914039   1.247   4.589  10.312  1.0945 -0.6063  0.7465
  168HK4     N214040   1.056   4.389   9.953  0.4612  0.2448  0.1630
  168HK4    C3014041   1.067   4.266   9.885  0.0579  0.3537 -0.1005
  168HK4    C2914042   1.154   4.162   9.917 -0.2063  0.1606 -0.0139
  168HK4    H1514043   1.210   4.174  10.010 -1.6464 -1.2411  1.0691
  168HK4    C2814044   1.170   4.052   9.834 -0.2554  0.1137  0.0390
  168HK4    C2714045   1.094   4.059   9.715 -0.1625 -0.0781 -0.0319
  168HK4    H1414046   1.093   3.969   9.651 -0.2880 -2.1302  2.7609
  168HK4    C3214047   1.024   4.168   9.667  0.2739  0.1811 -0.0804
  168HK4    H1614048   0.981   4.168   9.567  0.7586 -1.2149 -0.2956
  168HK4    C3114049   1.011   4.278   9.751  0.2371  0.2588 -0.1867
  168HK4    C3414050   0.964   4.414   9.733 -0.0777  0.1546 -0.1572
  168HK4    C3314051   0.997   4.477   9.859  0.4428 -0.1084 -0.1587
  168HK4    C3514052   0.951   4.607   9.873 -0.2959 -0.3843 -0.0104
  168HK4    H1714053   0.977   4.677   9.952 -1.4606 -0.8947  0.8517
  168HK4    C3614054   0.883   4.669   9.768 -0.4061 -0.0814  0.2393
  168HK4    H1814055   0.852   4.773   9.782 -1.3559  0.2072 -3.5300
  168HK4    C3714056   0.858   4.608   9.645  0.4353  0.5426 -0.2543
  168HK4    H1914057   0.807   4.664   9.567  1.8424 -0.2196 -1.7600
  168HK4    C3814058   0.906   4.479   9.625 -0.2078  0.2634 -0.0184
  168HK4    H2014059   0.874   4.427   9.535  0.2388  1.6043 -0.9739
  168HK4    C1414060   1.280   3.958   9.857 -0.1818  0.1685 -0.0850
  168HK4     C914061   1.350   3.915   9.744 -0.2268 -0.0022 -0.0482
  168HK4     C814062   1.404   3.785   9.738  0.3560  0.2244  0.2459
  168HK4    C1114063   1.388   3.702   9.849  0.4126  0.3008  0.3097
  168HK4     H414064   1.413   3.595   9.845 -1.7471 -0.2203  0.2284
  168HK4    C1214065   1.317   3.739   9.963  0.3373 -0.1033  0.3942
  168HK4     H514066   1.312   3.676  10.053  0.1833  1.1077  1.2527
  168HK4    C1314067   1.262   3.867   9.964  0.2543 -0.1340 -0.2674
  168HK4     H614068   1.188   3.902  10.037 -0.8411  1.0253 -1.9042
  168HK4     C714069   1.450   3.727   9.610  0.4978  0.7807  0.0460
  168HK4     O214070   1.537   3.641   9.610 -0.2013  0.0623 -0.8355
  168HK4     C414071   1.413   3.801   9.487  0.2716  0.2423 -0.2123
  168HK4     C314072   1.425   3.731   9.368 -0.4269  0.1226 -0.2142
  168HK4     H314073   1.461   3.627   9.363 -1.6710 -0.2531 -2.0307
  168HK4     C214074   1.394   3.792   9.247 -1.0657 -0.5159 -0.3741
  168HK4     H214075   1.412   3.744   9.149 -0.4583  0.8882 -0.9663
  168HK4     C114076   1.358   3.926   9.247 -0.3926 -0.3328  0.4247
  168HK4     H114077   1.335   3.979   9.153 -2.0783  0.2698  1.1629
  168HK4     C614078   1.359   3.997   9.369  0.3145 -0.1585  0.3197
  168HK4     C514079   1.384   3.939   9.494 -0.2397  0.0987  0.5448
  168HK4    C1014080   1.363   4.005   9.626 -0.3932  0.5047  0.3212
  168HK4     O114081   1.418   4.112   9.651  0.1289  0.2402  0.3102
  168HK4    C1614082   1.311   4.135   9.352 -0.0741 -0.3638 -0.2761
  168HK4    C1514083   1.204   4.174   9.270 -0.0240 -0.5913 -0.4510
  168HK4     H714084   1.114   4.111   9.277  0.5124 -1.1361  1.7396
  168HK4    C2014085   1.199   4.297   9.204  0.2349 -0.3842 -0.0873
  168HK4     H914086   1.103   4.329   9.164 -0.0657  0.3113  1.1782
  168HK4    C1914087   1.302   4.387   9.226  0.0484 -0.2164  0.0955
  168HK4    C1814088   1.415   4.349   9.309  0.0723  0.1622  0.2380
  168HK4    C1714089   1.413   4.226   9.375 -0.0196 -0.3272 -0.6619
  168HK4     H814090   1.500   4.197   9.434 -1.0284  0.3998  1.2348
  168HK4     N114091   1.512   4.450   9.319  0.2718  0.0009 -0.0705
  168HK4    C2114092   1.468   4.556   9.237 -0.2010 -0.2246 -0.1066
  168HK4    C2214093   1.338   4.521   9.183 -0.2139 -0.2047 -0.0896
  168HK4    C2614094   1.271   4.608   9.097  0.0170 -0.2874 -0.3495
  168HK4    H1314095   1.174   4.583   9.053  0.1205 -1.4408  0.0707
  168HK4    C2514096   1.333   4.727   9.062 -0.3270 -0.0114 -0.0066
  168HK4    H1214097   1.284   4.811   9.012  1.8368  1.2765 -0.0363
  168HK4    C2414098   1.458   4.760   9.113 -0.3339  0.3939 -0.2417
  168HK4    H1114099   1.521   4.833   9.060  0.1768 -0.2341 -0.5141
  168HK4    C2314100   1.526   4.678   9.202 -0.8931  0.1240 -0.0673
  168HK4    H1014101   1.623   4.717   9.231 -0.9314  1.4344 -1.6636
  168HK4    C3914102   1.584   4.470   9.437  0.2832  0.1608 -0.1007
  168HK4    C4114103   1.711   4.532   9.437  0.3537  0.0256  0.6105
  168HK4    H2114104   1.763   4.549   9.342 -1.2432  0.6952 -0.1678
  168HK4    C4214105   1.772   4.574   9.554  0.2110  0.9451  0.3585
  168HK4    H2214106   1.863   4.636   9.549  0.3590  0.8336  1.5397
  168HK4    C4314107   1.694   4.580   9.669 -0.0493  0.4126  0.2070
  168HK4    H2314108   1.735   4.641   9.749 -0.0377  1.9323 -0.9248
  168HK4    C4414109   1.567   4.525   9.677 -0.0299  0.2269 -0.6555
  168HK4    H2414110   1.512   4.559   9.766  1.8131  3.2309 -0.6238
  168HK4    C4514111   1.515   4.471   9.560 -0.2282 -0.1772 -0.3867
  168HK4    H2514112   1.419   4.418   9.570 -1.0341  1.5353  1.1131
  169HK4    H2814113   3.704   1.311   1.356  1.3490  0.7946  0.6239
  169HK4    C4814114   3.711   1.300   1.248  0.4447  0.3310  0.6093
  169HK4    C4714115   3.830   1.246   1.199  0.3682  0.2248  0.5407
  169HK4    H2714116   3.891   1.197   1.276 -0.0417 -0.0089  0.7178
  169HK4    C4614117   3.853   1.232   1.063 -0.3836 -0.1840  0.4544
  169HK4    H2614118   3.945   1.182   1.029 -0.3458  0.3153 -0.1880
  169HK4    C4014119   3.755   1.268   0.968  0.3207  0.4591 -0.0326
  169HK4    C5014120   3.634   1.320   1.021  0.0424  0.3111 -0.5230
  169HK4    H3014121   3.555   1.362   0.957 -1.2601 -1.1224  0.1493
  169HK4    C4914122   3.611   1.331   1.157  0.8341 -0.9383 -0.2727
  169HK4    H2914123   3.528   1.394   1.194  0.7328  1.0791 -3.6611
  169HK4     N214124   3.790   1.282   0.833  0.0850  0.3331 -0.1072
  169HK4    C3014125   3.924   1.284   0.789  0.0387  0.6479 -0.2313
  169HK4    C2914126   4.022   1.363   0.848  0.1550  0.2960  0.0448
  169HK4    H1514127   3.993   1.410   0.941 -0.4882 -0.9014  0.4552
  169HK4    C2814128   4.140   1.377   0.775  0.0971  0.2361 -0.0611
  169HK4    C2714129   4.152   1.317   0.648  0.1846 -0.3852  0.2385
  169HK4    H1414130   4.248   1.322   0.594  0.6545 -2.4171  0.8468
  169HK4    C3214131   4.052   1.240   0.590 -0.1049  0.2854 -0.1643
  169HK4    H1614132   4.080   1.169   0.513  0.1918  0.2375 -0.0155
  169HK4    C3114133   3.930   1.228   0.655  0.1565 -0.3848  0.2060
  169HK4    C3414134   3.796   1.187   0.618  0.1362 -0.2128  0.0885
  169HK4    C3314135   3.712   1.230   0.728  0.1678 -0.3228  0.1556
  169HK4    C3514136   3.574   1.217   0.721  0.1549 -0.5065  0.6834
  169HK4    H1714137   3.514   1.242   0.808 -0.4042 -1.5059  0.5894
  169HK4    C3614138   3.515   1.157   0.611  0.1072 -0.1186  0.4934
  169HK4    H1814139   3.410   1.180   0.586 -0.0017  0.2473  1.2830
  169HK4    C3714140   3.598   1.104   0.513  0.0044  0.7574 -0.0708
  169HK4    H1914141   3.554   1.027   0.449  1.0083 -0.2650  0.4424
  169HK4    C3814142   3.736   1.122   0.511  0.1025  0.0374 -0.0430
  169HK4    H2014143   3.803   1.066   0.446  0.0527  1.8011 -1.6761
  169HK4    C1414144   4.237   1.480   0.816 -0.4885  0.6509  0.2964
  169HK4     C914145   4.318   1.540   0.719  0.1130 -0.3020  0.2005
  169HK4     C814146   4.453   1.566   0.749  0.0838  0.0849  0.0100
  169HK4    C1114147   4.506   1.541   0.875 -0.1235 -0.3679  0.0075
  169HK4     H414148   4.615   1.554   0.886 -0.0660  0.6599 -1.6708
  169HK4    C1214149   4.424   1.499   0.979 -0.7244  0.9124  0.0599
  169HK4     H514150   4.464   1.506   1.081 -0.5585 -2.5984  0.2956
  169HK4    C1314151   4.292   1.470   0.946 -0.5581 -0.1294  0.2673
  169HK4     H614152   4.219   1.449   1.025  1.6010 -0.6629  2.1579
  169HK4     C714153   4.544   1.603   0.639 -0.1681 -0.2229 -0.3015
  169HK4     O214154   4.647   1.661   0.672 -0.6276  0.1939  0.4130
  169HK4     C414155   4.492   1.623   0.502 -0.1231 -0.8482 -0.4088
  169HK4     C314156   4.586   1.641   0.402 -0.2381 -0.9787 -0.5416
  169HK4     H314157   4.694   1.617   0.406  0.3169  1.0255 -2.5750
  169HK4     C214158   4.539   1.662   0.273 -0.3928 -0.1298 -0.3495
  169HK4     H214159   4.604   1.682   0.187 -1.1591  1.4711 -0.5680
  169HK4     C114160   4.404   1.655   0.240 -0.4377  0.4560 -0.2899
  169HK4     H114161   4.367   1.674   0.138 -1.0004  1.9196  0.1775
  169HK4     C614162   4.312   1.618   0.340  0.3559 -0.3161  0.1598
  169HK4     C514163   4.353   1.618   0.474 -0.3215  0.1437  0.3729
  169HK4    C1014164   4.263   1.588   0.589 -0.2148 -0.2558  0.3556
  169HK4     O114165   4.160   1.655   0.594 -0.0563  0.0064  0.1148
  169HK4    C1614166   4.208   1.526   0.293 -0.0198  0.0094  0.3468
  169HK4    C1514167   4.234   1.428   0.194 -0.0263  0.7739 -0.4219
  169HK4     H714168   4.333   1.430   0.145 -0.2979  0.3805 -0.9816
  169HK4    C2014169   4.133   1.346   0.145 -0.1251  0.4650  0.2878
  169HK4     H914170   4.154   1.258   0.084 -2.5153  1.7170 -2.4504
  169HK4    C1914171   4.001   1.358   0.186 -0.2108 -0.2602  0.2205
  169HK4    C1814172   3.973   1.470   0.274  0.1946  0.1488 -0.1688
  169HK4    C1714173   4.075   1.548   0.326 -0.0359  0.2633  0.1094
  169HK4     H814174   4.046   1.641   0.376  2.7775  2.0320 -1.4316
  169HK4     N114175   3.833   1.487   0.275  0.1933  0.1514 -0.3872
  169HK4    C2114176   3.776   1.385   0.195  0.2560  0.0671 -0.3243
  169HK4    C2214177   3.878   1.303   0.132  0.0264 -0.0749 -0.5127
  169HK4    C2614178   3.848   1.184   0.068  0.0409 -0.2130 -0.2629
  169HK4    H1314179   3.923   1.122   0.020 -0.5416 -1.5759  0.5210
  169HK4    C2514180   3.715   1.141   0.063  0.1204 -0.5360  0.2641
  169HK4    H1214181   3.701   1.043   0.018  0.9936 -0.6876  0.3003
  169HK4    C2414182   3.616   1.215   0.126  0.1415  0.0717 -0.4088
  169HK4    H1114183   3.519   1.169   0.150  0.7408 -0.1621  1.6266
  169HK4    C2314184   3.646   1.339   0.182  0.3170 -0.2594  0.2263
  169HK4    H1014185   3.561   1.399   0.215  0.7408  1.3729 -1.5793
  169HK4    C3914186   3.766   1.541   0.385  0.4981 -0.1503 -0.0551
  169HK4    C4114187   3.631   1.579   0.374  0.6148  0.1277 -0.5135
  169HK4    H2114188   3.592   1.601   0.273 -0.3665  0.8733  0.0115
  169HK4    C4214189   3.551   1.612   0.483  0.3267 -0.5126 -0.5320
  169HK4    H2214190   3.443   1.623   0.467  0.6709  2.5940 -0.9595
  169HK4    C4314191   3.606   1.597   0.610  0.2721  0.7064 -0.3631
  169HK4    H2314192   3.547   1.607   0.702  1.4418  1.6561  0.2882
  169HK4    C4414193   3.738   1.562   0.631 -0.1321 -0.6089  0.0361
  169HK4    H2414194   3.789   1.573   0.728 -1.7342  1.5365  0.6622
  169HK4    C4514195   3.815   1.537   0.518  0.0283 -0.4661  0.1126
  169HK4    H2514196   3.915   1.493   0.527 -0.0137 -0.7746 -0.7815
  170HK4    H2814197   3.113   8.425   9.015 -0.4171  0.8771 -1.0855
  170HK4    C4814198   3.069   8.328   8.988  0.5214  0.1164  0.0916
  170HK4    C4714199   2.937   8.306   9.024  0.1874  0.2482 -1.0609
  170HK4    H2714200   2.886   8.382   9.084 -1.8916 -0.5298 -1.7657
  170HK4    C4614201   2.853   8.220   8.953 -0.5189  0.1484 -0.1081
  170HK4    H2614202   2.760   8.191   9.004 -0.7807  1.6014  0.2715
  170HK4    C4014203   2.902   8.148   8.843  0.0064  0.6631 -0.2133
  170HK4    C5014204   3.040   8.157   8.816  0.0784  0.3198  0.0317
  170HK4    H3014205   3.080   8.092   8.736 -2.2275  0.3998 -1.2476
  170HK4    C4914206   3.118   8.249   8.885  0.4104 -0.0804  0.1871
  170HK4    H2914207   3.223   8.263   8.856  0.1153 -0.4949 -1.1264
  170HK4     N214208   2.815   8.104   8.742 -0.2214 -0.4559  0.4592
  170HK4    C3014209   2.684   8.146   8.710  0.0224  0.0490  0.1036
  170HK4    C2914210   2.596   8.234   8.773 -0.1241 -0.1778  0.2176
  170HK4    H1514211   2.638   8.308   8.842  0.8824  0.3583 -0.9424
  170HK4    C2814212   2.461   8.237   8.744 -0.0932 -0.2920  0.0641
  170HK4    C2714213   2.413   8.173   8.628 -0.2187 -0.1624  0.0419
  170HK4    H1414214   2.305   8.184   8.610 -0.1773  0.2936  0.0615
  170HK4    C3214215   2.501   8.094   8.554  0.0730  0.1463  0.0587
  170HK4    H1614216   2.464   8.038   8.468  0.1231 -0.8477  0.6741
  170HK4    C3114217   2.633   8.078   8.592  0.1133  0.2338 -0.0427
  170HK4    C3414218   2.738   7.989   8.547  0.2732  0.4248 -0.0471
  170HK4    C3314219   2.842   8.004   8.647  0.2441  0.0692  0.0327
  170HK4    C3514220   2.930   7.898   8.667  0.0675 -0.0405  0.2384
  170HK4    H1714221   3.000   7.896   8.751  0.4286 -1.1723 -0.0857
  170HK4    C3614222   2.931   7.786   8.586  0.0333  0.2542 -0.1691
  170HK4    H1814223   3.011   7.712   8.601  1.1175  1.0808 -1.7758
  170HK4    C3714224   2.832   7.773   8.490  0.3015  0.4832 -0.4779
  170HK4    H1914225   2.805   7.674   8.452 -1.1472  0.9868 -0.7797
  170HK4    C3814226   2.741   7.875   8.467 -0.2001  0.2025  0.2509
  170HK4    H2014227   2.666   7.869   8.388 -1.8840  1.6908  1.6700
  170HK4    C1414228   2.362   8.274   8.847 -0.2935 -0.0294 -0.2192
  170HK4     C914229   2.238   8.215   8.874 -0.0481 -0.4229  0.0433
  170HK4     C814230   2.135   8.292   8.931  0.1246 -0.0362 -0.1636
  170HK4    C1114231   2.156   8.426   8.961  0.6352 -0.0680 -0.3720
  170HK4     H414232   2.075   8.498   8.977  1.3091  1.2147 -2.4281
  170HK4    C1214233   2.282   8.484   8.944  0.5269  0.2116 -0.2331
  170HK4     H514234   2.301   8.579   8.995 -1.4585  2.0233 -2.6958
  170HK4    C1314235   2.383   8.408   8.886  0.6507 -0.5093  0.9292
  170HK4     H614236   2.468   8.468   8.852  0.5941 -1.1755 -0.4029
  170HK4     C714237   1.997   8.241   8.946 -0.0258  0.2800 -0.4930
  170HK4     O214238   1.927   8.288   9.035  0.3694  0.4139 -0.2530
  170HK4     C414239   1.966   8.105   8.897 -0.1782  0.2476 -0.3156
  170HK4     C314240   1.837   8.055   8.909  0.1881 -0.6896 -0.2948
  170HK4     H314241   1.757   8.104   8.967  0.0415  1.3440 -2.1711
  170HK4     C214242   1.803   7.935   8.846 -1.0199 -0.2172 -0.5746
  170HK4     H214243   1.698   7.908   8.834 -1.8580  1.4111  2.4914
  170HK4     C114244   1.900   7.863   8.777  0.1119 -0.3231  1.0796
  170HK4     H114245   1.873   7.767   8.731 -0.0212  0.4103 -0.4200
  170HK4     C614246   2.030   7.917   8.763 -0.1713  0.0457 -0.1690
  170HK4     C514247   2.067   8.033   8.831 -0.2088  0.0334 -0.1281
  170HK4    C1014248   2.210   8.072   8.842 -0.1152 -0.6026  0.9203
  170HK4     O114249   2.301   7.990   8.855  0.0703 -0.5621 -0.1385
  170HK4    C1614250   2.092   7.871   8.638 -0.4683 -0.2135 -0.2246
  170HK4    C1514251   2.032   7.864   8.510 -0.4603 -0.3829 -0.2186
  170HK4     H714252   1.932   7.907   8.494 -0.5697 -0.4271  0.3392
  170HK4    C2014253   2.101   7.826   8.396  0.1338 -0.1780  0.0702
  170HK4     H914254   2.049   7.830   8.300  2.0348  0.4904 -0.9698
  170HK4    C1914255   2.230   7.775   8.407  0.2965  0.2533  0.1868
  170HK4    C1814256   2.276   7.745   8.542  0.3266 -0.0936  0.0974
  170HK4    C1714257   2.208   7.795   8.652 -0.7044 -0.5890 -0.2985
  170HK4     H814258   2.234   7.767   8.754 -1.9963  1.5872  0.6647
  170HK4     N114259   2.387   7.659   8.532 -0.0501 -0.5750 -0.0261
  170HK4    C2114260   2.417   7.632   8.397  0.4644  0.0501 -0.0382
  170HK4    C2214261   2.323   7.709   8.317  0.3426  0.2154  0.2614
  170HK4    C2614262   2.325   7.690   8.180 -0.2355  0.3927  0.2261
  170HK4    H1314263   2.261   7.747   8.113  2.4209 -0.2654 -3.0032
  170HK4    C2514264   2.404   7.593   8.118 -0.0300  0.2708  0.6737
  170HK4    H1214265   2.398   7.581   8.009 -1.6948  2.5605  0.4661
  170HK4    C2414266   2.498   7.527   8.196  0.4751 -0.3567 -0.4545
  170HK4    H1114267   2.553   7.442   8.154 -0.1584 -1.1967  0.3742
  170HK4    C2314268   2.507   7.548   8.333 -0.0258 -0.1623 -0.4518
  170HK4    H1014269   2.569   7.480   8.392  0.8849 -0.2285 -1.4692
  170HK4    C3914270   2.480   7.653   8.637  0.1161  0.4934 -0.1020
  170HK4    C4114271   2.558   7.537   8.657  0.1348  0.5370  0.0766
  170HK4    H2114272   2.529   7.439   8.616  0.7419  0.2342  0.3515
  170HK4    C4214273   2.672   7.534   8.737  0.2945 -0.4411 -0.1726
  170HK4    H2214274   2.741   7.449   8.731  0.0560 -0.7753  1.4784
  170HK4    C4314275   2.709   7.647   8.811  0.1874 -0.0597 -0.7012
  170HK4    H2314276   2.812   7.658   8.843 -0.2624 -1.7650  1.4841
  170HK4    C4414277   2.628   7.760   8.805  0.2527  0.0283  0.1055
  170HK4    H2414278   2.649   7.847   8.868  1.6859 -0.4149  0.2609
  170HK4    C4514279   2.524   7.763   8.713  0.3769  0.3379 -0.0259
  170HK4    H2514280   2.468   7.856   8.696  0.6012  0.4380 -0.2135
  171HK4    H2814281  10.939   3.518   5.552 -1.9654 -0.8825 -1.4449
  171HK4    C4814282  10.888   3.480   5.640  0.2613 -0.1310  0.2064
  171HK4    C4714283  10.958   3.468   5.760 -0.2220 -0.1924  0.4799
  171HK4    H2714284  11.063   3.498   5.764 -0.1965  0.0270 -1.5294
  171HK4    C4614285  10.890   3.423   5.874 -0.2355 -0.2741  0.4375
  171HK4    H2614286  10.936   3.448   5.971  1.9911 -1.6775 -0.2104
  171HK4    C4014287  10.753   3.392   5.871 -0.2811 -0.0828  0.5107
  171HK4    C5014288  10.690   3.416   5.747  0.1012 -0.2188  0.2869
  171HK4    H3014289  10.588   3.376   5.734 -0.0739 -0.3208  1.8495
  171HK4    C4914290  10.751   3.464   5.632  0.2429 -0.1122  0.4065
  171HK4    H2914291  10.693   3.515   5.553  1.9088 -0.6776 -1.2198
  171HK4     N214292  10.686   3.349   5.986 -0.0378 -0.3885  0.5384
  171HK4    C3014293  10.736   3.281   6.098  0.2721 -0.1717  0.5323
  171HK4    C2914294  10.859   3.222   6.125  0.5062  0.0555 -0.0344
  171HK4    H1514295  10.942   3.233   6.055  1.2461 -1.5695  0.5439
  171HK4    C2814296  10.886   3.144   6.237 -0.1016 -0.3524 -0.1712
  171HK4    C2714297  10.779   3.126   6.327  0.0463 -0.0959  0.0584
  171HK4    H1414298  10.788   3.067   6.419  0.3389  1.2558  0.9069
  171HK4    C3214299  10.657   3.192   6.315 -0.1670 -0.4686  0.1881
  171HK4    H1614300  10.583   3.177   6.394 -0.7619  0.0751 -0.2643
  171HK4    C3114301  10.633   3.265   6.199 -0.1638 -0.7547  0.0053
  171HK4    C3414302  10.515   3.329   6.146  0.3295  0.2089  0.0546
  171HK4    C3314303  10.556   3.390   6.022 -0.1438 -0.0367 -0.2231
  171HK4    C3514304  10.473   3.490   5.971  0.1344  0.5966  0.5624
  171HK4    H1714305  10.491   3.523   5.869 -1.6885 -0.9326 -0.2907
  171HK4    C3614306  10.356   3.528   6.037 -0.0819  0.9354 -0.0093
  171HK4    H1814307  10.280   3.584   5.981  1.9553  1.4822 -2.2907
  171HK4    C3714308  10.314   3.473   6.158  0.0905 -0.0703 -0.4035
  171HK4    H1914309  10.226   3.503   6.214  0.1057 -1.5480  0.4568
  171HK4    C3814310  10.395   3.370   6.205  0.0306 -0.0901 -0.3426
  171HK4    H2014311  10.359   3.307   6.287  0.6135 -1.8114 -1.3744
  171HK4    C1414312  11.007   3.062   6.253 -0.0410 -0.2059  0.1345
  171HK4     C914313  11.018   2.952   6.339 -0.2354  0.0767  0.5214
  171HK4     C814314  11.132   2.927   6.417  0.0138 -0.2352  0.0623
  171HK4    C1114315  11.247   3.002   6.394 -0.1252 -0.1343 -0.2898
  171HK4     H414316   0.085   2.984   6.460  1.5148  0.1066 -2.3091
  171HK4    C1214317  11.246   3.100   6.296 -0.2285  0.0732 -0.0822
  171HK4     H514318   0.094   3.149   6.269  0.3593 -1.2596 -0.4826
  171HK4    C1314319  11.128   3.130   6.229 -0.1595 -0.1466 -0.3060
  171HK4     H614320  11.138   3.199   6.144  1.1354 -1.2178 -1.0422
  171HK4     C714321  11.125   2.819   6.519 -0.2533  0.1473  0.4532
  171HK4     O214322  11.214   2.807   6.603 -0.0351  0.6292  0.2900
  171HK4     C414323  11.001   2.739   6.528 -0.1960  0.0403  0.3372
  171HK4     C314324  10.993   2.649   6.634  0.3727  0.1831  0.5078
  171HK4     H314325  11.076   2.636   6.705  2.2771  1.0297 -1.5362
  171HK4     C214326  10.875   2.582   6.666  0.2235  0.4195  0.4447
  171HK4     H214327  10.883   2.489   6.723  0.1673 -1.3118 -2.2987
  171HK4     C114328  10.759   2.616   6.597  0.3743  0.1206  0.0373
  171HK4     H114329  10.664   2.570   6.630  0.1036  1.3649  1.0431
  171HK4     C614330  10.762   2.710   6.492 -0.2903  0.1984  0.0860
  171HK4     C514331  10.886   2.761   6.451 -0.1175 -0.1517  0.1662
  171HK4    C1014332  10.905   2.856   6.337 -0.3391  0.2017  0.4226
  171HK4     O114333  10.876   2.815   6.225  0.1029  0.0507  0.3627
  171HK4    C1614334  10.640   2.792   6.486 -0.5384 -0.1705  0.0748
  171HK4    C1514335  10.570   2.823   6.604  0.6214  0.0813  0.6977
  171HK4     H714336  10.607   2.805   6.706 -0.0344  0.9298  1.0889
  171HK4    C2014337  10.454   2.898   6.591  0.5653 -0.1070  0.0685
  171HK4     H914338  10.396   2.938   6.674  1.2891  2.7132 -0.7241
  171HK4    C1914339  10.405   2.929   6.465  0.2727  0.7155  0.3809
  171HK4    C1814340  10.465   2.882   6.342  0.1210  0.9474  0.2181
  171HK4    C1714341  10.583   2.811   6.360 -0.3888  0.0374  0.0405
  171HK4     H814342  10.625   2.745   6.284  0.6524  0.4279  0.2614
  171HK4     N114343  10.397   2.918   6.224 -0.3328 -0.5260  0.0193
  171HK4    C2114344  10.298   3.004   6.275  0.0501 -0.1444  0.1209
  171HK4    C2214345  10.294   3.011   6.420  0.3010  0.5933  0.0936
  171HK4    C2614346  10.187   3.072   6.483 -0.0279  0.1696 -0.0540
  171HK4    H1314347  10.176   3.064   6.591  2.1216 -0.1353  0.1462
  171HK4    C2514348  10.084   3.132   6.411 -0.2715 -0.5709 -0.3217
  171HK4    H1214349  10.014   3.196   6.464  0.7974 -0.0750  0.5115
  171HK4    C2414350  10.090   3.129   6.272 -0.0724  0.1580 -0.3263
  171HK4    H1114351  10.036   3.199   6.207  0.7365  2.1235  1.0605
  171HK4    C2314352  10.194   3.065   6.205  0.5203  0.6506  0.1163
  171HK4    H1014353  10.201   3.060   6.096  1.6049  2.0911  0.0974
  171HK4    C3914354  10.458   2.902   6.099  0.1223 -0.3079  0.2126
  171HK4    C4114355  10.382   2.894   5.981  0.0462 -0.2781  0.2614
  171HK4    H2114356  10.292   2.831   5.991 -0.3732  0.2548 -0.1333
  171HK4    C4214357  10.423   2.945   5.859  0.2464 -1.0756 -0.0094
  171HK4    H2214358  10.355   2.966   5.776 -0.3771 -1.2900  0.4474
  171HK4    C4314359  10.556   2.984   5.843  0.0245 -0.2764  0.0616
  171HK4    H2314360  10.598   3.009   5.745  0.3652 -0.6623  0.1088
  171HK4    C4414361  10.641   2.983   5.952  0.1030  0.1341  0.0048
  171HK4    H2414362  10.749   3.003   5.939  0.6825 -1.7528  1.5772
  171HK4    C4514363  10.590   2.945   6.076 -0.0131 -0.0584 -0.1034
  171HK4    H2514364  10.651   2.970   6.164 -0.7604 -1.0072  0.6955
  172HK4    H2814365   8.068   9.232   6.797 -0.3929 -0.7698 -0.1305
  172HK4    C4814366   8.129   9.171   6.864  0.6944  0.2984 -0.1321
  172HK4    C4714367   8.153   9.196   6.998  0.4248  0.5503 -0.1326
  172HK4    H2714368   8.080   9.263   7.048 -2.3427 -1.9261 -0.7017
  172HK4    C4614369   8.243   9.123   7.074 -0.1545 -0.3263 -0.2884
  172HK4    H2614370   8.286   9.163   7.167  1.0318  1.7291 -1.7035
  172HK4    C4014371   8.302   9.007   7.020  0.2384 -0.0695 -0.4169
  172HK4    C5014372   8.275   8.975   6.886 -0.2004  0.3415 -0.4227
  172HK4    H3014373   8.326   8.894   6.831 -1.9071  1.1063 -3.2490
  172HK4    C4914374   8.189   9.056   6.812 -0.6892 -0.2567 -0.5118
  172HK4    H2914375   8.148   9.014   6.719  0.7911  1.5757 -2.0215
  172HK4     N214376   8.341   8.901   7.103 -0.5216 -0.1446 -0.1581
  172HK4    C3014377   8.303   8.876   7.237 -0.0218  0.0964  0.0312
  172HK4    C2914378   8.213   8.948   7.315  0.4251  0.2004  0.4507
  172HK4    H1514379   8.194   9.053   7.296  1.7712  0.2701 -0.6257
  172HK4    C2814380   8.166   8.893   7.434 -0.5147 -0.2103 -0.1042
  172HK4    C2714381   8.208   8.764   7.472  0.0900 -0.1199 -0.4501
  172HK4    H1414382   8.160   8.722   7.562  1.6384  2.7523  1.7790
  172HK4    C3214383   8.296   8.690   7.394  0.4469 -0.2276  0.0496
  172HK4    H1614384   8.322   8.589   7.426 -1.2507 -0.2261  1.5477
  172HK4    C3114385   8.344   8.742   7.274 -0.1736  0.0106 -0.1018
  172HK4    C3414386   8.428   8.692   7.167 -0.3286 -0.0570 -0.1879
  172HK4    C3314387   8.428   8.796   7.066 -0.2952  0.0230 -0.1041
  172HK4    C3514388   8.517   8.786   6.960 -0.6329 -0.1211 -0.3724
  172HK4    H1714389   8.507   8.854   6.875  0.6993  1.0806  0.3971
  172HK4    C3614390   8.614   8.687   6.956 -0.5209 -0.0230 -0.1848
  172HK4    H1814391   8.710   8.710   6.907 -1.0269 -0.6527 -1.5276
  172HK4    C3714392   8.613   8.586   7.051 -0.2790  0.2826  0.1396
  172HK4    H1914393   8.678   8.499   7.039  0.4792  1.0429 -1.4096
  172HK4    C3814394   8.519   8.588   7.154 -0.3096 -0.0831  0.1207
  172HK4    H2014395   8.518   8.497   7.214  2.7842 -0.5158 -0.3824
  172HK4    C1414396   8.092   8.975   7.531 -0.0576 -0.1796  0.2212
  172HK4     C914397   8.090   8.949   7.668 -0.2595  0.4006  0.3267
  172HK4     C814398   7.973   8.970   7.744 -0.2851  0.3408  0.3048
  172HK4    C1114399   7.866   9.033   7.683 -0.5216 -0.3728 -0.0244
  172HK4     H414400   7.766   9.031   7.730 -0.0740 -1.3340  0.9011
  172HK4    C1214401   7.865   9.062   7.547  0.2404  0.0249  0.0523
  172HK4     H514402   7.768   9.098   7.508  0.4194 -1.7114 -2.1049
  172HK4    C1314403   7.977   9.030   7.471 -0.0443 -0.5329 -0.1352
  172HK4     H614404   7.962   9.045   7.363 -0.9040  0.0815  0.0668
  172HK4     C714405   7.962   8.929   7.886  0.1297 -0.0909  0.2146
  172HK4     O214406   7.854   8.888   7.930 -0.0666  0.0416 -0.1419
  172HK4     C414407   8.081   8.887   7.963  0.3118  0.3819  0.1881
  172HK4     C314408   8.080   8.865   8.101 -0.0237 -0.0726  0.1141
  172HK4     H314409   7.982   8.871   8.150 -0.5005  3.5689 -1.0719
  172HK4     C214410   8.197   8.842   8.172 -0.0147  0.2851  0.2108
  172HK4     H214411   8.193   8.838   8.282 -0.6008  2.8452  0.3240
  172HK4     C114412   8.316   8.839   8.101  0.0140  0.4691  0.2452
  172HK4     H114413   8.406   8.814   8.159  0.7421 -1.3797 -1.6095
  172HK4     C614414   8.325   8.849   7.960  0.1311 -0.2929  0.1978
  172HK4     C514415   8.205   8.886   7.897  0.2163 -0.3285  0.0178
  172HK4    C1014416   8.210   8.926   7.754 -0.1751  0.5186  0.2382
  172HK4     O114417   8.315   8.976   7.713  0.1446 -0.4537 -0.1639
  172HK4    C1614418   8.423   8.755   7.903  0.6528  0.2382  0.2194
  172HK4    C1514419   8.450   8.630   7.962 -0.2402 -0.4818 -0.8813
  172HK4     H714420   8.373   8.567   8.009 -0.1428  0.1127  0.0823
  172HK4    C2014421   8.569   8.558   7.951  0.0373 -0.1619 -0.0335
  172HK4     H914422   8.584   8.485   8.031 -0.9029 -0.4663 -0.1308
  172HK4    C1914423   8.667   8.614   7.870 -0.0698 -0.2938 -0.2582
  172HK4    C1814424   8.640   8.739   7.802  0.4321  0.1589  0.3706
  172HK4    C1714425   8.520   8.807   7.819  0.5650  0.4316  0.2326
  172HK4     H814426   8.527   8.911   7.787  1.7890  0.3096  0.0830
  172HK4     N114427   8.756   8.789   7.739  0.4380  0.4344  0.6034
  172HK4    C2114428   8.860   8.705   7.785  0.4371  0.0199 -0.1604
  172HK4    C2214429   8.810   8.591   7.859 -0.0242  0.0635 -0.4064
  172HK4    C2614430   8.890   8.521   7.947 -0.0504  0.6178  0.0624
  172HK4    H1314431   8.847   8.424   7.973 -2.1483  1.4281 -0.3097
  172HK4    C2514432   9.023   8.558   7.965  0.1953 -0.4812  0.5838
  172HK4    H1214433   9.088   8.503   8.032  0.2437  1.6655  2.3813
  172HK4    C2414434   9.073   8.673   7.903 -0.5136 -0.2442  0.4477
  172HK4    H1114435   9.174   8.708   7.928 -0.7620  0.0653  1.0384
  172HK4    C2314436   8.990   8.743   7.816  0.4298  0.0756 -0.1899
  172HK4    H1014437   9.013   8.848   7.794 -0.6450  0.0852 -1.2708
  172HK4    C3914438   8.761   8.851   7.614  0.1755 -0.5924  0.0832
  172HK4    C4114439   8.880   8.897   7.554 -0.0808 -0.1867 -0.1237
  172HK4    H2114440   8.967   8.919   7.617 -0.7721 -0.8989  1.0973
  172HK4    C4214441   8.890   8.922   7.418 -0.3315  0.4140 -0.0304
  172HK4    H2214442   8.987   8.959   7.383 -0.8885 -0.0338 -2.1227
  172HK4    C4314443   8.777   8.917   7.336 -0.3577 -0.2832  0.0536
  172HK4    H2314444   8.779   8.950   7.232  2.9199  0.7168  0.3740
  172HK4    C4414445   8.654   8.882   7.388 -0.7895  0.6529 -0.3240
  172HK4    H2414446   8.561   8.901   7.331  1.0504  1.2872 -3.2081
  172HK4    C4514447   8.652   8.853   7.524  0.5361  0.5485 -0.3266
  172HK4    H2514448   8.554   8.836   7.570  0.7189 -0.1919 -0.1911
  173HK4    H2814449   5.230   6.392   2.910  0.0064  0.4269  0.4234
  173HK4    C4814450   5.290   6.306   2.941 -0.4190 -0.0335 -0.0209
  173HK4    C4714451   5.353   6.236   2.839 -0.0557  0.1037  0.1093
  173HK4    H2714452   5.310   6.231   2.738  2.5091 -2.9028 -0.9149
  173HK4    C4614453   5.462   6.156   2.869  0.2760  0.3632 -0.4055
  173HK4    H2614454   5.538   6.131   2.793 -1.2802 -1.3333 -1.4253
  173HK4    C4014455   5.500   6.137   3.003  0.1823  0.0697 -0.4207
  173HK4    C5014456   5.441   6.214   3.106  0.1280 -0.1961 -0.2522
  173HK4    H3014457   5.485   6.230   3.206 -1.3371  0.3314  0.3215
  173HK4    C4914458   5.329   6.290   3.074 -0.2950 -0.7649 -0.1438
  173HK4    H2914459   5.254   6.321   3.148  1.3339  1.4755  0.6404
  173HK4     N214460   5.531   6.008   3.047  0.3362  0.0850 -0.4883
  173HK4    C3014461   5.498   5.887   2.983 -0.2900  0.0978 -0.1912
  173HK4    C2914462   5.383   5.858   2.911  0.0369  0.2719 -0.7802
  173HK4    H1514463   5.303   5.931   2.897 -0.3035 -0.3741 -2.3135
  173HK4    C2814464   5.363   5.734   2.850 -0.0730 -0.1452  0.0942
  173HK4    C2714465   5.457   5.635   2.885  0.3824  0.3217  0.2127
  173HK4    H1414466   5.445   5.536   2.837  2.9230  0.8724 -1.6610
  173HK4    C3214467   5.566   5.654   2.969  0.1992 -0.1177  0.5509
  173HK4    H1614468   5.645   5.580   2.983 -0.7918 -1.0071  1.5157
  173HK4    C3114469   5.595   5.782   3.013 -0.4301  0.1055  0.3077
  173HK4    C3414470   5.687   5.837   3.111 -0.3819 -0.0878  0.3708
  173HK4    C3314471   5.636   5.971   3.134 -0.1520  0.0495  0.0878
  173HK4    C3514472   5.702   6.051   3.226  0.2008 -0.3405  0.1790
  173HK4    H1714473   5.662   6.153   3.233  1.9329  0.3548  0.1174
  173HK4    C3614474   5.817   6.013   3.294 -0.2409 -0.2489  0.9839
  173HK4    H1814475   5.862   6.081   3.368 -0.0347  0.9988 -0.2608
  173HK4    C3714476   5.864   5.886   3.268  0.5716  0.3409 -0.4832
  173HK4    H1914477   5.942   5.843   3.331 -1.9720 -3.0029  0.5524
  173HK4    C3814478   5.800   5.798   3.181  0.0242  0.3195 -0.0563
  173HK4    H2014479   5.828   5.694   3.167 -0.4471 -0.1088  2.0643
  173HK4    C1414480   5.239   5.711   2.775  0.4515 -0.5724 -0.6452
  173HK4     C914481   5.175   5.587   2.766 -0.2273 -0.2664 -0.0632
  173HK4     C814482   5.136   5.538   2.640  0.1006 -0.4933 -0.0767
  173HK4    C1114483   5.162   5.610   2.524  0.4454 -0.2608  0.1460
  173HK4     H414484   5.183   5.559   2.429  1.2671  0.8383 -0.2664
  173HK4    C1214485   5.206   5.741   2.536 -0.2144 -0.0537  0.3315
  173HK4     H514486   5.217   5.799   2.443  0.2358 -1.0491 -0.2432
  173HK4    C1314487   5.243   5.793   2.660  0.4968  0.3025 -0.0294
  173HK4     H614488   5.258   5.901   2.667  2.2198 -0.0219  1.8087
  173HK4     C714489   5.049   5.418   2.636  0.3504 -0.6782  0.0706
  173HK4     O214490   5.063   5.345   2.538  0.0522 -0.2836 -0.2650
  173HK4     C414491   4.977   5.373   2.757 -0.4466  0.1004 -0.1108
  173HK4     C314492   4.874   5.282   2.736 -0.4292  0.1485 -0.4196
  173HK4     H314493   4.878   5.220   2.646  0.2170 -0.4259 -0.0004
  173HK4     C214494   4.789   5.256   2.843  0.5702 -0.1157  0.3150
  173HK4     H214495   4.705   5.186   2.832  0.6532 -0.0980 -0.4182
  173HK4     C114496   4.817   5.325   2.961 -0.0478  0.4198  0.1496
  173HK4     H114497   4.742   5.305   3.039 -1.4964 -1.4308 -1.6579
  173HK4     C614498   4.918   5.418   2.991 -0.1553  0.5870 -0.0022
  173HK4     C514499   5.001   5.438   2.880 -0.1397 -0.0332 -0.1001
  173HK4    C1014500   5.124   5.522   2.890  0.1781 -0.5049 -0.0241
  173HK4     O114501   5.205   5.507   2.981  0.2697 -0.3489 -0.0806
  173HK4    C1614502   4.936   5.443   3.134  0.4482 -0.3957  0.0943
  173HK4    C1514503   4.885   5.352   3.229 -0.2786 -0.0642  0.0182
  173HK4     H714504   4.894   5.246   3.204 -0.3718 -0.0259 -0.1748
  173HK4    C2014505   4.886   5.386   3.364 -0.5449 -0.5256  0.1366
  173HK4     H914506   4.866   5.324   3.451  2.1849 -1.8393 -0.1271
  173HK4    C1914507   4.929   5.512   3.403  0.1274 -0.7318  0.0630
  173HK4    C1814508   4.995   5.603   3.310 -0.0543 -0.1584  0.4938
  173HK4    C1714509   4.988   5.565   3.177 -0.8546  0.0287  0.4801
  173HK4     H814510   4.997   5.653   3.112 -2.4544 -0.3059 -0.2320
  173HK4     N114511   5.046   5.716   3.376  0.1423  0.0071  0.0543
  173HK4    C2114512   5.012   5.698   3.511  0.1789 -0.0529  0.0550
  173HK4    C2214513   4.943   5.573   3.534 -0.3391  0.1624 -0.2954
  173HK4    C2614514   4.911   5.531   3.663  0.3567  0.1261 -0.1324
  173HK4    H1314515   4.856   5.439   3.679 -0.5464  0.7055  0.1588
  173HK4    C2514516   4.935   5.613   3.773  0.0264 -0.3986  0.3316
  173HK4    H1214517   4.874   5.602   3.862  1.0430  1.9147  1.3671
  173HK4    C2414518   4.999   5.735   3.753  0.0761 -0.4567  0.1297
  173HK4    H1114519   4.988   5.815   3.827 -0.7543 -0.0486 -0.4402
  173HK4    C2314520   5.038   5.774   3.625  0.1952 -0.2995  0.2137
  173HK4    H1014521   5.093   5.867   3.614 -1.2566  0.3836 -1.4651
  173HK4    C3914522   5.158   5.789   3.331  0.0149  0.2275  0.0885
  173HK4    C4114523   5.172   5.921   3.378  0.1631  0.2948 -0.1482
  173HK4    H2114524   5.082   5.981   3.399 -1.7039 -0.9864 -3.9475
  173HK4    C4214525   5.293   5.989   3.385  0.4111 -0.1750  0.1301
  173HK4    H2214526   5.294   6.083   3.441 -0.0190 -0.7025  1.0207
  173HK4    C4314527   5.404   5.913   3.349  0.4173 -0.1508  0.0936
  173HK4    H2314528   5.499   5.945   3.390  0.2137  2.1426 -1.1394
  173HK4    C4414529   5.393   5.784   3.299 -0.1180 -0.2399  0.4375
  173HK4    H2414530   5.487   5.730   3.275  0.0467 -0.0523  0.6575
  173HK4    C4514531   5.270   5.722   3.278 -0.2528  0.3955 -0.6931
  173HK4    H2514532   5.260   5.622   3.235  0.8966  0.9859 -2.3854
  174HK4    H2814533   8.740   1.011   8.632  0.0543 -0.7883 -0.2547
  174HK4    C4814534   8.822   1.082   8.625 -0.6404  0.0843  0.3043
  174HK4    C4714535   8.903   1.125   8.730 -0.5059  0.1893  0.1578
  174HK4    H2714536   8.890   1.091   8.834  1.3144 -0.6221  0.1449
  174HK4    C4614537   8.994   1.228   8.712 -0.3160 -0.0205 -0.0736
  174HK4    H2614538   9.051   1.256   8.802 -0.1263  0.5789 -0.3739
  174HK4    C4014539   9.022   1.289   8.588 -0.6947  0.4734  0.0814
  174HK4    C5014540   8.937   1.242   8.485  0.8977 -0.4521 -0.8486
  174HK4    H3014541   8.937   1.285   8.384  2.4838 -0.8237 -1.0071
  174HK4    C4914542   8.839   1.145   8.502  0.4182  0.2519  0.5299
  174HK4    H2914543   8.780   1.104   8.419 -2.0355 -0.0463  2.3786
  174HK4     N214544   9.106   1.400   8.573 -0.3712  0.2216  0.0448
  174HK4    C3014545   9.172   1.439   8.455 -0.5237  0.0539 -0.0980
  174HK4    C2914546   9.208   1.373   8.339 -0.4224  0.0224 -0.0490
  174HK4    H1514547   9.179   1.268   8.345 -0.5709  0.0742  0.1295
  174HK4    C2814548   9.275   1.432   8.232 -0.2398 -0.3735 -0.1572
  174HK4    C2714549   9.310   1.568   8.244 -1.0460 -0.1030 -0.8080
  174HK4    H1414550   9.366   1.613   8.161  0.2580  0.6535  0.4659
  174HK4    C3214551   9.284   1.642   8.359 -0.7151 -0.8205 -0.2743
  174HK4    H1614552   9.316   1.744   8.378 -0.5762 -1.0679  0.8761
  174HK4    C3114553   9.222   1.575   8.464 -0.2464 -0.0838  0.4852
  174HK4    C3414554   9.190   1.618   8.599 -0.0566  0.1086  0.4672
  174HK4    C3314555   9.104   1.515   8.653 -0.3647  0.1742  0.1125
  174HK4    C3514556   9.062   1.529   8.785 -0.6101 -0.0182  0.0558
  174HK4    H1714557   8.978   1.469   8.821 -1.0999  0.3271 -0.5107
  174HK4    C3614558   9.106   1.640   8.857  0.1680 -0.2634 -0.0387
  174HK4    H1814559   9.099   1.634   8.966  1.0437 -0.8352 -0.0062
  174HK4    C3714560   9.191   1.735   8.803 -0.1914  0.4823  0.7090
  174HK4    H1914561   9.220   1.824   8.858  2.4189  1.1463 -1.6220
  174HK4    C3814562   9.233   1.729   8.671 -0.0235 -0.1129  0.7862
  174HK4    H2014563   9.265   1.816   8.614  0.6259 -0.7706  0.1300
  174HK4    C1414564   9.331   1.347   8.126  0.3659 -0.3812  0.1687
  174HK4     C914565   9.424   1.388   8.030 -0.1569 -0.1268 -0.2268
  174HK4     C814566   9.416   1.337   7.899 -0.0617 -0.1349 -0.2296
  174HK4    C1114567   9.332   1.230   7.869  0.0476 -0.2152 -0.2488
  174HK4     H414568   9.320   1.195   7.766 -1.5908  0.2689 -0.2279
  174HK4    C1214569   9.247   1.175   7.964  0.2248 -0.1155 -0.0328
  174HK4     H514570   9.194   1.079   7.953 -0.3601  0.3861 -1.7363
  174HK4    C1314571   9.251   1.238   8.088  0.0930 -0.1142 -0.0284
  174HK4     H614572   9.179   1.207   8.166 -0.9460  0.9035 -0.5781
  174HK4     C714573   9.468   1.411   7.781 -0.0880 -0.0056 -0.1600
  174HK4     O214574   9.507   1.350   7.683  0.3805  0.1012 -0.0388
  174HK4     C414575   9.518   1.548   7.810  0.2687 -0.0933 -0.3710
  174HK4     C314576   9.516   1.643   7.708 -0.3443 -0.1733 -0.4365
  174HK4     H314577   9.482   1.618   7.607 -0.0264  0.6739 -0.7521
  174HK4     C214578   9.566   1.770   7.733  0.2107 -0.5264  0.2811
  174HK4     H214579   9.541   1.855   7.668  2.2086 -1.8940 -2.3625
  174HK4     C114580   9.637   1.795   7.850 -0.1880  1.2127  0.1685
  174HK4     H114581   9.667   1.899   7.867 -2.0922  1.7728  0.2368
  174HK4     C614582   9.652   1.695   7.948 -0.5469  0.6508 -0.3451
  174HK4     C514583   9.581   1.575   7.933  0.2541  0.1827 -0.4238
  174HK4    C1014584   9.533   1.489   8.045 -0.1321 -0.0684 -0.7829
  174HK4     O114585   9.588   1.487   8.154 -0.4650  0.5471 -0.6001
  174HK4    C1614586   9.735   1.736   8.062 -0.4024 -0.2996 -0.1057
  174HK4    C1514587   9.736   1.867   8.114  0.2024 -0.2204 -0.3182
  174HK4     H714588   9.644   1.927   8.105 -0.9678 -1.8325  0.5703
  174HK4    C2014589   9.837   1.915   8.197 -0.0844  0.1318 -0.1700
  174HK4     H914590   9.866   2.020   8.202  2.8059 -0.7520  4.2320
  174HK4    C1914591   9.938   1.827   8.235 -0.2917 -0.0827 -0.1189
  174HK4    C1814592   9.943   1.691   8.186 -0.5470 -0.1947  0.1676
  174HK4    C1714593   9.842   1.654   8.097 -0.4959 -0.3103  0.1537
  174HK4     H814594   9.857   1.553   8.061  0.4095  0.6939 -2.3218
  174HK4     N114595  10.058   1.625   8.233 -0.1621  0.1376 -0.3024
  174HK4    C2114596  10.137   1.722   8.298 -0.3405 -0.1328  0.3206
  174HK4    C2214597  10.060   1.844   8.312 -0.1067  0.1062 -0.4488
  174HK4    C2614598  10.114   1.951   8.381  0.2459 -0.1122 -0.3850
  174HK4    H1314599  10.035   2.024   8.402  0.1748 -0.0525 -0.8546
  174HK4    C2514600  10.240   1.942   8.440  0.1109 -0.5650 -0.1699
  174HK4    H1214601  10.272   2.021   8.508 -1.0375 -0.6947  0.5467
  174HK4    C2414602  10.320   1.830   8.419  0.5890 -0.2240 -0.1548
  174HK4    H1114603  10.423   1.829   8.459  0.8115  0.6161 -0.6945
  174HK4    C2314604  10.264   1.721   8.353 -0.1406  0.1334 -0.1287
  174HK4    H1014605  10.334   1.644   8.322 -3.3248 -1.9722 -2.3090
  174HK4    C3914606  10.070   1.486   8.247 -0.0714  0.1776  0.0101
  174HK4    C4114607  10.195   1.422   8.263 -0.1382  0.1267  0.3196
  174HK4    H2114608  10.280   1.462   8.206 -1.0339  2.1736  0.3674
  174HK4    C4214609  10.204   1.293   8.315 -0.0063  0.1355  0.3191
  174HK4    H2214610  10.308   1.267   8.337 -0.2032 -0.7141  0.2563
  174HK4    C4314611  10.090   1.228   8.359 -0.0111 -0.0044  0.1039
  174HK4    H2314612  10.098   1.130   8.406 -1.1339 -0.3988 -0.4933
  174HK4    C4414613   9.964   1.283   8.336  0.0789  0.4925  0.7667
  174HK4    H2414614   9.872   1.226   8.356  0.1242  0.3455  0.5449
  174HK4    C4514615   9.957   1.412   8.286 -0.0512  0.3141  0.3204
  174HK4    H2514616   9.858   1.461   8.282  0.1349  0.6015 -0.6736
  175HK4    H2814617   7.890   3.697   1.454 -0.0100 -0.3485  0.3115
  175HK4    C4814618   7.980   3.733   1.404 -0.2025  0.1284  0.2969
  175HK4    C4714619   7.966   3.818   1.296 -0.3249  0.4980  0.6032
  175HK4    H2714620   7.866   3.853   1.268 -1.1463 -0.5722  2.1495
  175HK4    C4614621   8.077   3.849   1.217 -0.1371  0.4104  0.8352
  175HK4    H2614622   8.077   3.954   1.185  0.5984  0.4782  1.0438
  175HK4    C4014623   8.204   3.788   1.232  0.3305  1.2760  0.4423
  175HK4    C5014624   8.215   3.694   1.336 -0.2361  0.3629 -0.3038
  175HK4    H3014625   8.293   3.616   1.340 -1.9360 -1.3294  0.3674
  175HK4    C4914626   8.107   3.679   1.422 -0.3547 -0.5500 -0.6061
  175HK4    H2914627   8.120   3.617   1.512  0.1804  1.4450  0.7158
  175HK4     N214628   8.298   3.781   1.129 -0.0341  0.0963  0.1673
  175HK4    C3014629   8.271   3.778   0.991 -0.1464  0.4604  0.1799
  175HK4    C2914630   8.152   3.752   0.923  0.1722 -0.6473  0.0279
  175HK4    H1514631   8.061   3.731   0.978  0.5427 -2.0356  0.1125
  175HK4    C2814632   8.143   3.759   0.784 -0.2995  0.0957  0.0903
  175HK4    C2714633   8.258   3.795   0.711 -0.3072  0.4148  0.2338
  175HK4    H1414634   8.236   3.841   0.613 -1.3604  0.4819  0.4957
  175HK4    C3214635   8.380   3.814   0.775 -0.0653 -0.4403  0.0286
  175HK4    H1614636   8.469   3.828   0.714 -0.4624  2.3501  0.0326
  175HK4    C3114637   8.391   3.800   0.913 -0.0640 -0.5703  0.0149
  175HK4    C3414638   8.494   3.820   1.013 -0.0680 -0.2649 -0.0445
  175HK4    C3314639   8.438   3.797   1.144 -0.0346  0.2235  0.0550
  175HK4    C3514640   8.527   3.802   1.251 -0.0087  0.5394  0.0169
  175HK4    H1714641   8.488   3.788   1.351  0.4780  0.4778  0.1973
  175HK4    C3614642   8.661   3.838   1.235  0.0921  0.2658  0.2424
  175HK4    H1814643   8.711   3.870   1.327 -1.5270  0.4142  1.0903
  175HK4    C3714644   8.708   3.867   1.107  0.2768 -0.1494  0.2159
  175HK4    H1914645   8.806   3.914   1.094  0.2484 -0.6607 -2.0836
  175HK4    C3814646   8.630   3.845   0.995  0.0798 -0.6838  0.4600
  175HK4    H2014647   8.673   3.851   0.895 -0.3114 -0.4848  0.3040
  175HK4    C1414648   8.026   3.706   0.715 -0.2624 -0.0348  0.1284
  175HK4     C914649   8.023   3.613   0.610 -0.2443 -0.2661  0.3321
  175HK4     C814650   7.916   3.609   0.518 -0.2034 -0.4866  0.2947
  175HK4    C1114651   7.811   3.699   0.533  0.6165  0.5165  0.0811
  175HK4     H414652   7.747   3.721   0.446 -0.0161 -0.1918  0.3647
  175HK4    C1214653   7.805   3.785   0.641 -0.3049 -0.2037  0.6072
  175HK4     H514654   7.718   3.850   0.660 -1.5764 -1.7175  0.0591
  175HK4    C1314655   7.910   3.784   0.732  0.0117  0.3437  0.2554
  175HK4     H614656   7.901   3.833   0.831  0.2321 -0.4936  0.6920
  175HK4     C714657   7.910   3.506   0.411  0.0340 -0.2188  0.0216
  175HK4     O214658   7.828   3.515   0.321 -0.1240  0.4605  0.2259
  175HK4     C414659   8.008   3.395   0.424  0.4247  0.0992 -0.1706
  175HK4     C314660   7.987   3.286   0.341 -0.3209 -0.0681  0.2322
  175HK4     H314661   7.906   3.291   0.266  2.5394  2.9901 -2.7796
  175HK4     C214662   8.079   3.182   0.340  0.3079  0.4819 -1.2035
  175HK4     H214663   8.047   3.079   0.319  1.5892 -0.7225  2.2815
  175HK4     C114664   8.203   3.196   0.402 -0.4383  0.6748  0.2664
  175HK4     H114665   8.283   3.122   0.396 -0.2862  0.8193  0.5037
  175HK4     C614666   8.233   3.317   0.468  0.0783  0.5163  0.3215
  175HK4     C514667   8.126   3.401   0.500 -0.0260  0.3127  0.5104
  175HK4    C1014668   8.125   3.504   0.608  0.9899  0.8706  0.0004
  175HK4     O114669   8.161   3.451   0.713 -0.4347 -0.4096 -0.1256
  175HK4    C1614670   8.368   3.368   0.439 -0.1122  0.7004 -0.2440
  175HK4    C1514671   8.440   3.345   0.320 -0.1373 -0.1470 -0.0966
  175HK4     H714672   8.380   3.321   0.231  2.4944  0.0474 -1.9935
  175HK4    C2014673   8.577   3.364   0.306 -0.2363  0.4917 -0.1804
  175HK4     H914674   8.625   3.333   0.213 -2.5021  0.0796 -1.2533
  175HK4    C1914675   8.655   3.404   0.414  0.1509  0.6338 -0.5133
  175HK4    C1814676   8.587   3.429   0.540 -0.2999  0.4614 -0.7209
  175HK4    C1714677   8.449   3.417   0.541 -0.2867  0.3659  0.0586
  175HK4     H814678   8.400   3.451   0.632 -0.7320  0.6578 -0.2821
  175HK4     N114679   8.677   3.480   0.636 -0.4666 -0.1326 -0.2503
  175HK4    C2114680   8.802   3.490   0.570 -0.2935 -0.4676  0.0292
  175HK4    C2214681   8.794   3.437   0.436  0.2494  0.0137 -0.1925
  175HK4    C2614682   8.907   3.408   0.360  0.4643 -0.7678  0.4174
  175HK4    H1314683   8.899   3.335   0.280  1.3253  0.0248 -0.4192
  175HK4    C2514684   9.030   3.445   0.415  0.5009 -0.3494  0.0604
  175HK4    H1214685   9.128   3.433   0.370  1.4581  4.7517  0.4614
  175HK4    C2414686   9.040   3.497   0.543 -0.1554  0.0318 -0.0396
  175HK4    H1114687   9.137   3.526   0.586 -0.7938 -0.2446  1.6401
  175HK4    C2314688   8.928   3.516   0.623 -0.2393 -0.7110  0.0257
  175HK4    H1014689   8.945   3.563   0.720 -0.4722  0.9170 -0.6892
  175HK4    C3914690   8.671   3.449   0.772  0.4371 -0.2806 -0.2368
  175HK4    C4114691   8.728   3.524   0.877 -0.1096 -0.0113 -0.1320
  175HK4    H2114692   8.763   3.626   0.854  0.2796 -0.4120 -1.3527
  175HK4    C4214693   8.711   3.489   1.010  0.0346 -0.8143 -0.3231
  175HK4    H2214694   8.750   3.559   1.085  0.9008 -0.3498 -1.1909
  175HK4    C4314695   8.630   3.384   1.051  0.0684 -0.7632 -0.1236
  175HK4    H2314696   8.605   3.371   1.156 -3.5100  1.4426 -0.6467
  175HK4    C4414697   8.577   3.306   0.949 -0.4393 -0.3100 -0.2052
  175HK4    H2414698   8.520   3.216   0.977  1.5167 -1.1657  1.0906
  175HK4    C4514699   8.598   3.336   0.815 -0.5486  0.4174 -0.0603
  175HK4    H2514700   8.587   3.254   0.743  0.5033 -3.0642  3.5329
  176HK4    H2814701  10.632   1.790   4.915  1.1478  1.6070  0.9054
  176HK4    C4814702  10.570   1.776   5.003  0.3962 -0.1915  0.1238
  176HK4    C4714703  10.515   1.884   5.071  0.2621  0.1099 -0.4647
  176HK4    H2714704  10.523   1.988   5.034 -0.8868  0.4509  0.2266
  176HK4    C4614705  10.431   1.867   5.180  0.5369  0.2650 -0.2278
  176HK4    H2614706  10.380   1.957   5.218  0.5783  1.5861 -3.2211
  176HK4    C4014707  10.407   1.739   5.236 -0.1790  0.4034 -0.2139
  176HK4    C5014708  10.461   1.632   5.163  0.1113  0.0981  0.4482
  176HK4    H3014709  10.444   1.528   5.197  0.7035  0.5724  2.2344
  176HK4    C4914710  10.541   1.648   5.050  0.6237  0.0060  0.7997
  176HK4    H2914711  10.583   1.556   5.007  0.6700 -0.3848  1.6659
  176HK4     N214712  10.324   1.711   5.345  0.2772  0.3044  0.1090
  176HK4    C3014713  10.213   1.790   5.381 -0.0596 -0.0420 -0.1442
  176HK4    C2914714  10.107   1.831   5.300 -0.1537  0.0089  0.0067
  176HK4    H1514715  10.123   1.841   5.193  1.1315  1.4338  0.3108
  176HK4    C2814716   9.988   1.877   5.354 -0.0988 -0.1634  0.2735
  176HK4    C2714717   9.983   1.898   5.494 -0.7848 -0.0917  0.2423
  176HK4    H1414718   9.906   1.965   5.536 -0.0087  0.0789  1.4069
  176HK4    C3214719  10.084   1.858   5.580 -0.4197 -0.4736 -0.3581
  176HK4    H1614720  10.085   1.889   5.685 -0.7967  0.0506 -0.5097
  176HK4    C3114721  10.196   1.798   5.525 -0.0911 -0.0566 -0.1478
  176HK4    C3414722  10.303   1.716   5.578 -0.2888 -0.2589 -0.0606
  176HK4    C3314723  10.377   1.662   5.466  0.2804  0.2293  0.0756
  176HK4    C3514724  10.477   1.571   5.496 -0.1856 -0.4139 -0.3032
  176HK4    H1714725  10.525   1.519   5.412 -1.3740 -1.5277 -0.3031
  176HK4    C3614726  10.499   1.531   5.627 -1.0127 -0.1579 -0.0865
  176HK4    H1814727  10.575   1.457   5.657  1.1657  1.6543 -0.9734
  176HK4    C3714728  10.426   1.581   5.734  0.0681  0.2411  0.4766
  176HK4    H1914729  10.435   1.549   5.838 -2.5035 -0.6968  0.4507
  176HK4    C3814730  10.328   1.677   5.709 -0.4303 -0.4068 -0.0778
  176HK4    H2014731  10.300   1.748   5.787  0.4387 -0.9088  0.7074
  176HK4    C1414732   9.865   1.839   5.283 -0.1729  0.1912  0.2078
  176HK4     C914733   9.840   1.861   5.147 -0.3820  0.3210  0.2680
  176HK4     C814734   9.739   1.785   5.085  0.1988  0.0215 -0.3089
  176HK4    C1114735   9.655   1.695   5.151 -0.3193  0.4266 -0.4101
  176HK4     H414736   9.582   1.629   5.102  0.5704  0.4495 -1.8095
  176HK4    C1214737   9.673   1.683   5.288 -0.2831  0.9041 -0.3715
  176HK4     H514738   9.608   1.623   5.353 -0.1248  0.3961 -0.6787
  176HK4    C1314739   9.776   1.753   5.351  0.2563 -0.3180  0.1190
  176HK4     H614740   9.791   1.756   5.460 -1.9234 -0.2463  0.4297
  176HK4     C714741   9.699   1.823   4.947  0.5652  0.0806 -0.3989
  176HK4     O214742   9.679   1.726   4.874  0.2302 -0.0112 -0.1858
  176HK4     C414743   9.728   1.960   4.899  0.0658  0.3407  0.0406
  176HK4     C314744   9.668   2.003   4.782  0.1823 -0.0207 -0.1518
  176HK4     H314745   9.610   1.933   4.719 -0.8016 -0.3363  1.0896
  176HK4     C214746   9.676   2.138   4.751  0.3798 -0.1407 -0.6303
  176HK4     H214747   9.657   2.176   4.649  0.8167  0.3508 -0.5324
  176HK4     C114748   9.724   2.228   4.845 -0.1412 -0.5322  0.0151
  176HK4     H114749   9.730   2.335   4.821 -0.2065  0.4123  3.8978
  176HK4     C614750   9.769   2.189   4.973  0.4753  0.4966  0.1215
  176HK4     C514751   9.791   2.051   4.986 -0.2402  0.3871  0.2182
  176HK4    C1014752   9.881   1.992   5.089  0.2300 -0.2321 -0.5463
  176HK4     O114753  10.000   2.021   5.076  0.1438  0.2925 -0.1719
  176HK4    C1614754   9.755   2.277   5.089 -0.6639 -0.1672  0.4900
  176HK4    C1514755   9.665   2.385   5.077 -0.2465  0.1415  0.1359
  176HK4     H714756   9.579   2.359   5.013  0.1935 -1.1660  0.0689
  176HK4    C2014757   9.648   2.485   5.172 -0.1065  0.1254  0.1778
  176HK4     H914758   9.568   2.559   5.168 -0.4206 -0.2902 -1.7946
  176HK4    C1914759   9.730   2.482   5.284  0.1290 -0.0133  0.0017
  176HK4    C1814760   9.824   2.372   5.297  0.0861 -0.0427  0.0523
  176HK4    C1714761   9.832   2.268   5.205 -0.0249 -0.0676  0.0734
  176HK4     H814762   9.858   2.173   5.251  1.5624  0.5687  0.5305
  176HK4     N114763   9.898   2.381   5.417 -0.0352 -0.0788  0.1311
  176HK4    C2114764   9.853   2.500   5.478  0.0908  0.5751 -1.0368
  176HK4    C2214765   9.747   2.563   5.403  0.0020  0.9280 -0.6196
  176HK4    C2614766   9.680   2.672   5.457  0.5612  1.1843 -0.4440
  176HK4    H1314767   9.625   2.742   5.394  0.1806  0.4712 -0.8940
  176HK4    C2514768   9.721   2.721   5.581  0.0941  0.1628  0.1154
  176HK4    H1214769   9.665   2.807   5.616  0.7647 -0.0726  1.7758
  176HK4    C2414770   9.820   2.659   5.656  0.6379  0.5491 -0.2768
  176HK4    H1114771   9.838   2.684   5.762  2.8061 -0.8122 -0.2944
  176HK4    C2314772   9.888   2.550   5.603 -0.3267  0.1791 -0.7609
  176HK4    H1014773   9.985   2.529   5.648  0.2238 -2.6133 -3.1522
  176HK4    C3914774  10.025   2.327   5.437  0.0115 -0.1457 -0.3234
  176HK4    C4114775  10.071   2.294   5.566 -0.4072  0.1386 -0.1000
  176HK4    H2114776  10.001   2.321   5.646 -1.5482  1.3232 -1.4820
  176HK4    C4214777  10.197   2.238   5.588 -0.3548  0.4295  0.3483
  176HK4    H2214778  10.226   2.206   5.690  0.6730 -1.9837 -0.6723
  176HK4    C4314779  10.280   2.222   5.478 -0.7387 -0.2911  0.1614
  176HK4    H2314780  10.384   2.195   5.492 -0.2444  1.5158  0.1841
  176HK4    C4414781  10.244   2.265   5.351 -0.0948 -0.3743 -0.0495
  176HK4    H2414782  10.318   2.271   5.270  1.4180 -1.1257  1.2522
  176HK4    C4514783  10.115   2.312   5.329  0.1846  0.3162 -0.2464
  176HK4    H2514784  10.083   2.332   5.226  3.7130 -1.4071 -1.7653
  177HK4    H2814785   5.230   3.112   1.030  0.3226 -0.1040 -0.8387
  177HK4    C4814786   5.216   3.079   1.133 -0.3265  0.1103 -0.8581
  177HK4    C4714787   5.238   2.945   1.162  0.0417  0.3894  0.1815
  177HK4    H2714788   5.252   2.877   1.076 -0.4567  0.5273 -0.0070
  177HK4    C4614789   5.213   2.893   1.288  0.1721  0.4371  0.2266
  177HK4    H2614790   5.223   2.784   1.303 -0.6164  0.2511 -0.5847
  177HK4    C4014791   5.174   2.980   1.392  0.0315  0.4477  0.1641
  177HK4    C5014792   5.161   3.115   1.357  0.9927  0.4828 -0.0667
  177HK4    H3014793   5.108   3.182   1.427 -0.9809 -0.8070 -0.2761
  177HK4    C4914794   5.174   3.170   1.229  0.7237  0.0096 -0.2976
  177HK4    H2914795   5.162   3.277   1.208 -3.0383 -0.7064 -2.3086
  177HK4     N214796   5.130   2.935   1.517 -0.1342  0.2598  0.0395
  177HK4    C3014797   5.068   2.811   1.542 -0.4195  0.4055  0.0590
  177HK4    C2914798   5.012   2.714   1.460  0.1445  0.2262 -0.1196
  177HK4    H1514799   4.994   2.737   1.356  0.1153  1.1700  0.0937
  177HK4    C2814800   4.958   2.592   1.500 -0.3522  0.4315 -0.1688
  177HK4    C2714801   4.960   2.566   1.639 -0.2220  0.5234 -0.1532
  177HK4    H1414802   4.943   2.463   1.675 -0.7370 -0.0005 -1.8084
  177HK4    C3214803   5.019   2.654   1.728 -0.0151  0.3462 -0.1136
  177HK4    H1614804   5.023   2.627   1.833 -0.4200  2.3958  0.4484
  177HK4    C3114805   5.076   2.773   1.682  0.3522  0.1986 -0.0372
  177HK4    C3414806   5.124   2.892   1.750  0.0700  0.1867  0.1859
  177HK4    C3314807   5.163   2.985   1.645 -0.1792  0.1758  0.0835
  177HK4    C3514808   5.222   3.105   1.680  0.5297 -0.1083 -0.1280
  177HK4    H1714809   5.267   3.163   1.600  0.2903  0.7507  0.3397
  177HK4    C3614810   5.228   3.136   1.816 -0.7746 -0.7501  0.0810
  177HK4    H1814811   5.271   3.231   1.850  0.2265 -1.1920  0.0760
  177HK4    C3714812   5.181   3.053   1.918  0.4064 -0.4039  0.9158
  177HK4    H1914813   5.194   3.078   2.023  2.8433 -0.8293  0.7513
  177HK4    C3814814   5.136   2.926   1.884  0.9202 -0.4159  0.2690
  177HK4    H2014815   5.096   2.854   1.955 -0.5996  0.9850  0.8705
  177HK4    C1414816   4.901   2.493   1.407 -0.2711  0.4839 -0.2740
  177HK4     C914817   4.807   2.392   1.432  0.1950  0.0359 -0.3179
  177HK4     C814818   4.794   2.281   1.347  0.1750 -0.0592 -0.1894
  177HK4    C1114819   4.870   2.274   1.231 -0.1816 -0.0180 -0.4260
  177HK4     H414820   4.878   2.178   1.177 -1.7164 -1.3175  1.5617
  177HK4    C1214821   4.952   2.380   1.198 -0.2422  0.0803 -0.2611
  177HK4     H514822   5.001   2.386   1.100  2.7093  0.8257  1.1949
  177HK4    C1314823   4.964   2.491   1.281  0.5791 -0.3168  0.1551
  177HK4     H614824   4.979   2.585   1.225 -0.2171  0.1835  0.7644
  177HK4     C714825   4.696   2.171   1.369  0.1158  0.0959  0.3256
  177HK4     O214826   4.734   2.056   1.349 -0.0931  0.0603  0.1420
  177HK4     C414827   4.593   2.201   1.471 -0.1814  0.2681 -0.0239
  177HK4     C314828   4.477   2.126   1.477  0.2252 -0.3459  0.2353
  177HK4     H314829   4.442   2.071   1.389 -2.0076 -1.1062  1.5513
  177HK4     C214830   4.398   2.120   1.592 -0.5912  0.8796 -0.2550
  177HK4     H214831   4.296   2.080   1.585 -0.5226  0.8628 -1.3916
  177HK4     C114832   4.447   2.184   1.705  0.2251 -0.3525  0.0972
  177HK4     H114833   4.387   2.179   1.796  0.7638 -1.5688  0.3932
  177HK4     C614834   4.557   2.273   1.704 -0.1278  0.0877 -0.1690
  177HK4     C514835   4.622   2.286   1.580 -0.1329  0.3976 -0.1371
  177HK4    C1014836   4.707   2.402   1.542  0.5775 -0.0647  0.0399
  177HK4     O114837   4.662   2.513   1.569  0.4013 -0.0487 -0.3232
  177HK4    C1614838   4.613   2.298   1.837  0.1650 -0.0077 -0.2730
  177HK4    C1514839   4.679   2.419   1.867  0.4745 -0.1031 -0.5644
  177HK4     H714840   4.662   2.511   1.810 -1.0382  0.5816  0.9499
  177HK4    C2014841   4.777   2.434   1.965 -0.3060  0.1650  0.1795
  177HK4     H914842   4.818   2.534   1.982 -2.1750  1.3906 -2.2069
  177HK4    C1914843   4.808   2.325   2.045 -0.4129 -0.0045 -0.0086
  177HK4    C1814844   4.726   2.207   2.034 -0.0403 -0.2724  0.0687
  177HK4    C1714845   4.639   2.194   1.926 -0.1587  0.2357  0.1052
  177HK4     H814846   4.579   2.103   1.922 -1.8039  1.3220 -0.5508
  177HK4     N114847   4.760   2.117   2.137  0.2281 -0.4086 -0.1364
  177HK4    C2114848   4.870   2.171   2.206 -0.3293  0.5261  0.0248
  177HK4    C2214849   4.904   2.302   2.152 -0.5339  0.6740  0.2516
  177HK4    C2614850   5.000   2.385   2.208  0.5373 -0.3066 -0.1158
  177HK4    H1314851   5.017   2.482   2.162  1.6672  0.0246  0.9861
  177HK4    C2514852   5.065   2.337   2.321  0.7068 -0.3008 -0.2108
  177HK4    H1214853   5.143   2.400   2.364  1.3231 -0.6335 -0.8173
  177HK4    C2414854   5.038   2.212   2.374  0.2853 -0.2762 -0.3702
  177HK4    H1114855   5.101   2.171   2.455 -2.3439  0.5671  2.2147
  177HK4    C2314856   4.942   2.129   2.316 -0.4592  0.2969  0.0193
  177HK4    H1014857   4.927   2.027   2.352  0.0328  0.7757  1.6367
  177HK4    C3914858   4.669   2.022   2.186 -0.2279  0.1222  0.0509
  177HK4    C4114859   4.706   1.901   2.247 -0.3533  0.0749  0.0342
  177HK4    H2114860   4.808   1.865   2.227 -0.5778 -0.3502 -0.3494
  177HK4    C4214861   4.619   1.814   2.313 -0.1697 -0.2197 -0.1126
  177HK4    H2214862   4.662   1.719   2.348 -1.5752  0.0744  2.5562
  177HK4    C4314863   4.485   1.847   2.325 -0.1164 -0.1883  0.3932
  177HK4    H2314864   4.426   1.788   2.395 -1.8388 -2.2986 -2.7085
  177HK4    C4414865   4.446   1.971   2.275 -0.5048 -0.5492 -0.2120
  177HK4    H2414866   4.339   1.978   2.252 -0.5662  0.7718  0.4136
  177HK4    C4514867   4.532   2.053   2.203 -0.1724 -0.0247  0.7656
  177HK4    H2514868   4.490   2.141   2.153  1.4481  0.5831  0.4235
  178HK4    H2814869   7.083  10.061   9.789 -0.6823  1.0595 -2.1115
  178HK4    C4814870   7.050   9.963   9.753  0.2170  0.0669 -0.3292
  178HK4    C4714871   6.968   9.947   9.642 -0.3758  0.2707  0.0746
  178HK4    H2714872   6.939  10.039   9.588 -1.0422 -0.4149 -0.7487
  178HK4    C4614873   6.953   9.821   9.584  0.2430  0.1040  0.2722
  178HK4    H2614874   6.910   9.819   9.483 -2.7660  0.0108  1.5296
  178HK4    C4014875   7.012   9.706   9.640 -0.1773 -0.2829 -0.0827
  178HK4    C5014876   7.092   9.728   9.754 -0.0158 -0.1410 -0.2208
  178HK4    H3014877   7.150   9.641   9.790 -1.0276 -0.6338  0.2459
  178HK4    C4914878   7.104   9.852   9.816 -0.0579 -0.0747 -0.3485
  178HK4    H2914879   7.127   9.861   9.923 -1.2768 -1.5768  0.0646
  178HK4     N214880   6.952   9.580   9.629 -0.2772 -0.2552  0.1369
  178HK4    C3014881   7.007   9.453   9.656  0.3005 -0.0373 -0.0127
  178HK4    C2914882   7.142   9.422   9.645  0.2263 -0.4242  0.1623
  178HK4    H1514883   7.197   9.487   9.578  0.4995  0.6471  1.3989
  178HK4    C2814884   7.193   9.300   9.690  0.2128 -0.4007  0.2357
  178HK4    C2714885   7.101   9.201   9.728 -0.0841  0.0571  0.7226
  178HK4    H1414886   7.133   9.105   9.773  2.8739  0.9774  0.6143
  178HK4    C3214887   6.965   9.229   9.736 -0.0468  0.3465  0.3265
  178HK4    H1614888   6.896   9.158   9.782 -1.5940  1.0845 -0.7835
  178HK4    C3114889   6.912   9.353   9.700 -0.0860  0.0529 -0.6358
  178HK4    C3414890   6.783   9.420   9.696 -0.2506 -0.2001  0.2750
  178HK4    C3314891   6.815   9.551   9.642 -0.2786 -0.2034  0.2528
  178HK4    C3514892   6.708   9.631   9.603 -0.3777 -0.3562  0.2085
  178HK4    H1714893   6.724   9.730   9.558  2.0513 -1.4917 -1.5419
  178HK4    C3614894   6.579   9.580   9.605 -0.4387 -0.1918  0.6004
  178HK4    H1814895   6.493   9.644   9.581  0.1018 -0.1278 -1.3376
  178HK4    C3714896   6.554   9.451   9.648 -0.2170 -0.5053 -0.1892
  178HK4    H1914897   6.452   9.412   9.642  0.3890 -1.9354 -1.3370
  178HK4    C3814898   6.654   9.368   9.696 -0.2068 -0.3134  0.1204
  178HK4    H2014899   6.639   9.267   9.735 -0.5351 -0.3978 -0.2201
  178HK4    C1414900   7.335   9.271   9.670  0.3858  0.1003  0.7166
  178HK4     C914901   7.397   9.145   9.663  0.1849  0.0390 -0.0062
  178HK4     C814902   7.534   9.131   9.693  0.2337  0.2363 -0.1377
  178HK4    C1114903   7.607   9.244   9.724  0.1917  0.3532 -0.4735
  178HK4     H414904   7.711   9.228   9.757 -0.1157  0.6546  0.6604
  178HK4    C1214905   7.547   9.369   9.734  0.2780  0.3426  0.2154
  178HK4     H514906   7.602   9.456   9.772  0.7876 -1.3984  3.6766
  178HK4    C1314907   7.413   9.384   9.701  0.4422  0.3801 -0.4394
  178HK4     H614908   7.368   9.485   9.699 -0.4293 -0.0166 -1.9348
  178HK4     C714909   7.602   9.000   9.679  0.2574  0.2299  0.0188
  178HK4     O214910   7.691   8.968   9.757  0.3575  0.1995 -0.1074
  178HK4     C414911   7.526   8.893   9.611  0.2576  0.4475 -0.3308
  178HK4     C314912   7.592   8.774   9.583 -0.4140  0.1512 -0.6832
  178HK4     H314913   7.699   8.765   9.607 -1.0135  1.3275  2.6457
  178HK4     C214914   7.524   8.660   9.542  0.0060 -0.3693  0.0502
  178HK4     H214915   7.578   8.588   9.478  2.0838  0.2062  1.1059
  178HK4     C114916   7.385   8.660   9.541  0.0034  0.1657  0.4705
  178HK4     H114917   7.327   8.573   9.509 -2.2804  1.4976  0.8807
  178HK4     C614918   7.314   8.774   9.582 -0.0186  0.1652  0.4311
  178HK4     C514919   7.385   8.893   9.606  0.2376  0.0641  0.1723
  178HK4    C1014920   7.323   9.028   9.608 -0.3172 -0.2028  1.1739
  178HK4     O114921   7.232   9.039   9.526  0.3760 -1.0189  0.2891
  178HK4    C1614922   7.190   8.749   9.659 -0.1236  0.0244  0.2116
  178HK4    C1514923   7.186   8.641   9.748 -0.1063 -0.4293 -0.3344
  178HK4     H714924   7.276   8.594   9.790 -0.8307 -0.3087  1.3891
  178HK4    C2014925   7.069   8.589   9.803  0.2246 -0.5302  0.2784
  178HK4     H914926   7.072   8.507   9.875  0.3024 -0.1725  0.6818
  178HK4    C1914927   6.948   8.639   9.757  0.3701 -0.6125 -0.1980
  178HK4    C1814928   6.945   8.736   9.649 -0.5810 -0.1528  0.2347
  178HK4    C1714929   7.067   8.788   9.608 -0.3417 -0.8372  0.0799
  178HK4     H814930   7.062   8.853   9.521 -2.8415  0.0786  0.8711
  178HK4     N114931   6.814   8.762   9.604 -0.5210  0.0810  0.1917
  178HK4    C2114932   6.730   8.706   9.702 -0.3705 -0.2196  0.1508
  178HK4    C2214933   6.808   8.615   9.784  0.2568 -0.1817 -0.4033
  178HK4    C2614934   6.735   8.546   9.880 -0.4135  0.2672 -0.5801
  178HK4    H1314935   6.787   8.476   9.946 -1.0644  1.5940  1.4162
  178HK4    C2514936   6.599   8.564   9.901 -0.1966  0.8531  0.3933
  178HK4    H1214937   6.542   8.510   9.977 -1.6719  2.6274  0.5787
  178HK4    C2414938   6.528   8.654   9.821 -0.1040  0.6921  0.1330
  178HK4    H1114939   6.427   8.685   9.852 -0.5104 -0.2193 -0.2640
  178HK4    C2314940   6.594   8.726   9.722 -0.1359  1.1367  0.4363
  178HK4    H1014941   6.536   8.805   9.674 -4.3598 -2.1167 -0.1032
  178HK4    C3914942   6.780   8.865   9.515 -0.2467  0.2072  0.2285
  178HK4    C4114943   6.655   8.851   9.451  0.3247 -0.4043 -0.7577
  178HK4    H2114944   6.623   8.753   9.412  0.9217 -0.3376 -1.4418
  178HK4    C4214945   6.586   8.963   9.406 -0.5036 -0.4523  0.3762
  178HK4    H2214946   6.478   8.949   9.391  0.0572 -3.9020 -0.9882
  178HK4    C4314947   6.641   9.090   9.419 -0.5050 -0.4478  0.3112
  178HK4    H2314948   6.585   9.177   9.384  0.8459  0.4545  0.3597
  178HK4    C4414949   6.766   9.107   9.477 -0.6070 -0.2582  0.4791
  178HK4    H2414950   6.817   9.203   9.491  0.4060 -0.5155 -1.2358
  178HK4    C4514951   6.835   8.994   9.520  0.1921  0.0309 -0.0377
  178HK4    H2514952   6.933   9.004   9.569 -0.0121  1.7937  0.0729
  179HK4    H2814953   3.738   4.346   4.070 -0.8210  0.7074 -0.4632
  179HK4    C4814954   3.733   4.266   3.996 -0.0050  0.0426  0.1931
  179HK4    C4714955   3.609   4.236   3.941  0.1969 -0.2189 -0.1241
  179HK4    H2714956   3.524   4.301   3.965  0.6900  0.6717 -0.7538
  179HK4    C4614957   3.592   4.124   3.861  0.2591 -0.1094 -0.2899
  179HK4    H2614958   3.492   4.103   3.819  0.1106  1.2234 -0.6305
  179HK4    C4014959   3.705   4.050   3.819  0.6399  0.3265 -0.0324
  179HK4    C5014960   3.828   4.084   3.877  0.5098  0.1890  0.3240
  179HK4    H3014961   3.913   4.014   3.874  0.3011 -0.0183 -0.7949
  179HK4    C4914962   3.845   4.187   3.969  0.1832  0.2822  0.2779
  179HK4    H2914963   3.935   4.219   4.024  0.7812  0.0022 -0.5368
  179HK4     N214964   3.682   3.920   3.773  0.2095  0.2537  0.3821
  179HK4    C3014965   3.565   3.846   3.799  0.4341 -0.1760  0.1686
  179HK4    C2914966   3.460   3.857   3.889 -0.3886  0.2349 -0.8414
  179HK4    H1514967   3.477   3.934   3.964  2.2131 -0.5184 -0.6000
  179HK4    C2814968   3.360   3.761   3.895  0.1680 -0.3036 -0.1553
  179HK4    C2714969   3.357   3.667   3.791 -0.2041  0.1415 -0.5504
  179HK4    H1414970   3.264   3.614   3.766 -1.1016  1.9298 -1.0925
  179HK4    C3214971   3.453   3.648   3.692  0.3293 -0.4769  0.0773
  179HK4    H1614972   3.466   3.560   3.628 -1.2187 -0.4847 -0.2431
  179HK4    C3114973   3.558   3.739   3.701  0.0111 -0.1162  0.1359
  179HK4    C3414974   3.681   3.747   3.625 -0.7310  0.4948 -1.0182
  179HK4    C3314975   3.751   3.869   3.661 -0.4264 -0.0137  0.1113
  179HK4    C3514976   3.869   3.904   3.596  0.0795 -0.9127  0.5313
  179HK4    H1714977   3.937   3.979   3.635 -2.3708  1.4216  0.4604
  179HK4    C3614978   3.912   3.820   3.493 -0.0106  0.2795 -0.4881
  179HK4    H1814979   3.992   3.860   3.429 -0.1366  0.6387 -0.4246
  179HK4    C3714980   3.841   3.708   3.454 -0.2745  0.1275  0.4006
  179HK4    H1914981   3.875   3.650   3.368  2.0863 -0.4030  1.6458
  179HK4    C3814982   3.726   3.667   3.520 -0.8700 -0.0055 -0.6976
  179HK4    H2014983   3.674   3.575   3.495 -0.0864 -1.0763  1.4551
  179HK4    C1414984   3.324   3.726   4.034 -0.3631 -0.0667 -0.2277
  179HK4     C914985   3.335   3.599   4.091  0.2896 -0.0482 -0.3021
  179HK4     C814986   3.262   3.580   4.210  0.2947  0.0795 -0.2764
  179HK4    C1114987   3.198   3.688   4.271 -0.1900 -0.1384 -0.3968
  179HK4     H414988   3.156   3.670   4.371  0.2675  3.7951  0.5609
  179HK4    C1214989   3.195   3.816   4.217  0.2364  0.0594  0.0516
  179HK4     H514990   3.162   3.901   4.279 -0.0466 -0.0209  0.0133
  179HK4    C1314991   3.263   3.836   4.098 -0.2969 -0.0097 -0.2626
  179HK4     H614992   3.252   3.932   4.046 -2.8322 -0.0989  0.0437
  179HK4     C714993   3.234   3.444   4.261 -0.5688  0.2125 -0.3812
  179HK4     O214994   3.168   3.424   4.363 -0.2029 -0.0925 -0.2006
  179HK4     C414995   3.301   3.330   4.195  0.6908  0.3508  0.6319
  179HK4     C314996   3.271   3.203   4.242  0.3051  0.2866  0.2208
  179HK4     H314997   3.178   3.194   4.301  0.6958  1.3654  1.0123
  179HK4     C214998   3.346   3.092   4.206  0.2959  0.2694  0.2585
  179HK4     H214999   3.328   2.991   4.247  0.3390  0.0868 -0.1678
  179HK4     C115000   3.443   3.107   4.108  0.3251 -0.5324  0.1597
  179HK4     H115001   3.491   3.014   4.072 -1.4409 -1.4688  0.1701
  179HK4     C615002   3.458   3.232   4.046 -0.2316 -0.2780  0.5463
  179HK4     C515003   3.400   3.350   4.096  0.1291  0.1241  0.0218
  179HK4    C1015004   3.426   3.489   4.049  0.3629 -0.0088 -0.2447
  179HK4     O115005   3.544   3.515   4.026  0.5493 -0.0909  0.6037
  179HK4    C1615006   3.563   3.225   3.944 -0.2845 -0.1154  0.4807
  179HK4    C1515007   3.542   3.302   3.827  0.3170  0.4198  0.7203
  179HK4     H715008   3.446   3.353   3.815  0.0923 -0.7225 -2.9135
  179HK4    C2015009   3.638   3.321   3.729 -0.2146 -0.0111  0.1132
  179HK4     H915010   3.603   3.384   3.648 -0.0061  1.4654  1.1552
  179HK4    C1915011   3.757   3.248   3.739 -0.0915  0.1751  0.0118
  179HK4    C1815012   3.776   3.157   3.850  0.2086  0.1403 -0.0705
  179HK4    C1715013   3.679   3.149   3.949  0.0235  0.2999 -0.2376
  179HK4     H815014   3.692   3.081   4.033 -2.6650 -0.5315 -0.4581
  179HK4     N115015   3.907   3.105   3.842  0.3043  0.3528  0.0880
  179HK4    C2115016   3.972   3.171   3.737  0.6193 -0.3890 -0.1882
  179HK4    C2215017   3.883   3.263   3.669  0.2019 -0.3402  0.4293
  179HK4    C2615018   3.941   3.364   3.593 -0.5825 -0.2403 -0.0433
  179HK4    H1315019   3.877   3.448   3.567 -0.2606  0.0980  0.2445
  179HK4    C2515020   4.079   3.379   3.585 -0.5967  0.1740  0.5159
  179HK4    H1215021   4.111   3.456   3.514 -1.5665 -2.2494 -2.6490
  179HK4    C2415022   4.162   3.291   3.654 -0.1558  0.5441  0.4636
  179HK4    H1115023   4.270   3.297   3.636  0.2912  2.5369  3.5115
  179HK4    C2315024   4.110   3.180   3.721  0.6788  0.3089  0.7211
  179HK4    H1015025   4.179   3.097   3.735  1.1980  0.7826  1.0221
  179HK4    C3915026   3.931   2.974   3.887 -0.1493  0.1887 -0.1421
  179HK4    C4115027   4.063   2.929   3.902 -0.1010  0.2415 -0.4069
  179HK4    H2115028   4.136   2.991   3.956  2.1190  0.1160 -3.1385
  179HK4    C4215029   4.095   2.796   3.878 -0.1580  0.1667 -0.0686
  179HK4    H2215030   4.197   2.774   3.843  0.0875 -0.7913  1.1716
  179HK4    C4315031   4.002   2.694   3.860  0.2943 -0.2959  0.1811
  179HK4    H2315032   4.028   2.589   3.870 -3.8071 -1.3860  0.2474
  179HK4    C4415033   3.868   2.734   3.854  0.5490  0.5477 -0.0530
  179HK4    H2415034   3.788   2.661   3.833  0.7242 -0.5852  2.9391
  179HK4    C4515035   3.840   2.870   3.860 -0.3048  0.3914 -0.4043
  179HK4    H2515036   3.738   2.899   3.833 -0.7354 -0.0420  0.7290
  180HK4    H2815037   1.114   7.292   2.558 -0.4438  0.8156  1.0729
  180HK4    C4815038   1.024   7.272   2.501  0.4165 -0.7376  0.2302
  180HK4    C4715039   1.022   7.176   2.399  0.3900 -0.3866 -0.1007
  180HK4    H2715040   1.118   7.132   2.370  0.2133 -0.7958 -0.0596
  180HK4    C4615041   0.900   7.139   2.343  0.1765  0.0932  0.0405
  180HK4    H2615042   0.894   7.051   2.278  1.5322 -1.0796  1.4329
  180HK4    C4015043   0.777   7.194   2.383  0.2484  0.0149  0.3735
  180HK4    C5015044   0.780   7.296   2.480 -0.0944  0.2044  0.1865
  180HK4    H3015045   0.692   7.354   2.513 -1.1169 -0.9944 -0.3834
  180HK4    C4915046   0.903   7.330   2.536  0.3732 -0.4038 -0.4680
  180HK4    H2915047   0.921   7.387   2.627 -2.9346 -0.4559  0.2992
  180HK4     N215048   0.661   7.185   2.305  0.2891 -0.1347  0.3314
  180HK4    C3015049   0.648   7.149   2.169  0.1410  0.4397  0.1949
  180HK4    C2915050   0.736   7.169   2.063 -0.1973 -0.0050 -0.1727
  180HK4    H1515051   0.835   7.210   2.082  0.8900 -2.3295 -0.7057
  180HK4    C2815052   0.692   7.168   1.931 -0.2825 -0.1299 -0.1440
  180HK4    C2715053   0.555   7.146   1.908 -0.3359  0.2902 -0.2311
  180HK4    H1415054   0.524   7.132   1.803 -1.6438  0.8277  0.0682
  180HK4    C3215055   0.464   7.131   2.012  0.2424 -0.4787  0.1639
  180HK4    H1615056   0.359   7.115   1.987  0.2697  2.0468 -1.7120
  180HK4    C3115057   0.507   7.126   2.144  0.1644  0.2761  0.2165
  180HK4    C3415058   0.432   7.153   2.266 -0.2400 -0.5368  0.1506
  180HK4    C3315059   0.534   7.183   2.365 -0.0748  0.7371 -0.3965
  180HK4    C3515060   0.487   7.186   2.496 -0.6290  0.4445 -0.5829
  180HK4    H1715061   0.556   7.220   2.574 -1.2388 -0.2393  0.2539
  180HK4    C3615062   0.356   7.155   2.528 -0.5444  0.7249  0.0455
  180HK4    H1815063   0.333   7.122   2.631 -1.2652  0.4029 -0.2161
  180HK4    C3715064   0.261   7.122   2.432 -0.0760 -0.4928 -0.0115
  180HK4    H1915065   0.163   7.092   2.470  0.2081 -1.0284  0.3029
  180HK4    C3815066   0.300   7.126   2.299 -0.4135  0.0002 -0.0990
  180HK4    H2015067   0.232   7.124   2.214 -2.3295 -3.1400  1.4003
  180HK4    C1415068   0.781   7.235   1.835 -0.1183 -0.4456 -0.2109
  180HK4     C915069   0.744   7.310   1.723  0.1569  0.2409  0.1529
  180HK4     C815070   0.808   7.314   1.597 -0.0380  0.9027  0.0762
  180HK4    C1115071   0.924   7.238   1.599 -0.2151  0.6385  0.3624
  180HK4     H415072   0.982   7.223   1.506 -2.0776  0.7998 -0.8671
  180HK4    C1215073   0.978   7.173   1.709 -0.2996 -0.3540 -0.1676
  180HK4     H515074   1.066   7.108   1.702 -0.1396 -0.0524 -1.0049
  180HK4    C1315075   0.909   7.176   1.830  0.0852 -0.0273  0.0469
  180HK4     H615076   0.954   7.147   1.926 -1.8632 -0.8052  0.7417
  180HK4     C715077   0.756   7.372   1.471  0.5184  0.1222 -0.5136
  180HK4     O215078   0.824   7.369   1.369  0.7561 -0.1505 -0.3476
  180HK4     C415079   0.616   7.420   1.480  0.5950  0.2182  0.2664
  180HK4     C315080   0.549   7.458   1.364  0.1882 -0.5269  0.2563
  180HK4     H315081   0.609   7.491   1.278 -0.0948 -0.7333 -0.0244
  180HK4     C215082   0.413   7.480   1.378  0.3810  0.5334  0.4747
  180HK4     H215083   0.355   7.503   1.287  1.3311 -1.0505 -0.5321
  180HK4     C115084   0.342   7.474   1.498  0.1441  0.0297  0.3106
  180HK4     H115085   0.237   7.505   1.486 -0.2776 -1.1265  0.9714
  180HK4     C615086   0.409   7.449   1.619  0.0654  0.2963  0.4081
  180HK4     C515087   0.545   7.423   1.601 -0.1425 -0.4168 -0.1432
  180HK4    C1015088   0.620   7.392   1.727 -0.0565 -0.0643 -0.1082
  180HK4     O115089   0.616   7.480   1.813 -0.1927 -0.1731 -0.0019
  180HK4    C1615090   0.315   7.398   1.720 -0.3857  0.7104  0.2038
  180HK4    C1515091   0.208   7.312   1.691 -0.0149  0.3413 -0.0800
  180HK4     H715092   0.209   7.277   1.586  0.3785  1.4422 -0.4478
  180HK4    C2015093   0.117   7.265   1.785  0.1231 -0.0136 -0.1220
  180HK4     H915094   0.038   7.203   1.743  1.4215 -0.2505 -2.2959
  180HK4    C1915095   0.135   7.294   1.919  0.9549 -0.6875 -0.0853
  180HK4    C1815096   0.242   7.386   1.953 -0.0767  0.6782 -0.4819
  180HK4    C1715097   0.329   7.431   1.855  0.5693  0.7181  0.1059
  180HK4     H815098   0.395   7.514   1.881 -2.6987  3.6886 -0.6989
  180HK4     N115099   0.228   7.443   2.081 -0.1034 -0.1156 -0.1336
  180HK4    C2115100   0.108   7.391   2.136 -0.2516  0.0392 -0.3126
  180HK4    C2215101   0.049   7.305   2.036  0.1278  0.3168 -0.7774
  180HK4    C2615102  11.194   7.218   2.069  0.4058  0.2554 -0.0754
  180HK4    H1315103  11.157   7.138   2.006 -0.4154  1.6360 -1.3696
  180HK4    C2515104  11.133   7.226   2.194 -0.2596  0.1372 -0.3907
  180HK4    H1215105  11.047   7.167   2.226 -0.0353  0.0141 -0.0016
  180HK4    C2415106  11.192   7.308   2.289  0.5116 -0.4748 -0.3308
  180HK4    H1115107  11.150   7.311   2.391  0.1236  0.0638 -0.5012
  180HK4    C2315108   0.048   7.396   2.261 -0.0967  0.2793 -0.2462
  180HK4    H1015109   0.054   7.479   2.332  3.0200 -0.4126  0.3666
  180HK4    C3915110   0.327   7.509   2.154  0.0540 -0.2245 -0.2494
  180HK4    C4115111   0.286   7.616   2.237  0.1016  0.0178 -0.5345
  180HK4    H2115112   0.180   7.643   2.240  0.4840  1.4047  1.1841
  180HK4    C4215113   0.370   7.699   2.309 -0.1544  0.0392 -0.2566
  180HK4    H2215114   0.318   7.789   2.345  1.4679  0.4845  1.0205
  180HK4    C4315115   0.507   7.673   2.310 -0.1009  0.3110 -0.2476
  180HK4    H2315116   0.587   7.741   2.340  0.7504 -1.7350  2.3625
  180HK4    C4415117   0.549   7.563   2.237 -0.0280  0.2799 -0.1605
  180HK4    H2415118   0.651   7.521   2.231 -0.1522  0.2768 -2.4113
  180HK4    C4515119   0.466   7.484   2.158 -0.0138 -0.4712  0.5593
  180HK4    H2515120   0.512   7.428   2.076 -0.1619 -0.0976  0.2137
  181HK4    H2815121   9.592   7.324   8.374 -1.1573  1.2304  0.4136
  181HK4    C4815122   9.673   7.388   8.339 -0.3302 -0.0670 -0.0845
  181HK4    C4715123   9.679   7.455   8.217  0.2544 -0.5339 -0.3159
  181HK4    H2715124   9.590   7.463   8.153 -1.0006  3.3941  1.7435
  181HK4    C4615125   9.794   7.528   8.189  0.0556  0.1258  0.5778
  181HK4    H2615126   9.800   7.569   8.088  0.0661 -2.9308 -0.6990
  181HK4    C4015127   9.902   7.545   8.278  0.1441 -0.1156  0.5125
  181HK4    C5015128   9.890   7.479   8.402 -0.3022 -0.6795  0.1716
  181HK4    H3015129   9.972   7.475   8.475  0.0311 -2.7462 -0.2758
  181HK4    C4915130   9.773   7.410   8.433 -0.4047 -0.5320  0.1032
  181HK4    H2915131   9.761   7.392   8.541  1.7038 -0.9287  0.2971
  181HK4     N215132  10.027   7.581   8.227  0.0156 -0.1029  0.2128
  181HK4    C3015133  10.075   7.558   8.096 -0.0927  0.3756  0.0884
  181HK4    C2915134  10.020   7.478   7.996  0.6602 -0.5247  0.3814
  181HK4    H1515135   9.934   7.414   8.010  0.1302 -0.3644 -1.8446
  181HK4    C2815136  10.081   7.475   7.871 -0.1296  0.0010 -0.0183
  181HK4    C2715137  10.203   7.543   7.855 -0.0539 -0.1304 -0.0134
  181HK4    H1415138  10.244   7.542   7.752  1.6419  1.7643  0.6193
  181HK4    C3215139  10.262   7.623   7.952 -0.4204  0.3900 -0.2200
  181HK4    H1615140  10.364   7.659   7.942  0.9999 -3.4213 -0.0797
  181HK4    C3115141  10.203   7.625   8.078  0.2917 -0.3381  0.1254
  181HK4    C3415142  10.227   7.699   8.200 -0.6138  0.3316 -0.0955
  181HK4    C3315143  10.123   7.661   8.293 -0.0866 -0.0717  0.3257
  181HK4    C3515144  10.136   7.707   8.423  0.0520 -0.5784  0.4915
  181HK4    H1715145  10.083   7.664   8.509  2.3079 -2.4883  0.9912
  181HK4    C3615146  10.233   7.798   8.463 -0.2915  0.2827 -0.6125
  181HK4    H1815147  10.229   7.847   8.561  0.1257 -2.5332  0.8785
  181HK4    C3715148  10.329   7.835   8.369  0.1076 -0.1155 -0.3688
  181HK4    H1915149  10.385   7.925   8.397 -0.0937 -0.0914 -0.0407
  181HK4    C3815150  10.323   7.793   8.237  0.0255 -0.2214 -0.3305
  181HK4    H2015151  10.394   7.834   8.166  0.3394 -0.8488 -0.3846
  181HK4    C1415152  10.026   7.378   7.774  0.0604  0.3703 -0.4938
  181HK4     C915153  10.109   7.323   7.675  0.1947 -0.0351 -0.1584
  181HK4     C815154  10.075   7.329   7.539  0.1592 -0.7704 -0.1831
  181HK4    C1115155   9.942   7.359   7.510  0.3080  0.2740  0.1822
  181HK4     H415156   9.915   7.342   7.405  0.5011 -0.7057  0.2912
  181HK4    C1215157   9.845   7.380   7.607 -0.2733  0.8806 -0.5253
  181HK4     H515158   9.737   7.388   7.587 -0.6929 -1.7311  0.4929
  181HK4    C1315159   9.891   7.394   7.737 -0.0529 -0.4737 -0.4427
  181HK4     H615160   9.840   7.467   7.802  0.1745 -1.1776  0.5248
  181HK4     C715161  10.164   7.278   7.432 -0.2343 -0.7972 -0.4969
  181HK4     O215162  10.158   7.333   7.322  0.1676 -0.0273 -0.1381
  181HK4     C415163  10.270   7.186   7.479 -0.2129 -0.4985  0.0474
  181HK4     C315164  10.340   7.127   7.375  0.2022 -0.0909  0.0927
  181HK4     H315165  10.292   7.117   7.276 -0.5784  2.6807  0.1658
  181HK4     C215166  10.456   7.054   7.397  0.4113  0.3132  0.3478
  181HK4     H215167  10.494   6.991   7.315  1.3789 -0.0366  1.0633
  181HK4     C115168  10.503   7.048   7.527  0.0703 -0.1113  0.4543
  181HK4     H115169  10.596   6.990   7.539  0.6576  0.8312  0.4871
  181HK4     C615170  10.442   7.115   7.635  0.1028  0.1884  0.2834
  181HK4     C515171  10.322   7.184   7.610 -0.4393 -0.8031  0.1315
  181HK4    C1015172  10.231   7.245   7.710  0.4169  0.4502  0.1593
  181HK4     O115173  10.245   7.208   7.827  0.1692  0.0719  0.0705
  181HK4    C1615174  10.537   7.150   7.741 -0.1328 -0.2789  0.6495
  181HK4    C1515175  10.669   7.195   7.716 -0.2350 -0.0309  0.5539
  181HK4     H715176  10.682   7.249   7.622 -2.2246  0.4189  0.5044
  181HK4    C2015177  10.766   7.191   7.815  0.6974 -0.7408 -0.3862
  181HK4     H915178  10.862   7.240   7.796  0.8853 -0.5373  0.9848
  181HK4    C1915179  10.742   7.141   7.943 -0.3067  0.6253 -0.0341
  181HK4    C1815180  10.608   7.095   7.974 -0.1295  0.2336  0.1559
  181HK4    C1715181  10.517   7.101   7.869 -0.4923 -0.7393  0.4169
  181HK4     H815182  10.433   7.037   7.897 -0.9660  0.9022  2.9531
  181HK4     N115183  10.597   7.065   8.111  0.1519 -0.1766  0.0893
  181HK4    C2115184  10.719   7.101   8.171  0.0029  0.0133  0.2862
  181HK4    C2215185  10.814   7.143   8.069 -0.1260 -0.6712 -0.1171
  181HK4    C2615186  10.930   7.212   8.100  0.1056 -0.9724 -0.3209
  181HK4    H1315187  11.010   7.212   8.026  1.6437  1.8563  1.2589
  181HK4    C2515188  10.952   7.255   8.231  0.0429 -0.4430 -0.4863
  181HK4    H1215189  11.043   7.304   8.264 -0.4791  0.3427 -0.2000
  181HK4    C2415190  10.861   7.216   8.329  0.0043 -0.0985 -0.3884
  181HK4    H1115191  10.893   7.235   8.432 -0.8753 -0.0965 -0.1115
  181HK4    C2315192  10.744   7.147   8.300 -0.3142  0.1462  0.2979
  181HK4    H1015193  10.665   7.151   8.375  1.2033 -0.5537  1.9746
  181HK4    C3915194  10.472   7.054   8.172 -0.0101  0.0326 -0.2066
  181HK4    C4115195  10.471   6.993   8.299  0.1023  0.0569 -0.1900
  181HK4    H2115196  10.544   6.914   8.325  1.0407  0.5923 -1.1649
  181HK4    C4215197  10.367   6.996   8.391  0.4295 -0.4740  0.2011
  181HK4    H2215198  10.379   6.958   8.494 -0.2675  0.6396  0.7024
  181HK4    C4315199  10.257   7.073   8.356  0.5259 -0.5172 -0.1995
  181HK4    H2315200  10.161   7.059   8.407  0.6896 -0.2354  0.1868
  181HK4    C4415201  10.256   7.141   8.235  0.0589  0.2177  0.2065
  181HK4    H2415202  10.177   7.215   8.216 -0.6730 -0.5947  0.0742
  181HK4    C4515203  10.358   7.132   8.141  0.1223  0.4068  0.2581
  181HK4    H2515204  10.349   7.181   8.043 -0.5497  0.4336  0.3359
  182HK4    H2815205   1.532   7.490   9.057 -0.4122 -1.0062 -0.8724
  182HK4    C4815206   1.504   7.542   8.965  0.1345  0.2910 -0.3212
  182HK4    C4715207   1.386   7.502   8.905 -0.1870  0.2951  0.3079
  182HK4    H2715208   1.311   7.447   8.964  0.0227  0.3912  0.6628
  182HK4    C4615209   1.350   7.534   8.775  0.0152  0.0335  0.1863
  182HK4    H2615210   1.253   7.499   8.736  0.2188 -2.6086  1.9598
  182HK4    C4015211   1.436   7.613   8.696 -0.0089 -0.1980 -0.0680
  182HK4    C5015212   1.559   7.651   8.755 -0.1730  0.6299 -0.2520
  182HK4    H3015213   1.637   7.695   8.692  0.8767 -1.0726 -0.1874
  182HK4    C4915214   1.589   7.619   8.887  0.1748  0.1113 -0.4515
  182HK4    H2915215   1.666   7.682   8.934 -0.7046 -0.3904  1.6979
  182HK4     N215216   1.406   7.672   8.572 -0.1297 -0.1496 -0.0185
  182HK4    C3015217   1.319   7.621   8.474  0.1465  0.1354 -0.4117
  182HK4    C2915218   1.246   7.503   8.468  0.5793 -0.1581  0.0672
  182HK4    H1515219   1.292   7.420   8.521 -1.0397 -0.3631  1.1829
  182HK4    C2815220   1.133   7.477   8.391  0.7470 -0.7040  0.0035
  182HK4    C2715221   1.106   7.581   8.300  0.3628 -0.2464  0.6384
  182HK4    H1415222   1.017   7.573   8.235 -0.8373 -0.2048  2.2395
  182HK4    C3215223   1.176   7.700   8.288 -0.3380  0.1559  0.5289
  182HK4    H1615224   1.137   7.788   8.236 -0.0386  0.5999  1.0483
  182HK4    C3115225   1.284   7.719   8.373  0.1234  0.4359 -0.1105
  182HK4    C3415226   1.357   7.839   8.411 -0.0253  0.2657  0.7303
  182HK4    C3315227   1.431   7.804   8.530  0.2728 -0.0779  0.4472
  182HK4    C3515228   1.500   7.911   8.586  0.6418  0.0725 -0.2895
  182HK4    H1715229   1.547   7.894   8.683 -0.6577  0.0002  0.3407
  182HK4    C3615230   1.497   8.044   8.545 -0.1758  0.0859 -0.1909
  182HK4    H1815231   1.521   8.128   8.612  0.9354  0.9273 -1.6129
  182HK4    C3715232   1.423   8.067   8.430  0.2341 -0.1509 -0.5027
  182HK4    H1915233   1.425   8.162   8.376  1.9312  0.1388  0.0347
  182HK4    C3815234   1.356   7.968   8.360 -0.0600 -0.1206 -0.2637
  182HK4    H2015235   1.297   7.998   8.273  1.5456 -0.4498 -1.5093
  182HK4    C1415236   1.052   7.355   8.407 -0.1333 -0.0783  0.3024
  182HK4     C915237   0.955   7.305   8.319  0.0886  0.1574 -0.0793
  182HK4     C815238   0.868   7.200   8.354  0.0652 -0.0473 -0.7402
  182HK4    C1115239   0.870   7.147   8.483  0.2376  0.3837 -0.5660
  182HK4     H415240   0.812   7.058   8.508  1.4699 -0.1528  0.4490
  182HK4    C1215241   0.960   7.197   8.577 -0.3274  0.3299 -0.0008
  182HK4     H515242   0.961   7.160   8.681  0.5934  2.6634  0.8580
  182HK4    C1315243   1.047   7.297   8.535 -0.0830  0.3245  0.4893
  182HK4     H615244   1.125   7.328   8.606  0.2723  1.7942 -0.5254
  182HK4     C715245   0.750   7.168   8.271 -0.4909 -0.0100  0.0239
  182HK4     O215246   0.728   7.048   8.255  0.6131 -0.2235  0.0389
  182HK4     C415247   0.719   7.265   8.163  0.1980 -0.1968 -0.3463
  182HK4     C315248   0.590   7.251   8.112 -0.1246 -0.5803  0.5604
  182HK4     H315249   0.511   7.194   8.164 -1.2459 -0.9949 -1.5710
  182HK4     C215250   0.555   7.337   8.009  0.6881 -0.3175  0.5014
  182HK4     H215251   0.450   7.343   7.977  0.7782  2.0482  0.5600
  182HK4     C115252   0.648   7.421   7.947  0.0213 -0.2335 -0.4064
  182HK4     H115253   0.623   7.481   7.859  3.1781  0.1880 -1.0524
  182HK4     C615254   0.779   7.434   7.998 -0.2996  0.6171  0.1999
  182HK4     C515255   0.814   7.351   8.105  0.1885 -0.5245 -0.8471
  182HK4    C1015256   0.943   7.356   8.179 -0.2578  0.0040 -0.1035
  182HK4     O115257   1.047   7.340   8.115 -0.3134 -0.0743 -0.1754
  182HK4    C1615258   0.848   7.559   7.962  0.5577  0.2129  0.4496
  182HK4    C1515259   0.778   7.680   7.950  0.0276 -0.1164  0.2170
  182HK4     H715260   0.675   7.685   7.989  0.4458 -0.5385  1.3947
  182HK4    C2015261   0.838   7.796   7.903 -0.0739 -0.0224  0.3169
  182HK4     H915262   0.782   7.885   7.876  0.3453  0.5221  1.2189
  182HK4    C1915263   0.972   7.785   7.866 -0.2198  0.1062 -0.2626
  182HK4    C1815264   1.046   7.661   7.852  0.1223  0.2373  0.3225
  182HK4    C1715265   0.975   7.554   7.906  0.4018 -0.0500  0.1193
  182HK4     H815266   1.019   7.456   7.886  2.5158  1.3803 -2.7085
  182HK4     N115267   1.176   7.681   7.802  0.1738  0.0122  0.3671
  182HK4    C2115268   1.190   7.821   7.798  0.2168  0.0074  0.3186
  182HK4    C2215269   1.066   7.889   7.829  0.1208 -0.0686  0.0972
  182HK4    C2615270   1.061   8.028   7.817  0.5090 -0.0503  0.1541
  182HK4    H1315271   0.973   8.080   7.853  0.2353  0.0202 -0.5978
  182HK4    C2515272   1.174   8.094   7.770  0.4622 -0.1768 -0.1342
  182HK4    H1215273   1.182   8.202   7.785  2.9522 -0.2651 -0.5831
  182HK4    C2415274   1.292   8.031   7.731  0.6905  0.2562 -0.1559
  182HK4    H1115275   1.366   8.074   7.663 -0.0259  0.9944 -0.4727
  182HK4    C2315276   1.299   7.893   7.749 -0.0880  0.2268 -0.0451
  182HK4    H1015277   1.398   7.847   7.744 -0.1249  0.4168 -2.8811
  182HK4    C3915278   1.277   7.586   7.781 -0.2588 -0.2562 -0.5000
  182HK4    C4115279   1.265   7.457   7.838  0.2088  0.0101  0.2063
  182HK4    H2115280   1.249   7.448   7.946  1.0129 -2.0766  0.1802
  182HK4    C4215281   1.304   7.341   7.771  0.4764 -0.1300  0.6046
  182HK4    H2215282   1.321   7.243   7.818 -0.0334 -0.4756  0.0624
  182HK4    C4315283   1.357   7.352   7.643  1.0051 -0.7277  0.7673
  182HK4    H2315284   1.377   7.258   7.592  0.6003 -0.5497  0.2796
  182HK4    C4415285   1.390   7.477   7.593  0.2310 -0.7469  0.2024
  182HK4    H2415286   1.436   7.479   7.493 -0.1887  0.4759  0.0232
  182HK4    C4515287   1.348   7.592   7.660  0.3370 -0.4950 -0.1608
  182HK4    H2515288   1.362   7.690   7.613 -0.4472 -1.1551 -1.8150
  183HK4    H2815289   9.151   3.068   4.692 -1.6039  0.1229  0.0310
  183HK4    C4815290   9.155   3.106   4.590  0.0669 -0.1985 -0.0333
  183HK4    C4715291   9.109   3.230   4.547  0.5707  0.0279  0.0623
  183HK4    H2715292   9.076   3.312   4.613 -0.5437  0.3982 -0.9306
  183HK4    C4615293   9.134   3.272   4.417 -0.7766 -0.0949 -0.2468
  183HK4    H2615294   9.124   3.381   4.404 -0.5275  0.1494  1.5279
  183HK4    C4015295   9.197   3.197   4.316 -1.1481 -0.4354 -0.2282
  183HK4    C5015296   9.251   3.077   4.366 -0.3627  0.0738  0.1571
  183HK4    H3015297   9.318   3.017   4.303  0.7723 -0.4983  1.8572
  183HK4    C4915298   9.228   3.033   4.496  0.8692  0.0625  0.3806
  183HK4    H2915299   9.241   2.926   4.518 -0.3603 -0.2738 -0.5030
  183HK4     N215300   9.168   3.231   4.183  0.0967  0.4305 -0.2907
  183HK4    C3015301   9.066   3.320   4.142 -0.5065 -0.0271  0.2128
  183HK4    C2915302   8.941   3.341   4.198 -0.3809 -0.2282  0.5748
  183HK4    H1515303   8.914   3.284   4.287  1.1854 -1.9727 -0.0607
  183HK4    C2815304   8.853   3.433   4.141  0.4755  0.0680 -0.2722
  183HK4    C2715305   8.896   3.499   4.024  0.0931 -0.0041 -0.4536
  183HK4    H1415306   8.831   3.580   3.988  1.5816  0.7886 -1.4097
  183HK4    C3215307   9.017   3.477   3.959  0.3330 -0.1527  0.0413
  183HK4    H1615308   9.047   3.524   3.866 -0.8581  1.5473  0.4968
  183HK4    C3115309   9.104   3.386   4.019 -0.1511 -0.6661 -0.0276
  183HK4    C3415310   9.230   3.332   3.973 -0.1966 -0.3725 -0.5011
  183HK4    C3315311   9.263   3.240   4.080 -0.1018 -0.3872 -0.5417
  183HK4    C3515312   9.385   3.173   4.073  0.4177  0.4922 -0.0279
  183HK4    H1715313   9.409   3.101   4.152  0.2051 -1.1931 -1.4582
  183HK4    C3615314   9.472   3.190   3.966  0.7792  0.4317  0.2567
  183HK4    H1815315   9.554   3.117   3.961 -1.7102 -2.5289  1.0878
  183HK4    C3715316   9.441   3.284   3.868 -0.3589 -0.1132  0.0852
  183HK4    H1915317   9.528   3.316   3.809  2.1003 -0.8403  3.1926
  183HK4    C3815318   9.320   3.351   3.869 -0.1406  0.2949 -0.3287
  183HK4    H2015319   9.298   3.421   3.789  0.6252  0.2186 -0.6132
  183HK4    C1415320   8.754   3.506   4.222 -0.0392 -0.5114 -0.3786
  183HK4     C915321   8.650   3.447   4.294 -0.3225  0.3008 -0.1322
  183HK4     C815322   8.594   3.517   4.404  0.1209 -0.1055  0.3564
  183HK4    C1115323   8.640   3.643   4.440  0.0126 -0.1133  0.5212
  183HK4     H415324   8.584   3.702   4.514  0.1619 -0.0854  0.6132
  183HK4    C1215325   8.741   3.701   4.363 -0.0430 -0.2197  0.3729
  183HK4     H515326   8.799   3.782   4.409  2.4941 -2.0360  0.5191
  183HK4    C1315327   8.797   3.636   4.254 -0.7031 -0.4191  0.1477
  183HK4     H615328   8.870   3.691   4.193  0.8841 -1.4965  1.0256
  183HK4     C715329   8.478   3.463   4.478 -0.0729  0.1587  0.2470
  183HK4     O215330   8.429   3.527   4.571 -0.9456  0.2088 -0.2485
  183HK4     C415331   8.423   3.331   4.439  0.2451  0.1277 -0.0955
  183HK4     C315332   8.328   3.260   4.511  0.2669  0.3299  0.1341
  183HK4     H315333   8.276   3.309   4.595 -0.9186 -1.5897  0.5496
  183HK4     C215334   8.274   3.137   4.476 -0.3484  0.8007 -0.5869
  183HK4     H215335   8.199   3.087   4.539  1.3317 -1.4990 -0.3444
  183HK4     C115336   8.312   3.090   4.350  0.2306  0.1628 -0.1767
  183HK4     H115337   8.252   3.009   4.307  1.3903 -0.3842 -0.7970
  183HK4     C615338   8.393   3.162   4.260  0.0249  0.2853 -0.2609
  183HK4     C515339   8.456   3.274   4.314 -0.2614  0.5184 -0.4077
  183HK4    C1015340   8.583   3.321   4.251  0.0762  0.0652 -0.0639
  183HK4     O115341   8.660   3.232   4.216  0.3843  0.2442  0.1470
  183HK4    C1615342   8.365   3.130   4.119  0.0278 -0.0540 -0.1828
  183HK4    C1515343   8.402   3.227   4.024 -0.6923 -0.0630 -0.4782
  183HK4     H715344   8.461   3.319   4.042 -1.3405  0.2320  0.2244
  183HK4    C2015345   8.355   3.222   3.894 -0.6032  0.3522 -0.5258
  183HK4     H915346   8.365   3.309   3.829  0.9014 -0.4386 -1.3862
  183HK4    C1915347   8.290   3.107   3.851 -0.6913  0.2011  0.0038
  183HK4    C1815348   8.269   2.996   3.942 -0.3496  0.1169 -0.0187
  183HK4    C1715349   8.311   3.010   4.074 -0.2643  0.0214 -0.0365
  183HK4     H815350   8.307   2.922   4.138 -1.6016  0.2310  0.1961
  183HK4     N115351   8.234   2.877   3.876  0.4368  0.0291 -0.2798
  183HK4    C2115352   8.235   2.913   3.739 -0.0227 -0.0578 -0.3056
  183HK4    C2215353   8.272   3.052   3.718  0.6869 -0.1992 -0.0284
  183HK4    C2615354   8.282   3.099   3.588  0.3257 -0.0766 -0.0129
  183HK4    H1315355   8.313   3.199   3.556  1.6093 -0.2058  0.7931
  183HK4    C2515356   8.269   3.013   3.479 -0.2740 -0.0114  0.0065
  183HK4    H1215357   8.319   3.036   3.385  0.2945 -1.3826 -0.0340
  183HK4    C2415358   8.230   2.882   3.500 -0.1179 -0.0815 -0.1413
  183HK4    H1115359   8.252   2.815   3.415  0.0745 -0.9174  0.5531
  183HK4    C2315360   8.215   2.831   3.629  0.7374 -0.4313 -0.1711
  183HK4    H1015361   8.185   2.728   3.648 -1.8168 -0.1779 -2.4580
  183HK4    C3915362   8.160   2.774   3.936 -0.5026  0.4205 -0.7542
  183HK4    C4115363   8.126   2.655   3.870  0.1007 -0.3224  0.2675
  183HK4    H2115364   8.214   2.607   3.824 -1.6271 -1.7477 -1.6417
  183HK4    C4215365   8.020   2.571   3.901 -0.2027 -0.0097  0.0749
  183HK4    H2215366   8.007   2.471   3.857  0.4894  0.1114 -0.4182
  183HK4    C4315367   7.942   2.611   4.009  0.6093 -0.3031  0.7698
  183HK4    H2315368   7.858   2.548   4.040 -0.7128 -0.5552 -3.1010
  183HK4    C4415369   7.977   2.725   4.081 -0.2240  0.5518 -0.1683
  183HK4    H2415370   7.923   2.723   4.177  0.1431  0.2411  0.0328
  183HK4    C4515371   8.083   2.809   4.049  0.2724 -0.0381 -0.0767
  183HK4    H2515372   8.084   2.907   4.098  0.2309 -0.6460  1.1705
  184HK4    H2815373   0.376   7.195   3.900  0.5963  1.6403  0.1418
  184HK4    C4815374   0.451   7.159   3.830 -0.2122  0.4223 -0.1273
  184HK4    C4715375   0.555   7.240   3.784  0.0120  0.0362 -0.3033
  184HK4    H2715376   0.552   7.347   3.809  3.2518  0.1263 -0.1753
  184HK4    C4615377   0.662   7.192   3.711  0.1158 -0.0999 -0.0619
  184HK4    H2615378   0.731   7.265   3.665  1.0232  0.2981  1.8674
  184HK4    C4015379   0.670   7.056   3.674 -0.1795 -0.0049 -0.4857
  184HK4    C5015380   0.569   6.974   3.728  0.4046 -0.1644  0.3820
  184HK4    H3015381   0.593   6.867   3.718  0.1299 -0.2404  0.5325
  184HK4    C4915382   0.461   7.024   3.800  0.4755  0.4200  0.0893
  184HK4    H2915383   0.381   6.957   3.836  0.1001  0.1899 -1.1339
  184HK4     N215384   0.778   6.997   3.607  0.1215 -0.1909  0.1574
  184HK4    C3015385   0.915   7.030   3.620  0.0472  0.0743  0.2652
  184HK4    C2915386   0.984   7.110   3.709  0.2495  0.2237 -0.0250
  184HK4    H1515387   0.935   7.151   3.798  0.7905  1.5424 -0.3223
  184HK4    C2815388   1.121   7.135   3.697  0.4159 -0.5821  0.1894
  184HK4    C2715389   1.187   7.070   3.591 -0.0079 -0.2616 -0.2751
  184HK4    H1415390   1.294   7.088   3.578  0.1759  0.6454  2.1841
  184HK4    C3215391   1.126   6.989   3.496 -0.4810  0.2330 -0.3985
  184HK4    H1615392   1.172   6.945   3.407 -2.6807 -1.5748 -0.7080
  184HK4    C3115393   0.990   6.964   3.515 -0.5406  0.5254 -0.4491
  184HK4    C3415394   0.897   6.886   3.436  0.0023  0.1122 -0.6837
  184HK4    C3315395   0.767   6.915   3.493  0.2771 -0.0506  0.0401
  184HK4    C3515396   0.653   6.864   3.431 -0.0097 -0.2222  0.7117
  184HK4    H1715397   0.556   6.881   3.478 -0.4785  0.7863 -0.6004
  184HK4    C3615398   0.672   6.788   3.316 -0.2147  0.6285  0.1149
  184HK4    H1815399   0.589   6.726   3.279 -0.3559 -0.3494  2.0100
  184HK4    C3715400   0.798   6.759   3.267 -0.1344  0.1805  0.5898
  184HK4    H1915401   0.816   6.698   3.179  1.3231  2.2993 -0.6217
  184HK4    C3815402   0.916   6.808   3.323  0.5218 -0.5129 -0.1742
  184HK4    H2015403   1.015   6.768   3.300  1.3804  0.3865  1.8171
  184HK4    C1415404   1.166   7.267   3.743 -0.1552 -0.5832  0.7634
  184HK4     C915405   1.262   7.343   3.675 -1.0649  0.1894  0.3379
  184HK4     C815406   1.359   7.422   3.740 -0.4948  0.1707 -0.4761
  184HK4    C1115407   1.347   7.429   3.879  0.7714  0.0007 -0.3502
  184HK4     H415408   1.434   7.464   3.936  1.5488  1.6851 -2.5102
  184HK4    C1215409   1.251   7.361   3.954  0.2291  0.5126 -0.5719
  184HK4     H515410   1.237   7.370   4.062 -1.3957 -0.9559 -0.6397
  184HK4    C1315411   1.162   7.280   3.884 -0.4944  0.2114  0.6807
  184HK4     H615412   1.097   7.211   3.938  0.7754 -0.2128  1.6974
  184HK4     C715413   1.477   7.480   3.672 -0.2356  0.2550  0.0388
  184HK4     O215414   1.558   7.546   3.736  0.8613 -0.4424 -0.6139
  184HK4     C415415   1.479   7.465   3.525 -0.5311  0.1145  0.0482
  184HK4     C315416   1.594   7.505   3.458 -0.3772 -0.4587 -0.0267
  184HK4     H315417   1.684   7.533   3.515 -1.7121  1.8974  0.9584
  184HK4     C215418   1.592   7.534   3.322  0.4113  0.6193  0.1912
  184HK4     H215419   1.684   7.572   3.275  0.8522 -0.7909 -0.1044
  184HK4     C115420   1.472   7.520   3.254  0.4017  0.8291  0.1652
  184HK4     H115421   1.475   7.554   3.150 -1.2889  0.6434  0.0352
  184HK4     C615422   1.352   7.479   3.317  0.3101  0.2019 -0.4194
  184HK4     C515423   1.359   7.446   3.453 -0.1160 -0.3220 -0.5254
  184HK4    C1015424   1.254   7.374   3.530  0.6509 -0.9047 -0.0058
  184HK4     O115425   1.156   7.346   3.460  0.3469 -0.2676  0.1650
  184HK4    C1615426   1.240   7.468   3.223 -0.1355  0.2847  0.1068
  184HK4    C1515427   1.262   7.447   3.086 -0.2777 -0.2751  0.1661
  184HK4     H715428   1.355   7.396   3.055  0.5906 -0.5923  3.1724
  184HK4    C2015429   1.180   7.496   2.985 -0.3611 -1.0280 -0.1337
  184HK4     H915430   1.204   7.462   2.884  0.6256 -0.1104 -0.2167
  184HK4    C1915431   1.061   7.560   3.017  0.0239 -0.3969  0.0468
  184HK4    C1815432   1.024   7.570   3.157 -0.6346 -0.0985 -0.1458
  184HK4    C1715433   1.119   7.533   3.250 -0.6159 -0.4317 -0.2967
  184HK4     H815434   1.116   7.583   3.347 -0.5059 -0.4019 -0.3076
  184HK4     N115435   0.892   7.618   3.172 -0.3447  0.6550 -0.0118
  184HK4    C2115436   0.845   7.646   3.042 -0.1972  0.5036 -0.0984
  184HK4    C2215437   0.946   7.610   2.944  0.0600  0.0841  0.3185
  184HK4    C2615438   0.923   7.623   2.808 -0.0673  0.1672  0.3467
  184HK4    H1315439   1.001   7.596   2.737  0.7216  0.1004  1.2377
  184HK4    C2515440   0.800   7.674   2.767  0.1160  0.4514  0.1455
  184HK4    H1215441   0.764   7.641   2.670 -2.2070  1.9583  0.4624
  184HK4    C2415442   0.704   7.709   2.861 -0.4485 -0.0384 -0.2461
  184HK4    H1115443   0.608   7.751   2.826  0.4804  2.1968 -0.1993
  184HK4    C2315444   0.723   7.696   2.998 -0.3261  0.0562 -0.2544
  184HK4    H1015445   0.640   7.720   3.065  0.2110  4.5762 -1.0020
  184HK4    C3915446   0.806   7.571   3.272  0.0467  0.0258  0.0343
  184HK4    C4115447   0.690   7.641   3.312 -0.3247 -0.2594 -0.5488
  184HK4    H2115448   0.670   7.747   3.295  0.4703  0.2688  1.6520
  184HK4    C4215449   0.597   7.579   3.395  0.0058 -0.1557 -0.1004
  184HK4    H2215450   0.509   7.630   3.439  0.6432  0.4596  0.4878
  184HK4    C4315451   0.615   7.448   3.435  0.2602 -0.0587  0.1082
  184HK4    H2315452   0.527   7.396   3.475 -0.8034  3.3637  2.3795
  184HK4    C4415453   0.732   7.379   3.403  0.0075 -0.3289 -0.2403
  184HK4    H2415454   0.749   7.276   3.438  1.0233  0.5944  2.1210
  184HK4    C4515455   0.822   7.438   3.316  0.0405  0.0237  0.0296
  184HK4    H2515456   0.895   7.370   3.270 -0.3856 -0.8485  0.6289
  185HK4    H2815457   6.794   1.737   9.514  1.0047 -1.0805  0.7821
  185HK4    C4815458   6.712   1.672   9.544 -0.1855  0.3110  0.5926
  185HK4    C4715459   6.735   1.588   9.652  0.1529 -0.2160  0.1129
  185HK4    H2715460   6.836   1.545   9.659 -1.3481 -3.9794 -0.5246
  185HK4    C4615461   6.621   1.532   9.708 -0.2062 -0.1215 -0.5177
  185HK4    H2615462   6.636   1.495   9.811 -1.1691 -0.1444 -0.3778
  185HK4    C4015463   6.488   1.540   9.662 -0.1649 -0.3025 -0.6694
  185HK4    C5015464   6.468   1.621   9.549  0.5150  0.4526 -0.2589
  185HK4    H3015465   6.371   1.625   9.497  0.5489  3.2209 -0.2005
  185HK4    C4915466   6.582   1.679   9.495  0.1294  1.3522 -0.1111
  185HK4    H2915467   6.566   1.734   9.401 -0.8559  0.8719 -0.2316
  185HK4     N215468   6.380   1.490   9.736  0.1773 -0.1939 -0.0965
  185HK4    C3015469   6.380   1.460   9.874  0.1689 -0.0419 -0.0610
  185HK4    C2915470   6.426   1.546   9.973  0.7439 -0.4238  0.0028
  185HK4    H1515471   6.471   1.643   9.953  2.1600 -0.4918  2.5940
  185HK4    C2815472   6.400   1.511  10.105 -0.3682  0.2914 -0.0200
  185HK4    C2715473   6.312   1.404  10.130  0.1305 -0.2173 -0.4225
  185HK4    H1415474   6.266   1.391  10.229 -0.1511 -1.3703 -0.6956
  185HK4    C3215475   6.252   1.323  10.035 -0.5963  0.1257 -0.2577
  185HK4    H1615476   6.182   1.244  10.062  0.1438 -0.1720  0.8345
  185HK4    C3115477   6.283   1.355   9.903  0.5820 -0.4421 -0.1264
  185HK4    C3415478   6.220   1.327   9.776 -0.3873  0.6884  0.0960
  185HK4    C3315479   6.279   1.413   9.675  0.0191  0.0825 -0.1850
  185HK4    C3515480   6.230   1.397   9.546  0.7453 -0.2958 -0.4134
  185HK4    H1715481   6.286   1.452   9.470 -0.4298  2.3314  0.5904
  185HK4    C3615482   6.125   1.311   9.519  0.0455  0.2391  0.5958
  185HK4    H1815483   6.079   1.310   9.419 -0.0690 -1.0586  0.6534
  185HK4    C3715484   6.069   1.226   9.614 -0.1505  0.0813  0.3385
  185HK4    H1915485   5.989   1.156   9.590  0.0300  0.0671 -0.2197
  185HK4    C3815486   6.115   1.241   9.744  0.2200 -0.1131  0.2342
  185HK4    H2015487   6.097   1.165   9.820  0.1519  0.9476  1.3066
  185HK4    C1415488   6.478   1.565  10.217  0.2298  0.1069 -0.3439
  185HK4     C915489   6.519   1.489  10.327  0.3408  0.1338 -0.3653
  185HK4     C815490   6.534   1.559  10.448  0.4563 -0.5563  0.0190
  185HK4    C1115491   6.519   1.697  10.451 -0.1103 -0.6157 -0.1094
  185HK4     H415492   6.501   1.753  10.544  0.9901 -0.6206  0.1133
  185HK4    C1215493   6.487   1.769  10.337  0.5012  0.5669  0.4598
  185HK4     H515494   6.481   1.879  10.340  2.4561  0.6662  1.0636
  185HK4    C1315495   6.474   1.706  10.213  0.0179  0.1335  0.7299
  185HK4     H615496   6.447   1.758  10.120 -1.1776 -2.7610 -0.6140
  185HK4     C715497   6.548   1.482  10.574 -0.3917 -0.3245  0.2551
  185HK4     O215498   6.560   1.550  10.676  0.1398  0.0685 -0.0640
  185HK4     C415499   6.573   1.336  10.575 -0.2131 -0.2945  0.0806
  185HK4     C315500   6.598   1.268  10.694  0.4782 -0.1400  0.0303
  185HK4     H315501   6.647   1.323  10.775 -1.0876  2.1261 -0.4985
  185HK4     C215502   6.588   1.130  10.702 -0.4115 -0.1036 -0.3266
  185HK4     H215503   6.577   1.090  10.804 -5.3526  3.7845  0.8420
  185HK4     C115504   6.548   1.063  10.587 -0.7421 -0.4457 -0.0117
  185HK4     H115505   6.549   0.953  10.598 -1.6522 -0.4201  0.4242
  185HK4     C615506   6.520   1.128  10.465 -0.1797 -0.0141  0.0861
  185HK4     C515507   6.550   1.264  10.456  0.1464 -0.0986 -0.1097
  185HK4    C1015508   6.538   1.341  10.329 -0.2453  0.0629  0.0244
  185HK4     O115509   6.594   1.299  10.228  0.0221  0.0779  0.1697
  185HK4    C1615510   6.417   1.067  10.380 -0.2723  0.5022 -0.1683
  185HK4    C1515511   6.298   1.016  10.435 -0.2251  0.1924 -0.3520
  185HK4     H715512   6.283   1.038  10.542 -1.5528  2.0828 -0.9046
  185HK4    C2015513   6.207   0.935  10.367 -0.3981  0.1522 -0.0704
  185HK4     H915514   6.139   0.867  10.420 -1.6316 -0.8574 -2.8773
  185HK4    C1915515   6.225   0.910  10.232  0.4799  0.0954  0.0552
  185HK4    C1815516   6.343   0.966  10.168  0.1558  0.5587 -0.1302
  185HK4    C1715517   6.436   1.034  10.246  0.4491 -0.0758  0.0738
  185HK4     H815518   6.540   1.025  10.217  0.4703  1.2637 -0.2824
  185HK4     N115519   6.367   0.914  10.039  0.3405 -0.1914  0.2051
  185HK4    C2115520   6.259   0.826  10.017  0.2419 -0.0765  0.2334
  185HK4    C2215521   6.185   0.805  10.140  0.1705  0.0757  0.2146
  185HK4    C2615522   6.055   0.758  10.130  0.2033  0.1260 -0.4695
  185HK4    H1315523   6.000   0.746  10.224  0.6730 -1.4965 -0.3783
  185HK4    C2515524   5.992   0.737  10.008 -0.1514 -0.2467 -0.2276
  185HK4    H1215525   5.883   0.741   9.997 -0.1070 -2.4160 -1.9278
  185HK4    C2415526   6.064   0.753   9.890  0.1851 -0.1667 -0.0073
  185HK4    H1115527   6.034   0.704   9.796 -0.2434  1.8413 -0.9237
  185HK4    C2315528   6.198   0.790   9.898  0.1613 -0.1411  0.2931
  185HK4    H1015529   6.257   0.748   9.816 -1.8962 -0.7584 -0.9164
  185HK4    C3915530   6.459   0.959   9.943  0.0671 -0.3537 -0.1310
  185HK4    C4115531   6.505   0.886   9.831 -0.1510 -0.4871 -0.1371
  185HK4    H2115532   6.500   0.776   9.834 -1.2812 -0.5197 -2.1671
  185HK4    C4215533   6.571   0.941   9.722 -0.7888  0.3100 -0.1338
  185HK4    H2215534   6.563   0.879   9.632 -1.0519  0.7893 -0.4389
  185HK4    C4315535   6.612   1.074   9.722 -0.9977  0.3745  0.0112
  185HK4    H2315536   6.669   1.122   9.643 -0.1795  1.0190  0.9841
  185HK4    C4415537   6.585   1.143   9.840 -0.0088  0.5284  0.1546
  185HK4    H2415538   6.647   1.232   9.855  0.5336  0.2355 -0.3221
  185HK4    C4515539   6.513   1.089   9.946 -0.0777 -0.2910 -0.3022
  185HK4    H2515540   6.473   1.153  10.026  0.0755 -0.0309 -0.4330
  186HK4    H2815541   2.065   5.407   9.511  1.7225  1.0667 -1.0851
  186HK4    C4815542   1.984   5.455   9.455  0.1048 -0.5070 -0.1475
  186HK4    C4715543   1.857   5.469   9.510  0.2231  0.1212 -0.0322
  186HK4    H2715544   1.850   5.452   9.619 -0.9625 -1.1145 -0.2863
  186HK4    C4615545   1.764   5.541   9.437 -0.2368 -0.4621 -0.0207
  186HK4    H2615546   1.663   5.544   9.480 -0.6941 -2.9016 -0.8332
  186HK4    C4015547   1.790   5.595   9.309 -0.2411  0.5160  0.3857
  186HK4    C5015548   1.915   5.566   9.251 -0.6226 -0.2671 -0.0657
  186HK4    H3015549   1.939   5.630   9.165 -0.6820 -0.4938 -0.2516
  186HK4    C4915550   2.011   5.499   9.326 -0.3461  0.1988  0.0002
  186HK4    H2915551   2.105   5.468   9.278  0.3978  0.9815  0.9313
  186HK4     N215552   1.715   5.706   9.269 -0.1735  0.2768 -0.4037
  186HK4    C3015553   1.703   5.747   9.134  0.0930  0.3870 -0.3932
  186HK4    C2915554   1.674   5.661   9.029  0.3061 -0.1365 -0.0228
  186HK4    H1515555   1.677   5.554   9.045 -0.5209  0.0023  1.1417
  186HK4    C2815556   1.622   5.706   8.908  0.7404 -0.2938 -0.2688
  186HK4    C2715557   1.610   5.846   8.899 -0.3408 -0.3756 -0.2176
  186HK4    H1415558   1.569   5.887   8.805  1.3115 -1.7328 -1.5740
  186HK4    C3215559   1.631   5.935   9.003  0.3419 -0.1524 -0.5454
  186HK4    H1615560   1.639   6.042   8.985 -4.8834  0.1164 -1.8249
  186HK4    C3115561   1.661   5.886   9.130  0.0771  0.3867 -0.2721
  186HK4    C3415562   1.635   5.928   9.267  0.6986  0.3171 -0.1333
  186HK4    C3315563   1.665   5.812   9.348 -0.7676 -0.1352 -0.2143
  186HK4    C3515564   1.612   5.808   9.476 -0.7512 -0.3633 -0.2134
  186HK4    H1715565   1.660   5.749   9.553 -1.5806 -2.4211 -1.2068
  186HK4    C3615566   1.516   5.900   9.516 -0.5230 -0.0824 -0.3222
  186HK4    H1815567   1.454   5.881   9.604 -1.2287 -0.4604 -0.8975
  186HK4    C3715568   1.483   6.012   9.440 -0.4034 -0.1571 -0.4860
  186HK4    H1915569   1.424   6.091   9.487  1.7193  0.6222  0.9445
  186HK4    C3815570   1.549   6.024   9.319 -0.0566 -0.2613 -0.3096
  186HK4    H2015571   1.553   6.120   9.267 -0.6039  0.1600  0.4158
  186HK4    C1415572   1.534   5.629   8.818 -0.3154 -0.0363  0.5243
  186HK4     C915573   1.472   5.670   8.700  0.5928 -0.3087 -0.0598
  186HK4     C815574   1.354   5.610   8.651  0.1652  0.2935  0.2338
  186HK4    C1115575   1.301   5.503   8.722  0.2436 -0.1220 -0.3394
  186HK4     H415576   1.203   5.456   8.699  0.1559 -0.7445  1.2597
  186HK4    C1215577   1.363   5.452   8.835 -0.3027  0.0170  0.0211
  186HK4     H515578   1.331   5.355   8.875 -0.4353 -0.4919 -1.3040
  186HK4    C1315579   1.479   5.514   8.879 -0.5737  0.1243  0.5940
  186HK4     H615580   1.547   5.455   8.943  0.4234 -1.1727 -1.6003
  186HK4     C715581   1.276   5.677   8.545  0.0916 -0.3711 -0.1287
  186HK4     O215582   1.171   5.622   8.511 -0.2687  0.4263 -0.3190
  186HK4     C415583   1.333   5.792   8.471 -0.1145 -0.4474 -0.4092
  186HK4     C315584   1.258   5.850   8.369 -0.3834 -0.4559 -0.2161
  186HK4     H315585   1.161   5.808   8.337  0.3695 -1.3454 -1.3616
  186HK4     C215586   1.295   5.966   8.303 -0.4926  0.0398  0.5867
  186HK4     H215587   1.238   6.008   8.219 -1.0854 -0.0592  0.9446
  186HK4     C115588   1.418   6.017   8.344 -0.3883 -0.0308  0.3637
  186HK4     H115589   1.442   6.121   8.317  2.3828 -0.6754  0.2291
  186HK4     C615590   1.502   5.954   8.438  0.1208 -0.1487 -0.1754
  186HK4     C515591   1.461   5.839   8.506 -0.1437 -0.2720 -0.5381
  186HK4    C1015592   1.540   5.764   8.607 -0.1605 -0.0629 -0.3702
  186HK4     O115593   1.657   5.735   8.583 -0.0987 -0.2353  0.1202
  186HK4    C1615594   1.645   5.989   8.427  0.2715 -0.7941 -0.2796
  186HK4    C1515595   1.695   6.024   8.300 -0.3469 -0.0191 -0.3151
  186HK4     H715596   1.628   6.018   8.213 -0.5831 -0.6714 -0.0973
  186HK4    C2015597   1.818   6.088   8.286 -0.1807 -0.1661  0.4130
  186HK4     H915598   1.870   6.082   8.191 -1.1821  0.6326 -0.2048
  186HK4    C1915599   1.895   6.129   8.394 -0.0686  0.2833  0.1645
  186HK4    C1815600   1.836   6.106   8.524 -0.5051  0.0868 -0.0681
  186HK4    C1715601   1.716   6.036   8.537 -0.2237 -0.4107 -0.1224
  186HK4     H815602   1.687   6.016   8.639 -2.3635 -0.6900 -0.7622
  186HK4     N115603   1.914   6.159   8.629 -0.2799  0.0224 -0.2012
  186HK4    C2115604   2.019   6.230   8.566  0.1023 -0.1151  0.2770
  186HK4    C2215605   2.008   6.215   8.423  0.3342 -0.2839  0.2787
  186HK4    C2615606   2.087   6.289   8.335 -0.2809  0.1825  0.1086
  186HK4    H1315607   2.070   6.272   8.229  0.0997 -2.0363  0.3668
  186HK4    C2515608   2.187   6.372   8.386  0.2020 -0.1818 -0.2413
  186HK4    H1215609   2.253   6.427   8.319  1.9427 -1.7107  0.1581
  186HK4    C2415610   2.197   6.384   8.524 -0.0386  0.4987 -0.2831
  186HK4    H1115611   2.279   6.448   8.560 -1.3924  1.9571  0.2908
  186HK4    C2315612   2.113   6.320   8.614  0.3811 -0.0908 -0.3095
  186HK4    H1015613   2.121   6.348   8.719  0.5886  1.2997 -0.6827
  186HK4    C3915614   1.949   6.079   8.739  0.5422  0.0263 -0.4598
  186HK4    C4115615   1.929   5.940   8.741 -0.1908  0.1312 -0.0588
  186HK4    H2115616   1.883   5.882   8.659 -0.9027 -2.9403  2.4179
  186HK4    C4215617   1.941   5.875   8.863  0.4764  0.2020 -0.0849
  186HK4    H2215618   1.898   5.774   8.859 -3.2805  1.6730  0.8826
  186HK4    C4315619   1.977   5.937   8.982  0.2569  0.1017  0.0370
  186HK4    H2315620   1.989   5.882   9.075  0.4537  1.6295  0.9435
  186HK4    C4415621   2.008   6.073   8.977  0.1372  0.1203 -0.1206
  186HK4    H2415622   2.048   6.129   9.062 -0.1134 -1.1046  0.8192
  186HK4    C4515623   1.990   6.143   8.858  0.1858 -0.1087 -0.2654
  186HK4    H2515624   2.001   6.252   8.866 -2.1686  0.2398 -1.5268
  187HK4    H2815625   6.623   8.387   6.084 -1.0863 -2.1083  1.0720
  187HK4    C4815626   6.715   8.341   6.051 -0.1111  0.4399  0.0601
  187HK4    C4715627   6.835   8.402   6.084  0.3510 -0.3005 -0.2173
  187HK4    H2715628   6.830   8.503   6.129 -0.0198 -0.1038 -0.7003
  187HK4    C4615629   6.952   8.349   6.030  0.5615 -0.4694  0.3995
  187HK4    H2615630   7.042   8.411   6.017 -1.3048  1.9247 -1.6749
  187HK4    C4015631   6.955   8.227   5.959  0.3289 -0.4118  0.2876
  187HK4    C5015632   6.831   8.170   5.927  0.1328 -0.1436  0.5684
  187HK4    H3015633   6.825   8.070   5.881 -3.0266 -0.8009  2.2441
  187HK4    C4915634   6.712   8.227   5.971  0.2284  0.2525  0.3063
  187HK4    H2915635   6.613   8.203   5.930  1.0560 -0.6978 -1.1844
  187HK4     N215636   7.075   8.155   5.947  0.0530 -0.8578  0.2340
  187HK4    C3015637   7.100   8.058   5.847  0.2865 -0.3869 -0.1660
  187HK4    C2915638   7.037   8.025   5.728  0.4269  0.1550 -0.3935
  187HK4    H1515639   6.974   8.102   5.683  0.6309  1.2024  1.1086
  187HK4    C2815640   7.068   7.910   5.655  0.3037  0.0097 -0.2184
  187HK4    C2715641   7.177   7.834   5.701  0.2242 -0.0232 -0.0870
  187HK4    H1415642   7.195   7.732   5.664  0.0686 -0.6707  1.5756
  187HK4    C3215643   7.254   7.869   5.811  0.1087 -0.3500  0.0966
  187HK4    H1615644   7.348   7.815   5.825 -0.3660 -1.7175 -1.8222
  187HK4    C3115645   7.213   7.978   5.887  0.1563 -0.3963  0.1890
  187HK4    C3415646   7.255   8.025   6.018 -0.0864 -0.3182  0.2385
  187HK4    C3315647   7.169   8.138   6.050 -0.0118 -0.3043  0.3864
  187HK4    C3515648   7.190   8.208   6.168 -0.2288  0.0145  0.2378
  187HK4    H1715649   7.127   8.296   6.179 -2.0776 -1.4226  1.4340
  187HK4    C3615650   7.289   8.173   6.260  0.1238  0.5513  0.0635
  187HK4    H1815651   7.288   8.231   6.354 -1.3207 -0.2977  0.5959
  187HK4    C3715652   7.364   8.059   6.233 -0.1559  0.4160 -0.1316
  187HK4    H1915653   7.434   8.026   6.309  1.5034 -0.7895 -2.1197
  187HK4    C3815654   7.345   7.986   6.116 -0.1029 -0.2566  0.2778
  187HK4    H2015655   7.416   7.908   6.090 -1.1346 -0.3514 -2.4811
  187HK4    C1415656   6.955   7.851   5.582  0.1130  0.1546 -0.0419
  187HK4     C915657   6.922   7.715   5.595  0.7711 -0.0580 -0.5243
  187HK4     C815658   6.857   7.655   5.485  0.9842 -0.6482 -0.3301
  187HK4    C1115659   6.820   7.735   5.377  0.5062 -0.2190  0.1447
  187HK4     H415660   6.784   7.698   5.280  0.0188  1.2820 -0.2576
  187HK4    C1215661   6.845   7.871   5.368 -0.9071  0.0327 -0.2060
  187HK4     H515662   6.801   7.930   5.287 -1.6390 -0.8952 -0.4882
  187HK4    C1315663   6.914   7.931   5.474  0.4450 -0.5913 -0.7212
  187HK4     H615664   6.919   8.040   5.488  2.4515 -0.9867  1.9786
  187HK4     C715665   6.810   7.515   5.489  0.2519 -0.4015 -0.1054
  187HK4     O215666   6.802   7.451   5.384 -0.1187  0.2789 -0.4954
  187HK4     C415667   6.826   7.444   5.618  0.1912 -0.0211  0.1116
  187HK4     C315668   6.770   7.318   5.631 -0.1726  0.1208 -0.0684
  187HK4     H315669   6.725   7.273   5.541  0.2220 -1.6941  0.6127
  187HK4     C215670   6.782   7.247   5.750  0.0332  0.1840 -0.0514
  187HK4     H215671   6.740   7.145   5.760  1.4136 -0.4814 -0.8519
  187HK4     C115672   6.850   7.303   5.857 -0.4528  0.1573  0.2715
  187HK4     H115673   6.860   7.241   5.948  0.1528 -1.8761 -1.1309
  187HK4     C615674   6.907   7.431   5.853 -0.2077  0.0492  0.2285
  187HK4     C515675   6.882   7.500   5.734  0.1994 -0.0135  0.1037
  187HK4    C1015676   6.906   7.647   5.727 -0.1535  0.0139 -0.5954
  187HK4     O115677   6.850   7.716   5.812  0.0223 -0.7218  0.1254
  187HK4    C1615678   7.032   7.440   5.930 -0.7998  0.1299  1.1884
  187HK4    C1515679   7.089   7.563   5.969  0.1265 -0.1875  0.8462
  187HK4     H715680   7.017   7.646   5.966  1.1992  0.7143 -1.8592
  187HK4    C2015681   7.218   7.578   6.020  0.1445  0.2249  0.6827
  187HK4     H915682   7.255   7.673   6.056 -0.6914  1.1521 -0.8657
  187HK4    C1915683   7.296   7.464   6.039 -0.0868 -0.0725 -0.1471
  187HK4    C1815684   7.246   7.338   5.987  0.1240  0.0585 -0.6806
  187HK4    C1715685   7.112   7.328   5.951 -0.1604  0.4080  0.2546
  187HK4     H815686   7.090   7.230   5.909 -0.4989 -0.1718  1.7525
  187HK4     N115687   7.344   7.242   6.018  0.0647 -0.0529 -0.8414
  187HK4    C2115688   7.457   7.306   6.074  0.0669 -0.2099 -0.6641
  187HK4    C2215689   7.431   7.447   6.088  0.2333 -0.1401 -1.0302
  187HK4    C2615690   7.524   7.530   6.151 -0.5950  0.0399 -0.0291
  187HK4    H1315691   7.508   7.638   6.144  1.7926  0.5378  1.7724
  187HK4    C2515692   7.641   7.479   6.205  0.0708  0.8070 -0.7502
  187HK4    H1215693   7.698   7.547   6.269 -0.3713 -0.5775  1.1211
  187HK4    C2415694   7.666   7.343   6.196 -0.0857  0.7436 -0.2094
  187HK4    H1115695   7.769   7.305   6.202 -1.2435 -2.7392 -0.9419
  187HK4    C2315696   7.574   7.259   6.134 -0.2774  0.4200  0.5036
  187HK4    H1015697   7.605   7.160   6.103 -0.2490 -0.3519  2.9194
  187HK4    C3915698   7.311   7.108   6.045  0.9011 -0.1237 -0.1180
  187HK4    C4115699   7.399   7.002   6.015  0.7855 -0.0928 -0.5750
  187HK4    H2115700   7.482   7.026   5.948  0.3339  3.6863  0.0529
  187HK4    C4215701   7.376   6.872   6.057 -0.3006 -0.0595 -1.0443
  187HK4    H2215702   7.443   6.789   6.028 -0.9582 -1.5523  1.5280
  187HK4    C4315703   7.275   6.846   6.149  0.4901 -0.0316 -0.1607
  187HK4    H2315704   7.280   6.758   6.213  0.9432  0.8991  1.1289
  187HK4    C4415705   7.191   6.950   6.188  0.2550 -0.3795  0.2722
  187HK4    H2415706   7.101   6.937   6.250 -0.1675  0.8808 -0.0508
  187HK4    C4515707   7.205   7.077   6.133  1.0019 -0.6488 -0.1819
  187HK4    H2515708   7.141   7.162   6.164  1.8868 -0.6837  1.7905
  188HK4    H2815709   9.713  10.380   8.354  0.7124 -0.5329 -0.8703
  188HK4    C4815710   9.621  10.348   8.304  0.0843 -0.0727 -0.0229
  188HK4    C4715711   9.633  10.238   8.220 -0.1006 -0.5784  0.6009
  188HK4    H2715712   9.723  10.223   8.157  0.6576 -0.5649  1.6736
  188HK4    C4615713   9.516  10.173   8.182 -0.1418 -0.0618 -0.1755
  188HK4    H2615714   9.513  10.079   8.126 -3.1517  0.5945 -1.2048
  188HK4    C4015715   9.388  10.221   8.214 -0.0774  0.4650 -0.6999
  188HK4    C5015716   9.384  10.339   8.292 -0.0681 -0.0969  0.1648
  188HK4    H3015717   9.288  10.391   8.307 -0.0918  0.5009 -1.9099
  188HK4    C4915718   9.498  10.400   8.342  0.0344 -0.6078  0.5572
  188HK4    H2915719   9.486  10.479   8.418 -0.3434 -0.4011  0.2834
  188HK4     N215720   9.269  10.171   8.160 -0.0958 -0.2458 -0.0158
  188HK4    C3015721   9.260  10.086   8.048  0.2140  0.2352 -0.4112
  188HK4    C2915722   9.345  10.068   7.940 -0.1439  0.0654 -0.6686
  188HK4    H1515723   9.430  10.137   7.936  0.5236 -0.3999  3.3353
  188HK4    C2815724   9.307   9.998   7.826 -0.2172  0.2146 -0.7368
  188HK4    C2715725   9.178   9.941   7.824 -0.1349  0.0105 -0.2825
  188HK4    H1415726   9.142   9.885   7.737  1.8629  0.2814 -1.3012
  188HK4    C3215727   9.094   9.947   7.935  0.1991  0.8634 -0.0754
  188HK4    H1615728   9.012   9.875   7.934 -1.2134  2.4090  1.7508
  188HK4    C3115729   9.134  10.014   8.050  0.2891  0.1340  0.3187
  188HK4    C3415730   9.053  10.065   8.158  0.0759 -0.6856  0.5504
  188HK4    C3315731   9.148  10.149   8.229 -0.4209  0.6094 -0.2887
  188HK4    C3515732   9.121  10.171   8.364 -0.5951  0.4319 -0.2924
  188HK4    H1715733   9.177  10.245   8.421  2.1136 -2.5050  1.0369
  188HK4    C3615734   9.013  10.112   8.429  0.3760 -0.4662  0.5092
  188HK4    H1815735   9.016  10.112   8.539  0.9660 -3.3975  0.5235
  188HK4    C3715736   8.925  10.030   8.361  0.0042  0.2661  0.1042
  188HK4    H1915737   8.841   9.987   8.415  0.7243  1.7486  2.4449
  188HK4    C3815738   8.941  10.014   8.223 -0.4379 -0.1499  0.0981
  188HK4    H2015739   8.882   9.949   8.160  0.8158 -1.0371 -0.1814
  188HK4    C1415740   9.387  10.014   7.704  0.1446  0.1989 -0.4982
  188HK4     C915741   9.343   9.999   7.572  0.3992 -0.3137 -0.5295
  188HK4     C815742   9.423   9.945   7.470  0.6058  0.5947 -0.8559
  188HK4    C1115743   9.558   9.927   7.498  0.3765  0.0996 -0.0610
  188HK4     H415744   9.630   9.909   7.416 -0.0160  1.4597 -0.7124
  188HK4    C1215745   9.609   9.946   7.626  0.0287  0.1568  0.0694
  188HK4     H515746   9.719   9.953   7.636 -0.1475  2.4015  0.6825
  188HK4    C1315747   9.525   9.991   7.727 -0.1285 -0.6745  0.3073
  188HK4     H615748   9.565  10.015   7.826  2.2378 -0.9670 -0.5592
  188HK4     C715749   9.364   9.926   7.336 -0.0523  0.4569 -0.5449
  188HK4     O215750   9.438   9.920   7.239  0.2307  0.6478 -0.3422
  188HK4     C415751   9.217   9.929   7.320 -0.1139 -0.3529 -0.1463
  188HK4     C315752   9.161   9.874   7.205 -0.2807 -0.1930 -0.1425
  188HK4     H315753   9.222   9.836   7.122 -0.6212 -0.1336 -0.4233
  188HK4     C215754   9.022   9.870   7.191 -0.2739  0.1328 -0.3244
  188HK4     H215755   8.979   9.835   7.096 -2.1920  0.7171  0.3057
  188HK4     C115756   8.945   9.920   7.295 -0.2847 -0.1062 -0.2201
  188HK4     H115757   8.837   9.929   7.279 -0.2354 -0.0215 -0.5187
  188HK4     C615758   8.997   9.983   7.410 -0.0715 -0.5190 -0.0894
  188HK4     C515759   9.137   9.989   7.419 -0.0756 -0.1647 -0.2316
  188HK4    C1015760   9.208  10.049   7.536  0.3036 -0.4266 -0.3256
  188HK4     O115761   9.185  10.169   7.553 -0.0496 -0.4845 -0.3961
  188HK4    C1615762   8.911   9.990   7.529 -0.0110 -0.4237 -0.0521
  188HK4    C1515763   8.803   9.902   7.551 -0.1512 -0.2025  0.1352
  188HK4     H715764   8.767   9.831   7.475 -1.0984  1.3465 -0.8891
  188HK4    C2015765   8.718   9.908   7.661 -0.0187 -0.6820  0.2648
  188HK4     H915766   8.662   9.818   7.687 -0.9053 -0.3749 -0.5457
  188HK4    C1915767   8.738  10.008   7.755  0.3141 -0.3828 -0.1191
  188HK4    C1815768   8.840  10.109   7.733  0.2494 -0.3189 -0.1111
  188HK4    C1715769   8.920  10.095   7.620 -0.0001 -0.2025 -0.3052
  188HK4     H815770   8.953  10.189   7.577  0.5712  0.1856  0.9908
  188HK4     N115771   8.839  10.197   7.842 -0.6767  0.2991 -0.6057
  188HK4    C2115772   8.748  10.146   7.937  0.0534  0.1227  0.0069
  188HK4    C2215773   8.677  10.031   7.884 -0.1193  0.4443 -0.4686
  188HK4    C2615774   8.585   9.959   7.960  0.8713 -0.6620 -0.3004
  188HK4    H1315775   8.527   9.877   7.916  0.2793 -0.2557 -0.2809
  188HK4    C2515776   8.562   9.994   8.092 -0.2680  0.1889 -0.7161
  188HK4    H1215777   8.483   9.947   8.151 -1.0134  1.1764 -0.9230
  188HK4    C2415778   8.631  10.102   8.146 -0.1729 -0.3426  0.2400
  188HK4    H1115779   8.611  10.127   8.251 -0.3196  1.6553 -0.2445
  188HK4    C2315780   8.725  10.172   8.071 -0.5016 -0.1923 -0.0242
  188HK4    H1015781   8.799  10.233   8.124  0.2916  0.7044 -2.1377
  188HK4    C3915782   8.927  10.303   7.868 -0.3457 -0.1254  0.0489
  188HK4    C4115783   8.893  10.419   7.941  0.5350  0.1528  0.0161
  188HK4    H2115784   8.785  10.432   7.955  0.3008 -0.4823 -1.1619
  188HK4    C4215785   8.987  10.507   7.994  0.3689  0.5075 -0.2770
  188HK4    H2215786   8.953  10.585   8.064  0.5669  1.5005 -1.2764
  188HK4    C4315787   9.123  10.484   7.980  0.3901  0.2402  0.3276
  188HK4    H2315788   9.198  10.544   8.032 -1.3185  1.9296  0.8965
  188HK4    C4415789   9.160  10.370   7.909  0.2513  0.4740 -0.1211
  188HK4    H2415790   9.265  10.338   7.905 -0.4311 -1.7086 -1.2765
  188HK4    C4515791   9.066  10.284   7.854 -0.1973  0.2044  1.0568
  188HK4    H2515792   9.102  10.200   7.793 -1.0178  0.6853 -0.0900
  189HK4    H2815793   2.315   5.323   2.812 -0.8314 -0.5606  1.4711
  189HK4    C4815794   2.227   5.288   2.758 -0.0374 -0.1255 -0.1546
  189HK4    C4715795   2.134   5.203   2.816  0.2152  0.1018  0.5877
  189HK4    H2715796   2.120   5.199   2.926 -0.7570  1.0490  0.5107
  189HK4    C4615797   2.025   5.155   2.745  0.6067 -0.0331  0.0778
  189HK4    H2615798   1.948   5.099   2.800 -0.1349  1.0903  0.2161
  189HK4    C4015799   1.999   5.189   2.610  0.1072 -0.0991  0.1550
  189HK4    C5015800   2.098   5.270   2.550 -0.2638  0.0603 -0.2388
  189HK4    H3015801   2.087   5.302   2.446  3.4668 -0.6841 -0.9357
  189HK4    C4915802   2.207   5.316   2.623 -0.4435  0.1718 -0.0373
  189HK4    H2915803   2.264   5.398   2.578  0.6168 -0.7125 -0.3211
  189HK4     N215804   1.914   5.113   2.529  0.7510  0.0943 -0.7099
  189HK4    C3015805   1.879   4.977   2.543  0.6512  0.1594 -0.2999
  189HK4    C2915806   1.950   4.867   2.588 -0.3106 -0.2294  0.2907
  189HK4    H1515807   2.049   4.891   2.627 -0.7568 -1.2119  2.0567
  189HK4    C2815808   1.907   4.736   2.569 -0.0662 -0.2012 -0.4684
  189HK4    C2715809   1.782   4.715   2.509 -0.2082  0.0708 -0.2673
  189HK4    H1415810   1.747   4.611   2.506  0.8781 -0.2814 -1.0306
  189HK4    C3215811   1.708   4.822   2.458  0.0496  0.3166 -0.1223
  189HK4    H1615812   1.615   4.801   2.405  1.0820 -2.2231 -1.0332
  189HK4    C3115813   1.759   4.951   2.466  0.1343  0.2469  0.4737
  189HK4    C3415814   1.711   5.079   2.416 -0.3118 -0.0908  0.0224
  189HK4    C3315815   1.821   5.170   2.441 -0.1213 -0.3004 -0.0489
  189HK4    C3515816   1.812   5.299   2.390 -0.3435 -0.4382 -0.3616
  189HK4    H1715817   1.898   5.366   2.387 -1.1144  0.5747 -0.5022
  189HK4    C3615818   1.699   5.339   2.319 -0.4674 -0.0164  0.0732
  189HK4    H1815819   1.688   5.432   2.261  1.1787 -0.3355 -0.7668
  189HK4    C3715820   1.592   5.250   2.314 -0.5531  0.1064 -0.2730
  189HK4    H1915821   1.503   5.285   2.262 -0.9993 -0.7878 -0.1256
  189HK4    C3815822   1.594   5.116   2.352 -0.0929  0.1131 -0.2615
  189HK4    H2015823   1.534   5.037   2.307  0.0887  0.5782 -1.3336
  189HK4    C1415824   2.017   4.638   2.568 -0.1090 -0.2511  0.0228
  189HK4     C915825   2.037   4.541   2.470 -0.3131 -0.0428 -0.2247
  189HK4     C815826   2.096   4.417   2.502 -0.3793  0.0074  0.0905
  189HK4    C1115827   2.132   4.393   2.635  0.4916  0.2115 -0.1078
  189HK4     H415828   2.189   4.302   2.659 -1.2901 -0.5614  1.2878
  189HK4    C1215829   2.127   4.492   2.732  0.3580  0.0731  0.0245
  189HK4     H515830   2.173   4.478   2.830  1.9836  0.1555 -0.7183
  189HK4    C1315831   2.062   4.611   2.699  0.2190 -0.0192 -0.0405
  189HK4     H615832   2.030   4.680   2.778 -2.2563 -0.3715 -0.7116
  189HK4     C715833   2.094   4.307   2.403  0.2628  0.1046 -0.0291
  189HK4     O215834   2.192   4.233   2.403  0.0348 -0.2013  0.4699
  189HK4     C415835   2.012   4.324   2.281  0.7336  0.2004 -0.3362
  189HK4     C315836   1.992   4.207   2.209  0.2872 -0.0843  0.2464
  189HK4     H315837   2.010   4.107   2.253  0.3536  0.8141  2.3327
  189HK4     C215838   1.920   4.206   2.090 -0.1646  0.1599  0.5152
  189HK4     H215839   1.913   4.114   2.031 -0.2671  0.0639  0.6764
  189HK4     C115840   1.864   4.327   2.053  0.1317  0.1638  0.0755
  189HK4     H115841   1.783   4.317   1.978 -1.7615  0.0666  2.0878
  189HK4     C615842   1.876   4.448   2.125 -0.0234  0.0579  0.2784
  189HK4     C515843   1.959   4.447   2.238 -0.4218  0.0252  0.5677
  189HK4    C1015844   1.994   4.560   2.329 -0.9372  0.6046  0.0488
  189HK4     O115845   2.041   4.658   2.272  0.0568 -0.0324 -0.2252
  189HK4    C1615846   1.829   4.570   2.059  0.1102  0.0119  0.0950
  189HK4    C1515847   1.792   4.683   2.135 -0.3388  0.1537 -0.3268
  189HK4     H715848   1.743   4.674   2.234  2.2389  1.4880  1.1229
  189HK4    C2015849   1.769   4.803   2.069  0.0996  0.3268 -0.1648
  189HK4     H915850   1.752   4.887   2.136  1.6693  0.1923  0.4141
  189HK4    C1915851   1.780   4.823   1.932 -0.3437  0.0075 -0.2488
  189HK4    C1815852   1.818   4.707   1.854 -0.9458 -0.0206 -0.5026
  189HK4    C1715853   1.848   4.589   1.922 -0.3958  0.4572  0.0836
  189HK4     H815854   1.901   4.512   1.867 -1.1968  0.1516 -0.2719
  189HK4     N115855   1.801   4.734   1.717  0.1319  0.2225 -0.5925
  189HK4    C2115856   1.749   4.864   1.705 -0.7565 -0.0839 -0.0918
  189HK4    C2215857   1.734   4.923   1.837 -0.1953  0.1751 -0.1448
  189HK4    C2615858   1.692   5.055   1.846  0.0344  0.2408 -0.0312
  189HK4    H1315859   1.687   5.102   1.943 -1.2133  0.2988 -0.1236
  189HK4    C2515860   1.672   5.132   1.732 -0.2481  0.0319 -0.1231
  189HK4    H1215861   1.653   5.238   1.744  0.2643  0.3757 -2.1025
  189HK4    C2415862   1.685   5.075   1.605 -0.3542  0.2470 -0.2311
  189HK4    H1115863   1.639   5.128   1.521  1.2930  0.9392 -0.7126
  189HK4    C2315864   1.724   4.942   1.593  0.1459  0.3665  0.0164
  189HK4    H1015865   1.755   4.909   1.494 -0.9300  3.1487 -1.3014
  189HK4    C3915866   1.860   4.666   1.609  0.0426 -0.1999 -0.3784
  189HK4    C4115867   1.777   4.643   1.498 -0.5466  0.4066 -0.0693
  189HK4    H2115868   1.673   4.679   1.491 -0.4676  0.5603 -0.5028
  189HK4    C4215869   1.824   4.577   1.385 -0.0009  0.5726  0.0597
  189HK4    H2215870   1.763   4.584   1.294 -0.1244  1.6969  0.2229
  189HK4    C4315871   1.957   4.538   1.378 -0.1035  0.2084  0.1425
  189HK4    H2315872   1.998   4.485   1.292 -1.2066 -1.5570  0.6915
  189HK4    C4415873   2.038   4.570   1.487  0.3081 -0.0583 -0.0831
  189HK4    H2415874   2.147   4.560   1.478  0.4414  1.7094 -0.4430
  189HK4    C4515875   1.997   4.632   1.605  0.0513 -0.2075 -0.0949
  189HK4    H2515876   2.070   4.663   1.681  0.2100  1.4626 -0.8949
  190HK4    H2815877   0.068   2.241   8.209 -2.1733 -1.3529 -0.4736
  190HK4    C4815878   0.110   2.151   8.254 -0.2089 -0.1392  0.1738
  190HK4    C4715879   0.092   2.030   8.188 -0.0598  0.0151 -0.1547
  190HK4    H2715880  11.243   2.011   8.139 -0.8197  1.7165  0.6418
  190HK4    C4615881   0.180   1.926   8.218 -0.1084 -0.0961 -0.4019
  190HK4    H2615882   0.196   1.850   8.140  0.4746  0.8146 -1.1788
  190HK4    C4015883   0.280   1.938   8.317 -0.0980 -0.2745 -0.3910
  190HK4    C5015884   0.286   2.061   8.385 -0.5699 -0.4694  0.0022
  190HK4    H3015885   0.348   2.066   8.476  0.4761 -0.0431 -0.7285
  190HK4    C4915886   0.207   2.170   8.351 -0.1559 -0.1324  0.1198
  190HK4    H2915887   0.229   2.268   8.395 -0.5182 -0.5183  1.1784
  190HK4     N215888   0.361   1.829   8.351  0.1035  0.0111  0.0373
  190HK4    C3015889   0.331   1.693   8.330 -0.2937  0.1048  0.0062
  190HK4    C2915890   0.205   1.633   8.324 -0.1807 -0.1128 -0.1598
  190HK4    H1515891   0.116   1.693   8.339  0.8101  1.5757 -0.8386
  190HK4    C2815892   0.191   1.495   8.331  0.3545 -0.1518  0.2177
  190HK4    C2715893   0.306   1.416   8.351  0.2748 -0.2812  0.1596
  190HK4    H1415894   0.298   1.308   8.331  1.5569 -0.5378  1.0240
  190HK4    C3215895   0.432   1.471   8.365  0.3568 -0.3617 -0.2601
  190HK4    H1615896   0.519   1.406   8.368  1.4079  1.0544  0.7464
  190HK4    C3115897   0.446   1.610   8.359 -0.5864 -0.2500  0.1514
  190HK4    C3415898   0.546   1.704   8.403 -0.4524 -0.3917  0.1500
  190HK4    C3315899   0.496   1.839   8.390  0.1743 -0.1865 -0.1517
  190HK4    C3515900   0.583   1.948   8.389 -0.1294  0.0589 -0.0120
  190HK4    H1715901   0.548   2.034   8.333  0.9867 -0.8422 -2.1478
  190HK4    C3615902   0.719   1.927   8.408 -0.1101 -0.1994 -0.4332
  190HK4    H1815903   0.787   2.008   8.440  2.1590 -1.6151 -1.5675
  190HK4    C3715904   0.767   1.799   8.433  0.5541  0.0123 -0.5926
  190HK4    H1915905   0.868   1.784   8.471  0.5047 -0.7893 -0.7518
  190HK4    C3815906   0.682   1.688   8.431 -0.3031  0.6561  0.0298
  190HK4    H2015907   0.731   1.593   8.448 -2.9980 -0.8250 -0.1528
  190HK4    C1415908   0.058   1.432   8.338  0.1935  0.1143 -0.4706
  190HK4     C915909   0.028   1.311   8.401  0.3232 -0.0169 -0.6593
  190HK4     C815910  11.166   1.228   8.372  0.3361 -0.0424 -0.6415
  190HK4    C1115911  11.070   1.283   8.288  0.0808 -0.4755 -0.6315
  190HK4     H415912  10.971   1.236   8.280 -0.3757 -0.0088  1.8249
  190HK4    C1215913  11.086   1.407   8.227 -0.4478  0.0368  0.2690
  190HK4     H515914  11.013   1.451   8.158 -2.3086 -0.9599  1.5604
  190HK4    C1315915  11.204   1.477   8.252 -0.5597  0.1631  0.4501
  190HK4     H615916  11.220   1.574   8.202  1.1870 -0.8515 -1.0272
  190HK4     C715917  11.155   1.092   8.428 -0.0778  0.2616  0.0133
  190HK4     O215918  11.047   1.033   8.437  0.1184 -0.1440 -0.2724
  190HK4     C415919   0.030   1.032   8.484  0.1350  0.1032 -0.6180
  190HK4     C315920   0.035   0.899   8.525 -0.3838  0.0964 -0.5712
  190HK4     H315921  11.202   0.830   8.500 -0.0123 -1.4381  2.2206
  190HK4     C215922   0.141   0.853   8.603 -0.8896  0.8442  0.5685
  190HK4     H215923   0.152   0.745   8.620  1.3123  0.8275 -0.8362
  190HK4     C115924   0.237   0.939   8.656  0.1013  0.2364 -0.2415
  190HK4     H115925   0.324   0.900   8.710 -0.4512  0.8900  1.1235
  190HK4     C615926   0.238   1.075   8.618  0.0541  0.2721 -0.1125
  190HK4     C515927   0.130   1.116   8.538  0.2674 -0.0791 -0.5825
  190HK4    C1015928   0.111   1.262   8.515 -0.3034 -0.0954 -0.2311
  190HK4     O115929   0.095   1.330   8.616 -0.2368  0.1137 -0.3615
  190HK4    C1615930   0.365   1.145   8.598  0.2271 -0.0015  0.0240
  190HK4    C1515931   0.474   1.077   8.540 -0.0924 -0.6650  0.2001
  190HK4     H715932   0.461   0.986   8.479 -0.3072 -0.4581 -0.0664
  190HK4    C2015933   0.599   1.137   8.550 -0.4008 -0.0627  0.4182
  190HK4     H915934   0.685   1.083   8.513 -0.9459 -1.1665  0.7341
  190HK4    C1915935   0.618   1.262   8.608 -0.1058  0.1193 -0.0683
  190HK4    C1815936   0.502   1.331   8.661 -0.0707 -0.2399  0.4835
  190HK4    C1715937   0.380   1.265   8.666 -0.3187  0.1674 -0.1514
  190HK4     H815938   0.307   1.294   8.742 -0.2075  1.7696 -0.6268
  190HK4     N115939   0.550   1.443   8.734 -0.1150 -0.1068  0.3083
  190HK4    C2115940   0.690   1.451   8.720 -0.0768 -0.6217  0.3904
  190HK4    C2215941   0.735   1.343   8.633  0.0470 -0.0356 -0.2806
  190HK4    C2615942   0.869   1.339   8.594  0.2385 -0.0181  0.3674
  190HK4    H1315943   0.901   1.272   8.514 -0.2550  1.5765 -1.1852
  190HK4    C2515944   0.960   1.429   8.647  0.3967 -0.2052  0.4102
  190HK4    H1215945   1.065   1.423   8.617 -0.2524 -1.5485 -1.6916
  190HK4    C2415946   0.921   1.532   8.732 -0.5443  0.0550 -0.3337
  190HK4    H1115947   0.994   1.601   8.777  0.5969 -1.5392  0.3269
  190HK4    C2315948   0.786   1.541   8.762 -0.4042 -0.2839  0.4119
  190HK4    H1015949   0.756   1.630   8.819  0.0753  1.6060 -2.1913
  190HK4    C3915950   0.463   1.551   8.749 -0.1494 -0.0237 -0.4833
  190HK4    C4115951   0.499   1.653   8.840  0.3048  0.1613 -0.8711
  190HK4    H2115952   0.578   1.625   8.911 -1.2443 -3.1953 -0.3512
  190HK4    C4215953   0.439   1.778   8.837 -0.0583  0.0063 -0.0406
  190HK4    H2215954   0.470   1.858   8.906  0.3993  0.7264 -1.0777
  190HK4    C4315955   0.336   1.807   8.748 -0.2361 -0.0623  0.1373
  190HK4    H2315956   0.283   1.901   8.738  1.1845  0.5968 -1.4271
  190HK4    C4415957   0.295   1.705   8.663  0.3912  0.3164 -0.6351
  190HK4    H2415958   0.210   1.729   8.597  0.4056  1.2870 -0.3064
  190HK4    C4515959   0.354   1.579   8.663 -0.0601  0.1008 -0.5543
  190HK4    H2515960   0.303   1.496   8.612 -0.8556 -0.1450  0.6311
  191HK4    H2815961   5.003   3.888   7.590 -0.1475  2.0191  1.0494
  191HK4    C4815962   4.936   3.834   7.657  0.3120 -0.5953 -0.5286
  191HK4    C4715963   4.956   3.828   7.794 -0.1115  0.2149 -0.4271
  191HK4    H2715964   5.016   3.907   7.841 -0.5875 -1.5894  3.4291
  191HK4    C4615965   4.881   3.752   7.883  0.6244 -0.1390 -0.0961
  191HK4    H2615966   4.879   3.784   7.988 -0.9870  0.6871 -0.3559
  191HK4    C4015967   4.781   3.668   7.828 -0.2754  0.4832  0.5855
  191HK4    C5015968   4.754   3.678   7.690  0.2255 -0.3877  0.4250
  191HK4    H3015969   4.674   3.621   7.641  0.3473 -0.4664  0.3157
  191HK4    C4915970   4.828   3.762   7.607 -0.2257 -0.2644  0.1475
  191HK4    H2915971   4.805   3.762   7.499  4.3495 -1.3965 -0.9091
  191HK4     N215972   4.739   3.554   7.896 -0.2957  0.4976  0.5974
  191HK4    C3015973   4.812   3.493   8.001  0.2153 -0.2946 -0.2044
  191HK4    C2915974   4.947   3.492   8.034  0.1092  0.6637  0.2738
  191HK4    H1515975   5.010   3.570   7.992 -0.9811  0.8952 -0.9736
  191HK4    C2815976   5.006   3.403   8.122 -0.4050 -0.2302 -0.2726
  191HK4    C2715977   4.916   3.321   8.194 -0.6819  0.1150 -0.2269
  191HK4    H1415978   4.953   3.273   8.285 -1.3644  0.5532  0.2840
  191HK4    C3215979   4.779   3.319   8.170 -0.6640  0.0957 -0.3228
  191HK4    H1615980   4.709   3.267   8.235 -2.6535  1.0727 -1.6297
  191HK4    C3115981   4.724   3.407   8.077 -0.4746  0.6303  0.0624
  191HK4    C3415982   4.589   3.420   8.026 -0.4399  0.0815 -0.1788
  191HK4    C3315983   4.606   3.511   7.915 -0.3102  0.2819  0.0042
  191HK4    C3515984   4.493   3.552   7.846 -0.0170  0.2101 -0.5208
  191HK4    H1715985   4.504   3.570   7.739 -2.7426  0.4452 -0.8207
  191HK4    C3615986   4.365   3.530   7.896  0.0107  1.1309 -0.0334
  191HK4    H1815987   4.279   3.575   7.845 -2.1536  0.2383  2.6917
  191HK4    C3715988   4.348   3.442   8.003  0.4806  0.1599 -0.7523
  191HK4    H1915989   4.249   3.422   8.042 -0.0542  1.3102 -1.5047
  191HK4    C3815990   4.459   3.391   8.069 -0.2434  0.1069  0.4349
  191HK4    H2015991   4.445   3.323   8.153  0.4654 -0.1722  0.3375
  191HK4    C1415992   5.149   3.369   8.127 -0.4055 -0.2752 -0.5440
  191HK4     C915993   5.194   3.236   8.131 -0.1359 -0.1632  0.4114
  191HK4     C815994   5.330   3.209   8.157  0.1668 -0.0170 -0.9555
  191HK4    C1115995   5.410   3.316   8.195 -0.2662  0.0367 -0.1886
  191HK4     H415996   5.504   3.288   8.245 -0.1639  1.0216  0.1856
  191HK4    C1215997   5.374   3.451   8.188 -0.4296  0.0101  0.1195
  191HK4     H515998   5.439   3.536   8.213  0.0601 -1.0530  2.6480
  191HK4    C1315999   5.242   3.472   8.153 -0.6364 -0.3596  0.6680
  191HK4     H616000   5.204   3.574   8.170  0.5591  0.3304 -0.7261
  191HK4     C716001   5.379   3.070   8.146 -0.4737 -0.2682 -0.6761
  191HK4     O216002   5.496   3.052   8.113 -0.1070  0.1314  0.3807
  191HK4     C416003   5.291   2.952   8.131 -0.0138 -0.6514 -0.3930
  191HK4     C316004   5.338   2.823   8.149  0.1317 -0.4940  0.3825
  191HK4     H316005   5.443   2.804   8.173  0.7874  2.8240  0.3123
  191HK4     C216006   5.250   2.717   8.128  0.0749 -0.3923  0.1141
  191HK4     H216007   5.275   2.611   8.144  0.9905 -0.1425  0.3965
  191HK4     C116008   5.119   2.744   8.090  0.2327  0.0129 -0.1550
  191HK4     H116009   5.051   2.658   8.078 -0.2832  0.5278 -0.8838
  191HK4     C616010   5.066   2.873   8.075  0.2950  0.0543 -0.0183
  191HK4     C516011   5.158   2.978   8.092  0.2001  0.2293 -0.5512
  191HK4    C1016012   5.116   3.121   8.079 -0.4757  0.1149  0.3009
  191HK4     O116013   5.071   3.146   7.967  0.2067 -0.4634 -0.1033
  191HK4    C1616014   4.927   2.891   8.119  0.2423 -0.3082 -0.0415
  191HK4    C1516015   4.864   2.822   8.224 -0.1324 -0.2156 -0.2025
  191HK4     H716016   4.927   2.789   8.309 -0.1837 -0.6009 -0.3140
  191HK4    C2016017   4.727   2.802   8.236 -0.1113 -0.3961 -0.2705
  191HK4     H916018   4.696   2.760   8.332  0.1799  2.2135  1.0110
  191HK4    C1916019   4.645   2.864   8.143  0.1941  0.0091 -0.2702
  191HK4    C1816020   4.700   2.926   8.025  0.1161 -0.1563 -0.3986
  191HK4    C1716021   4.839   2.941   8.024  0.1697 -0.6626 -0.1594
  191HK4     H816022   4.888   2.980   7.935  2.7877 -0.3031  1.3965
  191HK4     N116023   4.598   2.965   7.935 -0.2205 -0.0040  0.0528
  191HK4    C2116024   4.480   2.915   7.992 -0.1149 -0.2842  0.0281
  191HK4    C2216025   4.503   2.847   8.118  0.0860  0.1629  0.2350
  191HK4    C2616026   4.399   2.797   8.197  0.0318 -0.0141  0.0527
  191HK4    H1316027   4.420   2.738   8.286 -0.8771 -1.5287 -0.7142
  191HK4    C2516028   4.270   2.810   8.147  0.2201  0.9932 -0.1708
  191HK4    H1216029   4.184   2.760   8.192  0.4328  2.3752  1.8666
  191HK4    C2416030   4.243   2.872   8.026 -0.5627  0.3602 -0.3257
  191HK4    H1116031   4.139   2.889   7.995 -1.4763  0.2269  2.5961
  191HK4    C2316032   4.347   2.924   7.950 -0.1223  0.1597  0.1452
  191HK4    H1016033   4.319   3.002   7.879 -0.1770  2.0880  2.2020
  191HK4    C3916034   4.615   3.050   7.825  0.0352  0.6145  0.5661
  191HK4    C4116035   4.516   3.048   7.725  0.5210  0.1082  0.0990
  191HK4    H2116036   4.460   2.956   7.701  1.3531 -0.4363  0.2131
  191HK4    C4216037   4.512   3.149   7.630  0.0819 -0.3410 -0.3621
  191HK4    H2216038   4.436   3.143   7.549 -0.7188 -3.9345  0.5747
  191HK4    C4316039   4.609   3.248   7.625 -0.4654  0.2150 -0.1874
  191HK4    H2316040   4.598   3.333   7.558 -1.3078  0.1518 -0.1265
  191HK4    C4416041   4.705   3.253   7.726 -0.5667 -0.3111 -0.0624
  191HK4    H2416042   4.780   3.332   7.739 -0.7205 -0.3227  0.9809
  191HK4    C4516043   4.712   3.152   7.822  0.7272 -0.0557  0.1283
  191HK4    H2516044   4.775   3.169   7.910  1.5960  0.5587 -0.6032
  192HK4    H2816045   2.388   9.311  11.220  0.5915  1.3757 -0.3352
  192HK4    C4816046   2.324   9.398  11.206 -0.4184  0.6369 -0.3387
  192HK4    C4716047   2.382   9.518  11.167  0.0073  0.3031 -0.7411
  192HK4    H2716048   2.492   9.526  11.167  0.1235 -1.0340  0.7072
  192HK4    C4616049   2.303   9.629  11.142 -0.3090  0.2747  0.1276
  192HK4    H2616050   2.350   9.729  11.146 -1.3080  0.7207  1.0578
  192HK4    C4016051   2.162   9.620  11.142 -0.2776 -0.2239  0.0705
  192HK4    C5016052   2.103   9.496  11.175 -0.6356 -0.2310 -0.5943
  192HK4    H3016053   1.995   9.477  11.173 -0.8900  0.9357  0.8321
  192HK4    C4916054   2.185   9.389  11.208 -0.3851  0.2391  0.3297
  192HK4    H2916055   2.139   9.302   0.008 -0.2686  0.5864  1.0699
  192HK4     N216056   2.087   9.701  11.056 -0.0497  0.1774  0.2449
  192HK4    C3016057   1.954   9.740  11.082 -0.2030 -0.4116  0.3355
  192HK4    C2916058   1.888   9.748  11.204 -0.4701 -0.5760  0.2060
  192HK4    H1516059   1.941   9.709   0.043  0.6010  2.2749  0.8829
  192HK4    C2816060   1.752   9.776  11.207 -0.2458  0.5395  0.0397
  192HK4    C2716061   1.683   9.785  11.084  0.3640  0.3904 -0.3153
  192HK4    H1416062   1.574   9.773  11.091  0.1684  2.8468  2.1804
  192HK4    C3216063   1.748   9.789  10.962  0.1771  0.2221 -0.4198
  192HK4    H1616064   1.694   9.787  10.867 -1.5578  1.8823  0.5134
  192HK4    C3116065   1.886   9.774  10.958  0.0629 -0.9686  0.0351
  192HK4    C3416066   1.985   9.769  10.852 -0.0532 -0.0453 -0.1225
  192HK4    C3316067   2.106   9.724  10.918 -0.3966 -0.7449  0.0375
  192HK4    C3516068   2.226   9.734  10.848 -0.4499 -0.1588  0.0257
  192HK4    H1716069   2.294   9.651  10.864 -1.0044 -0.3726  1.3003
  192HK4    C3616070   2.225   9.804  10.727  0.0743 -0.1078  0.0547
  192HK4    H1816071   2.318   9.792  10.670 -0.9631 -2.2130 -1.2610
  192HK4    C3716072   2.113   9.861  10.668  0.0457  0.5364  0.7271
  192HK4    H1916073   2.123   9.922  10.579 -1.0202  1.1394  1.0046
  192HK4    C3816074   1.991   9.836  10.731 -0.3519 -0.7336 -0.5246
  192HK4    H2016075   1.902   9.884  10.690 -0.9194 -1.0512  0.3231
  192HK4    C1416076   1.689   9.814   0.086 -0.3824 -0.1624  0.1835
  192HK4     C916077   1.551   9.833   0.101 -0.3359  0.7155 -0.4642
  192HK4     C816078   1.497   9.935   0.183 -0.4870  0.0763  0.2459
  192HK4    C1116079   1.586  10.013   0.255  0.0662 -0.2077 -0.1236
  192HK4     H416080   1.559  10.113   0.292 -1.0633 -1.3586  2.2704
  192HK4    C1216081   1.720   9.977   0.264  0.2970  0.6618 -0.0434
  192HK4     H516082   1.789  10.026   0.334  3.5803 -0.1625 -2.5476
  192HK4    C1316083   1.773   9.885   0.174 -0.4820  0.1322  0.0412
  192HK4     H616084   1.883   9.878   0.172 -0.5438 -0.9779  0.1770
  192HK4     C716085   1.354   9.956   0.210 -0.3923  0.4837  0.4288
  192HK4     O216086   1.310  10.062   0.255 -0.6311  0.4895  0.1801
  192HK4     C416087   1.268   9.844   0.165  0.2148  0.1192  0.1780
  192HK4     C316088   1.134   9.849   0.202  0.1065 -0.4513 -0.1254
  192HK4     H316089   1.103   9.923   0.277  0.8305 -1.3725  1.1000
  192HK4     C216090   1.042   9.758   0.153 -0.0338 -0.2817 -0.1729
  192HK4     H216091   0.941   9.761   0.197  0.2167  0.4711  0.3559
  192HK4     C116092   1.087   9.658   0.067  0.2883 -0.4267  0.1652
  192HK4     H116093   1.011   9.596   0.018  1.5252 -0.0655 -2.2780
  192HK4     C616094   1.220   9.654   0.018  0.1306  0.0185 -0.3075
  192HK4     C516095   1.310   9.744   0.074 -0.2248  0.3864 -0.3250
  192HK4    C1016096   1.457   9.725   0.059 -0.1645  0.2013  0.4722
  192HK4     O116097   1.501   9.610   0.054  0.8348  0.6254 -0.6730
  192HK4    C1616098   1.251   9.541  11.177  0.2529 -0.2966  0.1335
  192HK4    C1516099   1.175   9.424  11.197 -0.4698  0.1668  0.0995
  192HK4     H716100   1.139   9.408   0.052  0.8046 -0.0441  0.5279
  192HK4    C2016101   1.146   9.341  11.089  0.6172  0.2665 -0.2826
  192HK4     H916102   1.098   9.246  11.112 -0.6095  0.6726 -1.0808
  192HK4    C1916103   1.189   9.377  10.962  0.1957  0.0806 -0.4788
  192HK4    C1816104   1.282   9.486  10.944 -0.4874  0.7044 -0.2327
  192HK4    C1716105   1.308   9.567  11.054 -0.3275  0.3388 -0.0044
  192HK4     H816106   1.373   9.653  11.036  1.7685 -1.3550 -0.8031
  192HK4     N116107   1.331   9.496  10.812 -0.1451  0.0873 -0.1528
  192HK4    C2116108   1.257   9.403  10.736  0.2720 -0.4696  0.1223
  192HK4    C2216109   1.170   9.329  10.826 -0.1286 -0.4556 -0.2489
  192HK4    C2616110   1.090   9.225  10.782  0.0287 -0.4371 -0.5804
  192HK4    H1316111   1.027   9.173  10.855 -1.3640 -0.3965 -1.7374
  192HK4    C2516112   1.095   9.187  10.649 -0.4977 -0.8638 -0.4821
  192HK4    H1216113   1.042   9.101  10.608  0.0312 -1.1339 -0.5988
  192HK4    C2416114   1.173   9.259  10.559 -0.2908  0.3772  0.6745
  192HK4    H1116115   1.179   9.227  10.454  3.9371 -0.2506  1.0184
  192HK4    C2316116   1.254   9.363  10.603 -0.4064  0.8829 -0.2892
  192HK4    H1016117   1.319   9.412  10.531  1.6948  1.0655  1.6594
  192HK4    C3916118   1.462   9.531  10.777  0.0564 -0.6601 -0.1565
  192HK4    C4116119   1.498   9.573  10.647  0.1509 -0.4137 -0.0476
  192HK4    H2116120   1.421   9.615  10.582  0.1667  0.6073  0.5801
  192HK4    C4216121   1.630   9.585  10.605 -0.0231 -0.0571 -0.4887
  192HK4    H2216122   1.647   9.594  10.497 -0.8949 -2.1968 -0.8324
  192HK4    C4316123   1.737   9.555  10.689 -0.3525 -0.0152 -0.0522
  192HK4    H2316124   1.841   9.558  10.657 -0.8009  0.9307 -1.4815
  192HK4    C4416125   1.700   9.507  10.814 -0.3724 -0.7056 -0.3205
  192HK4    H2416126   1.775   9.477  10.889  1.6673  0.5375 -1.8087
  192HK4    C4516127   1.570   9.496  10.861 -0.2035 -0.7707  0.1351
  192HK4    H2516128   1.553   9.439  10.953  0.4908 -2.8902 -1.0096
  193HK4    H2816129   3.291  10.260   5.052  1.0605  1.6079 -0.4692
  193HK4    C4816130   3.290  10.313   5.147  0.5539  0.5074  0.1563
  193HK4    C4716131   3.412  10.350   5.203  0.5292  0.4749  0.2303
  193HK4    H2716132   3.512  10.334   5.161  0.1320  1.6827 -1.2018
  193HK4    C4616133   3.416  10.423   5.322 -0.1515  0.2370  0.4008
  193HK4    H2616134   3.516  10.451   5.358 -0.1174  2.2460 -1.1564
  193HK4    C4016135   3.293  10.456   5.383 -0.4203 -0.3695  0.1891
  193HK4    C5016136   3.174  10.407   5.325 -0.4233 -0.3780  0.2025
  193HK4    H3016137   3.077  10.424   5.375 -0.4318 -0.5874  0.2579
  193HK4    C4916138   3.167  10.331   5.209  0.4038 -0.2816  0.0927
  193HK4    H2916139   3.070  10.306   5.165  0.2395 -1.5438  1.1145
  193HK4     N216140   3.286  10.502   5.515 -0.2170 -0.1339  0.1171
  193HK4    C3016141   3.379  10.486   5.619  0.2092 -0.3612 -0.2935
  193HK4    C2916142   3.461  10.376   5.643  0.1754 -0.4714 -0.6954
  193HK4    H1516143   3.467  10.302   5.563 -1.6229 -0.1874 -1.1251
  193HK4    C2816144   3.516  10.355   5.769  0.1004  0.5212 -0.4877
  193HK4    C2716145   3.487  10.446   5.872  0.7131 -0.0457  0.1817
  193HK4    H1416146   3.552  10.445   5.961 -0.8651  0.9164  1.3791
  193HK4    C3216147   3.401  10.554   5.859  0.4320 -0.3241 -0.2893
  193HK4    H1616148   3.368  10.618   5.941  0.0166  1.1385 -1.5680
  193HK4    C3116149   3.350  10.574   5.731 -0.1458 -0.6982 -0.1212
  193HK4    C3416150   3.243  10.663   5.689  0.1205 -0.1416  0.3637
  193HK4    C3316151   3.206  10.608   5.560 -0.4348 -0.5410  0.6940
  193HK4    C3516152   3.119  10.690   5.488  0.6771  0.1704  0.1601
  193HK4    H1716153   3.102  10.658   5.385 -1.8843  0.7805  0.3655
  193HK4    C3616154   3.077  10.814   5.534  1.1375  0.3530  0.0958
  193HK4    H1816155   3.008  10.874   5.473  1.5819  0.5007 -0.2657
  193HK4    C3716156   3.108  10.859   5.662  0.2394  0.0831  0.4171
  193HK4    H1916157   3.044  10.938   5.700 -0.6601 -1.6296  2.5029
  193HK4    C3816158   3.193  10.782   5.740  0.1491 -0.1142  0.3231
  193HK4    H2016159   3.200  10.808   5.846 -2.4820 -0.3964  0.6000
  193HK4    C1416160   3.565  10.222   5.810 -0.1234  0.5325 -0.1827
  193HK4     C916161   3.537  10.170   5.937  0.0375  0.3545 -0.2211
  193HK4     C816162   3.627  10.080   5.997 -0.5007 -0.0332  0.0156
  193HK4    C1116163   3.727  10.033   5.912  0.0230  0.3126  0.4382
  193HK4     H416164   3.792   9.954   5.953 -0.7207 -0.9590 -0.8016
  193HK4    C1216165   3.750  10.072   5.780  0.1012  0.2051  0.4208
  193HK4     H516166   3.827  10.033   5.713  0.2021 -1.4821  1.4734
  193HK4    C1316167   3.668  10.171   5.729 -0.1153 -0.0816  0.2110
  193HK4     H616168   3.686  10.202   5.625  3.6661 -0.6202  0.6432
  193HK4     C716169   3.618  10.053   6.142 -0.0909 -0.3087 -0.0095
  193HK4     O216170   3.720  10.038   6.209 -0.0859  0.2458  0.1127
  193HK4     C416171   3.487  10.077   6.207 -0.0952 -0.1668 -0.0700
  193HK4     C316172   3.466  10.039   6.339 -0.0586 -0.0635 -0.0333
  193HK4     H316173   3.543   9.991   6.400 -0.3893  0.5428  0.8821
  193HK4     C216174   3.359  10.091   6.411 -0.3046 -0.1990 -0.2979
  193HK4     H216175   3.343  10.055   6.514  1.8541  1.2396  0.5844
  193HK4     C116176   3.279  10.191   6.357 -0.2212  0.0178 -0.0264
  193HK4     H116177   3.199  10.237   6.417 -0.3807  0.1267 -0.3233
  193HK4     C616178   3.298  10.241   6.227  0.4304 -0.1215  0.0134
  193HK4     C516179   3.396  10.172   6.155 -0.0140 -0.2886 -0.4397
  193HK4    C1016180   3.408  10.193   6.008 -0.0850  0.1622 -0.3837
  193HK4     O116181   3.309  10.154   5.946 -0.4285 -0.0464  0.2822
  193HK4    C1616182   3.265  10.382   6.203  0.2319 -0.0965  0.4218
  193HK4    C1516183   3.278  10.479   6.306  0.4928  0.0516  0.2479
  193HK4     H716184   3.364  10.457   6.371  0.7121 -0.4180 -0.1899
  193HK4    C2016185   3.228  10.608   6.301 -0.2724 -0.2530 -0.1366
  193HK4     H916186   3.250  10.682   6.378 -0.6625  1.1725 -1.3581
  193HK4    C1916187   3.138  10.637   6.199 -0.3696 -0.0749 -0.0007
  193HK4    C1816188   3.124  10.546   6.087  0.5275  0.3403 -0.4481
  193HK4    C1716189   3.192  10.425   6.093  0.1937  0.1983  0.5624
  193HK4     H816190   3.191  10.364   6.003  0.3884  0.5211  0.3396
  193HK4     N116191   3.036  10.592   5.987 -0.0576 -0.1909 -0.1755
  193HK4    C2116192   2.999  10.722   6.026  0.1435 -0.1448 -0.1378
  193HK4    C2216193   3.065  10.752   6.151  0.0200  0.1170 -0.1354
  193HK4    C2616194   3.034  10.868   6.223 -0.0015 -0.3439  0.6084
  193HK4    H1316195   3.076  10.884   6.322  2.4193 -0.1922 -0.3948
  193HK4    C2516196   2.946  10.960   6.168  0.8728 -0.1052 -0.3976
  193HK4    H1216197   2.941  11.058   6.215  1.6697 -0.3114  0.1211
  193HK4    C2416198   2.886  10.934   6.045 -0.8112 -0.5165  0.4955
  193HK4    H1116199   2.819  11.010   6.003  0.5751  0.4211 -0.0709
  193HK4    C2316200   2.906  10.814   5.978  0.3043  0.0110 -0.1463
  193HK4    H1016201   2.856  10.792   5.884 -1.2118 -0.2630  0.7043
  193HK4    C3916202   2.963  10.508   5.901  0.2324 -0.0180 -0.5900
  193HK4    C4116203   2.911  10.556   5.779 -0.0070 -0.2678 -0.5832
  193HK4    H2116204   2.971  10.620   5.712  1.1069  0.4429  1.0540
  193HK4    C4216205   2.796  10.495   5.730 -0.3243  0.0710 -0.2562
  193HK4    H2216206   2.725  10.561   5.678 -1.8683 -3.0967 -2.3472
  193HK4    C4316207   2.730  10.380   5.773  0.0684  0.2237  0.7580
  193HK4    H2316208   2.630  10.346   5.747 -0.3673  1.6247  0.5556
  193HK4    C4416209   2.795  10.327   5.884  1.3125 -0.5190 -0.3027
  193HK4    H2416210   2.786  10.218   5.895 -2.0490 -0.2053  0.6703
  193HK4    C4516211   2.897  10.394   5.950  0.4663  0.2140  0.2747
  193HK4    H2516212   2.934  10.362   6.049  0.8033 -0.5044 -0.0806
  194HK4    H2816213   1.538   5.074   3.857 -0.2805 -0.9954 -0.8475
  194HK4    C4816214   1.479   5.090   3.947 -0.0575 -0.0697 -0.8578
  194HK4    C4716215   1.472   4.987   4.040  0.3449  0.6865  0.0119
  194HK4    H2716216   1.521   4.894   4.007 -2.0939 -0.4361 -0.5289
  194HK4    C4616217   1.423   5.004   4.169  0.0760  0.1528 -0.0205
  194HK4    H2616218   1.430   4.918   4.238 -1.3358 -0.9019 -1.1520
  194HK4    C4016219   1.389   5.132   4.217 -0.1465  0.2585 -0.4624
  194HK4    C5016220   1.398   5.233   4.119 -0.4467  0.4925 -0.2485
  194HK4    H3016221   1.409   5.336   4.156 -0.2789  0.4663 -0.2254
  194HK4    C4916222   1.438   5.216   3.987  0.1200 -0.2908  0.0196
  194HK4    H2916223   1.414   5.297   3.916 -0.1112  0.1888  0.6395
  194HK4     N216224   1.294   5.146   4.319  0.0518  0.3604 -0.2936
  194HK4    C3016225   1.202   5.048   4.359  0.1402  0.3059 -0.2242
  194HK4    C2916226   1.123   4.964   4.281  0.2843 -0.0619  0.0241
  194HK4    H1516227   1.149   4.926   4.182  0.1941 -1.1288  0.4048
  194HK4    C2816228   1.002   4.913   4.326 -0.2719  0.7522 -0.5343
  194HK4    C2716229   0.977   4.927   4.465 -0.2860  0.3759 -0.4953
  194HK4    H1416230   0.882   4.882   4.496  0.5378  0.7360  2.7287
  194HK4    C3216231   1.063   4.996   4.550  0.2779 -0.7797 -0.1241
  194HK4    H1616232   1.025   5.020   4.650 -0.1887  1.7644 -0.8947
  194HK4    C3116233   1.175   5.061   4.500 -0.4932  0.3826 -0.3498
  194HK4    C3416234   1.255   5.171   4.551  0.1102 -0.2297  0.0295
  194HK4    C3316235   1.316   5.227   4.432 -0.1384 -0.0082  0.0076
  194HK4    C3516236   1.399   5.338   4.450  0.5551 -0.5665  0.2843
  194HK4    H1716237   1.457   5.382   4.369 -1.5969  1.9271  0.0355
  194HK4    C3616238   1.413   5.391   4.578  0.2832 -0.0608  0.1036
  194HK4    H1816239   1.445   5.496   4.586 -1.7462  0.7708 -1.7148
  194HK4    C3716240   1.355   5.338   4.692 -0.3875  0.4893  0.0248
  194HK4    H1916241   1.373   5.363   4.797 -3.0017  1.0663  0.3805
  194HK4    C3816242   1.276   5.225   4.677 -0.2909  0.4515 -0.1948
  194HK4    H2016243   1.207   5.202   4.759 -2.2564 -0.0306 -1.9497
  194HK4    C1416244   0.946   4.803   4.246  0.3472  0.0897 -0.0639
  194HK4     C916245   0.892   4.687   4.302  0.3938 -0.0209 -0.2504
  194HK4     C816246   0.785   4.623   4.235  0.9023 -0.4612 -0.6514
  194HK4    C1116247   0.750   4.662   4.106 -0.1401  0.4027 -0.1205
  194HK4     H416248   0.658   4.621   4.062 -0.7871  0.6961  0.9442
  194HK4    C1216249   0.818   4.767   4.046 -0.3253  0.3435 -0.4319
  194HK4     H516250   0.795   4.780   3.939 -0.9226 -1.7958 -0.5701
  194HK4    C1316251   0.915   4.840   4.114 -0.2730 -0.1417  0.0146
  194HK4     H616252   0.976   4.910   4.055 -0.2343  0.0191  0.2463
  194HK4     C716253   0.719   4.504   4.293 -0.0272  0.5996  0.5241
  194HK4     O216254   0.601   4.480   4.269  0.1465  0.1972  0.0514
  194HK4     C416255   0.787   4.433   4.404  0.8752 -0.1677 -0.5012
  194HK4     C316256   0.727   4.315   4.447 -0.2361  0.5061 -0.1994
  194HK4     H316257   0.644   4.262   4.396 -0.2124 -0.7775  1.0760
  194HK4     C216258   0.773   4.252   4.561 -0.5817 -0.1898 -0.4408
  194HK4     H216259   0.725   4.156   4.587  0.5795 -0.6734 -0.0659
  194HK4     C116260   0.860   4.321   4.644 -0.2539 -0.1904 -0.7849
  194HK4     H116261   0.913   4.251   4.712  1.0863 -1.1631 -2.7643
  194HK4     C616262   0.892   4.456   4.620 -0.0449 -0.0703  0.1277
  194HK4     C516263   0.870   4.506   4.491 -0.2982  0.2460  0.2899
  194HK4    C1016264   0.938   4.623   4.428 -0.0377 -0.1389 -0.1506
  194HK4     O116265   1.053   4.639   4.470  0.0059 -0.0295 -0.3127
  194HK4    C1616266   0.934   4.535   4.736  0.3950  0.1629 -0.1887
  194HK4    C1516267   0.994   4.470   4.846 -0.3109  0.0595  0.1402
  194HK4     H716268   1.053   4.379   4.829 -1.9338 -0.9464 -0.2304
  194HK4    C2016269   0.976   4.516   4.976  0.6278 -0.1357  0.3431
  194HK4     H916270   1.032   4.468   5.056  0.0355  1.5863  1.8383
  194HK4    C1916271   0.899   4.628   5.005  0.2876 -0.3283  0.2007
  194HK4    C1816272   0.844   4.695   4.889  0.1425 -0.4072  0.2240
  194HK4    C1716273   0.855   4.648   4.759  0.1372 -0.0732  0.1012
  194HK4     H816274   0.812   4.704   4.676 -3.2479  1.4935  2.8265
  194HK4     N116275   0.791   4.819   4.930 -0.4738 -0.6372  0.1100
  194HK4    C2116276   0.819   4.835   5.067  0.1514  0.1878 -0.1132
  194HK4    C2216277   0.880   4.715   5.120 -0.5084 -0.1336 -0.0802
  194HK4    C2616278   0.919   4.709   5.254 -0.5226 -0.2998 -0.0822
  194HK4    H1316279   0.976   4.627   5.298 -0.7546 -0.6321 -0.3969
  194HK4    C2516280   0.888   4.816   5.336  0.1095 -0.0720 -0.1410
  194HK4    H1216281   0.919   4.808   5.440 -0.2220 -0.2220 -0.0555
  194HK4    C2416282   0.830   4.934   5.289  0.0884 -0.0697 -0.1090
  194HK4    H1116283   0.797   5.019   5.351 -1.6330  0.0446 -1.1750
  194HK4    C2316284   0.791   4.938   5.156 -0.2796 -0.0268 -0.0013
  194HK4    H1016285   0.716   5.009   5.124  0.3719  0.6996  0.0669
  194HK4    C3916286   0.687   4.885   4.862 -0.4496  0.0962  0.7804
  194HK4    C4116287   0.599   4.809   4.783 -0.0968  0.0435  0.4343
  194HK4    H2116288   0.552   4.716   4.819 -1.1086  0.2328 -0.3669
  194HK4    C4216289   0.536   4.860   4.670  0.2544 -0.0933  0.1715
  194HK4    H2216290   0.512   4.791   4.588 -0.2744  1.9895 -1.4833
  194HK4    C4316291   0.548   4.996   4.644  0.6172 -0.1888 -0.1542
  194HK4    H2316292   0.490   5.047   4.566 -1.4693  0.4058  1.7406
  194HK4    C4416293   0.629   5.076   4.723  0.5967  0.2182 -0.5464
  194HK4    H2416294   0.611   5.185   4.728  0.4588  0.2390 -1.3988
  194HK4    C4516295   0.701   5.021   4.828  0.0991 -0.2580 -0.4532
  194HK4    H2516296   0.748   5.083   4.906 -1.2773 -0.5304  0.6104
  195HK4    H2816297  10.851   0.957   8.588 -1.0177 -0.5663 -1.1134
  195HK4    C4816298  10.825   0.864   8.638 -0.2639 -0.2955 -0.2007
  195HK4    C4716299  10.692   0.829   8.661 -0.3929  0.2992 -0.0298
  195HK4    H2716300  10.613   0.904   8.673 -1.0023  0.2136 -3.1449
  195HK4    C4616301  10.660   0.698   8.694 -0.1000  0.1547 -0.3145
  195HK4    H2616302  10.554   0.670   8.697 -0.6040  1.9531 -0.4613
  195HK4    C4016303  10.754   0.593   8.697 -0.5449 -0.2310  0.0211
  195HK4    C5016304  10.886   0.641   8.695 -0.6255 -0.0028 -0.0177
  195HK4    H3016305  10.965   0.577   8.738 -0.9406  0.2975  1.0251
  195HK4    C4916306  10.924   0.768   8.656 -0.1552 -0.1564 -0.0645
  195HK4    H2916307  11.027   0.808   8.661 -0.6162  1.1063 -0.4380
  195HK4     N216308  10.715   0.459   8.712  0.4171 -0.4824  0.2850
  195HK4    C3016309  10.591   0.411   8.758 -0.1480  0.4833 -0.2257
  195HK4    C2916310  10.534   0.435   8.883  0.0047  0.1177 -0.0834
  195HK4    H1516311  10.573   0.505   8.957  0.2006 -1.0472  0.9256
  195HK4    C2816312  10.423   0.363   8.928 -0.1294  0.3640 -0.0186
  195HK4    C2716313  10.371   0.260   8.847 -0.2065  0.3008  0.1129
  195HK4    H1416314  10.276   0.209   8.868 -0.0117 -0.0883  0.0540
  195HK4    C3216315  10.436   0.224   8.729 -0.0865 -0.4040  0.3888
  195HK4    H1616316  10.403   0.138   8.671 -0.4361  0.7048 -1.0833
  195HK4    C3116317  10.546   0.295   8.684 -0.0833 -0.1760  0.7552
  195HK4    C3416318  10.654   0.264   8.592 -0.3159  0.2255  0.3443
  195HK4    C3316319  10.760   0.357   8.626  0.0778  0.1489 -0.6518
  195HK4    C3516320  10.881   0.356   8.556  0.7431 -0.4610  0.4783
  195HK4    H1716321  10.951   0.439   8.561 -2.2564  2.2111 -0.3034
  195HK4    C3616322  10.894   0.260   8.456  0.4161 -0.3134  0.2905
  195HK4    H1816323  10.994   0.260   8.410  0.9491  1.0267  1.4125
  195HK4    C3716324  10.793   0.171   8.424 -0.3109  0.5502  0.1795
  195HK4    H1916325  10.824   0.097   8.350  0.4846  1.7545 -0.7135
  195HK4    C3816326  10.673   0.168   8.494 -0.3108  0.3972  0.1765
  195HK4    H2016327  10.616   0.075   8.492  0.7804 -0.2770 -0.2674
  195HK4    C1416328  10.398   0.350   9.072  0.7939 -0.1779  0.0945
  195HK4     C916329  10.362   0.234   9.143 -0.1383 -0.2893 -0.5438
  195HK4     C816330  10.271   0.244   9.250  0.9627 -0.2657  0.4003
  195HK4    C1116331  10.226   0.365   9.300  0.2234 -0.2322 -0.3287
  195HK4     H416332  10.156   0.383   9.384  0.7185  1.7497 -0.3202
  195HK4    C1216333  10.262   0.482   9.235  0.3748  0.0382  0.2383
  195HK4     H516334  10.228   0.579   9.273  0.9008 -0.2801  1.5439
  195HK4    C1316335  10.348   0.470   9.127  0.4027 -0.4333  0.3080
  195HK4     H616336  10.367   0.562   9.070 -1.0280 -0.4437 -0.2024
  195HK4     C716337  10.205   0.120   9.298  0.1487  0.0178  0.0191
  195HK4     O216338  10.180   0.109   9.418  0.2329 -0.9024 -0.0425
  195HK4     C416339  10.199  11.247   9.213 -0.6278  0.2384 -0.2498
  195HK4     C316340  10.118  11.139   9.247  0.0723 -0.1379  0.2500
  195HK4     H316341  10.024  11.149   9.302 -0.5380 -0.6878 -0.6672
  195HK4     C216342  10.125  11.026   9.165  0.0108  0.3556 -0.4375
  195HK4     H216343  10.059  10.942   9.192 -0.9648  1.2238 -0.0728
  195HK4     C116344  10.218  11.016   9.062  0.1632 -0.4602 -0.2255
  195HK4     H116345  10.217  10.919   9.011  3.0422 -1.0650  0.7740
  195HK4     C616346  10.305  11.121   9.028 -0.6052  0.1395 -0.3522
  195HK4     C516347  10.293  11.236   9.109  0.0180 -0.3005  0.3758
  195HK4    C1016348  10.389   0.099   9.085 -0.2530 -0.2716 -0.6430
  195HK4     O116349  10.508   0.083   9.057 -0.1037 -0.3268  0.0168
  195HK4    C1616350  10.348  11.124   8.888 -0.6616 -0.0547 -0.3738
  195HK4    C1516351  10.265  11.073   8.786 -0.7441 -0.5872 -0.0432
  195HK4     H716352  10.158  11.052   8.804 -1.0344  1.0189  0.2465
  195HK4    C2016353  10.319  11.032   8.665  0.4666 -0.4218  0.4392
  195HK4     H916354  10.256  10.993   8.586 -1.0213 -0.5689  1.6914
  195HK4    C1916355  10.457  11.027   8.646  0.4420  0.2703  0.0479
  195HK4    C1816356  10.547  11.070   8.752  0.0725  0.4259  0.2996
  195HK4    C1716357  10.486  11.113   8.869 -0.5974 -0.2536  0.1988
  195HK4     H816358  10.556  11.124   8.952  0.1701  0.0834 -0.4931
  195HK4     N116359  10.684  11.073   8.718 -0.0877  0.1068 -0.3745
  195HK4    C2116360  10.679  11.041   8.581  0.2611 -0.0366 -0.3542
  195HK4    C2216361  10.544  11.019   8.531  0.2263 -0.4950 -0.0600
  195HK4    C2616362  10.512  11.033   8.397  0.0509 -0.0303  0.0287
  195HK4    H1316363  10.407  11.030   8.369 -0.0146  1.1150  0.1355
  195HK4    C2516364  10.614  11.064   8.308  0.1856 -0.5135  0.0159
  195HK4    H1216365  10.581  11.079   8.205  0.1000  1.1427  0.2838
  195HK4    C2416366  10.746  11.074   8.350  0.1474 -0.1220  0.0375
  195HK4    H1116367  10.835  11.102   8.291 -0.5390  0.2495 -0.8275
  195HK4    C2316368  10.778  11.061   8.485  0.5875 -0.3338 -0.0815
  195HK4    H1016369  10.880  11.073   8.519  1.1129 -0.5508 -1.5551
  195HK4    C3916370  10.781  11.145   8.787 -0.0406 -0.1265 -0.2023
  195HK4    C4116371  10.918  11.110   8.778 -0.1361 -0.3344 -0.7890
  195HK4    H2116372  10.935  11.010   8.736 -0.5441 -0.3148 -1.0094
  195HK4    C4216373  11.009  11.208   8.815 -0.0899 -0.5305 -0.3832
  195HK4    H2216374  11.112  11.171   8.824 -0.0722 -0.2364  0.6695
  195HK4    C4316375  10.981   0.086   8.865 -0.1011 -0.7347  0.1288
  195HK4    H2316376  11.064   0.148   8.900  1.3683 -1.8384 -1.3297
  195HK4    C4416377  10.848   0.126   8.874  0.0676 -0.1554  0.0612
  195HK4    H2416378  10.831   0.215   8.937  0.0161 -0.0594 -0.0877
  195HK4    C4516379  10.759   0.030   8.828  0.1625 -0.0405 -0.3634
  195HK4    H2516380  10.656   0.065   8.808 -0.9396 -2.0318  1.5432
  196HK4    H2816381   9.293   0.548  10.542  0.0419 -0.6328 -1.3613
  196HK4    C4816382   9.187   0.529  10.560  0.1748  0.0718  0.2076
  196HK4    C4716383   9.103   0.481  10.460  0.1999  1.1358 -0.3350
  196HK4    H2716384   9.143   0.470  10.358  2.0614  2.1442  0.2547
  196HK4    C4616385   8.966   0.483  10.477  0.2318  0.1243  0.0930
  196HK4    H2616386   8.907   0.444  10.393  0.2047 -0.3982  0.3476
  196HK4    C4016387   8.908   0.532  10.597  0.0370  0.7405 -0.2509
  196HK4    C5016388   8.997   0.589  10.690  0.0752  0.1760  0.0669
  196HK4    H3016389   8.970   0.609  10.795 -2.1079 -1.0409 -0.2218
  196HK4    C4916390   9.135   0.590  10.673  0.1335 -0.5039  0.5008
  196HK4    H2916391   9.192   0.658  10.738 -0.4508  0.0085  0.4911
  196HK4     N216392   8.775   0.575  10.602 -0.0589  0.3745  0.4509
  196HK4    C3016393   8.694   0.633  10.501 -0.0322 -0.1586  0.1222
  196HK4    C2916394   8.729   0.667  10.371 -0.0398  0.2368  0.2246
  196HK4    H1516395   8.833   0.658  10.340 -0.0808  1.8446 -0.4258
  196HK4    C2816396   8.637   0.707  10.275 -0.0033 -0.5496 -0.1377
  196HK4    C2716397   8.501   0.711  10.313 -0.0610 -0.5231 -0.3443
  196HK4    H1416398   8.430   0.736  10.232  1.6223 -0.7028 -1.9033
  196HK4    C3216399   8.464   0.673  10.441 -0.3230  0.0255 -0.2563
  196HK4    H1616400   8.359   0.680  10.472 -0.6507  0.9181 -1.5357
  196HK4    C3116401   8.555   0.642  10.541 -0.1502  0.1827 -0.3639
  196HK4    C3416402   8.550   0.579  10.671 -0.4764  0.1884 -0.3737
  196HK4    C3316403   8.685   0.536  10.704 -0.7490 -0.8696 -0.6120
  196HK4    C3516404   8.698   0.452  10.814 -0.1075 -0.0166 -0.0282
  196HK4    H1716405   8.793   0.427  10.859  0.6625  1.2644 -0.9026
  196HK4    C3616406   8.586   0.409  10.885 -0.1543  0.0087 -0.0879
  196HK4    H1816407   8.605   0.336  10.966 -4.9940 -2.1132 -0.7083
  196HK4    C3716408   8.460   0.462  10.860 -0.1316  0.3378  0.5004
  196HK4    H1916409   8.380   0.453  10.933  1.0535  1.6598  2.0205
  196HK4    C3816410   8.442   0.550  10.754 -0.0173 -0.0640  0.1473
  196HK4    H2016411   8.352   0.611  10.747 -0.0894 -0.2456 -0.4962
  196HK4    C1416412   8.675   0.725  10.134 -0.4442 -0.3764 -0.2364
  196HK4     C916413   8.596   0.780  10.033  0.2246  0.3304 -0.3759
  196HK4     C816414   8.598   0.736   9.899 -0.0593 -0.4609 -0.1242
  196HK4    C1116415   8.701   0.656   9.853 -0.0660 -0.4156 -0.2220
  196HK4     H416416   8.728   0.649   9.746  0.1686 -0.1421 -0.1816
  196HK4    C1216417   8.787   0.607   9.950 -0.8183 -0.6186  0.3395
  196HK4     H516418   8.882   0.555   9.928 -0.7445 -0.0680 -0.6476
  196HK4    C1316419   8.771   0.634  10.086 -0.0290 -0.2624  0.3683
  196HK4     H616420   8.824   0.558  10.145  1.0433  0.6382  0.5793
  196HK4     C716421   8.489   0.776   9.807  0.0959  0.5710  0.1346
  196HK4     O216422   8.483   0.722   9.696  0.4661  0.7419  0.0303
  196HK4     C416423   8.383   0.868   9.854 -0.4042 -0.0097  0.1518
  196HK4     C316424   8.280   0.899   9.766 -0.1567 -0.4718 -0.3006
  196HK4     H316425   8.303   0.890   9.659  0.5271 -1.5608 -0.0734
  196HK4     C216426   8.164   0.955   9.818  0.1757 -0.0508  0.0022
  196HK4     H216427   8.094   0.998   9.745  0.1359 -0.1243  0.0014
  196HK4     C116428   8.155   0.985   9.953  0.1622  0.4627 -0.1136
  196HK4     H116429   8.060   1.032   9.982  1.2925  3.6832 -1.4316
  196HK4     C616430   8.261   0.967  10.045  0.0304 -0.3244 -0.1148
  196HK4     C516431   8.376   0.913   9.987  0.3214 -0.0509  0.2069
  196HK4    C1016432   8.502   0.891  10.065  0.3115  0.2108  0.3001
  196HK4     O116433   8.545   0.978  10.140  0.0136  0.3945  0.2624
  196HK4    C1616434   8.209   0.916  10.173  0.1114 -0.2402 -0.0494
  196HK4    C1516435   8.094   0.835  10.183 -0.0762  0.0782  0.3661
  196HK4     H716436   8.080   0.769  10.097  0.1113 -0.9905  1.1491
  196HK4    C2016437   8.042   0.799  10.307 -0.2596 -0.3943  0.1519
  196HK4     H916438   7.953   0.736  10.304 -0.6949  0.1321  1.5131
  196HK4    C1916439   8.098   0.834  10.429  0.5436 -0.4771 -0.1913
  196HK4    C1816440   8.213   0.922  10.418 -0.0794  0.3996  0.2075
  196HK4    C1716441   8.261   0.962  10.293 -0.4843  0.2790  0.0133
  196HK4     H816442   8.348   1.027  10.301 -0.1142 -0.0326 -1.3222
  196HK4     N116443   8.271   0.934  10.545  0.0997  0.1168  0.1514
  196HK4    C2116444   8.201   0.842  10.627  0.2561  0.0354  0.1940
  196HK4    C2216445   8.087   0.779  10.563  0.3024  0.1151  0.0336
  196HK4    C2616446   7.981   0.728  10.638  0.3012  0.3402  0.1850
  196HK4    H1316447   7.895   0.680  10.590 -0.9821  1.6838  1.0904
  196HK4    C2516448   7.990   0.727  10.776 -0.3879 -0.0318  0.2288
  196HK4    H1216449   7.903   0.704  10.839  0.3270 -0.4143  1.0894
  196HK4    C2416450   8.103   0.779  10.837 -0.3152  0.2432 -0.1418
  196HK4    H1116451   8.108   0.765  10.946 -0.0057 -1.6401 -0.3808
  196HK4    C2316452   8.208   0.835  10.765  0.1919 -0.2738  0.1856
  196HK4    H1016453   8.300   0.856  10.819  0.9977  0.6736 -1.5481
  196HK4    C3916454   8.329   1.053  10.590  0.1739  0.3074 -0.4422
  196HK4    C4116455   8.447   1.048  10.667 -0.4688 -0.3259  0.5023
  196HK4    H2116456   8.512   0.960  10.651  0.0119  0.1544 -0.2097
  196HK4    C4216457   8.501   1.155  10.737 -0.1626  0.1285 -0.4259
  196HK4    H2216458   8.605   1.155  10.774 -0.1838 -1.6435 -0.3165
  196HK4    C4316459   8.426   1.272  10.738 -0.6653 -0.1992  0.3674
  196HK4    H2316460   8.449   1.356  10.803 -2.4841 -0.6425  1.5980
  196HK4    C4416461   8.305   1.282  10.670 -0.6263  0.3646  0.3797
  196HK4    H2416462   8.281   1.386  10.642 -1.2879 -0.4978 -2.4523
  196HK4    C4516463   8.257   1.175  10.596 -0.1852  0.0561  0.5445
  196HK4    H2516464   8.153   1.182  10.563 -0.4213  2.1125  1.6791
  197HK4    H2816465   6.053   6.300   1.716 -0.3119  1.2701 -1.3678
  197HK4    C4816466   5.983   6.229   1.673  0.1891 -0.0312 -0.0703
  197HK4    C4716467   5.932   6.118   1.740 -0.2918 -0.1672 -0.6557
  197HK4    H2716468   5.985   6.074   1.826 -0.5413  0.8917  0.0595
  197HK4    C4616469   5.833   6.040   1.682 -0.4362 -0.3051 -0.2221
  197HK4    H2616470   5.778   5.970   1.748 -0.2383 -1.5678 -1.3765
  197HK4    C4016471   5.780   6.070   1.555  0.2589  0.0843 -0.4238
  197HK4    C5016472   5.829   6.187   1.494  0.3788  0.2439 -0.0249
  197HK4    H3016473   5.779   6.229   1.406  3.5959  0.3092 -1.9132
  197HK4    C4916474   5.936   6.260   1.546  0.1797  0.4780  0.0579
  197HK4    H2916475   5.986   6.327   1.476  1.7427  0.3054  0.9962
  197HK4     N216476   5.668   6.008   1.497 -0.3359  0.7123  0.0391
  197HK4    C3016477   5.576   5.939   1.578  0.3433 -0.1530  0.0774
  197HK4    C2916478   5.514   5.988   1.692  0.0472 -0.0737 -0.1176
  197HK4    H1516479   5.543   6.083   1.737  0.6538 -0.7672  0.9764
  197HK4    C2816480   5.388   5.940   1.726 -0.1232  0.4708  0.0232
  197HK4    C2716481   5.335   5.830   1.656 -0.1152  0.1468  0.5210
  197HK4    H1416482   5.256   5.773   1.707 -0.3375  1.4480  1.6538
  197HK4    C3216483   5.397   5.779   1.542 -0.0976  0.3787  0.4270
  197HK4    H1616484   5.376   5.673   1.529 -0.2119  0.3206  1.0851
  197HK4    C3116485   5.512   5.839   1.494 -0.1253  0.1498  0.0713
  197HK4    C3416486   5.561   5.851   1.358 -0.2760  0.0987  0.0131
  197HK4    C3316487   5.652   5.964   1.365 -0.2885  0.0950  0.2404
  197HK4    C3516488   5.695   6.011   1.241 -0.2072 -0.7726 -0.0707
  197HK4    H1716489   5.794   6.058   1.242 -0.2473 -0.6921  0.7754
  197HK4    C3616490   5.639   5.981   1.118 -0.1470  0.6726 -0.4625
  197HK4    H1816491   5.660   6.048   1.033  1.4454  1.2554  0.3572
  197HK4    C3716492   5.541   5.882   1.116  0.2072  0.3195 -0.2137
  197HK4    H1916493   5.519   5.829   1.023 -0.6385 -0.3836  0.3807
  197HK4    C3816494   5.511   5.814   1.234  0.1812  0.2978 -0.2327
  197HK4    H2016495   5.417   5.759   1.237 -0.3400  1.2637  3.0273
  197HK4    C1416496   5.334   5.975   1.858  0.1851  0.1267  0.2399
  197HK4     C916497   5.282   5.879   1.946 -0.0648 -0.0331 -0.0815
  197HK4     C816498   5.180   5.918   2.035  0.2671 -0.1056  0.3362
  197HK4    C1116499   5.144   6.052   2.038  0.3088 -0.0787 -0.2671
  197HK4     H416500   5.041   6.073   2.071  1.7494 -0.0694  4.7100
  197HK4    C1216501   5.208   6.152   1.964  0.3444  0.4889  0.5196
  197HK4     H516502   5.201   6.254   2.004  1.0432  2.1365 -3.4248
  197HK4    C1316503   5.309   6.112   1.877 -0.3298  0.0744 -0.0733
  197HK4     H616504   5.374   6.188   1.831 -1.0793  1.4128  1.0374
  197HK4     C716505   5.118   5.812   2.117 -0.1459 -0.0400  0.1086
  197HK4     O216506   5.016   5.847   2.177  0.2957  0.4569  0.5775
  197HK4     C416507   5.154   5.670   2.091 -0.2682 -0.0625  0.0586
  197HK4     C316508   5.101   5.573   2.175  0.1043  0.0484  0.4224
  197HK4     H316509   5.048   5.595   2.268  1.0996 -0.1203  1.0454
  197HK4     C216510   5.134   5.439   2.158  0.3778  0.1353  0.2600
  197HK4     H216511   5.090   5.365   2.226 -0.1915 -0.3386 -0.6185
  197HK4     C116512   5.217   5.402   2.053 -0.3605 -0.1626 -0.2222
  197HK4     H116513   5.248   5.297   2.046  0.5786  0.1534 -0.9499
  197HK4     C616514   5.271   5.496   1.963 -1.0717  0.1052 -0.3733
  197HK4     C516515   5.253   5.630   1.999 -0.4287  0.1510 -0.2075
  197HK4    C1016516   5.338   5.741   1.946 -0.0515 -0.0282  0.0251
  197HK4     O116517   5.456   5.732   1.981  0.1422  0.8111 -0.4107
  197HK4    C1616518   5.322   5.451   1.833  0.5061 -0.1298  0.3170
  197HK4    C1516519   5.273   5.328   1.785 -0.6906  0.5041 -0.0989
  197HK4     H716520   5.181   5.282   1.826 -0.2122  0.8942  1.4453
  197HK4    C2016521   5.341   5.251   1.691 -0.4325  0.4994  0.0904
  197HK4     H916522   5.303   5.152   1.666  1.2251 -0.1642  0.1760
  197HK4    C1916523   5.462   5.291   1.635 -0.0900 -0.4639  0.1304
  197HK4    C1816524   5.507   5.425   1.669 -0.2417 -0.3377 -0.1600
  197HK4    C1716525   5.434   5.496   1.764  0.4957 -0.1675  0.2754
  197HK4     H816526   5.442   5.605   1.763  1.4005 -0.1987  2.1057
  197HK4     N116527   5.615   5.464   1.588  0.1912 -0.4713  0.3543
  197HK4    C2116528   5.644   5.354   1.504  0.4254 -0.3016  0.2135
  197HK4    C2216529   5.545   5.250   1.523 -0.5269  0.4677 -0.5380
  197HK4    C2616530   5.540   5.142   1.436  0.0016  0.0374 -0.0394
  197HK4    H1316531   5.456   5.073   1.446  0.5146 -0.7654 -1.1804
  197HK4    C2516532   5.625   5.129   1.328 -0.0879 -0.1930 -0.0813
  197HK4    H1216533   5.631   5.037   1.270  0.6337  1.6115 -2.9734
  197HK4    C2416534   5.716   5.231   1.300 -0.0024 -0.2875 -0.1571
  197HK4    H1116535   5.777   5.242   1.210  2.8060 -1.6780  1.4939
  197HK4    C2316536   5.729   5.331   1.396 -0.2819 -0.0151 -0.4050
  197HK4    H1016537   5.823   5.385   1.396  0.1862 -0.7912  1.0464
  197HK4    C3916538   5.704   5.567   1.619  0.0154 -0.0864 -0.4150
  197HK4    C4116539   5.779   5.626   1.515  0.0486  0.1150 -0.2776
  197HK4    H2116540   5.749   5.606   1.411  1.3858 -2.8197 -0.1477
  197HK4    C4216541   5.888   5.710   1.535  0.1786 -0.1529  0.1567
  197HK4    H2216542   5.936   5.764   1.452  2.4136 -0.0230  1.4960
  197HK4    C4316543   5.921   5.740   1.667  0.2550  0.0636  0.0890
  197HK4    H2316544   5.983   5.828   1.682 -0.3846  0.4059  0.7794
  197HK4    C4416545   5.855   5.683   1.775  0.2977  0.1033  0.1348
  197HK4    H2416546   5.885   5.701   1.879 -0.9863 -0.2939  0.5842
  197HK4    C4516547   5.750   5.596   1.750  0.3795  0.2191 -0.6073
  197HK4    H2516548   5.697   5.556   1.838  0.9748 -0.3586 -0.5070
  198HK4    H2816549   4.899   4.249   1.972 -1.1154 -0.8500  1.8604
  198HK4    C4816550   4.935   4.335   2.029 -0.4697  0.2022 -0.0759
  198HK4    C4716551   4.910   4.460   1.973 -0.2950  0.0835 -0.4199
  198HK4    H2716552   4.887   4.476   1.867 -1.4563  0.8910 -0.0644
  198HK4    C4616553   4.901   4.573   2.054 -0.3717 -0.2718  0.0690
  198HK4    H2616554   4.878   4.672   2.014  0.3495 -0.2972 -0.4180
  198HK4    C4016555   4.919   4.572   2.194  0.2057 -0.1349 -0.0005
  198HK4    C5016556   4.951   4.444   2.245  0.4990 -0.2451 -0.4505
  198HK4    H3016557   4.945   4.431   2.354 -0.4086  2.6634 -0.0971
  198HK4    C4916558   4.954   4.330   2.167  0.5336 -0.3940 -0.2326
  198HK4    H2916559   4.951   4.228   2.208 -0.1332  0.3172  1.4918
  198HK4     N216560   4.941   4.690   2.265 -1.1576  0.1492 -0.0319
  198HK4    C3016561   4.999   4.809   2.214 -1.1292 -0.0087 -0.3689
  198HK4    C2916562   5.091   4.834   2.113 -0.3138  0.3616  0.4548
  198HK4    H1516563   5.136   4.750   2.060 -0.1700  0.7538 -0.0446
  198HK4    C2816564   5.147   4.960   2.094  0.3639  0.0465  0.3305
  198HK4    C2716565   5.101   5.070   2.169  0.5106  0.0587  0.4040
  198HK4    H1416566   5.105   5.175   2.136 -0.2870  0.4090  1.4163
  198HK4    C3216567   5.016   5.047   2.276 -0.1770  0.2404 -0.0958
  198HK4    H1616568   4.992   5.131   2.341 -1.9370  1.8021 -2.6949
  198HK4    C3116569   4.963   4.920   2.299 -0.0635  0.1825 -0.1577
  198HK4    C3416570   4.890   4.864   2.412  0.2513  0.3242  0.1186
  198HK4    C3316571   4.870   4.724   2.381 -0.3364  0.3450  0.4178
  198HK4    C3516572   4.770   4.660   2.454 -0.3531  0.4714  0.5089
  198HK4    H1716573   4.748   4.556   2.431 -0.1054  0.2807  1.1179
  198HK4    C3616574   4.697   4.720   2.555 -0.7687  0.1269  0.4158
  198HK4    H1816575   4.615   4.672   2.612 -0.8428  1.3857  1.3922
  198HK4    C3716576   4.716   4.855   2.582  0.5990 -0.1377  0.8503
  198HK4    H1916577   4.671   4.907   2.666  2.1396  0.7498  1.1486
  198HK4    C3816578   4.814   4.924   2.512 -0.0496  0.0130  0.0742
  198HK4    H2016579   4.823   5.032   2.523 -1.6155  0.1242  0.2992
  198HK4    C1416580   5.278   4.959   2.028  0.2372 -0.1026  0.0784
  198HK4     C916581   5.383   5.048   2.053  0.0386  0.0587  0.3298
  198HK4     C816582   5.475   5.081   1.952  0.0800 -0.2877  0.2526
  198HK4    C1116583   5.469   5.019   1.828 -0.4562 -0.1962  0.2326
  198HK4     H416584   5.536   5.040   1.743 -0.2653  0.7576  0.6070
  198HK4    C1216585   5.379   4.915   1.808 -0.6976  0.0910 -0.1916
  198HK4     H516586   5.386   4.865   1.710  1.2938 -0.7706  0.3632
  198HK4    C1316587   5.281   4.892   1.904 -0.4794 -0.0131  0.0091
  198HK4     H616588   5.201   4.818   1.884 -1.7485  1.5435 -0.8080
  198HK4     C716589   5.572   5.192   1.970 -0.2562  0.1030 -0.3417
  198HK4     O216590   5.672   5.209   1.901  0.1409 -0.6065  0.0561
  198HK4     C416591   5.559   5.270   2.095  1.2361 -0.2098  0.0119
  198HK4     C316592   5.599   5.404   2.094  0.3221  0.0644 -0.1405
  198HK4     H316593   5.646   5.455   2.009  1.5222  3.0692  2.2273
  198HK4     C216594   5.598   5.478   2.211 -0.2146 -0.6341  0.3046
  198HK4     H216595   5.599   5.588   2.208  0.3213 -0.6401  0.3375
  198HK4     C116596   5.549   5.415   2.325 -0.0518 -0.2781  0.5716
  198HK4     H116597   5.547   5.478   2.415 -0.2617 -1.0167  1.0865
  198HK4     C616598   5.501   5.283   2.332 -0.2005 -0.2633 -0.0979
  198HK4     C516599   5.509   5.211   2.212  0.1093  0.1096 -0.3020
  198HK4    C1016600   5.417   5.096   2.190 -0.4511  0.4364  0.3222
  198HK4     O116601   5.402   5.020   2.286  0.1715 -0.3687 -0.2086
  198HK4    C1616602   5.471   5.232   2.467  0.3633  0.0849  0.1570
  198HK4    C1516603   5.401   5.314   2.557 -0.2281  0.0249 -0.2458
  198HK4     H716604   5.319   5.382   2.529  1.5837  2.2764 -0.2672
  198HK4    C2016605   5.425   5.303   2.694  0.1849  0.1321 -0.3079
  198HK4     H916606   5.373   5.361   2.769 -0.9773 -0.8160 -0.3512
  198HK4    C1916607   5.524   5.218   2.742 -0.0656  0.1674  0.2725
  198HK4    C1816608   5.588   5.125   2.651 -0.5678 -0.2084  0.2974
  198HK4    C1716609   5.561   5.138   2.516  0.3048  0.0203  0.1397
  198HK4     H816610   5.592   5.056   2.450 -1.1196  0.2323 -0.8186
  198HK4     N116611   5.695   5.056   2.712 -0.0115  0.2478 -0.1599
  198HK4    C2116612   5.708   5.116   2.839 -0.0848 -0.2622  0.0891
  198HK4    C2216613   5.598   5.207   2.866 -0.0589 -0.2742  0.2285
  198HK4    C2616614   5.605   5.297   2.972  0.1677 -0.1508  0.1095
  198HK4    H1316615   5.526   5.369   2.991  2.4025  1.8852  2.0331
  198HK4    C2516616   5.721   5.300   3.049  0.3311 -0.3548 -0.1258
  198HK4    H1216617   5.720   5.364   3.138  0.2932  1.5123 -1.4353
  198HK4    C2416618   5.828   5.217   3.019  0.5235 -0.1442 -0.0177
  198HK4    H1116619   5.921   5.221   3.079  0.8660  0.3684 -0.5726
  198HK4    C2316620   5.822   5.122   2.918  0.1904  0.2300 -0.3497
  198HK4    H1016621   5.914   5.066   2.900  0.4476  0.7200 -0.6033
  198HK4    C3916622   5.733   4.923   2.687 -0.2494  0.1541 -0.0254
  198HK4    C4116623   5.851   4.858   2.728 -0.3917  0.0325  0.1872
  198HK4    H2116624   5.938   4.899   2.675  1.7011 -0.7329  2.9007
  198HK4    C4216625   5.846   4.723   2.760  0.1746  0.0183  0.2011
  198HK4    H2216626   5.942   4.669   2.771  1.2019  1.8326  0.2298
  198HK4    C4316627   5.734   4.642   2.748  0.1930 -0.0421  0.4331
  198HK4    H2316628   5.723   4.542   2.791 -1.0267 -0.8375 -1.6428
  198HK4    C4416629   5.624   4.700   2.687  0.4534 -0.5066 -0.4864
  198HK4    H2416630   5.530   4.644   2.691  1.4580 -2.0734  2.7883
  198HK4    C4516631   5.625   4.837   2.661 -0.0541 -0.2900  0.6291
  198HK4    H2516632   5.539   4.872   2.602 -0.5650  1.5395  2.4180
  199HK4    H2816633   7.625   4.576   5.971  1.5672 -0.1790 -2.8256
  199HK4    C4816634   7.714   4.618   6.017  0.0584 -0.2555  0.2793
  199HK4    C4716635   7.761   4.551   6.130  1.0973 -0.0963 -0.0552
  199HK4    H2716636   7.715   4.456   6.159  0.5976  0.1676  0.0025
  199HK4    C4616637   7.878   4.598   6.189  0.9729  0.0507  0.0718
  199HK4    H2616638   7.917   4.551   6.280  0.5796 -4.3287 -1.9175
  199HK4    C4016639   7.942   4.713   6.139  0.4937  0.2576 -0.0720
  199HK4    C5016640   7.889   4.782   6.028 -0.2604  0.0902  0.1820
  199HK4    H3016641   7.956   4.863   5.996 -2.4818  2.6839  1.9520
  199HK4    C4916642   7.772   4.735   5.970 -0.2690 -0.0728  0.3325
  199HK4    H2916643   7.734   4.783   5.878  0.7580 -2.5903 -1.4529
  199HK4     N216644   8.052   4.767   6.208  0.4951  0.3101 -0.1159
  199HK4    C3016645   8.064   4.755   6.348  0.0413  0.3162 -0.0748
  199HK4    C2916646   7.971   4.767   6.450 -0.4095 -0.6909 -0.3685
  199HK4    H1516647   7.864   4.776   6.433 -0.4195 -0.6942 -0.3055
  199HK4    C2816648   8.005   4.774   6.584 -0.2056  0.2625 -0.4694
  199HK4    C2716649   8.141   4.749   6.612 -0.3645 -0.2783 -0.1659
  199HK4    H1416650   8.165   4.699   6.707  1.7204  0.0666 -0.4868
  199HK4    C3216651   8.240   4.746   6.514 -0.0778 -0.1031  0.1171
  199HK4    H1616652   8.342   4.773   6.540 -0.0653 -0.3891  0.3686
  199HK4    C3116653   8.206   4.760   6.380  0.0607 -0.7087  0.0174
  199HK4    C3416654   8.271   4.820   6.266  0.2583 -0.2185  0.3866
  199HK4    C3316655   8.178   4.804   6.156  0.5764  0.2589  0.0426
  199HK4    C3516656   8.214   4.806   6.022  0.0303  0.0963 -0.1084
  199HK4    H1716657   8.148   4.790   5.937 -1.1534 -4.6949  1.5264
  199HK4    C3616658   8.350   4.819   5.999  0.2150 -0.8606  0.3972
  199HK4    H1816659   8.375   4.838   5.893  1.6218 -1.7650  0.5616
  199HK4    C3716660   8.449   4.835   6.096  0.6026  0.0473 -0.1442
  199HK4    H1916661   8.551   4.807   6.072  0.2514 -1.1999 -0.1741
  199HK4    C3816662   8.403   4.841   6.227 -0.0354  0.2398 -0.3737
  199HK4    H2016663   8.487   4.837   6.296 -1.4951 -1.5678  1.3275
  199HK4    C1416664   7.916   4.845   6.678  0.1690 -0.0610  0.1339
  199HK4     C916665   7.956   4.925   6.786  0.1023  0.1818 -0.0234
  199HK4     C816666   7.878   4.943   6.901 -0.0904 -0.4378 -0.0518
  199HK4    C1116667   7.746   4.900   6.899 -0.1258 -0.3457  0.1652
  199HK4     H416668   7.669   4.945   6.963  0.0197  1.9296 -1.2256
  199HK4    C1216669   7.701   4.824   6.792  0.6197 -0.3527 -0.1522
  199HK4     H516670   7.596   4.793   6.782  0.5619  0.0795 -0.8844
  199HK4    C1316671   7.785   4.793   6.686  0.1936 -0.2317 -0.5306
  199HK4     H616672   7.757   4.711   6.619 -0.5359 -0.2090 -0.2504
  199HK4     C716673   7.937   5.003   7.023 -0.2072  0.0002 -0.2089
  199HK4     O216674   7.864   5.057   7.107  0.2046 -0.0392  0.1766
  199HK4     C416675   8.084   5.013   7.030 -0.2557  0.4329  0.2364
  199HK4     C316676   8.145   5.022   7.155  0.3680 -0.1241 -0.0260
  199HK4     H316677   8.084   5.012   7.246 -1.2409 -3.7059 -1.4089
  199HK4     C216678   8.283   5.024   7.173  0.3565 -0.4380  0.1205
  199HK4     H216679   8.322   4.982   7.266  0.9134 -3.0215 -1.2343
  199HK4     C116680   8.356   5.028   7.055  0.3340 -0.1405  0.1166
  199HK4     H116681   8.465   5.039   7.068  0.4733 -1.4959  0.2314
  199HK4     C616682   8.299   5.036   6.926  0.2167  0.4786  0.2083
  199HK4     C516683   8.160   5.024   6.912  0.2569 -0.3040  0.4976
  199HK4    C1016684   8.091   4.988   6.785 -0.0167  0.4390  0.4330
  199HK4     O116685   8.117   5.056   6.686 -0.0117 -0.2024 -0.0125
  199HK4    C1616686   8.394   5.008   6.818 -0.4976 -0.0328 -0.2864
  199HK4    C1516687   8.491   4.908   6.836 -0.5658 -0.1571 -0.6012
  199HK4     H716688   8.492   4.853   6.931  0.5172  1.4451  0.3410
  199HK4    C2016689   8.586   4.879   6.738  0.1122 -0.2579  0.0790
  199HK4     H916690   8.676   4.825   6.766  0.1471  0.4663  1.4520
  199HK4    C1916691   8.588   4.956   6.622  0.4739 -0.1294  0.1705
  199HK4    C1816692   8.500   5.070   6.606  0.0876 -0.3987  0.3866
  199HK4    C1716693   8.410   5.093   6.709 -0.9002 -0.2341 -0.5060
  199HK4     H816694   8.340   5.176   6.695 -0.1648  0.1795 -1.7743
  199HK4     N116695   8.527   5.144   6.490 -0.3649 -0.3162  0.3325
  199HK4    C2116696   8.630   5.076   6.422 -0.7352 -0.2729 -0.2883
  199HK4    C2216697   8.670   4.962   6.503 -0.1920 -0.0803 -0.2834
  199HK4    C2616698   8.756   4.866   6.451 -0.5160 -0.1251 -0.7480
  199HK4    H1316699   8.777   4.780   6.515  1.0027  0.3140 -0.6192
  199HK4    C2516700   8.798   4.878   6.319 -0.6426 -0.1815 -0.7925
  199HK4    H1216701   8.857   4.804   6.265  0.9969  0.2217  0.4381
  199HK4    C2416702   8.760   4.987   6.242 -0.0129 -0.0323 -0.8961
  199HK4    H1116703   8.808   5.018   6.148 -1.5598  1.3664 -1.2569
  199HK4    C2316704   8.680   5.089   6.293  0.2716 -0.3050  0.0951
  199HK4    H1016705   8.660   5.179   6.235 -0.2362 -0.8324 -0.5495
  199HK4    C3916706   8.432   5.220   6.420  0.0649  0.1327  0.2331
  199HK4    C4116707   8.474   5.330   6.342  0.1297 -0.2497 -0.2717
  199HK4    H2116708   8.580   5.356   6.334  0.1351 -0.5123 -1.1380
  199HK4    C4216709   8.382   5.385   6.253 -0.1400 -0.2777 -0.0122
  199HK4    H2216710   8.412   5.473   6.195 -1.3252  0.2191  0.1128
  199HK4    C4316711   8.251   5.342   6.239 -0.5619  0.7907  0.5754
  199HK4    H2316712   8.184   5.384   6.165 -0.5219 -4.0596 -2.4761
  199HK4    C4416713   8.212   5.235   6.320 -0.5846  0.5466  0.2433
  199HK4    H2416714   8.105   5.211   6.324 -0.3012 -0.7131  0.3280
  199HK4    C4516715   8.301   5.171   6.405 -0.1508  0.7828 -0.0277
  199HK4    H2516716   8.268   5.078   6.453  0.6302  0.5177 -0.0043
  200HK4    H2816717  11.047   4.508   3.671 -0.0835  0.7922 -0.3825
  200HK4    C4816718  10.979   4.536   3.751  0.3803  0.3019  0.1886
  200HK4    C4716719  10.869   4.608   3.706  0.1485  0.0237  0.3067
  200HK4    H2716720  10.860   4.640   3.601  0.9535  1.7478  0.7384
  200HK4    C4616721  10.769   4.637   3.798 -0.1083  0.4432 -0.1022
  200HK4    H2616722  10.674   4.674   3.756 -0.1750  1.8356  1.2133
  200HK4    C4016723  10.775   4.587   3.930 -0.6348 -0.0331 -0.2548
  200HK4    C5016724  10.888   4.513   3.968 -0.7382 -0.2178 -0.3054
  200HK4    H3016725  10.914   4.488   4.072  1.1926  3.2364  0.1231
  200HK4    C4916726  10.995   4.491   3.882 -0.1224  0.4087  0.2873
  200HK4    H2916727  11.077   4.425   3.911 -1.0958 -1.9032 -1.9182
  200HK4     N216728  10.665   4.610   4.014 -0.0997  0.1559  0.3969
  200HK4    C3016729  10.636   4.536   4.130 -0.1300 -0.2100  0.1528
  200HK4    C2916730  10.675   4.405   4.158 -0.0304 -0.2672 -0.2393
  200HK4    H1516731  10.699   4.344   4.072 -0.2123 -2.8416  1.4862
  200HK4    C2816732  10.640   4.347   4.280 -0.1498 -0.3646 -0.3220
  200HK4    C2716733  10.563   4.423   4.370  0.2916  0.2837 -0.4889
  200HK4    H1416734  10.562   4.375   4.469  1.2306  1.4515  0.1073
  200HK4    C3216735  10.519   4.550   4.337  0.2463  0.3506 -0.1800
  200HK4    H1616736  10.454   4.607   4.403  0.2598  1.4022 -1.0424
  200HK4    C3116737  10.550   4.614   4.217  0.2544  0.4998 -0.0989
  200HK4    C3416738  10.519   4.742   4.156 -0.2487  0.3689 -0.1229
  200HK4    C3316739  10.598   4.733   4.035  0.0425  0.2894  0.0721
  200HK4    C3516740  10.594   4.846   3.954  0.1603 -0.2261 -0.6594
  200HK4    H1716741  10.662   4.861   3.870 -0.0936 -0.9187 -0.9961
  200HK4    C3616742  10.507   4.949   3.988  0.2028 -0.4540  0.1356
  200HK4    H1816743  10.501   5.027   3.911 -0.2273 -1.5785 -0.9859
  200HK4    C3716744  10.423   4.956   4.099  0.0279  0.1395 -0.0326
  200HK4    H1916745  10.345   5.027   4.126  0.6199  1.3935 -1.5928
  200HK4    C3816746  10.433   4.847   4.185  0.3225  0.6492  0.5829
  200HK4    H2016747  10.389   4.852   4.284 -2.9337 -1.9080 -0.5932
  200HK4    C1416748  10.647   4.201   4.295  0.0246 -0.3201  0.0267
  200HK4     C916749  10.554   4.124   4.366 -0.0899  0.5417  0.8160
  200HK4     C816750  10.593   4.006   4.433 -0.0337  0.3908  0.5166
  200HK4    C1116751  10.723   3.962   4.411 -0.0970  0.4355  0.0431
  200HK4     H416752  10.773   3.891   4.477  2.3782  1.0014 -1.1503
  200HK4    C1216753  10.810   4.036   4.331  0.0331  0.2040 -0.0270
  200HK4     H516754  10.916   4.006   4.332 -0.0548 -0.2049 -1.6230
  200HK4    C1316755  10.776   4.152   4.263  0.4191  0.5180  0.3168
  200HK4     H616756  10.833   4.197   4.180  0.8642 -2.5190 -1.0821
  200HK4     C716757  10.498   3.929   4.516  0.1860  0.0052  0.4043
  200HK4     O216758  10.517   3.807   4.523 -0.3982 -0.1074 -0.0024
  200HK4     C416759  10.363   3.987   4.528  0.2560  0.2005  0.2582
  200HK4     C316760  10.282   3.931   4.627  0.1696  0.6782  0.4601
  200HK4     H316761  10.311   3.845   4.689 -1.9058 -1.5480 -1.5406
  200HK4     C216762  10.156   3.988   4.645 -0.1108  0.2672 -0.2015
  200HK4     H216763  10.083   3.947   4.716 -1.0577  0.8455 -0.8282
  200HK4     C116764  10.109   4.100   4.577  0.4921  0.8170  0.2874
  200HK4     H116765  10.016   4.152   4.604 -1.5017 -3.5421  2.4151
  200HK4     C616766  10.197   4.158   4.484 -0.0928 -0.0692 -0.8364
  200HK4     C516767  10.319   4.097   4.452  0.4721  0.3900  0.4091
  200HK4    C1016768  10.410   4.160   4.353 -0.0232  0.5526  0.0562
  200HK4     O116769  10.371   4.182   4.238 -0.5282  0.1513  0.1538
  200HK4    C1616770  10.174   4.303   4.471  0.2532  0.0598 -0.0644
  200HK4    C1516771  10.173   4.386   4.585  0.3739  0.2402 -0.1953
  200HK4     H716772  10.170   4.347   4.687  2.7474 -2.0074 -0.9419
  200HK4    C2016773  10.182   4.525   4.576  0.1726  0.2473 -0.2972
  200HK4     H916774  10.183   4.590   4.664 -0.2803  1.1089 -0.9279
  200HK4    C1916775  10.183   4.585   4.451  0.0888 -0.1427 -0.4877
  200HK4    C1816776  10.164   4.501   4.335 -0.3654 -0.5624 -0.1098
  200HK4    C1716777  10.162   4.363   4.346 -0.9811 -0.5683 -0.2590
  200HK4     H816778  10.143   4.300   4.259 -0.7766 -2.6577  1.1485
  200HK4     N116779  10.121   4.577   4.224  0.4017  0.1807  0.1007
  200HK4    C2116780  10.115   4.709   4.275 -0.5796  0.0080  0.4450
  200HK4    C2216781  10.171   4.723   4.408 -0.0971  0.0741  0.2343
  200HK4    C2616782  10.184   4.844   4.476 -0.6831 -0.0227  0.5155
  200HK4    H1316783  10.227   4.838   4.576 -2.2362  0.2121  1.2074
  200HK4    C2516784  10.158   4.960   4.406 -0.3013 -0.3019 -0.0960
  200HK4    H1216785  10.190   5.058   4.443 -0.5561 -0.3827  0.3363
  200HK4    C2416786  10.114   4.951   4.274 -0.3405 -0.1197 -0.0952
  200HK4    H1116787  10.100   5.046   4.220 -0.9466 -0.6053 -0.7906
  200HK4    C2316788  10.091   4.829   4.210  0.2598 -0.1726 -0.2148
  200HK4    H1016789  10.083   4.834   4.102  1.3567  3.2427 -0.2165
  200HK4    C3916790  10.147   4.554   4.088  0.4948  0.6903  0.0309
  200HK4    C4116791  10.257   4.474   4.051 -0.0627  0.0784 -0.3100
  200HK4    H2116792  10.328   4.432   4.123 -0.2543  1.5244  0.7416
  200HK4    C4216793  10.270   4.435   3.918  0.2745 -0.2869 -0.1704
  200HK4    H2216794  10.357   4.374   3.891 -0.5480 -1.4986 -0.1680
  200HK4    C4316795  10.187   4.477   3.815 -0.2740 -0.4280  0.2056
  200HK4    H2316796  10.221   4.461   3.712  0.4426 -2.2586  0.7077
  200HK4    C4416797  10.079   4.556   3.854  0.3133  0.3999  0.1756
  200HK4    H2416798  10.029   4.614   3.775  0.0191  1.2237  0.9626
  200HK4    C4516799  10.059   4.595   3.986 -0.0669 -0.0025  0.2375
  200HK4    H2516800   9.977   4.658   4.023 -1.8505 -2.2797  0.2372
  201HK4    H2816801   8.243   6.469   5.452  0.8222  1.2224 -1.4676
  201HK4    C4816802   8.280   6.386   5.391 -0.4461 -0.3924 -0.1089
  201HK4    C4716803   8.383   6.306   5.439 -0.1398  0.0532 -0.0175
  201HK4    H2716804   8.432   6.333   5.533 -0.7407  1.5790 -0.1355
  201HK4    C4616805   8.428   6.202   5.359 -0.4786 -0.0985 -0.0128
  201HK4    H2616806   8.511   6.141   5.400  1.3573  2.1309 -0.3214
  201HK4    C4016807   8.371   6.165   5.235 -0.7410 -0.4145  0.2013
  201HK4    C5016808   8.270   6.253   5.191  0.0550  0.1394 -0.5476
  201HK4    H3016809   8.222   6.234   5.094 -0.0506 -2.2206 -0.0654
  201HK4    C4916810   8.230   6.365   5.263  0.0189  0.0043 -0.3582
  201HK4    H2916811   8.174   6.443   5.209  0.8209  0.6915 -0.2091
  201HK4     N216812   8.429   6.076   5.144  0.0996  0.1437  0.1879
  201HK4    C3016813   8.565   6.038   5.137  0.0655  0.0322  0.1196
  201HK4    C2916814   8.680   6.092   5.192  0.4510 -0.4936 -0.1646
  201HK4    H1516815   8.676   6.187   5.246  3.5280 -0.9101  0.8650
  201HK4    C2816816   8.806   6.036   5.181  0.4171 -0.6807  0.4485
  201HK4    C2716817   8.812   5.915   5.108  0.6484 -0.2028 -0.3384
  201HK4    H1416818   8.911   5.869   5.092 -0.5537 -2.4324 -1.6747
  201HK4    C3216819   8.703   5.854   5.046  0.5137  0.1455 -0.4431
  201HK4    H1616820   8.716   5.764   4.987 -1.7242  0.5591 -1.6225
  201HK4    C3116821   8.579   5.917   5.058  0.6276  0.3351 -0.2486
  201HK4    C3416822   8.448   5.885   5.005  0.2411  0.4468  0.6216
  201HK4    C3316823   8.360   5.981   5.067 -0.2462 -0.1560  0.8668
  201HK4    C3516824   8.225   5.947   5.067 -0.1843 -0.4378 -0.1259
  201HK4    H1716825   8.148   6.015   5.104 -0.8214 -0.7723 -0.8269
  201HK4    C3616826   8.181   5.825   5.018  0.2270 -0.7685  0.3215
  201HK4    H1816827   8.072   5.815   5.031  0.3787 -0.4710  1.9153
  201HK4    C3716828   8.269   5.739   4.952  0.6422 -0.4151  0.4137
  201HK4    H1916829   8.229   5.643   4.921 -0.2404 -0.2728  1.0884
  201HK4    C3816830   8.404   5.769   4.941  0.3003  0.9291 -0.2971
  201HK4    H2016831   8.472   5.690   4.912 -0.4045 -0.1820  1.0254
  201HK4    C1416832   8.928   6.117   5.192  0.3273 -0.5181  0.2613
  201HK4     C916833   9.043   6.120   5.112  0.3276 -0.4757  0.2672
  201HK4     C816834   9.169   6.154   5.166  0.4019 -1.0294  0.4451
  201HK4    C1116835   9.177   6.200   5.297 -0.1245  0.5128 -0.0535
  201HK4     H416836   9.275   6.236   5.332 -0.0494  3.4553 -3.1265
  201HK4    C1216837   9.063   6.207   5.376  0.1294 -0.0455  0.3662
  201HK4     H516838   9.072   6.214   5.486  3.6078 -1.2476  0.2245
  201HK4    C1316839   8.940   6.171   5.321  0.2202  0.2869 -0.0558
  201HK4     H616840   8.852   6.174   5.387  1.2344  0.5533  1.3124
  201HK4     C716841   9.294   6.139   5.088  0.4015 -0.7960  0.4027
  201HK4     O216842   9.393   6.199   5.130  0.1261  0.4121 -0.6173
  201HK4     C416843   9.286   6.072   4.956 -0.1538  0.3418 -0.1583
  201HK4     C316844   9.403   6.040   4.888 -0.2959 -0.2583 -0.1211
  201HK4     H316845   9.500   6.060   4.936 -0.2126  0.3744 -0.5573
  201HK4     C216846   9.407   5.969   4.769  0.1963  0.2631 -0.4123
  201HK4     H216847   9.502   5.955   4.714  0.7193  2.1235 -0.0341
  201HK4     C116848   9.284   5.923   4.726  0.1149  0.0719  0.0170
  201HK4     H116849   9.267   5.859   4.637  1.6485  1.1383 -1.0670
  201HK4     C616850   9.162   5.951   4.790 -0.0649  0.0756 -0.3293
  201HK4     C516851   9.161   6.034   4.903 -0.0266 -0.8226  0.3429
  201HK4    C1016852   9.034   6.076   4.970  0.1507  0.1449  0.0823
  201HK4     O116853   8.944   6.119   4.898  0.0607  0.2054  0.2325
  201HK4    C1616854   9.062   5.845   4.770  0.3985 -0.6069  0.8726
  201HK4    C1516855   9.081   5.706   4.781  0.0315 -0.7804 -0.5632
  201HK4     H716856   9.177   5.667   4.818 -0.9876 -1.6605  1.2518
  201HK4    C2016857   8.989   5.610   4.740 -0.0255 -0.9045 -0.1443
  201HK4     H916858   8.985   5.507   4.775 -2.1180 -0.8392 -0.1021
  201HK4    C1916859   8.867   5.651   4.688  0.0095 -0.1786  0.3426
  201HK4    C1816860   8.841   5.792   4.669  0.4358 -0.0977  0.3511
  201HK4    C1716861   8.941   5.879   4.710  0.5436 -0.3889  0.7080
  201HK4     H816862   8.931   5.983   4.679  1.9455 -0.6785 -0.8323
  201HK4     N116863   8.710   5.810   4.620  0.6351  0.0073 -0.1441
  201HK4    C2116864   8.652   5.682   4.609 -0.2818  0.3877  0.2303
  201HK4    C2216865   8.747   5.579   4.649 -0.3721  0.3942  0.4561
  201HK4    C2616866   8.720   5.444   4.635  0.3253  0.3252 -0.2477
  201HK4    H1316867   8.794   5.366   4.654  0.2207  0.2896  0.0024
  201HK4    C2516868   8.594   5.401   4.594  0.3086  0.3857 -0.2673
  201HK4    H1216869   8.556   5.303   4.620  1.8113 -0.4007 -1.0052
  201HK4    C2416870   8.504   5.500   4.553 -0.1239  0.1915  0.2097
  201HK4    H1116871   8.402   5.477   4.521 -0.0948  1.9754 -1.2112
  201HK4    C2316872   8.532   5.636   4.555 -0.2257  0.2131  0.2515
  201HK4    H1016873   8.458   5.714   4.534 -0.4030 -1.1056 -4.4275
  201HK4    C3916874   8.641   5.932   4.625 -0.0142 -0.3843  0.5893
  201HK4    C4116875   8.532   5.955   4.539 -0.0612 -0.4172  0.6416
  201HK4    H2116876   8.548   5.937   4.431 -2.0257 -0.9808  0.4219
  201HK4    C4216877   8.426   6.043   4.561  0.2629  0.2018 -0.1857
  201HK4    H2216878   8.336   6.037   4.499 -0.0109  0.7926  0.1501
  201HK4    C4316879   8.427   6.125   4.673 -0.1241 -0.3536  0.2320
  201HK4    H2316880   8.347   6.195   4.698 -2.0774 -2.2691 -0.5082
  201HK4    C4416881   8.536   6.104   4.756  0.1424  0.3106  0.0548
  201HK4    H2416882   8.529   6.162   4.850 -0.5443 -0.8924  0.7523
  201HK4    C4516883   8.640   6.013   4.740 -0.1208 -0.0399  0.3455
  201HK4    H2516884   8.735   6.023   4.795 -0.3124  0.0506  0.6637
  202HK4    H2816885   8.711   1.328   5.077 -0.7424  0.3039  1.4001
  202HK4    C4816886   8.810   1.358   5.113 -0.3621 -0.2701  0.8543
  202HK4    C4716887   8.906   1.258   5.116  0.3567  0.3815 -0.1203
  202HK4    H2716888   8.908   1.177   5.043  1.0879  2.0445 -2.0012
  202HK4    C4616889   9.014   1.272   5.203  0.0920 -0.2578  0.3172
  202HK4    H2616890   9.086   1.189   5.204 -1.2357 -1.4158  0.2711
  202HK4    C4016891   9.028   1.386   5.285 -0.4420 -0.3008  0.4690
  202HK4    C5016892   8.930   1.487   5.274 -0.3881 -0.3014 -0.0331
  202HK4    H3016893   8.938   1.582   5.327 -1.3031  0.4467 -1.1980
  202HK4    C4916894   8.819   1.473   5.190 -0.4793  0.3289 -0.0152
  202HK4    H2916895   8.735   1.543   5.201 -1.3812 -0.5693 -1.0951
  202HK4     N216896   9.108   1.384   5.399 -0.0936  0.1041  0.2326
  202HK4    C3016897   9.126   1.274   5.485  0.3818 -0.2027 -0.2538
  202HK4    C2916898   9.072   1.146   5.484 -0.1250  0.0050  0.1208
  202HK4    H1516899   8.998   1.129   5.406  0.3940  0.6843 -0.5222
  202HK4    C2816900   9.125   1.043   5.560 -0.2702 -0.0447  0.1533
  202HK4    C2716901   9.224   1.079   5.654 -0.3703 -0.0059  0.2438
  202HK4    H1416902   9.270   0.999   5.714  0.3111 -1.3873 -2.0541
  202HK4    C3216903   9.275   1.207   5.666 -0.4769  0.0521  0.0860
  202HK4    H1616904   9.337   1.234   5.751  0.6551 -1.1423 -0.3506
  202HK4    C3116905   9.232   1.307   5.579 -0.3345  0.3589  0.3629
  202HK4    C3416906   9.260   1.448   5.559  0.2717  0.2234  0.2665
  202HK4    C3316907   9.200   1.486   5.433 -0.2232  0.1410  0.4760
  202HK4    C3516908   9.238   1.604   5.369 -0.3132 -0.2271 -0.2626
  202HK4    H1716909   9.228   1.611   5.261  1.1006 -1.3008 -0.4911
  202HK4    C3616910   9.324   1.689   5.437 -0.2315 -0.7052  0.2446
  202HK4    H1816911   9.364   1.780   5.389 -1.9788  0.7597  1.5272
  202HK4    C3716912   9.380   1.655   5.559  0.4364 -0.3320  0.0474
  202HK4    H1916913   9.437   1.740   5.598 -0.0482 -0.2627  0.6165
  202HK4    C3816914   9.350   1.534   5.621  0.1808  0.0401  0.6529
  202HK4    H2016915   9.385   1.514   5.722 -0.9043 -0.8206  0.8757
  202HK4    C1416916   9.068   0.907   5.552  0.1395 -0.1701 -0.6078
  202HK4     C916917   9.072   0.826   5.665  0.0639  0.8220  0.1126
  202HK4     C816918   9.107   0.690   5.655  0.3180  0.8607  0.4497
  202HK4    C1116919   9.109   0.634   5.528 -0.4028  0.4319  0.6225
  202HK4     H416920   9.105   0.525   5.510  0.1120  0.3269  1.1348
  202HK4    C1216921   9.087   0.711   5.414  0.3464 -0.3269 -0.0396
  202HK4     H516922   9.095   0.667   5.313 -2.6986 -2.8536  0.7217
  202HK4    C1316923   9.065   0.848   5.424  0.2643 -0.3011 -0.5474
  202HK4     H616924   9.055   0.923   5.344 -2.6023  0.7399  0.7149
  202HK4     C716925   9.149   0.616   5.776  0.1970  0.4190  0.2247
  202HK4     O216926   9.195   0.502   5.769  0.0367  0.4053 -0.6394
  202HK4     C416927   9.134   0.681   5.909 -0.0296 -0.2544  0.5318
  202HK4     C316928   9.180   0.603   6.014  0.4184 -0.2932  0.3075
  202HK4     H316929   9.181   0.493   6.007  3.6545 -0.3233  0.1651
  202HK4     C216930   9.211   0.668   6.133  0.0643  0.0840  0.1956
  202HK4     H216931   9.253   0.618   6.222  2.9906  0.1992 -1.0710
  202HK4     C116932   9.201   0.806   6.141 -0.4495  0.0667 -0.1065
  202HK4     H116933   9.234   0.853   6.235  0.8479  0.4574 -0.7441
  202HK4     C616934   9.144   0.886   6.040 -0.5681  0.0547 -0.0479
  202HK4     C516935   9.107   0.818   5.924 -0.6869 -0.3506  0.2242
  202HK4    C1016936   9.049   0.882   5.802  0.5325  0.7596  0.2187
  202HK4     O116937   8.949   0.951   5.815 -0.6047 -0.9339  0.6569
  202HK4    C1616938   9.182   1.028   6.040  0.3190 -0.1798 -0.2051
  202HK4    C1516939   9.303   1.079   6.093 -0.0529  0.5256 -0.0137
  202HK4     H716940   9.380   1.009   6.129 -0.7489  0.4186  1.2746
  202HK4    C2016941   9.324   1.211   6.130  0.1528  0.3909  0.3465
  202HK4     H916942   9.419   1.238   6.177  0.6057 -0.3773 -0.1120
  202HK4    C1916943   9.227   1.309   6.116 -0.5566 -0.3751 -0.1550
  202HK4    C1816944   9.103   1.264   6.058 -0.3730 -0.4562 -0.4886
  202HK4    C1716945   9.088   1.129   6.025 -0.3325 -0.6879  0.4276
  202HK4     H816946   8.985   1.104   6.000 -0.2286 -0.1481 -0.5833
  202HK4     N116947   9.013   1.370   6.034  0.6156  0.4566 -0.1643
  202HK4    C2116948   9.078   1.483   6.088  0.4457  0.4391  0.0805
  202HK4    C2216949   9.212   1.452   6.135  0.3808 -0.2663 -0.1913
  202HK4    C2616950   9.288   1.549   6.198 -0.3160  0.0348  0.1853
  202HK4    H1316951   9.384   1.520   6.241 -1.3529 -4.5547 -0.3349
  202HK4    C2516952   9.238   1.678   6.213 -0.0654  0.1813 -0.2393
  202HK4    H1216953   9.298   1.753   6.265  0.4645 -1.1266  1.0453
  202HK4    C2416954   9.110   1.708   6.169 -0.1030  0.4777  0.0666
  202HK4    H1116955   9.075   1.813   6.176  0.6070  0.9049 -2.3754
  202HK4    C2316956   9.033   1.614   6.101  0.1637  0.3593 -0.0685
  202HK4    H1016957   8.936   1.639   6.060  1.1181  2.0868 -1.3341
  202HK4    C3916958   8.912   1.363   5.937  0.2947 -0.3019  0.2223
  202HK4    C4116959   8.797   1.439   5.964  0.1098 -0.4707 -0.0851
  202HK4    H2116960   8.758   1.434   6.067  0.0150  0.5606 -0.0655
  202HK4    C4216961   8.719   1.504   5.869  0.0700  0.0147  0.2816
  202HK4    H2216962   8.627   1.555   5.901  0.4470  1.5301 -0.9933
  202HK4    C4316963   8.764   1.495   5.738 -0.5909 -0.3088  0.0778
  202HK4    H2316964   8.711   1.549   5.660 -2.2320 -1.5845  0.2759
  202HK4    C4416965   8.881   1.427   5.707 -0.3800  0.0580  0.0642
  202HK4    H2416966   8.927   1.438   5.608 -0.4549 -1.5569 -0.1703
  202HK4    C4516967   8.955   1.358   5.803  0.5307  1.2570  0.2320
  202HK4    H2516968   9.045   1.300   5.776 -0.6553 -1.2853  1.5818
  203HK4    H2816969   7.446   3.903   3.772  1.6584 -1.3980  0.2839
  203HK4    C4816970   7.526   3.977   3.766  0.2378  0.1233 -0.4677
  203HK4    C4716971   7.581   4.012   3.644 -0.0966  0.2583 -0.5795
  203HK4    H2716972   7.547   3.944   3.564 -0.7063 -1.2253  0.9257
  203HK4    C4616973   7.676   4.113   3.635  0.5049 -0.2519 -0.0267
  203HK4    H2616974   7.697   4.154   3.535  0.4427  0.2531  0.1640
  203HK4    C4016975   7.722   4.181   3.750 -0.2146  0.3525 -0.0952
  203HK4    C5016976   7.658   4.143   3.869  0.1949  0.3103  0.1103
  203HK4    H3016977   7.676   4.193   3.966  0.0580 -2.8295  1.8209
  203HK4    C4916978   7.563   4.042   3.883  0.1211  0.2878 -0.5243
  203HK4    H2916979   7.550   3.993   3.981 -1.8717 -1.7260 -1.7637
  203HK4     N216980   7.824   4.276   3.745 -0.0450  0.1738 -0.0764
  203HK4    C3016981   7.918   4.281   3.640  0.3070  0.5294  0.2519
  203HK4    C2916982   7.999   4.179   3.593  0.4904  0.5510  0.5236
  203HK4    H1516983   8.003   4.089   3.655 -4.0824  0.2037  0.4690
  203HK4    C2816984   8.090   4.195   3.490  0.4460  0.0643  0.4073
  203HK4    C2716985   8.091   4.327   3.441  0.0904 -0.0585  0.0589
  203HK4    H1416986   8.155   4.338   3.353 -0.0960 -0.2863 -0.1048
  203HK4    C3216987   8.020   4.436   3.489 -0.5263 -0.3179 -0.2676
  203HK4    H1616988   8.003   4.527   3.430 -0.4315  1.1778  1.9348
  203HK4    C3116989   7.940   4.420   3.602 -0.0924  0.5734  0.1825
  203HK4    C3416990   7.867   4.499   3.699 -0.1361  0.4155  0.2783
  203HK4    C3316991   7.799   4.408   3.788 -0.4158  0.1464 -0.2079
  203HK4    C3516992   7.761   4.453   3.915  0.6660  0.5957 -0.0360
  203HK4    H1716993   7.697   4.387   3.974  0.4842 -0.2029 -1.0946
  203HK4    C3616994   7.789   4.583   3.953  0.2152  0.6138  0.2461
  203HK4    H1816995   7.737   4.625   4.040 -0.4658 -0.0489  0.1626
  203HK4    C3716996   7.859   4.668   3.868 -0.6689  0.3702 -0.7328
  203HK4    H1916997   7.903   4.753   3.920 -1.5860 -0.0202  0.7138
  203HK4    C3816998   7.896   4.629   3.739  0.5333  0.4968 -0.4378
  203HK4    H2016999   7.914   4.710   3.669  2.2774  2.4577  2.1709
  203HK4    C1417000   8.183   4.089   3.447  0.0236  0.0172 -0.4031
  203HK4     C917001   8.309   4.123   3.395  0.5357 -0.4171  0.5377
  203HK4     C817002   8.362   4.031   3.302  0.3550 -0.0373  0.0607
  203HK4    C1117003   8.300   3.912   3.267 -0.2171  0.1716  0.3602
  203HK4     H417004   8.348   3.846   3.193 -0.6851  0.1344  0.0878
  203HK4    C1217005   8.180   3.878   3.329 -0.6789 -0.0610 -0.6423
  203HK4     H517006   8.134   3.783   3.299  0.5692 -0.4071 -1.4955
  203HK4    C1317007   8.124   3.963   3.424  0.0956 -0.0571 -0.1837
  203HK4     H617008   8.042   3.937   3.492  2.3411 -0.5200  2.4342
  203HK4     C717009   8.494   4.061   3.243  0.3955  0.2477  0.2904
  203HK4     O217010   8.548   3.992   3.157 -0.6918 -0.2508 -0.0006
  203HK4     C417011   8.568   4.182   3.285  0.0869  0.5009  0.1122
  203HK4     C317012   8.677   4.225   3.211 -0.2381  0.2957 -0.4881
  203HK4     H317013   8.691   4.183   3.111 -1.6735 -1.0133 -0.1526
  203HK4     C217014   8.778   4.299   3.272 -0.2586  0.0879 -0.2001
  203HK4     H217015   8.875   4.315   3.223 -0.1558  0.9580  0.2773
  203HK4     C117016   8.766   4.327   3.407 -0.2672  0.7103 -0.3319
  203HK4     H117017   8.824   4.417   3.435  0.4194  1.4749 -4.0370
  203HK4     C617018   8.659   4.281   3.487  0.2496  0.3131  0.1318
  203HK4     C517019   8.553   4.219   3.421  0.4502 -0.2981  0.3741
  203HK4    C1017020   8.410   4.209   3.462  0.3917 -0.0240  0.2482
  203HK4     O117021   8.376   4.297   3.541 -0.5227  0.1989 -0.3923
  203HK4    C1617022   8.707   4.263   3.625  0.3662 -0.1708  0.0299
  203HK4    C1517023   8.837   4.304   3.660  0.0698  0.3886  0.5162
  203HK4     H717024   8.916   4.281   3.587 -0.4282  3.1478 -0.9757
  203HK4    C2017025   8.876   4.328   3.791  0.3624  0.2599  0.4529
  203HK4     H917026   8.983   4.323   3.814  0.9539 -0.6535 -2.2183
  203HK4    C1917027   8.781   4.317   3.891  0.2520 -0.1567  0.3032
  203HK4    C1817028   8.651   4.260   3.862  0.1572  0.1142  0.2003
  203HK4    C1717029   8.621   4.231   3.730  0.4598 -0.0045  0.1579
  203HK4     H817030   8.540   4.161   3.707 -2.6208  2.7478  2.1524
  203HK4     N117031   8.567   4.265   3.975  0.0409 -0.4293  0.1385
  203HK4    C2117032   8.639   4.328   4.078  0.0090 -0.0505 -0.0694
  203HK4    C2217033   8.774   4.352   4.032  0.0847  0.1027  0.2306
  203HK4    C2617034   8.872   4.377   4.128  0.4833 -0.6133  0.0130
  203HK4    H1317035   8.973   4.359   4.093  0.7238  0.4363  0.1418
  203HK4    C2517036   8.842   4.382   4.264  0.0624 -0.7817 -0.0733
  203HK4    H1217037   8.921   4.375   4.338 -0.4462  0.4094  0.5923
  203HK4    C2417038   8.709   4.377   4.304  0.0232 -0.1097 -0.1129
  203HK4    H1117039   8.689   4.425   4.401  1.6384 -1.1689  0.7612
  203HK4    C2317040   8.609   4.352   4.212 -0.0386  0.1259 -0.1095
  203HK4    H1017041   8.510   4.388   4.240 -0.5134 -0.7029 -0.6873
  203HK4    C3917042   8.427   4.253   3.972  0.0959 -0.9049 -0.5539
  203HK4    C4117043   8.353   4.204   4.081  0.1188  0.2850 -0.0054
  203HK4    H2117044   8.404   4.137   4.151 -2.3367  0.9150  2.5073
  203HK4    C4217045   8.219   4.236   4.098 -0.1519 -0.4909 -0.6650
  203HK4    H2217046   8.183   4.225   4.202  0.5050  0.5291 -0.3255
  203HK4    C4317047   8.148   4.294   3.993 -0.8627 -0.3107 -0.0914
  203HK4    H2317048   8.040   4.308   3.997 -0.8565 -0.1826 -0.3565
  203HK4    C4417049   8.214   4.334   3.878 -0.0762 -0.7020  0.2189
  203HK4    H2417050   8.168   4.369   3.784 -0.1333 -0.7416  0.2337
  203HK4    C4517051   8.353   4.321   3.873  0.0110  0.2251  0.2876
  203HK4    H2517052   8.415   4.354   3.789  2.2015 -0.9342  1.4008
  204HK4    H2817053   3.810   3.339   5.198  0.1893 -0.0642 -0.7270
  204HK4    C4817054   3.770   3.364   5.296  0.5880 -0.2749 -0.5087
  204HK4    C4717055   3.813   3.469   5.376 -0.0807 -0.7178  0.4452
  204HK4    H2717056   3.915   3.506   5.359  0.1100 -0.4832  2.0895
  204HK4    C4617057   3.754   3.485   5.501  0.1819 -0.1140  0.4951
  204HK4    H2617058   3.812   3.553   5.565  0.7315  0.8027 -0.9622
  204HK4    C4017059   3.658   3.400   5.559 -0.1232 -0.1350 -0.0441
  204HK4    C5017060   3.624   3.290   5.477  0.0132 -0.0540 -0.2099
  204HK4    H3017061   3.535   3.227   5.498  0.2246 -0.2080  0.2406
  204HK4    C4917062   3.680   3.273   5.351 -0.2245  0.5925 -0.4044
  204HK4    H2917063   3.650   3.184   5.294 -2.7441  0.5174  0.9390
  204HK4     N217064   3.582   3.430   5.672  0.1115  0.2349  0.0127
  204HK4    C3017065   3.515   3.326   5.739 -0.2819  0.2788 -0.3116
  204HK4    C2917066   3.544   3.192   5.766 -0.0074  0.4213  0.1025
  204HK4    H1517067   3.637   3.154   5.724 -0.1633  0.3993 -0.2215
  204HK4    C2817068   3.453   3.107   5.827  0.2221  0.3033  0.2790
  204HK4    C2717069   3.330   3.155   5.876  0.0499  0.3235 -0.1801
  204HK4    H1417070   3.305   3.113   5.974 -0.3572  1.0819  0.0482
  204HK4    C3217071   3.296   3.286   5.845 -0.0648  0.4468  0.4650
  204HK4    H1617072   3.194   3.322   5.859  0.1966  1.4491 -0.0862
  204HK4    C3117073   3.387   3.374   5.786 -0.1013  0.2889  0.1707
  204HK4    C3417074   3.390   3.517   5.759 -0.4804  0.1836 -0.4398
  204HK4    C3317075   3.508   3.550   5.682 -0.0996  0.0974  0.1015
  204HK4    C3517076   3.555   3.680   5.674  0.1140  0.0328  0.3002
  204HK4    H1717077   3.639   3.713   5.613 -1.6884  1.4612 -1.4786
  204HK4    C3617078   3.486   3.780   5.741  0.3192  0.5824 -0.2940
  204HK4    H1817079   3.522   3.883   5.755  0.4977  0.5760 -0.7159
  204HK4    C3717080   3.373   3.749   5.817  0.2411 -0.0305 -0.6607
  204HK4    H1917081   3.311   3.834   5.843 -1.3411 -1.3563  0.0054
  204HK4    C3817082   3.325   3.619   5.828 -0.1292  0.1536 -0.0612
  204HK4    H2017083   3.235   3.597   5.884 -0.7409  1.1154 -0.6618
  204HK4    C1417084   3.480   2.963   5.844 -0.2060  0.1604 -0.2312
  204HK4     C917085   3.378   2.867   5.849  0.0687 -0.1313 -0.2069
  204HK4     C817086   3.384   2.754   5.933  0.2340 -0.0105 -0.0548
  204HK4    C1117087   3.498   2.740   6.011 -0.1386 -0.2166  0.4585
  204HK4     H417088   3.496   2.688   6.108 -1.6667  0.3271  0.7326
  204HK4    C1217089   3.609   2.822   5.990 -0.2472 -0.1564  0.1170
  204HK4     H517090   3.705   2.799   6.039 -0.2563 -0.3936  0.0228
  204HK4    C1317091   3.604   2.930   5.903 -0.4452 -0.2014  0.0718
  204HK4     H617092   3.692   2.995   5.899  0.2776 -1.2504 -1.5133
  204HK4     C717093   3.291   2.640   5.923 -0.0438  0.2018  0.0996
  204HK4     O217094   3.286   2.561   6.017 -0.2357 -0.4221 -0.4283
  204HK4     C417095   3.196   2.638   5.810 -0.1770 -0.1369  0.2147
  204HK4     C317096   3.125   2.522   5.782 -0.0528 -0.0953 -0.2776
  204HK4     H317097   3.139   2.427   5.836 -1.9385  0.5862  1.4665
  204HK4     C217098   3.016   2.528   5.696  0.2923  0.5801 -0.6707
  204HK4     H217099   2.993   2.442   5.631  0.2312  1.1218 -1.3793
  204HK4     C117100   2.978   2.655   5.656 -1.0349  0.4233  0.0737
  204HK4     H117101   2.886   2.651   5.596 -1.7281  4.1003  0.7358
  204HK4     C617102   3.041   2.777   5.688 -0.3480  0.0608  0.1162
  204HK4     C517103   3.164   2.763   5.752 -0.2503 -0.3285 -0.1592
  204HK4    C1017104   3.266   2.872   5.751  0.1473 -0.7018 -0.3220
  204HK4     O117105   3.298   2.914   5.640  0.1209  0.4477  0.0998
  204HK4    C1617106   2.948   2.887   5.718 -0.0646  0.2414  0.3291
  204HK4    C1517107   2.808   2.869   5.722 -0.0648  0.2676  0.4411
  204HK4     H717108   2.764   2.768   5.724 -1.7291  1.0067  1.6714
  204HK4    C2017109   2.710   2.966   5.705 -0.6322 -0.4795 -0.5849
  204HK4     H917110   2.605   2.937   5.710 -1.4423  2.1450 -1.3281
  204HK4    C1917111   2.759   3.092   5.672  0.1675 -0.6957 -0.2475
  204HK4    C1817112   2.900   3.122   5.661 -0.0094  0.4032  0.4154
  204HK4    C1717113   2.987   3.017   5.685 -0.1620  0.0936 -0.3778
  204HK4     H817114   3.092   3.047   5.691 -0.1148  0.2180 -1.8165
  204HK4     N117115   2.916   3.252   5.609  0.1549  0.0684 -0.3797
  204HK4    C2117116   2.786   3.289   5.567 -0.2130 -0.7123  0.0667
  204HK4    C2217117   2.682   3.198   5.611 -0.1779 -0.6997  0.1769
  204HK4    C2617118   2.554   3.194   5.557 -0.0631 -0.1001 -0.1483
  204HK4    H1317119   2.479   3.128   5.601  0.3367 -0.3878  0.1055
  204HK4    C2517120   2.529   3.285   5.455  0.0976  0.1317  0.0186
  204HK4    H1217121   2.430   3.295   5.409 -0.3589  2.1970  1.3773
  204HK4    C2417122   2.624   3.378   5.415  0.2068 -0.3721 -0.9129
  204HK4    H1117123   2.605   3.446   5.331  0.5126  0.4240 -0.3526
  204HK4    C2317124   2.753   3.381   5.468 -0.3993 -0.2341  0.5723
  204HK4    H1017125   2.830   3.438   5.417 -1.6704  2.7816  1.9233
  204HK4    C3917126   3.040   3.302   5.567  0.2120  0.2945  0.0503
  204HK4    C4117127   3.067   3.440   5.561  0.1010  0.3306  0.4184
  204HK4    H2117128   2.987   3.512   5.585  1.1453  2.6564 -2.7484
  204HK4    C4217129   3.170   3.502   5.492 -0.0096 -0.1593 -0.1810
  204HK4    H2217130   3.150   3.596   5.439  0.1713 -0.5459 -0.9551
  204HK4    C4317131   3.271   3.419   5.446  0.1686 -0.0601  0.0351
  204HK4    H2317132   3.364   3.464   5.409  0.1476 -0.1944 -0.1814
  204HK4    C4417133   3.254   3.281   5.454  0.3199 -0.0841 -0.0392
  204HK4    H2417134   3.326   3.213   5.407 -0.0007  1.2990 -2.5970
  204HK4    C4517135   3.137   3.224   5.501  0.2821  0.2204  0.2423
  204HK4    H2517136   3.109   3.120   5.477  1.4081  0.1891 -0.9658
  205HK4    H2817137   2.020   3.171   7.494  0.3097 -1.5764  0.1298
  205HK4    C4817138   1.942   3.142   7.565 -0.3194 -0.1335  0.0547
  205HK4    C4717139   1.965   3.113   7.699  0.5597 -0.2680 -0.1207
  205HK4    H2717140   2.057   3.151   7.748  1.8796 -1.6598 -1.4723
  205HK4    C4617141   1.861   3.068   7.779  0.2767  0.1987 -0.2250
  205HK4    H2617142   1.867   3.094   7.886  1.4259 -2.4423  0.4070
  205HK4    C4017143   1.736   3.032   7.725  0.1564 -0.0526  0.2156
  205HK4    C5017144   1.719   3.063   7.588 -0.0909  0.5295  0.3751
  205HK4    H3017145   1.636   3.024   7.527  0.7436  1.0054 -1.0679
  205HK4    C4917146   1.815   3.128   7.512 -0.4658  0.8256  0.1572
  205HK4    H2917147   1.793   3.146   7.406  0.6989  0.4227 -0.1555
  205HK4     N217148   1.652   2.935   7.782 -0.0348 -0.0715 -0.0968
  205HK4    C3017149   1.693   2.839   7.877 -0.0898 -0.2785 -0.2825
  205HK4    C2917150   1.812   2.770   7.889  0.1102  0.0843 -0.1759
  205HK4    H1517151   1.895   2.788   7.820 -0.2976  1.2220 -0.3723
  205HK4    C2817152   1.825   2.672   7.987  0.1994 -0.2922 -0.5641
  205HK4    C2717153   1.717   2.647   8.075  0.1429 -0.3080 -0.6388
  205HK4    H1417154   1.739   2.596   8.170 -1.9029  1.7235  0.9838
  205HK4    C3217155   1.596   2.714   8.063  0.3318  0.1440 -0.0192
  205HK4    H1617156   1.529   2.712   8.149 -0.4174 -1.5058 -0.6227
  205HK4    C3117157   1.578   2.803   7.958 -0.0312  0.0118 -0.0727
  205HK4    C3417158   1.464   2.876   7.906 -0.0630  0.0954  0.1166
  205HK4    C3317159   1.516   2.965   7.805 -0.1284 -0.3341 -0.3021
  205HK4    C3517160   1.439   3.070   7.757 -0.1583 -0.1740  0.0900
  205HK4    H1717161   1.476   3.141   7.682 -0.7843  0.8742  0.7584
  205HK4    C3617162   1.311   3.088   7.807 -0.2105 -0.4962  0.0719
  205HK4    H1817163   1.253   3.170   7.761  0.8970  0.3303  0.1233
  205HK4    C3717164   1.259   2.998   7.899 -0.5803 -0.6259 -0.2636
  205HK4    H1917165   1.157   3.016   7.933  0.6805  0.7856  2.8875
  205HK4    C3817166   1.332   2.889   7.947 -0.1851 -0.3078 -0.1430
  205HK4    H2017167   1.293   2.828   8.028  0.1156  0.6008  0.6908
  205HK4    C1417168   1.953   2.601   8.002  0.3209  0.0503  0.0103
  205HK4     C917169   1.967   2.480   8.071  0.0442 -0.0336 -0.0764
  205HK4     C817170   2.084   2.449   8.144  0.0616  0.2291  0.0050
  205HK4    C1117171   2.195   2.533   8.132  0.3175 -0.0962  0.1038
  205HK4     H417172   2.290   2.515   8.183  0.9779  1.6793 -0.4710
  205HK4    C1217173   2.185   2.648   8.055  0.1043  0.2183  0.5927
  205HK4     H517174   2.266   2.722   8.047  0.5144 -0.1601  1.1917
  205HK4    C1317175   2.069   2.679   7.986  0.4721 -0.2255 -0.2335
  205HK4     H617176   2.075   2.742   7.895 -1.1262 -2.3063 -1.8294
  205HK4     C717177   2.091   2.331   8.232 -0.4836  0.1179 -0.0925
  205HK4     O217178   2.187   2.314   8.307 -0.2516  0.6392 -0.2716
  205HK4     C417179   1.971   2.245   8.239 -0.3539 -0.0643 -0.0977
  205HK4     C317180   1.977   2.129   8.314 -0.1330  0.1021  0.1434
  205HK4     H317181   2.072   2.087   8.349 -0.1796 -0.0694  0.0653
  205HK4     C217182   1.863   2.053   8.342  0.3187 -0.6537 -0.0496
  205HK4     H217183   1.882   1.953   8.383 -0.5504 -0.7875  0.0305
  205HK4     C117184   1.742   2.096   8.290  0.2941 -0.3265  0.2752
  205HK4     H117185   1.652   2.039   8.320 -0.0984 -0.8160 -1.7268
  205HK4     C617186   1.730   2.209   8.206 -0.2044 -0.2856  0.3992
  205HK4     C517187   1.849   2.272   8.172 -0.4507  0.0291  0.1151
  205HK4    C1017188   1.861   2.375   8.065  0.2358 -0.2273 -0.0562
  205HK4     O117189   1.829   2.339   7.952  0.3258 -0.8961  0.1298
  205HK4    C1617190   1.601   2.279   8.211  0.2893  0.6805 -0.4211
  205HK4    C1517191   1.513   2.266   8.320 -0.2128  0.3936 -0.8588
  205HK4     H717192   1.550   2.226   8.416  0.0690 -0.9102 -1.5070
  205HK4    C2017193   1.385   2.320   8.325 -0.5642 -0.5121  0.2227
  205HK4     H917194   1.321   2.308   8.413 -1.9290  0.4248 -0.6157
  205HK4    C1917195   1.349   2.408   8.223 -0.3020 -0.2345  0.3726
  205HK4    C1817196   1.428   2.412   8.102  0.0066 -0.0615  0.5757
  205HK4    C1717197   1.547   2.341   8.098  0.0430  0.0448 -0.6560
  205HK4     H817198   1.588   2.327   7.998 -2.5069 -2.3795 -1.4179
  205HK4     N117199   1.364   2.480   7.996 -0.0874  0.0389  0.6990
  205HK4    C2117200   1.251   2.533   8.063  0.0299  0.5155  0.5201
  205HK4    C2217201   1.231   2.489   8.199 -0.2175 -0.1398  0.2717
  205HK4    C2617202   1.123   2.532   8.276  0.4047  0.7682  0.6417
  205HK4    H1317203   1.103   2.486   8.372  0.2250  1.0355  0.7327
  205HK4    C2517204   1.038   2.627   8.221  0.0133 -0.0882 -0.2451
  205HK4    H1217205   0.942   2.627   8.273  0.3712 -0.2066  0.4128
  205HK4    C2417206   1.066   2.680   8.095  0.1047 -0.1046 -0.2304
  205HK4    H1117207   1.017   2.775   8.069 -0.9106 -0.0196  1.8916
  205HK4    C2317208   1.164   2.629   8.012  0.4096  0.4648 -0.2255
  205HK4    H1017209   1.174   2.662   7.909  0.2739  1.8760  0.2113
  205HK4    C3917210   1.358   2.441   7.862 -0.7457  0.0220  0.7294
  205HK4    C4117211   1.390   2.311   7.815  0.5258  0.4918  0.2736
  205HK4    H2117212   1.409   2.224   7.879  1.3498 -0.0594 -0.7105
  205HK4    C4217213   1.412   2.285   7.681 -0.1696  0.4930  0.1559
  205HK4    H2217214   1.458   2.188   7.655 -0.2680  0.6243 -0.5407
  205HK4    C4317215   1.390   2.380   7.582  0.3159  0.2249 -0.2134
  205HK4    H2317216   1.377   2.352   7.478  0.3237 -1.1936  0.1554
  205HK4    C4417217   1.360   2.508   7.627  0.1212  0.0338  0.1979
  205HK4    H2417218   1.348   2.587   7.552  1.9000 -0.2301 -0.3873
  205HK4    C4517219   1.351   2.540   7.762 -0.3523 -0.4080  0.2717
  205HK4    H2517220   1.328   2.645   7.786 -0.8217 -0.0819 -1.5464
  206HK4    H2817221   1.193   5.010   6.306 -0.6963  1.6924 -0.0265
  206HK4    C4817222   1.254   5.006   6.216 -0.3080  0.0523  0.2977
  206HK4    C4717223   1.196   5.021   6.090 -0.2632 -0.0178  0.2673
  206HK4    H2717224   1.090   5.049   6.081 -1.1484 -2.1491  3.0854
  206HK4    C4617225   1.269   4.993   5.976 -0.0791  0.7841  0.1859
  206HK4    H2617226   1.215   5.004   5.880  1.9077  1.8622 -0.8308
  206HK4    C4017227   1.405   4.958   5.977 -0.5320 -1.0747 -0.0160
  206HK4    C5017228   1.461   4.946   6.106  0.2422  0.4902 -0.1874
  206HK4    H3017229   1.568   4.923   6.117  0.5280  1.0262 -1.6954
  206HK4    C4917230   1.389   4.972   6.222 -0.2330  0.2065 -0.4189
  206HK4    H2917231   1.429   4.951   6.322 -1.7325 -1.1758 -0.0873
  206HK4     N217232   1.475   4.926   5.860  0.1811 -0.0762  0.1233
  206HK4    C3017233   1.424   4.870   5.741 -0.2221  0.1725  0.1809
  206HK4    C2917234   1.316   4.783   5.724  0.3112 -0.4494 -0.0641
  206HK4    H1517235   1.284   4.727   5.812 -0.4842 -1.6188 -1.0794
  206HK4    C2817236   1.274   4.734   5.601 -0.5461  0.5768 -0.1875
  206HK4    C2717237   1.364   4.758   5.495  0.2005 -0.3311  0.2330
  206HK4    H1417238   1.336   4.719   5.396  0.7013 -0.8887  0.3104
  206HK4    C3217239   1.479   4.835   5.507 -0.0325 -0.0014  0.3665
  206HK4    H1617240   1.523   4.860   5.411 -4.1332  1.2359 -1.2648
  206HK4    C3117241   1.514   4.890   5.630 -0.3093  0.5900  0.1836
  206HK4    C3417242   1.618   4.978   5.681 -0.2038  0.6692 -0.1655
  206HK4    C3317243   1.594   4.991   5.823  0.2526 -0.2759  0.0005
  206HK4    C3517244   1.669   5.082   5.897  0.3310 -0.4513  0.1388
  206HK4    H1717245   1.635   5.114   5.995 -0.1610  1.9057 -0.7477
  206HK4    C3617246   1.780   5.144   5.839 -0.1884  0.2692 -0.0961
  206HK4    H1817247   1.854   5.184   5.910 -1.9795 -1.6077  2.9709
  206HK4    C3717248   1.800   5.128   5.703 -0.7764  0.2457 -0.1823
  206HK4    H1917249   1.882   5.185   5.659 -0.3564  1.5593  2.2115
  206HK4    C3817250   1.723   5.046   5.621  0.1913 -0.2821 -0.5709
  206HK4    H2017251   1.751   5.038   5.516  1.0255 -2.8631 -0.1850
  206HK4    C1417252   1.165   4.636   5.600 -0.0230 -0.0124  0.3563
  206HK4     C917253   1.147   4.527   5.513 -0.0811  0.1690  0.1418
  206HK4     C817254   1.020   4.467   5.501 -0.1176  0.4063 -0.6833
  206HK4    C1117255   0.922   4.506   5.591 -0.2292  0.1891 -0.7123
  206HK4     H417256   0.837   4.437   5.598 -0.0673 -0.0687 -1.2718
  206HK4    C1217257   0.938   4.608   5.684  0.1811 -0.6512  0.1615
  206HK4     H517258   0.867   4.616   5.768  0.9529  0.3883  0.7268
  206HK4    C1317259   1.059   4.677   5.682 -0.2302  0.0819  0.0443
  206HK4     H617260   1.066   4.777   5.726  1.3384  0.0070 -0.0054
  206HK4     C717261   0.998   4.366   5.395  0.3947  0.1597 -0.5563
  206HK4     O217262   0.894   4.300   5.405  0.6885 -0.2952 -0.4775
  206HK4     C417263   1.103   4.336   5.296  0.3179  0.1145 -0.6254
  206HK4     C317264   1.075   4.245   5.195 -0.3522 -0.0654 -0.2800
  206HK4     H317265   0.981   4.188   5.185  0.2579 -1.2456  0.6283
  206HK4     C217266   1.170   4.222   5.096 -0.3993 -0.0230 -0.3350
  206HK4     H217267   1.161   4.129   5.038  0.6578 -0.9037  0.8778
  206HK4     C117268   1.281   4.305   5.092 -0.5488  0.1879 -0.0993
  206HK4     H117269   1.339   4.275   5.004 -1.2732 -1.3731 -0.0617
  206HK4     C617270   1.308   4.410   5.182 -0.0704  0.3163 -0.3924
  206HK4     C517271   1.221   4.413   5.292  0.5463 -0.1883  0.1081
  206HK4    C1017272   1.253   4.491   5.415 -0.1183 -0.0047  0.1667
  206HK4     O117273   1.360   4.466   5.471  0.0182  0.2968  0.0396
  206HK4    C1617274   1.374   4.531   5.131  0.2316  0.4243  0.2478
  206HK4    C1517275   1.364   4.556   4.992 -0.3815  0.4373  0.2935
  206HK4     H717276   1.276   4.519   4.939  0.6335  2.2899 -2.8468
  206HK4    C2017277   1.457   4.641   4.933  0.5165 -0.7476 -0.0009
  206HK4     H917278   1.443   4.670   4.829 -1.4678 -1.5835  0.0151
  206HK4    C1917279   1.569   4.681   5.005 -0.1799  0.7436  0.2657
  206HK4    C1817280   1.589   4.651   5.145  0.0867 -0.4535 -0.0212
  206HK4    C1717281   1.481   4.585   5.202  0.1328  0.0621  0.6711
  206HK4     H817282   1.504   4.549   5.302 -2.3669  0.8988  1.5930
  206HK4     N117283   1.705   4.704   5.205 -0.2130  0.0360  0.1303
  206HK4    C2117284   1.765   4.768   5.095  0.0925 -0.3274  0.0834
  206HK4    C2217285   1.687   4.760   4.974  0.0061  0.3968  0.0886
  206HK4    C2617286   1.741   4.798   4.852  0.1410  0.0018  0.0239
  206HK4    H1317287   1.674   4.813   4.767 -0.2640 -1.2459  0.1103
  206HK4    C2517288   1.875   4.834   4.848  0.1461 -0.0057  0.1479
  206HK4    H1217289   1.921   4.867   4.755 -0.5102  0.3808 -0.0440
  206HK4    C2417290   1.952   4.843   4.964  0.1004 -0.1092  0.1858
  206HK4    H1117291   2.058   4.868   4.943  0.0211 -0.9860 -1.3709
  206HK4    C2317292   1.897   4.812   5.087 -0.0847  0.2329  0.1916
  206HK4    H1017293   1.968   4.801   5.170  1.6462 -1.8574 -1.5057
  206HK4    C3917294   1.770   4.636   5.309 -0.2596 -0.3241 -0.0738
  206HK4    C4117295   1.859   4.704   5.395 -0.5317  0.2092 -0.2124
  206HK4    H2117296   1.858   4.813   5.413  0.5132  0.2393 -0.3158
  206HK4    C4217297   1.948   4.632   5.474 -0.0580  0.4319 -0.5408
  206HK4    H2217298   2.046   4.679   5.489 -0.3185  1.9017 -3.1061
  206HK4    C4317299   1.939   4.495   5.493  0.2140  0.4372 -0.3683
  206HK4    H2317300   1.972   4.449   5.586  0.0036  0.4745 -0.2765
  206HK4    C4417301   1.854   4.425   5.408 -0.2669 -0.0391  0.4955
  206HK4    H2417302   1.853   4.315   5.408 -0.5598 -0.0365  0.9510
  206HK4    C4517303   1.777   4.496   5.316 -0.1066 -0.3057  0.1518
  206HK4    H2517304   1.717   4.433   5.248  0.7311  1.0281 -1.8194
  207HK4    H2817305   4.868   8.524   9.659  1.1702  0.4267 -0.9679
  207HK4    C4817306   4.772   8.529   9.606  0.3699 -0.0072  0.4095
  207HK4    C4717307   4.718   8.652   9.573 -0.0402 -0.3094 -0.0417
  207HK4    H2717308   4.783   8.738   9.551  0.9546 -1.2703 -0.9110
  207HK4    C4617309   4.582   8.665   9.546 -0.2168  0.2536  1.1075
  207HK4    H2617310   4.566   8.765   9.502  1.8907  0.4334  0.7265
  207HK4    C4017311   4.500   8.552   9.526  0.1137  0.1136  0.5613
  207HK4    C5017312   4.561   8.426   9.548 -0.2733 -0.0510  0.7015
  207HK4    H3017313   4.522   8.337   9.498 -1.1508  2.4842 -3.3679
  207HK4    C4917314   4.692   8.416   9.594  0.0826  0.2666 -0.2408
  207HK4    H2917315   4.745   8.320   9.599 -0.1400  0.1502 -0.1647
  207HK4     N217316   4.363   8.573   9.510  0.2166  0.7499  0.5061
  207HK4    C3017317   4.275   8.468   9.475  0.1928  0.9790 -0.1174
  207HK4    C2917318   4.295   8.366   9.383 -0.4690  0.5421  0.2181
  207HK4    H1517319   4.392   8.365   9.332 -0.4005  2.0535  0.3005
  207HK4    C2817320   4.195   8.272   9.366 -0.0576  0.1893 -0.2488
  207HK4    C2717321   4.076   8.285   9.440 -0.0792 -0.3552 -0.1883
  207HK4    H1417322   4.003   8.203   9.431  0.5293 -1.0745  1.2541
  207HK4    C3217323   4.051   8.394   9.522 -0.2454  0.1593 -0.9219
  207HK4    H1617324   3.959   8.384   9.580  0.9868  0.0524  1.0458
  207HK4    C3117325   4.151   8.487   9.547 -0.0572 -0.2226 -0.2281
  207HK4    C3417326   4.167   8.607   9.627 -0.2887 -0.2014 -0.2106
  207HK4    C3317327   4.292   8.668   9.586 -0.2987  0.3359  0.5478
  207HK4    C3517328   4.316   8.802   9.613  0.0887  0.2779  0.5110
  207HK4    H1717329   4.399   8.853   9.566 -2.0390  2.6282 -0.8549
  207HK4    C3617330   4.219   8.875   9.682 -0.2324 -0.0643  0.4152
  207HK4    H1817331   4.236   8.983   9.693  0.8797 -0.0857 -1.0224
  207HK4    C3717332   4.104   8.816   9.733 -0.4528 -0.1964 -0.2205
  207HK4    H1917333   4.025   8.875   9.780  1.4971  1.5621  0.9259
  207HK4    C3817334   4.076   8.684   9.699 -0.2351 -0.2850 -0.0489
  207HK4    H2017335   3.991   8.640   9.750  0.1244 -0.9806 -0.0437
  207HK4    C1417336   4.197   8.181   9.250 -0.0282 -0.5587  0.3297
  207HK4     C917337   4.078   8.140   9.189  0.0816  0.0129 -0.2771
  207HK4     C817338   4.054   8.009   9.144 -0.1732 -0.0973  0.1750
  207HK4    C1117339   4.162   7.922   9.151 -0.0261  0.0684 -0.0853
  207HK4     H417340   4.144   7.824   9.103  0.1708 -1.1308  2.2130
  207HK4    C1217341   4.286   7.969   9.192 -0.1116  0.1045  0.1331
  207HK4     H517342   4.359   7.888   9.210  2.3533  1.7254 -2.1446
  207HK4    C1317343   4.310   8.098   9.239  0.4055  0.0778 -0.0559
  207HK4     H617344   4.411   8.142   9.230  0.2752  0.6763  1.2916
  207HK4     C717345   3.919   7.967   9.100 -0.1315  0.0571 -0.1009
  207HK4     O217346   3.900   7.877   9.019  0.6537  0.0047 -0.2263
  207HK4     C417347   3.807   8.060   9.131 -0.1826  0.0567 -0.2889
  207HK4     C317348   3.676   8.027   9.099 -0.0779 -0.4960 -0.1523
  207HK4     H317349   3.654   7.952   9.021 -3.2108  1.0331 -0.8238
  207HK4     C217350   3.572   8.104   9.149  0.1127 -0.0746 -0.3993
  207HK4     H217351   3.470   8.061   9.148 -0.0451  0.1420  2.3959
  207HK4     C117352   3.593   8.225   9.213 -0.5406  0.0479 -0.4100
  207HK4     H117353   3.509   8.281   9.257 -0.3211  1.1910 -1.4009
  207HK4     C617354   3.726   8.271   9.225 -0.4176 -0.3741 -0.1378
  207HK4     C517355   3.830   8.191   9.176 -0.1194 -0.0364 -0.0565
  207HK4    C1017356   3.970   8.240   9.165 -0.0897 -0.1757 -0.2940
  207HK4     O117357   3.993   8.326   9.080 -0.3197  0.0738 -0.1025
  207HK4    C1617358   3.737   8.376   9.327 -0.0161 -0.1780 -0.3833
  207HK4    C1517359   3.662   8.381   9.446 -0.0503  0.2685 -0.4185
  207HK4     H717360   3.602   8.298   9.487 -0.9201  0.7663 -0.6756
  207HK4    C2017361   3.660   8.492   9.529  0.3251 -0.4425  0.5627
  207HK4     H917362   3.583   8.511   9.604 -0.9899  1.8670 -1.2723
  207HK4    C1917363   3.734   8.603   9.490  0.1096 -0.4938  0.0039
  207HK4    C1817364   3.815   8.605   9.369  0.5229  0.1108  0.2888
  207HK4    C1717365   3.811   8.489   9.294 -0.3367  0.2046  0.1806
  207HK4     H817366   3.869   8.492   9.201  0.0973  1.4669  0.4876
  207HK4     N117367   3.874   8.729   9.337  0.2821  0.1754  0.1015
  207HK4    C2117368   3.842   8.808   9.450 -1.0621  0.1982 -0.2782
  207HK4    C2217369   3.758   8.736   9.543  0.0155 -0.5286  0.1339
  207HK4    C2617370   3.715   8.796   9.661  0.0647  0.1176 -0.1764
  207HK4    H1317371   3.682   8.731   9.741  1.5317 -1.4115 -0.7858
  207HK4    C2517372   3.745   8.930   9.685  0.4215 -0.0891  0.5108
  207HK4    H1217373   3.699   8.983   9.769  0.5308 -0.0861  0.5690
  207HK4    C2417374   3.828   8.997   9.597  0.0432 -0.5633 -0.2151
  207HK4    H1117375   3.831   9.107   9.599 -0.6008 -0.5619  2.7424
  207HK4    C2317376   3.882   8.937   9.484  0.2290 -0.1807 -0.3372
  207HK4    H1017377   3.971   8.979   9.436 -0.2463  3.9515  2.1612
  207HK4    C3917378   3.988   8.742   9.258  0.1827  0.0636 -0.0627
  207HK4    C4117379   4.016   8.862   9.190  0.1957  0.0254 -0.1213
  207HK4    H2117380   3.959   8.950   9.222  0.5006  0.7460 -1.5331
  207HK4    C4217381   4.123   8.882   9.103  0.3334 -0.0523  0.0277
  207HK4    H2217382   4.145   8.981   9.061 -1.0723  0.5902  0.7599
  207HK4    C4317383   4.206   8.774   9.075  0.4152 -0.0478  0.2569
  207HK4    H2317384   4.303   8.795   9.031 -0.9629  1.3862 -2.1905
  207HK4    C4417385   4.174   8.648   9.125  0.3367  0.0633  0.4850
  207HK4    H2417386   4.257   8.576   9.125 -0.4117 -0.8099 -0.2865
  207HK4    C4517387   4.072   8.636   9.218 -0.1620 -0.2017 -0.0830
  207HK4    H2517388   4.062   8.537   9.265 -3.2319 -1.1792 -2.6853
  208HK4    H2817389   4.366   7.209   4.511 -1.2003 -0.5441 -0.8092
  208HK4    C4817390   4.371   7.316   4.491 -0.0783 -0.4405  0.0246
  208HK4    C4717391   4.332   7.408   4.587  0.0128 -0.2666 -0.1042
  208HK4    H2717392   4.274   7.375   4.675 -2.1350  1.1205 -0.9385
  208HK4    C4617393   4.353   7.543   4.562  0.2204 -0.1703  0.5871
  208HK4    H2617394   4.315   7.617   4.635  0.9266 -0.2288  1.0202
  208HK4    C4017395   4.421   7.591   4.449  0.2157 -0.0156  0.6479
  208HK4    C5017396   4.455   7.492   4.354 -0.5486  0.0641  0.2851
  208HK4    H3017397   4.509   7.526   4.265 -0.6480 -2.5963 -0.8329
  208HK4    C4917398   4.426   7.357   4.370  0.2766 -0.1173  0.2912
  208HK4    H2917399   4.450   7.283   4.292 -0.4833 -0.2249  0.1548
  208HK4     N217400   4.484   7.716   4.444  0.1805 -0.0327 -0.3522
  208HK4    C3017401   4.533   7.791   4.553 -0.1258  0.1718 -0.3572
  208HK4    C2917402   4.545   7.765   4.689  0.1598 -0.2036 -0.4504
  208HK4    H1517403   4.518   7.671   4.737 -0.0407 -0.0315 -0.2271
  208HK4    C2817404   4.601   7.852   4.781  0.0128 -0.4721 -0.1078
  208HK4    C2717405   4.637   7.978   4.728 -0.0293 -0.5694 -0.3668
  208HK4    H1417406   4.694   8.046   4.793  1.5782 -0.0078 -2.2945
  208HK4    C3217407   4.620   8.017   4.595 -0.7773  0.3016 -0.0151
  208HK4    H1617408   4.636   8.122   4.569 -1.0190  0.5842  0.9257
  208HK4    C3117409   4.564   7.925   4.508  0.2974  0.0466 -0.4354
  208HK4    C3417410   4.538   7.930   4.365 -0.3850  0.3365 -0.3008
  208HK4    C3317411   4.477   7.803   4.333 -0.5136  0.3291 -0.0264
  208HK4    C3517412   4.409   7.790   4.213 -0.1905 -0.0915 -0.1669
  208HK4    H1717413   4.383   7.690   4.178  0.2752  0.9619 -3.7116
  208HK4    C3617414   4.414   7.896   4.123  0.0183  0.1137  0.0847
  208HK4    H1817415   4.409   7.862   4.018 -1.8581 -1.4907  0.6613
  208HK4    C3717416   4.472   8.018   4.154 -0.2698  0.1921  0.3311
  208HK4    H1917417   4.465   8.098   4.080  2.3146 -0.4674 -0.6905
  208HK4    C3817418   4.540   8.035   4.274  0.2701  0.5671 -0.0270
  208HK4    H2017419   4.554   8.140   4.300 -1.9779  0.3698  2.1078
  208HK4    C1417420   4.576   7.828   4.924  0.0492 -0.0064 -0.0218
  208HK4     C917421   4.538   7.923   5.019 -0.0183 -0.1754  0.1194
  208HK4     C817422   4.565   7.900   5.156  0.0921  0.3201  0.1811
  208HK4    C1117423   4.614   7.777   5.198  0.5422  0.3767 -0.1755
  208HK4     H417424   4.624   7.756   5.305 -0.3681  2.6187  0.3709
  208HK4    C1217425   4.658   7.683   5.105 -0.3167 -0.2948  0.0915
  208HK4     H517426   4.694   7.586   5.143 -0.1598  0.1461  1.0896
  208HK4    C1317427   4.635   7.709   4.971  0.3020  0.1557  0.0733
  208HK4     H617428   4.642   7.620   4.907  0.7159 -0.8976  1.5672
  208HK4     C717429   4.551   8.013   5.251  0.0051  0.1670  0.3491
  208HK4     O217430   4.567   7.994   5.371  0.1933 -0.3422  0.2425
  208HK4     C417431   4.496   8.140   5.199 -0.8214 -0.2889  0.0983
  208HK4     C317432   4.484   8.246   5.288 -0.0050  0.0933 -0.2486
  208HK4     H317433   4.476   8.224   5.395  0.4669 -1.2762 -0.4923
  208HK4     C217434   4.456   8.377   5.248  0.1261  0.1412 -0.1833
  208HK4     H217435   4.471   8.458   5.321 -0.6185  0.0405  0.0848
  208HK4     C117436   4.449   8.398   5.111  0.1417  0.1187 -0.1867
  208HK4     H117437   4.445   8.504   5.081  1.0970  0.2219  0.0048
  208HK4     C617438   4.455   8.296   5.014  0.0250  0.0869 -0.1604
  208HK4     C517439   4.469   8.166   5.063  0.0835  0.1539  0.0011
  208HK4    C1017440   4.466   8.046   4.974  0.3439  0.0422  0.1436
  208HK4     O117441   4.372   8.037   4.896  0.6946  0.3732 -0.3193
  208HK4    C1617442   4.483   8.338   4.875 -0.0002 -0.0315 -0.2002
  208HK4    C1517443   4.564   8.452   4.860  0.1208 -0.1172 -0.2226
  208HK4     H717444   4.626   8.473   4.948  0.6996  1.9643 -1.1038
  208HK4    C2017445   4.581   8.525   4.743 -0.1779  0.3900  0.0511
  208HK4     H917446   4.632   8.621   4.738  0.2441  0.2726  1.7472
  208HK4    C1917447   4.524   8.472   4.628  0.2550  0.2110 -0.0802
  208HK4    C1817448   4.430   8.361   4.638  0.3880  0.1114  0.0737
  208HK4    C1717449   4.413   8.299   4.761  0.1507 -0.3426 -0.1877
  208HK4     H817450   4.337   8.223   4.775 -0.1182 -0.1685 -0.6890
  208HK4     N117451   4.369   8.348   4.512  0.3005  0.0731  0.1204
  208HK4    C2117452   4.426   8.437   4.419  0.1414  0.3383  0.2809
  208HK4    C2217453   4.525   8.516   4.490  0.4143  0.2941 -0.0522
  208HK4    C2617454   4.583   8.621   4.419  1.1924  0.0578  0.2378
  208HK4    H1317455   4.653   8.688   4.468  2.5214  0.4070 -2.0737
  208HK4    C2517456   4.559   8.642   4.284 -0.2154  0.2800  0.5174
  208HK4    H1217457   4.617   8.713   4.225 -0.0980 -2.9799 -3.4917
  208HK4    C2417458   4.467   8.560   4.219 -0.2029  0.1595  0.6516
  208HK4    H1117459   4.445   8.573   4.112  1.6395 -1.2090  0.0821
  208HK4    C2317460   4.400   8.458   4.284  0.5697 -0.7478  0.0318
  208HK4    H1017461   4.338   8.389   4.227  0.7944 -0.1854 -0.8860
  208HK4    C3917462   4.272   8.254   4.473  0.0399  0.0209  0.8864
  208HK4    C4117463   4.180   8.278   4.370  0.5983 -0.3636  0.2931
  208HK4    H2117464   4.158   8.379   4.331 -1.2956 -1.3380 -1.2382
  208HK4    C4217465   4.110   8.176   4.307 -0.6670  0.6367  0.0511
  208HK4    H2217466   4.046   8.207   4.223  0.0814  1.3613 -0.2626
  208HK4    C4317467   4.125   8.044   4.348 -0.3840  0.6937  0.1330
  208HK4    H2317468   4.078   7.957   4.302  1.6795  0.0389 -0.7710
  208HK4    C4417469   4.212   8.017   4.452 -0.3445  0.1484 -0.0415
  208HK4    H2417470   4.234   7.911   4.472  1.3614  0.5956  0.5829
  208HK4    C4517471   4.281   8.120   4.515 -0.3258 -0.1480  0.4246
  208HK4    H2517472   4.341   8.095   4.604 -1.3537  0.3361  1.2552
  209HK4    H2817473   6.829   1.106   7.635  0.6302 -0.3862 -0.2651
  209HK4    C4817474   6.854   1.166   7.723 -0.5723 -0.1186 -0.1051
  209HK4    C4717475   6.949   1.121   7.813 -0.4533  0.3109 -0.0146
  209HK4    H2717476   7.029   1.056   7.775  0.0258 -0.0751  1.6116
  209HK4    C4617477   6.956   1.187   7.936 -0.4918 -0.2097  0.2666
  209HK4    H2617478   7.030   1.167   8.015 -0.5274  1.3803  0.7176
  209HK4    C4017479   6.873   1.296   7.970 -0.8762 -0.5412  0.4036
  209HK4    C5017480   6.781   1.340   7.872 -0.3494 -0.1294  0.0925
  209HK4    H3017481   6.713   1.425   7.884  1.9578  1.8923 -0.7330
  209HK4    C4917482   6.772   1.275   7.749  0.0981  0.4197 -0.2363
  209HK4    H2917483   6.732   1.340   7.670 -1.1051  2.2171  1.7709
  209HK4     N217484   6.913   1.390   8.065 -0.1031 -0.4610  0.0061
  209HK4    C3017485   6.824   1.467   8.144 -0.1845  0.0477 -0.5769
  209HK4    C2917486   6.692   1.442   8.180 -0.0339  0.0514 -0.0179
  209HK4    H1517487   6.657   1.342   8.155 -0.0007  0.6168 -2.4729
  209HK4    C2817488   6.633   1.509   8.287 -0.3107 -0.1585 -0.0392
  209HK4    C2717489   6.706   1.616   8.343  0.5672 -0.7466 -0.0357
  209HK4    H1417490   6.652   1.691   8.404 -0.7302 -1.0195 -0.8220
  209HK4    C3217491   6.840   1.644   8.316  0.5316 -0.0240  0.5125
  209HK4    H1617492   6.876   1.744   8.338 -0.7322  0.6865 -0.5811
  209HK4    C3117493   6.900   1.562   8.222 -0.4118 -0.4574  0.2689
  209HK4    C3417494   7.041   1.539   8.194 -0.5229 -0.1159 -0.5884
  209HK4    C3317495   7.042   1.444   8.084 -0.2625  0.2354 -0.8877
  209HK4    C3517496   7.170   1.409   8.043 -0.1053 -0.2687  0.0360
  209HK4    H1717497   7.197   1.344   7.960 -0.3112 -2.8232  1.9094
  209HK4    C3617498   7.285   1.466   8.098 -0.0066 -0.4548  0.0236
  209HK4    H1817499   7.375   1.470   8.035  1.8273  0.5499  2.6226
  209HK4    C3717500   7.279   1.548   8.210 -0.3002 -0.2728 -0.1224
  209HK4    H1917501   7.371   1.597   8.242 -1.2591  0.9454  0.8119
  209HK4    C3817502   7.155   1.584   8.259 -0.4784 -0.7782 -0.2022
  209HK4    H2017503   7.136   1.653   8.342 -0.8907 -0.1036 -0.8532
  209HK4    C1417504   6.490   1.487   8.310 -0.0952 -0.0489  1.4149
  209HK4     C917505   6.400   1.585   8.354 -0.1301  0.1839  0.8285
  209HK4     C817506   6.286   1.544   8.426  0.2130 -0.2887  1.0983
  209HK4    C1117507   6.250   1.410   8.438  0.1752 -0.3324  0.5155
  209HK4     H417508   6.155   1.383   8.486  0.5495 -0.1690  1.3650
  209HK4    C1217509   6.334   1.311   8.388  0.1287 -0.3706  0.5139
  209HK4     H517510   6.295   1.210   8.371  0.0674 -0.1839 -0.4884
  209HK4    C1317511   6.450   1.353   8.323 -0.2185 -0.1481  0.0307
  209HK4     H617512   6.511   1.272   8.281 -0.0021  0.4948 -0.8985
  209HK4     C717513   6.190   1.641   8.483  0.1692  0.3204 -0.0042
  209HK4     O217514   6.112   1.613   8.575  1.0679 -0.0571  0.6448
  209HK4     C417515   6.186   1.781   8.436 -0.3562  0.3171  0.0238
  209HK4     C317516   6.107   1.878   8.496 -0.1751  0.1619  0.5165
  209HK4     H317517   6.076   1.851   8.598  0.2020 -4.7248 -0.5568
  209HK4     C217518   6.092   2.000   8.431  0.4557 -0.2806 -0.4662
  209HK4     H217519   6.029   2.081   8.471  0.6007 -1.3827  2.0815
  209HK4     C117520   6.151   2.019   8.306 -0.0430  0.1124 -0.6433
  209HK4     H117521   6.136   2.116   8.257 -0.5898  0.1324 -0.4402
  209HK4     C617522   6.226   1.917   8.243 -0.3579 -0.4300 -0.1479
  209HK4     C517523   6.262   1.806   8.320 -0.0420 -0.1330  0.1293
  209HK4    C1017524   6.382   1.721   8.296 -0.0468 -0.1244  0.0739
  209HK4     O117525   6.474   1.776   8.234 -0.0237  0.2598  0.4406
  209HK4    C1617526   6.239   1.936   8.098  0.1151 -0.4994 -0.1186
  209HK4    C1517527   6.225   2.059   8.031  0.0565 -0.4893 -0.0814
  209HK4     H717528   6.275   2.142   8.082  0.6470 -1.8464  1.5926
  209HK4    C2017529   6.208   2.071   7.894  1.0893  0.0360 -0.1646
  209HK4     H917530   6.201   2.170   7.848  1.0001  0.6974  1.2382
  209HK4    C1917531   6.204   1.955   7.817  1.1781  0.0058 -0.1229
  209HK4    C1817532   6.233   1.830   7.884  0.5293  0.1209  0.3816
  209HK4    C1717533   6.247   1.820   8.022  0.3875 -0.7774  0.3360
  209HK4     H817534   6.247   1.720   8.065  0.5269 -1.3633 -0.9801
  209HK4     N117535   6.217   1.720   7.797 -0.0268  0.2094  0.3721
  209HK4    C2117536   6.191   1.772   7.668  0.1450  0.2270  0.3433
  209HK4    C2217537   6.170   1.914   7.682  0.0710  0.2429  0.0806
  209HK4    C2617538   6.114   1.992   7.582 -0.1495  0.1651  0.1421
  209HK4    H1317539   6.109   2.101   7.589 -0.4722  0.0038  2.6493
  209HK4    C2517540   6.076   1.922   7.468 -0.8813  0.1768  0.3765
  209HK4    H1217541   6.035   1.984   7.388  2.0531  0.8652 -0.6762
  209HK4    C2417542   6.101   1.788   7.442 -0.0248  0.3301  0.3897
  209HK4    H1117543   6.072   1.735   7.350  0.2518  0.2781  0.3298
  209HK4    C2317544   6.166   1.718   7.542 -0.2866  0.1718  0.4499
  209HK4    H1017545   6.226   1.630   7.518  1.6805  1.8508 -0.9908
  209HK4    C3917546   6.230   1.584   7.827 -0.3485  0.0650 -0.1323
  209HK4    C4117547   6.152   1.489   7.758 -0.2552 -0.2273  0.1694
  209HK4    H2117548   6.065   1.512   7.695 -0.6206 -0.9774  0.3803
  209HK4    C4217549   6.185   1.354   7.765 -0.8040 -0.3379  0.7164
  209HK4    H2217550   6.122   1.272   7.728  1.4998 -2.4778  1.3827
  209HK4    C4317551   6.291   1.314   7.845 -0.3037 -0.1634  0.1421
  209HK4    H2317552   6.317   1.208   7.848  4.5242  0.8369 -0.9670
  209HK4    C4417553   6.360   1.405   7.925  0.3723 -0.2136 -0.3797
  209HK4    H2417554   6.447   1.385   7.989  1.3470  3.3288 -0.5210
  209HK4    C4517555   6.341   1.541   7.903 -0.2384 -0.3207 -0.5068
  209HK4    H2517556   6.407   1.615   7.949 -0.8683  0.4574 -0.8474
  210HK4    H2817557   1.183   0.170   1.404 -1.1067  0.0966  0.4027
  210HK4    C4817558   1.198   0.210   1.504  0.4742 -0.0171  0.2264
  210HK4    C4717559   1.286   0.167   1.602  0.5617  0.2431  0.2640
  210HK4    H2717560   1.370   0.101   1.573  0.5623  0.4570 -0.2339
  210HK4    C4617561   1.284   0.212   1.733  0.2885 -0.4815  0.5116
  210HK4    H2617562   1.358   0.175   1.805  1.3582 -0.4039 -0.5493
  210HK4    C4017563   1.188   0.310   1.766 -0.0279 -0.6523  0.1032
  210HK4    C5017564   1.103   0.358   1.664  0.1186 -0.1747  0.2053
  210HK4    H3017565   1.030   0.436   1.694 -1.1134 -1.5979  0.9986
  210HK4    C4917566   1.100   0.304   1.536 -0.0287 -0.5967  0.3862
  210HK4    H2917567   1.029   0.342   1.462  0.3091  1.0249  0.8805
  210HK4     N217568   1.165   0.332   1.902 -0.5398 -0.3175 -0.0332
  210HK4    C3017569   1.123   0.454   1.959 -0.3863 -0.0803 -0.4321
  210HK4    C2917570   1.143   0.581   1.905 -0.2147  0.0580 -0.0436
  210HK4    H1517571   1.187   0.592   1.806 -2.7305 -1.3457 -1.3593
  210HK4    C2817572   1.119   0.693   1.984 -0.3958  0.1540 -0.2360
  210HK4    C2717573   1.066   0.671   2.112  0.9793  0.1062  0.3342
  210HK4    H1417574   1.029   0.756   2.172 -0.4358 -1.1985  1.3642
  210HK4    C3217575   1.035   0.548   2.169  0.1838  0.0647 -0.1764
  210HK4    H1617576   0.976   0.536   2.260  0.7685  1.3328  0.3834
  210HK4    C3117577   1.067   0.438   2.091 -0.6070  0.0623 -0.5070
  210HK4    C3417578   1.080   0.295   2.111 -0.7974  0.0115 -0.7522
  210HK4    C3317579   1.144   0.231   1.998  0.0582 -0.4348 -0.0207
  210HK4    C3517580   1.165   0.093   2.002 -0.1786 -0.4633  0.2634
  210HK4    H1717581   1.206   0.042   1.915  1.9121  0.5949  0.5946
  210HK4    C3617582   1.135   0.016   2.114  0.5390 -0.5062  0.4241
  210HK4    H1817583   1.142  11.154   2.113 -1.1945 -0.6199 -1.5738
  210HK4    C3717584   1.065   0.077   2.217 -0.6217 -0.4275 -0.3993
  210HK4    H1917585   1.033   0.022   2.306 -0.7945  1.4922  0.7449
  210HK4    C3817586   1.037   0.213   2.215  0.7021 -0.1409 -0.2383
  210HK4    H2017587   0.988   0.256   2.302  0.4159  0.2499 -0.5896
  210HK4    C1417588   1.179   0.820   1.938  0.4241 -0.1888 -0.1183
  210HK4     C917589   1.240   0.908   2.028  0.5576 -0.1609 -0.2380
  210HK4     C817590   1.245   1.045   1.994 -0.3885 -0.0054  0.2424
  210HK4    C1117591   1.198   1.091   1.871 -0.1906  0.2650  0.2670
  210HK4     H417592   1.192   1.199   1.856 -0.1667  0.2205 -0.0585
  210HK4    C1217593   1.145   0.998   1.782 -0.5531  0.4476  0.2931
  210HK4     H517594   1.109   1.032   1.684 -1.3237 -0.8037  0.1284
  210HK4    C1317595   1.133   0.863   1.812 -0.4349  0.4636  0.4129
  210HK4     H617596   1.058   0.805   1.756  2.0124 -1.9800 -0.3970
  210HK4     C717597   1.293   1.146   2.091 -0.0516  0.0212  0.0499
  210HK4     O217598   1.323   1.259   2.054  0.1075 -0.1289 -0.2787
  210HK4     C417599   1.325   1.106   2.230  0.7188 -0.2052 -0.1902
  210HK4     C317600   1.353   1.205   2.322 -0.4226 -0.2439  0.2102
  210HK4     H317601   1.325   1.310   2.304  0.6310  0.6465  3.3317
  210HK4     C217602   1.400   1.174   2.450  0.1223  0.3129  0.1449
  210HK4     H217603   1.463   1.250   2.498 -0.3778  0.3587  0.7287
  210HK4     C117604   1.398   1.041   2.487 -0.3654  0.2938  0.0461
  210HK4     H117605   1.435   1.013   2.587  0.2744 -1.7710 -0.7420
  210HK4     C617606   1.352   0.939   2.400  0.7295 -0.0965 -0.0830
  210HK4     C517607   1.329   0.969   2.265  0.1559 -0.1782 -0.0060
  210HK4    C1017608   1.304   0.870   2.157  0.0416 -0.1691  0.0126
  210HK4     O117609   1.375   0.770   2.163  0.0137 -0.1443  0.8974
  210HK4    C1617610   1.294   0.823   2.469  0.5451  0.1461  0.1767
  210HK4    C1517611   1.211   0.846   2.580  0.5498 -0.3416  0.2846
  210HK4     H717612   1.226   0.936   2.641  1.5679 -0.2117 -0.1502
  210HK4    C2017613   1.146   0.742   2.645  0.0099 -0.1381  0.0729
  210HK4     H917614   1.088   0.753   2.737  1.8540 -2.7791  1.6068
  210HK4    C1917615   1.178   0.611   2.610  0.3557 -0.2733  0.8883
  210HK4    C1817616   1.279   0.584   2.508 -0.4831 -0.2937  0.0570
  210HK4    C1717617   1.338   0.693   2.445 -0.2413 -0.1784  0.4808
  210HK4     H817618   1.425   0.672   2.383  0.2120  1.8018  0.4287
  210HK4     N117619   1.290   0.448   2.476 -0.4084 -0.1338 -0.5969
  210HK4    C2117620   1.187   0.392   2.555 -0.2145  0.4021  0.0326
  210HK4    C2217621   1.109   0.486   2.634 -0.5914  0.0778  0.0481
  210HK4    C2617622   0.992   0.449   2.699 -0.5177 -0.6757 -0.2360
  210HK4    H1317623   0.932   0.533   2.734  1.7239  0.3746  1.2362
  210HK4    C2517624   0.946   0.319   2.685 -1.1624 -0.4273 -0.4409
  210HK4    H1217625   0.841   0.295   2.701 -1.1559 -0.6404 -0.7270
  210HK4    C2417626   1.023   0.224   2.619  0.0739 -0.1462  0.5870
  210HK4    H1117627   0.991   0.120   2.609  1.0894 -0.5788  1.6312
  210HK4    C2317628   1.142   0.261   2.557 -0.1781  0.3957  0.4196
  210HK4    H1017629   1.214   0.184   2.529  0.4577 -0.3708  3.8642
  210HK4    C3917630   1.397   0.387   2.410 -0.1780  0.0086 -0.3548
  210HK4    C4117631   1.387   0.252   2.371  0.5796 -0.1313 -0.0718
  210HK4    H2117632   1.291   0.218   2.330 -0.9335 -0.5948  3.6878
  210HK4    C4217633   1.501   0.181   2.331  0.6253  0.0780 -0.3169
  210HK4    H2217634   1.489   0.079   2.293  1.3059 -0.2365  0.2903
  210HK4    C4317635   1.627   0.239   2.338  0.7309 -0.2139  0.2589
  210HK4    H2317636   1.709   0.169   2.325 -0.1645 -1.2062 -0.1199
  210HK4    C4417637   1.641   0.372   2.376  0.1579  0.0112 -0.2951
  210HK4    H2417638   1.736   0.421   2.353  1.2003 -0.4558  2.6934
  210HK4    C4517639   1.527   0.440   2.417 -0.0292 -0.3774 -0.1639
  210HK4    H2517640   1.542   0.540   2.460 -0.9554 -0.0046 -0.6974
  211HK4    H2817641   7.472  11.199   8.666  1.1748 -0.9570  0.0027
  211HK4    C4817642   7.517   0.045   8.697 -0.0645 -0.2123 -0.4145
  211HK4    C4717643   7.650   0.085   8.688  0.0144 -0.2071  0.7037
  211HK4    H2717644   7.731   0.025   8.644  1.3245  0.4727  2.1431
  211HK4    C4617645   7.687   0.213   8.727  0.0333  0.1005 -0.3210
  211HK4    H2617646   7.792   0.245   8.715  0.2899 -0.5251  0.2210
  211HK4    C4017647   7.598   0.315   8.766  0.2485  0.5030 -0.8708
  211HK4    C5017648   7.463   0.275   8.761  0.4478 -0.2454 -0.3501
  211HK4    H3017649   7.385   0.344   8.796 -2.4517 -2.2414 -2.5896
  211HK4    C4917650   7.425   0.146   8.726  0.0456 -0.0734 -0.5492
  211HK4    H2917651   7.317   0.129   8.717 -0.1793  0.5199  0.9945
  211HK4     N217652   7.637   0.421   8.849 -0.0654 -0.1502  0.1193
  211HK4    C3017653   7.762   0.435   8.913 -0.4213  0.4483  0.6928
  211HK4    C2917654   7.852   0.344   8.967 -0.5494 -0.0739  0.0239
  211HK4    H1517655   7.859   0.242   8.929  0.3864  0.5002 -1.4020
  211HK4    C2817656   7.958   0.381   9.048 -0.8959 -0.1448  0.5082
  211HK4    C2717657   7.967   0.517   9.081  0.2799 -0.2291  0.5909
  211HK4    H1417658   8.025   0.542   9.171  3.2956 -4.0741 -0.1862
  211HK4    C3217659   7.885   0.614   9.023  0.2636 -0.2879  0.5160
  211HK4    H1617660   7.907   0.720   9.037 -0.9303 -0.2321  2.0600
  211HK4    C3117661   7.779   0.576   8.941  0.1792  0.4546  0.2795
  211HK4    C3417662   7.659   0.646   8.902  0.4020  0.4291 -0.4598
  211HK4    C3317663   7.573   0.547   8.840  0.6119  0.1660 -0.3259
  211HK4    C3517664   7.459   0.598   8.778 -0.0785 -0.1885  0.6359
  211HK4    H1717665   7.407   0.538   8.704 -0.2798 -0.4780  1.0066
  211HK4    C3617666   7.412   0.728   8.795  0.2321 -0.0095  0.1250
  211HK4    H1817667   7.331   0.770   8.733 -2.2710  0.6560  3.6711
  211HK4    C3717668   7.489   0.813   8.872 -0.1213 -0.2531  0.7518
  211HK4    H1917669   7.460   0.916   8.895  0.5475  0.1970 -0.3498
  211HK4    C3817670   7.612   0.775   8.925  0.1050  0.1442  0.5181
  211HK4    H2017671   7.664   0.834   9.001 -1.8672 -0.0016  2.0494
  211HK4    C1417672   8.021   0.280   9.134  0.0057 -0.2415 -0.2526
  211HK4     C917673   8.061   0.307   9.266  0.1471  0.6681 -0.4792
  211HK4     C817674   8.184   0.269   9.323 -0.1558  0.3335 -0.0424
  211HK4    C1117675   8.268   0.190   9.244  0.1433  0.2930  0.3158
  211HK4     H417676   8.368   0.158   9.277 -0.8948 -1.1553  2.2119
  211HK4    C1217677   8.223   0.142   9.122  0.3699  0.1232  0.3009
  211HK4     H517678   8.280   0.065   9.067  0.2936  0.5651 -0.4016
  211HK4    C1317679   8.103   0.186   9.068  0.2718 -0.3045  0.1598
  211HK4     H617680   8.084   0.163   8.962  0.4877  0.7020 -0.1046
  211HK4     C717681   8.228   0.324   9.453 -0.2850 -0.3026  0.2738
  211HK4     O217682   8.348   0.342   9.474 -0.2910  0.1150 -0.0386
  211HK4     C417683   8.129   0.407   9.524 -0.3439 -0.0608 -0.0934
  211HK4     C317684   8.169   0.449   9.650 -0.5437 -0.7069  0.1849
  211HK4     H317685   8.258   0.420   9.708  0.8850 -1.6461 -2.3968
  211HK4     C217686   8.092   0.543   9.718  0.2783  0.2611 -0.2321
  211HK4     H217687   8.128   0.585   9.813  1.4611 -0.3952 -0.3817
  211HK4     C117688   7.977   0.596   9.661 -0.3254 -0.7318  0.0499
  211HK4     H117689   7.923   0.668   9.723 -1.4567  1.6511 -3.5145
  211HK4     C617690   7.931   0.552   9.535 -0.4095 -0.4501 -0.0186
  211HK4     C517691   8.005   0.451   9.472 -0.7162 -0.7866  0.1505
  211HK4    C1017692   7.962   0.383   9.347 -0.3104  0.0446 -0.4471
  211HK4     O117693   7.847   0.341   9.344 -0.1037 -0.5591 -0.0455
  211HK4    C1617694   7.843   0.647   9.465 -0.0239  0.2284  0.4223
  211HK4    C1517695   7.862   0.787   9.464  0.3631  0.1728  0.1025
  211HK4     H717696   7.955   0.831   9.502  0.7194 -1.1630  0.8185
  211HK4    C2017697   7.776   0.881   9.409 -0.2526 -0.1409  0.5248
  211HK4     H917698   7.797   0.984   9.439  0.6739  0.0480 -0.7254
  211HK4    C1917699   7.652   0.837   9.364  0.1904 -0.2254 -0.6317
  211HK4    C1817700   7.621   0.695   9.373 -0.4768 -0.0353  0.1159
  211HK4    C1717701   7.717   0.607   9.422 -0.0072  0.4829  0.1332
  211HK4     H817702   7.683   0.506   9.441 -1.8507  0.6767 -2.0478
  211HK4     N117703   7.487   0.677   9.334 -0.3371 -0.2339 -0.2829
  211HK4    C2117704   7.431   0.804   9.310  0.2133  0.1227  0.3085
  211HK4    C2217705   7.532   0.907   9.325  0.1989  0.1730  0.0724
  211HK4    C2617706   7.503   1.039   9.292 -0.2353  0.0750  0.0591
  211HK4    H1317707   7.570   1.123   9.312  0.3951  0.0738 -1.8987
  211HK4    C2517708   7.374   1.065   9.246  0.1142  0.4277 -0.7441
  211HK4    H1217709   7.346   1.169   9.226  0.3540  0.6347 -0.0339
  211HK4    C2417710   7.281   0.965   9.226  0.4478 -0.1160  0.3630
  211HK4    H1117711   7.175   0.988   9.206  0.4685 -1.7345 -1.8125
  211HK4    C2317712   7.309   0.831   9.250  0.3396 -0.2231 -0.1041
  211HK4    H1017713   7.233   0.756   9.226  0.3965 -1.2631  2.7698
  211HK4    C3917714   7.427   0.557   9.292  0.1390 -0.5854  0.0403
  211HK4    C4117715   7.289   0.534   9.285  0.1355 -0.6730  0.3913
  211HK4    H2117716   7.215   0.579   9.354  1.2886  1.4945  0.2699
  211HK4    C4217717   7.241   0.425   9.214 -0.1707 -0.3282  0.0673
  211HK4    H2217718   7.132   0.416   9.202 -0.1180  0.0707 -0.7317
  211HK4    C4317719   7.327   0.334   9.155 -0.2083 -0.2174 -0.1594
  211HK4    H2317720   7.290   0.256   9.088  0.0488  0.7858 -1.4893
  211HK4    C4417721   7.465   0.348   9.165 -0.2823  0.1311  0.4051
  211HK4    H2417722   7.531   0.284   9.105 -0.1047 -1.1863  1.9726
  211HK4    C4517723   7.511   0.462   9.231  0.7408 -0.0840  0.0710
  211HK4    H2517724   7.617   0.488   9.216  0.3257  1.8357  0.3932
  212HK4    H2817725   2.745   5.748   3.976  1.7445  1.2369 -0.6257
  212HK4    C4817726   2.810   5.722   4.060 -0.4149 -0.3784  0.5905
  212HK4    C4717727   2.880   5.602   4.061 -0.4706 -0.4190 -0.0982
  212HK4    H2717728   2.874   5.540   3.970  3.1304  0.8391 -1.3134
  212HK4    C4617729   2.970   5.578   4.164 -0.3457  0.3102 -0.0315
  212HK4    H2617730   3.021   5.480   4.169  1.3083  0.9485 -3.0775
  212HK4    C4017731   2.987   5.667   4.272 -0.0208  0.1883  0.0198
  212HK4    C5017732   2.914   5.788   4.270 -0.0440  0.1717 -0.1357
  212HK4    H3017733   2.917   5.853   4.358 -0.5647  1.3382 -0.9698
  212HK4    C4917734   2.837   5.817   4.158 -0.8033 -0.0036  0.3376
  212HK4    H2917735   2.780   5.911   4.154 -0.6990  0.1104  1.5413
  212HK4     N217736   3.045   5.632   4.394  0.0531  0.1640 -0.0213
  212HK4    C3017737   3.054   5.500   4.443  0.0950  0.0046 -0.4649
  212HK4    C2917738   2.966   5.393   4.440  0.1394 -0.0453 -0.0246
  212HK4    H1517739   2.875   5.416   4.384  0.5012  1.8803  0.1668
  212HK4    C2817740   2.986   5.269   4.500  0.1008  0.2197  0.5322
  212HK4    C2717741   3.110   5.255   4.566  0.0350 -0.0027  0.6094
  212HK4    H1417742   3.151   5.158   4.599  1.0856  0.4499  0.6225
  212HK4    C3217743   3.203   5.358   4.575  0.1392  0.0300 -0.7540
  212HK4    H1617744   3.290   5.345   4.639  0.1126  3.9119  0.1647
  212HK4    C3117745   3.176   5.482   4.519 -0.4110  0.4705  0.4683
  212HK4    C3417746   3.238   5.613   4.527  0.1880  0.2392 -0.2915
  212HK4    C3317747   3.156   5.701   4.446  0.0272  0.2647 -0.1007
  212HK4    C3517748   3.169   5.837   4.472  0.1634  0.2384 -0.0222
  212HK4    H1717749   3.093   5.902   4.430  0.8755  0.1398 -1.5330
  212HK4    C3617750   3.261   5.880   4.567 -0.8183  0.5777  0.7727
  212HK4    H1817751   3.272   5.989   4.584 -1.0615  1.1503 -2.4623
  212HK4    C3717752   3.335   5.796   4.649 -0.5407 -0.2231 -0.2978
  212HK4    H1917753   3.406   5.829   4.724 -0.9666 -0.9018  0.4166
  212HK4    C3817754   3.326   5.659   4.624 -0.1949 -0.3645  0.3497
  212HK4    H2017755   3.379   5.590   4.689  2.0594  0.3602 -0.6841
  212HK4    C1417756   2.872   5.185   4.540  0.3358 -0.4406 -0.1665
  212HK4     C917757   2.865   5.123   4.666 -0.9090  0.4277  0.1951
  212HK4     C817758   2.804   4.996   4.669 -0.1092  0.0438  0.3247
  212HK4    C1117759   2.738   4.947   4.557  1.0318 -0.1731 -0.2603
  212HK4     H417760   2.696   4.845   4.551  1.0445 -0.2139  0.2462
  212HK4    C1217761   2.725   5.023   4.442  0.1116  0.0259 -0.0330
  212HK4     H517762   2.675   4.973   4.357  1.5085  0.3499 -1.0672
  212HK4    C1317763   2.798   5.140   4.429 -0.1928  0.2097 -0.0778
  212HK4     H617764   2.775   5.206   4.344 -0.2530  0.5688  0.2175
  212HK4     C717765   2.811   4.916   4.793  0.0838  0.0359  0.3082
  212HK4     O217766   2.735   4.820   4.808 -0.0730  0.1269  0.0817
  212HK4     C417767   2.886   4.965   4.911 -0.0988  0.2516  0.3336
  212HK4     C317768   2.909   4.882   5.020 -0.1461  0.4880  0.5256
  212HK4     H317769   2.861   4.783   5.026  0.6571 -0.0057 -0.8559
  212HK4     C217770   3.001   4.907   5.121  0.1601 -0.5102  0.5025
  212HK4     H217771   3.000   4.848   5.213  0.3035  0.3902  1.0848
  212HK4     C117772   3.083   5.018   5.103 -0.2529 -0.3502 -0.4298
  212HK4     H117773   3.172   5.041   5.163  0.1964 -0.5841 -1.0027
  212HK4     C617774   3.063   5.113   5.000 -0.0469  0.0957 -0.0599
  212HK4     C517775   2.963   5.083   4.906 -0.0442  0.1993 -0.0963
  212HK4    C1017776   2.930   5.172   4.791  0.0590  0.1237 -0.1849
  212HK4     O117777   2.902   5.289   4.818 -0.3220  0.0623 -0.3038
  212HK4    C1617778   3.177   5.199   4.967 -0.0636 -0.0037 -0.3771
  212HK4    C1517779   3.306   5.141   4.970 -0.3369 -0.5812  0.2891
  212HK4     H717780   3.324   5.034   4.954  1.3024 -0.6157  2.1261
  212HK4    C2017781   3.421   5.219   4.968 -0.5865 -0.2161  0.0382
  212HK4     H917782   3.523   5.180   4.976 -0.7139 -0.7855 -1.0097
  212HK4    C1917783   3.413   5.358   4.963  0.2103 -0.1946 -0.7343
  212HK4    C1817784   3.282   5.419   4.960  0.1633 -0.2783 -0.3957
  212HK4    C1717785   3.170   5.337   4.953 -0.0455  0.0011 -0.3327
  212HK4     H817786   3.072   5.386   4.955 -0.5040 -0.9023  0.1370
  212HK4     N117787   3.289   5.559   4.977 -0.2381 -0.2693 -0.3017
  212HK4    C2117788   3.427   5.587   4.981 -0.2840 -0.0928  0.1635
  212HK4    C2217789   3.508   5.467   4.970 -0.0975 -0.0037  0.5952
  212HK4    C2617790   3.646   5.484   4.969 -0.0465 -0.4240  0.5139
  212HK4    H1317791   3.701   5.393   4.945  1.0876  0.6865 -1.2435
  212HK4    C2517792   3.702   5.611   4.972 -0.6774 -0.1344  0.1587
  212HK4    H1217793   3.809   5.622   4.954 -0.6851  0.1595  0.2872
  212HK4    C2417794   3.627   5.726   4.996  0.1130  0.3615  0.2859
  212HK4    H1117795   3.670   5.827   4.998  1.3778 -0.2135  2.9639
  212HK4    C2317796   3.489   5.710   4.997  0.1689 -0.2285 -0.5134
  212HK4    H1017797   3.434   5.804   4.999 -2.0851 -1.5090 -0.1715
  212HK4    C3917798   3.186   5.652   4.960  0.1016  0.0256 -0.7295
  212HK4    C4117799   3.184   5.775   5.029  0.3033 -0.5139  0.2444
  212HK4    H2117800   3.238   5.792   5.124 -0.1981  1.2356  0.2400
  212HK4    C4217801   3.092   5.871   4.988  0.2883 -0.4424  0.4415
  212HK4    H2217802   3.086   5.962   5.049 -0.4223  0.7418 -1.3569
  212HK4    C4317803   3.032   5.860   4.863 -0.0855 -0.1422  0.5921
  212HK4    H2317804   2.984   5.950   4.824  0.3052 -0.7834 -1.4126
  212HK4    C4417805   3.036   5.741   4.791 -0.4389 -0.0031  0.3389
  212HK4    H2417806   2.969   5.735   4.704  1.4786  1.1750 -1.2773
  212HK4    C4517807   3.112   5.636   4.842  0.2951 -0.0549 -0.8408
  212HK4    H2517808   3.090   5.545   4.785 -1.2859 -0.3294  0.1912
  213HK4    H2817809   7.305   2.453  10.150  0.6792  0.8927  0.0887
  213HK4    C4817810   7.370   2.378  10.194 -0.4762  0.2112  0.6386
  213HK4    C4717811   7.449   2.406  10.306  0.4431 -0.2590  0.1135
  213HK4    H2717812   7.445   2.511  10.339  1.9735  0.7622 -2.7108
  213HK4    C4617813   7.515   2.305  10.375 -0.2781 -0.5571  0.3681
  213HK4    H2617814   7.544   2.322  10.480 -1.1230  3.4314  0.0618
  213HK4    C4017815   7.516   2.177  10.317 -0.2935 -0.3248 -0.1537
  213HK4    C5017816   7.432   2.145  10.209 -0.5805 -0.1159  0.0052
  213HK4    H3017817   7.399   2.041  10.195  0.5171 -0.7350  1.8976
  213HK4    C4917818   7.365   2.248  10.145  0.3064  0.4366 -0.0467
  213HK4    H2917819   7.330   2.241  10.041 -0.4030 -0.3155  0.2366
  213HK4     N217820   7.627   2.095  10.345  0.0859  0.0732 -0.4907
  213HK4    C3017821   7.747   2.147  10.398 -0.2389  0.2783  0.0559
  213HK4    C2917822   7.807   2.270  10.375 -0.3467  0.1497 -0.9373
  213HK4    H1517823   7.746   2.351  10.337  0.1887  0.7794 -0.4582
  213HK4    C2817824   7.939   2.290  10.414 -0.2705 -0.5380 -0.8337
  213HK4    C2717825   8.005   2.196  10.496 -0.1418 -0.7247 -1.1481
  213HK4    H1417826   8.099   2.217  10.548 -1.2327  0.3563  0.4224
  213HK4    C3217827   7.941   2.074  10.520 -0.5209 -0.1126  1.0143
  213HK4    H1617828   8.000   1.999  10.572  0.2297 -0.5665 -0.4602
  213HK4    C3117829   7.816   2.041  10.470  0.0156  0.0747 -0.4818
  213HK4    C3417830   7.735   1.922  10.451 -0.1906  0.2047 -0.4138
  213HK4    C3317831   7.623   1.956  10.366 -0.3373  0.1201 -0.2550
  213HK4    C3517832   7.551   1.853  10.306 -0.5012  0.2197 -0.2280
  213HK4    H1717833   7.464   1.872  10.242  0.3581  0.1347 -1.4342
  213HK4    C3617834   7.574   1.720  10.336  0.2517  0.3533 -0.2074
  213HK4    H1817835   7.525   1.635  10.286  0.5638 -0.0041  0.0884
  213HK4    C3717836   7.674   1.690  10.428 -0.0465 -0.1852 -0.0562
  213HK4    H1917837   7.697   1.583  10.438 -2.3229 -0.6735  0.3297
  213HK4    C3817838   7.750   1.789  10.489 -0.4279  0.2241 -0.2515
  213HK4    H2017839   7.816   1.771  10.573 -1.7477  0.9838  0.9596
  213HK4    C1417840   8.012   2.380  10.322 -0.2415  0.2010 -0.0855
  213HK4     C917841   8.139   2.351  10.271 -0.2126  0.4431 -0.1565
  213HK4     C817842   8.224   2.458  10.239  0.5336 -0.0564  0.1572
  213HK4    C1117843   8.170   2.586  10.244  0.5045 -0.0708  0.1951
  213HK4     H417844   8.232   2.667  10.203  1.3895 -2.2315 -2.9667
  213HK4    C1217845   8.046   2.622  10.295  0.4133 -0.0962 -0.0019
  213HK4     H517846   8.007   2.724  10.309 -0.7696 -0.8435  2.2981
  213HK4    C1317847   7.971   2.514  10.339 -0.0707  0.2412  0.0076
  213HK4     H617848   7.887   2.553  10.397  0.7414  0.5175  1.0022
  213HK4     C717849   8.356   2.446  10.172  0.3614 -0.0295 -0.1928
  213HK4     O217850   8.445   2.530  10.184  0.3159 -0.0628  0.3830
  213HK4     C417851   8.381   2.316  10.106 -0.2500 -0.1838 -0.1215
  213HK4     C317852   8.503   2.304  10.042 -0.2304  0.4287 -0.2006
  213HK4     H317853   8.574   2.387  10.029  0.0137  0.2142 -0.2532
  213HK4     C217854   8.535   2.184   9.980 -0.4897  0.2949 -0.0761
  213HK4     H217855   8.634   2.155   9.941  0.0600  1.0414  0.7423
  213HK4     C117856   8.443   2.080   9.975  0.0458 -0.1915  0.1284
  213HK4     H117857   8.477   1.981   9.943 -0.6141 -0.6777  0.9007
  213HK4     C617858   8.317   2.095  10.038  0.3544 -0.6684  0.8596
  213HK4     C517859   8.290   2.208  10.116 -0.4802 -0.0129 -0.3759
  213HK4    C1017860   8.175   2.220  10.210  0.2516  0.2668  0.4944
  213HK4     O117861   8.119   2.115  10.241  0.1513  0.0195 -0.4883
  213HK4    C1617862   8.214   1.998   9.997 -0.0731 -0.1964  0.8251
  213HK4    C1517863   8.245   1.862   9.983 -0.0660 -0.1216  0.0857
  213HK4     H717864   8.324   1.822  10.048 -0.9376 -1.9590  0.0536
  213HK4    C2017865   8.158   1.768   9.928 -0.2162 -0.1623  0.3826
  213HK4     H917866   8.183   1.662   9.928  0.6651  0.0401  0.9850
  213HK4    C1917867   8.035   1.809   9.879  0.1180  0.2619 -0.1157
  213HK4    C1817868   8.001   1.949   9.888 -0.0461  0.2243 -0.1616
  213HK4    C1717869   8.091   2.038   9.946 -0.1868 -0.3616  0.9726
  213HK4     H817870   8.064   2.140   9.972  0.0531 -0.2949  0.9605
  213HK4     N117871   7.893   1.980   9.802 -0.1760  0.0775 -0.0526
  213HK4    C2117872   7.853   1.859   9.742  0.3865  0.0879 -0.4550
  213HK4    C2217873   7.943   1.753   9.781 -0.0561 -0.0416  0.2183
  213HK4    C2617874   7.934   1.626   9.726  0.3320  0.3418 -0.7432
  213HK4    H1317875   7.959   1.541   9.790 -1.1184 -0.5024 -1.2703
  213HK4    C2517876   7.843   1.603   9.624 -0.2132 -0.2547 -0.1305
  213HK4    H1217877   7.811   1.506   9.584  2.3774 -1.4560  0.6118
  213HK4    C2417878   7.758   1.706   9.586  0.1180 -0.1746 -0.6568
  213HK4    H1117879   7.686   1.696   9.504 -0.1379  1.3663 -0.6342
  213HK4    C2317880   7.758   1.832   9.644  0.4503 -0.2823 -0.4186
  213HK4    H1017881   7.674   1.901   9.632 -0.7445 -1.2495  1.9510
  213HK4    C3917882   7.811   2.088   9.837 -0.4504 -0.1767  0.0861
  213HK4    C4117883   7.726   2.133   9.735 -0.1932 -0.0096 -0.0506
  213HK4    H2117884   7.756   2.110   9.631 -0.0773 -0.1477  0.0118
  213HK4    C4217885   7.623   2.222   9.767 -0.3868 -0.3285  0.2102
  213HK4    H2217886   7.580   2.265   9.676 -0.8258 -1.8816 -0.3361
  213HK4    C4317887   7.613   2.268   9.897  0.1258  0.6318 -0.0790
  213HK4    H2317888   7.555   2.359   9.909 -1.4362 -0.1090 -1.8447
  213HK4    C4417889   7.695   2.225  10.002 -0.0924  0.3881 -0.0058
  213HK4    H2417890   7.679   2.252  10.107 -0.4769 -1.4130  0.4090
  213HK4    C4517891   7.795   2.135   9.969 -0.0761  0.4347 -0.0817
  213HK4    H2517892   7.859   2.097  10.050 -0.5814 -1.4377 -0.5350
  214HK4    H2817893   6.905   5.344   6.657 -0.4138  0.3236  0.4431
  214HK4    C4817894   6.836   5.333   6.573 -0.1176 -0.0436  0.2443
  214HK4    C4717895   6.750   5.432   6.525  0.3192 -0.1020 -0.6739
  214HK4    H2717896   6.765   5.534   6.563  2.5728 -0.5321 -0.3411
  214HK4    C4617897   6.659   5.393   6.427 -0.1780  0.2838 -0.3641
  214HK4    H2617898   6.611   5.473   6.368  2.0747  0.2455 -2.3185
  214HK4    C4017899   6.649   5.262   6.376  0.0781  0.2713 -0.3874
  214HK4    C5017900   6.738   5.167   6.430 -0.4573 -0.0285 -0.0226
  214HK4    H3017901   6.739   5.063   6.395  1.5624  0.1149 -0.4728
  214HK4    C4917902   6.827   5.201   6.531 -0.2651  0.1182 -0.2428
  214HK4    H2917903   6.900   5.123   6.557 -0.8755  0.0296  1.2019
  214HK4     N217904   6.543   5.219   6.296  0.0521  0.2889 -0.3610
  214HK4    C3017905   6.419   5.283   6.278 -0.2548 -0.0617  0.4705
  214HK4    C2917906   6.354   5.377   6.358 -0.0420  0.7494 -0.3043
  214HK4    H1517907   6.406   5.411   6.447  1.4762 -0.6507 -0.6267
  214HK4    C2817908   6.219   5.407   6.342 -0.3643 -0.2376  0.4873
  214HK4    C2717909   6.150   5.347   6.234 -0.1821  0.3294  0.0519
  214HK4    H1417910   6.049   5.382   6.211  0.3804  2.1393  0.2427
  214HK4    C3217911   6.214   5.263   6.143 -0.0740 -0.0028  0.4348
  214HK4    H1617912   6.151   5.220   6.066 -0.6138 -0.6646  1.2316
  214HK4    C3117913   6.349   5.234   6.160 -0.0998 -0.1471  0.4148
  214HK4    C3417914   6.432   5.129   6.104  0.1747  0.4728 -0.3514
  214HK4    C3317915   6.554   5.137   6.182  0.0915  0.0366 -0.1756
  214HK4    C3517916   6.658   5.054   6.141 -0.1478 -0.2529 -0.1960
  214HK4    H1717917   6.754   5.063   6.192 -1.1753 -1.4940  2.0545
  214HK4    C3617918   6.646   4.969   6.031  0.2939 -0.0007 -0.4380
  214HK4    H1817919   6.737   4.930   5.983  0.2284  0.3340 -0.8418
  214HK4    C3717920   6.525   4.956   5.965  0.2360 -0.5731 -0.2193
  214HK4    H1917921   6.510   4.888   5.881 -2.7867  1.2575 -1.2495
  214HK4    C3817922   6.417   5.035   6.003  0.6586 -0.1912  0.1904
  214HK4    H2017923   6.329   5.035   5.939  0.7946 -2.9371 -0.0633
  214HK4    C1417924   6.148   5.489   6.441  0.0534  0.1593  0.4620
  214HK4     C917925   6.008   5.492   6.451  0.0004  0.0524 -0.2172
  214HK4     C817926   5.943   5.614   6.476  0.5759  0.2389  0.3918
  214HK4    C1117927   6.015   5.729   6.508  0.4679  0.4872 -0.2561
  214HK4     H417928   5.972   5.827   6.533  2.4678  0.9706  1.3551
  214HK4    C1217929   6.152   5.721   6.526  0.3748 -0.2501  0.1396
  214HK4     H517930   6.211   5.797   6.580  1.7181 -0.5727 -0.8337
  214HK4    C1317931   6.216   5.603   6.489  0.6500 -0.2321  0.5586
  214HK4     H617932   6.325   5.601   6.481  0.4939 -0.8842 -1.7758
  214HK4     C717933   5.796   5.622   6.483  0.5222  0.0562 -0.4828
  214HK4     O217934   5.737   5.720   6.530  0.0615 -0.5515  0.2134
  214HK4     C417935   5.720   5.500   6.449  0.2088  0.1312 -0.0503
  214HK4     C317936   5.589   5.527   6.412 -0.0311 -0.5858  0.2637
  214HK4     H317937   5.537   5.622   6.433  0.7818  0.0563 -0.5696
  214HK4     C217938   5.513   5.417   6.372 -0.0365 -0.2097 -0.7802
  214HK4     H217939   5.419   5.432   6.316  0.7871  1.4305 -1.7565
  214HK4     C117940   5.567   5.290   6.384  0.1577 -0.0282  0.3117
  214HK4     H117941   5.508   5.200   6.361  0.2703  0.1898 -0.8478
  214HK4     C617942   5.696   5.266   6.436  0.1178 -0.0493  0.4058
  214HK4     C517943   5.781   5.374   6.463  0.2150  0.0898 -0.4206
  214HK4    C1017944   5.930   5.365   6.462  0.2213 -0.0321  0.4084
  214HK4     O117945   5.990   5.271   6.514  0.4593  0.1456  0.4569
  214HK4    C1617946   5.730   5.123   6.444  0.3062 -0.0385 -0.1271
  214HK4    C1517947   5.685   5.032   6.347  0.0009  0.2752 -0.2803
  214HK4     H717948   5.674   5.070   6.244 -2.4113 -0.1372 -0.2159
  214HK4    C2017949   5.655   4.900   6.381 -0.1519  0.4744  0.3681
  214HK4     H917950   5.613   4.835   6.305 -0.2975 -2.4929  2.8965
  214HK4    C1917951   5.683   4.851   6.508 -0.0548  0.1691  0.2310
  214HK4    C1817952   5.735   4.943   6.608 -0.2298  0.3120  0.1922
  214HK4    C1717953   5.760   5.074   6.571  0.2609  0.1523 -0.0417
  214HK4     H817954   5.838   5.122   6.631  0.0650 -0.0417  0.3704
  214HK4     N117955   5.750   4.880   6.733 -0.4560 -0.1577 -0.0145
  214HK4    C2117956   5.726   4.743   6.707 -0.2774 -0.1855 -0.0373
  214HK4    C2217957   5.675   4.722   6.574 -0.0222 -0.0320 -0.1609
  214HK4    C2617958   5.661   4.593   6.523  0.2001  0.0211 -0.3552
  214HK4    H1317959   5.601   4.577   6.434 -1.2442  1.1674  0.3957
  214HK4    C2517960   5.695   4.489   6.608 -0.1382  0.2449  0.0542
  214HK4    H1217961   5.713   4.392   6.561 -0.0492  0.6527 -0.7530
  214HK4    C2417962   5.741   4.505   6.738  0.3789 -0.1315 -0.0813
  214HK4    H1117963   5.735   4.423   6.810 -2.4293  0.7667  0.7739
  214HK4    C2317964   5.759   4.634   6.787  0.3795 -0.0929 -0.1837
  214HK4    H1017965   5.793   4.658   6.887  0.4371  1.4307 -0.5579
  214HK4    C3917966   5.703   4.945   6.848  0.1176  0.1449  0.0503
  214HK4    C4117967   5.721   4.895   6.979  0.5200 -0.4511 -0.2286
  214HK4    H2117968   5.809   4.832   6.996  0.5565 -0.1314  0.7682
  214HK4    C4217969   5.658   4.949   7.090  0.3217 -0.2866 -0.4212
  214HK4    H2217970   5.678   4.910   7.191  0.1669  0.4630 -0.0996
  214HK4    C4317971   5.563   5.050   7.073  0.2507 -0.3247 -0.2505
  214HK4    H2317972   5.483   5.054   7.147  0.3070  0.7124 -0.2430
  214HK4    C4417973   5.538   5.098   6.945  0.0743  0.4362  0.0676
  214HK4    H2417974   5.493   5.198   6.945  1.3694  1.0618  2.4276
  214HK4    C4517975   5.607   5.048   6.836 -0.1286 -0.0692  0.1718
  214HK4    H2517976   5.592   5.104   6.743  1.6103 -1.6423 -1.1059
  215HK4    H2817977   3.723   8.538   5.407  3.5772 -1.9402  0.6078
  215HK4    C4817978   3.672   8.461   5.349  0.3413  0.3956  0.2319
  215HK4    C4717979   3.656   8.482   5.213 -0.0681 -0.0911  0.2068
  215HK4    H2717980   3.694   8.572   5.163  0.1488  0.4079  1.2707
  215HK4    C4617981   3.573   8.396   5.141  0.4555 -0.1138 -0.3825
  215HK4    H2617982   3.562   8.412   5.033  0.6052 -0.3959 -0.4382
  215HK4    C4017983   3.508   8.287   5.203  0.3746 -0.0050 -0.2764
  215HK4    C5017984   3.520   8.276   5.343  0.5008  0.2977 -0.2620
  215HK4    H3017985   3.448   8.221   5.406  0.0244  2.3885  1.0630
  215HK4    C4917986   3.602   8.362   5.416  0.4450  0.1501 -0.0261
  215HK4    H2917987   3.605   8.358   5.526  1.7890  0.4718 -0.0390
  215HK4     N217988   3.444   8.184   5.133  0.2624 -0.2209  0.1382
  215HK4    C3017989   3.472   8.134   5.004 -0.0852 -0.0568 -0.0037
  215HK4    C2917990   3.577   8.172   4.921 -0.0759 -0.0977 -0.0082
  215HK4    H1517991   3.652   8.242   4.958 -1.8856 -0.3075  4.3386
  215HK4    C2817992   3.598   8.108   4.799  0.4473 -0.3395  0.2067
  215HK4    C2717993   3.516   7.996   4.774 -0.1815  0.2799 -0.5118
  215HK4    H1417994   3.565   7.919   4.712 -1.3477 -1.6077  0.8692
  215HK4    C3217995   3.406   7.955   4.848 -0.0725  0.4185 -0.2743
  215HK4    H1617996   3.322   7.904   4.801  0.2025  0.0866 -0.4115
  215HK4    C3117997   3.386   8.024   4.967 -0.1858  0.0450 -0.0762
  215HK4    C3417998   3.290   8.016   5.076 -0.5491  0.9738 -0.3272
  215HK4    C3317999   3.324   8.120   5.171  0.3691 -0.1518  0.5903
  215HK4    C3518000   3.226   8.143   5.267  0.0452 -0.0644  0.2387
  215HK4    H1718001   3.242   8.230   5.329  2.6026  0.2366 -0.7997
  215HK4    C3618002   3.106   8.074   5.280 -0.1808  0.2959  0.0462
  215HK4    H1818003   3.033   8.110   5.354  0.3967  0.8056  0.3650
  215HK4    C3718004   3.084   7.966   5.195  0.4384  0.1096  0.1266
  215HK4    H1918005   2.996   7.903   5.200  2.1865 -2.5130 -0.7254
  215HK4    C3818006   3.176   7.939   5.094 -0.1293  0.3197 -0.4473
  215HK4    H2018007   3.154   7.858   5.025  0.1178  2.0404 -2.5887
  215HK4    C1418008   3.657   8.186   4.690 -0.0511 -0.3453 -0.0616
  215HK4     C918009   3.609   8.182   4.558 -0.0493 -0.6254 -0.0533
  215HK4     C818010   3.696   8.188   4.448 -0.0655  0.4059 -0.0141
  215HK4    C1118011   3.831   8.200   4.477  0.0129  0.1436 -0.2705
  215HK4     H418012   3.905   8.223   4.398 -0.5466  3.1448  0.0183
  215HK4    C1218013   3.882   8.205   4.606 -0.0563  0.8641 -0.2697
  215HK4     H518014   3.986   8.174   4.618 -0.2969  0.1789  0.0822
  215HK4    C1318015   3.794   8.209   4.714 -0.0758 -0.0065 -0.2514
  215HK4     H618016   3.826   8.241   4.814 -0.7932  0.1797 -0.0813
  215HK4     C718017   3.643   8.193   4.309 -0.2059  0.7326  0.0513
  215HK4     O218018   3.718   8.205   4.212  0.0754  0.3481  0.2182
  215HK4     C418019   3.497   8.190   4.286 -0.1741  0.3351 -0.0940
  215HK4     C318020   3.445   8.178   4.158 -0.7996 -0.1748  0.2068
  215HK4     H318021   3.501   8.231   4.079  0.9316 -2.3900 -0.0689
  215HK4     C218022   3.317   8.132   4.127 -0.7345  0.0871 -0.4810
  215HK4     H218023   3.270   8.138   4.028 -0.0778 -1.4329 -0.9021
  215HK4     C118024   3.234   8.109   4.237 -0.1699  0.2581 -0.0163
  215HK4     H118025   3.127   8.097   4.216 -0.0183 -0.0388 -0.6291
  215HK4     C618026   3.279   8.120   4.370  0.0077  0.1082 -0.0640
  215HK4     C518027   3.411   8.160   4.393 -0.0621  0.3091 -0.0132
  215HK4    C1018028   3.462   8.185   4.531 -0.0428  0.1661  0.0067
  215HK4     O118029   3.387   8.246   4.607 -0.7206 -0.4067 -0.2055
  215HK4    C1618030   3.215   8.019   4.455 -0.4940 -0.0889 -0.6728
  215HK4    C1518031   3.209   7.885   4.411 -0.2664 -0.3070 -0.0531
  215HK4     H718032   3.265   7.863   4.319 -0.8165  1.2682 -0.7765
  215HK4    C2018033   3.145   7.789   4.489 -0.3011 -0.1577  0.1057
  215HK4     H918034   3.131   7.689   4.448  0.1726 -0.2048  0.0585
  215HK4    C1918035   3.100   7.828   4.614 -0.2633 -0.6218  0.2632
  215HK4    C1818036   3.095   7.966   4.658  0.0353 -0.4259 -0.3051
  215HK4    C1718037   3.150   8.060   4.571 -0.0761 -0.3870 -0.3305
  215HK4     H818038   3.109   8.160   4.569  0.7718 -0.0345 -0.3478
  215HK4     N118039   3.017   7.986   4.773  0.3477 -0.1497 -0.1391
  215HK4    C2118040   2.970   7.857   4.809  0.4008 -0.1348 -0.0185
  215HK4    C2218041   3.014   7.761   4.710 -0.6389 -0.5889 -0.0482
  215HK4    C2618042   2.985   7.626   4.722 -0.0589 -0.7087  0.0529
  215HK4    H1318043   3.036   7.554   4.658  1.3493 -0.3103  0.7147
  215HK4    C2518044   2.906   7.583   4.828 -0.5117 -0.5477 -0.2206
  215HK4    H1218045   2.873   7.479   4.841 -3.7072  0.4234 -0.1225
  215HK4    C2418046   2.847   7.672   4.916  0.3837  0.0937 -0.2733
  215HK4    H1118047   2.764   7.638   4.980 -0.4633  0.7477 -1.0076
  215HK4    C2318048   2.875   7.807   4.897  0.3062  0.1559  0.0456
  215HK4    H1018049   2.818   7.879   4.956 -0.9300 -1.0002  0.2814
  215HK4    C3918050   2.993   8.111   4.831 -0.1016 -0.2745 -0.0439
  215HK4    C4118051   2.868   8.134   4.893  0.1120 -0.3067  0.4002
  215HK4    H2118052   2.774   8.103   4.845  0.3222  0.0157 -0.2229
  215HK4    C4218053   2.856   8.218   5.003 -0.4326 -0.2329  0.2833
  215HK4    H2218054   2.756   8.230   5.048  0.2660  1.3663  1.4468
  215HK4    C4318055   2.965   8.289   5.052 -0.1007 -0.5641  0.0252
  215HK4    H2318056   2.960   8.322   5.155 -3.4949 -0.5539 -0.0840
  215HK4    C4418057   3.087   8.281   4.986 -0.2920  0.3656 -0.4534
  215HK4    H2418058   3.167   8.351   5.012  1.5706 -2.4826  1.8120
  215HK4    C4518059   3.099   8.188   4.883 -0.1421 -0.4244  0.2646
  215HK4    H2518060   3.197   8.190   4.832 -0.0015 -1.5447  0.4913
  216HK4    H2818061   5.488   6.342   4.314 -0.5822 -0.0377 -0.1692
  216HK4    C4818062   5.495   6.412   4.231 -0.0581 -0.5165 -0.5372
  216HK4    C4718063   5.379   6.470   4.182 -0.1605 -0.3213 -0.0627
  216HK4    H2718064   5.279   6.428   4.205 -0.9928  1.4131 -0.4112
  216HK4    C4618065   5.395   6.571   4.088  0.3806 -0.6374 -0.3121
  216HK4    H2618066   5.299   6.615   4.055  0.8157  1.3114  0.9253
  216HK4    C4018067   5.516   6.618   4.032  0.0519  0.3274 -0.2282
  216HK4    C5018068   5.629   6.554   4.087 -0.1459  0.0306 -0.1626
  216HK4    H3018069   5.730   6.563   4.044  0.0693  0.0120  0.3401
  216HK4    C4918070   5.619   6.456   4.185 -0.1120 -0.1061 -0.2942
  216HK4    H2918071   5.712   6.423   4.233 -0.1342  0.9030  0.4451
  216HK4     N218072   5.538   6.689   3.914  0.2450 -0.2358 -0.5337
  216HK4    C3018073   5.446   6.705   3.807 -0.0869  0.0139 -0.2111
  216HK4    C2918074   5.326   6.639   3.783  0.2591 -0.7165  0.0189
  216HK4    H1518075   5.314   6.539   3.823 -1.9633  0.3946  2.2876
  216HK4    C2818076   5.222   6.686   3.703  0.7153 -0.6100 -0.5149
  216HK4    C2718077   5.249   6.802   3.627 -0.1540 -0.0067  0.0870
  216HK4    H1418078   5.174   6.851   3.563  1.1938  1.2938 -0.5371
  216HK4    C3218079   5.378   6.855   3.629 -0.0544 -0.2432  0.0309
  216HK4    H1618080   5.392   6.935   3.557 -1.9182 -0.1892 -0.3018
  216HK4    C3118081   5.476   6.816   3.720  0.2550 -0.1003 -0.2425
  216HK4    C3418082   5.600   6.874   3.768  0.6638 -0.8467 -0.3869
  216HK4    C3318083   5.624   6.797   3.888  0.4797 -0.2932  0.0087
  216HK4    C3518084   5.717   6.840   3.982 -0.0686 -0.1239  0.4756
  216HK4    H1718085   5.722   6.796   4.081  3.0275  0.9498  0.8566
  216HK4    C3618086   5.793   6.953   3.951  0.3318 -0.5374 -0.0507
  216HK4    H1818087   5.862   6.997   4.024 -0.0158 -0.0846  0.0032
  216HK4    C3718088   5.771   7.021   3.832 -0.0346 -0.8835 -0.1832
  216HK4    H1918089   5.823   7.117   3.823 -0.7467 -0.3656  1.0880
  216HK4    C3818090   5.670   6.991   3.741 -0.4352 -0.0962 -0.0043
  216HK4    H2018091   5.642   7.062   3.663 -0.3758 -0.0437  0.0223
  216HK4    C1418092   5.099   6.607   3.698  0.4485 -0.2085 -0.4093
  216HK4     C918093   5.003   6.600   3.596 -0.0051  1.0434 -0.0770
  216HK4     C818094   4.877   6.540   3.614  0.4310  0.0548 -0.2669
  216HK4    C1118095   4.852   6.482   3.738  0.3395  0.0156 -0.3037
  216HK4     H418096   4.771   6.408   3.745 -1.4520  1.9854  0.1707
  216HK4    C1218097   4.940   6.485   3.845 -0.2886  0.4877  0.2026
  216HK4     H518098   4.905   6.447   3.943 -3.4683 -0.4867 -1.2452
  216HK4    C1318099   5.063   6.545   3.820 -0.1448 -0.1139 -0.5363
  216HK4     H618100   5.117   6.561   3.914 -0.1685 -0.4837 -0.4614
  216HK4     C718101   4.771   6.545   3.511  0.1547 -0.4941 -0.0185
  216HK4     O218102   4.678   6.466   3.522 -0.3484  0.0884 -0.0595
  216HK4     C418103   4.796   6.626   3.389  0.0775 -0.3493  0.0607
  216HK4     C318104   4.688   6.642   3.304  0.1885 -0.1551 -0.0463
  216HK4     H318105   4.616   6.561   3.283 -2.2437  1.1170  2.9666
  216HK4     C218106   4.685   6.753   3.221  0.4575 -0.4726 -0.4837
  216HK4     H218107   4.592   6.768   3.164  0.1961  0.9362  0.2923
  216HK4     C118108   4.797   6.835   3.223  0.4076 -0.4091 -0.2095
  216HK4     H118109   4.783   6.925   3.162 -0.9709  0.2930  1.1062
  216HK4     C618110   4.915   6.817   3.298  0.1124  0.4964  0.4744
  216HK4     C518111   4.915   6.700   3.375 -0.3325  0.3523  0.2611
  216HK4    C1018112   5.029   6.661   3.463  0.1543  0.0802 -0.4908
  216HK4     O118113   5.130   6.624   3.402  0.3355  0.6940 -0.5578
  216HK4    C1618114   4.991   6.940   3.328  0.3086  0.3436  0.6033
  216HK4    C1518115   4.922   7.063   3.331 -0.4276 -0.0510  0.2088
  216HK4     H718116   4.814   7.079   3.321 -0.2347  1.1887  0.0490
  216HK4    C2018117   4.992   7.181   3.352 -0.0783 -0.3659  0.8171
  216HK4     H918118   4.935   7.265   3.392  0.4038  1.0889 -1.4239
  216HK4    C1918119   5.131   7.183   3.360 -0.0363  0.1273  0.0522
  216HK4    C1818120   5.203   7.061   3.328 -0.0838  0.0157  0.3751
  216HK4    C1718121   5.129   6.944   3.326  0.3221 -0.2328 -0.3901
  216HK4     H818122   5.181   6.858   3.283 -2.6035 -1.8585 -0.7885
  216HK4     N118123   5.342   7.078   3.345 -0.0748 -0.0591  0.3746
  216HK4    C2118124   5.361   7.208   3.396  0.0871 -0.0464  0.2813
  216HK4    C2218125   5.234   7.278   3.398  0.0741 -0.0678  0.2352
  216HK4    C2618126   5.224   7.408   3.445  0.0998 -0.2825  0.8527
  216HK4    H1318127   5.130   7.462   3.442 -1.4869 -3.0102  0.3066
  216HK4    C2518128   5.338   7.478   3.483  0.0589  0.4441 -0.3183
  216HK4    H1218129   5.346   7.582   3.516 -0.1530  0.0299  1.0917
  216HK4    C2418130   5.461   7.412   3.475 -0.2178 -0.1848  0.5656
  216HK4    H1118131   5.551   7.475   3.472  0.8778 -1.7532 -0.0366
  216HK4    C2318132   5.474   7.280   3.432  0.0971 -0.0627  0.2801
  216HK4    H1018133   5.570   7.243   3.396  1.5086 -0.3962  4.1637
  216HK4    C3918134   5.435   7.004   3.271  0.0711  0.0008  0.4988
  216HK4    C4118135   5.564   6.991   3.327  0.1593 -0.8135  0.1225
  216HK4    H2118136   5.586   6.995   3.435  0.3080  2.4988  0.0356
  216HK4    C4218137   5.682   6.989   3.253  0.1149 -0.7454  0.0499
  216HK4    H2218138   5.784   6.996   3.294 -0.1195 -0.7313  0.6381
  216HK4    C4318139   5.669   6.977   3.116 -0.1931  0.1677 -0.0042
  216HK4    H2318140   5.757   6.999   3.054 -0.7415 -0.4971 -1.0329
  216HK4    C4418141   5.545   6.967   3.055 -0.1045 -0.8223 -0.0223
  216HK4    H2418142   5.540   6.945   2.948  0.4505 -0.6703 -0.0751
  216HK4    C4518143   5.430   6.977   3.133  0.3001  0.2467  0.4411
  216HK4    H2518144   5.343   6.938   3.079  0.8726  0.3903 -0.5983
  217HK4    H2818145   9.629   4.361   6.802  0.3999  0.8719  2.6958
  217HK4    C4818146   9.675   4.268   6.835 -0.1485 -0.4794 -0.1948
  217HK4    C4718147   9.679   4.244   6.972 -0.1177  0.1726 -0.0808
  217HK4    H2718148   9.608   4.300   7.036  1.1857  1.2239  0.4659
  217HK4    C4618149   9.764   4.150   7.029 -0.0078  0.0146 -0.5056
  217HK4    H2618150   9.769   4.147   7.139  1.6232 -0.1344 -0.5785
  217HK4    C4018151   9.847   4.069   6.950 -0.2372 -0.6477 -0.0647
  217HK4    C5018152   9.839   4.094   6.812 -0.9247  0.3515  0.1539
  217HK4    H3018153   9.887   4.023   6.743 -0.3953  2.2171 -1.4395
  217HK4    C4918154   9.758   4.192   6.755 -0.3112  0.1902 -1.0070
  217HK4    H2918155   9.733   4.185   6.648 -1.7013  0.9123 -0.7341
  217HK4     N218156   9.951   3.995   7.009 -0.3248 -0.2957  0.5420
  217HK4    C3018157   9.995   3.874   6.951  0.4590  0.2983 -0.1096
  217HK4    C2918158   9.932   3.792   6.857  0.1943  0.1328  0.2133
  217HK4    H1518159   9.847   3.831   6.802  1.8729  0.0536 -2.5225
  217HK4    C2818160   9.982   3.667   6.821 -0.1791  0.0754 -0.1046
  217HK4    C2718161  10.107   3.631   6.874  0.0101  0.1106 -0.5309
  217HK4    H1418162  10.150   3.531   6.853  1.4646  0.6491 -0.1788
  217HK4    C3218163  10.183   3.715   6.955  0.2616  0.0193 -0.6705
  217HK4    H1618164  10.281   3.683   6.989 -0.4806  0.2408  1.7392
  217HK4    C3118165  10.129   3.837   6.993  0.6018  0.1679 -0.6656
  217HK4    C3418166  10.165   3.945   7.083 -0.1081 -0.1319 -0.0166
  217HK4    C3318167  10.054   4.038   7.094  0.1341  0.1880 -0.2533
  217HK4    C3518168  10.044   4.132   7.196  0.2209  0.0904 -0.1549
  217HK4    H1718169   9.960   4.201   7.202 -0.1089 -0.2231 -1.0705
  217HK4    C3618170  10.147   4.145   7.288 -0.0807  1.0442  0.0529
  217HK4    H1818171  10.134   4.197   7.384  0.3444  0.6510  0.3208
  217HK4    C3718172  10.258   4.062   7.276 -0.5355  0.3369  0.7255
  217HK4    H1918173  10.337   4.060   7.352 -1.3357 -3.4191  1.5686
  217HK4    C3818174  10.263   3.962   7.181 -0.8219  0.4329  0.6098
  217HK4    H2018175  10.339   3.884   7.192  1.5637  2.9286  2.4446
  217HK4    C1418176   9.890   3.566   6.768  0.1247  0.0201 -0.5263
  217HK4     C918177   9.879   3.430   6.796 -0.8962  0.1563 -0.2230
  217HK4     C818178   9.825   3.338   6.704  0.1712 -0.4000 -0.3082
  217HK4    C1118179   9.759   3.393   6.594  0.2652 -0.2231 -0.2754
  217HK4     H418180   9.700   3.334   6.523  0.4554 -0.0816 -0.5534
  217HK4    C1218181   9.757   3.529   6.564  0.0537 -0.2113 -0.2109
  217HK4     H518182   9.709   3.576   6.477  0.5551  1.8483  0.5840
  217HK4    C1318183   9.820   3.614   6.655 -0.1154  0.0715 -0.3571
  217HK4     H618184   9.818   3.721   6.631  1.8908 -0.0587 -1.1915
  217HK4     C718185   9.842   3.192   6.719 -0.2612 -0.4068  0.1053
  217HK4     O218186   9.764   3.119   6.658 -0.7832  0.2722 -0.0475
  217HK4     C418187   9.930   3.140   6.826  0.1662  0.1378  0.0193
  217HK4     C318188   9.955   3.003   6.824  0.4607  0.1938 -0.1029
  217HK4     H318189   9.896   2.941   6.755 -0.3716 -0.5804  1.2873
  217HK4     C218190  10.048   2.950   6.913 -0.1032  0.3068  0.5545
  217HK4     H218191  10.050   2.840   6.915  0.8042  0.2121 -2.5650
  217HK4     C118192  10.108   3.038   7.002  0.3386  0.1318  0.4320
  217HK4     H118193  10.162   2.991   7.085  0.1401 -1.0671 -0.1042
  217HK4     C618194  10.076   3.175   7.013 -0.1227  0.0548  0.0998
  217HK4     C518195   9.981   3.227   6.924  0.1420  0.2510 -0.0667
  217HK4    C1018196   9.945   3.371   6.916 -0.8050  0.0006 -0.3496
  217HK4     O118197   9.915   3.433   7.019  0.0736  0.0412 -0.1174
  217HK4    C1618198  10.187   3.257   7.065 -0.1960  0.3955 -0.2835
  217HK4    C1518199  10.318   3.245   7.013  0.0585 -0.3942  0.5222
  217HK4     H718200  10.326   3.191   6.917  0.7802 -0.1033  0.4163
  217HK4    C2018201  10.427   3.320   7.055  0.0227  0.1294 -0.3179
  217HK4     H918202  10.514   3.327   6.990 -0.0844  1.6720 -0.3226
  217HK4    C1918203  10.405   3.409   7.159  0.2581 -0.0124 -0.1491
  217HK4    C1818204  10.275   3.421   7.220  0.2364  0.4482 -0.2816
  217HK4    C1718205  10.169   3.345   7.170  0.3244  0.0981  0.0579
  217HK4     H818206  10.074   3.341   7.222  0.7449  1.6943  0.9929
  217HK4     N118207  10.272   3.528   7.312  0.0730 -0.0848  0.3396
  217HK4    C2118208  10.403   3.581   7.316 -0.0205  0.1558  0.2139
  217HK4    C2218209  10.487   3.513   7.219  0.1816 -0.5422  0.8781
  217HK4    C2618210  10.621   3.549   7.209 -0.1096  0.2974 -0.0831
  217HK4    H1318211  10.696   3.491   7.155  0.4620  0.4731  0.5149
  217HK4    C2518212  10.675   3.646   7.291  0.3605 -0.3589  0.3907
  217HK4    H1218213  10.784   3.655   7.293  0.5062 -1.6009 -1.2977
  217HK4    C2418214  10.593   3.712   7.381  0.2533  0.0486 -0.0073
  217HK4    H1118215  10.643   3.780   7.451  0.8143  0.2837 -0.6386
  217HK4    C2318216  10.459   3.678   7.398  0.1015  0.4971 -0.2723
  217HK4    H1018217  10.391   3.740   7.457  0.4004 -0.6086  1.2520
  217HK4    C3918218  10.154   3.589   7.356  0.1565  0.5302 -0.2805
  217HK4    C4118219  10.156   3.645   7.485 -0.7037 -0.5367  0.2047
  217HK4    H2118220  10.215   3.602   7.568  0.5334 -1.0533 -0.9304
  217HK4    C4218221  10.074   3.752   7.519  0.0968  0.3721 -0.7310
  217HK4    H2218222  10.084   3.796   7.619 -3.3039 -2.6401  1.0239
  217HK4    C4318223   9.982   3.801   7.427 -0.4838  0.3915 -0.1342
  217HK4    H2318224   9.933   3.898   7.430 -1.4457 -0.1079  1.2276
  217HK4    C4418225   9.971   3.738   7.303 -0.0282  0.6725 -0.3179
  217HK4    H2418226   9.906   3.777   7.224 -0.7840  3.3994  1.5709
  217HK4    C4518227  10.050   3.629   7.270 -0.2483  0.3722  0.1309
  217HK4    H2518228  10.047   3.591   7.166  2.1480  0.4644  0.0016
  218HK4    H2818229   4.516   7.098   2.153 -0.6898 -0.8893 -0.0362
  218HK4    C4818230   4.465   7.148   2.236  0.4322  0.1531  0.0420
  218HK4    C4718231   4.431   7.282   2.233 -0.6778 -0.1312  0.0077
  218HK4    H2718232   4.460   7.335   2.141  0.1930 -0.6277 -0.0029
  218HK4    C4618233   4.384   7.344   2.348 -0.1803  0.4159 -0.0851
  218HK4    H2618234   4.362   7.452   2.347 -0.0798  0.4216 -2.2296
  218HK4    C4018235   4.378   7.276   2.472  0.1809  0.3929 -0.0781
  218HK4    C5018236   4.425   7.143   2.475 -0.0842  0.2910 -0.2841
  218HK4    H3018237   4.453   7.096   2.570  0.1942 -0.4636 -0.7338
  218HK4    C4918238   4.459   7.078   2.356  0.0837 -0.0119 -0.0720
  218HK4    H2918239   4.469   6.969   2.353 -0.6090 -0.1681  2.0886
  218HK4     N218240   4.341   7.341   2.590  0.1592  0.0369  0.1108
  218HK4    C3018241   4.353   7.477   2.625  0.1178  0.0530  0.0643
  218HK4    C2918242   4.438   7.571   2.568 -0.0457  0.1856  0.0414
  218HK4    H1518243   4.522   7.528   2.513 -1.2823 -0.8410 -1.0529
  218HK4    C2818244   4.428   7.707   2.596  0.3337  0.1021  0.6155
  218HK4    C2718245   4.325   7.743   2.685  0.0701 -0.1398  0.4157
  218HK4    H1418246   4.330   7.847   2.720  1.2889 -0.3379  0.8507
  218HK4    C3218247   4.234   7.654   2.741 -0.1527  0.1416  0.5034
  218HK4    H1618248   4.145   7.686   2.795 -0.2638  1.2977 -0.3445
  218HK4    C3118249   4.248   7.518   2.716 -0.1649  0.2974 -0.3677
  218HK4    C3418250   4.168   7.400   2.744  0.1718  0.1265 -0.1247
  218HK4    C3318251   4.233   7.295   2.667 -0.3364  0.1128 -0.5378
  218HK4    C3518252   4.172   7.170   2.667  0.0639 -0.0870  0.0364
  218HK4    H1718253   4.224   7.089   2.615 -0.1036  1.0823 -1.9952
  218HK4    C3618254   4.059   7.143   2.743  0.7887 -0.4401  1.0032
  218HK4    H1818255   4.006   7.047   2.737 -3.2492  1.8002 -2.2940
  218HK4    C3718256   3.998   7.251   2.805 -0.2495 -0.2485 -0.3176
  218HK4    H1918257   3.902   7.236   2.855 -0.8703  0.7679 -1.1898
  218HK4    C3818258   4.049   7.380   2.812 -0.0095 -0.3290 -0.5688
  218HK4    H2018259   4.011   7.459   2.878 -1.5688 -0.7447 -0.9375
  218HK4    C1418260   4.545   7.793   2.575  0.2668 -0.0305 -0.3478
  218HK4     C918261   4.595   7.881   2.672 -0.1761 -0.2627  0.0963
  218HK4     C818262   4.664   7.997   2.632  0.3735 -0.4988  0.3437
  218HK4    C1118263   4.675   8.024   2.496 -0.4042 -0.0018  0.3758
  218HK4     H418264   4.729   8.113   2.461 -0.6664  1.0101  2.4640
  218HK4    C1218265   4.633   7.934   2.398  0.0271  0.2917 -0.0809
  218HK4     H518266   4.659   7.945   2.292 -1.5218 -0.4494 -0.5370
  218HK4    C1318267   4.573   7.816   2.439  0.3703  0.0355 -0.3154
  218HK4     H618268   4.551   7.732   2.371 -0.0378  0.0826 -0.2424
  218HK4     C718269   4.714   8.094   2.732 -0.4568  0.0562  0.2281
  218HK4     O218270   4.788   8.186   2.698 -0.2111 -0.0866  0.3722
  218HK4     C418271   4.679   8.071   2.874 -0.2648 -0.2277  0.2295
  218HK4     C318272   4.702   8.172   2.966 -0.2016 -0.0233 -0.0098
  218HK4     H318273   4.760   8.264   2.947 -0.5274  0.2500  0.3129
  218HK4     C218274   4.650   8.168   3.095 -0.2723 -0.4314 -0.0513
  218HK4     H218275   4.674   8.239   3.176 -1.7163 -0.3610  0.3284
  218HK4     C118276   4.571   8.059   3.129 -0.8156  0.1239  0.4768
  218HK4     H118277   4.538   8.049   3.233  2.0153 -0.5100  1.3655
  218HK4     C618278   4.539   7.957   3.036 -0.1653  0.3551 -0.0011
  218HK4     C518279   4.607   7.957   2.914 -0.1746 -0.3654 -0.0028
  218HK4    C1018280   4.586   7.845   2.817  0.2637 -0.5055  0.0631
  218HK4     O118281   4.620   7.734   2.855  0.0228 -0.4931  0.3094
  218HK4    C1618282   4.405   7.896   3.040  0.1795 -0.4132 -0.0120
  218HK4    C1518283   4.284   7.966   3.056  0.4536  0.0405  0.1205
  218HK4     H718284   4.289   8.073   3.079 -0.4036  0.2835 -0.7353
  218HK4    C2018285   4.170   7.896   3.093  0.1071  0.2153 -0.6003
  218HK4     H918286   4.077   7.951   3.079 -0.8691 -1.3488 -0.4913
  218HK4    C1918287   4.173   7.757   3.106  0.3467  0.3564  0.9918
  218HK4    C1818288   4.295   7.681   3.090 -0.0023  0.0170 -0.0761
  218HK4    C1718289   4.407   7.759   3.061  0.2659 -0.4612 -0.3318
  218HK4     H818290   4.503   7.708   3.069  0.5630  0.2721  0.9248
  218HK4     N118291   4.284   7.544   3.119  0.0326  0.0223 -0.0309
  218HK4    C2118292   4.150   7.533   3.161  0.0118  0.1789 -0.0592
  218HK4    C2218293   4.080   7.660   3.159  0.1244  0.2479  0.4139
  218HK4    C2618294   3.952   7.664   3.213 -0.2056 -0.2682 -0.3257
  218HK4    H1318295   3.894   7.755   3.201 -1.1882 -0.6515  1.1877
  218HK4    C2518296   3.886   7.550   3.258 -0.1125 -0.2058 -0.0244
  218HK4    H1218297   3.780   7.553   3.286 -0.1696  2.2764 -0.3712
  218HK4    C2418298   3.949   7.426   3.252 -0.2936 -0.3039  0.1085
  218HK4    H1118299   3.886   7.342   3.285 -2.9476  0.7993 -1.9525
  218HK4    C2318300   4.081   7.422   3.208 -0.4107  0.3315 -0.3149
  218HK4    H1018301   4.122   7.322   3.193  0.0844  0.2068  1.6917
  218HK4    C3918302   4.369   7.439   3.082 -0.4672 -0.0801 -0.9139
  218HK4    C4118303   4.366   7.313   3.145 -0.2998  0.4070  0.0665
  218HK4    H2118304   4.318   7.316   3.244 -1.6669  0.2001 -0.5860
  218HK4    C4218305   4.431   7.201   3.095 -0.3625  0.3392  0.1366
  218HK4    H2218306   4.405   7.100   3.131 -0.4561  1.0703  2.2300
  218HK4    C4318307   4.505   7.212   2.978 -0.8341  0.0113 -0.1966
  218HK4    H2318308   4.574   7.137   2.941 -0.9358  0.7186 -1.8648
  218HK4    C4418309   4.506   7.335   2.913  0.4655  0.2730  0.3015
  218HK4    H2418310   4.531   7.339   2.805 -0.3303  1.1693  0.1446
  218HK4    C4518311   4.444   7.449   2.963  0.9150  0.6499  0.0036
  218HK4    H2518312   4.442   7.538   2.898 -2.4943 -0.9948 -2.2518
  219HK4    H2818313  10.275   0.920   1.226  0.2678 -2.0983 -3.4801
  219HK4    C4818314  10.260   1.014   1.173  0.1817 -0.0009  0.0673
  219HK4    C4718315  10.204   1.126   1.233 -0.0491 -0.1056  0.0482
  219HK4    H2718316  10.206   1.128   1.343 -0.7476  2.4502  0.0340
  219HK4    C4618317  10.147   1.227   1.156 -0.3173 -0.2865  0.0078
  219HK4    H2618318  10.122   1.318   1.212  0.2037  0.3576 -0.8102
  219HK4    C4018319  10.133   1.209   1.017  0.0323  0.2908 -0.1056
  219HK4    C5018320  10.191   1.096   0.957 -0.6036 -0.0549 -0.0828
  219HK4    H3018321  10.180   1.079   0.849  1.4929 -1.4182 -0.1262
  219HK4    C4918322  10.255   1.000   1.035 -0.7708 -0.0176  0.1000
  219HK4    H2918323  10.301   0.916   0.980 -2.1360  0.1928 -1.4235
  219HK4     N218324  10.047   1.290   0.941  0.3405  0.6110 -0.1105
  219HK4    C3018325   9.930   1.353   0.987 -0.4020 -0.6743 -0.1884
  219HK4    C2918326   9.851   1.330   1.099  0.1462 -0.2739  0.2867
  219HK4    H1518327   9.858   1.233   1.148 -0.9789 -0.8367 -0.6444
  219HK4    C2818328   9.749   1.417   1.135 -0.1887 -0.3566 -0.4421
  219HK4    C2718329   9.717   1.524   1.048  0.3897  0.4706  0.3556
  219HK4    H1418330   9.628   1.585   1.069 -1.1007 -1.1892 -1.0159
  219HK4    C3218331   9.781   1.540   0.926  0.4873  0.0745  0.3540
  219HK4    H1618332   9.756   1.628   0.868  0.0611  0.7890  1.6229
  219HK4    C3118333   9.889   1.458   0.895 -0.0148 -0.4277 -0.0812
  219HK4    C3418334   9.992   1.459   0.792 -0.2645 -1.2916 -0.3446
  219HK4    C3318335  10.091   1.358   0.826  1.0594  0.0576 -0.1710
  219HK4    C3518336  10.202   1.343   0.743  1.2694  0.4375  0.0406
  219HK4    H1718337  10.288   1.295   0.790  3.6501  0.8816 -3.6650
  219HK4    C3618338  10.216   1.417   0.627  0.6854 -0.6088 -0.7040
  219HK4    H1818339  10.301   1.394   0.562  0.2123 -0.5172 -1.3628
  219HK4    C3718340  10.122   1.515   0.595  0.2958 -0.6423  0.3114
  219HK4    H1918341  10.147   1.575   0.508 -1.6011  1.2903  1.0686
  219HK4    C3818342  10.011   1.534   0.677  0.3124 -0.4532  0.2882
  219HK4    H2018343   9.933   1.597   0.636  0.0651 -1.0578 -0.1884
  219HK4    C1418344   9.663   1.380   1.248  0.0957  0.5156  0.0603
  219HK4     C918345   9.527   1.413   1.251 -0.1957 -0.7067  0.1651
  219HK4     C818346   9.464   1.455   1.370  0.2105 -0.3462  0.2554
  219HK4    C1118347   9.541   1.455   1.485  0.1823  0.3401  0.2752
  219HK4     H418348   9.493   1.503   1.572 -0.8522 -0.7028  0.2797
  219HK4    C1218349   9.670   1.403   1.491  0.1824  0.3422  0.3051
  219HK4     H518350   9.726   1.372   1.580 -0.3812  0.3834  0.6764
  219HK4    C1318351   9.732   1.371   1.371 -0.0768  0.4193  0.1511
  219HK4     H618352   9.841   1.359   1.378  0.0363  0.6309 -1.0646
  219HK4     C718353   9.317   1.476   1.377  0.2677  0.1789 -0.1604
  219HK4     O218354   9.261   1.462   1.486 -0.0261  0.4055 -0.2800
  219HK4     C418355   9.236   1.461   1.255 -0.2410  0.5694  0.1272
  219HK4     C318356   9.101   1.493   1.261 -0.3678  0.1551 -0.4262
  219HK4     H318357   9.055   1.501   1.361 -0.4407 -1.8901 -0.2835
  219HK4     C218358   9.025   1.512   1.146 -0.2836 -0.3181 -0.5606
  219HK4     H218359   8.919   1.542   1.153 -0.3696 -0.4040 -1.4944
  219HK4     C118360   9.089   1.489   1.025 -0.0057  0.5559 -0.5859
  219HK4     H118361   9.035   1.499   0.930 -0.5163 -0.4740 -0.4095
  219HK4     C618362   9.225   1.452   1.013  0.3186  1.3597  0.5540
  219HK4     C518363   9.296   1.430   1.131  0.2448  0.3685  0.4137
  219HK4    C1018364   9.441   1.394   1.131  0.1758  0.0823 -0.2310
  219HK4     O118365   9.483   1.317   1.045 -0.3153 -0.2761 -0.1508
  219HK4    C1618366   9.283   1.509   0.891  0.0992  0.3768 -0.0142
  219HK4    C1518367   9.254   1.639   0.844 -0.5994  0.0410 -0.5365
  219HK4     H718368   9.193   1.701   0.912 -2.7741  0.7933 -3.1069
  219HK4    C2018369   9.292   1.689   0.720  0.4160  0.5675 -0.0232
  219HK4     H918370   9.249   1.781   0.682 -1.6370  0.4582  1.9153
  219HK4    C1918371   9.379   1.614   0.641  0.3771  0.1985  0.2841
  219HK4    C1818372   9.407   1.476   0.676  0.3323  0.0820 -0.1362
  219HK4    C1718373   9.358   1.435   0.800  0.5843  0.6542  0.1554
  219HK4     H818374   9.365   1.327   0.810  1.9417  0.7157 -0.0573
  219HK4     N118375   9.475   1.411   0.572 -0.4676 -0.5182 -0.2921
  219HK4    C2118376   9.500   1.512   0.477  0.2988 -0.3626  0.0687
  219HK4    C2218377   9.428   1.634   0.506 -0.3860 -0.7184 -0.1311
  219HK4    C2618378   9.432   1.743   0.420 -0.1486 -0.4458  0.2242
  219HK4    H1318379   9.367   1.829   0.437 -0.4740 -0.5932 -0.2471
  219HK4    C2518380   9.501   1.738   0.300 -0.5223  0.1443 -0.0171
  219HK4    H1218381   9.501   1.814   0.221  1.7947  0.1636 -0.0208
  219HK4    C2418382   9.566   1.618   0.272  0.1499  0.2938  0.8857
  219HK4    H1118383   9.626   1.625   0.181 -0.3300 -0.6631  0.4916
  219HK4    C2318384   9.578   1.513   0.362  0.7728 -0.0537  0.3916
  219HK4    H1018385   9.640   1.426   0.340 -1.1981 -1.0269 -1.5021
  219HK4    C3918386   9.538   1.286   0.582 -0.0155 -0.2730 -0.0565
  219HK4    C4118387   9.575   1.207   0.471 -0.2025  0.4097 -0.6089
  219HK4    H2118388   9.511   1.221   0.382  0.6036  0.5263 -1.1699
  219HK4    C4218389   9.675   1.112   0.483  0.0412  0.7431  0.0210
  219HK4    H2218390   9.694   1.046   0.396  0.1954 -1.6808  1.8281
  219HK4    C4318391   9.738   1.087   0.604 -0.1137  0.1391 -0.0183
  219HK4    H2318392   9.804   1.001   0.613  0.5287  0.6467  0.1799
  219HK4    C4418393   9.694   1.152   0.719  0.2117 -0.3124  0.3622
  219HK4    H2418394   9.737   1.120   0.815  1.3481 -0.0837 -0.0659
  219HK4    C4518395   9.594   1.247   0.705  0.2975 -0.3040 -0.2079
  219HK4    H2518396   9.587   1.313   0.793  1.0615  1.2845 -1.3188
  220HK4    H2818397  10.550   7.096   7.026 -0.7745  0.5255 -0.8211
  220HK4    C4818398  10.580   7.176   7.095 -0.2366 -0.4821  0.1354
  220HK4    C4718399  10.685   7.165   7.185 -0.3730  0.1533  0.3697
  220HK4    H2718400  10.766   7.092   7.177 -0.5020  0.1237 -0.7394
  220HK4    C4618401  10.692   7.251   7.294 -0.0232 -0.0319  0.4923
  220HK4    H2618402  10.758   7.238   7.382  0.9201 -1.3719 -0.4075
  220HK4    C4018403  10.606   7.363   7.303 -0.0595 -0.0109 -0.1415
  220HK4    C5018404  10.512   7.379   7.199 -0.3445  0.1539  0.1397
  220HK4    H3018405  10.458   7.474   7.187  0.6138  0.4182 -2.3218
  220HK4    C4918406  10.495   7.285   7.098  0.3754 -0.0069  0.1615
  220HK4    H2918407  10.405   7.290   7.035 -0.4279 -0.1554  1.2858
  220HK4     N218408  10.633   7.478   7.377  0.0375  0.1399 -0.4127
  220HK4    C3018409  10.762   7.521   7.416 -0.0762  0.1249 -0.0180
  220HK4    C2918410  10.886   7.467   7.385 -0.2276 -0.5925  0.6193
  220HK4    H1518411  10.895   7.401   7.298  1.6228  1.2800 -0.6478
  220HK4    C2818412  10.999   7.501   7.459 -0.2146  0.1414  0.2630
  220HK4    C2718413  10.987   7.611   7.546 -0.7521  0.3579 -0.0819
  220HK4    H1418414  11.080   7.663   7.575 -0.7843  0.1940  0.3070
  220HK4    C3218415  10.869   7.681   7.567 -0.6698  0.3516  0.4160
  220HK4    H1618416  10.867   7.771   7.629  1.4998  0.6610  0.0754
  220HK4    C3118417  10.753   7.631   7.510 -0.3623  0.0317  0.0650
  220HK4    C3418418  10.611   7.654   7.530 -0.3314 -0.0094  0.3203
  220HK4    C3318419  10.541   7.561   7.445  0.1469 -0.0619 -0.0182
  220HK4    C3518420  10.402   7.558   7.445  0.1551 -0.4722  0.2133
  220HK4    H1718421  10.348   7.517   7.360  0.7699  1.0579 -0.9234
  220HK4    C3618422  10.337   7.645   7.533 -0.0981 -0.2914 -0.1532
  220HK4    H1818423  10.228   7.642   7.544  0.0544  0.6843  1.7590
  220HK4    C3718424  10.406   7.736   7.612 -0.3071 -0.1958 -0.0836
  220HK4    H1918425  10.354   7.814   7.667  1.5083 -1.3862  3.4974
  220HK4    C3818426  10.544   7.746   7.611 -0.3370  0.2985 -0.0380
  220HK4    H2018427  10.600   7.829   7.654  1.7961 -1.2304  0.2417
  220HK4    C1418428  11.116   7.412   7.463  0.1122  0.5651  0.2217
  220HK4     C918429  11.215   7.405   7.562 -0.1650  0.1346  0.4673
  220HK4     C818430   0.098   7.361   7.532 -0.4288 -0.7871  0.6377
  220HK4    C1118431   0.133   7.311   7.407 -0.5640 -0.2051  0.3656
  220HK4     H418432   0.231   7.262   7.398  0.1752  1.1217  0.9541
  220HK4    C1218433   0.034   7.304   7.310 -0.3598 -0.9588  0.2125
  220HK4     H518434   0.071   7.261   7.216 -1.8083 -2.5886  0.3473
  220HK4    C1318435  11.154   7.350   7.343  0.0939  0.1816  0.4123
  220HK4     H618436  11.084   7.361   7.258  0.7965  0.5151 -0.1314
  220HK4     C718437   0.209   7.374   7.628  0.4315  0.4879 -0.5070
  220HK4     O218438   0.313   7.309   7.612  0.3579  0.3512 -0.4252
  220HK4     C418439   0.180   7.459   7.745  0.2225  0.5742 -0.6215
  220HK4     C318440   0.290   7.509   7.814  0.2692 -0.2930 -0.0617
  220HK4     H318441   0.392   7.508   7.772  0.3754 -0.8965  0.1997
  220HK4     C218442   0.266   7.584   7.928  0.0031  0.0760 -0.3604
  220HK4     H218443   0.350   7.594   7.998  1.0033  2.1519 -1.8196
  220HK4     C118444   0.137   7.613   7.974 -0.0055 -0.3477 -0.1156
  220HK4     H118445   0.129   7.665   8.071  2.0273 -1.2089  0.5502
  220HK4     C618446   0.025   7.575   7.898 -0.1526 -0.0521 -0.0472
  220HK4     C518447   0.050   7.486   7.792  0.3090  0.2572 -0.2040
  220HK4    C1018448  11.187   7.444   7.703 -0.1660 -0.0016  0.5048
  220HK4     O118449  11.093   7.380   7.751 -0.3805 -0.5211 -0.5821
  220HK4    C1618450  11.162   7.670   7.905 -0.0487  0.0681 -0.0599
  220HK4    C1518451  11.183   7.809   7.891  0.4750 -0.0533 -0.5014
  220HK4     H718452   0.039   7.843   7.898  0.3653  0.0674  0.6545
  220HK4    C2018453  11.080   7.900   7.912  0.1293 -0.6201  0.2565
  220HK4     H918454  11.092   8.001   7.874 -1.6161 -1.0480 -1.5137
  220HK4    C1918455  10.962   7.854   7.971 -0.1520  0.0144  0.1863
  220HK4    C1818456  10.942   7.712   7.996  0.0748 -0.1046 -0.3090
  220HK4    C1718457  11.043   7.623   7.959  0.1747 -0.2009  0.2005
  220HK4     H818458  11.033   7.516   7.976  2.4968 -0.0815  2.6409
  220HK4     N118459  10.817   7.689   8.055 -0.0199 -0.2036 -0.5447
  220HK4    C2118460  10.764   7.817   8.083 -0.0041 -0.3964  0.3764
  220HK4    C2218461  10.851   7.922   8.035 -0.2245 -0.2340  0.3309
  220HK4    C2618462  10.812   8.055   8.045  0.0071 -0.1556  0.1917
  220HK4    H1318463  10.859   8.124   7.975  1.3446 -3.2245 -2.0622
  220HK4    C2518464  10.696   8.083   8.115 -0.0476  0.0439  0.0195
  220HK4    H1218465  10.646   8.179   8.101  1.5738  0.9028  0.0570
  220HK4    C2418466  10.621   7.981   8.173  0.2735  0.1744  0.6723
  220HK4    H1118467  10.538   8.008   8.240 -1.8117 -0.8426 -1.4093
  220HK4    C2318468  10.649   7.846   8.156 -0.4113  0.1693 -0.4860
  220HK4    H1018469  10.609   7.774   8.228 -0.1234  2.0570  1.6168
  220HK4    C3918470  10.739   7.575   8.035  0.3510 -0.5937  0.2197
  220HK4    C4118471  10.642   7.527   8.127 -0.1087 -0.1289 -0.0249
  220HK4    H2118472  10.637   7.546   8.235 -0.7587  2.3656 -0.4616
  220HK4    C4218473  10.530   7.461   8.078  0.0240 -0.2064 -0.2264
  220HK4    H2218474  10.445   7.450   8.146 -0.1431 -2.4245 -0.7486
  220HK4    C4318475  10.510   7.432   7.943  0.1363 -0.4555 -0.1901
  220HK4    H2318476  10.433   7.361   7.916 -0.7977 -0.3252  2.0092
  220HK4    C4418477  10.603   7.481   7.852 -0.1637  0.0802 -0.2092
  220HK4    H2418478  10.597   7.464   7.743  1.5283  2.5252 -0.7209
  220HK4    C4518479  10.720   7.537   7.901 -0.1668 -0.2667  0.1945
  220HK4    H2518480  10.807   7.541   7.834  0.9175 -0.9456  1.5262
  221HK4    H2818481   9.728   4.268   5.945 -1.3938 -0.7232 -1.4830
  221HK4    C4818482   9.727   4.363   5.892 -0.0348  0.0946 -0.0798
  221HK4    C4718483   9.736   4.367   5.753  0.4233 -0.2078 -0.0609
  221HK4    H2718484   9.673   4.302   5.691  2.4324 -1.6047 -0.7084
  221HK4    C4618485   9.817   4.465   5.696  0.6070 -0.2440  0.1382
  221HK4    H2618486   9.809   4.492   5.589  0.4118 -1.8878 -0.2869
  221HK4    C4018487   9.897   4.553   5.771  0.5531 -0.4057  0.3902
  221HK4    C5018488   9.870   4.554   5.909  0.1193 -0.2574  0.3052
  221HK4    H3018489   9.914   4.629   5.977 -2.4381  1.8932 -0.3491
  221HK4    C4918490   9.786   4.461   5.970 -0.0816 -0.1233  0.2300
  221HK4    H2918491   9.796   4.450   6.079  1.0936  3.2779  0.5362
  221HK4     N218492  10.018   4.611   5.732  0.1965 -0.2031 -0.4309
  221HK4    C3018493  10.103   4.558   5.633  0.6215 -0.0444 -0.1521
  221HK4    C2918494  10.104   4.428   5.584 -0.7199  0.0257 -0.3773
  221HK4    H1518495  10.064   4.354   5.653  2.1368  0.0534  1.3559
  221HK4    C2818496  10.187   4.384   5.481  0.0698  0.1143  0.2209
  221HK4    C2718497  10.263   4.487   5.421 -0.3186 -0.0352 -0.5273
  221HK4    H1418498  10.311   4.459   5.326 -2.2518 -3.0590 -0.6948
  221HK4    C3218499  10.269   4.618   5.466  0.4035 -0.3505  0.2940
  221HK4    H1618500  10.325   4.690   5.407 -0.8454  0.0090 -0.4698
  221HK4    C3118501  10.184   4.659   5.568  0.4420  0.2487  0.0824
  221HK4    C3418502  10.145   4.784   5.632  0.0613  0.0875  0.1677
  221HK4    C3318503  10.049   4.749   5.734 -0.2766 -0.1009 -0.2149
  221HK4    C3518504  10.014   4.844   5.830 -0.0310  0.1167 -0.3425
  221HK4    H1718505   9.946   4.814   5.910 -0.3755 -0.2713 -0.7730
  221HK4    C3618506  10.070   4.971   5.827  0.5004 -0.1017  0.3105
  221HK4    H1818507  10.068   5.027   5.922  0.9199 -1.0898  0.9152
  221HK4    C3718508  10.154   5.011   5.724  0.0718  0.2495  0.0958
  221HK4    H1918509  10.203   5.108   5.726 -2.3039  1.5332 -1.8956
  221HK4    C3818510  10.186   4.916   5.627  0.2163  0.0480  0.3382
  221HK4    H2018511  10.232   4.945   5.532  0.3648 -1.4484 -0.0469
  221HK4    C1418512  10.196   4.242   5.447  0.2495  0.0009  0.7346
  221HK4     C918513  10.307   4.184   5.384 -0.1395 -0.4066  0.4107
  221HK4     C818514  10.290   4.061   5.318  0.0592 -0.4141  0.3737
  221HK4    C1118515  10.165   4.002   5.316 -0.1450  0.0368 -0.2713
  221HK4     H418516  10.159   3.920   5.243 -2.1315  1.5649 -1.8829
  221HK4    C1218517  10.056   4.055   5.384  0.1251  0.1266  0.0937
  221HK4     H518518   9.955   4.016   5.368 -0.5755  2.3042 -0.9616
  221HK4    C1318519  10.072   4.176   5.451  0.2233  0.0175  0.2667
  221HK4     H618520   9.995   4.187   5.529 -0.4279 -0.6594 -0.2727
  221HK4     C718521  10.409   3.981   5.280 -0.2152 -0.4021 -0.5248
  221HK4     O218522  10.402   3.862   5.249 -0.4845 -0.5786  0.1928
  221HK4     C418523  10.545   4.037   5.294 -0.3838 -0.0972 -0.1017
  221HK4     C318524  10.661   3.968   5.262 -0.1341  0.4226 -0.3323
  221HK4     H318525  10.658   3.866   5.221  3.0343  0.6927 -1.4049
  221HK4     C218526  10.781   4.037   5.274 -0.0352  0.1905  0.0553
  221HK4     H218527  10.878   3.984   5.272 -0.1197 -0.2778  4.1127
  221HK4     C118528  10.795   4.171   5.306 -0.3740  0.1304  0.4592
  221HK4     H118529  10.894   4.209   5.336  0.5439 -1.1480 -0.8356
  221HK4     C618530  10.677   4.249   5.308 -0.6017 -0.1859 -0.4342
  221HK4     C518531  10.560   4.174   5.324 -0.7929  0.0686 -0.6462
  221HK4    C1018532  10.447   4.233   5.402 -0.2212 -0.1541  0.3576
  221HK4     O118533  10.485   4.273   5.512  0.2907  0.2744  0.0284
  221HK4    C1618534  10.682   4.382   5.246  0.4691 -0.0080  0.0168
  221HK4    C1518535  10.763   4.399   5.132 -0.3981  0.2314 -0.5725
  221HK4     H718536  10.779   4.312   5.067 -0.2577  0.3116 -0.6462
  221HK4    C2018537  10.819   4.517   5.086  0.0752  0.0987 -0.3375
  221HK4     H918538  10.892   4.530   5.005  1.5882 -1.6710  0.7131
  221HK4    C1918539  10.771   4.633   5.146  0.0686 -0.1085  0.0554
  221HK4    C1818540  10.683   4.621   5.260 -0.0772 -0.2954 -0.0754
  221HK4    C1718541  10.641   4.498   5.311 -0.1527 -0.2275  0.0274
  221HK4     H818542  10.568   4.489   5.391  1.4601 -1.3502  1.4145
  221HK4     N118543  10.627   4.747   5.290 -0.3861 -0.4913  0.1833
  221HK4    C2118544  10.666   4.833   5.185  0.0710 -0.2352  0.5551
  221HK4    C2218545  10.752   4.765   5.090  0.2657  0.1031  0.4896
  221HK4    C2618546  10.800   4.836   4.980 -0.2421  0.1405  0.2903
  221HK4    H1318547  10.843   4.783   4.895  0.4821 -0.9848  1.3477
  221HK4    C2518548  10.768   4.970   4.963  0.0998  0.1839 -0.0184
  221HK4    H1218549  10.788   5.011   4.864 -0.4689 -1.3787 -0.7970
  221HK4    C2418550  10.689   5.034   5.057  0.5346  0.1511  0.3662
  221HK4    H1118551  10.649   5.135   5.038  0.1405  0.2992  1.8793
  221HK4    C2318552  10.641   4.968   5.170  0.3231 -0.2435  0.0466
  221HK4    H1018553  10.593   5.021   5.253 -1.1162 -1.3744 -0.0407
  221HK4    C3918554  10.568   4.789   5.410  0.1492  0.2354  0.1981
  221HK4    C4118555  10.499   4.912   5.423 -0.0727  0.1276  0.0280
  221HK4    H2118556  10.425   4.936   5.345 -0.1876 -0.0957  0.0658
  221HK4    C4218557  10.504   4.988   5.539 -0.2383  0.1175  0.0418
  221HK4    H2218558  10.475   5.094   5.536 -1.7539 -0.3238 -2.5190
  221HK4    C4318559  10.556   4.934   5.656 -0.4271  0.1846  0.1589
  221HK4    H2318560  10.573   4.994   5.746  0.7031  1.6076 -0.9645
  221HK4    C4418561  10.613   4.807   5.652 -0.2620  0.2570  0.2089
  221HK4    H2418562  10.679   4.772   5.732  2.1373 -0.5367 -2.0445
  221HK4    C4518563  10.616   4.738   5.531 -0.3622  0.0486  0.3261
  221HK4    H2518564  10.654   4.634   5.534  0.4111  0.3039 -0.4909
  222HK4    H2818565   0.753   2.683  10.460  1.3117 -0.4905  0.3959
  222HK4    C4818566   0.723   2.622  10.545 -0.0299  0.1329  0.3746
  222HK4    C4718567   0.585   2.623  10.568 -0.1151  0.1091 -0.1257
  222HK4    H2718568   0.518   2.673  10.498  1.1294  1.8122 -0.1311
  222HK4    C4618569   0.540   2.541  10.671  0.1411  0.6120  0.3818
  222HK4    H2618570   0.431   2.538  10.687 -0.5713  2.0965 -3.7075
  222HK4    C4018571   0.625   2.455  10.743  0.0237 -0.0812 -0.3055
  222HK4    C5018572   0.763   2.459  10.714  0.0742 -0.0530 -0.0666
  222HK4    H3018573   0.836   2.435  10.793  0.6384  2.5419  0.2401
  222HK4    C4918574   0.813   2.548  10.620  0.1655  0.5131  0.5180
  222HK4    H2918575   0.921   2.545  10.600 -0.1126  0.3518 -1.0133
  222HK4     N218576   0.586   2.380  10.855 -0.0346  0.1690 -0.1586
  222HK4    C3018577   0.469   2.400  10.931  0.0837 -0.0338  0.0763
  222HK4    C2918578   0.415   2.519  10.979  0.0974  0.0759 -0.1767
  222HK4    H1518579   0.470   2.612  10.967 -2.8812  1.6855 -2.0428
  222HK4    C2818580   0.305   2.515  11.064 -0.0276 -0.3153 -0.3579
  222HK4    C2718581   0.251   2.396  11.115  0.1507  0.0301  0.6524
  222HK4    H1418582   0.167   2.395  11.186 -0.9233 -0.2541 -0.5997
  222HK4    C3218583   0.308   2.276  11.074  0.0383  0.1031  0.2805
  222HK4    H1618584   0.279   2.185  11.126 -0.7726  0.0105 -0.3176
  222HK4    C3118585   0.416   2.277  10.986 -0.4707  0.0050 -0.3557
  222HK4    C3418586   0.508   2.176  10.938 -0.0404  0.1578  0.1369
  222HK4    C3318587   0.620   2.245  10.876 -0.4002 -0.0102 -0.7121
  222HK4    C3518588   0.738   2.172  10.868 -0.2901  0.1702 -0.7508
  222HK4    H1718589   0.812   2.204  10.795  0.8594  1.2863  0.8746
  222HK4    C3618590   0.741   2.039  10.909  0.1017  0.0434 -1.1931
  222HK4    H1818591   0.839   1.988  10.909  0.0610 -0.0498 -2.3262
  222HK4    C3718592   0.631   1.975  10.964  0.4509  0.2202 -0.2776
  222HK4    H1918593   0.629   1.866  10.961  1.3638  0.1961 -0.1102
  222HK4    C3818594   0.512   2.044  10.982  0.7169  0.3982  0.7921
  222HK4    H2018595   0.431   1.988  11.028 -0.4971  0.7464 -0.8919
  222HK4    C1418596   0.238   2.644  11.087 -0.5778 -0.6100 -0.3014
  222HK4     C918597   0.158   2.668  11.200 -0.0098 -0.1466  0.0061
  222HK4     C818598   0.046   2.752  11.184  0.0957 -0.0268 -0.1059
  222HK4    C1118599   0.036   2.836  11.074 -0.6625 -0.4646 -0.3726
  222HK4     H418600  11.209   2.916  11.065  0.2053  0.3660 -0.1876
  222HK4    C1218601   0.129   2.832  10.970  0.2405  0.6267  0.3895
  222HK4     H518602   0.108   2.897  10.883 -1.1599  1.4230  1.2944
  222HK4    C1318603   0.224   2.731  10.977 -0.4566 -0.0523  0.1211
  222HK4     H618604   0.302   2.736  10.900  0.3381  3.5698  1.0405
  222HK4     C718605  11.200   2.769   0.050  0.2673  0.2653 -0.0070
  222HK4     O218606  11.083   2.790   0.019  0.2141  0.1531  0.1143
  222HK4     C418607  11.235   2.719   0.184  0.0656 -0.6002 -0.2699
  222HK4     C318608  11.152   2.759   0.288  0.1259 -0.5012 -0.2589
  222HK4     H318609  11.087   2.848   0.281 -0.4154 -0.7909  0.8766
  222HK4     C218610  11.172   2.712   0.417 -0.2361 -0.3343 -0.1410
  222HK4     H218611  11.128   2.756   0.508 -1.0994 -0.7681 -0.3450
  222HK4     C118612   0.023   2.615   0.431  0.3370  0.3164  0.3760
  222HK4     H118613   0.023   2.565   0.529 -1.3196 -2.6466 -1.0762
  222HK4     C618614   0.099   2.559   0.327 -0.3926 -0.0839  0.0547
  222HK4     C518615   0.089   2.624   0.203  0.3779 -0.2338 -0.0884
  222HK4    C1018616   0.183   2.613   0.088  0.4567 -0.0562 -0.0413
  222HK4     O118617   0.303   2.594   0.108  0.4718  0.2504  0.1593
  222HK4    C1618618   0.205   2.462   0.359 -0.2581  0.0523  0.0220
  222HK4    C1518619   0.261   2.461   0.488  0.4323  0.4658 -0.2705
  222HK4     H718620   0.285   2.557   0.537 -0.0951  0.8776 -0.8139
  222HK4    C2018621   0.299   2.345   0.554 -0.1972  0.1336 -0.4853
  222HK4     H918622   0.325   2.358   0.659 -1.7587  0.7303 -0.1741
  222HK4    C1918623   0.284   2.229   0.478 -0.0682  0.2053 -0.6213
  222HK4    C1818624   0.269   2.230   0.334  0.1861 -0.2806 -0.6536
  222HK4    C1718625   0.225   2.350   0.279 -0.1535 -0.0270  0.1594
  222HK4     H818626   0.166   2.338   0.188 -1.5166 -0.2929  1.0661
  222HK4     N118627   0.239   2.103   0.280 -0.1659 -0.4920  0.0406
  222HK4    C2118628   0.220   2.018   0.391  0.4692 -0.3265  0.2776
  222HK4    C2218629   0.249   2.093   0.512  0.7110  0.1406 -0.0680
  222HK4    C2618630   0.186   2.049   0.628 -0.2235  0.6568 -0.3748
  222HK4    H1318631   0.217   2.099   0.720 -0.9183  0.6717 -0.1498
  222HK4    C2518632   0.100   1.940   0.628  0.0707  0.4220 -0.4009
  222HK4    H1218633   0.058   1.917   0.727  0.6297  0.6107 -0.1170
  222HK4    C2418634   0.068   1.873   0.511 -0.1614  0.2202 -0.2229
  222HK4    H1118635  11.229   1.805   0.503 -1.3131  1.6942 -0.4707
  222HK4    C2318636   0.132   1.910   0.393  0.2846 -0.1835 -0.1103
  222HK4    H1018637   0.107   1.866   0.297  0.8288  3.7847 -2.1688
  222HK4    C3918638   0.291   2.063   0.156  0.0362 -0.0377 -0.0208
  222HK4    C4118639   0.232   1.950   0.097 -0.0353  0.1838 -0.3723
  222HK4    H2118640   0.122   1.939   0.093 -0.1081  1.4941 -4.1181
  222HK4    C4218641   0.313   1.861   0.028 -0.0812 -0.3835  0.3095
  222HK4    H2218642   0.276   1.760   0.003 -0.9128 -0.3140  1.2030
  222HK4    C4318643   0.448   1.887   0.012 -0.1914 -0.2664 -0.4154
  222HK4    H2318644   0.518   1.812  11.222 -0.5359 -0.1415 -1.3196
  222HK4    C4418645   0.504   2.005   0.060 -0.2692 -0.4263  0.0686
  222HK4    H2418646   0.613   2.010   0.049 -0.2615 -1.9986 -0.5883
  222HK4    C4518647   0.424   2.097   0.127  0.0717 -0.1159  0.0489
  222HK4    H2518648   0.465   2.199   0.138  2.0509 -0.9113  0.2937
  223HK4    H2818649   9.358   2.116   7.508 -2.4307 -0.6533  0.3335
  223HK4    C4818650   9.392   2.047   7.431 -0.9007  0.5250 -0.0846
  223HK4    C4718651   9.510   2.089   7.372 -0.7321  0.1060 -0.0441
  223HK4    H2718652   9.556   2.187   7.391 -2.5860  0.8759  0.4970
  223HK4    C4618653   9.585   2.002   7.294 -0.6102  0.6351 -0.5126
  223HK4    H2618654   9.682   2.042   7.260 -0.9600  1.4085 -0.6087
  223HK4    C4018655   9.540   1.872   7.265 -0.6667  0.5659 -0.1148
  223HK4    C5018656   9.425   1.835   7.337  0.0658  0.0102  0.7742
  223HK4    H3018657   9.407   1.727   7.348  0.8861 -0.3351 -1.2019
  223HK4    C4918658   9.347   1.916   7.419  0.3111 -0.0128  1.0307
  223HK4    H2918659   9.238   1.909   7.433  0.1956  0.3120  0.3577
  223HK4     N218660   9.565   1.791   7.153  0.1951  0.3327  0.2454
  223HK4    C3018661   9.609   1.843   7.030 -0.7784 -0.1471 -0.3071
  223HK4    C2918662   9.563   1.955   6.962  0.3177  0.2239 -0.4471
  223HK4    H1518663   9.508   2.026   7.024 -0.3858 -1.1142  0.4878
  223HK4    C2818664   9.593   1.971   6.827  0.3486  0.4848 -0.4099
  223HK4    C2718665   9.685   1.882   6.771  0.1366 -0.0919  0.1495
  223HK4    H1418666   9.724   1.902   6.670  0.8179 -0.4994  0.3213
  223HK4    C3218667   9.738   1.771   6.836 -0.2468 -0.1200  0.4135
  223HK4    H1618668   9.827   1.725   6.792 -0.1397 -0.5725  1.1053
  223HK4    C3118669   9.693   1.744   6.964  0.2080  0.0689  0.6143
  223HK4    C3418670   9.703   1.631   7.055 -0.2251 -0.1984  0.3329
  223HK4    C3318671   9.619   1.661   7.168  0.1095  0.3216  0.4438
  223HK4    C3518672   9.613   1.567   7.271 -0.2486 -0.4019 -0.2365
  223HK4    H1718673   9.563   1.593   7.364 -0.4473 -0.8920 -0.2063
  223HK4    C3618674   9.671   1.442   7.256  0.1487 -0.2989  0.4468
  223HK4    H1818675   9.638   1.363   7.325  0.7694 -0.4087  0.6257
  223HK4    C3718676   9.742   1.412   7.140  0.1022 -0.0511  0.3529
  223HK4    H1918677   9.782   1.312   7.120 -1.8703 -0.6762 -0.6046
  223HK4    C3818678   9.762   1.505   7.040  0.0455 -0.0697  0.3249
  223HK4    H2018679   9.823   1.483   6.952 -1.4454 -1.0643 -0.4957
  223HK4    C1418680   9.499   2.042   6.739  0.0417  0.0763 -0.4070
  223HK4     C918681   9.473   2.014   6.604 -0.1190  0.1087 -0.3831
  223HK4     C818682   9.415   2.115   6.524  0.9941  0.7814 -0.3484
  223HK4    C1118683   9.363   2.230   6.583  0.5201  0.2048  0.3739
  223HK4     H418684   9.278   2.283   6.537  0.9966  1.9834  1.4913
  223HK4    C1218685   9.394   2.262   6.714  0.3243 -0.3144  0.5531
  223HK4     H518686   9.352   2.356   6.753  1.6279  0.1580  0.8442
  223HK4    C1318687   9.460   2.167   6.791  0.0137 -0.3947  0.7212
  223HK4     H618688   9.502   2.209   6.883  0.3951 -1.0102  0.8353
  223HK4     C718689   9.412   2.100   6.377  0.8230  0.3021 -0.2990
  223HK4     O218690   9.340   2.176   6.313  0.2620  0.0115 -0.0118
  223HK4     C418691   9.473   1.986   6.306 -0.1524 -0.2491 -0.2639
  223HK4     C318692   9.506   1.997   6.171 -0.2695  0.0680 -0.2662
  223HK4     H318693   9.477   2.090   6.121  0.5088  1.8397  2.4707
  223HK4     C218694   9.582   1.900   6.106 -0.1965 -0.0619  0.0033
  223HK4     H218695   9.589   1.902   5.996 -0.8760  1.3818 -0.0320
  223HK4     C118696   9.619   1.791   6.182 -0.2001 -0.2170 -0.2176
  223HK4     H118697   9.648   1.700   6.127 -1.6049 -0.7533 -0.0735
  223HK4     C618698   9.597   1.779   6.321 -0.0138 -0.1389 -0.1805
  223HK4     C518699   9.516   1.875   6.383  0.0961 -0.0701 -0.1429
  223HK4    C1018700   9.502   1.888   6.530 -0.0651 -0.0060 -0.1649
  223HK4     O118701   9.462   1.784   6.584  0.2060 -0.0839 -0.1122
  223HK4    C1618702   9.697   1.709   6.403 -0.1728 -0.1709 -0.0123
  223HK4    C1518703   9.832   1.733   6.370 -0.2751  0.6599  0.1727
  223HK4     H718704   9.862   1.832   6.333  2.2030  0.1473  0.7195
  223HK4    C2018705   9.934   1.644   6.403 -0.5624  0.2230 -0.1104
  223HK4     H918706  10.040   1.659   6.382  0.6066 -2.4867  3.4769
  223HK4    C1918707   9.898   1.533   6.478  0.3181  0.0106 -0.0013
  223HK4    C1818708   9.763   1.508   6.524  0.4375  0.5727  0.6694
  223HK4    C1718709   9.666   1.594   6.474  0.0572 -0.3517 -0.1993
  223HK4     H818710   9.561   1.571   6.489 -0.0831 -0.5948 -1.5431
  223HK4     N118711   9.764   1.409   6.625 -0.0992 -0.3206 -0.1899
  223HK4    C2118712   9.901   1.386   6.652 -0.0890 -0.2235 -0.1586
  223HK4    C2218713   9.990   1.461   6.565  0.1003 -0.0871  0.1490
  223HK4    C2618714  10.121   1.489   6.598  0.2274 -0.2857 -0.1849
  223HK4    H1318715  10.191   1.535   6.528  0.8588  1.7581  1.7008
  223HK4    C2518716  10.157   1.451   6.727  0.1211 -0.3476 -0.1737
  223HK4    H1218717  10.256   1.468   6.770 -0.3296  1.7994  0.0600
  223HK4    C2418718  10.077   1.382   6.817  0.2977 -0.4596 -0.1028
  223HK4    H1118719  10.107   1.377   6.923 -1.5902 -1.2807  0.4222
  223HK4    C2318720   9.950   1.343   6.774  0.3232 -0.2796 -0.3432
  223HK4    H1018721   9.891   1.283   6.843 -0.3127  2.3842  1.5154
  223HK4    C3918722   9.654   1.367   6.700  0.1269 -0.2394  0.1859
  223HK4    C4118723   9.636   1.232   6.734  0.2617 -0.3446 -0.1654
  223HK4    H2118724   9.687   1.162   6.665 -1.2281 -0.4654 -1.1618
  223HK4    C4218725   9.549   1.198   6.837 -0.3263 -0.0912 -0.5791
  223HK4    H2218726   9.558   1.094   6.871  0.9195  0.6392  1.4172
  223HK4    C4318727   9.462   1.289   6.895  0.2779  0.1205 -0.0097
  223HK4    H2318728   9.384   1.255   6.963 -1.5323  0.3642 -1.9206
  223HK4    C4418729   9.468   1.423   6.857  0.2788 -0.0023 -0.4447
  223HK4    H2418730   9.403   1.496   6.908  2.0122  0.8128  0.6619
  223HK4    C4518731   9.564   1.456   6.763  0.1538  0.2607 -0.4813
  223HK4    H2518732   9.577   1.565   6.757 -0.1509  0.2672 -1.0085
  224HK4    H2818733   3.233   6.131   5.633 -0.0924 -0.6012 -0.7022
  224HK4    C4818734   3.251   6.043   5.695 -0.1422 -0.1447 -0.0429
  224HK4    C4718735   3.241   5.913   5.647 -0.1710 -0.2758  0.3168
  224HK4    H2718736   3.177   5.886   5.563  1.9603 -0.0393 -1.4372
  224HK4    C4618737   3.303   5.812   5.719  0.6371 -0.1329 -0.1671
  224HK4    H2618738   3.277   5.706   5.702  3.3728 -0.9566  0.5496
  224HK4    C4018739   3.385   5.833   5.832 -0.0665 -0.0414  0.3306
  224HK4    C5018740   3.385   5.963   5.886 -0.6217  0.0195  0.1889
  224HK4    H3018741   3.448   5.992   5.972  2.7167 -3.9819 -0.7387
  224HK4    C4918742   3.315   6.062   5.818 -0.2364  0.1418 -0.0366
  224HK4    H2918743   3.296   6.155   5.873 -3.2027  0.0466 -0.7748
  224HK4     N218744   3.488   5.743   5.861 -0.1086 -0.2850 -0.2651
  224HK4    C3018745   3.543   5.716   5.988  0.1934  0.1712 -0.3023
  224HK4    C2918746   3.491   5.743   6.114 -0.1425  0.0256 -0.4113
  224HK4    H1518747   3.396   5.796   6.117 -0.2326 -0.2068  3.2623
  224HK4    C2818748   3.563   5.711   6.229 -0.1751  0.1641 -0.3518
  224HK4    C2718749   3.686   5.643   6.213 -0.4464 -0.5742  0.6818
  224HK4    H1418750   3.746   5.625   6.303  0.9893  1.3829  0.1444
  224HK4    C3218751   3.734   5.608   6.087 -0.8182 -0.6051  0.5460
  224HK4    H1618752   3.823   5.546   6.077 -0.2570  0.1204  0.9744
  224HK4    C3118753   3.668   5.644   5.970  0.3614  0.3445  0.1597
  224HK4    C3418754   3.689   5.632   5.827  0.0165  0.0009  0.1363
  224HK4    C3318755   3.576   5.696   5.762  0.2738  0.1717 -0.1429
  224HK4    C3518756   3.584   5.706   5.624  0.0816  0.4914 -0.1315
  224HK4    H1718757   3.491   5.725   5.571 -0.3594 -0.9522  0.1351
  224HK4    C3618758   3.694   5.665   5.549  0.0372  0.0792  0.0314
  224HK4    H1818759   3.701   5.695   5.443 -3.2295  1.1797  0.0696
  224HK4    C3718760   3.793   5.593   5.613 -0.0407  0.1596  0.2410
  224HK4    H1918761   3.877   5.567   5.548 -1.2322  1.3689 -1.8244
  224HK4    C3818762   3.792   5.578   5.752  0.3715  0.4805  0.2780
  224HK4    H2018763   3.870   5.525   5.807 -1.4254 -0.5946  1.8318
  224HK4    C1418764   3.512   5.742   6.363  0.2139 -0.2333 -0.1108
  224HK4     C918765   3.598   5.747   6.473  0.5025 -0.1385 -0.3381
  224HK4     C818766   3.550   5.698   6.596  0.3859  0.0818 -0.2950
  224HK4    C1118767   3.423   5.643   6.606  0.3373  0.1952 -0.2880
  224HK4     H418768   3.390   5.599   6.702 -0.8209  1.6232 -0.0094
  224HK4    C1218769   3.336   5.640   6.498 -0.0159  0.3976 -0.0118
  224HK4     H518770   3.232   5.604   6.507  0.6686 -1.5803  0.1873
  224HK4    C1318771   3.379   5.698   6.380  0.0683  0.2200 -0.0692
  224HK4     H618772   3.301   5.732   6.310 -0.0829 -2.4769 -1.2877
  224HK4     C718773   3.634   5.700   6.718  0.1380 -0.0269 -0.1208
  224HK4     O218774   3.608   5.624   6.811  0.2129 -0.0961 -0.1557
  224HK4     C418775   3.754   5.787   6.710 -0.3642  0.7046  0.2057
  224HK4     C318776   3.822   5.826   6.826  0.9048 -0.5496 -0.0883
  224HK4     H318777   3.771   5.809   6.922  2.2372  0.8570  0.8920
  224HK4     C218778   3.948   5.883   6.823  0.5210  0.3111 -0.1414
  224HK4     H218779   4.007   5.912   6.912  0.1972 -0.0994  0.2053
  224HK4     C118780   4.008   5.893   6.698 -0.0676 -0.4782 -0.4916
  224HK4     H118781   4.107   5.941   6.694 -0.1659 -0.3085 -0.9010
  224HK4     C618782   3.950   5.846   6.578 -0.1436  0.0247 -0.6547
  224HK4     C518783   3.816   5.807   6.585  0.0154 -0.3819  0.2133
  224HK4    C1018784   3.728   5.820   6.466  0.3103  0.2501  0.0636
  224HK4     O118785   3.734   5.921   6.396  0.4706  0.3780  0.2627
  224HK4    C1618786   4.044   5.796   6.477  0.5936  0.1625 -0.0443
  224HK4    C1518787   4.181   5.778   6.506  0.5267 -0.4021 -0.0678
  224HK4     H718788   4.206   5.752   6.610 -3.4221  1.1865  1.3674
  224HK4    C2018789   4.279   5.753   6.410  0.6414  0.7284 -0.2546
  224HK4     H918790   4.379   5.727   6.443  1.0073  1.3744 -0.8608
  224HK4    C1918791   4.236   5.739   6.278  0.4276  0.1727 -0.1278
  224HK4    C1818792   4.097   5.760   6.242  0.3297 -0.0887  0.1026
  224HK4    C1718793   4.005   5.780   6.345  0.2790 -0.3193  0.1040
  224HK4     H818794   3.906   5.780   6.300  0.7178 -0.4719 -0.8820
  224HK4     N118795   4.087   5.770   6.102 -0.2798 -0.7641  0.0963
  224HK4    C2118796   4.215   5.736   6.054 -0.1809 -0.0355 -0.1606
  224HK4    C2218797   4.314   5.716   6.158  0.1468  0.4871 -0.3700
  224HK4    C2618798   4.432   5.648   6.129 -0.2658 -0.3695 -0.0693
  224HK4    H1318799   4.500   5.626   6.211 -0.5149 -2.7192 -0.4652
  224HK4    C2518800   4.458   5.603   6.000  0.7327  0.0453 -0.0102
  224HK4    H1218801   4.523   5.516   5.990 -1.4802 -1.4704 -1.5753
  224HK4    C2418802   4.373   5.634   5.895  0.1109 -0.2916  0.3977
  224HK4    H1118803   4.399   5.603   5.793 -1.8539 -0.2295 -0.1421
  224HK4    C2318804   4.257   5.705   5.925  0.2565  0.1347 -0.0564
  224HK4    H1018805   4.201   5.744   5.840  0.0563  0.7764  0.3654
  224HK4    C3918806   3.996   5.855   6.039 -0.0516 -0.3766  0.2919
  224HK4    C4118807   3.985   5.843   5.899 -0.1646 -0.1271  0.2800
  224HK4    H2118808   3.954   5.742   5.867 -0.5568  0.3998 -1.0785
  224HK4    C4218809   3.936   5.952   5.827  0.0469  0.0677  0.4270
  224HK4    H2218810   3.969   5.949   5.722  2.3066 -1.0724  1.1483
  224HK4    C4318811   3.891   6.067   5.890 -0.0842 -0.0535  0.5552
  224HK4    H2318812   3.839   6.151   5.844 -1.8945 -1.2997  0.2651
  224HK4    C4418813   3.896   6.081   6.028 -0.6846  0.0081  0.5698
  224HK4    H2418814   3.848   6.166   6.078  1.8499  1.2746  0.9040
  224HK4    C4518815   3.946   5.972   6.099 -0.1873 -0.2195 -0.1235
  224HK4    H2518816   3.953   5.983   6.208 -1.4383 -1.1100  0.0532
  225HK4    H2818817   3.907   5.901  10.761  0.2110  0.2001  0.1361
  225HK4    C4818818   3.884   5.798  10.734 -0.7012  0.5664 -0.5041
  225HK4    C4718819   3.819   5.715  10.826  0.1854 -0.0443 -0.4299
  225HK4    H2718820   3.830   5.745  10.931  0.4961 -0.8549 -0.2326
  225HK4    C4618821   3.788   5.585  10.789  0.0284 -0.0298 -0.3451
  225HK4    H2618822   3.727   5.516  10.850 -0.5498  1.5843  0.9586
  225HK4    C4018823   3.812   5.528  10.663  0.3037 -0.0143 -0.3022
  225HK4    C5018824   3.865   5.620  10.569 -0.2929  0.3794 -0.2561
  225HK4    H3018825   3.893   5.584  10.469  0.9279 -0.8821  0.5228
  225HK4    C4918826   3.904   5.748  10.607 -0.6120  0.5449 -0.4842
  225HK4    H2918827   3.968   5.810  10.542  1.2078 -0.2736  0.4914
  225HK4     N218828   3.840   5.393  10.639  0.2011 -0.1010  0.0741
  225HK4    C3018829   3.884   5.305  10.740  0.7254  0.0429 -0.0290
  225HK4    C2918830   3.950   5.336  10.858  0.1237 -0.0617  0.3412
  225HK4    H1518831   3.962   5.438  10.896  1.4865 -0.6480  1.5065
  225HK4    C2818832   4.026   5.241  10.925 -0.0226 -0.4543 -0.0515
  225HK4    C2718833   4.023   5.108  10.878  0.4477 -0.5839  0.2857
  225HK4    H1418834   4.054   5.022  10.940 -0.6042 -2.2372 -1.4334
  225HK4    C3218835   3.945   5.073  10.769  0.5980  0.1164 -0.0428
  225HK4    H1618836   3.940   4.969  10.738  1.7761 -0.2478  0.9880
  225HK4    C3118837   3.878   5.168  10.692  0.1626 -0.0092  0.1786
  225HK4    C3418838   3.829   5.171  10.556  0.2548 -0.0240  0.1451
  225HK4    C3318839   3.813   5.312  10.527  1.4563  0.0290 -0.3308
  225HK4    C3518840   3.742   5.352  10.414  0.0595 -0.2670  0.4311
  225HK4    H1718841   3.751   5.455  10.379 -1.3787  0.0404  0.9405
  225HK4    C3618842   3.676   5.258  10.335  0.1836 -0.0799  0.1037
  225HK4    H1818843   3.630   5.300  10.245  1.6214 -0.5421 -0.8762
  225HK4    C3718844   3.687   5.123  10.367 -0.0041 -0.0326  0.3766
  225HK4    H1918845   3.660   5.059  10.282  1.8767  2.3141 -2.0589
  225HK4    C3818846   3.764   5.079  10.474 -0.0945 -0.0366  0.4385
  225HK4    H2018847   3.727   4.985  10.515  2.0941 -0.9948  0.3008
  225HK4    C1418848   4.153   5.292  10.977  0.1304 -0.8700 -0.0166
  225HK4     C918849   4.280   5.252  10.935  0.4529  0.1524 -0.0401
  225HK4     C818850   4.391   5.260  11.022  0.1487  0.1321  0.3467
  225HK4    C1118851   4.368   5.316  11.147  0.0881  0.4545  0.1898
  225HK4     H418852   4.456   5.324  11.212  1.3512 -1.9265 -1.1754
  225HK4    C1218853   4.242   5.356  11.192 -0.0954 -0.0361  0.1109
  225HK4     H518854   4.224   5.349   0.052  1.1357  0.5103  0.3583
  225HK4    C1318855   4.134   5.345  11.106  0.1804 -0.4145 -0.1907
  225HK4     H618856   4.033   5.374  11.141  1.2938  0.9383  2.0073
  225HK4     C718857   4.522   5.199  10.989 -0.1363 -0.4131  0.2148
  225HK4     O218858   4.619   5.243  11.049  0.2008 -0.6415 -0.1662
  225HK4     C418859   4.537   5.128  10.860  0.3814  0.0308  0.0296
  225HK4     C318860   4.657   5.061  10.834  0.5207  0.1925  0.2545
  225HK4     H318861   4.743   5.079  10.900 -0.3674  1.2770  1.1463
  225HK4     C218862   4.670   4.971  10.729 -0.1811  0.8147 -0.3717
  225HK4     H218863   4.767   4.940  10.687  0.3433  1.4367  0.3578
  225HK4     C118864   4.553   4.942  10.659 -0.2839 -0.6323  0.3872
  225HK4     H118865   4.556   4.856  10.590  1.1238  0.5109 -1.0080
  225HK4     C618866   4.433   5.012  10.678  0.1387  0.2268 -0.0733
  225HK4     C518867   4.426   5.113  10.775  0.0322 -0.3760  0.5499
  225HK4    C1018868   4.310   5.204  10.797  0.2118 -0.0009 -0.0405
  225HK4     O118869   4.276   5.275  10.702  0.2408  0.0044 -0.0468
  225HK4    C1618870   4.317   4.966  10.599  0.6305 -0.4999 -0.3838
  225HK4    C1518871   4.289   4.828  10.597  0.4091 -0.4491 -0.7100
  225HK4     H718872   4.300   4.775  10.692  1.8124  3.0349  1.1493
  225HK4    C2018873   4.204   4.771  10.503 -0.1971 -0.0691 -0.3974
  225HK4     H918874   4.181   4.665  10.495  1.2311 -0.3663 -0.6876
  225HK4    C1918875   4.135   4.855  10.416 -0.2986  0.1804 -0.0775
  225HK4    C1818876   4.156   4.998  10.416  0.3721  0.0856  0.1823
  225HK4    C1718877   4.254   5.044  10.503  0.5355 -0.0312  0.0600
  225HK4     H818878   4.289   5.147  10.489 -1.7286  0.8281  0.3794
  225HK4     N118879   4.094   5.059  10.305  0.8584  0.1280 -0.0639
  225HK4    C2118880   4.021   4.959  10.238  0.5804  0.8675 -0.8668
  225HK4    C2218881   4.056   4.831  10.296  0.2205  0.9040 -0.5703
  225HK4    C2618882   4.000   4.714  10.247  0.1813  0.7688 -0.2117
  225HK4    H1318883   4.022   4.621  10.299 -1.1763 -1.0254 -2.7061
  225HK4    C2518884   3.909   4.715  10.142  0.2438 -0.1458 -0.2784
  225HK4    H1218885   3.876   4.620  10.100  2.0566 -0.1569 -1.7382
  225HK4    C2418886   3.871   4.838  10.090  0.2440  0.0442  0.1720
  225HK4    H1118887   3.823   4.848   9.991 -1.8607 -2.2311  0.9190
  225HK4    C2318888   3.922   4.958  10.139  0.5403  0.3330 -0.8218
  225HK4    H1018889   3.883   5.053  10.103  0.1784  0.3611 -0.3657
  225HK4    C3918890   4.075   5.196  10.286 -0.1729 -0.0230 -0.1369
  225HK4    C4118891   4.051   5.251  10.158 -0.4823  0.0927 -0.0294
  225HK4    H2118892   4.060   5.178  10.076  1.5274  0.5516 -0.2392
  225HK4    C4218893   4.038   5.387  10.137 -1.1874  0.0035 -0.2068
  225HK4    H2218894   4.059   5.436  10.041 -0.2290 -1.2262 -0.6289
  225HK4    C4318895   4.044   5.478  10.243  0.3600 -0.3420  0.0133
  225HK4    H2318896   4.022   5.584  10.233  2.6093  0.2192  0.8780
  225HK4    C4418897   4.070   5.426  10.369  0.3831 -0.2309  0.0565
  225HK4    H2418898   4.084   5.497  10.451  2.4375 -1.5036  0.8463
  225HK4    C4518899   4.094   5.290  10.389  0.9326 -0.1745 -0.1988
  225HK4    H2518900   4.113   5.262  10.494  0.2085  0.8092  0.2018
  226HK4    H2818901   0.267   1.496   0.333 -1.4179  0.1282 -2.8392
  226HK4    C4818902   0.185   1.452   0.391  0.5024  0.2297  0.0298
  226HK4    C4718903   0.147   1.319   0.382  0.2111  0.3041  0.1548
  226HK4    H2718904   0.181   1.248   0.305  0.7658  0.3027  0.3934
  226HK4    C4618905   0.066   1.270   0.484  0.1825  0.0032 -0.0133
  226HK4    H2618906   0.042   1.162   0.478  1.3334 -0.1341 -3.0185
  226HK4    C4018907   0.020   1.356   0.585 -0.1415 -0.0362 -0.1289
  226HK4    C5018908   0.069   1.488   0.596  0.0950 -0.1137 -0.2518
  226HK4    H3018909   0.058   1.548   0.687  0.6034  0.3045 -0.4643
  226HK4    C4918910   0.155   1.536   0.498 -0.0593  0.3057 -0.1842
  226HK4    H2918911   0.159   1.646   0.493 -2.2957  0.3439 -1.9843
  226HK4     N218912  11.151   1.323   0.655  0.1191 -0.6789  0.0068
  226HK4    C3018913  11.044   1.247   0.603 -0.1701 -0.1652 -0.1440
  226HK4    C2918914  10.982   1.258   0.479 -0.3986  0.2908  0.0065
  226HK4    H1518915  11.024   1.331   0.410  0.1003 -0.8220 -0.8760
  226HK4    C2818916  10.877   1.175   0.444  0.1956 -0.3637 -0.2393
  226HK4    C2718917  10.842   1.077   0.539 -0.5227  0.2987  0.1839
  226HK4    H1418918  10.757   1.011   0.517  1.3744 -2.5706  1.2040
  226HK4    C3218919  10.896   1.063   0.666 -0.0793 -0.2125 -0.0615
  226HK4    H1618920  10.856   0.985   0.732 -1.4169  0.5208  0.0024
  226HK4    C3118921  10.996   1.153   0.702 -0.3234  0.0395 -0.0206
  226HK4    C3418922  11.072   1.180   0.822 -0.1112  0.3085 -0.2144
  226HK4    C3318923  11.154   1.296   0.793  0.2603  0.1418  0.1708
  226HK4    C3518924  11.207   1.378   0.892 -0.1099  0.2050  0.3167
  226HK4    H1718925   0.007   1.475   0.878 -1.3027  1.2045  2.8603
  226HK4    C3618926  11.189   1.335   1.023 -0.1761  0.2825  0.3325
  226HK4    H1818927  11.243   1.390   1.102  0.9708  0.2931 -0.4499
  226HK4    C3718928  11.122   1.217   1.051 -0.0847  0.0525 -0.4010
  226HK4    H1918929  11.124   1.178   1.153 -1.1845 -2.3994 -1.2788
  226HK4    C3818930  11.062   1.137   0.954  0.4454 -0.3651 -0.3876
  226HK4    H2018931  10.991   1.061   0.985  0.4160  1.5435  4.8630
  226HK4    C1418932  10.784   1.225   0.342  0.1775 -0.1754 -0.1305
  226HK4     C918933  10.648   1.191   0.332 -0.0163  0.5188  0.0638
  226HK4     C818934  10.573   1.186   0.213  0.2997  0.2789 -0.1243
  226HK4    C1118935  10.635   1.231   0.097  0.4262 -0.5716 -0.3931
  226HK4     H418936  10.587   1.211   0.000  0.3411  0.0232 -0.4765
  226HK4    C1218937  10.765   1.281   0.095  0.2359 -0.0693 -0.2812
  226HK4     H518938  10.804   1.350   0.019 -1.1680 -1.7013 -2.5657
  226HK4    C1318939  10.832   1.269   0.217 -0.0608  0.2036 -0.0895
  226HK4     H618940  10.939   1.291   0.213 -0.2242  0.9390 -0.6374
  226HK4     C718941  10.432   1.141   0.206  0.5417 -0.4555 -0.4401
  226HK4     O218942  10.362   1.181   0.113  0.1194  0.1831  0.1498
  226HK4     C418943  10.366   1.088   0.328  0.4015 -0.3053 -0.4491
  226HK4     C318944  10.239   1.032   0.319  0.1689  0.0993  0.3831
  226HK4     H318945  10.195   1.021   0.219  1.3928  4.3327 -0.7379
  226HK4     C218946  10.169   1.001   0.435  0.1140 -0.0207  0.3191
  226HK4     H218947  10.067   0.964   0.416  1.3838 -2.7471 -1.6183
  226HK4     C118948  10.233   1.009   0.558 -0.0049 -0.3326  0.4048
  226HK4     H118949  10.172   1.001   0.649 -0.6283 -0.5116 -0.0281
  226HK4     C618950  10.362   1.066   0.563  0.2389 -0.8170 -0.2297
  226HK4     C518951  10.430   1.114   0.451 -0.0028 -0.4364 -0.2124
  226HK4    C1018952  10.565   1.175   0.455  0.0024 -0.4551 -0.0447
  226HK4     O118953  10.582   1.265   0.538 -0.2559 -0.0516 -0.4260
  226HK4    C1618954  10.436   1.005   0.675 -0.0320  0.0332  0.4237
  226HK4    C1518955  10.428   0.869   0.708 -0.8334  0.0619  0.3466
  226HK4     H718956  10.361   0.805   0.649  0.4901 -1.1182  0.0963
  226HK4    C2018957  10.492   0.816   0.819 -0.1972  0.5373  0.2061
  226HK4     H918958  10.491   0.709   0.840  0.5755  0.5287  0.2444
  226HK4    C1918959  10.577   0.892   0.899 -0.2170  0.2099  0.5413
  226HK4    C1818960  10.580   1.034   0.868  0.4459 -0.0240 -0.4703
  226HK4    C1718961  10.515   1.085   0.757 -0.1854  0.4812  0.1355
  226HK4     H818962  10.511   1.194   0.756 -0.0596  0.4884 -2.6601
  226HK4     N118963  10.642   1.098   0.977 -0.3914  0.1906 -0.1237
  226HK4    C2118964  10.679   1.000   1.072 -0.0421  0.0963 -0.3578
  226HK4    C2218965  10.643   0.867   1.025  0.0243 -0.1709  0.3421
  226HK4    C2618966  10.713   0.752   1.060  0.3762 -0.1182 -0.1876
  226HK4    H1318967  10.681   0.651   1.036  2.4350 -0.8978  0.2895
  226HK4    C2518968  10.826   0.759   1.140  0.0332  0.3087  0.2605
  226HK4    H1218969  10.892   0.673   1.153 -0.2890 -0.1218 -0.9086
  226HK4    C2418970  10.864   0.884   1.187  0.4289  0.3026 -0.0475
  226HK4    H1118971  10.948   0.889   1.258 -0.1350 -1.4129  0.7463
  226HK4    C2318972  10.787   0.997   1.159  0.3422  0.0535 -0.8335
  226HK4    H1018973  10.813   1.081   1.224 -1.3135  1.4397 -1.9151
  226HK4    C3918974  10.689   1.229   0.984  0.1623 -0.0028 -0.2643
  226HK4    C4118975  10.728   1.296   1.101 -0.2099 -0.1286 -0.0686
  226HK4    H2118976  10.669   1.273   1.191  1.3319  0.5589  1.1559
  226HK4    C4218977  10.804   1.413   1.095  0.4968 -0.5941 -0.2078
  226HK4    H2218978  10.851   1.450   1.187 -1.4980  0.0881  0.5743
  226HK4    C4318979  10.834   1.476   0.975 -0.6742  0.0933 -0.1489
  226HK4    H2318980  10.844   1.584   0.974  0.9321 -0.0378 -0.0866
  226HK4    C4418981  10.790   1.414   0.859 -0.0220 -0.7036  0.0226
  226HK4    H2418982  10.811   1.459   0.761  2.7352  0.0138  0.8934
  226HK4    C4518983  10.724   1.291   0.862  0.3296 -0.9121 -0.6840
  226HK4    H2518984  10.709   1.233   0.770  0.5229  0.5121 -1.6296
  227HK4    H2818985   4.100   2.946   3.572 -0.2958  0.0143 -0.8009
  227HK4    C4818986   4.170   2.878   3.523  0.4268  0.0554  0.1763
  227HK4    C4718987   4.133   2.746   3.500 -0.2873  0.3546 -0.4257
  227HK4    H2718988   4.040   2.714   3.548  0.4926  1.0495  1.6342
  227HK4    C4618989   4.218   2.654   3.440 -0.0504  0.8379 -0.8313
  227HK4    H2618990   4.178   2.555   3.415  2.3423 -0.5070  0.4133
  227HK4    C4018991   4.350   2.693   3.406  0.3145 -0.2029 -0.6396
  227HK4    C5018992   4.386   2.828   3.427 -0.8660  0.0603 -0.2581
  227HK4    H3018993   4.488   2.861   3.405 -0.9602 -0.3787 -1.3869
  227HK4    C4918994   4.297   2.919   3.484 -0.0986  1.0028 -0.5557
  227HK4    H2918995   4.324   3.025   3.493 -0.2764  1.0529 -0.6102
  227HK4     N218996   4.448   2.596   3.385  1.0526  0.2211  0.7769
  227HK4    C3018997   4.435   2.459   3.415  0.1547  0.2000  0.3086
  227HK4    C2918998   4.378   2.410   3.532  0.1103  0.2869  0.3238
  227HK4    H1518999   4.318   2.475   3.596 -1.0561  0.8378 -1.3079
  227HK4    C2819000   4.387   2.275   3.565  0.4648  0.1578 -0.3002
  227HK4    C2719001   4.461   2.191   3.479  0.5734 -0.5638  0.5012
  227HK4    H1419002   4.465   2.084   3.506 -0.9916 -0.4138  1.4423
  227HK4    C3219003   4.516   2.236   3.360  0.7880  0.2118  0.8923
  227HK4    H1619004   4.590   2.168   3.317 -0.2694 -1.0551  1.0469
  227HK4    C3119005   4.501   2.369   3.323 -0.5169 -0.1349  0.1546
  227HK4    C3419006   4.565   2.459   3.229  0.0570 -0.1894  0.4931
  227HK4    C3319007   4.540   2.593   3.277  0.0080  0.0228 -0.1175
  227HK4    C3519008   4.623   2.694   3.231  0.3774 -0.2141  0.0312
  227HK4    H1719009   4.595   2.797   3.251  0.7050 -0.2192  0.5334
  227HK4    C3619010   4.726   2.668   3.141  0.1680  0.3371 -0.3706
  227HK4    H1819011   4.807   2.740   3.125  0.9070 -0.5187 -0.5179
  227HK4    C3719012   4.749   2.540   3.092 -0.1609  0.2872 -0.3939
  227HK4    H1919013   4.835   2.520   3.028 -1.1800 -1.7827 -1.1942
  227HK4    C3819014   4.675   2.436   3.147  0.0480  0.4935  0.2838
  227HK4    H2019015   4.700   2.335   3.113  2.3841  1.2675 -0.4106
  227HK4    C1419016   4.341   2.230   3.697  0.6821  1.0074  0.0725
  227HK4     C919017   4.387   2.122   3.773 -0.5444 -0.1254 -0.7611
  227HK4     C819018   4.301   2.049   3.859  0.0936  0.0340  0.0202
  227HK4    C1119019   4.177   2.096   3.898  0.6117  0.8488  0.7189
  227HK4     H419020   4.132   2.067   3.994  0.0481  0.2696  0.2944
  227HK4    C1219021   4.137   2.214   3.836  0.4128  0.2746 -0.2540
  227HK4     H519022   4.041   2.263   3.855  1.2140  1.9653 -0.5337
  227HK4    C1319023   4.212   2.273   3.734  0.2372  0.1433 -0.4594
  227HK4     H619024   4.166   2.357   3.681  0.3537  1.4131  1.4273
  227HK4     C719025   4.349   1.917   3.906  0.1490 -0.0308 -0.2149
  227HK4     O219026   4.288   1.858   3.995  0.2333  0.5290  0.2218
  227HK4     C419027   4.479   1.866   3.856  0.3345  0.3868 -0.1585
  227HK4     C319028   4.514   1.735   3.883 -0.0242  0.4568  0.6754
  227HK4     H319029   4.444   1.668   3.936 -1.2900 -0.1040 -1.6240
  227HK4     C219030   4.636   1.685   3.839 -0.2030  0.4112  0.2227
  227HK4     H219031   4.655   1.578   3.857 -1.7444 -0.2872 -2.1814
  227HK4     C119032   4.713   1.757   3.748 -0.5119 -0.4008 -0.6868
  227HK4     H119033   4.802   1.723   3.693 -1.4337 -0.0187 -2.4720
  227HK4     C619034   4.680   1.892   3.722  0.5332 -0.0445 -0.1986
  227HK4     C519035   4.569   1.949   3.786  0.5823  0.0695 -0.2160
  227HK4    C1019036   4.533   2.092   3.768 -0.5136 -0.1589  0.1236
  227HK4     O119037   4.606   2.182   3.807 -0.3310 -0.2688  0.0307
  227HK4    C1619038   4.726   1.938   3.591  0.6840 -0.4953 -0.3067
  227HK4    C1519039   4.733   1.852   3.479 -0.5934 -0.2733 -0.5666
  227HK4     H719040   4.673   1.760   3.479  1.6724 -1.7963  0.3111
  227HK4    C2019041   4.800   1.884   3.362  0.3114  0.0302  0.0260
  227HK4     H919042   4.805   1.815   3.278 -2.7054 -0.9532  0.6147
  227HK4    C1919043   4.855   2.012   3.354  0.1064  0.1238  0.1207
  227HK4    C1819044   4.853   2.101   3.469  0.5974 -0.2690  0.4334
  227HK4    C1719045   4.793   2.060   3.587 -0.8039  0.3370 -0.0689
  227HK4     H819046   4.823   2.112   3.678 -0.8365  0.9598 -0.4119
  227HK4     N119047   4.928   2.217   3.442 -0.2635  0.1137 -0.3078
  227HK4    C2119048   4.956   2.214   3.304  0.3849 -0.5011 -0.1613
  227HK4    C2219049   4.909   2.090   3.245  0.1703 -0.3926 -0.2174
  227HK4    C2619050   4.919   2.071   3.107 -0.0644  0.4930 -0.3599
  227HK4    H1319051   4.880   1.979   3.064 -0.1594 -1.0382  2.8495
  227HK4    C2519052   4.985   2.164   3.028 -0.0512 -0.0237 -0.9590
  227HK4    H1219053   4.995   2.153   2.920  2.9322  2.2650 -0.9771
  227HK4    C2419054   5.026   2.285   3.084 -0.5060 -0.2874 -0.0481
  227HK4    H1119055   5.076   2.356   3.017  0.6825 -2.3406 -1.4135
  227HK4    C2319056   5.003   2.312   3.218  0.7561 -0.3680  0.1917
  227HK4    H1019057   5.019   2.415   3.250 -1.7539  1.3382 -3.6089
  227HK4    C3919058   4.927   2.330   3.526  0.3223 -0.5139  0.5446
  227HK4    C4119059   5.045   2.407   3.535  0.0967 -0.0709 -0.2820
  227HK4    H2119060   5.141   2.354   3.544 -0.2550 -0.1331  4.2138
  227HK4    C4219061   5.042   2.532   3.595 -0.4526 -0.5458  0.6917
  227HK4    H2219062   5.134   2.591   3.610 -1.3913  0.9639  0.6787
  227HK4    C4319063   4.919   2.577   3.643 -0.2020  0.4903  0.3918
  227HK4    H2319064   4.913   2.674   3.690 -0.3954  0.1919  0.9838
  227HK4    C4419065   4.805   2.499   3.630  0.1982 -0.0323 -0.0265
  227HK4    H2419066   4.709   2.526   3.677  1.0768  1.0882  1.1722
  227HK4    C4519067   4.801   2.372   3.573  0.3580 -0.2200  0.3791
  227HK4    H2519068   4.708   2.313   3.574  1.7149 -2.4139  1.5480
  228HK4    H2819069   5.129  10.944   7.538 -0.2669  0.1266  1.4236
  228HK4    C4819070   5.199  10.861   7.546  0.2678  0.4152 -0.0797
  228HK4    C4719071   5.268  10.839   7.664 -0.2234  0.1397  0.1587
  228HK4    H2719072   5.240  10.896   7.754 -3.0241  0.4701 -0.8715
  228HK4    C4619073   5.350  10.728   7.676 -0.5716 -0.1699 -0.3290
  228HK4    H2619074   5.413  10.719   7.766 -2.3115  1.3448  1.0972
  228HK4    C4019075   5.348  10.625   7.580 -0.2223 -0.3893 -0.1038
  228HK4    C5019076   5.271  10.653   7.465 -0.5803 -0.9767 -0.0097
  228HK4    H3019077   5.267  10.573   7.390 -1.2250  2.8033 -4.2067
  228HK4    C4919078   5.194  10.767   7.443  0.3523 -0.2372  0.5128
  228HK4    H2919079   5.145  10.797   7.350 -0.6208 -2.3645  0.3072
  228HK4     N219080   5.452  10.531   7.573 -0.0515 -0.1868 -0.2272
  228HK4    C3019081   5.578  10.550   7.633  0.0386 -0.0010 -0.4706
  228HK4    C2919082   5.656  10.657   7.676  0.2222 -0.3635  0.1040
  228HK4    H1519083   5.622  10.757   7.652  1.0493  0.1703  1.0876
  228HK4    C2819084   5.777  10.648   7.744  0.0919 -0.0625  0.3795
  228HK4    C2719085   5.836  10.521   7.763  0.1539 -0.0001  0.6096
  228HK4    H1419086   5.925  10.494   7.821  1.5457  0.1519 -1.4078
  228HK4    C3219087   5.766  10.413   7.709 -0.4224  0.2134  0.9215
  228HK4    H1619088   5.814  10.316   7.721 -0.4058  0.2618  1.2325
  228HK4    C3119089   5.642  10.421   7.647  0.0538  0.0493 -0.0667
  228HK4    C3419090   5.551  10.318   7.599  0.5084  0.0072 -0.8374
  228HK4    C3319091   5.435  10.392   7.556 -0.2215 -0.2712  0.6283
  228HK4    C3519092   5.339  10.324   7.481 -0.1131  0.0002  0.2373
  228HK4    H1719093   5.250  10.376   7.449 -1.1176 -1.8958 -0.1389
  228HK4    C3619094   5.358  10.190   7.450  0.1850  0.0338  0.2676
  228HK4    H1819095   5.278  10.128   7.406 -1.3999  0.1336  2.9347
  228HK4    C3719096   5.463  10.115   7.501  0.2223  0.0456  0.2106
  228HK4    H1919097   5.471  10.007   7.488 -0.4880  0.2359 -1.8893
  228HK4    C3819098   5.561  10.182   7.575 -0.0798 -0.3787  1.0037
  228HK4    H2019099   5.642  10.119   7.612 -0.2938 -1.1549  0.1988
  228HK4    C1419100   5.850  10.772   7.775 -0.1242  0.3187 -0.6406
  228HK4     C919101   5.987  10.776   7.801 -0.1868  0.6788 -0.3758
  228HK4     C819102   6.040  10.872   7.890 -0.0995 -0.1270  0.4405
  228HK4    C1119103   5.956  10.969   7.944 -0.1468  0.0731  0.0072
  228HK4     H419104   6.003  11.053   7.997  0.6615 -0.5448  0.2974
  228HK4    C1219105   5.821  10.970   7.912 -0.1534  0.4669  0.0467
  228HK4     H519106   5.763  11.061   7.932  0.6851  0.6832  1.6226
  228HK4    C1319107   5.766  10.870   7.833  0.2283  0.0741  0.2802
  228HK4     H619108   5.660  10.849   7.852  0.3002 -0.2765  0.3088
  228HK4     C719109   6.178  10.861   7.943  0.2569 -0.0225 -0.4646
  228HK4     O219110   6.222  10.944   8.022 -0.1976 -0.4939  0.2881
  228HK4     C419111   6.257  10.739   7.913  0.6622  0.0516  0.3098
  228HK4     C319112   6.366  10.710   7.995  0.7902  0.4573  0.2890
  228HK4     H319113   6.399  10.770   8.080  1.3042 -0.0879  0.4748
  228HK4     C219114   6.437  10.596   7.957 -0.1359 -0.0056 -0.0812
  228HK4     H219115   6.506  10.561   8.034 -0.7539  2.2897  1.5772
  228HK4     C119116   6.413  10.523   7.841  0.2092  0.2092 -0.2893
  228HK4     H119117   6.440  10.417   7.853 -0.0739  0.4095  2.5022
  228HK4     C619118   6.298  10.549   7.765 -0.4278  0.0122  0.5969
  228HK4     C519119   6.224  10.663   7.800 -0.0341  0.3564  0.3041
  228HK4    C1019120   6.091  10.690   7.739  0.1002  0.6496  0.1355
  228HK4     O119121   6.093  10.691   7.616 -0.2803 -0.2187  0.1186
  228HK4    C1619122   6.297  10.492   7.629  0.1852  0.2179  0.5080
  228HK4    C1519123   6.422  10.471   7.568 -0.2648  1.0965 -0.7262
  228HK4     H719124   6.508  10.535   7.593 -0.6934  1.6600 -0.7016
  228HK4    C2019125   6.442  10.388   7.458  0.1798  0.5245 -0.2192
  228HK4     H919126   6.537  10.338   7.439 -0.9119 -1.6722 -0.0765
  228HK4    C1919127   6.328  10.332   7.401  0.3072  0.2346 -0.1868
  228HK4    C1819128   6.198  10.362   7.457  0.3448  0.0383  0.0081
  228HK4    C1719129   6.185  10.428   7.578  0.3125  0.6629 -0.3360
  228HK4     H819130   6.092  10.410   7.632 -0.2014 -1.3189 -1.8245
  228HK4     N119131   6.102  10.291   7.381  0.2550  0.3777 -0.1971
  228HK4    C2119132   6.166  10.221   7.277  0.4034  0.7860 -0.3803
  228HK4    C2219133   6.308  10.249   7.284  0.5219  0.1373 -0.1575
  228HK4    C2619134   6.399  10.212   7.186  0.6348 -0.0330  0.0096
  228HK4    H1319135   6.502  10.249   7.185  1.1554 -1.4255  1.2159
  228HK4    C2519136   6.344  10.148   7.075 -0.1803 -0.1022  0.4443
  228HK4    H1219137   6.420  10.126   7.000 -0.6921 -0.7096  0.1031
  228HK4    C2419138   6.213  10.103   7.068  0.0945 -0.8505  0.0168
  228HK4    H1119139   6.181  10.063   6.971 -1.0391  0.8751 -0.3315
  228HK4    C2319140   6.126  10.141   7.170  0.6581 -0.2050  0.2628
  228HK4    H1019141   6.020  10.126   7.153  0.0131  1.8426  2.2181
  228HK4    C3919142   5.966  10.321   7.376  0.1801  0.1529  0.3725
  228HK4    C4119143   5.867  10.227   7.342  0.4601  0.0759 -0.2324
  228HK4    H2119144   5.899  10.124   7.320  0.1156 -0.9033  3.5518
  228HK4    C4219145   5.738  10.271   7.314  0.2317 -0.4670 -0.0356
  228HK4    H2219146   5.660  10.196   7.294 -0.5901  0.1015  0.9516
  228HK4    C4319147   5.711  10.407   7.323  0.0309 -0.4630 -0.7309
  228HK4    H2319148   5.608  10.434   7.300  0.3258  1.3701  0.0471
  228HK4    C4419149   5.804  10.501   7.363 -0.1065 -0.4394 -0.4623
  228HK4    H2419150   5.776  10.607   7.362 -1.0717 -0.6962 -0.2348
  228HK4    C4519151   5.934  10.458   7.389  0.0274  0.1663 -0.1134
  228HK4    H2519152   6.009  10.538   7.404 -0.9283  1.0348  0.0976
  229HK4    H2819153   0.210   7.426   4.566  0.1423 -1.2830 -2.1688
  229HK4    C4819154   0.259   7.334   4.597  0.0288 -0.6843 -0.1664
  229HK4    C4719155   0.397   7.329   4.605  0.0161 -0.1696  0.4518
  229HK4    H2719156   0.458   7.396   4.543 -0.0825 -0.1679  0.3579
  229HK4    C4619157   0.468   7.230   4.673  0.1882 -0.3763 -0.0283
  229HK4    H2619158   0.565   7.263   4.712 -0.3088 -0.1204  0.9923
  229HK4    C4019159   0.402   7.116   4.725  0.1343 -0.3773 -0.0968
  229HK4    C5019160   0.262   7.116   4.712  0.0665 -0.0087  0.6138
  229HK4    H3019161   0.203   7.024   4.728 -0.3346  0.0079 -0.6989
  229HK4    C4919162   0.196   7.224   4.655 -0.1958 -1.0423 -1.0833
  229HK4    H2919163   0.088   7.212   4.643 -0.1732 -2.8470  0.2970
  229HK4     N219164   0.475   6.999   4.751  0.0183 -0.3749  0.2465
  229HK4    C3019165   0.605   6.967   4.707  0.2993  0.6946  0.2753
  229HK4    C2919166   0.672   7.008   4.593 -0.5139 -0.5203 -0.6532
  229HK4    H1519167   0.630   7.095   4.543 -1.3568  0.5078  1.8092
  229HK4    C2819168   0.804   6.969   4.568  0.1056  1.0255  0.1220
  229HK4    C2719169   0.866   6.885   4.663  0.0116  0.2213 -0.5210
  229HK4    H1419170   0.969   6.848   4.651 -0.4488 -0.9074 -1.0723
  229HK4    C3219171   0.795   6.829   4.769 -0.1055  0.3435 -0.5345
  229HK4    H1619172   0.853   6.759   4.830 -2.1835 -1.1359 -0.2220
  229HK4    C3119173   0.662   6.863   4.790  0.0873  0.5960  0.2991
  229HK4    C3419174   0.558   6.817   4.881  0.2688 -0.6634 -0.1235
  229HK4    C3319175   0.448   6.907   4.854  0.4622 -0.2417  0.4819
  229HK4    C3519176   0.329   6.875   4.917  0.1666 -0.2172 -0.0630
  229HK4    H1719177   0.235   6.912   4.874  0.7817 -1.3612 -2.5124
  229HK4    C3619178   0.326   6.777   5.016  0.4152  0.4239  0.5816
  229HK4    H1819179   0.236   6.757   5.076  0.7130 -0.6423  0.6842
  229HK4    C3719180   0.439   6.705   5.052  0.3232 -0.0971 -0.1600
  229HK4    H1919181   0.442   6.653   5.148 -1.0741 -0.6089 -0.3833
  229HK4    C3819182   0.557   6.719   4.980  0.7102 -0.0783  0.4699
  229HK4    H2019183   0.648   6.672   5.017  0.4358 -2.3430 -1.5623
  229HK4    C1419184   0.858   6.987   4.433 -0.0657 -0.0636 -0.0986
  229HK4     C919185   0.943   6.896   4.370  0.0166 -0.4113  0.5081
  229HK4     C819186   1.044   6.949   4.287 -0.7579 -0.7736 -0.6865
  229HK4    C1119187   1.061   7.086   4.279  0.1643 -0.7813  0.9122
  229HK4     H419188   1.126   7.128   4.201 -1.9284  0.6730 -0.1196
  229HK4    C1219189   0.971   7.176   4.335  0.3322 -0.3533  0.5033
  229HK4     H519190   0.981   7.285   4.347 -0.5453 -0.4884  2.7202
  229HK4    C1319191   0.862   7.125   4.405  0.2028  0.0802  0.6181
  229HK4     H619192   0.770   7.186   4.403 -0.4152 -0.8256  1.0935
  229HK4     C719193   1.132   6.859   4.208 -0.0147 -0.3772 -0.3145
  229HK4     O219194   1.184   6.904   4.105  0.1743 -0.2885 -0.1809
  229HK4     C419195   1.114   6.714   4.225 -0.3796 -0.3396 -0.3788
  229HK4     C319196   1.195   6.624   4.157  0.3876 -0.0116  0.1000
  229HK4     H319197   1.252   6.651   4.067 -1.0171 -2.0194 -1.4282
  229HK4     C219198   1.214   6.492   4.197  0.8074 -0.0075 -0.0811
  229HK4     H219199   1.303   6.437   4.163  0.1841 -0.5112 -0.9442
  229HK4     C119200   1.142   6.452   4.309  0.0341  0.3337 -0.4520
  229HK4     H119201   1.147   6.347   4.341 -1.5951  0.7297  1.2042
  229HK4     C619202   1.049   6.530   4.381 -0.5196 -0.3604 -0.4122
  229HK4     C519203   1.039   6.660   4.332  0.3269 -0.0283  0.2764
  229HK4    C1019204   0.931   6.748   4.386 -0.0689 -0.4440  0.1661
  229HK4     O119205   0.819   6.698   4.391 -0.2648 -0.0258  0.0034
  229HK4    C1619206   1.030   6.493   4.523  0.0961  0.2966 -0.1542
  229HK4    C1519207   1.137   6.439   4.597  0.0955  0.3983 -0.0805
  229HK4     H719208   1.236   6.463   4.556  1.7338  0.6859  3.8532
  229HK4    C2019209   1.117   6.380   4.722 -0.2074  0.2393 -0.2018
  229HK4     H919210   1.195   6.373   4.797 -0.8063 -1.1823  0.2838
  229HK4    C1919211   0.988   6.362   4.771 -0.1533  0.0780 -0.1197
  229HK4    C1819212   0.875   6.405   4.691 -0.2244  0.3850  0.1445
  229HK4    C1719213   0.902   6.466   4.568  0.2171  0.3986  0.2463
  229HK4     H819214   0.827   6.462   4.490  2.2148 -0.6079 -1.6623
  229HK4     N119215   0.751   6.359   4.741 -0.1613  0.2704  0.1941
  229HK4    C2119216   0.783   6.290   4.860  0.1250  0.3665  0.1757
  229HK4    C2219217   0.926   6.296   4.884  0.1229  0.3467  0.1918
  229HK4    C2619218   0.980   6.258   5.006 -0.1004 -0.5068  0.0301
  229HK4    H1319219   1.083   6.286   5.029 -0.4182 -0.6894  1.7783
  229HK4    C2519220   0.894   6.212   5.105 -0.2188  0.4835  0.3977
  229HK4    H1219221   0.931   6.173   5.200  1.8576 -0.2015 -0.6738
  229HK4    C2419222   0.757   6.199   5.084 -0.1763 -0.1109  0.4596
  229HK4    H1119223   0.692   6.164   5.166 -1.3694 -1.5074 -1.0633
  229HK4    C2319224   0.704   6.241   4.963  0.3169  0.9164  0.5885
  229HK4    H1019225   0.597   6.227   4.949  0.0126  2.4296  1.3503
  229HK4    C3919226   0.627   6.413   4.705  0.0209  0.5521 -0.0113
  229HK4    C4119227   0.506   6.347   4.733  0.1563  0.2482 -0.1521
  229HK4    H2119228   0.517   6.243   4.768 -1.7845  0.2786  0.6137
  229HK4    C4219229   0.383   6.407   4.712  0.2220  0.3619 -0.2129
  229HK4    H2219230   0.299   6.339   4.690  1.3194 -1.2527  0.4724
  229HK4    C4319231   0.379   6.535   4.659 -0.0357  0.3150 -0.3121
  229HK4    H2319232   0.280   6.578   4.642 -0.6758 -1.0053  0.0391
  229HK4    C4419233   0.496   6.605   4.629 -0.0914  0.6654  0.2789
  229HK4    H2419234   0.490   6.710   4.598  1.2794 -0.2566 -3.2704
  229HK4    C4519235   0.618   6.544   4.652 -0.1004  0.3719 -0.4433
  229HK4    H2519236   0.711   6.598   4.631  0.5296 -0.5728 -0.1544
  230HK4    H2819237   8.549   1.739   2.272  0.4681 -2.8013 -0.2581
  230HK4    C4819238   8.511   1.742   2.170  0.5043 -0.2229 -0.2428
  230HK4    C4719239   8.462   1.863   2.123  0.3211 -0.2399 -0.0980
  230HK4    H2719240   8.473   1.964   2.166 -1.0237  0.4770 -1.3918
  230HK4    C4619241   8.382   1.862   2.010  0.8060  0.2289 -0.4524
  230HK4    H2619242   8.331   1.954   1.976  0.3984  0.1548 -0.0405
  230HK4    C4019243   8.359   1.746   1.933 -0.4773 -0.0899  0.3981
  230HK4    C5019244   8.412   1.626   1.984  0.4032  0.0984 -0.0727
  230HK4    H3019245   8.404   1.534   1.924 -0.2230 -0.9951  1.6669
  230HK4    C4919246   8.483   1.623   2.103  0.5287 -0.2762 -0.1571
  230HK4    H2919247   8.522   1.527   2.141  2.4438  0.0348 -1.3040
  230HK4     N219248   8.273   1.732   1.823  0.4518  0.7764 -0.4550
  230HK4    C3019249   8.151   1.797   1.797 -0.2312 -0.3156 -0.0485
  230HK4    C2919250   8.068   1.871   1.881  0.4080  0.3607 -0.0005
  230HK4    H1519251   8.101   1.863   1.984  1.3932 -0.8806 -0.3896
  230HK4    C2819252   7.941   1.916   1.845  0.5224  0.4162 -0.3366
  230HK4    C2719253   7.903   1.875   1.715  0.5594  0.4972 -0.3728
  230HK4    H1419254   7.802   1.892   1.676  0.9713 -0.6937 -2.0400
  230HK4    C3219255   7.983   1.803   1.627 -0.4663 -0.3204 -0.6479
  230HK4    H1619256   7.950   1.792   1.524 -0.7503 -1.7780 -0.4165
  230HK4    C3119257   8.113   1.766   1.660 -0.4295  0.2625 -0.1300
  230HK4    C3419258   8.206   1.672   1.601 -0.1476  0.4248  0.0549
  230HK4    C3319259   8.306   1.660   1.706 -0.1532 -0.2389 -0.0099
  230HK4    C3519260   8.427   1.601   1.673  0.0566  0.5123 -0.5893
  230HK4    H1719261   8.508   1.607   1.746  0.1167  0.2526 -0.6350
  230HK4    C3619262   8.444   1.548   1.546  0.4030 -0.7371 -0.0310
  230HK4    H1819263   8.524   1.475   1.524 -0.7898 -2.6854  1.9342
  230HK4    C3719264   8.352   1.560   1.442  0.2860 -0.6154  0.0867
  230HK4    H1919265   8.368   1.505   1.349  1.6021 -0.7915  0.4019
  230HK4    C3819266   8.232   1.623   1.474  0.2183 -1.0342  0.6769
  230HK4    H2019267   8.145   1.610   1.410  0.3995  0.7059  0.0491
  230HK4    C1419268   7.850   1.956   1.952 -0.2591 -0.3930 -0.6900
  230HK4     C919269   7.711   1.939   1.942 -0.3711 -0.1347  0.2869
  230HK4     C819270   7.619   2.039   1.978 -0.1175  0.2050 -0.0041
  230HK4    C1119271   7.670   2.154   2.038 -0.1027  0.3550 -0.3001
  230HK4     H419272   7.596   2.219   2.087  0.9242  0.4979  1.1281
  230HK4    C1219273   7.806   2.168   2.065 -0.1787 -1.2465  1.0156
  230HK4     H519274   7.837   2.233   2.147  1.8335  1.3235 -1.6576
  230HK4    C1319275   7.895   2.072   2.018 -0.2244 -0.8557  0.1040
  230HK4     H619276   7.998   2.065   2.058  0.0159  2.0260  0.0494
  230HK4     C719277   7.478   2.032   1.933 -0.1939  0.0777  0.2539
  230HK4     O219278   7.406   2.131   1.941 -0.2675  0.0110  0.4000
  230HK4     C419279   7.426   1.908   1.873 -0.1757  0.1520  0.0820
  230HK4     C319280   7.291   1.906   1.838 -0.1092  0.4828 -0.1833
  230HK4     H319281   7.222   1.990   1.853 -0.4877  0.1005  0.2278
  230HK4     C219282   7.222   1.791   1.802 -0.1989  0.3904  0.2867
  230HK4     H219283   7.115   1.786   1.776  0.0429  1.6845 -1.0276
  230HK4     C119284   7.307   1.682   1.789 -0.0466  0.5752 -0.2966
  230HK4     H119285   7.274   1.591   1.737 -2.3765  2.3605 -2.0060
  230HK4     C619286   7.443   1.671   1.826  0.2062  0.3272 -1.2809
  230HK4     C519287   7.504   1.790   1.869 -0.2772  0.0838  0.0965
  230HK4    C1019288   7.647   1.809   1.904 -0.2144 -0.1153 -0.0519
  230HK4     O119289   7.713   1.714   1.945  0.2717  0.3382  0.2308
  230HK4    C1619290   7.494   1.536   1.850 -0.1604  0.3676 -0.2076
  230HK4    C1519291   7.423   1.429   1.908  0.1845  0.2378 -0.0211
  230HK4     H719292   7.327   1.452   1.959  0.6945 -1.6949  1.8840
  230HK4    C2019293   7.456   1.295   1.909 -0.0778  0.1683 -0.5182
  230HK4     H919294   7.413   1.234   1.989  0.5257 -1.2743 -1.2699
  230HK4    C1919295   7.564   1.256   1.830  0.3739  0.1812  0.0828
  230HK4    C1819296   7.649   1.361   1.776  0.2382  0.0639 -0.3583
  230HK4    C1719297   7.607   1.493   1.781 -0.0513 -0.0452  0.2212
  230HK4     H819298   7.666   1.565   1.723  3.1577 -1.3998  1.6575
  230HK4     N119299   7.765   1.300   1.725  0.1642 -0.0859 -0.3523
  230HK4    C2119300   7.745   1.161   1.731 -0.0075 -0.0583 -0.2774
  230HK4    C2219301   7.622   1.127   1.799  0.3477  0.0837  0.4386
  230HK4    C2619302   7.595   0.992   1.817  0.4937  0.0009  0.0345
  230HK4    H1319303   7.493   0.967   1.845 -0.3260  2.0266 -1.0205
  230HK4    C2519304   7.673   0.892   1.760 -0.1789 -0.3294 -0.3171
  230HK4    H1219305   7.661   0.787   1.784 -2.6444 -0.6607 -2.7176
  230HK4    C2419306   7.789   0.925   1.690 -0.2341 -0.2354 -0.3643
  230HK4    H1119307   7.857   0.855   1.639  0.6708  0.6383 -0.3781
  230HK4    C2319308   7.827   1.059   1.683 -0.2681 -0.2259 -0.3629
  230HK4    H1019309   7.921   1.083   1.633  0.3633 -0.7121  0.5753
  230HK4    C3919310   7.884   1.374   1.716  0.1452  0.0519  0.5016
  230HK4    C4119311   7.987   1.335   1.628 -0.5202 -0.5285 -0.0260
  230HK4    H2119312   7.959   1.305   1.526 -0.8416 -2.7935  0.6927
  230HK4    C4219313   8.120   1.338   1.669 -0.5530 -0.0055  0.0360
  230HK4    H2219314   8.202   1.310   1.602 -0.1206 -2.4677  1.5269
  230HK4    C4319315   8.158   1.383   1.795  0.0379 -0.1480 -0.0934
  230HK4    H2319316   8.262   1.403   1.823 -0.5683  0.6721  1.6545
  230HK4    C4419317   8.057   1.427   1.880 -0.1462 -0.8647  0.0629
  230HK4    H2419318   8.094   1.473   1.972  1.6165 -0.1826 -0.9620
  230HK4    C4519319   7.924   1.426   1.841 -0.3212  0.0999  0.6299
  230HK4    H2519320   7.845   1.475   1.900 -0.6501  1.0641 -0.5955
  231HK4    H2819321  10.749   0.018   9.788 -0.9022  0.5650 -0.8587
  231HK4    C4819322  10.854   0.042   9.771 -0.6056  0.0174  0.1660
  231HK4    C4719323  10.878   0.163   9.708  0.0117 -0.2912 -0.1954
  231HK4    H2719324  10.801   0.216   9.650 -1.0283  0.7868  2.1380
  231HK4    C4619325  11.008   0.213   9.702  0.0999 -0.5092 -0.1027
  231HK4    H2619326  11.029   0.315   9.666 -2.5816 -0.7430 -2.5210
  231HK4    C4019327  11.114   0.124   9.727  0.2188 -0.4625 -0.4399
  231HK4    C5019328  11.089  11.244   9.781 -0.1195 -0.1856  0.0636
  231HK4    H3019329  11.173  11.176   9.802  1.8382  1.3583 -2.3648
  231HK4    C4919330  10.958  11.203   9.803 -0.2705  0.5487  0.5367
  231HK4    H2919331  10.941  11.111   9.860 -1.7491  0.5900  0.1725
  231HK4     N219332  11.243   0.169   9.699  0.1953  0.0226  0.2030
  231HK4    C3019333   0.030   0.246   9.586 -0.2937 -0.1429 -0.0644
  231HK4    C2919334  11.217   0.254   9.461 -0.2156 -0.4667 -0.1240
  231HK4    H1519335  11.124   0.200   9.447 -0.6556  0.5991 -1.3905
  231HK4    C2819336   0.010   0.342   9.361 -0.3798 -0.0312  0.1880
  231HK4    C2719337   0.125   0.419   9.388 -0.2427 -0.0659 -0.3034
  231HK4    H1419338   0.157   0.497   9.317 -0.9838 -0.3551 -0.9625
  231HK4    C3219339   0.203   0.393   9.500 -0.9110 -0.4131  0.0784
  231HK4    H1619340   0.304   0.431   9.510 -1.1636  0.3438 -0.2309
  231HK4    C3119341   0.161   0.308   9.602 -0.2736 -0.3106  0.4299
  231HK4    C3419342   0.206   0.258   9.730  0.4681 -0.2760  0.1829
  231HK4    C3319343   0.101   0.178   9.792  0.5479 -0.6261 -0.1318
  231HK4    C3519344   0.130   0.111   9.910  0.6291 -0.2936  0.0365
  231HK4    H1719345   0.057   0.054   9.966 -0.8382  3.0825  1.7115
  231HK4    C3619346   0.258   0.115   9.966  0.3663 -0.1010  0.6201
  231HK4    H1819347   0.278   0.056  10.057 -2.5646  0.5368  1.7412
  231HK4    C3719348   0.357   0.188   9.902  0.1503 -0.4929 -0.1714
  231HK4    H1919349   0.457   0.161   9.935 -0.8012 -1.8575  1.7117
  231HK4    C3819350   0.330   0.268   9.792  0.4062  0.1682  0.2378
  231HK4    H2019351   0.406   0.345   9.775  1.6407 -0.3255  3.3266
  231HK4    C1419352  11.198   0.332   9.228 -0.1776 -0.0203  0.0961
  231HK4     C919353   0.018   0.367   9.111  0.4632 -0.2461  0.4006
  231HK4     C819354  11.192   0.424   9.005  0.7292  0.0410  0.3684
  231HK4    C1119355  11.053   0.425   9.010  0.7178 -0.1229  0.0336
  231HK4     H419356  11.001   0.419   8.913  1.7153 -1.4674 -0.4363
  231HK4    C1219357  10.985   0.389   9.125  0.1104  0.6757 -0.0718
  231HK4     H519358  10.875   0.392   9.121  0.1472  0.2662 -1.8987
  231HK4    C1319359  11.058   0.342   9.234 -0.2352 -0.5057 -0.3419
  231HK4     H619360  11.001   0.291   9.313 -0.3831 -0.6178 -0.5193
  231HK4     C719361   0.014   0.499   8.898 -0.2398  0.1171 -0.2245
  231HK4     O219362  11.205   0.545   8.800 -0.1745  0.2491 -0.1997
  231HK4     C419363   0.162   0.496   8.899 -0.2459 -0.0567  0.2770
  231HK4     C319364   0.236   0.560   8.800 -0.3646 -0.0036  0.2203
  231HK4     H319365   0.183   0.566   8.704  1.7780 -0.6851 -1.0454
  231HK4     C219366   0.374   0.576   8.804 -0.3534  0.0777 -0.4083
  231HK4     H219367   0.427   0.627   8.723 -0.4834 -0.8561 -1.0795
  231HK4     C119368   0.448   0.521   8.909 -0.4201 -0.5500 -0.6892
  231HK4     H119369   0.556   0.504   8.912 -0.2219  0.7370  0.0103
  231HK4     C619370   0.380   0.459   9.016 -0.1106  0.5244  0.1309
  231HK4     C519371   0.243   0.437   8.999 -0.0859  0.2278  0.3139
  231HK4    C1019372   0.165   0.348   9.089  0.4570 -0.2279  0.3447
  231HK4     O119373   0.214   0.241   9.124  0.6429 -0.3223 -0.2064
  231HK4    C1619374   0.449   0.485   9.144 -0.6310 -0.0391  0.5277
  231HK4    C1519375   0.514   0.609   9.161 -0.0356 -0.2521 -0.1259
  231HK4     H719376   0.463   0.702   9.131  1.1968 -0.3251 -2.5779
  231HK4    C2019377   0.640   0.618   9.218 -0.3026 -0.2849  0.4823
  231HK4     H919378   0.696   0.711   9.211 -1.5861  0.4699  0.2736
  231HK4    C1919379   0.704   0.505   9.269  0.1828 -0.2028  0.0561
  231HK4    C1819380   0.639   0.377   9.252 -0.3250  0.1108 -0.3868
  231HK4    C1719381   0.513   0.372   9.193 -0.7321 -0.1121  0.4926
  231HK4     H819382   0.460   0.277   9.200  2.1301 -1.6831  1.4543
  231HK4     N119383   0.729   0.270   9.273 -0.2930  0.2499  0.1796
  231HK4    C2119384   0.847   0.331   9.322 -0.0224  0.6248 -0.9106
  231HK4    C2219385   0.828   0.474   9.337  0.0604  0.4920  0.5972
  231HK4    C2619386   0.927   0.560   9.384 -0.0376  0.4398  0.9014
  231HK4    H1319387   0.911   0.668   9.381  4.5531  1.1968 -0.4871
  231HK4    C2519388   1.051   0.504   9.413 -0.0423 -0.1140 -0.1241
  231HK4    H1219389   1.115   0.545   9.490 -0.6049 -2.4508  1.6534
  231HK4    C2419390   1.072   0.369   9.386 -0.0067 -0.1584  0.1269
  231HK4    H1119391   1.169   0.328   9.420  0.9811  1.6641 -0.4002
  231HK4    C2319392   0.975   0.281   9.340 -0.1479  0.3942 -0.6451
  231HK4    H1019393   1.009   0.189   9.293  0.3771  0.8057 -1.0910
  231HK4    C3919394   0.735   0.154   9.196 -0.4672  0.1641  0.2999
  231HK4    C4119395   0.804   0.040   9.243 -0.2477  0.1645 -0.0246
  231HK4    H2119396   0.825   0.028   9.350 -1.6083 -0.0078  0.2303
  231HK4    C4219397   0.841  11.186   9.156 -0.2092 -0.4399  0.7014
  231HK4    H2219398   0.907  11.103   9.184  0.6548  0.3575  1.0246
  231HK4    C4319399   0.796  11.190   9.024  0.0601  0.0359  0.6234
  231HK4    H2319400   0.838  11.130   8.944 -0.4355 -1.5967  1.5764
  231HK4    C4419401   0.724   0.051   8.977 -0.3116 -0.2221  0.5919
  231HK4    H2419402   0.711   0.066   8.869 -1.4820  0.3839  0.8096
  231HK4    C4519403   0.692   0.157   9.062  0.9896  0.7838 -0.1587
  231HK4    H2519404   0.633   0.235   9.013  1.0648  2.0538  1.7650
  232HK4    H2819405  10.000   1.300   3.833  0.3562  1.0175  1.6742
  232HK4    C4819406   9.892   1.313   3.839  0.1541  0.2830 -0.0048
  232HK4    C4719407   9.846   1.440   3.872  0.1551  0.2920 -0.0414
  232HK4    H2719408   9.925   1.501   3.919  1.6904 -1.2410 -0.6191
  232HK4    C4619409   9.714   1.479   3.853  0.0238 -0.1757 -0.0924
  232HK4    H2619410   9.696   1.584   3.879 -1.3970 -0.1200 -1.2479
  232HK4    C4019411   9.616   1.387   3.810 -0.1199  0.0685 -0.2779
  232HK4    C5019412   9.665   1.258   3.783 -0.3450 -0.0024 -0.3444
  232HK4    H3019413   9.590   1.181   3.759  1.6233 -1.6408 -1.3887
  232HK4    C4919414   9.798   1.220   3.796 -0.1124  0.7691 -0.4778
  232HK4    H2919415   9.828   1.118   3.770 -0.4346  0.6194 -0.2563
  232HK4     N219416   9.478   1.403   3.828 -0.0937  0.5803 -0.5130
  232HK4    C3019417   9.417   1.482   3.928 -0.3793 -0.0838 -0.1561
  232HK4    C2919418   9.472   1.530   4.046  0.5502  0.4196 -0.7856
  232HK4    H1519419   9.577   1.507   4.062  0.6195  1.1041 -0.2437
  232HK4    C2819420   9.401   1.606   4.139  0.7150 -0.3996  0.0107
  232HK4    C2719421   9.271   1.640   4.097  0.6091 -0.1641  0.5234
  232HK4    H1419422   9.232   1.737   4.131  1.7535  0.5043 -0.0547
  232HK4    C3219423   9.210   1.591   3.982 -0.2495 -0.5938  1.1578
  232HK4    H1619424   9.105   1.616   3.967  0.6236  0.9513 -2.8565
  232HK4    C3119425   9.277   1.504   3.896 -0.4555  0.0875  0.2999
  232HK4    C3419426   9.249   1.429   3.776 -0.1781  0.5268 -0.0404
  232HK4    C3319427   9.376   1.369   3.737 -0.3104  0.3321 -0.1760
  232HK4    C3519428   9.378   1.270   3.640 -0.1441 -0.2864  0.4465
  232HK4    H1719429   9.464   1.211   3.608 -0.5149 -1.2861  1.2999
  232HK4    C3619430   9.257   1.216   3.595 -0.1522  0.0833  0.0104
  232HK4    H1819431   9.258   1.129   3.528  0.6802  0.4993 -0.5362
  232HK4    C3719432   9.135   1.274   3.625 -0.2195 -0.2276  0.3443
  232HK4    H1919433   9.048   1.211   3.603 -0.6212  0.4411 -0.0094
  232HK4    C3819434   9.136   1.384   3.710 -0.0786 -0.1434  0.2337
  232HK4    H2019435   9.039   1.420   3.745  0.1887  0.5149  0.3083
  232HK4    C1419436   9.439   1.613   4.281 -0.4545  0.4775  0.2882
  232HK4     C919437   9.358   1.624   4.394 -0.1319 -0.5163  0.6189
  232HK4     C819438   9.415   1.679   4.511  0.0063  0.1079  0.2574
  232HK4    C1119439   9.552   1.701   4.523 -0.2334  1.6226  0.3228
  232HK4     H419440   9.597   1.719   4.621 -0.1866 -0.3861  0.6847
  232HK4    C1219441   9.634   1.690   4.411 -0.4104 -0.5101  0.3919
  232HK4     H519442   9.743   1.706   4.418 -0.6534  1.8499 -0.8857
  232HK4    C1319443   9.575   1.647   4.293 -0.3479  0.1158  0.1365
  232HK4     H619444   9.634   1.649   4.200  0.9362 -0.9440  0.9181
  232HK4     C719445   9.331   1.715   4.627 -0.1792  0.6969 -0.0615
  232HK4     O219446   9.346   1.816   4.695 -0.1793  0.8256 -0.2527
  232HK4     C419447   9.197   1.652   4.635  0.3394 -0.3936  0.0904
  232HK4     C319448   9.133   1.645   4.758  0.0896 -0.1090 -0.0248
  232HK4     H319449   9.195   1.656   4.848  0.5794 -1.0681 -0.2447
  232HK4     C219450   9.004   1.592   4.768  0.1872 -0.3726 -0.1658
  232HK4     H219451   8.947   1.610   4.860 -0.7054 -1.3010 -0.5362
  232HK4     C119452   8.937   1.551   4.653 -0.2056  0.4814 -0.2464
  232HK4     H119453   8.832   1.518   4.657  0.7355 -2.4844  1.0436
  232HK4     C619454   9.000   1.554   4.527 -0.2381 -0.1868 -0.2765
  232HK4     C519455   9.132   1.600   4.522 -0.0651 -0.5937  0.4162
  232HK4    C1019456   9.217   1.575   4.403 -0.1217 -0.5806  0.3715
  232HK4     O119457   9.201   1.472   4.338  0.1848 -0.2934 -0.1711
  232HK4    C1619458   8.904   1.570   4.416 -0.2209 -0.1498 -0.2837
  232HK4    C1519459   8.785   1.644   4.431  0.1476  0.5431 -0.7568
  232HK4     H719460   8.785   1.736   4.492  0.3463  0.2751 -0.3482
  232HK4    C2019461   8.663   1.628   4.367 -0.0180  0.1157 -0.3348
  232HK4     H919462   8.576   1.693   4.381  0.7612  1.5244 -1.8057
  232HK4    C1919463   8.660   1.522   4.278  0.3329 -0.0571 -0.1434
  232HK4    C1819464   8.777   1.442   4.250  0.0830 -0.5677  0.2549
  232HK4    C1719465   8.894   1.470   4.321  0.0809 -0.7738  0.3393
  232HK4     H819466   8.978   1.404   4.297 -0.6329 -1.6544  0.2239
  232HK4     N119467   8.747   1.339   4.159 -0.4101 -0.1130 -0.0957
  232HK4    C2119468   8.612   1.356   4.121 -0.3980  0.0750 -0.0593
  232HK4    C2219469   8.557   1.471   4.189 -0.1132 -0.0329  0.3579
  232HK4    C2619470   8.426   1.511   4.165 -0.1088 -0.0978  0.2245
  232HK4    H1319471   8.378   1.597   4.213 -3.1007 -2.8382  2.3723
  232HK4    C2519472   8.346   1.435   4.080  0.4543 -0.3719 -0.0599
  232HK4    H1219473   8.242   1.461   4.058  0.9498  1.7317 -0.0204
  232HK4    C2419474   8.402   1.323   4.019  0.5689 -0.3943  0.0889
  232HK4    H1119475   8.334   1.265   3.955 -1.6012  1.4011  0.6908
  232HK4    C2319476   8.533   1.278   4.037  0.3667 -0.9648  0.1639
  232HK4    H1019477   8.579   1.202   3.976  0.7894  1.2662 -2.3952
  232HK4    C3919478   8.842   1.258   4.095  0.0577  0.0220  0.4287
  232HK4    C4119479   8.965   1.301   4.042  0.0265 -0.1054  0.2494
  232HK4    H2119480   8.980   1.405   4.012 -2.0651 -0.6352 -2.9190
  232HK4    C4219481   9.062   1.211   3.998 -0.2824 -0.1815 -0.2852
  232HK4    H2219482   9.155   1.248   3.952  0.2869  0.6270  1.4751
  232HK4    C4319483   9.036   1.075   4.002 -0.2224 -0.2072 -0.7521
  232HK4    H2319484   9.118   1.008   3.975  0.6993  0.6057  0.0253
  232HK4    C4419485   8.919   1.031   4.063  0.1925 -0.2645  0.0049
  232HK4    H2419486   8.890   0.928   4.041  0.6322 -0.0888 -1.4025
  232HK4    C4519487   8.821   1.119   4.109 -0.0715 -0.0928 -0.8831
  232HK4    H2519488   8.733   1.073   4.157  0.3067 -0.1599 -0.2455
  233HK4    H2819489   3.448   9.559   6.748  1.7668 -0.9089  0.2624
  233HK4    C4819490   3.423   9.464   6.701  0.0394  0.0332 -0.7932
  233HK4    C4719491   3.530   9.379   6.674  0.5344  0.4188 -0.0757
  233HK4    H2719492   3.632   9.417   6.687  0.1276  2.2097 -1.9587
  233HK4    C4619493   3.511   9.261   6.602 -0.7230  0.3103  0.4256
  233HK4    H2619494   3.581   9.178   6.618 -2.7151 -1.3113  1.0118
  233HK4    C4019495   3.390   9.222   6.541 -0.3015  0.7079 -0.6774
  233HK4    C5019496   3.286   9.312   6.572 -0.7238  0.0822 -0.2720
  233HK4    H3019497   3.193   9.304   6.512 -0.6137  2.8229 -0.8490
  233HK4    C4919498   3.301   9.429   6.645 -0.3022 -0.2001  0.0952
  233HK4    H2919499   3.220   9.503   6.650 -1.5064 -1.1526 -3.7640
  233HK4     N219500   3.367   9.104   6.469 -0.1082  0.1147  0.2173
  233HK4    C3019501   3.463   9.021   6.408 -0.1527  0.2728 -0.0686
  233HK4    C2919502   3.587   9.050   6.353 -0.4055  0.4515 -0.5447
  233HK4    H1519503   3.634   9.144   6.383 -0.9166  0.6749 -0.4413
  233HK4    C2819504   3.657   8.958   6.276  0.2120  0.1066  0.4186
  233HK4    C2719505   3.607   8.826   6.264 -0.4533  0.3862  0.0615
  233HK4    H1419506   3.659   8.746   6.210 -1.1826  0.7232 -1.1618
  233HK4    C3219507   3.485   8.792   6.322 -0.5291  0.1844 -0.2196
  233HK4    H1619508   3.444   8.692   6.312 -2.6742  1.0750 -0.7598
  233HK4    C3119509   3.408   8.888   6.386  0.0089  0.0994  0.5527
  233HK4    C3419510   3.268   8.900   6.422 -0.1646  0.0076 -0.0892
  233HK4    C3319511   3.247   9.031   6.481 -0.0737  0.0145 -0.0700
  233HK4    C3519512   3.126   9.049   6.547  0.1626 -0.2267  0.4305
  233HK4    H1719513   3.100   9.144   6.593  0.4149  1.5860 -3.0004
  233HK4    C3619514   3.032   8.947   6.546  0.2745 -0.3285 -0.5286
  233HK4    H1819515   2.930   8.978   6.575  0.4744 -1.2237  1.2464
  233HK4    C3719516   3.057   8.821   6.493 -0.0830 -0.6224 -0.0088
  233HK4    H1919517   2.999   8.739   6.534 -2.1549  0.9808  0.3401
  233HK4    C3819518   3.173   8.798   6.420  0.0808 -0.2256  0.1253
  233HK4    H2019519   3.201   8.698   6.388  0.4115 -0.3143  0.6974
  233HK4    C1419520   3.788   8.999   6.224  0.1246  0.3314  0.3788
  233HK4     C919521   3.891   8.906   6.205 -0.0901  0.1781 -0.0256
  233HK4     C819522   3.976   8.911   6.093  0.6161  0.2478  0.5094
  233HK4    C1119523   3.971   9.029   6.020 -0.3376  0.1065  0.3312
  233HK4     H419524   4.054   9.055   5.953  0.3316 -1.1892  0.6486
  233HK4    C1219525   3.873   9.128   6.033 -0.1951  0.2468  0.3198
  233HK4     H519526   3.850   9.202   5.955  0.8411  1.2348  0.9416
  233HK4    C1319527   3.786   9.112   6.140  0.0215  0.4434  0.5286
  233HK4     H619528   3.698   9.176   6.156 -3.1425 -3.7834  0.7451
  233HK4     C719529   4.031   8.789   6.029 -0.0368  0.2584 -0.0900
  233HK4     O219530   4.141   8.801   5.975  0.2891  0.5318  0.6270
  233HK4     C419531   3.984   8.668   6.099  0.2984  0.0132 -0.2873
  233HK4     C319532   4.022   8.548   6.039  0.1894 -0.2957  0.2553
  233HK4     H319533   4.058   8.541   5.936 -1.0732 -0.8064 -0.1620
  233HK4     C219534   4.019   8.426   6.105  0.4245 -0.5780 -0.2521
  233HK4     H219535   4.062   8.339   6.054  0.0198 -1.0699  0.2421
  233HK4     C119536   3.987   8.422   6.240  0.2077  0.0818 -0.2825
  233HK4     H119537   4.021   8.332   6.294 -1.3843 -0.4143 -0.0603
  233HK4     C619538   3.943   8.538   6.308  0.4407 -0.0395  0.0799
  233HK4     C519539   3.936   8.654   6.231 -0.0971 -0.4359 -0.4749
  233HK4    C1019540   3.893   8.784   6.290  0.8230 -0.1278 -0.4836
  233HK4     O119541   3.904   8.808   6.411  0.0008 -0.1205 -0.4041
  233HK4    C1619542   3.943   8.522   6.454  0.3193  1.1076  0.2052
  233HK4    C1519543   4.029   8.434   6.523  0.0434  0.3815 -0.3783
  233HK4     H719544   4.132   8.418   6.488 -0.0400  0.3927 -0.6352
  233HK4    C2019545   3.996   8.379   6.646  0.1659  1.1050 -0.0233
  233HK4     H919546   4.055   8.293   6.677 -1.1486 -0.8981 -2.8791
  233HK4    C1919547   3.884   8.407   6.724  0.1942  0.3740  0.2798
  233HK4    C1819548   3.798   8.498   6.652  0.0089 -0.1260 -0.1332
  233HK4    C1719549   3.828   8.551   6.527 -0.1219  0.0875 -0.0723
  233HK4     H819550   3.749   8.611   6.482 -1.2168 -1.4475 -0.2018
  233HK4     N119551   3.672   8.500   6.715  0.2106  0.3768  0.2515
  233HK4    C2119552   3.679   8.410   6.823  0.3708 -0.0515 -0.1159
  233HK4    C2219553   3.805   8.337   6.823  0.1990 -0.3480 -0.2192
  233HK4    C2619554   3.815   8.237   6.919  0.2449 -0.1006  0.0355
  233HK4    H1319555   3.914   8.199   6.945 -0.2625 -2.0087 -0.7472
  233HK4    C2519556   3.706   8.191   6.992  0.1437  0.4229  0.2165
  233HK4    H1219557   3.709   8.106   7.061 -0.3851 -1.3593 -1.8860
  233HK4    C2419558   3.583   8.254   6.981 -0.1516 -0.2279 -0.2536
  233HK4    H1119559   3.502   8.222   7.049  1.7031 -0.8512  1.7240
  233HK4    C2319560   3.572   8.366   6.899  0.4260  0.0231  0.0041
  233HK4    H1019561   3.478   8.423   6.901  0.3284 -0.0739 -1.3916
  233HK4    C3919562   3.580   8.605   6.697 -0.1683 -0.1594 -1.0019
  233HK4    C4119563   3.444   8.588   6.730 -0.0998 -0.0314 -0.6440
  233HK4    H2119564   3.407   8.485   6.715  1.4240 -1.0287  2.1417
  233HK4    C4219565   3.367   8.700   6.755  0.2199  0.0655 -0.0935
  233HK4    H2219566   3.263   8.680   6.788  0.4626 -3.3450 -1.1995
  233HK4    C4319567   3.418   8.829   6.746  0.0343  0.1217 -0.3512
  233HK4    H2319568   3.350   8.911   6.768 -0.0212 -0.0291  0.0279
  233HK4    C4419569   3.552   8.849   6.715  0.1152  0.3497  0.1425
  233HK4    H2419570   3.592   8.950   6.733 -1.1713  0.2138  4.2010
  233HK4    C4519571   3.630   8.736   6.692 -0.5225  0.0029 -0.3351
  233HK4    H2519572   3.735   8.754   6.666  0.7706 -5.4107  0.5830
  234HK4    H2819573   6.823   4.694   8.504 -0.6775 -1.1078 -0.7730
  234HK4    C4819574   6.923   4.671   8.468  0.0159  0.3381  0.1888
  234HK4    C4719575   6.986   4.560   8.524 -0.1311  0.0298 -0.2506
  234HK4    H2719576   6.932   4.496   8.595  1.1235 -1.9671 -1.0658
  234HK4    C4619577   7.104   4.515   8.467  0.3564  0.4827  0.3930
  234HK4    H2619578   7.158   4.433   8.516 -0.7631  0.0294  0.8855
  234HK4    C4019579   7.166   4.577   8.356 -0.0459  0.0500 -0.0770
  234HK4    C5019580   7.104   4.694   8.308  0.2847  0.2471 -0.0170
  234HK4    H3019581   7.135   4.739   8.213  0.1179 -0.4367 -0.3925
  234HK4    C4919582   6.982   4.735   8.360 -0.1590 -0.5356 -0.4319
  234HK4    H2919583   6.926   4.816   8.311 -0.0180 -1.3292 -1.9330
  234HK4     N219584   7.257   4.506   8.276  0.1127  0.1034  0.0553
  234HK4    C3019585   7.277   4.369   8.250  0.1418  0.0578  0.3141
  234HK4    C2919586   7.189   4.265   8.277  0.3518 -0.0962  0.4005
  234HK4    H1519587   7.109   4.282   8.349  1.6132 -0.8942  2.0428
  234HK4    C2819588   7.197   4.144   8.209 -0.2710  0.3029 -0.3881
  234HK4    C2719589   7.292   4.131   8.105  0.5258 -0.5607  0.4401
  234HK4    H1419590   7.259   4.077   8.015 -1.5029 -0.2911  1.0014
  234HK4    C3219591   7.385   4.232   8.082 -0.1441 -0.1259 -0.4032
  234HK4    H1619592   7.458   4.225   8.002  0.3170  0.8310 -0.0695
  234HK4    C3119593   7.385   4.350   8.155 -0.6506 -0.0279 -0.5678
  234HK4    C3419594   7.433   4.484   8.127 -0.3685 -0.0641 -0.2522
  234HK4    C3319595   7.358   4.578   8.210  0.0829  0.0814 -0.0124
  234HK4    C3519596   7.408   4.707   8.225 -0.5486  0.2413  0.7194
  234HK4    H1719597   7.356   4.778   8.289  1.2075  1.6348  0.6392
  234HK4    C3619598   7.522   4.749   8.158 -0.4360 -0.5275  0.4205
  234HK4    H1819599   7.550   4.855   8.155 -1.2985 -0.2860  0.7147
  234HK4    C3719600   7.589   4.661   8.073 -1.0520 -0.1112 -0.5067
  234HK4    H1919601   7.691   4.692   8.051 -0.7902  0.0011  0.8083
  234HK4    C3819602   7.547   4.528   8.062 -0.0816 -0.4637 -0.0266
  234HK4    H2019603   7.599   4.460   7.995 -2.2594  0.1985 -2.4661
  234HK4    C1419604   7.122   4.025   8.253  0.1166  0.3067  0.3006
  234HK4     C919605   7.161   3.898   8.209 -0.2768  0.0051  0.8206
  234HK4     C819606   7.064   3.808   8.161 -0.0391  0.3065 -0.2371
  234HK4    C1119607   6.929   3.836   8.178 -0.1553 -0.6825  0.5191
  234HK4     H419608   6.850   3.761   8.163 -2.3121  1.8314 -1.1440
  234HK4    C1219609   6.892   3.958   8.233 -0.4162 -0.4032 -0.2669
  234HK4     H519610   6.786   3.972   8.257 -0.1389 -1.1873  1.5225
  234HK4    C1319611   6.985   4.055   8.269 -0.1909 -0.3533 -0.9762
  234HK4     H619612   6.953   4.134   8.338  0.4267 -0.1829 -0.8826
  234HK4     C719613   7.101   3.671   8.118  0.5699  0.6607 -0.8678
  234HK4     O219614   7.022   3.605   8.051 -0.0976  0.5053  0.0557
  234HK4     C419615   7.242   3.626   8.117  0.2425 -0.4537  0.4675
  234HK4     C319616   7.275   3.498   8.073 -0.2691 -0.2634 -0.4958
  234HK4     H319617   7.203   3.441   8.013 -1.6932  2.1545 -1.1822
  234HK4     C219618   7.408   3.458   8.068 -0.1076  0.1472  0.3437
  234HK4     H219619   7.424   3.351   8.052 -2.9422  0.1761 -3.2288
  234HK4     C119620   7.502   3.552   8.109 -0.0686  0.1822  0.1768
  234HK4     H119621   7.583   3.507   8.169  1.3111  0.1391 -1.6767
  234HK4     C619622   7.473   3.689   8.128 -0.0894  0.1760  0.1881
  234HK4     C519623   7.339   3.723   8.150 -0.1848  0.4160 -0.7623
  234HK4    C1019624   7.302   3.849   8.219 -0.1844  0.0680 -0.1192
  234HK4     O119625   7.382   3.896   8.299  0.4683 -0.1565 -0.6392
  234HK4    C1619626   7.575   3.780   8.074 -0.1369 -0.1749 -0.4989
  234HK4    C1519627   7.585   3.920   8.085  0.2628 -0.2162 -0.3129
  234HK4     H719628   7.495   3.974   8.117  0.2505 -0.1778 -0.4147
  234HK4    C2019629   7.690   3.999   8.040 -0.0763  0.3248 -0.1649
  234HK4     H919630   7.701   4.096   8.088  1.6164 -0.5544  1.3396
  234HK4    C1919631   7.802   3.944   7.977 -0.0926 -0.0626  0.1445
  234HK4    C1819632   7.788   3.801   7.956 -0.0515 -0.0472  0.0159
  234HK4    C1719633   7.679   3.726   7.998  0.1903 -0.3635  0.0796
  234HK4     H819634   7.653   3.649   7.927  0.9891  2.0017 -2.8784
  234HK4     N119635   7.894   3.754   7.876  0.0469  0.0712  0.0754
  234HK4    C2119636   7.976   3.865   7.848  0.3747 -0.0111  0.6999
  234HK4    C2219637   7.923   3.985   7.908 -0.1295  0.0447  0.1419
  234HK4    C2619638   7.999   4.101   7.911 -0.0819  0.0190 -0.1392
  234HK4    H1319639   7.971   4.186   7.973 -1.3340  0.2512 -0.9918
  234HK4    C2519640   8.122   4.101   7.846  0.3899 -0.5721  0.7508
  234HK4    H1219641   8.169   4.198   7.829  2.1871 -1.3374  1.3198
  234HK4    C2419642   8.174   3.987   7.787  0.2648 -0.0490 -0.3828
  234HK4    H1119643   8.252   4.000   7.711  0.2420  0.2537 -0.3543
  234HK4    C2319644   8.102   3.868   7.789  0.2123 -0.0075  0.3542
  234HK4    H1019645   8.141   3.782   7.734  1.2719 -0.1594  1.3320
  234HK4    C3919646   7.922   3.618   7.854 -0.0966  0.0109  0.2623
  234HK4    C4119647   7.991   3.579   7.738  0.1074 -0.2450  0.4696
  234HK4    H2119648   8.004   3.651   7.655  0.5560  0.4619  1.1443
  234HK4    C4219649   8.035   3.450   7.710 -0.6879 -0.3640 -0.2610
  234HK4    H2219650   8.083   3.420   7.616 -1.4163  0.2000 -0.8176
  234HK4    C4319651   8.021   3.352   7.808  0.1324  0.0152  0.2420
  234HK4    H2319652   8.079   3.261   7.796  2.3561  1.5684 -1.0625
  234HK4    C4419653   7.952   3.385   7.924  0.3513 -0.1652  0.4225
  234HK4    H2419654   7.946   3.314   8.008 -0.0838 -0.3091  0.2663
  234HK4    C4519655   7.903   3.513   7.947 -0.2028 -0.2839 -0.0937
  234HK4    H2519656   7.854   3.537   8.042  0.3547  3.2695 -0.6058
  235HK4    H2819657   6.597   2.459   8.374 -2.2538 -1.4314  4.8292
  235HK4    C4819658   6.611   2.561   8.408  0.0129  0.1748 -0.3534
  235HK4    C4719659   6.698   2.645   8.340  0.3918 -0.1997 -0.3348
  235HK4    H2719660   6.755   2.611   8.252  1.7030 -0.8264  0.7450
  235HK4    C4619661   6.702   2.781   8.368  0.0753 -0.2696  0.0669
  235HK4    H2619662   6.769   2.850   8.313 -0.6600  0.6029  0.2504
  235HK4    C4019663   6.627   2.837   8.473  0.3386 -0.0007  0.1126
  235HK4    C5019664   6.545   2.746   8.543  0.6191 -0.4995 -0.2061
  235HK4    H3019665   6.519   2.770   8.647 -2.1787  0.8904 -1.1748
  235HK4    C4919666   6.532   2.611   8.512 -0.6578 -0.2862 -0.6391
  235HK4    H2919667   6.471   2.536   8.563  1.5453 -1.5700  0.1787
  235HK4     N219668   6.636   2.970   8.515 -0.0374 -0.2245  0.9173
  235HK4    C3019669   6.738   3.062   8.484 -0.0758 -0.5054 -0.0725
  235HK4    C2919670   6.871   3.043   8.448  0.1242 -0.0982  0.4409
  235HK4    H1519671   6.894   2.936   8.450 -0.2191 -0.2538 -2.2358
  235HK4    C2819672   6.953   3.151   8.415  0.0452 -0.2951 -0.4051
  235HK4    C2719673   6.895   3.279   8.414 -0.0957 -0.3584 -0.4817
  235HK4    H1419674   6.957   3.358   8.370 -0.4000 -0.2285 -0.6781
  235HK4    C3219675   6.760   3.303   8.435 -0.1231 -0.2774 -0.7437
  235HK4    H1619676   6.728   3.407   8.433 -0.9902 -0.5162  0.0425
  235HK4    C3119677   6.684   3.197   8.483  0.3725 -0.3238 -0.0629
  235HK4    C3419678   6.547   3.185   8.529  0.2989  0.0280 -0.1898
  235HK4    C3319679   6.518   3.043   8.540 -0.0524  0.1087 -0.0947
  235HK4    C3519680   6.406   3.003   8.613  0.3795 -0.0642  0.4801
  235HK4    H1719681   6.392   2.898   8.638 -0.8349  0.8779  3.9678
  235HK4    C3619682   6.317   3.097   8.664  0.7571  0.7362 -0.3063
  235HK4    H1819683   6.231   3.059   8.720  1.5642  1.9102  1.7933
  235HK4    C3719684   6.341   3.233   8.646 -0.2613  0.9819  0.1465
  235HK4    H1919685   6.269   3.304   8.686 -1.4033  0.0576 -0.2492
  235HK4    C3819686   6.458   3.276   8.585 -0.0567 -0.2283 -0.3355
  235HK4    H2019687   6.500   3.375   8.605 -0.8566 -0.1678  1.0479
  235HK4    C1419688   7.097   3.126   8.413  0.0821 -0.2025  0.6123
  235HK4     C919689   7.197   3.223   8.428 -0.1695  0.2449 -0.4989
  235HK4     C819690   7.313   3.219   8.348  0.1787  0.2659  0.0006
  235HK4    C1119691   7.335   3.122   8.251 -0.4000  0.0017  0.1301
  235HK4     H419692   7.403   3.150   8.168  0.8093 -1.3641  0.6392
  235HK4    C1219693   7.241   3.021   8.239  0.0792 -0.4234 -0.0570
  235HK4     H519694   7.270   2.932   8.181  1.9492 -0.3051  0.6543
  235HK4    C1319695   7.131   3.022   8.324  0.0437  0.3956 -0.1082
  235HK4     H619696   7.077   2.927   8.338 -0.2368  0.5741  0.0273
  235HK4     C719697   7.424   3.315   8.371  0.3612  0.0662 -0.0386
  235HK4     O219698   7.539   3.291   8.336  0.1486 -0.3144 -0.4766
  235HK4     C419699   7.398   3.429   8.463 -0.0670  0.2072 -0.3370
  235HK4     C319700   7.499   3.523   8.478 -0.0310  0.2277 -0.6968
  235HK4     H319701   7.595   3.493   8.434  0.5125  0.5059  0.2945
  235HK4     C219702   7.478   3.641   8.548 -0.0351 -0.2424  0.0998
  235HK4     H219703   7.560   3.711   8.569 -0.1152 -0.4558  1.1427
  235HK4     C119704   7.352   3.667   8.602  0.1170 -0.0079  0.3400
  235HK4     H119705   7.329   3.770   8.632 -0.8885  0.0428 -0.6030
  235HK4     C619706   7.246   3.577   8.582 -0.0965  0.3684 -0.2171
  235HK4     C519707   7.272   3.453   8.523  0.4102  0.0120  0.7496
  235HK4    C1019708   7.182   3.334   8.526  0.4172 -0.0223 -0.1035
  235HK4     O119709   7.131   3.314   8.636  0.4503  0.1954 -0.0465
  235HK4    C1619710   7.111   3.634   8.596 -0.6266 -0.9610  0.1924
  235HK4    C1519711   7.002   3.619   8.508 -0.4382  0.6274 -0.3373
  235HK4     H719712   7.023   3.551   8.424 -1.4135  0.1395 -0.1879
  235HK4    C2019713   6.880   3.683   8.523 -0.4788  0.4778 -0.0328
  235HK4     H919714   6.808   3.688   8.442  0.7718  1.7946 -1.0965
  235HK4    C1919715   6.862   3.749   8.645  0.1144  0.8048 -0.1206
  235HK4    C1819716   6.964   3.763   8.746  0.1738 -0.0723 -0.0490
  235HK4    C1719717   7.085   3.703   8.714  0.2998  0.3485 -0.3586
  235HK4     H819718   7.173   3.719   8.776  0.6542 -1.0658 -0.4790
  235HK4     N119719   6.910   3.811   8.868  0.1200  0.2583 -0.2029
  235HK4    C2119720   6.773   3.830   8.844  0.1050  0.1030 -0.2445
  235HK4    C2219721   6.740   3.796   8.707 -0.1162  0.4140 -0.2694
  235HK4    C2619722   6.613   3.830   8.660 -0.0618 -0.1903 -0.8574
  235HK4    H1319723   6.592   3.800   8.557 -4.1470  1.7643 -0.6606
  235HK4    C2519724   6.518   3.885   8.744  0.8261 -0.2900  0.2335
  235HK4    H1219725   6.421   3.920   8.708  0.7056  1.3189  2.0732
  235HK4    C2419726   6.550   3.915   8.875 -0.0363 -0.2886  0.4507
  235HK4    H1119727   6.464   3.957   8.928 -0.6884 -1.4659  0.3511
  235HK4    C2319728   6.675   3.881   8.928  0.2603  0.0429 -0.0306
  235HK4    H1019729   6.696   3.934   9.021 -0.7738  0.8984 -0.2735
  235HK4    C3919730   6.984   3.856   8.978 -0.2022 -0.0083  0.1212
  235HK4    C4119731   6.942   3.875   9.111 -0.9669  0.1788 -0.1449
  235HK4    H2119732   6.881   3.803   9.167 -1.2483  0.0813 -0.5696
  235HK4    C4219733   7.006   3.965   9.195 -0.2006 -0.1296 -0.3958
  235HK4    H2219734   6.973   3.967   9.300  2.7028 -3.0930  0.6753
  235HK4    C4319735   7.107   4.050   9.151  0.3214 -0.5371  0.0006
  235HK4    H2319736   7.140   4.136   9.209 -1.2455  1.8435 -2.4858
  235HK4    C4419737   7.145   4.038   9.018  0.3463 -0.2401 -0.0207
  235HK4    H2419738   7.203   4.125   8.987  2.1165 -1.1297  0.7418
  235HK4    C4519739   7.092   3.938   8.937  0.0798 -0.3162  0.2461
  235HK4    H2519740   7.124   3.939   8.832 -2.0267  1.2440 -0.4168
  236HK4    H2819741   8.265   1.562  10.253  0.2783  0.7524 -2.4131
  236HK4    C4819742   8.316   1.650  10.291 -0.0818 -0.3900  0.8807
  236HK4    C4719743   8.447   1.643  10.336  0.2966 -0.0134 -0.1379
  236HK4    H2719744   8.503   1.555  10.302  0.3531 -1.5686  3.6921
  236HK4    C4619745   8.516   1.740  10.408  0.3097 -0.4264  0.4113
  236HK4    H2619746   8.622   1.730  10.436  0.0381 -2.3191  0.8864
  236HK4    C4019747   8.446   1.855  10.452  0.6061 -0.1157  0.0661
  236HK4    C5019748   8.315   1.863  10.402  0.6336 -0.0951  0.0053
  236HK4    H3019749   8.252   1.946  10.437 -0.5585 -1.2678  0.6995
  236HK4    C4919750   8.251   1.770  10.320  0.5783  0.2839 -0.3818
  236HK4    H2919751   8.163   1.798  10.260 -0.3167 -1.5814  0.0165
  236HK4     N219752   8.486   1.930  10.563  0.3051  0.4474 -0.2019
  236HK4    C3019753   8.573   1.880  10.662  0.4303 -0.1997 -0.6275
  236HK4    C2919754   8.592   1.752  10.712 -0.5355 -0.0532  0.1218
  236HK4    H1519755   8.536   1.667  10.672 -0.0029 -0.4178  0.1525
  236HK4    C2819756   8.672   1.718  10.820 -0.1029  0.4957 -0.0236
  236HK4    C2719757   8.746   1.825  10.875 -0.0899  0.1490  0.6481
  236HK4    H1419758   8.829   1.804  10.943  1.6691  1.4849 -1.0355
  236HK4    C3219759   8.730   1.959  10.841  0.3315 -0.0960 -0.5542
  236HK4    H1619760   8.789   2.046  10.871  0.2907  0.4176 -1.9251
  236HK4    C3119761   8.644   1.984  10.735 -0.2372 -0.1097 -0.1019
  236HK4    C3419762   8.597   2.105  10.671  0.2035  0.2201  0.2014
  236HK4    C3319763   8.504   2.069  10.565  0.1991  0.4570  0.1218
  236HK4    C3519764   8.425   2.170  10.510 -0.1164  0.3034  0.2926
  236HK4    H1719765   8.345   2.137  10.444 -0.9025  1.0784  0.8546
  236HK4    C3619766   8.433   2.302  10.550  0.0555  0.5168 -0.4336
  236HK4    H1819767   8.393   2.376  10.479 -1.0589  0.9255  0.5983
  236HK4    C3719768   8.522   2.338  10.650 -0.3404  0.4875 -0.0581
  236HK4    H1919769   8.498   2.426  10.709 -2.8102  0.4224 -0.9265
  236HK4    C3819770   8.608   2.241  10.700 -0.1212  0.4160 -0.5716
  236HK4    H2019771   8.704   2.274  10.738 -0.3339  0.7877 -0.3429
  236HK4    C1419772   8.651   1.602  10.908  0.8661  0.3012 -0.0442
  236HK4     C919773   8.662   1.610  11.047  0.5462 -0.0189 -0.0010
  236HK4     C819774   8.727   1.507  11.119 -0.0816 -0.1917  0.3197
  236HK4    C1119775   8.776   1.396  11.051 -0.2806  0.0355 -0.2016
  236HK4     H419776   8.844   1.325  11.102 -0.4706 -0.7821 -1.0810
  236HK4    C1219777   8.756   1.379  10.915  0.2226  0.5911 -0.3469
  236HK4     H519778   8.769   1.277  10.875  1.8423  0.5131  0.3415
  236HK4    C1319779   8.691   1.481  10.847 -0.4456  0.0820 -0.4866
  236HK4     H619780   8.653   1.452  10.748 -0.2766  1.1031 -0.8578
  236HK4     C719781   8.736   1.515   0.018  0.6057  0.3462  0.2507
  236HK4     O219782   8.766   1.415   0.083 -0.5463 -0.1113  0.0959
  236HK4     C419783   8.694   1.640   0.086 -0.3726 -0.0764  0.4365
  236HK4     C319784   8.722   1.650   0.222 -0.5654  0.1818  0.4580
  236HK4     H319785   8.764   1.567   0.282 -1.3816  1.4775  2.8907
  236HK4     C219786   8.711   1.774   0.282 -0.8378  0.4554 -0.1592
  236HK4     H219787   8.739   1.785   0.388 -0.3773  0.3189 -0.2669
  236HK4     C119788   8.681   1.886   0.205  0.4975  0.3563 -0.8330
  236HK4     H119789   8.684   1.985   0.253  1.1360 -1.4236  3.0019
  236HK4     C619790   8.644   1.876   0.069 -0.0811 -0.0122 -0.6507
  236HK4     C519791   8.643   1.748   0.012 -0.2419 -0.3056  0.0071
  236HK4    C1019792   8.601   1.725  11.119  0.2053 -0.0981 -0.1584
  236HK4     O119793   8.489   1.753  11.076  0.2326 -0.0945 -0.2252
  236HK4    C1619794   8.652   2.000  11.239  0.1532  0.3562 -0.0465
  236HK4    C1519795   8.756   2.094   0.006  0.0115  0.4786  0.1703
  236HK4     H719796   8.835   2.081   0.082  0.1708 -1.8140 -0.3454
  236HK4    C2019797   8.750   2.222  11.200  0.3948  0.5226  0.2275
  236HK4     H919798   8.814   2.303  11.234  0.8663  0.8219 -1.3384
  236HK4    C1919799   8.643   2.258  11.119  0.4321 -0.1390 -0.1194
  236HK4    C1819800   8.534   2.164  11.099  0.0281  0.3582 -0.2645
  236HK4    C1719801   8.543   2.041  11.163  0.0609  0.6061  0.2151
  236HK4     H819802   8.447   1.989  11.168 -0.3666  1.3225 -0.4358
  236HK4     N119803   8.419   2.225  11.044 -0.2449 -0.2730 -0.3918
  236HK4    C2119804   8.446   2.362  11.031 -0.3231 -0.2190 -0.0131
  236HK4    C2219805   8.585   2.380  11.066 -0.3113 -0.4176  0.0407
  236HK4    C2619806   8.644   2.506  11.069 -0.1774 -0.4926  0.5277
  236HK4    H1319807   8.752   2.508  11.085 -0.0376 -2.7198  0.1667
  236HK4    C2519808   8.560   2.611  11.036  0.1800 -0.5036 -0.4230
  236HK4    H1219809   8.606   2.710  11.029 -1.0075  0.2850  2.3884
  236HK4    C2419810   8.425   2.599  11.003  0.1110 -0.2805 -0.2048
  236HK4    H1119811   8.365   2.691  10.997  2.4870  1.2691 -1.4053
  236HK4    C2319812   8.368   2.473  10.996 -0.2624 -0.1340  0.1196
  236HK4    H1019813   8.288   2.452  10.925 -0.5724  0.2385  0.3597
  236HK4    C3919814   8.324   2.158  10.967 -0.0479 -0.1741 -0.7229
  236HK4    C4119815   8.195   2.215  10.963  0.0554  0.0955 -0.1531
  236HK4    H2119816   8.165   2.305  11.019 -0.0494 -0.7054  1.0878
  236HK4    C4219817   8.092   2.147  10.899  0.3914  0.0476 -0.6512
  236HK4    H2219818   7.992   2.191  10.885  0.7553  1.0064 -0.2788
  236HK4    C4319819   8.112   2.024  10.839  0.1515 -0.0903 -0.4498
  236HK4    H2319820   8.025   1.963  10.812 -0.1123  1.2348 -2.7337
  236HK4    C4419821   8.237   1.964  10.842  0.2939  0.2004 -0.4361
  236HK4    H2419822   8.255   1.865  10.798 -1.1838 -0.3849  0.2332
  236HK4    C4519823   8.340   2.030  10.909  0.6026 -0.1804 -0.5352
  236HK4    H2519824   8.437   1.981  10.916  0.3338 -1.0656 -2.4550
  237HK4    H2819825  10.124   9.244   6.950  1.9382 -0.7114 -0.0075
  237HK4    C4819826  10.160   9.346   6.960  0.0732 -0.0447  0.0569
  237HK4    C4719827  10.147   9.441   6.859 -0.1999  0.0510  0.1852
  237HK4    H2719828  10.061   9.444   6.790  0.6110 -0.8647 -0.8978
  237HK4    C4619829  10.247   9.536   6.847 -0.8276  0.6983  0.0586
  237HK4    H2619830  10.242   9.610   6.765  0.5790  1.3788  0.5785
  237HK4    C4019831  10.359   9.552   6.931 -0.0230 -0.3660 -0.8143
  237HK4    C5019832  10.360   9.460   7.038 -0.0364  0.4003 -0.1570
  237HK4    H3019833  10.436   9.469   7.117 -0.3820  0.0183  0.2177
  237HK4    C4919834  10.264   9.361   7.051  0.4112 -0.0550 -0.3235
  237HK4    H2919835  10.282   9.276   7.118 -2.1069 -0.9750 -0.7438
  237HK4     N219836  10.468   9.638   6.909 -0.2466  0.1089 -0.0680
  237HK4    C3019837  10.502   9.687   6.782  0.2000  0.3516  0.1474
  237HK4    C2919838  10.484   9.628   6.657  0.7771 -0.2627  0.3555
  237HK4    H1519839  10.450   9.524   6.651 -1.3206  0.3845  0.4985
  237HK4    C2819840  10.511   9.692   6.538 -0.2521 -0.0291  0.2382
  237HK4    C2719841  10.576   9.817   6.550 -0.2605  0.0349 -0.3619
  237HK4    H1419842  10.586   9.881   6.461  0.8614  1.6421  0.8755
  237HK4    C3219843  10.614   9.873   6.672 -0.6693  0.7179 -0.5423
  237HK4    H1619844  10.681   9.958   6.658 -0.7411  0.9560  0.5431
  237HK4    C3119845  10.594   9.799   6.788  0.1412  0.4457 -0.5710
  237HK4    C3419846  10.627   9.808   6.929 -0.4469 -0.0546 -0.4011
  237HK4    C3319847  10.542   9.715   7.001 -0.2244  0.0320 -0.0233
  237HK4    C3519848  10.566   9.696   7.136 -0.2501  0.0295 -0.0213
  237HK4    H1719849  10.490   9.650   7.199  0.8087  0.1263  1.3569
  237HK4    C3619850  10.663   9.772   7.201  0.0022  0.1231 -0.5007
  237HK4    H1819851  10.681   9.749   7.307 -2.9484 -2.1637 -0.4250
  237HK4    C3719852  10.746   9.858   7.130 -0.1354  0.5155 -0.1790
  237HK4    H1919853  10.811   9.921   7.191  1.8445 -2.9409  1.4663
  237HK4    C3819854  10.729   9.877   6.994 -0.5471 -0.0893 -0.2126
  237HK4    H2019855  10.810   9.921   6.936 -1.6489  0.3633 -1.4417
  237HK4    C1419856  10.500   9.620   6.410 -0.0480  0.5381 -0.1073
  237HK4     C919857  10.588   9.613   6.302  0.6679 -0.3550  0.5219
  237HK4     C819858  10.563   9.525   6.194 -0.3956  0.2902  0.2402
  237HK4    C1119859  10.437   9.467   6.185  0.0862 -0.7183 -0.1007
  237HK4     H419860  10.414   9.408   6.095  1.3788 -0.3703 -0.6731
  237HK4    C1219861  10.342   9.489   6.285  0.0294  0.1884 -0.3439
  237HK4     H519862  10.236   9.461   6.274 -0.3937  1.9066 -0.6897
  237HK4    C1319863  10.375   9.555   6.403  0.4264 -0.3907 -0.1221
  237HK4     H619864  10.306   9.566   6.488  0.1573  2.0414 -0.6050
  237HK4     C719865  10.664   9.505   6.088 -0.0475  0.1588  0.5987
  237HK4     O219866  10.669   9.391   6.043  0.1330  0.6999 -0.7652
  237HK4     C419867  10.785   9.590   6.079 -0.1506  0.2141 -0.2929
  237HK4     C319868  10.884   9.569   5.984  0.2579  0.1140  0.1503
  237HK4     H319869  10.886   9.478   5.922  2.4201 -1.2755  2.1700
  237HK4     C219870  10.983   9.663   5.958 -0.1506  0.3989 -0.3796
  237HK4     H219871  11.039   9.653   5.864 -1.2939 -1.3552 -0.8976
  237HK4     C119872  10.968   9.780   6.032 -0.1329  0.4715 -0.4883
  237HK4     H119873  11.061   9.838   6.035  0.8616 -1.1296  0.1286
  237HK4     C619874  10.875   9.809   6.134  0.0378  0.1969 -0.2550
  237HK4     C519875  10.786   9.705   6.162 -0.0865  0.2700 -0.3739
  237HK4    C1019876  10.711   9.697   6.291  0.4586 -0.1232 -0.0785
  237HK4     O119877  10.781   9.690   6.392 -0.2557  0.1945  0.4347
  237HK4    C1619878  10.845   9.951   6.158 -0.2089  0.1376 -0.1759
  237HK4    C1519879  10.881  10.045   6.059  0.1339 -0.1017 -0.2734
  237HK4     H719880  10.933  10.009   5.968 -3.8605  0.7337 -2.9934
  237HK4    C2019881  10.843  10.178   6.060  0.0123 -0.1382  0.8512
  237HK4     H919882  10.883  10.238   5.978  0.2376 -0.8074  0.4724
  237HK4    C1919883  10.764  10.227   6.163 -0.4633  0.1758  0.3375
  237HK4    C1819884  10.727  10.133   6.267  0.2476 -0.0877  0.3510
  237HK4    C1719885  10.771  10.002   6.264  0.3265 -0.0635  0.2917
  237HK4     H819886  10.773   9.940   6.354 -2.7238 -1.7497 -0.7370
  237HK4     N119887  10.649  10.200   6.364 -0.6013 -0.1316 -0.2988
  237HK4    C2119888  10.634  10.331   6.316 -0.8619 -0.2578 -0.5688
  237HK4    C2219889  10.706  10.357   6.193 -0.1689  0.3943 -0.0314
  237HK4    C2619890  10.703  10.482   6.131  0.3764  0.4835  0.1212
  237HK4    H1319891  10.757  10.499   6.038 -1.4361  0.5124 -0.9358
  237HK4    C2519892  10.645  10.588   6.200 -0.5952  0.3482 -0.4822
  237HK4    H1219893  10.668  10.693   6.182 -0.6883  0.5284  0.4019
  237HK4    C2419894  10.575  10.563   6.317 -0.1392 -0.3765 -0.3550
  237HK4    H1119895  10.511  10.645   6.353 -0.3628 -0.2393 -1.0499
  237HK4    C2319896  10.570  10.438   6.377  0.0939 -0.1175  0.2035
  237HK4    H1019897  10.541  10.430   6.482 -1.5915  0.6871 -0.1726
  237HK4    C3919898  10.668  10.173   6.500 -0.0351  0.3541 -0.2819
  237HK4    C4119899  10.561  10.191   6.590  0.0265  0.6141 -0.2629
  237HK4    H2119900  10.457  10.174   6.559  0.4977  0.7984 -1.9870
  237HK4    C4219901  10.586  10.251   6.713 -0.2303  0.2253 -0.0204
  237HK4    H2219902  10.501  10.292   6.770  1.0232  1.6532  0.8670
  237HK4    C4319903  10.715  10.272   6.759 -0.2749  0.3639  0.0405
  237HK4    H2319904  10.734  10.305   6.861 -1.6359 -1.5872  0.9579
  237HK4    C4419905  10.823  10.235   6.678 -0.4508  0.8658 -0.4207
  237HK4    H2419906  10.922  10.253   6.720 -0.2638 -0.9798 -0.0040
  237HK4    C4519907  10.799  10.185   6.551 -0.0441  0.0978 -0.1989
  237HK4    H2519908  10.881  10.173   6.479 -1.4956  0.3950 -1.9619
  238HK4    H2819909   2.237   9.565   6.422  2.2118 -0.3333  1.5734
  238HK4    C4819910   2.178   9.513   6.497 -0.1998  0.3179  0.1911
  238HK4    C4719911   2.106   9.597   6.581  0.0615  0.1519  0.5871
  238HK4    H2719912   2.140   9.700   6.601  0.1133  0.2222  0.1457
  238HK4    C4619913   1.997   9.540   6.645  0.0922  0.0117  0.5129
  238HK4    H2619914   1.933   9.600   6.712  0.3650 -0.4101  1.1605
  238HK4    C4019915   1.968   9.402   6.645 -0.1509  0.0600  0.2648
  238HK4    C5019916   2.040   9.321   6.555  0.0150  0.2459  0.2328
  238HK4    H3019917   2.017   9.213   6.558  0.5356  0.1245 -0.0072
  238HK4    C4919918   2.146   9.379   6.486  0.1151  0.2298  0.3703
  238HK4    H2919919   2.199   9.323   6.407  2.5456  0.8851  1.5046
  238HK4     N219920   1.899   9.339   6.750  0.2948 -0.4806  0.2296
  238HK4    C3019921   1.894   9.381   6.884 -0.4017  0.4759 -0.0936
  238HK4    C2919922   1.995   9.447   6.954 -0.2142  0.4086 -0.3010
  238HK4    H1519923   2.085   9.480   6.901 -0.5583  2.1361  0.1715
  238HK4    C2819924   1.976   9.481   7.087 -0.0002  0.1370 -0.1994
  238HK4    C2719925   1.852   9.456   7.150  0.0400  0.0565 -0.1532
  238HK4    H1419926   1.831   9.503   7.247  1.6719 -2.3242  1.3803
  238HK4    C3219927   1.748   9.386   7.089  0.1958 -0.3347  0.0286
  238HK4    H1619928   1.651   9.381   7.137 -0.6026 -1.3775 -1.6586
  238HK4    C3119929   1.775   9.346   6.958 -0.2879 -0.0477 -0.1579
  238HK4    C3419930   1.703   9.265   6.861  0.0177 -0.3105 -0.1687
  238HK4    C3319931   1.783   9.259   6.741  0.4158 -0.6439  0.1140
  238HK4    C3519932   1.738   9.208   6.620  0.3680 -0.1686 -0.0712
  238HK4    H1719933   1.786   9.203   6.522 -3.5105 -1.1516 -2.0200
  238HK4    C3619934   1.603   9.175   6.614  0.3759 -0.2232  0.0611
  238HK4    H1819935   1.572   9.116   6.526 -3.5320  2.8173 -0.7268
  238HK4    C3719936   1.516   9.193   6.721  0.8780  0.6537  0.3215
  238HK4    H1919937   1.414   9.157   6.714  1.0059 -0.0283  1.9544
  238HK4    C3819938   1.570   9.226   6.844 -0.4157  0.6504  0.9017
  238HK4    H2019939   1.510   9.246   6.933 -0.7094 -3.5254  1.7631
  238HK4    C1419940   2.094   9.499   7.172 -0.0377  0.0396 -0.1263
  238HK4     C919941   2.103   9.471   7.309  0.0263 -0.3552 -0.2125
  238HK4     C819942   2.179   9.552   7.395 -0.3482  0.0309 -0.2473
  238HK4    C1119943   2.253   9.659   7.346 -0.1622  0.0495  0.0648
  238HK4     H419944   2.285   9.744   7.408  1.8169 -0.1223 -0.6634
  238HK4    C1219945   2.259   9.671   7.207 -0.2179 -0.0565  0.0525
  238HK4     H519946   2.322   9.750   7.165  0.4205 -0.3211  0.5001
  238HK4    C1319947   2.187   9.591   7.120  0.4997 -0.5022 -0.1283
  238HK4     H619948   2.220   9.583   7.015 -1.7826 -0.6523 -0.8617
  238HK4     C719949   2.186   9.523   7.540 -0.2945  0.7483 -0.1026
  238HK4     O219950   2.271   9.580   7.608  0.5436 -0.2111 -0.3262
  238HK4     C419951   2.101   9.414   7.593 -0.2297  0.5780 -0.3466
  238HK4     C319952   2.094   9.400   7.732 -0.2501 -0.4170 -0.4433
  238HK4     H319953   2.114   9.491   7.790 -0.7932 -0.9607  0.6208
  238HK4     C219954   2.045   9.286   7.794  0.0952 -0.1136  0.3869
  238HK4     H219955   2.062   9.258   7.899 -1.0073 -2.3320  0.0059
  238HK4     C119956   1.983   9.196   7.708 -0.8377  0.7432  0.1599
  238HK4     H119957   1.978   9.095   7.751  2.6145  0.0960 -0.8039
  238HK4     C619958   1.974   9.214   7.569  0.3244 -0.4607 -0.0754
  238HK4     C519959   2.043   9.319   7.507 -0.0391 -0.0514  0.2119
  238HK4    C1019960   2.054   9.339   7.359 -0.4993 -0.0098  0.1844
  238HK4     O119961   2.053   9.245   7.281 -0.6388 -0.2509  0.4737
  238HK4    C1619962   1.856   9.150   7.511 -0.2071  0.4253  0.0111
  238HK4    C1519963   1.792   9.199   7.395 -0.2307  0.0116 -0.1529
  238HK4     H719964   1.812   9.306   7.376  0.4001  0.0385  0.6235
  238HK4    C2019965   1.681   9.146   7.330  0.0614 -0.3109 -0.3863
  238HK4     H919966   1.643   9.187   7.237 -0.1825  0.7524  0.1834
  238HK4    C1919967   1.617   9.037   7.388  0.1902 -0.0584  0.2358
  238HK4    C1819968   1.673   8.986   7.512 -0.0803 -0.0404  0.3642
  238HK4    C1719969   1.793   9.036   7.561 -0.0820  0.3418 -0.0221
  238HK4     H819970   1.836   8.983   7.646 -1.1277 -0.6760 -0.1224
  238HK4     N119971   1.589   8.885   7.563 -0.0736 -0.4515 -0.4358
  238HK4    C2119972   1.470   8.887   7.486 -0.4396  0.5708  0.1504
  238HK4    C2219973   1.492   8.967   7.367 -0.0191  0.3627  0.0879
  238HK4    C2619974   1.391   8.973   7.272 -0.1762  0.5873  0.2682
  238HK4    H1319975   1.402   9.037   7.184 -1.0419  2.5275  1.5321
  238HK4    C2519976   1.270   8.906   7.288  0.1574 -0.2610 -0.6785
  238HK4    H1219977   1.191   8.918   7.215 -0.9469  1.7879  0.7894
  238HK4    C2419978   1.251   8.827   7.401  0.2298 -0.2884 -0.6826
  238HK4    H1119979   1.162   8.765   7.414  0.2658  0.0023  1.0992
  238HK4    C2319980   1.348   8.823   7.501 -0.5341  0.7390  0.1044
  238HK4    H1019981   1.330   8.763   7.590 -2.9871 -0.2198 -0.9929
  238HK4    C3919982   1.637   8.765   7.615  0.9884  0.3412  0.4379
  238HK4    C4119983   1.564   8.690   7.710  0.1603  0.0802 -0.3984
  238HK4    H2119984   1.481   8.745   7.757  0.1323  0.5820 -1.0169
  238HK4    C4219985   1.595   8.557   7.737  0.1524  0.2151  0.2837
  238HK4    H2219986   1.536   8.511   7.817  0.1346  0.3930  0.3742
  238HK4    C4319987   1.704   8.494   7.678 -0.1203 -0.2371  0.2668
  238HK4    H2319988   1.704   8.385   7.667  2.8331 -0.5010  2.3261
  238HK4    C4419989   1.773   8.567   7.582  0.2029 -0.0706  0.6278
  238HK4    H2419990   1.857   8.516   7.534  0.8813 -0.4606  2.2022
  238HK4    C4519991   1.747   8.701   7.555  0.6648 -0.0562  0.2570
  238HK4    H2519992   1.826   8.758   7.504 -0.1871 -0.0902 -1.1268
  239HK4    H2819993   3.852   2.019   8.366  1.9298  0.1265  2.2399
  239HK4    C4819994   3.770   2.030   8.437  0.3121 -0.2310  0.4523
  239HK4    C4719995   3.772   2.125   8.539  0.8801 -0.0526  0.2749
  239HK4    H2719996   3.855   2.197   8.543  0.7814  0.2441 -2.1590
  239HK4    C4619997   3.663   2.135   8.624  0.1780 -0.0105 -0.6204
  239HK4    H2619998   3.645   2.228   8.680  0.0743 -0.7589  0.6251
  239HK4    C4019999   3.551   2.049   8.625  0.4549 -0.3692  0.2497
  239HK4    C5020000   3.548   1.956   8.520 -0.1436 -0.5738  0.4489
  239HK4    H3020001   3.459   1.892   8.508  0.8770 -1.7156 -1.4060
  239HK4    C4920002   3.658   1.947   8.436 -0.0169  0.2055  0.5336
  239HK4    H2920003   3.669   1.863   8.366  3.5928  1.1969 -0.2009
  239HK4     N220004   3.476   2.035   8.742 -0.2230  0.0465 -0.1295
  239HK4    C3020005   3.520   2.055   8.875 -0.2255  0.4462 -0.1899
  239HK4    C2920006   3.640   2.112   8.916 -0.3043  0.4379  0.0500
  239HK4    H1520007   3.728   2.099   8.852 -0.1151  0.9276  0.2142
  239HK4    C2820008   3.656   2.157   9.047  0.6641 -0.3606  0.2184
  239HK4    C2720009   3.550   2.143   9.138  0.0352 -0.0157 -0.4622
  239HK4    H1420010   3.565   2.185   9.239 -0.3646 -1.3496  0.1578
  239HK4    C3220011   3.428   2.085   9.103  0.0297 -0.1368 -0.2392
  239HK4    H1620012   3.352   2.075   9.181 -0.3723  0.1781 -0.5866
  239HK4    C3120013   3.414   2.042   8.972 -0.1419 -0.2197 -0.1935
  239HK4    C3420014   3.298   2.018   8.889 -0.4724  0.0440  0.1921
  239HK4    C3320015   3.336   2.016   8.749 -0.1524 -0.3316  0.2850
  239HK4    C3520016   3.239   1.978   8.658 -0.0844  0.0025  0.0755
  239HK4    H1720017   3.264   2.009   8.556  0.5418  0.0106  0.2308
  239HK4    C3620018   3.121   1.921   8.705 -0.4172  0.5693 -0.0548
  239HK4    H1820019   3.055   1.868   8.635 -1.2591  1.7664 -0.1732
  239HK4    C3720020   3.089   1.914   8.840 -0.0122 -0.2177  0.0039
  239HK4    H1920021   3.000   1.857   8.869  0.7432 -1.5623 -0.2624
  239HK4    C3820022   3.174   1.973   8.933 -0.5639  0.2907  0.1827
  239HK4    H2020023   3.146   1.989   9.038 -0.0165 -1.2382  0.5742
  239HK4    C1420024   3.789   2.202   9.091  0.5839 -0.0234  0.1168
  239HK4     C920025   3.832   2.185   9.223  0.3164 -0.1559  0.1894
  239HK4     C820026   3.924   2.270   9.289 -0.2563  0.4994  0.1410
  239HK4    C1120027   3.982   2.364   9.205 -0.1185  0.2027 -0.0960
  239HK4     H420028   4.070   2.416   9.246  0.7592 -2.0984  1.0757
  239HK4    C1220029   3.954   2.377   9.070 -0.3818 -0.0839 -0.0683
  239HK4     H520030   4.009   2.447   9.006 -2.5524  2.2227  0.5047
  239HK4    C1320031   3.855   2.298   9.013 -0.3236  0.1287 -0.4651
  239HK4     H620032   3.849   2.283   8.904 -0.8468 -1.5408 -0.2230
  239HK4     C720033   3.949   2.274   9.435  0.5096 -0.0948  0.0291
  239HK4     O220034   3.993   2.378   9.484 -0.6329  0.2088  0.4102
  239HK4     C420035   3.872   2.178   9.517  0.0095 -0.0781 -0.4172
  239HK4     C320036   3.893   2.179   9.654 -0.3700  0.8663 -0.3658
  239HK4     H320037   3.952   2.257   9.703  0.4709 -0.1730  0.2896
  239HK4     C220038   3.825   2.089   9.736  0.1620  0.3013 -0.5428
  239HK4     H220039   3.848   2.085   9.843  1.4381 -0.1698 -0.8192
  239HK4     C120040   3.736   2.000   9.677 -0.4580  0.4201  0.2088
  239HK4     H120041   3.691   1.919   9.735 -0.2550  0.6724  0.7203
  239HK4     C620042   3.705   2.005   9.539 -0.3204 -0.0483  0.1646
  239HK4     C520043   3.786   2.083   9.457 -0.9581  0.5000  0.0518
  239HK4    C1020044   3.782   2.073   9.308  0.1452 -0.1758  0.0584
  239HK4     O120045   3.791   1.962   9.257 -0.4276 -0.0961 -0.2134
  239HK4    C1620046   3.564   1.975   9.510 -0.4052  0.6602 -0.1562
  239HK4    C1520047   3.461   2.022   9.594 -0.3588  0.0430  0.2450
  239HK4     H720048   3.477   2.123   9.635 -0.6114  0.0092  0.4282
  239HK4    C2020049   3.334   1.966   9.602 -0.2323 -0.2434  0.2656
  239HK4     H920050   3.261   2.008   9.671  0.4591 -0.2823  1.0297
  239HK4    C1920051   3.305   1.857   9.521 -0.4301  0.2787 -0.3732
  239HK4    C1820052   3.411   1.806   9.437 -0.0871  0.2163  0.1009
  239HK4    C1720053   3.538   1.862   9.432 -0.1597  0.3874  0.1628
  239HK4     H820054   3.622   1.817   9.379 -1.3140 -0.8786 -0.5888
  239HK4     N120055   3.359   1.703   9.356  0.3526  0.5126 -0.5656
  239HK4    C2120056   3.221   1.695   9.386  0.5027  0.0340  0.0080
  239HK4    C2220057   3.185   1.778   9.500 -0.3227  0.0934 -0.2886
  239HK4    C2620058   3.061   1.780   9.563 -0.2963  0.0303 -0.2397
  239HK4    H1320059   3.049   1.847   9.648  0.0915  1.0698 -0.9947
  239HK4    C2520060   2.964   1.693   9.515 -0.1406 -0.2938  0.0341
  239HK4    H1220061   2.864   1.708   9.557  0.6006  1.3606  1.2610
  239HK4    C2420062   3.000   1.608   9.411  0.3164  0.4261 -0.4005
  239HK4    H1120063   2.917   1.549   9.368  0.1407  0.3311  0.0667
  239HK4    C2320064   3.120   1.611   9.341  0.5605 -0.0292 -0.0009
  239HK4    H1020065   3.133   1.569   9.241 -0.6027  2.6288 -1.3141
  239HK4    C3920066   3.417   1.633   9.250 -0.0588 -0.3778 -0.2101
  239HK4    C4120067   3.386   1.500   9.217 -0.1253 -0.3770 -0.1511
  239HK4    H2120068   3.335   1.441   9.295 -0.6884  0.1410 -0.1337
  239HK4    C4220069   3.413   1.442   9.094 -0.2484 -0.4567 -0.1416
  239HK4    H2220070   3.394   1.335   9.080 -0.1242 -0.6052  0.8592
  239HK4    C4320071   3.472   1.532   9.006 -0.3564 -0.4213 -0.1786
  239HK4    H2320072   3.474   1.501   8.902  2.8180 -1.6088  0.1679
  239HK4    C4420073   3.510   1.665   9.025  0.2378 -0.6846  0.5236
  239HK4    H2420074   3.524   1.738   8.944 -1.4347  0.6213  1.3725
  239HK4    C4520075   3.479   1.713   9.152  0.8143 -0.1880  0.4771
  239HK4    H2520076   3.525   1.807   9.183  0.3672  0.1433  0.1441
  240HK4    H2820077   5.658   0.689  10.154 -2.4820  0.4230  0.8315
  240HK4    C4820078   5.693   0.688  10.257  0.2910  0.2167 -0.0533
  240HK4    C4720079   5.657   0.801  10.331 -0.1472 -0.0102  0.0829
  240HK4    H2720080   5.607   0.880  10.273  0.9545  0.7784  0.1976
  240HK4    C4620081   5.712   0.813  10.458 -0.5957 -0.8307  0.3605
  240HK4    H2620082   5.681   0.894  10.525 -0.9020  0.4600 -1.3061
  240HK4    C4020083   5.810   0.722  10.500  0.2201 -0.0168  0.2348
  240HK4    C5020084   5.845   0.613  10.418 -0.0077  0.0293  0.0808
  240HK4    H3020085   5.923   0.541  10.445 -0.4163 -0.7399 -0.7441
  240HK4    C4920086   5.783   0.589  10.295  0.3871  0.2610 -0.1608
  240HK4    H2920087   5.797   0.495  10.240 -1.1077 -0.6297  0.9254
  240HK4     N220088   5.910   0.765  10.589  0.5120  0.0540 -0.1265
  240HK4    C3020089   5.928   0.901  10.618 -0.0575  0.0243  0.3623
  240HK4    C2920090   5.922   1.007  10.528  0.4746 -0.2725 -0.0231
  240HK4    H1520091   5.955   0.980  10.428 -1.3226 -1.1380 -0.3817
  240HK4    C2820092   5.940   1.139  10.568  0.3900 -0.3493  0.2701
  240HK4    C2720093   5.960   1.155  10.707  0.6804  0.0895  0.1796
  240HK4    H1420094   5.964   1.259  10.743 -0.2327 -0.2120  1.1992
  240HK4    C3220095   5.972   1.054  10.801  0.0162  0.2276  0.4146
  240HK4    H1620096   5.986   1.083  10.905  3.2159  0.0300  0.0965
  240HK4    C3120097   5.951   0.923  10.759 -0.1204  0.2743  0.3341
  240HK4    C3420098   5.956   0.791  10.819 -0.0794  0.0783 -0.1024
  240HK4    C3320099   5.934   0.697  10.710  0.3154 -0.0016 -0.1195
  240HK4    C3520100   5.950   0.563  10.742 -0.1558  0.0680  0.4178
  240HK4    H1720101   5.930   0.485  10.669  2.2323 -0.2438  0.0563
  240HK4    C3620102   5.991   0.522  10.869 -0.5651 -0.2912  0.4393
  240HK4    H1820103   6.000   0.416  10.895 -0.4705 -0.2456  0.5896
  240HK4    C3720104   6.017   0.611  10.973  0.3737  0.3195 -0.3117
  240HK4    H1920105   6.046   0.580  11.073  3.8367  1.6103 -0.8363
  240HK4    C3820106   5.985   0.743  10.946 -0.5482  0.1696  0.0351
  240HK4    H2020107   5.987   0.807  11.035  1.3767  0.7620 -0.4184
  240HK4    C1420108   5.968   1.246  10.471  0.2275 -0.4561  0.1032
  240HK4     C920109   6.038   1.362  10.507 -0.4130 -0.0229 -0.0482
  240HK4     C820110   6.012   1.482  10.438  0.5131  0.3010  0.1563
  240HK4    C1120111   5.927   1.477  10.327  0.3325  0.2426  0.2966
  240HK4     H420112   5.914   1.563  10.260  1.9778 -0.0489 -0.4334
  240HK4    C1220113   5.865   1.360  10.286 -0.5186  0.6975  0.2704
  240HK4     H520114   5.785   1.360  10.211  1.8690 -0.4774 -2.4172
  240HK4    C1320115   5.884   1.242  10.358  0.3004  0.6597  0.0102
  240HK4     H620116   5.823   1.155  10.331  1.3124 -0.1057  0.2025
  240HK4     C720117   6.081   1.608  10.475  0.7627  0.3129 -0.3448
  240HK4     O220118   6.058   1.713  10.416  0.0264  0.5977  0.4511
  240HK4     C420119   6.165   1.614  10.596 -0.6463  0.5841  0.6361
  240HK4     C320120   6.217   1.734  10.642  0.3624  0.4229 -0.0724
  240HK4     H320121   6.227   1.812  10.566  0.5403  0.3623 -0.1114
  240HK4     C220122   6.286   1.737  10.763  0.5570  0.1581 -0.1737
  240HK4     H220123   6.333   1.829  10.800  1.9851 -0.4572 -0.4183
  240HK4     C120124   6.295   1.623  10.843  0.3473  0.0703 -0.2733
  240HK4     H120125   6.345   1.630  10.941 -0.5477  0.3731  0.1651
  240HK4     C620126   6.251   1.499  10.793 -0.5337  0.4083 -0.3550
  240HK4     C520127   6.192   1.494  10.666  0.3795 -0.0171 -0.7694
  240HK4    C1020128   6.147   1.364  10.609 -0.1670 -0.0287 -0.3128
  240HK4     O120129   6.232   1.276  10.602 -0.4913 -0.3513 -0.1763
  240HK4    C1620130   6.221   1.400  10.897  0.0412  0.3888 -0.2058
  240HK4    C1520131   6.136   1.435  11.003 -0.2045 -0.3223 -0.1631
  240HK4     H720132   6.087   1.533  11.007  1.0974  0.3100  0.4141
  240HK4    C2020133   6.123   1.363  11.122 -0.6938  0.1519  0.0729
  240HK4     H920134   6.086   1.417  11.209 -1.5671 -0.7789  0.2870
  240HK4    C1920135   6.185   1.239  11.122  0.1521  0.5718  0.3585
  240HK4    C1820136   6.268   1.195  11.011 -0.8824 -0.1016 -0.1606
  240HK4    C1720137   6.293   1.281  10.904 -0.3183  0.1978  0.2119
  240HK4     H820138   6.383   1.270  10.844 -0.8279  1.8290 -0.8715
  240HK4     N120139   6.321   1.067  11.037 -0.0856  0.2541 -0.0306
  240HK4    C2120140   6.265   1.021  11.157 -0.2804 -0.2982 -0.3329
  240HK4    C2220141   6.190   1.129  11.217 -0.4223 -0.2672 -0.5689
  240HK4    C2620142   6.095   1.095   0.064 -0.8338  0.5696 -0.6731
  240HK4    H1320143   6.064   1.176   0.130 -2.4242 -0.5222 -0.0363
  240HK4    C2520144   6.065   0.964   0.102  0.0838  0.4840 -0.2322
  240HK4    H1220145   5.978   0.940   0.163 -1.7935 -2.8650 -4.0409
  240HK4    C2420146   6.141   0.863   0.046 -0.2402 -0.0133  0.2210
  240HK4    H1120147   6.143   0.764   0.094  0.4370 -0.0506  0.1211
  240HK4    C2320148   6.242   0.891  11.202 -0.3016 -0.1407  0.1139
  240HK4    H1020149   6.282   0.809  11.143  0.1232  1.0853 -1.3302
  240HK4    C3920150   6.379   0.984  10.940  0.4702  0.0705  0.4525
  240HK4    C4120151   6.478   0.890  10.974 -0.1699 -0.5216  0.6911
  240HK4    H2120152   6.546   0.901  11.059 -0.3359  0.7012  0.6778
  240HK4    C4220153   6.498   0.770  10.906  0.6853  0.0605 -0.1055
  240HK4    H2220154   6.572   0.698  10.943  0.5485  0.6499  1.3744
  240HK4    C4320155   6.412   0.742  10.801  0.4211  0.2041  0.0693
  240HK4    H2320156   6.423   0.647  10.748  2.8627  1.2050 -1.3121
  240HK4    C4420157   6.322   0.838  10.755 -0.1430 -0.2543  0.2165
  240HK4    H2420158   6.248   0.802  10.682 -0.2974  1.6736 -0.5867
  240HK4    C4520159   6.303   0.957  10.824  0.3125 -0.4453  0.6747
  240HK4    H2520160   6.226   1.025  10.785 -1.7093 -2.8362  0.3650
  241HK4    H2820161   5.936   8.906   1.207 -1.0153  2.8234 -0.2527
  241HK4    C4820162   5.912   8.888   1.312 -0.0210 -0.1411 -0.5083
  241HK4    C4720163   5.921   8.995   1.400 -0.2436 -0.3181 -0.2709
  241HK4    H2720164   5.958   9.092   1.365 -2.5635  1.6067  2.3509
  241HK4    C4620165   5.891   8.972   1.534 -0.0898 -0.2066 -0.2172
  241HK4    H2620166   5.900   9.059   1.601  0.2489 -0.9394  0.6996
  241HK4    C4020167   5.846   8.849   1.586 -0.1874 -0.0725  0.0179
  241HK4    C5020168   5.844   8.745   1.491  0.1617  0.0882 -0.1663
  241HK4    H3020169   5.829   8.639   1.519  2.6889 -0.7080 -1.6077
  241HK4    C4920170   5.880   8.760   1.357  0.8441 -0.1890 -0.0150
  241HK4    H2920171   5.889   8.673   1.291  2.0118 -0.1338  0.0592
  241HK4     N220172   5.842   8.818   1.722  0.2694 -0.3639 -0.0323
  241HK4    C3020173   5.903   8.897   1.822 -0.0605  0.1581 -0.2378
  241HK4    C2920174   6.022   8.970   1.817  0.2081 -0.2289  0.3485
  241HK4    H1520175   6.079   8.962   1.724 -3.6541 -0.0587 -2.2060
  241HK4    C2820176   6.079   9.028   1.929  0.0580 -0.2581  0.4379
  241HK4    C2720177   6.012   9.016   2.053 -0.9367 -0.2197 -0.0900
  241HK4    H1420178   6.044   9.070   2.143  1.9212 -0.6854 -0.7804
  241HK4    C3220179   5.892   8.947   2.065 -0.4382 -0.9659  0.6238
  241HK4    H1620180   5.852   8.937   2.166 -1.0446  1.9211  0.7116
  241HK4    C3120181   5.843   8.881   1.953 -0.7126  0.9996 -0.4302
  241HK4    C3420182   5.733   8.790   1.929  0.4683 -0.5870  0.0670
  241HK4    C3320183   5.739   8.750   1.790 -0.1478  0.1290 -0.1670
  241HK4    C3520184   5.659   8.645   1.747 -0.3210  0.0492  0.3457
  241HK4    H1720185   5.655   8.637   1.638 -0.4258 -0.4651  0.3845
  241HK4    C3620186   5.573   8.580   1.835 -0.1074 -0.6361  0.0561
  241HK4    H1820187   5.547   8.474   1.822  0.6425 -0.7701 -0.3653
  241HK4    C3720188   5.559   8.628   1.965  0.6776 -0.5904  0.1257
  241HK4    H1920189   5.462   8.614   2.012  1.4719 -0.2343  1.8858
  241HK4    C3820190   5.643   8.727   2.015  0.0709 -0.0366  0.0565
  241HK4    H2020191   5.633   8.760   2.118  2.5255  1.4186 -0.1361
  241HK4    C1420192   6.206   9.101   1.925  0.0105 -0.2145 -0.3820
  241HK4     C920193   6.292   9.112   2.035 -0.5391 -0.1188  0.0413
  241HK4     C820194   6.347   9.235   2.077  0.2393 -0.2236 -0.6624
  241HK4    C1120195   6.327   9.347   1.996 -0.5722  0.4661  0.4734
  241HK4     H420196   6.377   9.442   2.020 -0.0406  0.2077  0.3908
  241HK4    C1220197   6.262   9.332   1.874  0.1174 -0.0085  0.1554
  241HK4     H520198   6.220   9.425   1.833 -2.7061 -0.6437  1.4350
  241HK4    C1320199   6.207   9.210   1.836  0.3880 -0.0323 -0.1583
  241HK4     H620200   6.179   9.188   1.732 -0.7195 -2.1459  0.5546
  241HK4     C720201   6.410   9.250   2.210  0.5128  0.6226 -0.8850
  241HK4     O220202   6.452   9.361   2.242  0.4927  0.3453  0.1069
  241HK4     C420203   6.422   9.129   2.294  0.1097  0.8403 -0.5161
  241HK4     C320204   6.445   9.129   2.431  0.2229 -0.4103 -0.5302
  241HK4     H320205   6.440   9.223   2.487 -1.8768 -0.9789  0.2874
  241HK4     C220206   6.495   9.020   2.502  0.4656 -0.0487 -0.1421
  241HK4     H220207   6.493   9.022   2.612 -1.8616  0.4113 -0.1641
  241HK4     C120208   6.527   8.910   2.423  0.4568 -0.0912 -0.0858
  241HK4     H120209   6.568   8.818   2.467  2.5757  1.0590  0.4031
  241HK4     C620210   6.505   8.901   2.284 -0.1019  0.1165 -0.0119
  241HK4     C520211   6.433   9.006   2.226  0.1485  0.4284  0.2385
  241HK4    C1020212   6.346   8.993   2.106  0.4870  0.3130  0.0074
  241HK4     O120213   6.310   8.879   2.077  0.7523  0.1338  0.3794
  241HK4    C1620214   6.579   8.794   2.216 -0.4381 -0.0591 -0.1086
  241HK4    C1520215   6.635   8.679   2.276  0.4302  0.2970 -0.2181
  241HK4     H720216   6.600   8.650   2.376  0.6932 -0.4580 -0.3393
  241HK4    C2020217   6.706   8.579   2.210  0.2272  0.0581 -0.0767
  241HK4     H920218   6.762   8.509   2.270  1.0365  0.2310 -0.6189
  241HK4    C1920219   6.728   8.594   2.073 -0.4195 -0.6445 -0.2622
  241HK4    C1820220   6.663   8.704   2.005  0.4688  0.0455 -0.0060
  241HK4    C1720221   6.602   8.804   2.080 -0.5900 -0.4719 -0.1639
  241HK4     H820222   6.568   8.894   2.030 -0.6486 -0.1542  0.4456
  241HK4     N120223   6.678   8.694   1.865  0.1790  0.0878 -0.0412
  241HK4    C2120224   6.761   8.581   1.844 -0.4752 -0.3613 -0.2331
  241HK4    C2220225   6.789   8.513   1.969  0.4474 -0.0136 -0.2479
  241HK4    C2620226   6.864   8.397   1.976 -0.4950 -0.6346 -0.3086
  241HK4    H1320227   6.879   8.348   2.072  0.6514 -0.7839 -0.5468
  241HK4    C2520228   6.923   8.350   1.859  0.8374  0.8245 -0.2465
  241HK4    H1220229   7.001   8.275   1.871 -1.9150 -2.0299  0.6014
  241HK4    C2420230   6.896   8.407   1.735 -0.1002 -0.0496 -0.4525
  241HK4    H1120231   6.934   8.363   1.642  2.6450 -1.9639  1.4919
  241HK4    C2320232   6.818   8.522   1.732  0.0141  0.0373 -0.1990
  241HK4    H1020233   6.773   8.546   1.636  0.5251  0.4114 -0.3459
  241HK4    C3920234   6.603   8.760   1.767 -0.1308 -0.0967  0.0747
  241HK4    C4120235   6.659   8.784   1.640 -0.3127  0.0370  0.0190
  241HK4    H2120236   6.769   8.785   1.635 -0.2846 -1.0129  0.2316
  241HK4    C4220237   6.581   8.853   1.548  0.0569  0.1700 -0.1948
  241HK4    H2220238   6.625   8.854   1.447  1.4082  1.4005  0.3877
  241HK4    C4320239   6.451   8.896   1.569  0.2291  0.5143  0.1874
  241HK4    H2320240   6.387   8.943   1.494  1.7111  0.4392 -1.1377
  241HK4    C4420241   6.396   8.872   1.694  0.3905  0.3290  0.2232
  241HK4    H2420242   6.291   8.898   1.718 -0.3967 -1.5509 -1.0160
  241HK4    C4520243   6.470   8.803   1.789 -0.2220 -0.4189  0.1642
  241HK4    H2520244   6.415   8.764   1.876 -0.1751 -1.4442 -0.2570
  242HK4    H2820245   6.412   4.420   3.043  1.0632  0.6763  2.1494
  242HK4    C4820246   6.378   4.522   3.023  0.0385 -0.0357  0.0662
  242HK4    C4720247   6.414   4.586   2.905  0.0235 -0.0436  0.0566
  242HK4    H2720248   6.489   4.548   2.834  2.3997  1.2043  1.8446
  242HK4    C4620249   6.366   4.714   2.880 -0.0005 -0.0584  0.0246
  242HK4    H2620250   6.390   4.759   2.782 -0.9642 -2.0583 -1.1655
  242HK4    C4020251   6.278   4.782   2.966  0.0685  0.3292 -0.2081
  242HK4    C5020252   6.224   4.707   3.073  0.3845  0.0477 -0.2394
  242HK4    H3020253   6.135   4.736   3.131  0.2936  1.1867 -0.9186
  242HK4    C4920254   6.274   4.580   3.095 -0.1382 -0.1367 -0.1069
  242HK4    H2920255   6.225   4.522   3.175 -2.0284  2.1083  0.4327
  242HK4     N220256   6.226   4.911   2.950 -0.6955  0.0667  0.1211
  242HK4    C3020257   6.217   4.979   2.827 -0.4864 -0.2160 -0.0525
  242HK4    C2920258   6.216   4.929   2.697 -0.3244  0.1184 -0.1830
  242HK4    H1520259   6.225   4.821   2.685 -1.0308  0.1703 -1.2375
  242HK4    C2820260   6.189   5.009   2.586  0.4105  0.3737 -0.1751
  242HK4    C2720261   6.147   5.141   2.611 -0.2764  0.1202  0.0249
  242HK4    H1420262   6.083   5.184   2.533 -1.7138 -2.6727 -0.4245
  242HK4    C3220263   6.146   5.196   2.739 -0.5725 -0.0773  0.1085
  242HK4    H1620264   6.138   5.304   2.749  0.2762  0.0436 -0.4177
  242HK4    C3120265   6.184   5.119   2.848 -1.0209 -0.3587  0.0636
  242HK4    C3420266   6.179   5.141   2.991 -0.0972  0.0757  0.0262
  242HK4    C3320267   6.200   5.009   3.047  0.0695  0.1825  0.2152
  242HK4    C3520268   6.193   5.008   3.186 -0.1324 -0.1955  0.2010
  242HK4    H1720269   6.221   4.915   3.236  0.4367 -0.2988 -0.2904
  242HK4    C3620270   6.175   5.125   3.259  0.3160  0.3347 -0.5319
  242HK4    H1820271   6.189   5.122   3.368  0.4812  1.3483 -0.5259
  242HK4    C3720272   6.169   5.252   3.204  0.0283  0.6447  0.2187
  242HK4    H1920273   6.133   5.337   3.263 -0.7952  0.1561  0.4370
  242HK4    C3820274   6.171   5.259   3.065  0.2813  0.0011  0.1897
  242HK4    H2020275   6.187   5.348   3.005  0.6692  0.3614  0.8269
  242HK4    C1420276   6.227   4.968   2.450  0.0466 -0.1377 -0.1240
  242HK4     C920277   6.260   5.063   2.353 -0.2407  0.2958  0.1972
  242HK4     C820278   6.215   5.042   2.221 -0.4012  0.4558  0.2273
  242HK4    C1120279   6.155   4.922   2.184  0.1960 -0.0464  0.8873
  242HK4     H420280   6.109   4.904   2.086  0.6030  2.2664  0.2414
  242HK4    C1220281   6.140   4.822   2.279  0.2200 -0.4256  0.4914
  242HK4     H520282   6.104   4.722   2.250  1.7448 -0.2799 -2.0457
  242HK4    C1320283   6.169   4.845   2.413  0.5921 -0.5639  0.4343
  242HK4     H620284   6.118   4.786   2.491 -1.8432  0.5250 -0.3127
  242HK4     C720285   6.256   5.134   2.112 -0.0818  0.1832  0.1154
  242HK4     O220286   6.200   5.129   2.003  0.2380 -0.2611 -0.0268
  242HK4     C420287   6.365   5.231   2.135  0.0376  0.0722  0.0061
  242HK4     C320288   6.426   5.295   2.027 -0.1224  0.1164 -0.0596
  242HK4     H320289   6.387   5.286   1.925  1.8663  1.1620 -0.9317
  242HK4     C220290   6.523   5.391   2.051  0.2110 -0.1602 -0.2980
  242HK4     H220291   6.598   5.419   1.975  1.7784 -0.9848  0.9135
  242HK4     C120292   6.546   5.430   2.183  0.2188 -0.5179 -0.1914
  242HK4     H120293   6.601   5.525   2.193 -1.8622  1.0045 -2.4876
  242HK4     C620294   6.479   5.373   2.293  0.3535 -0.3099 -0.0015
  242HK4     C520295   6.397   5.263   2.269 -0.0315 -0.0354  0.0480
  242HK4    C1020296   6.363   5.168   2.379 -0.2041  0.2492  0.2408
  242HK4     O120297   6.450   5.134   2.458 -0.2768  0.4260  0.3975
  242HK4    C1620298   6.503   5.435   2.424 -0.3425  0.4204 -0.2106
  242HK4    C1520299   6.411   5.427   2.531  0.2679  0.0002  0.2944
  242HK4     H720300   6.342   5.344   2.551 -1.6349  0.6150 -3.1475
  242HK4    C2020301   6.424   5.512   2.640 -0.2969 -0.0330  0.3886
  242HK4     H920302   6.342   5.506   2.711 -2.0507 -0.1761 -1.5928
  242HK4    C1920303   6.530   5.599   2.660 -0.1746 -0.0824 -0.0351
  242HK4    C1820304   6.636   5.591   2.561 -0.6427  0.6007 -0.5962
  242HK4    C1720305   6.616   5.511   2.449 -0.1860  0.2655 -0.4391
  242HK4     H820306   6.697   5.497   2.377  0.2381 -1.9674  0.4114
  242HK4     N120307   6.729   5.696   2.572  0.2392 -0.2196 -0.0803
  242HK4    C2120308   6.675   5.777   2.674 -0.5200  0.3779 -0.9511
  242HK4    C2220309   6.546   5.729   2.722 -0.4245  0.2997 -0.7730
  242HK4    C2620310   6.453   5.821   2.769 -0.1061  0.1148  0.2341
  242HK4    H1320311   6.354   5.788   2.799 -0.1025  0.2208  0.3656
  242HK4    C2520312   6.482   5.957   2.776 -0.1172  0.1099  0.3939
  242HK4    H1220313   6.413   6.032   2.813 -0.3986 -1.8964  4.1768
  242HK4    C2420314   6.612   5.998   2.748  0.0489 -0.2813  0.5952
  242HK4    H1120315   6.648   6.101   2.763 -0.0265 -0.3733  1.4116
  242HK4    C2320316   6.708   5.909   2.700  0.0276  0.0773 -0.1205
  242HK4    H1020317   6.814   5.935   2.698  0.0447 -0.0265 -0.5162
  242HK4    C3920318   6.867   5.683   2.555  0.2021 -0.5330 -0.1579
  242HK4    C4120319   6.950   5.797   2.539 -0.1770 -0.2256  0.0849
  242HK4    H2120320   6.909   5.888   2.494  0.0504 -0.2598 -0.1900
  242HK4    C4220321   7.084   5.804   2.575 -0.0792 -0.1185 -0.3018
  242HK4    H2220322   7.131   5.904   2.583 -1.6929  0.8055 -1.8829
  242HK4    C4320323   7.143   5.692   2.631 -0.3269 -0.1531 -0.1068
  242HK4    H2320324   7.249   5.689   2.656 -0.6276 -1.1880  1.0968
  242HK4    C4420325   7.072   5.573   2.639 -0.5735 -0.0192 -0.3224
  242HK4    H2420326   7.118   5.478   2.669 -3.5068 -1.4075 -0.0363
  242HK4    C4520327   6.937   5.572   2.607 -0.6943 -0.9387  0.1757
  242HK4    H2520328   6.884   5.476   2.599  0.6694 -1.5107 -2.6360
  243HK4    H2820329   2.334  10.118   4.880  0.1249 -1.9954 -0.3697
  243HK4    C4820330   2.254  10.102   4.952 -0.5234  0.5313 -0.4706
  243HK4    C4720331   2.135  10.046   4.906 -0.4978 -0.4261  0.6005
  243HK4    H2720332   2.133  10.013   4.801 -1.3368  0.3414  0.3625
  243HK4    C4620333   2.030  10.016   4.993 -1.0448  0.4291  0.2369
  243HK4    H2620334   1.938   9.985   4.941 -0.4941  0.7790 -0.9731
  243HK4    C4020335   2.044  10.033   5.132 -0.1363  0.8817  0.1019
  243HK4    C5020336   2.165  10.088   5.178  0.1208  0.3828  0.0301
  243HK4    H3020337   2.191  10.062   5.282 -1.6516 -0.1613  0.3533
  243HK4    C4920338   2.267  10.121   5.089 -0.1540  0.0051 -0.4290
  243HK4    H2920339   2.368  10.158   5.113 -1.3104  1.6032  2.2281
  243HK4     N220340   1.943   9.998   5.223  0.3216 -0.2378  0.1890
  243HK4    C3020341   1.925  10.064   5.347 -0.7228  0.0819 -0.1302
  243HK4    C2920342   1.962  10.187   5.400 -0.1939 -0.2758  0.3453
  243HK4    H1520343   2.053  10.227   5.355 -1.1974 -0.2678 -1.7449
  243HK4    C2820344   1.912  10.241   5.518  0.2143 -0.2973  0.5269
  243HK4    C2720345   1.811  10.172   5.587  0.1274  0.0326  0.7307
  243HK4    H1420346   1.755  10.225   5.666 -0.6426 -2.1222  1.6896
  243HK4    C3220347   1.768  10.048   5.541  0.3244  0.1446  0.2435
  243HK4    H1620348   1.712   9.985   5.611  3.1522 -0.6933  1.8147
  243HK4    C3120349   1.823   9.997   5.424 -0.6909 -0.0131 -0.1703
  243HK4    C3420350   1.777   9.889   5.339  0.4784 -0.5498 -0.1320
  243HK4    C3320351   1.852   9.891   5.215  0.3109 -0.1991 -0.2291
  243HK4    C3520352   1.805   9.810   5.113  0.2465 -0.4298 -0.0163
  243HK4    H1720353   1.858   9.802   5.018 -0.0841  2.7901 -0.5126
  243HK4    C3620354   1.699   9.721   5.130 -0.2369  0.0072 -0.7350
  243HK4    H1820355   1.667   9.670   5.038 -2.3560 -2.5254  1.3332
  243HK4    C3720356   1.638   9.716   5.254  0.7314 -0.3816 -0.2666
  243HK4    H1920357   1.575   9.631   5.282 -1.4050  0.5053 -2.2000
  243HK4    C3820358   1.677   9.796   5.361  0.2173 -0.2751 -0.1567
  243HK4    H2020359   1.650   9.765   5.463  0.7093  0.8810  0.3274
  243HK4    C1420360   1.974  10.357   5.585  0.4401 -0.0141 -0.1724
  243HK4     C920361   1.968  10.385   5.722 -0.0413 -0.0612 -0.1830
  243HK4     C820362   1.962  10.514   5.777  0.0346  0.0248 -0.3678
  243HK4    C1120363   1.972  10.619   5.686  0.4966  0.2228 -0.0869
  243HK4     H420364   1.939  10.717   5.723  1.5079  0.3177  0.6005
  243HK4    C1220365   1.998  10.597   5.552 -0.2034  0.1247 -0.2096
  243HK4     H520366   2.044  10.681   5.498 -1.2862  0.8433 -0.0153
  243HK4    C1320367   2.000  10.467   5.501 -0.1639  0.1155 -0.1879
  243HK4     H620368   2.025  10.450   5.396 -0.7308  0.1092 -0.3232
  243HK4     C720369   1.951  10.537   5.923 -0.7742  0.0373 -0.4240
  243HK4     O220370   1.976  10.651   5.964 -0.0833 -0.0303 -0.6403
  243HK4     C420371   1.926  10.418   6.007 -0.8963 -0.0320 -0.5580
  243HK4     C320372   1.909  10.443   6.143  0.3599 -0.4124 -0.3252
  243HK4     H320373   1.868  10.543   6.164  0.0244  0.0492 -2.9489
  243HK4     C220374   1.907  10.343   6.239  0.1457  0.0165  0.1170
  243HK4     H220375   1.899  10.370   6.345  1.3932  0.3358  0.1359
  243HK4     C120376   1.905  10.214   6.186  0.5027 -0.2292  0.6906
  243HK4     H120377   1.920  10.134   6.260 -0.3123  0.4495  1.6064
  243HK4     C620378   1.910  10.183   6.049 -0.3025  0.1135  0.5775
  243HK4     C520379   1.941  10.286   5.959 -0.5272 -0.2258  0.0994
  243HK4    C1020380   1.985  10.272   5.818 -0.3511  0.1457  0.1158
  243HK4     O120381   2.077  10.192   5.803 -0.1711  0.3367  0.2228
  243HK4    C1620382   1.837  10.061   6.011  0.0421  0.0645  0.0635
  243HK4    C1520383   1.749   9.996   6.100  0.2635 -0.5183 -0.1381
  243HK4     H720384   1.701  10.061   6.175 -0.5904 -0.3584 -0.8138
  243HK4    C2020385   1.706   9.865   6.085 -0.3007 -0.4280  0.6434
  243HK4     H920386   1.638   9.817   6.156 -0.5229  1.0906  1.4848
  243HK4    C1920387   1.743   9.799   5.968 -0.1782 -0.0935  0.4929
  243HK4    C1820388   1.836   9.855   5.872  0.1196 -0.2940  0.6615
  243HK4    C1720389   1.868   9.988   5.897  0.4621 -0.3312  0.4248
  243HK4     H820390   1.893  10.043   5.806  2.4185  0.2391  1.2892
  243HK4     N120391   1.862   9.764   5.768 -0.3713  0.2985  0.0103
  243HK4    C2120392   1.793   9.646   5.802  0.0861  0.0865  0.2204
  243HK4    C2220393   1.717   9.664   5.924 -0.5397  0.1913 -0.1771
  243HK4    C2620394   1.658   9.558   5.993 -0.0637 -0.1135 -0.2298
  243HK4    H1320395   1.607   9.582   6.086  1.4960 -1.5017  1.0179
  243HK4    C2520396   1.663   9.431   5.937  0.0299 -0.1250 -0.1979
  243HK4    H1220397   1.588   9.357   5.965 -0.3009  0.0591 -0.5942
  243HK4    C2420398   1.736   9.411   5.820  0.3182  0.1535 -0.0637
  243HK4    H1120399   1.737   9.310   5.777 -0.5424 -1.2776  3.0910
  243HK4    C2320400   1.802   9.515   5.756 -0.0305  0.2496 -0.2695
  243HK4    H1020401   1.839   9.507   5.653  0.9535 -1.0449  0.1728
  243HK4    C3920402   1.969   9.783   5.680 -0.3126  0.1495  0.0478
  243HK4    C4120403   1.978   9.708   5.561  0.1876  0.1465  0.0833
  243HK4    H2120404   1.886   9.676   5.508  1.7739  0.0775 -2.7115
  243HK4    C4220405   2.094   9.709   5.485  0.1364  0.4695  0.0094
  243HK4    H2220406   2.118   9.642   5.401 -0.7429 -0.9050  0.8400
  243HK4    C4320407   2.202   9.789   5.517  0.2676  0.4125 -0.2909
  243HK4    H2320408   2.279   9.819   5.446  1.5140  1.3341  1.3863
  243HK4    C4420409   2.194   9.861   5.636 -0.3592  0.4825 -0.3773
  243HK4    H2420410   2.268   9.937   5.664 -0.3726 -0.1008  1.2568
  243HK4    C4520411   2.083   9.857   5.720 -0.1782  0.0574 -0.1623
  243HK4    H2520412   2.087   9.900   5.821  0.5099  0.5711 -0.4061
  244HK4    H2820413   1.927   1.436  11.247  0.6419 -0.1149  0.7899
  244HK4    C4820414   1.853   1.358  11.231  0.3634  0.3021 -0.0117
  244HK4    C4720415   1.743   1.372   0.068  0.1862 -0.2685 -0.1465
  244HK4    H2720416   1.748   1.425   0.164 -4.7517 -0.2393  0.1785
  244HK4    C4620417   1.620   1.326   0.023 -0.0194 -0.1466  0.2924
  244HK4    H2620418   1.532   1.354   0.083  0.2295  4.5219 -1.2646
  244HK4    C4020419   1.601   1.259  11.148 -0.4013  0.4924  0.0002
  244HK4    C5020420   1.716   1.234  11.071 -0.1981  0.7714  0.2139
  244HK4    H3020421   1.719   1.167  10.984  0.9751  1.8198 -0.5939
  244HK4    C4920422   1.839   1.283  11.114  0.1659 -0.2688  0.3748
  244HK4    H2920423   1.916   1.259  11.040 -0.4006  0.6955 -0.5501
  244HK4     N220424   1.475   1.275  11.089 -0.3981  0.1405 -0.1042
  244HK4    C3020425   1.422   1.187  10.993  0.0779 -0.3582  0.0901
  244HK4    C2920426   1.418   1.048  10.993 -0.0734 -0.3538  0.8823
  244HK4    H1520427   1.477   0.999  11.071  2.5403 -1.9257 -1.9973
  244HK4    C2820428   1.342   0.967  10.910  0.2328 -0.1155  0.3726
  244HK4    C2720429   1.255   1.035  10.821  0.2656  0.0648  0.4772
  244HK4    H1420430   1.193   0.973  10.755  3.1667 -0.2412 -2.0787
  244HK4    C3220431   1.249   1.174  10.815 -0.2101  0.0323  0.1930
  244HK4    H1620432   1.154   1.216  10.782  0.0073 -1.8626 -3.1168
  244HK4    C3120433   1.335   1.248  10.895 -0.2430 -0.2182  0.4614
  244HK4    C3420434   1.334   1.387  10.937  0.4631  0.0265 -0.3117
  244HK4    C3320435   1.420   1.400  11.052  0.5327  0.4611 -0.4056
  244HK4    C3520436   1.437   1.522  11.115  0.4458  0.2641  0.0006
  244HK4    H1720437   1.513   1.545  11.191  4.4671 -2.3682 -2.9902
  244HK4    C3620438   1.367   1.630  11.063  0.1881  0.0770 -0.0382
  244HK4    H1820439   1.406   1.728  11.095  1.0606  0.1745 -1.3363
  244HK4    C3720440   1.285   1.624  10.951 -0.6986 -0.0341  0.6108
  244HK4    H1920441   1.216   1.701  10.919 -2.1124 -1.2819  0.5948
  244HK4    C3820442   1.274   1.502  10.885 -0.1132  0.0359  0.3741
  244HK4    H2020443   1.215   1.485  10.795  1.6594  2.2249 -1.2490
  244HK4    C1420444   1.354   0.821  10.901 -0.1682 -0.1407  0.2005
  244HK4     C920445   1.327   0.751  10.783  0.0192  0.2638 -0.0852
  244HK4     C820446   1.247   0.635  10.789  0.0443  0.2383 -0.2387
  244HK4    C1120447   1.225   0.579  10.914 -0.6219  0.4027 -0.2767
  244HK4     H420448   1.153   0.497  10.925  0.4564 -0.7553 -1.7410
  244HK4    C1220449   1.276   0.635  11.031 -0.1583  0.0606 -0.3147
  244HK4     H520450   1.270   0.586  11.130  2.3442 -1.9930 -1.1073
  244HK4    C1320451   1.326   0.764  11.026  0.0172  0.0166  0.3132
  244HK4     H620452   1.362   0.806  11.122 -0.3969 -0.6212  0.7541
  244HK4     C720453   1.201   0.562  10.669 -0.1289 -0.2150  0.1050
  244HK4     O220454   1.143   0.454  10.681 -0.0282 -0.2556  0.2211
  244HK4     C420455   1.231   0.624  10.538 -0.2529  0.4859  0.4034
  244HK4     C320456   1.174   0.575  10.421 -0.3334  0.2780  0.5288
  244HK4     H320457   1.103   0.491  10.422  0.7711 -0.6764  0.0408
  244HK4     C220458   1.232   0.604  10.298 -0.2280 -0.0923  0.4908
  244HK4     H220459   1.178   0.561  10.212  0.8896 -1.5529  0.5110
  244HK4     C120460   1.357   0.664  10.289  0.0827 -0.8217 -0.1444
  244HK4     H120461   1.427   0.651  10.205  3.2904 -0.4861  2.4039
  244HK4     C620462   1.417   0.713  10.407 -0.0017 -0.3869 -0.2802
  244HK4     C520463   1.348   0.703  10.528 -0.7004  1.0431 -0.5399
  244HK4    C1020464   1.384   0.782  10.649  0.3184 -0.1406 -0.0518
  244HK4     O120465   1.458   0.881  10.649  0.1765 -0.0360  0.2903
  244HK4    C1620466   1.561   0.739  10.403 -0.0326 -0.1770 -0.0329
  244HK4    C1520467   1.624   0.775  10.282  0.5469  0.4409  0.4440
  244HK4     H720468   1.559   0.815  10.203 -1.3172 -0.2165  1.5861
  244HK4    C2020469   1.760   0.769  10.257  0.3392 -0.3402 -0.5330
  244HK4     H920470   1.798   0.785  10.156  2.3784  2.9243  0.6707
  244HK4    C1920471   1.846   0.736  10.361  0.0979 -0.5377 -0.3970
  244HK4    C1820472   1.785   0.699  10.488  0.0425  0.4354 -0.1317
  244HK4    C1720473   1.647   0.693  10.502  0.0753  0.6795  0.2743
  244HK4     H820474   1.608   0.646  10.593 -1.1167 -1.2365 -1.2055
  244HK4     N120475   1.884   0.672  10.585 -0.0325  0.2749 -0.1003
  244HK4    C2120476   2.008   0.676  10.519  0.0925 -0.1593  0.1098
  244HK4    C2220477   1.989   0.727  10.385  0.0397  0.3055  0.2927
  244HK4    C2620478   2.097   0.766  10.307 -0.1921  0.5218  0.0759
  244HK4    H1320479   2.072   0.833  10.226 -1.2451  1.1634  0.9183
  244HK4    C2520480   2.228   0.750  10.351 -0.1401  0.5030 -0.0842
  244HK4    H1220481   2.318   0.778  10.296  0.7622 -1.1768  0.4907
  244HK4    C2420482   2.244   0.695  10.478 -0.3389 -0.1723 -0.3453
  244HK4    H1120483   2.344   0.683  10.521 -1.2175 -2.0665  1.2225
  244HK4    C2320484   2.139   0.658  10.562  0.0719 -0.1637  0.1698
  244HK4    H1020485   2.159   0.641  10.668 -1.9738 -1.6232  0.3463
  244HK4    C3920486   1.874   0.693  10.723 -0.3161  0.1086 -0.0933
  244HK4    C4120487   1.959   0.634  10.818 -0.0881  0.0979 -0.3039
  244HK4    H2120488   1.985   0.529  10.798  0.2124 -0.1556  1.3216
  244HK4    C4220489   1.974   0.687  10.946  0.1772  0.2734 -0.4102
  244HK4    H2220490   2.031   0.627  11.019  1.0588  0.5549 -0.8646
  244HK4    C4320491   1.908   0.803  10.984 -0.4466 -0.2103 -0.0049
  244HK4    H2320492   1.924   0.850  11.082  0.1076 -1.1201  0.3513
  244HK4    C4420493   1.828   0.869  10.892  0.0362  0.9134  0.3698
  244HK4    H2420494   1.788   0.969  10.917 -0.0056  1.5767 -2.2009
  244HK4    C4520495   1.811   0.812  10.766  0.5394  0.3272  0.5632
  244HK4    H2520496   1.738   0.862  10.700  1.1188  1.5445  0.8219
  245HK4    H2820497   5.174   7.080   8.099  0.3216 -3.9551  2.4571
  245HK4    C4820498   5.066   7.081   8.109  0.0069 -0.2491 -0.4873
  245HK4    C4720499   5.004   7.016   8.215  0.3426  0.0176 -0.1215
  245HK4    H2720500   5.064   6.933   8.253 -0.0095 -1.3958 -2.5363
  245HK4    C4620501   4.869   7.012   8.249  0.2831  0.0085 -0.3625
  245HK4    H2620502   4.837   6.967   8.344  1.4634 -1.5363 -0.6714
  245HK4    C4020503   4.779   7.079   8.163  0.0178  0.2729  0.1228
  245HK4    C5020504   4.842   7.150   8.059  0.4922  0.1291  0.3076
  245HK4    H3020505   4.787   7.211   7.986  0.3747  1.2700  1.3328
  245HK4    C4920506   4.978   7.154   8.029  0.3997  0.7054 -0.0576
  245HK4    H2920507   5.015   7.196   7.934 -2.2136  0.7583 -1.0866
  245HK4     N220508   4.640   7.061   8.163  0.0607 -0.0475 -0.4693
  245HK4    C3020509   4.573   6.945   8.206 -0.1490  0.2923  0.1250
  245HK4    C2920510   4.622   6.821   8.243 -0.1006  0.0760 -0.6548
  245HK4    H1520511   4.729   6.800   8.234 -0.5240 -2.6196  0.2170
  245HK4    C2820512   4.534   6.715   8.262  0.0572  0.0281 -0.1744
  245HK4    C2720513   4.396   6.738   8.245  0.0380  0.2637  0.3247
  245HK4    H1420514   4.330   6.651   8.238 -1.0664  1.1457 -0.5305
  245HK4    C3220515   4.339   6.862   8.216 -0.1377  0.1003 -0.0300
  245HK4    H1620516   4.233   6.882   8.229 -0.3928 -0.2148 -1.5706
  245HK4    C3120517   4.430   6.966   8.203 -0.1680  0.0700 -0.4769
  245HK4    C3420518   4.412   7.100   8.149 -0.0029  0.1736 -0.2789
  245HK4    C3320519   4.543   7.160   8.134  0.0761 -0.0690 -0.5931
  245HK4    C3520520   4.552   7.287   8.078  0.2457 -0.0767 -0.5838
  245HK4    H1720521   4.642   7.344   8.100 -0.2223 -0.0182  1.3187
  245HK4    C3620522   4.440   7.350   8.024  0.0247  0.3856  0.3950
  245HK4    H1820523   4.443   7.449   7.976  0.9829 -1.0763 -2.7291
  245HK4    C3720524   4.315   7.291   8.033  0.0770  0.2669  0.3210
  245HK4    H1920525   4.232   7.346   7.988  1.2194  2.1477  0.4663
  245HK4    C3820526   4.302   7.168   8.098 -0.0883 -0.2178 -0.6217
  245HK4    H2020527   4.204   7.132   8.128  0.8133 -0.8477  1.6292
  245HK4    C1420528   4.588   6.579   8.279 -0.4563 -0.1698 -0.1264
  245HK4     C920529   4.513   6.467   8.239 -0.9121  0.0037  0.2408
  245HK4     C820530   4.518   6.351   8.320  0.8792 -0.3966 -0.4301
  245HK4    C1120531   4.605   6.343   8.428  0.8801  0.1381 -0.3847
  245HK4     H420532   4.604   6.248   8.484 -0.5082  0.7550  0.6445
  245HK4    C1220533   4.695   6.445   8.457  0.6488  0.3716 -0.4975
  245HK4     H520534   4.732   6.444   8.561 -2.7249  0.7195  0.7674
  245HK4    C1320535   4.684   6.560   8.380 -0.2100  0.4644 -0.2404
  245HK4     H620536   4.727   6.652   8.422  0.1175  0.8710 -1.4547
  245HK4     C720537   4.456   6.225   8.273 -0.3510 -0.0437  0.2352
  245HK4     O220538   4.385   6.165   8.352 -0.8077  0.0907 -0.0706
  245HK4     C420539   4.424   6.207   8.129 -0.0775  0.1196  0.1511
  245HK4     C320540   4.366   6.089   8.083 -0.1969  0.1180  0.3052
  245HK4     H320541   4.343   6.008   8.154  0.2199 -0.0478  0.2526
  245HK4     C220542   4.339   6.065   7.949  0.3739 -0.1026  0.2300
  245HK4     H220543   4.303   5.968   7.911  1.9933  0.0143 -1.6745
  245HK4     C120544   4.360   6.167   7.857 -0.5108  0.2832  0.4457
  245HK4     H120545   4.351   6.135   7.752 -1.9799  1.0699  0.3245
  245HK4     C620546   4.430   6.282   7.898  0.0895  0.1886 -0.2723
  245HK4     C520547   4.444   6.309   8.035  0.3230 -0.2847 -0.2032
  245HK4    C1020548   4.472   6.441   8.099  0.2149 -0.3458 -0.0284
  245HK4     O120549   4.440   6.538   8.030  0.7848  0.1240  0.3633
  245HK4    C1620550   4.496   6.359   7.792  0.0791  0.3139 -0.1888
  245HK4    C1520551   4.453   6.357   7.658 -0.8146  0.0546  0.0984
  245HK4     H720552   4.344   6.357   7.647 -0.9361 -0.3075  1.3401
  245HK4    C2020553   4.537   6.379   7.549 -0.6408  0.8008  0.3794
  245HK4     H920554   4.502   6.373   7.446 -2.6911  2.4498  0.9321
  245HK4    C1920555   4.665   6.419   7.585 -0.1706 -0.2461 -0.1053
  245HK4    C1820556   4.713   6.432   7.722  0.0459  0.3959 -0.2452
  245HK4    C1720557   4.626   6.395   7.824  0.0304  0.5139 -0.2156
  245HK4     H820558   4.670   6.379   7.923 -0.8476  1.5691  0.3524
  245HK4     N120559   4.847   6.477   7.724  0.3671 -0.5621 -0.0027
  245HK4    C2120560   4.882   6.501   7.590  0.0591  0.1681  0.0446
  245HK4    C2220561   4.777   6.455   7.501 -0.1518  0.3791  0.1861
  245HK4    C2620562   4.795   6.457   7.363 -0.0953  0.0667  0.1916
  245HK4    H1320563   4.711   6.411   7.310 -0.0774 -0.9529  1.0124
  245HK4    C2520564   4.911   6.507   7.304 -0.1380  0.4183  0.4065
  245HK4    H1220565   4.907   6.529   7.198 -1.5351 -0.3879  0.2776
  245HK4    C2420566   5.017   6.548   7.385  0.7242 -0.3805 -0.3127
  245HK4    H1120567   5.105   6.585   7.331  1.0266 -1.2221 -0.4004
  245HK4    C2320568   4.996   6.544   7.522 -0.0105 -0.3745 -0.4216
  245HK4    H1020569   5.076   6.581   7.585 -1.9030  0.9080  1.3165
  245HK4    C3920570   4.894   6.562   7.825 -0.5500 -0.0194 -0.0185
  245HK4    C4120571   5.035   6.567   7.835 -0.5253 -0.1025 -0.3224
  245HK4    H2120572   5.096   6.479   7.813 -0.0693 -0.2272  1.3778
  245HK4    C4220573   5.100   6.682   7.878 -0.2262 -0.5063  0.2968
  245HK4    H2220574   5.210   6.683   7.885 -0.0786 -2.4154 -1.1604
  245HK4    C4320575   5.022   6.783   7.932 -0.3132 -0.5932  0.3313
  245HK4    H2320576   5.067   6.881   7.948 -1.8191  0.2702 -0.6228
  245HK4    C4420577   4.883   6.783   7.934 -0.3218  0.5373 -0.0547
  245HK4    H2420578   4.841   6.884   7.951 -2.2459 -0.2994  0.3521
  245HK4    C4520579   4.823   6.671   7.879  0.0080 -0.0231  0.7280
  245HK4    H2520580   4.714   6.672   7.892  0.0961 -1.0372  1.7030
  246HK4    H2820581   9.010   6.821  10.744  1.1790 -3.2391  0.5677
  246HK4    C4820582   8.971   6.834  10.844  0.3534 -0.0004 -0.1373
  246HK4    C4720583   8.853   6.907  10.861 -0.1651 -0.8815  0.0533
  246HK4    H2720584   8.814   6.963  10.775 -1.9833  0.1362  1.5070
  246HK4    C4620585   8.808   6.947  10.987 -0.3636 -0.0779 -0.2698
  246HK4    H2620586   8.704   6.982  10.995  0.4466  1.6230  3.6634
  246HK4    C4020587   8.873   6.905  11.105 -0.3394 -0.0452 -0.2725
  246HK4    C5020588   8.990   6.830  11.082  0.1982  0.7270 -0.0866
  246HK4    H3020589   9.052   6.798  11.167  0.3464  2.8639  0.6581
  246HK4    C4920590   9.039   6.793  10.958 -0.0325 -0.0873  0.0661
  246HK4    H2920591   9.138   6.744  10.952  0.1079  0.1238  0.6196
  246HK4     N220592   8.859   6.988  11.217 -0.6824 -0.2187 -0.1846
  246HK4    C3020593   8.829   7.126  11.225  0.1801 -0.0232 -0.2794
  246HK4    C2920594   8.836   7.227  11.129  0.0343 -0.0984 -0.3679
  246HK4    H1520595   8.890   7.218  11.035  1.0621 -2.4824  0.4107
  246HK4    C2820596   8.792   7.354  11.162 -0.2487 -0.2793 -0.0291
  246HK4    C2720597   8.736   7.384   0.039 -0.2719  0.0752 -0.1209
  246HK4    H1420598   8.678   7.474   0.063 -1.4696 -1.1491  1.7400
  246HK4    C3220599   8.729   7.284   0.136  0.0219 -0.1437 -0.3261
  246HK4    H1620600   8.658   7.295   0.218 -0.1195 -1.2202 -0.2920
  246HK4    C3120601   8.775   7.156   0.108  0.5088 -0.0102 -0.1460
  246HK4    C3420602   8.779   7.033   0.185  1.4090  0.4176  0.4935
  246HK4    C3320603   8.831   6.931   0.095  0.2259  0.0986  0.1727
  246HK4    C3520604   8.826   6.798   0.133  0.9563 -0.0103 -0.1082
  246HK4    H1720605   8.862   6.726   0.060  2.4910  0.3859  0.2375
  246HK4    C3620606   8.783   6.759   0.260  0.4571  0.1936 -0.2127
  246HK4    H1820607   8.781   6.652   0.287 -0.0474 -0.2902 -2.0820
  246HK4    C3720608   8.742   6.859   0.346  0.2097 -0.1214  0.0372
  246HK4    H1920609   8.702   6.825   0.442  2.5850 -1.4590  0.5850
  246HK4    C3820610   8.740   6.994   0.312 -0.9295 -0.2409 -0.3990
  246HK4    H2020611   8.742   7.072   0.388 -0.8952 -1.4928  0.9178
  246HK4    C1420612   8.811   7.470  11.073 -0.1681 -0.2419  0.0398
  246HK4     C920613   8.800   7.604  11.113  0.1050 -0.1153 -0.2935
  246HK4     C820614   8.737   7.698  11.029  0.5932  0.1121 -0.4044
  246HK4    C1120615   8.717   7.668  10.895  0.0903 -0.6281 -0.1673
  246HK4     H420616   8.703   7.744  10.817  0.7357 -1.3550 -1.0001
  246HK4    C1220617   8.740   7.540  10.845 -0.1481 -0.7485  0.0292
  246HK4     H520618   8.700   7.504  10.749  0.1341 -0.4545 -0.1996
  246HK4    C1320619   8.783   7.445  10.937 -0.2032 -0.6790  0.1260
  246HK4     H620620   8.787   7.342  10.898 -0.5192 -0.4399 -0.5478
  246HK4     C720621   8.692   7.824  11.092 -0.0410 -0.2405 -0.1438
  246HK4     O220622   8.616   7.896  11.026 -0.0218 -0.3735 -0.3159
  246HK4     C420623   8.732   7.855  11.231 -0.0307  0.0278 -0.2085
  246HK4     C320624   8.667   7.956   0.053 -0.0645  0.2093 -0.5008
  246HK4     H320625   8.588   8.019   0.009 -0.8108  0.9933  1.8679
  246HK4     C220626   8.706   7.985   0.184  0.2925  0.1518 -0.5928
  246HK4     H220627   8.652   8.054   0.250  0.6456 -0.8227  0.7236
  246HK4     C120628   8.822   7.926   0.233 -0.0689 -0.4463 -0.4426
  246HK4     H120629   8.845   7.961   0.334  1.6666  1.0120 -1.3193
  246HK4     C620630   8.901   7.835   0.160  0.3855 -0.0992 -0.3867
  246HK4     C520631   8.842   7.789   0.041 -0.0297  0.0154 -0.2271
  246HK4    C1020632   8.878   7.659  11.227  0.2122  0.2236 -0.5298
  246HK4     O120633   8.989   7.608  11.241  0.3321  0.6900  0.2584
  246HK4    C1620634   9.021   7.784   0.228  0.1219 -0.3555 -0.1173
  246HK4    C1520635   9.023   7.754   0.366 -0.1167  0.6109  0.0990
  246HK4     H720636   8.930   7.762   0.424 -0.8602 -0.6889 -0.8956
  246HK4    C2020637   9.144   7.737   0.432 -0.1182 -0.8479 -0.2619
  246HK4     H920638   9.149   7.729   0.540  1.1500  0.9477 -0.1473
  246HK4    C1920639   9.264   7.745   0.361 -0.0970  0.6875 -0.0656
  246HK4    C1820640   9.260   7.781   0.221 -0.1761 -0.2963 -0.3168
  246HK4    C1720641   9.139   7.808   0.159 -0.1030 -0.5059 -0.5517
  246HK4     H820642   9.138   7.849   0.058  2.7918 -1.2862 -0.9274
  246HK4     N120643   9.394   7.786   0.176 -0.0982 -0.3734 -0.0970
  246HK4    C2120644   9.479   7.741   0.279  0.1853  0.1894 -0.0872
  246HK4    C2220645   9.400   7.707   0.395 -0.1851  0.0885 -0.3698
  246HK4    C2620646   9.449   7.608   0.479 -0.4712  0.4196  0.1878
  246HK4    H1320647   9.399   7.599   0.575 -1.4289 -1.1487 -0.4529
  246HK4    C2520648   9.568   7.538   0.462 -0.6326  0.2362 -0.1688
  246HK4    H1220649   9.598   7.455   0.525 -1.3145 -0.7097 -1.0581
  246HK4    C2420650   9.638   7.566   0.345 -0.2679  0.3097  0.0720
  246HK4    H1120651   9.720   7.501   0.311 -1.5867 -0.5671 -1.4579
  246HK4    C2320652   9.594   7.666   0.259  0.3595  0.4529 -0.0858
  246HK4    H1020653   9.674   7.701   0.193  0.1756 -0.0039 -0.5505
  246HK4    C3920654   9.434   7.799   0.043 -0.3295  0.7517 -0.0651
  246HK4    C4120655   9.566   7.841   0.014 -0.1380  0.2778  0.1311
  246HK4    H2120656   9.624   7.900   0.086  1.7373  0.0997 -1.1923
  246HK4    C4220657   9.629   7.799  11.146 -0.4752 -0.4656  0.2102
  246HK4    H2220658   9.734   7.827  11.127 -0.2779 -1.7848 -0.7193
  246HK4    C4320659   9.567   7.722  11.048  0.1334 -0.1799 -0.4012
  246HK4    H2320660   9.635   7.667  10.982  0.0714 -0.5032 -0.1924
  246HK4    C4420661   9.437   7.682  11.076  0.0864  0.1107 -0.1917
  246HK4    H2420662   9.383   7.620  11.003 -1.1586  2.7893 -1.5873
  246HK4    C4520663   9.371   7.722  11.191  0.2801  0.3775 -0.1722
  246HK4    H2520664   9.264   7.697  11.204  0.6719 -1.9209 -1.1401
  247HK4    H2820665   1.531   2.422   1.751 -0.1969 -0.4953  0.0381
  247HK4    C4820666   1.628   2.422   1.701 -0.0579 -0.0721  0.3083
  247HK4    C4720667   1.718   2.327   1.747 -0.1731 -0.1593  0.3529
  247HK4    H2720668   1.722   2.303   1.855  2.1865 -0.5886  0.1999
  247HK4    C4620669   1.816   2.281   1.660 -0.3216 -0.1825  0.1989
  247HK4    H2620670   1.908   2.238   1.704 -1.4100 -2.2265  0.5613
  247HK4    C4020671   1.813   2.317   1.524 -0.2326 -0.3308  0.1570
  247HK4    C5020672   1.728   2.418   1.476  0.2225 -0.1388 -0.2572
  247HK4    H3020673   1.729   2.453   1.372  0.7506  1.9180  0.4182
  247HK4    C4920674   1.639   2.468   1.571  0.0986 -0.8979  0.0282
  247HK4    H2920675   1.590   2.565   1.553  0.1627 -0.5798  1.5627
  247HK4     N220676   1.890   2.252   1.426 -0.0276  0.3277 -0.1231
  247HK4    C3020677   1.904   2.113   1.412 -0.5396  0.3492 -0.8492
  247HK4    C2920678   1.814   2.013   1.445 -0.3491  0.1018 -1.0752
  247HK4    H1520679   1.761   2.020   1.540 -0.9521  0.0465 -1.3978
  247HK4    C2820680   1.828   1.883   1.396 -0.4468 -0.3439  0.0706
  247HK4    C2720681   1.934   1.857   1.307  0.0228  0.2611  0.4460
  247HK4    H1420682   1.928   1.776   1.233  0.0911  0.4567  0.2227
  247HK4    C3220683   2.032   1.952   1.280  0.5300 -0.3436  0.1652
  247HK4    H1620684   2.122   1.929   1.222  0.4373  1.9104 -0.9114
  247HK4    C3120685   2.021   2.080   1.332 -0.0656 -0.3821  0.1365
  247HK4    C3420686   2.083   2.206   1.295 -0.2570 -0.3516 -0.0830
  247HK4    C3320687   1.998   2.308   1.354  0.5619  0.0027  0.5010
  247HK4    C3520688   2.020   2.441   1.324 -0.1285 -0.1609 -0.7709
  247HK4    H1720689   1.948   2.517   1.354  0.8071  0.5850 -0.3818
  247HK4    C3620690   2.133   2.473   1.249  0.2721  0.3473  0.0432
  247HK4    H1820691   2.166   2.576   1.269 -1.6904  0.9073  0.5470
  247HK4    C3720692   2.214   2.375   1.195  0.0755  0.0299  0.3181
  247HK4    H1920693   2.300   2.409   1.137  1.2089 -1.0236  1.3453
  247HK4    C3820694   2.194   2.240   1.219 -0.2290  0.0423  0.1286
  247HK4    H2020695   2.266   2.165   1.187  1.7704  1.6157  0.8695
  247HK4    C1420696   1.741   1.776   1.447 -0.3816 -0.2144  0.4556
  247HK4     C920697   1.797   1.648   1.449  0.1380  0.0004 -0.1397
  247HK4     C820698   1.726   1.534   1.405  0.2218  0.2120 -0.8300
  247HK4    C1120699   1.590   1.545   1.378  0.1064 -0.2899 -0.4581
  247HK4     H420700   1.530   1.468   1.326 -1.1765  0.0704  0.4767
  247HK4    C1220701   1.530   1.669   1.392  0.2528 -0.1931 -0.6801
  247HK4     H520702   1.422   1.684   1.379  0.4328  0.1388 -1.8568
  247HK4    C1320703   1.601   1.783   1.428 -0.3744 -0.1442  0.4297
  247HK4     H620704   1.548   1.874   1.456 -0.3479 -0.8061  2.7684
  247HK4     C720705   1.796   1.408   1.372 -0.2159 -0.2893  0.1182
  247HK4     O220706   1.730   1.306   1.361 -0.3600 -0.2329  0.4743
  247HK4     C420707   1.944   1.408   1.371 -0.2115 -0.3394  0.5165
  247HK4     C320708   2.011   1.302   1.310 -0.3091  0.4170 -0.9403
  247HK4     H320709   1.956   1.210   1.285  0.1734 -0.2213  0.2876
  247HK4     C220710   2.149   1.309   1.298 -0.2838 -0.0252 -0.9256
  247HK4     H220711   2.205   1.226   1.253 -1.7873 -0.3732 -2.1806
  247HK4     C120712   2.220   1.417   1.350 -0.1855 -0.3914 -0.2916
  247HK4     H120713   2.329   1.403   1.348 -0.4713 -2.7727 -1.9966
  247HK4     C620714   2.156   1.526   1.413  0.0252 -0.3716 -0.1115
  247HK4     C520715   2.016   1.516   1.425  0.0498 -0.3484  0.1898
  247HK4    C1020716   1.941   1.632   1.482  0.2563  0.1663 -0.5727
  247HK4     O120717   1.966   1.664   1.598 -0.3356  0.0061 -0.4009
  247HK4    C1620718   2.240   1.646   1.407 -0.6447  0.0976 -0.2054
  247HK4    C1520719   2.327   1.686   1.303 -0.2537  0.4435  0.2543
  247HK4     H720720   2.302   1.636   1.208 -2.1440  1.3844  0.2255
  247HK4    C2020721   2.403   1.802   1.296  0.4462 -0.0464 -0.3370
  247HK4     H920722   2.471   1.827   1.214 -1.0847  2.8467 -0.7810
  247HK4    C1920723   2.386   1.889   1.403  0.4527 -0.5701  0.0909
  247HK4    C1820724   2.297   1.857   1.514 -0.1931  0.1452 -0.2192
  247HK4    C1720725   2.232   1.734   1.513  0.3080 -0.1227  0.0515
  247HK4     H820726   2.202   1.710   1.615 -2.8349  0.2276 -0.7605
  247HK4     N120727   2.301   1.955   1.616 -0.1261 -0.4806  0.3796
  247HK4    C2120728   2.384   2.058   1.569  0.2334 -0.8032  0.3032
  247HK4    C2220729   2.442   2.016   1.443  0.0561 -0.3912  0.0835
  247HK4    C2620730   2.506   2.116   1.369 -0.3077 -0.0017  0.2932
  247HK4    H1320731   2.554   2.084   1.277 -0.7484  1.2619 -0.3784
  247HK4    C2520732   2.506   2.249   1.409  0.4484  0.0877 -0.0032
  247HK4    H1220733   2.553   2.322   1.344 -1.8324  0.7776 -0.8977
  247HK4    C2420734   2.447   2.287   1.529 -0.2916 -0.0490 -0.3182
  247HK4    H1120735   2.468   2.388   1.567  2.2492 -0.1745 -1.2541
  247HK4    C2320736   2.382   2.192   1.607  0.5830 -0.6278 -0.2852
  247HK4    H1020737   2.352   2.225   1.706 -0.0223  1.3075 -1.0857
  247HK4    C3920738   2.206   1.971   1.718 -0.0177  0.0943  0.3891
  247HK4    C4120739   2.242   2.025   1.843  0.8620  0.2287  0.0876
  247HK4    H2120740   2.350   2.040   1.857  1.0998 -0.1082 -1.3523
  247HK4    C4220741   2.150   2.046   1.946  0.2822  0.8602 -0.5527
  247HK4    H2220742   2.192   2.075   2.043  0.9527  2.7335 -1.3704
  247HK4    C4320743   2.014   2.026   1.929  0.4368 -0.4644 -0.2520
  247HK4    H2320744   1.949   2.046   2.014  2.0341 -0.9477  1.1046
  247HK4    C4420745   1.973   1.978   1.805  0.3033  0.4449 -0.5650
  247HK4    H2420746   1.865   1.971   1.784  0.1477  0.8604  0.0893
  247HK4    C4520747   2.067   1.951   1.707  0.1937 -1.0492 -0.2678
  247HK4    H2520748   2.026   1.905   1.616  2.8615 -1.7079 -1.1806
  248HK4    H2820749   0.232   4.105   1.494  2.4461 -0.0660 -2.3212
  248HK4    C4820750   0.178   4.037   1.428 -0.0759  0.1024 -0.4856
  248HK4    C4720751   0.079   3.959   1.486  0.1742 -0.0526 -0.2685
  248HK4    H2720752   0.052   3.997   1.586  0.2597  2.2250 -1.0722
  248HK4    C4620753   0.017   3.865   1.405 -0.0262 -0.1860  0.0390
  248HK4    H2620754  11.178   3.807   1.442 -1.9123  0.7493 -2.7662
  248HK4    C4020755   0.056   3.837   1.273  0.1015  0.1264  0.0107
  248HK4    C5020756   0.155   3.921   1.218  0.0493  0.0862 -0.1447
  248HK4    H3020757   0.189   3.912   1.113 -0.6103  0.2579 -0.3741
  248HK4    C4920758   0.209   4.025   1.293  0.4963  0.0030 -0.3468
  248HK4    H2920759   0.283   4.096   1.253 -0.4275  0.9988 -0.3088
  248HK4     N220760   0.029   3.710   1.220  0.2859  0.1667 -0.1851
  248HK4    C3020761   0.026   3.595   1.301 -0.0915 -0.0334 -0.4819
  248HK4    C2920762   0.097   3.565   1.416 -0.1327 -0.3363 -0.5344
  248HK4    H1520763   0.172   3.638   1.448  0.3257 -0.9856 -0.1011
  248HK4    C2820764   0.082   3.447   1.488  0.1439 -0.1970 -0.2447
  248HK4    C2720765  11.244   3.349   1.435 -0.0601  0.0603 -0.3893
  248HK4    H1420766   0.002   3.246   1.473  0.8287  1.0123  2.1345
  248HK4    C3220767  11.168   3.375   1.321 -0.6571 -0.3185 -0.0796
  248HK4    H1620768  11.082   3.316   1.292 -0.5310 -0.1370 -0.8280
  248HK4    C3120769  11.183   3.494   1.251 -0.1544 -0.2708  0.1028
  248HK4    C3420770  11.137   3.543   1.123  0.5678  0.0589 -0.0331
  248HK4    C3320771  11.192   3.677   1.112  0.3819  0.1189 -0.2458
  248HK4    C3520772  11.135   3.761   1.017  0.0965 -0.3224 -0.4632
  248HK4    H1720773  11.177   3.857   0.988 -1.0296  0.1422 -0.5961
  248HK4    C3620774  11.030   3.717   0.936 -0.5655  0.2638  0.0687
  248HK4    H1820775  10.991   3.782   0.857 -0.6502  0.3073  0.1459
  248HK4    C3720776  10.981   3.587   0.946 -0.0735  0.0580 -0.1546
  248HK4    H1920777  10.924   3.548   0.862  1.0762  1.1364 -1.4661
  248HK4    C3820778  11.031   3.501   1.043  0.2058  0.5799  0.1663
  248HK4    H2020779  10.976   3.413   1.077  3.0703 -2.0820 -1.8062
  248HK4    C1420780   0.155   3.412   1.611 -0.3471 -0.2469  0.0301
  248HK4     C920781   0.186   3.281   1.648  0.2613 -0.0563  0.1959
  248HK4     C820782   0.212   3.251   1.784  0.0860 -0.0743  0.2258
  248HK4    C1120783   0.217   3.352   1.879  0.5330  0.2713 -0.1615
  248HK4     H420784   0.212   3.329   1.986  2.3064 -0.0150 -0.1282
  248HK4    C1220785   0.207   3.485   1.837  0.8785  0.3014 -0.1528
  248HK4     H520786   0.226   3.560   1.914 -2.5399  0.3400  0.7319
  248HK4    C1320787   0.172   3.516   1.706  0.2658 -0.2148 -0.1140
  248HK4     H620788   0.166   3.622   1.678  0.2628  0.4082  2.1361
  248HK4     C720789   0.259   3.117   1.826 -0.0524 -0.0711  0.3882
  248HK4     O220790   0.312   3.107   1.937 -0.0339 -0.6023  0.3316
  248HK4     C420791   0.265   3.009   1.726 -0.2068  0.0356  0.2638
  248HK4     C320792   0.297   2.882   1.772  0.0816 -0.0127 -0.0668
  248HK4     H320793   0.361   2.873   1.860 -0.6970 -0.7877  0.4272
  248HK4     C220794   0.261   2.770   1.698 -0.7777 -0.2369  0.6816
  248HK4     H220795   0.287   2.670   1.735  2.3176  0.1844 -0.2080
  248HK4     C120796   0.195   2.792   1.577  0.5395 -0.2326 -0.0495
  248HK4     H120797   0.167   2.706   1.515 -1.0406  1.2887 -1.4603
  248HK4     C620798   0.172   2.918   1.520  0.4379 -0.1160  0.2452
  248HK4     C520799   0.214   3.028   1.596 -0.9484  0.1925  0.5769
  248HK4    C1020800   0.206   3.170   1.551 -0.3207  0.0406 -0.0304
  248HK4     O120801   0.281   3.205   1.460 -0.0731 -0.4051  0.0011
  248HK4    C1620802   0.066   2.941   1.421  0.1083  0.1422  0.6566
  248HK4    C1520803  11.190   2.876   1.436  0.1510 -0.0366  0.2308
  248HK4     H720804  11.180   2.803   1.518  1.4754  0.7201  1.0686
  248HK4    C2020805  11.077   2.910   1.363  0.0733  0.1537  0.4353
  248HK4     H920806  10.980   2.865   1.382  0.2536 -1.3935 -2.0013
  248HK4    C1920807  11.100   3.007   1.266 -0.0911 -0.0481  0.1926
  248HK4    C1820808  11.231   3.058   1.230 -0.1204  0.1264  0.3242
  248HK4    C1720809   0.089   3.026   1.314 -0.3309  0.2320  0.6318
  248HK4     H820810   0.191   3.040   1.276 -0.1588  0.0159  1.0180
  248HK4     N120811  11.240   3.124   1.106 -0.0944 -0.1825  0.1614
  248HK4    C2120812  11.105   3.129   1.066 -0.0070 -0.3495 -0.1590
  248HK4    C2220813  11.018   3.060   1.159  0.0092  0.0925  0.1848
  248HK4    C2620814  10.882   3.055   1.129  0.0222  0.4999  0.0599
  248HK4    H1320815  10.810   3.009   1.197 -0.1624 -0.4673 -0.7790
  248HK4    C2520816  10.824   3.111   1.016 -0.5312  0.4292  0.3056
  248HK4    H1220817  10.727   3.071   0.987  1.0081 -2.7755 -0.5706
  248HK4    C2420818  10.909   3.186   0.936  0.3346 -0.6322  0.2284
  248HK4    H1120819  10.870   3.243   0.850 -0.8081 -0.2564  0.9993
  248HK4    C2320820  11.047   3.191   0.956  0.3653  0.0177 -0.1500
  248HK4    H1020821  11.119   3.226   0.882 -0.9971  3.9478  0.2595
  248HK4    C3920822   0.096   3.206   1.060 -0.5160  0.2462 -0.0378
  248HK4    C4120823   0.120   3.209   0.921  0.1049  0.0942  0.0636
  248HK4    H2120824   0.066   3.137   0.858  0.0143  0.3390 -0.1453
  248HK4    C4220825   0.211   3.297   0.862  0.2247 -0.0795 -0.0119
  248HK4    H2220826   0.241   3.288   0.757 -0.1316 -0.9534 -0.0438
  248HK4    C4320827   0.281   3.386   0.943  0.3740  0.0364 -0.2699
  248HK4    H2320828   0.358   3.457   0.912  1.3815 -0.5987  0.7246
  248HK4    C4420829   0.259   3.382   1.080  0.0535 -0.6298 -0.3394
  248HK4    H2420830   0.312   3.459   1.138 -1.3033  0.6042 -0.7367
  248HK4    C4520831   0.172   3.292   1.141  0.0872 -0.3844  0.0734
  248HK4    H2520832   0.174   3.283   1.250  1.5945 -0.6636  0.0302
  249HK4    H2820833   8.025   0.106   3.612  2.6309  0.2470  1.6444
  249HK4    C4820834   8.060   0.167   3.528 -0.2437  0.3257  0.4633
  249HK4    C4720835   8.168   0.254   3.536  0.4154 -0.3826 -0.5480
  249HK4    H2720836   8.210   0.261   3.638 -1.1489 -3.2887  0.3657
  249HK4    C4620837   8.215   0.319   3.423  0.1064  0.4330 -0.2129
  249HK4    H2620838   8.293   0.395   3.439 -1.3109  1.3695  2.4203
  249HK4    C4020839   8.160   0.299   3.294 -0.4373  0.0160  0.0831
  249HK4    C5020840   8.046   0.215   3.292 -0.4121 -0.0304  0.4110
  249HK4    H3020841   7.998   0.196   3.195 -1.2723 -0.8024  0.9845
  249HK4    C4920842   7.995   0.154   3.406  0.3066 -0.8803  0.2871
  249HK4    H2920843   7.903   0.093   3.400 -0.3359  0.1190 -0.2468
  249HK4     N220844   8.237   0.307   3.178 -0.3846  0.0931  0.1263
  249HK4    C3020845   8.378   0.316   3.169 -0.3545 -0.3014  0.1154
  249HK4    C2920846   8.475   0.275   3.260  0.1275  0.1143 -0.2141
  249HK4    H1520847   8.439   0.247   3.359  1.1896 -1.4161 -0.2364
  249HK4    C2820848   8.610   0.285   3.228  0.1826  0.6047  0.1456
  249HK4    C2720849   8.647   0.329   3.099  0.3414 -0.4739 -0.1857
  249HK4    H1420850   8.748   0.307   3.062  0.3643  0.3088 -0.6007
  249HK4    C3220851   8.550   0.365   3.006  0.2169 -0.1354  0.0792
  249HK4    H1620852   8.582   0.409   2.912 -2.0752  1.0369 -0.1812
  249HK4    C3120853   8.414   0.358   3.035  0.2690 -0.3267  0.2776
  249HK4    C3420854   8.294   0.385   2.959  0.5237 -0.1543 -0.0621
  249HK4    C3320855   8.189   0.357   3.055  0.3492 -0.0329 -0.2132
  249HK4    C3520856   8.057   0.375   3.015  0.4357  0.7218 -0.1434
  249HK4    H1720857   7.977   0.375   3.089 -0.0770 -0.2283 -0.6809
  249HK4    C3620858   8.031   0.399   2.881  0.0113  0.2735 -0.1405
  249HK4    H1820859   7.929   0.385   2.844  0.8103 -2.9457 -1.3594
  249HK4    C3720860   8.134   0.430   2.792  0.2802  0.8181  0.3631
  249HK4    H1920861   8.105   0.478   2.699  2.9478  1.6459 -0.0703
  249HK4    C3820862   8.268   0.427   2.829  0.3920 -0.3530 -0.1006
  249HK4    H2020863   8.348   0.428   2.756 -1.1806 -0.8416 -1.8509
  249HK4    C1420864   8.715   0.243   3.321  0.2163  0.0382 -0.1446
  249HK4     C920865   8.847   0.289   3.319  0.2517 -0.0309  0.4559
  249HK4     C820866   8.946   0.200   3.366  0.1983 -0.2742  0.1162
  249HK4    C1120867   8.906   0.088   3.438 -0.6208  0.1603  0.3383
  249HK4     H420868   8.987   0.023   3.473  1.5054  1.8118 -1.3402
  249HK4    C1220869   8.774   0.055   3.467 -0.6568 -0.0053  0.0033
  249HK4     H520870   8.744  11.220   3.534 -0.2799  0.5543  0.8764
  249HK4    C1320871   8.680   0.130   3.399 -0.4620  0.6803  0.4874
  249HK4     H620872   8.586   0.078   3.377  0.6628 -0.4428 -1.8139
  249HK4     C720873   9.089   0.230   3.343 -0.0068 -0.0936 -0.9516
  249HK4     O220874   9.172   0.140   3.359  0.5691  0.5360 -0.3152
  249HK4     C420875   9.122   0.359   3.278 -0.1843  0.2916 -0.2837
  249HK4     C320876   9.256   0.394   3.268  0.0069 -0.3792 -0.1380
  249HK4     H320877   9.337   0.326   3.297  0.0788  0.0201  0.6219
  249HK4     C220878   9.296   0.519   3.220 -0.0672 -0.1868  0.2926
  249HK4     H220879   9.404   0.523   3.200  0.0683  0.8908  1.2065
  249HK4     C120880   9.198   0.608   3.179 -0.0041 -0.1504  0.2244
  249HK4     H120881   9.225   0.708   3.140 -5.0167  0.6994 -1.4676
  249HK4     C620882   9.062   0.571   3.175 -0.2406  0.7208  0.0776
  249HK4     C520883   9.024   0.450   3.235 -0.0109  0.6688  0.1216
  249HK4    C1020884   8.881   0.425   3.269  0.0908 -0.1816 -0.0651
  249HK4     O120885   8.822   0.519   3.321  0.4784  0.0570 -0.0582
  249HK4    C1620886   8.990   0.652   3.076  0.2156  0.3158 -0.5857
  249HK4    C1520887   8.888   0.592   2.998  0.1505  0.3894 -0.5606
  249HK4     H720888   8.892   0.484   2.979  1.8949  0.5494 -1.1866
  249HK4    C2020889   8.797   0.664   2.922  0.4576  0.3616 -0.9496
  249HK4     H920890   8.729   0.618   2.850 -0.5086  1.5102 -0.7762
  249HK4    C1920891   8.808   0.803   2.921 -0.1260  0.4212  0.2015
  249HK4    C1820892   8.909   0.870   3.001  0.6416 -0.0872 -0.3349
  249HK4    C1720893   8.993   0.790   3.078  0.6531  0.2987  0.0507
  249HK4     H820894   9.044   0.838   3.162 -0.2773 -1.0496  1.4074
  249HK4     N120895   8.903   1.009   2.983 -0.1140 -0.0441  0.2123
  249HK4    C2120896   8.803   1.031   2.886  0.5966 -0.1353 -0.5473
  249HK4    C2220897   8.743   0.906   2.843 -0.2446  0.1139 -0.1114
  249HK4    C2620898   8.657   0.889   2.736 -0.3983 -0.1144  0.0493
  249HK4    H1320899   8.637   0.787   2.703  1.3803 -0.9601  1.5291
  249HK4    C2520900   8.619   1.002   2.664  0.1620  0.0165 -0.0342
  249HK4    H1220901   8.544   0.986   2.587  1.0043 -1.1578 -0.6378
  249HK4    C2420902   8.674   1.123   2.703  0.4003  0.0215 -0.3764
  249HK4    H1120903   8.645   1.214   2.649  0.5037  0.9067  1.0176
  249HK4    C2320904   8.768   1.138   2.804 -0.2266  0.1648  0.1940
  249HK4    H1020905   8.795   1.241   2.830 -1.2111 -0.0155  2.0730
  249HK4    C3920906   8.934   1.111   3.074 -0.7070  0.6821 -0.3879
  249HK4    C4120907   8.940   1.084   3.213 -0.1666 -0.0151 -0.5396
  249HK4    H2120908   8.865   1.016   3.256 -0.1945 -0.7334 -1.6918
  249HK4    C4220909   9.006   1.170   3.300 -0.3750 -0.3654 -0.0404
  249HK4    H2220910   8.990   1.156   3.408  1.1439  1.8684  0.5101
  249HK4    C4320911   9.069   1.284   3.253 -0.4207 -0.2710  0.1225
  249HK4    H2320912   9.141   1.338   3.315  0.9488 -1.7139 -0.1587
  249HK4    C4420913   9.068   1.311   3.116  0.2739  0.2696  0.2166
  249HK4    H2420914   9.092   1.413   3.086  0.1217  0.3298  0.2995
  249HK4    C4520915   9.008   1.221   3.028  0.4160  0.1838  0.2072
  249HK4    H2520916   9.044   1.225   2.924 -1.2140 -0.9746 -0.3999
  250HK4    H2820917   1.024   6.245   8.290 -0.0216 -1.2504  0.0307
  250HK4    C4820918   1.067   6.239   8.190 -0.1224 -0.2978 -0.0717
  250HK4    C4720919   1.194   6.284   8.154 -0.1796 -0.0719  0.0103
  250HK4    H2720920   1.254   6.319   8.239 -0.4695 -2.0432  1.0467
  250HK4    C4620921   1.236   6.289   8.021  0.5476 -0.5512  0.2194
  250HK4    H2620922   1.320   6.357   8.005  0.2864  0.0591  1.3465
  250HK4    C4020923   1.145   6.253   7.919  0.3658 -0.1152  0.2287
  250HK4    C5020924   1.015   6.210   7.953  0.3689 -0.0248  0.3562
  250HK4    H3020925   0.946   6.176   7.874  0.6049  0.0685  0.1092
  250HK4    C4920926   0.978   6.212   8.087 -0.4835  0.1437  0.1223
  250HK4    H2920927   0.871   6.206   8.111 -0.3204  0.7897  1.0190
  250HK4     N220928   1.176   6.281   7.785 -0.0965  0.3102  0.2070
  250HK4    C3020929   1.088   6.323   7.683 -0.1538  0.1804  0.2043
  250HK4    C2920930   0.990   6.421   7.686 -0.0451  0.2943  0.0024
  250HK4    H1520931   0.951   6.454   7.782 -1.3067 -1.0121 -0.0327
  250HK4    C2820932   0.918   6.458   7.573 -0.4707 -0.2850  0.0791
  250HK4    C2720933   0.950   6.392   7.453  0.9423  0.6261 -0.0616
  250HK4    H1420934   0.883   6.397   7.365  1.9698  0.0188 -0.8981
  250HK4    C3220935   1.051   6.298   7.441  0.3085 -0.0380 -0.2849
  250HK4    H1620936   1.089   6.259   7.346 -0.4428  0.0941 -0.6433
  250HK4    C3120937   1.125   6.267   7.554 -0.1759  0.3328  0.1291
  250HK4    C3420938   1.246   6.192   7.582 -0.5695 -0.3896 -0.0881
  250HK4    C3320939   1.280   6.211   7.722 -0.4962  0.0443 -0.1643
  250HK4    C3520940   1.390   6.147   7.778 -0.0255  0.2806 -0.8142
  250HK4    H1720941   1.404   6.155   7.885 -0.5325 -3.8346 -0.3603
  250HK4    C3620942   1.475   6.064   7.704 -0.2322 -0.9802  0.3571
  250HK4    H1820943   1.559   6.007   7.747 -0.5888 -0.5478  1.6688
  250HK4    C3720944   1.445   6.061   7.569 -0.3682  0.4384  0.3450
  250HK4    H1920945   1.530   6.026   7.509 -2.1662  1.7537 -3.1442
  250HK4    C3820946   1.334   6.116   7.506 -0.2304  0.1046 -0.1964
  250HK4    H2020947   1.317   6.097   7.400  0.4330  2.0416 -0.6650
  250HK4    C1420948   0.792   6.530   7.601 -0.4649 -0.3369  0.2393
  250HK4     C920949   0.673   6.505   7.531 -0.5083 -0.0830  0.2245
  250HK4     C820950   0.571   6.602   7.531 -0.0735  0.3763  0.1444
  250HK4    C1120951   0.586   6.721   7.603 -0.3604  0.7136 -0.3469
  250HK4     H420952   0.511   6.800   7.592 -0.3329  0.4407 -3.0470
  250HK4    C1220953   0.704   6.740   7.674  0.1689  0.0686 -1.0318
  250HK4     H520954   0.731   6.839   7.714 -1.1468 -0.7206  2.0175
  250HK4    C1320955   0.809   6.649   7.674 -0.3050 -0.4907  0.4556
  250HK4     H620956   0.902   6.685   7.719 -2.0846  1.9733  2.3461
  250HK4     C720957   0.445   6.583   7.456  0.2887  0.3524 -0.4613
  250HK4     O220958   0.354   6.665   7.464 -0.1401 -0.0858 -0.8289
  250HK4     C420959   0.432   6.453   7.388  0.2423  0.0841  0.0539
  250HK4     C320960   0.314   6.435   7.317  0.3258  0.2297 -0.1219
  250HK4     H320961   0.234   6.510   7.323  0.3749  0.3704 -1.0836
  250HK4     C220962   0.303   6.327   7.230  0.0911 -0.1025  0.3177
  250HK4     H220963   0.213   6.310   7.169  0.5357 -0.9259 -0.1031
  250HK4     C120964   0.404   6.232   7.224  0.0430 -0.1581  0.4167
  250HK4     H120965   0.395   6.153   7.149  3.3660  0.3914 -0.6232
  250HK4     C620966   0.526   6.240   7.294  0.2767 -0.2812  0.0260
  250HK4     C520967   0.531   6.352   7.378 -0.1813 -0.3402  0.1314
  250HK4    C1020968   0.646   6.372   7.471 -0.2056 -0.0931  0.1100
  250HK4     O120969   0.660   6.273   7.543  0.5199 -0.0967 -0.0349
  250HK4    C1620970   0.642   6.189   7.221  0.2790 -0.0574 -0.1286
  250HK4    C1520971   0.646   6.181   7.080 -0.2515 -0.1769 -0.1364
  250HK4     H720972   0.587   6.256   7.025  0.4707  1.4069  1.2314
  250HK4    C2020973   0.733   6.103   7.004 -0.1524  0.0756 -0.2817
  250HK4     H920974   0.734   6.105   6.895  0.8509  0.0281 -0.2720
  250HK4    C1920975   0.814   6.016   7.075  0.2047  0.3891 -0.3070
  250HK4    C1820976   0.815   6.018   7.220 -0.5761 -0.1487 -0.2933
  250HK4    C1720977   0.735   6.110   7.287 -0.1201 -0.1777  0.2882
  250HK4     H820978   0.768   6.136   7.387  2.1740 -2.4546  0.1899
  250HK4     N120979   0.901   5.922   7.278 -0.0976  0.3716 -0.1479
  250HK4    C2120980   0.962   5.858   7.170  0.0766  0.1355  0.0906
  250HK4    C2220981   0.914   5.915   7.046  0.0600  0.1275  0.0945
  250HK4    C2620982   0.952   5.851   6.928  0.4822  0.0342  0.2830
  250HK4    H1320983   0.900   5.872   6.835  1.5364 -3.3073 -1.1395
  250HK4    C2520984   1.036   5.740   6.926  0.1069 -0.2500  0.4193
  250HK4    H1220985   1.057   5.689   6.832 -2.1251  0.0650 -0.2898
  250HK4    C2420986   1.091   5.691   7.044  0.2518 -0.3370  0.3168
  250HK4    H1120987   1.150   5.599   7.038  3.0854  1.4255 -0.0710
  250HK4    C2320988   1.048   5.748   7.164  0.3521  0.3545  0.0239
  250HK4    H1020989   1.079   5.701   7.257 -2.0875 -0.7358  0.3136
  250HK4    C3920990   0.923   5.896   7.414 -0.2740  0.2516 -0.1414
  250HK4    C4120991   0.812   5.893   7.502 -0.2563  0.1061 -0.1232
  250HK4    H2120992   0.710   5.897   7.460 -1.3446  2.6114  2.6164
  250HK4    C4220993   0.828   5.899   7.640 -0.2029  0.3396 -0.1402
  250HK4    H2220994   0.731   5.915   7.689 -0.9678  2.0380 -2.0951
  250HK4    C4320995   0.957   5.911   7.692 -0.2760 -0.5544  0.2549
  250HK4    H2320996   0.953   5.927   7.800 -0.4511  2.8625 -0.1762
  250HK4    C4420997   1.070   5.907   7.611 -0.7635 -0.3420 -0.4426
  250HK4    H2420998   1.171   5.913   7.653  0.5125 -0.7192 -3.3655
  250HK4    C4520999   1.051   5.902   7.474 -0.0604 -0.3091 -0.5428
  250HK4    H2521000   1.130   5.911   7.398  0.4899  1.3794  0.2211
  251HK4    H2821001   4.663   9.722   2.270 -0.7153 -0.8399  0.9350
  251HK4    C4821002   4.592   9.756   2.194  0.1159 -0.2436  0.4139
  251HK4    C4721003   4.559   9.889   2.174  0.3365 -0.3209 -0.4835
  251HK4    H2721004   4.617   9.964   2.230 -0.7571  0.4721 -0.3874
  251HK4    C4621005   4.470   9.920   2.072 -0.6443 -0.1772  0.4028
  251HK4    H2621006   4.468  10.024   2.037  2.0485 -0.7031 -1.4398
  251HK4    C4021007   4.397   9.831   1.991 -0.3106 -0.1220  0.0423
  251HK4    C5021008   4.435   9.697   2.014 -0.1416  0.0146  0.5531
  251HK4    H3021009   4.392   9.617   1.951 -1.6353  0.1056  1.4131
  251HK4    C4921010   4.529   9.664   2.111 -0.2036 -0.1530  0.5558
  251HK4    H2921011   4.578   9.566   2.116  0.2368 -0.1164 -2.1351
  251HK4     N221012   4.268   9.857   1.942 -0.1594 -0.0464 -0.3205
  251HK4    C3021013   4.184   9.961   1.987  0.2674  0.1995 -0.0883
  251HK4    C2921014   4.187  10.052   2.091  0.0769  0.4817 -0.3304
  251HK4    H1521015   4.255  10.028   2.173 -0.8430  0.2957  0.3863
  251HK4    C2821016   4.083  10.138   2.126 -0.4663 -0.4296  0.3166
  251HK4    C2721017   3.961  10.116   2.058 -0.0226 -0.2876 -0.5362
  251HK4    H1421018   3.865  10.157   2.093  0.0999  0.2885 -0.8759
  251HK4    C3221019   3.946  10.025   1.954 -0.2217 -0.4029 -0.4063
  251HK4    H1621020   3.854   9.989   1.909 -0.3135  1.2197 -1.5493
  251HK4    C3121021   4.060   9.957   1.912  0.1491 -0.1219  0.1238
  251HK4    C3421022   4.079   9.856   1.809  0.0466 -0.0948  0.0795
  251HK4    C3321023   4.207   9.794   1.831  0.1256 -0.1184 -0.4351
  251HK4    C3521024   4.254   9.706   1.734  0.0195 -0.2996 -0.3261
  251HK4    H1721025   4.346   9.652   1.757  0.4774  0.2169 -0.9450
  251HK4    C3621026   4.171   9.676   1.626 -0.4529 -0.6974  0.1422
  251HK4    H1821027   4.206   9.610   1.546  0.8874 -1.0833  1.0231
  251HK4    C3721028   4.047   9.735   1.603  0.0461  0.4321  0.2893
  251HK4    H1921029   3.983   9.702   1.521  0.2145  1.6410 -0.3338
  251HK4    C3821030   4.004   9.830   1.694 -0.5991 -0.0434  0.4868
  251HK4    H2021031   3.909   9.883   1.683 -0.5454 -0.1035 -0.2708
  251HK4    C1421032   4.098  10.219   2.248 -0.0480 -0.1445  0.0743
  251HK4     C921033   3.980  10.236   2.320 -0.3889  0.1985 -0.5528
  251HK4     C821034   3.958  10.364   2.373  0.0661 -0.1593  0.5298
  251HK4    C1121035   4.059  10.459   2.368 -0.0435 -0.0976 -0.6126
  251HK4     H421036   4.068  10.530   2.452 -0.2913  0.1833 -0.8244
  251HK4    C1221037   4.179  10.443   2.300  0.1166 -0.6474 -0.2014
  251HK4     H521038   4.252  10.525   2.287 -1.9471  1.0424 -1.3475
  251HK4    C1321039   4.197  10.319   2.240  0.4592 -0.6569 -0.0856
  251HK4     H621040   4.298  10.286   2.212 -0.2407 -2.2876 -0.7569
  251HK4     C721041   3.826  10.400   2.432  0.1490 -0.2439  0.7642
  251HK4     O221042   3.819  10.505   2.495  0.3922 -0.0733  0.5107
  251HK4     C421043   3.732  10.287   2.450  0.1546 -0.3529  0.0992
  251HK4     C321044   3.598  10.316   2.472  0.0681 -0.0222 -0.8263
  251HK4     H321045   3.569  10.420   2.491 -2.4693 -0.4962 -1.9313
  251HK4     C221046   3.503  10.215   2.481  0.1759 -0.0854 -0.4182
  251HK4     H221047   3.399  10.232   2.448 -0.7882 -2.6745  1.1229
  251HK4     C121048   3.549  10.085   2.497 -0.1429 -0.1062  0.3689
  251HK4     H121049   3.472  10.007   2.507  1.0057 -1.0800  1.8566
  251HK4     C621050   3.687  10.058   2.512 -0.0894 -0.0832 -0.0741
  251HK4     C521051   3.775  10.153   2.460  0.1469 -0.3794 -0.2180
  251HK4    C1021052   3.900  10.127   2.384  0.0359 -0.0851 -0.5042
  251HK4     O121053   3.945  10.012   2.377  0.3097 -0.0639  0.8753
  251HK4    C1621054   3.728   9.937   2.584  0.0457 -0.0314 -0.0673
  251HK4    C1521055   3.643   9.826   2.604 -0.6146  0.5376  0.3370
  251HK4     H721056   3.549   9.823   2.547  1.2108 -1.7953 -2.6983
  251HK4    C2021057   3.677   9.715   2.681 -0.1668  0.5831  0.2068
  251HK4     H921058   3.615   9.626   2.689  0.8544  0.0907  3.5731
  251HK4    C1921059   3.800   9.720   2.745 -0.0199 -0.2300 -0.0173
  251HK4    C1821060   3.884   9.838   2.745  0.2881 -0.4458 -0.6483
  251HK4    C1721061   3.846   9.939   2.658  0.2734 -0.2594 -0.4229
  251HK4     H821062   3.912  10.022   2.633  1.1272 -1.0490 -0.8100
  251HK4     N121063   4.010   9.815   2.803  0.1252 -0.0123 -0.1208
  251HK4    C2121064   4.017   9.676   2.828  0.2306  0.1031  0.5217
  251HK4    C2221065   3.891   9.616   2.788  0.5554  0.0740 -0.4806
  251HK4    C2621066   3.879   9.477   2.781  0.3445  0.0627  0.0341
  251HK4    H1321067   3.784   9.424   2.783 -0.5001  1.5917  3.4452
  251HK4    C2521068   3.993   9.405   2.817 -0.1291 -0.4768  0.4475
  251HK4    H1221069   3.990   9.296   2.818 -0.2840 -0.4900 -0.6583
  251HK4    C2421070   4.116   9.462   2.845 -0.0739 -0.6253  0.4934
  251HK4    H1121071   4.205   9.399   2.860 -0.5324 -2.1760 -2.8180
  251HK4    C2321072   4.130   9.600   2.855 -0.0455 -0.5735 -0.2309
  251HK4    H1021073   4.217   9.629   2.914 -0.2487  0.6506 -0.5256
  251HK4    C3921074   4.097   9.913   2.853  0.2102 -0.1569  0.0188
  251HK4    C4121075   4.236   9.899   2.868  0.1081 -0.2395  0.9098
  251HK4    H2121076   4.285   9.813   2.820  1.5554  0.6180  0.8320
  251HK4    C4221077   4.315   9.982   2.947  0.7416 -0.0614  0.0971
  251HK4    H2221078   4.425   9.976   2.947  0.6949 -1.6604  2.7552
  251HK4    C4321079   4.247  10.083   3.013  0.2755 -0.2401 -0.1096
  251HK4    H2321080   4.317  10.144   3.070 -1.5085  1.7932 -0.0305
  251HK4    C4421081   4.110  10.105   3.006  0.2536 -0.2675  0.1936
  251HK4    H2421082   4.068  10.195   3.055  0.5832  0.8206 -1.4682
  251HK4    C4521083   4.038  10.021   2.923  0.2511 -0.2179  0.1449
  251HK4    H2521084   3.931  10.043   2.913  0.0844  0.4595  3.0237
  252HK4    H2821085   5.513   9.910   3.751  3.8446 -0.0957 -0.4691
  252HK4    C4821086   5.510   9.847   3.840 -0.2421  0.0365 -0.4241
  252HK4    C4721087   5.621   9.813   3.916 -0.5656 -0.8119 -0.3155
  252HK4    H2721088   5.718   9.861   3.892 -1.4034  0.3807 -1.3610
  252HK4    C4621089   5.597   9.761   4.043  0.3866  0.5139  0.4306
  252HK4    H2621090   5.690   9.741   4.096  1.2252 -0.5359 -1.3974
  252HK4    C4021091   5.468   9.740   4.096  0.2065  0.1178 -0.1608
  252HK4    C5021092   5.355   9.766   4.015 -0.0245  0.0457  0.1358
  252HK4    H3021093   5.254   9.775   4.058 -0.8671  0.2235 -1.8171
  252HK4    C4921094   5.383   9.818   3.889 -0.0194 -0.1456  0.0575
  252HK4    H2921095   5.301   9.834   3.817  1.0535  2.2385 -0.6809
  252HK4     N221096   5.438   9.714   4.230  0.2311 -0.1701 -0.2123
  252HK4    C3021097   5.518   9.759   4.337 -0.2814 -0.1722  0.1741
  252HK4    C2921098   5.635   9.833   4.343 -0.8317  0.7377 -0.2683
  252HK4    H1521099   5.642   9.919   4.276  1.7760 -0.3596 -1.5109
  252HK4    C2821100   5.710   9.858   4.457  0.2758 -0.1368 -0.7843
  252HK4    C2721101   5.655   9.805   4.576  0.4542 -0.5299 -0.8799
  252HK4    H1421102   5.718   9.803   4.666 -2.5053 -1.1483  1.2546
  252HK4    C3221103   5.536   9.734   4.575  0.1759 -0.0682 -0.3342
  252HK4    H1621104   5.496   9.702   4.672  0.3199 -0.0355 -0.2634
  252HK4    C3121105   5.467   9.700   4.459 -0.9457  0.4142  0.1795
  252HK4    C3421106   5.365   9.603   4.424  0.0634 -0.6695  0.1765
  252HK4    C3321107   5.348   9.618   4.281 -0.2628  0.5820  0.3395
  252HK4    C3521108   5.247   9.551   4.213 -0.0600  0.4897  0.1332
  252HK4    H1721109   5.234   9.560   4.105 -1.2181  0.4911  0.2691
  252HK4    C3621110   5.178   9.456   4.288 -0.1567  0.3075 -0.1843
  252HK4    H1821111   5.083   9.421   4.246 -0.3012 -1.6741  1.7611
  252HK4    C3721112   5.190   9.449   4.426 -0.7473  0.2765 -0.1329
  252HK4    H1921113   5.103   9.408   4.477  1.5119 -4.7908  0.0175
  252HK4    C3821114   5.276   9.528   4.501 -0.1687 -0.5193  0.0538
  252HK4    H2021115   5.278   9.541   4.609  0.5659 -1.6912  0.1874
  252HK4    C1421116   5.832   9.939   4.448  0.3568 -0.1156  0.4159
  252HK4     C921117   5.920   9.954   4.556  0.4288  0.2844  0.3055
  252HK4     C821118   5.981  10.077   4.588  0.2178  0.4361  0.1302
  252HK4    C1121119   5.971  10.185   4.502 -0.2189  0.6078  0.3946
  252HK4     H421120   6.017  10.282   4.526  0.3000  1.0386 -2.1565
  252HK4    C1221121   5.892  10.172   4.389  0.1444 -0.1084  0.2212
  252HK4     H521122   5.867  10.258   4.325 -1.2596 -0.8588 -0.2643
  252HK4    C1321123   5.833  10.049   4.361  0.4417 -0.2599  0.2380
  252HK4     H621124   5.784  10.040   4.263  1.7477 -0.3126 -0.4256
  252HK4     C721125   6.060  10.090   4.713  0.1831 -0.4504  0.2500
  252HK4     O221126   6.059  10.200   4.768 -0.5126 -0.3482  0.0394
  252HK4     C421127   6.108   9.968   4.782  0.0947 -0.7429 -0.2083
  252HK4     C321128   6.197   9.975   4.888 -0.0772 -0.6500 -0.0668
  252HK4     H321129   6.264  10.061   4.900 -1.9037  0.8925 -0.7352
  252HK4     C221130   6.198   9.871   4.980 -0.1041 -0.4130  0.1963
  252HK4     H221131   6.266   9.890   5.065 -0.1321  2.2382 -0.3122
  252HK4     C121132   6.127   9.753   4.961 -0.0660 -0.4942  0.5571
  252HK4     H121133   6.147   9.668   5.028 -1.0237 -0.8538  0.3882
  252HK4     C621134   6.037   9.740   4.853  0.2322 -0.7436  0.3328
  252HK4     C521135   6.042   9.845   4.761  0.1546 -0.8455  0.2113
  252HK4    C1021136   5.970   9.834   4.630 -0.2915  0.0274  0.3804
  252HK4     O121137   5.997   9.737   4.560 -0.3476  0.2294  0.0808
  252HK4    C1621138   5.909   9.677   4.890 -0.0895 -0.1892  0.1830
  252HK4    C1521139   5.850   9.692   5.017  0.3416  0.2047  0.3394
  252HK4     H721140   5.889   9.768   5.086 -0.0098  0.5555  0.1552
  252HK4    C2021141   5.731   9.636   5.061  0.1767  0.2065 -0.0983
  252HK4     H921142   5.684   9.676   5.151 -1.0321  0.1818 -0.7054
  252HK4    C1921143   5.665   9.554   4.970 -0.0840  0.2475  0.0541
  252HK4    C1821144   5.727   9.523   4.843  0.0544 -0.3522  0.2676
  252HK4    C1721145   5.843   9.590   4.804 -0.2476  0.0480  0.0664
  252HK4     H821146   5.882   9.568   4.705 -0.5088  0.7741 -0.2063
  252HK4     N121147   5.643   9.447   4.759  0.1337  0.2715 -0.3773
  252HK4    C2121148   5.524   9.436   4.833  0.0248  0.5427 -0.5147
  252HK4    C2221149   5.528   9.507   4.959 -0.0394  0.1993 -0.3195
  252HK4    C2621150   5.423   9.505   5.050  0.3384 -0.4010  0.1058
  252HK4    H1321151   5.430   9.567   5.140  0.0764 -0.8676  0.4496
  252HK4    C2521152   5.303   9.446   5.011  0.1314 -0.0501  0.2062
  252HK4    H1221153   5.212   9.498   5.040  0.8254  2.4451 -1.8606
  252HK4    C2421154   5.304   9.369   4.895  0.3598 -0.0210  0.1896
  252HK4    H1121155   5.211   9.311   4.882  0.1531  0.7722 -2.0335
  252HK4    C2321156   5.410   9.361   4.806  0.1161  0.2600 -0.1255
  252HK4    H1021157   5.423   9.281   4.733 -1.2227  1.8846 -2.2348
  252HK4    C3921158   5.685   9.357   4.660 -0.2698 -0.2372 -0.0904
  252HK4    C4121159   5.816   9.305   4.646 -0.3408 -0.6355  0.7214
  252HK4    H2121160   5.880   9.333   4.731 -0.6897  2.0089  0.1666
  252HK4    C4221161   5.868   9.232   4.540  0.0478  0.3359  0.2335
  252HK4    H2221162   5.976   9.213   4.536  0.1910 -0.0634  4.1208
  252HK4    C4321163   5.783   9.202   4.434  0.1427 -0.1860  0.3019
  252HK4    H2321164   5.811   9.127   4.360  1.7454  0.0265  0.6638
  252HK4    C4421165   5.653   9.250   4.436  0.2097 -0.0016  0.3090
  252HK4    H2421166   5.605   9.261   4.337  0.0168 -0.3110  0.3687
  252HK4    C4521167   5.608   9.317   4.549 -0.6381 -0.4524  0.2442
  252HK4    H2521168   5.516   9.376   4.533 -0.1941 -0.2320 -1.6576
  253HK4    H2821169   5.240   7.820   1.830  0.7412 -0.7322  1.2705
  253HK4    C4821170   5.308   7.905   1.841 -0.4131  0.2305  1.0921
  253HK4    C4721171   5.273   8.034   1.802 -0.4843 -0.0937  0.0532
  253HK4    H2721172   5.169   8.057   1.775 -0.1789 -0.7337 -1.7235
  253HK4    C4621173   5.357   8.142   1.826 -0.0702 -0.3932 -0.0411
  253HK4    H2621174   5.320   8.242   1.798 -1.2626 -0.7027  0.3782
  253HK4    C4021175   5.485   8.120   1.881 -0.1074  0.0217  0.2150
  253HK4    C5021176   5.517   7.989   1.922  0.2162 -0.1331 -0.5359
  253HK4    H3021177   5.588   7.966   2.002 -0.2163 -1.1276 -0.4263
  253HK4    C4921178   5.431   7.881   1.902 -0.2826  0.0241  0.7513
  253HK4    H2921179   5.464   7.777   1.913 -3.3613 -1.1688 -0.5710
  253HK4     N221180   5.560   8.219   1.946  0.1932  0.2781 -0.5228
  253HK4    C3021181   5.700   8.235   1.954  0.2175 -0.2117  0.1040
  253HK4    C2921182   5.799   8.175   1.877 -0.1548 -0.4361 -0.1975
  253HK4    H1521183   5.768   8.123   1.786 -1.4506  0.8996 -0.5452
  253HK4    C2821184   5.933   8.206   1.893 -0.2019 -0.1152 -0.4183
  253HK4    C2721185   5.962   8.311   1.982 -0.1507 -0.3012 -0.2181
  253HK4    H1421186   6.064   8.348   1.999 -0.5769  1.1678 -0.7733
  253HK4    C3221187   5.871   8.360   2.075 -0.0495  0.1181 -0.3398
  253HK4    H1621188   5.896   8.434   2.151 -0.7619 -0.5134  0.5164
  253HK4    C3121189   5.737   8.325   2.062 -0.0064 -0.2477  0.2120
  253HK4    C3421190   5.615   8.367   2.127 -0.0462 -0.0355  0.0016
  253HK4    C3321191   5.512   8.297   2.053  0.1785 -0.0776 -0.2706
  253HK4    C3521192   5.382   8.303   2.102  0.2618 -0.6358  0.0199
  253HK4    H1721193   5.297   8.279   2.038  1.4312 -1.0379 -1.4055
  253HK4    C3621194   5.356   8.353   2.229  0.1543  0.1348 -0.3058
  253HK4    H1821195   5.255   8.330   2.266  0.3054 -1.8091 -1.0626
  253HK4    C3721196   5.458   8.408   2.306 -0.0995 -0.7295  0.6596
  253HK4    H1921197   5.438   8.460   2.400 -0.9317  0.2364 -0.0402
  253HK4    C3821198   5.587   8.415   2.255 -0.4344 -0.0180 -0.0890
  253HK4    H2021199   5.670   8.461   2.309  1.2430 -1.0555 -1.7150
  253HK4    C1421200   6.031   8.111   1.837 -0.0565 -0.2710  0.0870
  253HK4     C921201   6.151   8.095   1.907 -0.1928 -0.2052  0.3352
  253HK4     C821202   6.272   8.089   1.835 -0.1939  0.1041  0.3088
  253HK4    C1121203   6.274   8.087   1.696 -0.5902 -0.0634  0.3070
  253HK4     H421204   6.366   8.084   1.637  1.6283  0.8057  3.5421
  253HK4    C1221205   6.155   8.093   1.625 -0.5452  1.0221  0.3247
  253HK4     H521206   6.154   8.101   1.515 -1.4860 -1.6653  0.1139
  253HK4    C1321207   6.036   8.096   1.697 -0.7292 -0.9336  0.1276
  253HK4     H621208   5.941   8.081   1.642 -1.1163 -0.2870  0.6168
  253HK4     C721209   6.398   8.065   1.911  0.1206 -0.2532 -0.3258
  253HK4     O221210   6.504   8.066   1.849  0.0939 -0.4535 -0.3722
  253HK4     C421211   6.392   8.042   2.057  0.1505 -0.2494 -0.3238
  253HK4     C321212   6.506   8.007   2.128 -0.0957  0.0954  0.2382
  253HK4     H321213   6.583   7.943   2.083  0.1767 -0.5449  1.5896
  253HK4     C221214   6.512   8.024   2.266  0.3982 -0.2053  0.2547
  253HK4     H221215   6.615   8.018   2.305 -0.2758  0.9492  2.2568
  253HK4     C121216   6.403   8.072   2.337  0.0477 -0.1936 -0.2938
  253HK4     H121217   6.422   8.094   2.443  0.5317  0.4333 -0.5083
  253HK4     C621218   6.279   8.093   2.273 -0.2620 -0.4048  0.2320
  253HK4     C521219   6.279   8.074   2.134  0.4638 -0.5047  0.2442
  253HK4    C1021220   6.153   8.077   2.055  0.3785  0.5186  0.4167
  253HK4     O121221   6.061   8.011   2.102  0.2934  0.3589  0.0360
  253HK4    C1621222   6.175   8.141   2.365  0.0334  0.1944  0.2519
  253HK4    C1521223   6.068   8.221   2.320 -0.0095  0.0785  0.1461
  253HK4     H721224   6.096   8.290   2.240  1.2714  0.9827  1.3504
  253HK4    C2021225   5.947   8.224   2.388 -0.1223 -0.2842 -0.0323
  253HK4     H921226   5.865   8.288   2.356 -0.4949 -0.4142  0.6322
  253HK4    C1921227   5.929   8.163   2.512 -0.1851 -0.1375  0.0300
  253HK4    C1821228   6.039   8.083   2.562  0.2123  0.5222  0.2103
  253HK4    C1721229   6.158   8.083   2.490 -0.1437 -1.1323 -0.3845
  253HK4     H821230   6.245   8.043   2.543  1.4006  1.8347 -0.5680
  253HK4     N121231   6.016   8.055   2.698  0.2142  0.6078  0.2291
  253HK4    C2121232   5.887   8.104   2.728  0.0069  0.1792  0.0480
  253HK4    C2221233   5.831   8.180   2.617 -0.4617 -0.4862 -0.1711
  253HK4    C2621234   5.718   8.260   2.626 -0.0854  0.0739 -0.4413
  253HK4    H1321235   5.695   8.328   2.544 -0.0432 -1.4514 -1.7447
  253HK4    C2521236   5.655   8.267   2.750 -0.0686 -0.1904 -0.4194
  253HK4    H1221237   5.562   8.323   2.764  0.2708  0.2941 -0.0996
  253HK4    C2421238   5.711   8.202   2.859  0.3256 -0.0551 -0.5428
  253HK4    H1121239   5.665   8.211   2.958 -0.0508 -0.3079 -0.6940
  253HK4    C2321240   5.823   8.120   2.850  0.4293 -0.0118  0.2963
  253HK4    H1021241   5.862   8.068   2.937  1.6812  0.5630  0.0874
  253HK4    C3921242   6.088   7.953   2.763  0.2037  0.1708 -0.4383
  253HK4    C4121243   6.108   7.962   2.902  0.3080  0.3838 -0.4657
  253HK4    H2121244   6.113   8.062   2.947  1.2043  0.2779 -0.3263
  253HK4    C4221245   6.162   7.856   2.975 -0.9920 -0.0206 -0.0653
  253HK4    H2221246   6.167   7.841   3.084 -1.7424 -2.8684 -0.3799
  253HK4    C4321247   6.206   7.744   2.905  0.3094  0.4122  0.0413
  253HK4    H2321248   6.254   7.665   2.962  0.9070  0.4055 -0.4715
  253HK4    C4421249   6.190   7.728   2.768  0.1174 -0.4323  0.1599
  253HK4    H2421250   6.238   7.645   2.715  1.0584 -1.2352  2.2235
  253HK4    C4521251   6.119   7.830   2.703  0.3754 -0.1510  0.3193
  253HK4    H2521252   6.084   7.808   2.602  0.8560 -1.4997  0.4296
  254HK4    H2821253   3.395   9.794  10.716 -1.6958  0.3733  3.7603
  254HK4    C4821254   3.450   9.705  10.745  0.1964  0.0674 -0.4777
  254HK4    C4721255   3.509   9.700  10.871 -0.0180  0.1201 -0.3760
  254HK4    H2721256   3.482   9.782  10.939  1.0053 -0.4903  0.7909
  254HK4    C4621257   3.609   9.609  10.907 -0.2758 -0.1770 -0.4086
  254HK4    H2621258   3.666   9.636  10.997 -1.3627  2.8698 -0.5666
  254HK4    C4021259   3.642   9.509  10.814  0.0041  0.3968 -0.9396
  254HK4    C5021260   3.579   9.508  10.688 -0.7306 -0.6992 -0.5737
  254HK4    H3021261   3.615   9.443  10.608 -0.8334 -0.7618 -0.5673
  254HK4    C4921262   3.481   9.601  10.657 -0.1310 -0.0281 -0.4805
  254HK4    H2921263   3.430   9.594  10.560 -1.4411  2.6444 -0.0514
  254HK4     N221264   3.753   9.423  10.824 -0.2768  0.1244 -0.0624
  254HK4    C3021265   3.877   9.453  10.884 -0.1153  0.2181 -0.4380
  254HK4    C2921266   3.934   9.572  10.927 -0.3127  0.0579  0.2708
  254HK4    H1521267   3.901   9.667  10.886  0.8508  0.6274  0.6260
  254HK4    C2821268   4.049   9.575  11.005  0.0911 -0.3812 -0.3018
  254HK4    C2721269   4.114   9.452  11.032 -0.0718 -0.3456  0.2558
  254HK4    H1421270   4.210   9.453  11.086  0.5119  1.3020 -0.7633
  254HK4    C3221271   4.066   9.333  10.980 -0.3392 -0.3401  0.4886
  254HK4    H1621272   4.130   9.245  10.988  0.3007 -0.0066 -0.8851
  254HK4    C3121273   3.948   9.328  10.906  0.1817  0.3913 -0.4066
  254HK4    C3421274   3.873   9.217  10.851 -0.1629  0.2482  0.3462
  254HK4    C3321275   3.755   9.285  10.800 -0.2471  0.0649  0.2914
  254HK4    C3521276   3.664   9.202  10.735  0.3306 -0.3818  0.0401
  254HK4    H1721277   3.568   9.238  10.698  1.0340  0.1577 -1.3004
  254HK4    C3621278   3.691   9.066  10.722  0.4165 -0.3967  0.3810
  254HK4    H1821279   3.611   9.004  10.679 -0.1714  0.2202  0.5716
  254HK4    C3721280   3.811   9.010  10.763  0.6911  0.0739  0.2249
  254HK4    H1921281   3.831   8.905  10.740  1.5098 -0.2523  2.2635
  254HK4    C3821282   3.905   9.083  10.835  0.2267  0.3159  0.5929
  254HK4    H2021283   3.985   9.033  10.889  1.4457 -0.6720 -2.0027
  254HK4    C1421284   4.105   9.702  11.053 -0.0070 -0.5064  0.1518
  254HK4     C921285   4.241   9.724  11.079 -0.1609  0.5209  0.1176
  254HK4     C821286   4.281   9.799  11.191 -0.1711  0.1509  0.3704
  254HK4    C1121287   4.186   9.875   0.011 -0.1424  0.4051  0.1272
  254HK4     H421288   4.222   9.909   0.109 -2.8976  1.4848  0.8030
  254HK4    C1221289   4.051   9.864  11.227 -0.0459 -0.1202 -0.1150
  254HK4     H521290   3.973   9.917   0.035 -0.8294  0.6170 -1.8525
  254HK4    C1321291   4.010   9.776  11.127  0.0096 -0.7163  0.3854
  254HK4     H621292   3.905   9.754  11.104 -0.4653  1.8810 -0.0508
  254HK4     C721293   4.424   9.821  11.223  0.0243 -0.3587 -0.1537
  254HK4     O221294   4.462   9.840   0.091  0.1975 -0.7100 -0.1509
  254HK4     C421295   4.523   9.781  11.121  0.2941 -0.2060  0.0522
  254HK4     C321296   4.656   9.814  11.145  0.1505  0.4956 -0.0959
  254HK4     H321297   4.682   9.890  11.219 -1.7208  0.5794  0.4937
  254HK4     C221298   4.763   9.750  11.083 -0.0394  0.2079 -0.1269
  254HK4     H221299   4.860   9.749  11.136 -0.8267 -0.3601  1.3183
  254HK4     C121300   4.725   9.665  10.980 -0.1154 -0.0505  0.1125
  254HK4     H121301   4.812   9.628  10.924  0.4571  1.8339 -0.2889
  254HK4     C621302   4.593   9.627  10.949 -0.0973  0.5188 -0.6754
  254HK4     C521303   4.490   9.691  11.017 -0.0404 -0.7711  0.6422
  254HK4    C1021304   4.345   9.677  10.984 -0.0751  0.6236  0.1592
  254HK4     O121305   4.318   9.678  10.864 -0.1867  1.1113  0.1914
  254HK4    C1621306   4.582   9.535  10.835 -0.8041  0.4670 -0.5610
  254HK4    C1521307   4.667   9.548  10.723  0.2323  0.0172  0.1716
  254HK4     H721308   4.697   9.652  10.701 -1.2975  1.0494  2.6687
  254HK4    C2021309   4.680   9.454  10.622  0.7547  0.1070  0.1543
  254HK4     H921310   4.735   9.476  10.531 -0.4716 -0.7106 -0.8055
  254HK4    C1921311   4.615   9.332  10.634  0.4901  0.2544  0.2147
  254HK4    C1821312   4.534   9.310  10.752  0.3271  0.1506  0.0854
  254HK4    C1721313   4.519   9.411  10.846  0.3541 -0.0542  0.3107
  254HK4     H821314   4.460   9.395  10.936 -0.5644  0.4854 -0.1879
  254HK4     N121315   4.476   9.182  10.754  0.4862  0.0847  0.4950
  254HK4    C2121316   4.519   9.123  10.633  0.0710  0.4229  0.1811
  254HK4    C2221317   4.598   9.213  10.552 -0.6018  0.6812 -0.1905
  254HK4    C2621318   4.654   9.172  10.432  0.2545  0.0673  0.4053
  254HK4    H1321319   4.719   9.244  10.382 -0.7984  1.2986  0.7617
  254HK4    C2521320   4.624   9.048  10.378  0.1227  0.2796 -0.0151
  254HK4    H1221321   4.649   9.023  10.275  0.7634 -0.1960  0.2557
  254HK4    C2421322   4.551   8.961  10.457 -0.0466  0.2031 -0.2531
  254HK4    H1121323   4.517   8.875  10.397 -1.6218  0.6783 -0.0655
  254HK4    C2321324   4.505   8.993  10.584  0.2510  0.5632 -0.2386
  254HK4    H1021325   4.472   8.909  10.646  0.7544 -0.3141 -1.1600
  254HK4    C3921326   4.402   9.119  10.855  0.0282 -0.2707 -0.0640
  254HK4    C4121327   4.315   9.011  10.827 -0.0199 -0.2641  0.0673
  254HK4    H2121328   4.279   9.007  10.723  1.7280  2.1088 -0.6673
  254HK4    C4221329   4.266   8.924  10.924  0.8475  0.0459  0.7923
  254HK4    H2221330   4.208   8.835  10.897  1.0253  0.3455 -0.6040
  254HK4    C4321331   4.296   8.943  11.058  0.1297  0.2800  0.9228
  254HK4    H2321332   4.255   8.879  11.136  1.4697 -3.0573 -1.0367
  254HK4    C4421333   4.380   9.047  11.096  0.3373  0.2082  0.6488
  254HK4    H2421334   4.400   9.073  11.201 -0.3969  0.1913  0.7937
  254HK4    C4521335   4.427   9.129  10.993 -0.2593 -0.2737 -0.0093
  254HK4    H2521336   4.488   9.213  11.029 -1.6592  0.1313  1.4975
  255HK4    H2821337   3.378   7.764   4.066  0.1513 -0.9240 -3.2998
  255HK4    C4821338   3.290   7.701   4.070 -0.3210 -0.1220  0.0589
  255HK4    C4721339   3.164   7.761   4.078 -0.0642  0.3615  0.5321
  255HK4    H2721340   3.156   7.870   4.070  1.2184  0.4611  0.3951
  255HK4    C4621341   3.049   7.683   4.085  0.4051 -0.4198 -0.3451
  255HK4    H2621342   2.954   7.738   4.074  1.7064  1.9369 -0.2539
  255HK4    C4021343   3.061   7.543   4.089 -0.5687 -0.5027 -0.2116
  255HK4    C5021344   3.189   7.485   4.075  0.0454  0.7034  0.3648
  255HK4    H3021345   3.208   7.377   4.079 -1.8680  0.2133 -2.1239
  255HK4    C4921346   3.304   7.563   4.067  0.5571 -0.0420  0.4395
  255HK4    H2921347   3.392   7.514   4.022  0.3010 -0.2862  0.2000
  255HK4     N221348   2.949   7.464   4.121 -0.1468 -0.9314  0.2191
  255HK4    C3021349   2.837   7.499   4.199 -0.5137 -0.1544 -0.6462
  255HK4    C2921350   2.831   7.589   4.305  0.4092 -0.7177 -0.1042
  255HK4    H1521351   2.925   7.631   4.339  0.9124 -1.9282  0.0233
  255HK4    C2821352   2.714   7.611   4.378  0.3676  0.2287 -0.4504
  255HK4    C2721353   2.601   7.538   4.337  0.4759 -0.1569 -0.0626
  255HK4    H1421354   2.500   7.554   4.379  0.7794 -0.6677  0.8791
  255HK4    C3221355   2.608   7.438   4.240  0.0593 -0.1242 -0.1291
  255HK4    H1621356   2.523   7.373   4.221 -0.5772  0.3937  0.8515
  255HK4    C3121357   2.725   7.412   4.170 -0.4351 -0.1568 -0.9503
  255HK4    C3421358   2.769   7.314   4.073 -0.4069 -0.6486 -0.4456
  255HK4    C3321359   2.907   7.351   4.049 -0.4286 -0.4884 -0.3236
  255HK4    C3521360   2.971   7.281   3.948  0.4592  0.4397 -0.4095
  255HK4    H1721361   3.073   7.311   3.925  0.5997  0.2872  0.0124
  255HK4    C3621362   2.908   7.189   3.864  0.5522  0.1793 -0.1956
  255HK4    H1821363   2.964   7.156   3.775 -0.1837 -3.2639  0.5617
  255HK4    C3721364   2.775   7.156   3.888  0.5439  0.0784 -0.3752
  255HK4    H1921365   2.718   7.114   3.806 -0.6718  0.8074  0.0951
  255HK4    C3821366   2.710   7.213   3.997 -0.2303 -0.8098 -0.3693
  255HK4    H2021367   2.612   7.172   4.019 -0.9282  1.8840  1.8316
  255HK4    C1421368   2.712   7.683   4.506 -0.0805 -0.2676 -0.1737
  255HK4     C921369   2.621   7.662   4.609 -0.2965  0.0571 -0.2966
  255HK4     C821370   2.573   7.774   4.681  0.0342  0.1212 -0.1747
  255HK4    C1121371   2.634   7.897   4.658  0.6835 -0.0883  0.3812
  255HK4     H421372   2.596   7.984   4.713  1.1163 -0.0628  0.6355
  255HK4    C1221373   2.730   7.921   4.560  0.2890  0.1478  0.0472
  255HK4     H521374   2.753   8.021   4.518 -2.7107  2.1794  2.9769
  255HK4    C1321375   2.773   7.810   4.489  0.1360 -0.2684  0.6053
  255HK4     H621376   2.873   7.816   4.444  0.0778  0.0786  0.5181
  255HK4     C721377   2.456   7.754   4.769  0.0712  0.3660 -0.0696
  255HK4     O221378   2.391   7.853   4.801  0.3622  0.5117  0.0743
  255HK4     C421379   2.410   7.614   4.779  0.2857  0.2497 -0.6436
  255HK4     C321380   2.284   7.594   4.836  0.5391 -0.5510 -0.3644
  255HK4     H321381   2.216   7.679   4.846  1.2766 -0.0297  0.2524
  255HK4     C221382   2.235   7.469   4.872 -0.4686 -0.0670 -0.0419
  255HK4     H221383   2.130   7.436   4.874  0.0926 -1.9181  3.6491
  255HK4     C121384   2.321   7.362   4.849 -0.1913  0.0912  0.2401
  255HK4     H121385   2.279   7.260   4.843  0.5260 -0.0632 -2.9597
  255HK4     C621386   2.457   7.377   4.814 -0.2563  0.3451  0.0993
  255HK4     C521387   2.494   7.502   4.763  0.2958  0.1562  0.0406
  255HK4    C1021388   2.597   7.523   4.658  0.3345  0.0720  0.0622
  255HK4     O121389   2.661   7.426   4.616 -0.0609 -0.1716  0.0270
  255HK4    C1621390   2.540   7.292   4.901 -0.3865  0.0542 -0.0624
  255HK4    C1521391   2.491   7.202   4.997  0.0938  0.3193  0.4346
  255HK4     H721392   2.385   7.216   5.023 -0.0099  0.8184 -0.2550
  255HK4    C2021393   2.561   7.099   5.059  0.0685 -0.2146 -0.4169
  255HK4     H921394   2.519   7.025   5.127 -1.6641  0.6153 -0.5627
  255HK4    C1921395   2.693   7.079   5.020  0.1657 -0.2081 -0.0872
  255HK4    C1821396   2.753   7.173   4.928 -0.2760 -0.2477 -0.4160
  255HK4    C1721397   2.676   7.277   4.878 -0.4145 -0.1831 -0.0669
  255HK4     H821398   2.731   7.367   4.851  1.6571 -2.2108 -2.8529
  255HK4     N121399   2.887   7.137   4.899 -0.2902 -0.4290 -0.2582
  255HK4    C2121400   2.914   7.023   4.977 -0.1092 -0.3842 -0.2542
  255HK4    C2221401   2.798   6.986   5.057  0.0891 -0.2194  0.1070
  255HK4    C2621402   2.804   6.882   5.148  0.5177  0.2374  0.6075
  255HK4    H1321403   2.724   6.862   5.221  1.4124 -1.3649  1.1855
  255HK4    C2521404   2.920   6.808   5.164  0.1804 -0.3631  0.3346
  255HK4    H1221405   2.938   6.747   5.252 -1.7179 -0.8068  0.4190
  255HK4    C2421406   3.029   6.843   5.084 -0.2128  0.2114  0.0514
  255HK4    H1121407   3.124   6.792   5.105 -1.0858 -1.1806  0.7299
  255HK4    C2321408   3.031   6.951   4.997  0.2731  0.3813  0.2726
  255HK4    H1021409   3.126   6.969   4.946  1.5899 -2.1059  1.7489
  255HK4    C3921410   2.956   7.184   4.787 -0.2794  0.7341  0.2234
  255HK4    C4121411   3.097   7.180   4.790 -0.3009 -0.1299  0.2679
  255HK4    H2121412   3.148   7.188   4.888  0.7820 -1.7122 -0.1335
  255HK4    C4221413   3.170   7.190   4.672 -0.4431  0.4284  0.2252
  255HK4    H2221414   3.279   7.178   4.669 -0.6161 -1.0471 -1.0262
  255HK4    C4321415   3.105   7.210   4.551 -0.5744 -0.4611  0.1426
  255HK4    H2321416   3.159   7.209   4.456  1.3180  2.3427  1.1057
  255HK4    C4421417   2.967   7.221   4.545 -0.5127  0.1362 -0.2390
  255HK4    H2421418   2.915   7.225   4.448 -1.1993 -2.1998 -0.0170
  255HK4    C4521419   2.895   7.207   4.663 -0.1065 -0.0512 -0.0101
  255HK4    H2521420   2.786   7.224   4.664 -0.0571  0.3257  2.8169
  256HK4    H2821421   8.644   7.202   3.933 -0.1003 -0.6016 -0.0059
  256HK4    C4821422   8.568   7.212   4.010  0.3187  0.3994  0.2901
  256HK4    C4721423   8.492   7.327   4.026 -0.0092  0.2595 -0.2147
  256HK4    H2721424   8.458   7.378   3.935 -1.6641 -0.9112 -0.2598
  256HK4    C4621425   8.433   7.357   4.148  0.0470  0.2960 -0.1983
  256HK4    H2621426   8.401   7.462   4.156 -0.0691  0.1020  2.3047
  256HK4    C4021427   8.444   7.272   4.260 -0.0638  0.4032 -0.1060
  256HK4    C5021428   8.520   7.156   4.233 -0.0010  0.3938  0.1104
  256HK4    H3021429   8.513   7.082   4.315 -1.7962 -1.6622 -1.8422
  256HK4    C4921430   8.578   7.118   4.113 -0.2906  0.0902  0.0637
  256HK4    H2921431   8.576   7.013   4.082  0.3627 -0.0610  0.5447
  256HK4     N221432   8.438   7.326   4.389 -0.0445  0.2108 -0.0243
  256HK4    C3021433   8.408   7.252   4.505  0.3870 -0.2056 -0.1728
  256HK4    C2921434   8.352   7.126   4.519  0.0919 -0.0761 -0.1888
  256HK4    H1521435   8.299   7.079   4.436  0.5205 -0.4356 -0.2576
  256HK4    C2821436   8.334   7.075   4.647 -0.5674  0.0890 -0.2098
  256HK4    C2721437   8.391   7.141   4.757 -0.2784  0.0422 -0.3340
  256HK4    H1421438   8.361   7.090   4.850 -2.8001  2.4253  0.2034
  256HK4    C3221439   8.444   7.270   4.752 -0.4970  0.1480  0.0158
  256HK4    H1621440   8.462   7.315   4.849  0.9331 -1.9879  0.7875
  256HK4    C3121441   8.449   7.324   4.624  0.0430 -0.1488 -0.0868
  256HK4    C3421442   8.500   7.454   4.584 -0.5678  0.1213  0.0149
  256HK4    C3321443   8.493   7.446   4.439  0.1174  0.1350 -0.0181
  256HK4    C3521444   8.538   7.561   4.375  0.1108  0.0218 -0.2248
  256HK4    H1721445   8.561   7.541   4.270  0.5829  1.1229 -0.3406
  256HK4    C3621446   8.574   7.681   4.434 -0.1908 -0.2196  0.4570
  256HK4    H1821447   8.617   7.759   4.369 -2.5839 -0.1646 -1.1261
  256HK4    C3721448   8.574   7.686   4.573 -0.2693  0.1361  0.4437
  256HK4    H1921449   8.595   7.782   4.620  0.4808  0.5147 -0.6467
  256HK4    C3821450   8.542   7.572   4.645 -0.2972 -0.0422  0.1462
  256HK4    H2021451   8.545   7.577   4.754 -0.5988 -1.3171  0.2184
  256HK4    C1421452   8.226   6.977   4.669 -0.5067 -0.0147 -0.3599
  256HK4     C921453   8.146   6.963   4.783  0.1176 -0.4294  0.0345
  256HK4     C821454   8.102   6.836   4.826  0.4761 -0.3599  0.6104
  256HK4    C1121455   8.132   6.727   4.747 -0.3374  0.0610 -0.2846
  256HK4     H421456   8.079   6.631   4.755  0.7312 -0.5624 -0.4977
  256HK4    C1221457   8.208   6.736   4.630  0.0953 -0.3036 -0.0358
  256HK4     H521458   8.230   6.647   4.569  0.7114 -0.1873  0.0132
  256HK4    C1321459   8.252   6.862   4.592 -0.2301 -0.1837 -0.0201
  256HK4     H621460   8.267   6.887   4.486  0.3401 -2.1697 -0.4234
  256HK4     C721461   8.061   6.822   4.968  0.0698 -0.0082  0.5279
  256HK4     O221462   8.043   6.708   5.010  0.4037 -0.2559  0.0069
  256HK4     C421463   8.041   6.940   5.054  0.6367  0.3281  0.2008
  256HK4     C321464   8.021   6.925   5.191  0.2654 -0.3323  0.0734
  256HK4     H321465   8.046   6.829   5.238  0.1962 -0.3057  0.1658
  256HK4     C221466   7.981   7.034   5.267  0.1559 -0.0154 -0.4325
  256HK4     H221467   7.960   7.039   5.375  2.8941  3.1980  0.0232
  256HK4     C121468   7.953   7.154   5.202  0.1758  0.1333 -0.1665
  256HK4     H121469   7.957   7.244   5.265 -0.0122  0.1186 -0.1350
  256HK4     C621470   7.942   7.159   5.062 -0.2862 -0.3082 -0.1483
  256HK4     C521471   8.009   7.061   4.988  0.3767  0.0953 -0.0961
  256HK4    C1021472   8.079   7.074   4.857 -0.0069 -0.2541 -0.3406
  256HK4     O121473   8.084   7.189   4.814 -0.2646 -0.0449  0.1832
  256HK4    C1621474   7.847   7.253   5.001 -0.5755 -0.3455  0.2462
  256HK4    C1521475   7.789   7.353   5.081  0.2013  0.6811 -0.4487
  256HK4     H721476   7.839   7.381   5.175  1.9566 -2.8152 -0.2582
  256HK4    C2021477   7.672   7.419   5.044 -0.2233  0.2702  0.1469
  256HK4     H921478   7.624   7.476   5.124 -2.6836  1.1646 -1.9321
  256HK4    C1921479   7.606   7.396   4.924 -0.2803 -0.2991  0.2831
  256HK4    C1821480   7.669   7.303   4.833 -0.0506  0.0003  0.1346
  256HK4    C1721481   7.778   7.232   4.882 -0.0062 -0.1130 -0.1311
  256HK4     H821482   7.803   7.137   4.835  0.1227 -0.7026  1.0900
  256HK4     N121483   7.599   7.288   4.712 -0.0822  0.2006  0.1294
  256HK4    C2121484   7.486   7.371   4.732 -0.3372 -0.3089  0.8036
  256HK4    C2221485   7.491   7.449   4.854  0.0763  0.4874  0.2816
  256HK4    C2621486   7.381   7.517   4.904  0.1921  0.4294  0.6103
  256HK4    H1321487   7.403   7.589   4.984  0.1046 -0.5767  1.5541
  256HK4    C2521488   7.255   7.495   4.850  0.6604  0.6750 -0.5933
  256HK4    H1221489   7.163   7.518   4.904  1.7267 -0.2823  1.6660
  256HK4    C2421490   7.250   7.424   4.731 -0.5159 -0.6168  0.2055
  256HK4    H1121491   7.151   7.397   4.690 -0.7046  0.1628  0.1582
  256HK4    C2321492   7.360   7.361   4.674  0.0478  0.7483 -0.2325
  256HK4    H1021493   7.357   7.300   4.583  3.5997 -4.1097  2.6040
  256HK4    C3921494   7.645   7.233   4.591 -0.3459 -0.5440  0.3686
  256HK4    C4121495   7.565   7.178   4.489 -0.3787  0.5535 -0.2060
  256HK4    H2121496   7.461   7.141   4.492  0.0676 -0.8791 -1.5231
  256HK4    C4221497   7.625   7.137   4.371  0.0035  0.1611  0.1228
  256HK4    H2221498   7.567   7.061   4.316  1.9806 -0.4652 -1.1426
  256HK4    C4321499   7.758   7.159   4.338 -0.0499  0.1847 -0.0728
  256HK4    H2321500   7.793   7.158   4.234  0.4012  1.6375  0.0562
  256HK4    C4421501   7.836   7.209   4.441  0.4602 -0.4987 -0.1258
  256HK4    H2421502   7.946   7.212   4.432  0.4378 -1.6141 -0.8781
  256HK4    C4521503   7.782   7.250   4.562 -0.5009 -0.7317 -0.4762
  256HK4    H2521504   7.845   7.301   4.636 -1.8050  0.7831 -0.3621
  257HK4    H2821505  10.391   8.277   9.548  0.9414  0.5957  1.1181
  257HK4    C4821506  10.391   8.169   9.560  0.1518  0.4893  0.2507
  257HK4    C4721507  10.304   8.093   9.482  0.2291 -0.0056  0.6380
  257HK4    H2721508  10.233   8.148   9.418  0.1160  0.9038  1.5263
  257HK4    C4621509  10.306   7.955   9.499 -0.0141 -0.1510 -0.4921
  257HK4    H2621510  10.232   7.890   9.450 -0.8559 -0.4206  1.1016
  257HK4    C4021511  10.391   7.886   9.587  0.7013  0.2792 -0.8437
  257HK4    C5021512  10.478   7.968   9.661  0.0245  0.2565 -0.0293
  257HK4    H3021513  10.547   7.929   9.737  0.4679  1.0082 -0.0418
  257HK4    C4921514  10.481   8.106   9.645  0.2982  0.2436 -0.0831
  257HK4    H2921515  10.558   8.163   9.700 -0.6590 -0.9777  2.5742
  257HK4     N221516  10.410   7.747   9.593 -0.5745  0.1433  0.2765
  257HK4    C3021517  10.379   7.658   9.488 -0.4867 -0.1890  0.5328
  257HK4    C2921518  10.361   7.675   9.351  0.0979 -0.5369  0.4147
  257HK4    H1521519  10.365   7.776   9.309  1.4905 -2.0409 -3.2701
  257HK4    C2821520  10.331   7.575   9.260  0.0616 -0.1625  0.0097
  257HK4    C2721521  10.328   7.444   9.314  0.1700  0.0714  0.5786
  257HK4    H1421522  10.324   7.356   9.248 -1.3393  0.5032  0.0808
  257HK4    C3221523  10.340   7.415   9.449  0.2627 -0.7004  0.4066
  257HK4    H1621524  10.334   7.316   9.494 -0.5682 -1.4993 -1.4361
  257HK4    C3121525  10.375   7.520   9.533  0.8040 -0.4503 -0.1304
  257HK4    C3421526  10.415   7.524   9.672 -0.1239 -0.4241  0.1370
  257HK4    C3321527  10.426   7.665   9.706 -0.6159 -0.3356 -0.0650
  257HK4    C3521528  10.471   7.696   9.834 -1.3983 -0.5523  0.2638
  257HK4    H1721529  10.484   7.803   9.850 -2.9782  0.1314 -2.6177
  257HK4    C3621530  10.509   7.598   9.924  0.3500  0.0569  0.2252
  257HK4    H1821531  10.566   7.620  10.016  1.1752 -0.5314 -0.1398
  257HK4    C3721532  10.484   7.464   9.893  0.2361  0.1729 -0.1723
  257HK4    H1921533  10.517   7.392   9.967 -1.9895 -1.4723 -0.7490
  257HK4    C3821534  10.441   7.425   9.767 -0.4717 -0.4113  0.2477
  257HK4    H2021535  10.431   7.322   9.734  2.4610 -0.1253 -1.6911
  257HK4    C1421536  10.264   7.609   9.133  0.1768 -0.4357 -0.1271
  257HK4     C921537  10.162   7.537   9.070  0.2824 -0.0354 -0.7562
  257HK4     C821538  10.141   7.550   8.932  0.1062 -0.2602 -0.7523
  257HK4    C1121539  10.227   7.626   8.854  0.6287 -0.0574  0.0112
  257HK4     H421540  10.221   7.626   8.744  1.3797  0.1005 -0.0353
  257HK4    C1221541  10.332   7.696   8.913  0.0144  0.5752  0.3478
  257HK4     H521542  10.386   7.762   8.844 -2.7554  0.9709 -1.5690
  257HK4    C1321543  10.352   7.680   9.050  0.3009 -0.1734  0.2248
  257HK4     H621544  10.427   7.744   9.099  2.9948 -1.4495 -2.0502
  257HK4     C721545  10.042   7.467   8.860 -0.2948 -0.1293 -0.3465
  257HK4     O221546  10.009   7.497   8.745 -0.3199  0.2589 -0.2381
  257HK4     C421547   9.964   7.360   8.927 -0.2958  0.0739 -0.0277
  257HK4     C321548   9.877   7.278   8.855  0.0576 -0.2104 -0.1296
  257HK4     H321549   9.816   7.333   8.782  1.1223 -0.9865 -1.6104
  257HK4     C221550   9.830   7.160   8.911  0.1577  0.1482  0.7292
  257HK4     H221551   9.779   7.101   8.834  0.7018  1.4632 -0.6741
  257HK4     C121552   9.872   7.130   9.040  0.2134 -0.0384  0.6690
  257HK4     H121553   9.848   7.026   9.068 -0.8143  0.4780  1.8097
  257HK4     C621554   9.954   7.212   9.120  0.3840  0.2392  0.2130
  257HK4     C521555   9.990   7.335   9.064 -0.7234  0.5400  0.1444
  257HK4    C1021556  10.074   7.436   9.135  0.0768  0.3207 -0.4823
  257HK4     O121557  10.034   7.469   9.246 -0.6146 -1.0091 -0.3156
  257HK4    C1621558  10.042   7.150   9.219  0.4967  0.1022  0.0233
  257HK4    C1521559  10.109   7.033   9.176  0.2327  0.1304 -0.4700
  257HK4     H721560  10.085   6.992   9.077 -2.3234 -1.3025  0.6987
  257HK4    C2021561  10.194   6.962   9.261 -0.5533 -0.0334  0.1860
  257HK4     H921562  10.223   6.860   9.234 -0.7865  0.0979 -0.5662
  257HK4    C1921563  10.216   7.010   9.389  0.2822  0.3505 -0.0967
  257HK4    C1821564  10.129   7.116   9.439 -0.0941 -0.2325  0.4957
  257HK4    C1721565  10.040   7.181   9.354  0.1561 -0.3669  0.1274
  257HK4     H821566   9.955   7.228   9.403  1.3280  2.0369 -0.0651
  257HK4     N121567  10.151   7.135   9.577  0.1025  0.0577  0.4252
  257HK4    C2121568  10.243   7.037   9.617  0.3406  0.0221 -0.2026
  257HK4    C2221569  10.288   6.959   9.504 -0.1370 -0.3471 -0.1387
  257HK4    C2621570  10.406   6.886   9.509  0.0741  0.0058  0.0272
  257HK4    H1321571  10.447   6.836   9.421  2.1078 -1.7167  1.8719
  257HK4    C2521572  10.482   6.888   9.626 -0.2044  0.5718  0.2008
  257HK4    H1221573  10.567   6.820   9.636 -0.6235 -0.6358 -3.3505
  257HK4    C2421574  10.437   6.963   9.733 -0.4200  0.3907  0.2376
  257HK4    H1121575  10.517   7.010   9.792 -0.5408  0.3580  0.4253
  257HK4    C2321576  10.317   7.035   9.735 -0.3170  0.5662  0.2283
  257HK4    H1021577  10.306   7.119   9.803  2.9531  1.5285 -0.3015
  257HK4    C3921578  10.091   7.234   9.656  0.1277  0.1803  0.2924
  257HK4    C4121579  10.072   7.221   9.795  0.4258  0.0149  0.3181
  257HK4    H2121580  10.072   7.117   9.832  1.0506  0.7158  2.3887
  257HK4    C4221581  10.056   7.328   9.882  0.4576  0.2090  0.0827
  257HK4    H2221582  10.072   7.315   9.990  0.9766 -1.3055 -0.1744
  257HK4    C4321583  10.051   7.455   9.826  0.0768  0.0263 -0.2995
  257HK4    H2321584  10.034   7.540   9.892 -0.9310 -0.1140 -0.3696
  257HK4    C4421585  10.058   7.473   9.688  0.3273 -0.2307 -0.3207
  257HK4    H2421586  10.028   7.565   9.637 -0.4225  0.4908  1.3876
  257HK4    C4521587  10.077   7.364   9.604 -0.1589 -0.1710 -0.5057
  257HK4    H2521588  10.061   7.386   9.497  0.1271  0.4681 -0.4219
  258HK4    H2821589  10.492  10.085   2.125  1.1275  1.2330 -0.1025
  258HK4    C4821590  10.484  10.095   2.016 -0.3965  0.3639 -0.0849
  258HK4    C4721591  10.590  10.159   1.953  0.4332 -0.6536  0.2558
  258HK4    H2721592  10.679  10.184   2.011  0.3541  2.4406 -0.8925
  258HK4    C4621593  10.588  10.162   1.814  0.4371  0.0515  0.2694
  258HK4    H2621594  10.655  10.230   1.760 -1.2546  0.6062 -1.2035
  258HK4    C4021595  10.504  10.079   1.736  0.2703  0.1140  0.3883
  258HK4    C5021596  10.397  10.016   1.803  0.3371 -0.1461  0.2569
  258HK4    H3021597  10.333   9.946   1.747  0.8644 -1.1401  0.8872
  258HK4    C4921598  10.387  10.031   1.941 -0.1760 -0.3660  0.2438
  258HK4    H2921599  10.302   9.990   1.998 -0.9854 -2.5518 -2.4141
  258HK4     N221600  10.525  10.051   1.601  0.2197  0.7423  0.2474
  258HK4    C3021601  10.651  10.040   1.539 -0.0775 -0.0209 -0.2329
  258HK4    C2921602  10.777  10.048   1.598 -0.1335  0.1150 -0.1355
  258HK4    H1521603  10.797  10.061   1.705 -0.6512 -2.5036  0.3164
  258HK4    C2821604  10.892  10.018   1.527 -0.1917  0.5256 -0.3967
  258HK4    C2721605  10.879   9.982   1.392  0.8724 -0.2513 -0.2974
  258HK4    H1421606  10.971   9.956   1.336  1.6065 -0.2374  0.8753
  258HK4    C3221607  10.756   9.976   1.328  0.5632  0.3368  0.2345
  258HK4    H1621608  10.743   9.942   1.225  0.2539 -2.8587  1.2999
  258HK4    C3121609  10.640   9.992   1.403  0.1753  0.2247 -0.3414
  258HK4    C3421610  10.498   9.985   1.376  0.0947  0.6887 -0.0391
  258HK4    C3321611  10.432  10.031   1.497  0.2079 -0.5086  0.4853
  258HK4    C3521612  10.295  10.052   1.490  0.3006  0.1238  0.4486
  258HK4    H1721613  10.239  10.098   1.572 -0.4158 -1.9470  1.1593
  258HK4    C3621614  10.227  10.017   1.373  0.6280 -0.4156  0.4218
  258HK4    H1821615  10.130  10.064   1.351  1.5940 -0.0154 -3.4026
  258HK4    C3721616  10.290   9.964   1.261  0.0630 -0.2392  0.0225
  258HK4    H1921617  10.232   9.926   1.177  3.3042 -1.2464 -1.8869
  258HK4    C3821618  10.429   9.960   1.258  0.0805  0.1521  0.0840
  258HK4    H2021619  10.483   9.946   1.164  1.2365 -0.8185  0.8779
  258HK4    C1421620  11.021  10.067   1.578 -0.0931 -0.1387 -0.0033
  258HK4     C921621  11.119  10.124   1.496 -0.0028  0.7161  0.6957
  258HK4     C821622   0.009  10.107   1.520  0.0234  0.0807  0.0888
  258HK4    C1121623   0.048  10.045   1.638 -0.1564  0.1154  0.1658
  258HK4     H421624   0.150  10.057   1.679 -0.9537  3.1006  1.4394
  258HK4    C1221625  11.202   9.994   1.727 -0.1259  0.1722  0.2289
  258HK4     H521626  11.239   9.976   1.829  2.3935  2.1972 -0.2821
  258HK4    C1321627  11.066  10.008   1.698 -0.1107 -0.1750 -0.0151
  258HK4     H621628  10.994   9.990   1.779  0.2822  0.7377  0.5476
  258HK4     C721629   0.105  10.136   1.411 -0.1694  0.2856 -0.0224
  258HK4     O221630   0.223  10.153   1.440 -0.1047  0.1177 -0.1845
  258HK4     C421631   0.048  10.191   1.286 -0.4541 -0.2232 -0.1167
  258HK4     C321632   0.133  10.193   1.176 -0.3969  0.3489 -0.0658
  258HK4     H321633   0.236  10.158   1.191 -1.0712 -2.7939 -2.1130
  258HK4     C221634   0.094  10.250   1.055  0.3612  0.7818 -0.1090
  258HK4     H221635   0.162  10.253   0.969  0.3796 -0.3445 -0.1446
  258HK4     C121636  11.221  10.318   1.052 -0.0703  0.0396  0.1103
  258HK4     H121637  11.194  10.380   0.965  2.3740 -1.2185 -1.6094
  258HK4     C621638  11.134  10.324   1.163 -0.1616  0.1074  0.0330
  258HK4     C521639  11.169  10.253   1.278 -0.3270  0.0644  0.0585
  258HK4    C1021640  11.075  10.214   1.386 -0.3676 -0.5205 -0.1816
  258HK4     O121641  10.979  10.285   1.418  0.1219  0.1338 -0.1524
  258HK4    C1621642  11.002  10.383   1.132  0.1957  0.6228 -0.5107
  258HK4    C1521643  10.943  10.383   1.004 -0.0874 -0.2330 -0.3821
  258HK4     H721644  10.961  10.292   0.944  1.2350 -0.2366  0.0053
  258HK4    C2021645  10.855  10.478   0.955 -0.2172 -0.1291  0.0550
  258HK4     H921646  10.804  10.468   0.859 -0.4778 -1.6676  0.3340
  258HK4    C1921647  10.817  10.583   1.037  0.1582  0.0180  0.0413
  258HK4    C1821648  10.892  10.600   1.160  0.0991 -0.5232  0.1499
  258HK4    C1721649  10.971  10.495   1.207 -0.0134 -0.3142  0.8108
  258HK4     H821650  11.038  10.520   1.289  0.0373 -0.2753  0.7565
  258HK4     N121651  10.868  10.728   1.215  0.5275 -0.3201 -0.1356
  258HK4    C2121652  10.763  10.786   1.140  0.4047 -0.0700  0.2262
  258HK4    C2221653  10.738  10.704   1.023 -0.3148 -0.2366  0.4913
  258HK4    C2621654  10.678  10.763   0.912  1.1541  0.3331 -0.0177
  258HK4    H1321655  10.690  10.709   0.818 -0.5329 -0.0782 -0.0067
  258HK4    C2521656  10.621  10.889   0.915  0.2440 -0.0809  0.3991
  258HK4    H1221657  10.565  10.921   0.827 -0.1403  0.0461  0.6927
  258HK4    C2421658  10.632  10.959   1.035  0.2891  0.1143  0.2802
  258HK4    H1121659  10.581  11.055   1.049 -1.5460 -0.7548 -0.2532
  258HK4    C2321660  10.707  10.913   1.142  0.1993 -0.1611  0.2224
  258HK4    H1021661  10.694  10.970   1.234  0.3739  0.7992 -0.3512
  258HK4    C3921662  10.893  10.775   1.344  0.0414  0.2342 -0.2438
  258HK4    C4121663  10.911  10.682   1.448 -0.7780 -0.0881 -0.3867
  258HK4    H2121664  10.847  10.593   1.441 -0.8333 -0.1079  0.3489
  258HK4    C4221665  10.998  10.696   1.556 -0.6457 -0.0331 -0.4996
  258HK4    H2221666  11.000  10.621   1.636 -0.2349  1.1819  0.6500
  258HK4    C4321667  11.072  10.814   1.563  0.2226 -0.5820 -0.4699
  258HK4    H2321668  11.128  10.827   1.656 -3.4148 -0.3166  1.7630
  258HK4    C4421669  11.053  10.916   1.472  0.4843 -0.2234 -0.1237
  258HK4    H2421670  11.098  11.015   1.491  0.6195 -0.3444  0.1912
  258HK4    C4521671  10.968  10.893   1.365 -0.0054  0.1885  0.1760
  258HK4    H2521672  10.987  10.958   1.278  1.3536 -1.6005 -0.8997
  259HK4    H2821673  10.388   0.797   4.899 -0.4756 -1.7318  0.3556
  259HK4    C4821674  10.445   0.784   4.807  0.1775  0.1199  0.4723
  259HK4    C4721675  10.479   0.656   4.764 -0.0173  0.3399 -0.3370
  259HK4    H2721676  10.437   0.570   4.817  1.0248 -0.6862 -1.1688
  259HK4    C4621677  10.553   0.646   4.646  0.3462  0.0355 -0.0838
  259HK4    H2621678  10.562   0.549   4.595  2.0337  0.4783 -0.6382
  259HK4    C4021679  10.596   0.755   4.568 -0.1455  0.3436  0.0721
  259HK4    C5021680  10.561   0.883   4.616  0.4065  0.4716  0.1455
  259HK4    H3021681  10.603   0.974   4.571  2.3630 -0.2960  0.3656
  259HK4    C4921682  10.481   0.894   4.729  0.1149 -0.1885  0.0073
  259HK4    H2921683  10.437   0.990   4.758  0.8679  0.8533 -2.1689
  259HK4     N221684  10.672   0.747   4.451 -0.2165 -0.2760  0.0657
  259HK4    C3021685  10.671   0.847   4.351  0.3722 -0.1478  0.1898
  259HK4    C2921686  10.566   0.923   4.302  0.3223 -0.5047 -0.2470
  259HK4    H1521687  10.474   0.924   4.360  0.9810 -0.6186  0.8161
  259HK4    C2821688  10.578   0.993   4.182  0.2343  0.0073  0.0426
  259HK4    C2721689  10.699   0.986   4.110  0.1514  0.3117 -0.1288
  259HK4    H1421690  10.710   1.046   4.018 -1.1264  1.4297  0.4336
  259HK4    C3221691  10.808   0.915   4.160 -0.0754  0.3636  0.4384
  259HK4    H1621692  10.905   0.922   4.112 -0.5338 -1.0641 -0.7458
  259HK4    C3121693  10.795   0.840   4.276  0.2017 -0.4543 -0.0596
  259HK4    C3421694  10.853   0.712   4.313  0.5799 -0.1651  0.3360
  259HK4    C3321695  10.781   0.661   4.428  0.0697  0.0702  0.1223
  259HK4    C3521696  10.804   0.527   4.459 -0.1366  0.0575  0.2185
  259HK4    H1721697  10.770   0.490   4.556 -1.8561  2.1045  0.4578
  259HK4    C3621698  10.886   0.445   4.382  0.1676  0.1223  0.4748
  259HK4    H1821699  10.888   0.338   4.406 -1.2949 -0.2858 -1.1329
  259HK4    C3721700  10.961   0.498   4.278 -0.0564 -0.0661  0.2197
  259HK4    H1921701  11.019   0.426   4.220 -0.5665 -1.1184  0.9911
  259HK4    C3821702  10.940   0.630   4.241  0.1974 -0.1302 -0.1618
  259HK4    H2021703  10.997   0.658   4.153  2.2662 -1.5010  0.7004
  259HK4    C1421704  10.462   1.036   4.103  0.3043  0.0485 -0.0360
  259HK4     C921705  10.441   1.038   3.964 -0.5020 -0.9062  0.0658
  259HK4     C821706  10.362   1.136   3.902 -0.0457 -0.3792  0.3159
  259HK4    C1121707  10.287   1.219   3.985 -0.0074  0.0447 -0.0674
  259HK4     H421708  10.207   1.276   3.936 -0.1996 -0.0682  0.1132
  259HK4    C1221709  10.298   1.213   4.124  0.0527 -0.2767 -0.0856
  259HK4     H521710  10.227   1.266   4.189  1.0299  1.3980 -0.3669
  259HK4    C1321711  10.384   1.121   4.183  0.7642  0.4446 -0.0088
  259HK4     H621712  10.392   1.134   4.292  0.3825  0.2766  0.0374
  259HK4     C721713  10.380   1.162   3.758 -0.1992 -0.3210  0.3058
  259HK4     O221714  10.308   1.243   3.702  0.9232  0.3772 -0.1543
  259HK4     C421715  10.472   1.073   3.683 -0.3724 -0.0694 -0.2115
  259HK4     C321716  10.528   1.124   3.566 -0.0953 -0.4207 -0.2352
  259HK4     H321717  10.514   1.230   3.541  0.9862 -0.5985 -1.6427
  259HK4     C221718  10.613   1.043   3.492  0.0270 -0.2869 -0.2425
  259HK4     H221719  10.649   1.089   3.399  2.7233 -0.6268  0.5816
  259HK4     C121720  10.636   0.913   3.534 -0.0345 -0.1393  0.2503
  259HK4     H121721  10.727   0.868   3.491  0.9265  1.1945  0.8445
  259HK4     C621722  10.575   0.858   3.649 -0.6157  0.0753  0.0405
  259HK4     C521723  10.497   0.942   3.729 -0.1500  0.1794  0.3881
  259HK4    C1021724  10.487   0.926   3.877  1.0091 -0.5609  0.3948
  259HK4     O121725  10.485   0.810   3.917  0.3381 -0.4783  0.6125
  259HK4    C1621726  10.619   0.721   3.680  0.0321  0.1908 -0.3750
  259HK4    C1521727  10.755   0.684   3.672  0.2136  0.6010  0.7145
  259HK4     H721728  10.829   0.764   3.660  1.1740 -0.7693 -3.6425
  259HK4    C2021729  10.792   0.550   3.670 -0.3369  0.4462  0.8900
  259HK4     H921730  10.897   0.522   3.669 -0.2489  0.7925 -0.6102
  259HK4    C1921731  10.699   0.446   3.667  0.2945 -0.1228  0.9691
  259HK4    C1821732  10.560   0.485   3.673  0.2690  0.1177 -0.9784
  259HK4    C1721733  10.526   0.619   3.688  0.2891 -0.0042  0.1928
  259HK4     H821734  10.423   0.644   3.715  0.2881  0.8433 -0.5671
  259HK4     N121735  10.477   0.372   3.690  0.3448  0.2354  0.1574
  259HK4    C2121736  10.562   0.261   3.670  0.0047 -0.0569  0.3220
  259HK4    C2221737  10.701   0.301   3.675  0.0195 -0.1501  0.5754
  259HK4    C2621738  10.805   0.211   3.659  0.1441  0.1084 -0.0719
  259HK4    H1321739  10.908   0.246   3.652 -0.0584  0.2677 -3.1324
  259HK4    C2521740  10.779   0.079   3.623 -0.2727  0.0901  0.2894
  259HK4    H1221741  10.854   0.000   3.615  0.4882  0.6418  1.8622
  259HK4    C2421742  10.646   0.041   3.614 -0.2180 -0.0089 -0.1511
  259HK4    H1121743  10.626  11.201   3.550 -0.2680 -0.6918  0.7961
  259HK4    C2321744  10.541   0.130   3.630 -0.1285  0.0771 -0.0528
  259HK4    H1021745  10.448   0.074   3.638 -1.3922  2.0994 -0.2174
  259HK4    C3921746  10.346   0.372   3.740  0.3789  0.0453  0.2533
  259HK4    C4121747  10.250   0.279   3.697  0.4924 -0.1259  0.3721
  259HK4    H2121748  10.218   0.275   3.591 -2.9645 -0.0007  1.3353
  259HK4    C4221749  10.158   0.219   3.782 -0.4842  0.1511 -0.4644
  259HK4    H2221750  10.108   0.127   3.749 -3.6334  1.1932  1.2540
  259HK4    C4321751  10.157   0.264   3.913 -0.1076  0.2029 -0.4773
  259HK4    H2321752  10.066   0.232   3.966  1.4855 -1.7526  1.1537
  259HK4    C4421753  10.231   0.373   3.957  0.0623 -0.0870 -0.0411
  259HK4    H2421754  10.201   0.426   4.049  1.2932  0.5759 -0.0029
  259HK4    C4521755  10.323   0.428   3.868 -0.0052  0.2499  0.0948
  259HK4    H2521756  10.377   0.519   3.894 -0.2815  0.1624  0.9730
  260HK4    H2821757   6.272   8.730   8.430  0.7285  2.3925  1.7964
  260HK4    C4821758   6.337   8.660   8.484 -0.5015 -0.0285  0.2558
  260HK4    C4721759   6.467   8.696   8.517 -0.5370  0.0820  0.2741
  260HK4    H2721760   6.498   8.801   8.518  0.4428 -0.1766 -1.4615
  260HK4    C4621761   6.542   8.597   8.579  0.1971  0.0440 -0.6721
  260HK4    H2621762   6.650   8.618   8.575 -0.0306  1.3588  0.0932
  260HK4    C4021763   6.494   8.469   8.614  0.0718  0.3291  0.2039
  260HK4    C5021764   6.363   8.439   8.573  0.3623 -0.2002 -0.3556
  260HK4    H3021765   6.322   8.340   8.594 -1.0197  0.6759  1.2010
  260HK4    C4921766   6.284   8.534   8.508 -0.0301 -0.2716  0.0179
  260HK4    H2921767   6.188   8.505   8.462 -0.2381 -1.5556  1.2444
  260HK4     N221768   6.558   8.390   8.710  0.2212 -0.1358 -0.2717
  260HK4    C3021769   6.652   8.433   8.807 -0.0247  0.2837 -0.2158
  260HK4    C2921770   6.673   8.559   8.861 -0.3661  0.3083 -0.1470
  260HK4    H1521771   6.600   8.636   8.837  0.2881  1.1217  0.4647
  260HK4    C2821772   6.756   8.592   8.967 -0.3868  0.2464 -0.1098
  260HK4    C2721773   6.827   8.480   9.017  0.1388  0.4019 -0.5004
  260HK4    H1421774   6.901   8.500   9.096 -0.4893 -2.1531  0.7804
  260HK4    C3221775   6.819   8.351   8.965 -0.3449  0.4748 -0.6031
  260HK4    H1621776   6.883   8.274   9.008 -0.9239  0.4594  0.2389
  260HK4    C3121777   6.732   8.324   8.860 -0.4587 -0.1090 -0.3589
  260HK4    C3421778   6.686   8.206   8.789 -0.2687 -0.4982  0.1597
  260HK4    C3321779   6.582   8.252   8.698 -0.3351 -0.2890  0.3405
  260HK4    C3521780   6.518   8.157   8.620  1.0951 -0.2917 -0.8337
  260HK4    H1721781   6.468   8.195   8.531 -0.9779  2.4881  1.4548
  260HK4    C3621782   6.554   8.023   8.632  0.5384 -0.4020 -0.4300
  260HK4    H1821783   6.510   7.944   8.570 -0.3695  0.7540 -1.2799
  260HK4    C3721784   6.651   7.981   8.722  0.3644 -0.1634 -0.1271
  260HK4    H1921785   6.669   7.874   8.736 -2.8499 -1.1910 -3.1230
  260HK4    C3821786   6.721   8.072   8.801  0.3371 -0.3470  0.1091
  260HK4    H2021787   6.808   8.044   8.860 -0.3447  0.1861  1.3729
  260HK4    C1421788   6.801   8.730   8.991 -0.1977  0.1197  0.2830
  260HK4     C921789   6.931   8.762   9.030 -0.1322  0.3286 -0.1087
  260HK4     C821790   6.952   8.876   9.110 -0.3369  0.6536 -0.5108
  260HK4    C1121791   6.841   8.954   9.140 -0.5150 -0.0414  0.7003
  260HK4     H421792   6.860   9.046   9.196  0.5377 -1.2449  2.3778
  260HK4    C1221793   6.710   8.926   9.102 -0.4930  0.1943  0.4526
  260HK4     H521794   6.626   8.984   9.142 -0.9406  0.5542 -0.9983
  260HK4    C1321795   6.694   8.818   9.017 -0.0306  0.3657  0.1393
  260HK4     H621796   6.610   8.829   8.946 -0.0297  0.4813  0.1568
  260HK4     C721797   7.085   8.915   9.164 -0.2449  0.1324 -0.3525
  260HK4     O221798   7.111   9.034   9.179 -0.1455  0.0094  0.4482
  260HK4     C421799   7.190   8.811   9.156 -0.1973  0.2001 -0.6081
  260HK4     C321800   7.309   8.838   9.223 -0.2442 -0.4049 -0.2802
  260HK4     H321801   7.310   8.908   9.308  1.1757  1.8772 -2.1124
  260HK4     C221802   7.421   8.760   9.201  0.0982  0.1117 -0.3663
  260HK4     H221803   7.520   8.789   9.240 -0.4238  1.2570  0.1269
  260HK4     C121804   7.409   8.654   9.112  0.6379 -0.4140  0.1721
  260HK4     H121805   7.500   8.597   9.088  1.2744  0.5737  0.2182
  260HK4     C621806   7.287   8.615   9.052  0.2118  0.4463  0.4698
  260HK4     C521807   7.179   8.703   9.066 -0.3246 -0.0901 -0.2401
  260HK4    C1021808   7.052   8.684   8.991 -0.4520 -0.2237  0.0042
  260HK4     O121809   7.055   8.640   8.876 -0.1632  0.1464 -0.1295
  260HK4    C1621810   7.276   8.469   9.062  0.1289  0.4455  0.3617
  260HK4    C1521811   7.313   8.400   9.179  0.0548 -0.5510 -0.1979
  260HK4     H721812   7.343   8.465   9.262  2.0294 -0.1537 -1.1850
  260HK4    C2021813   7.333   8.262   9.180 -0.1778 -0.5814  0.4933
  260HK4     H921814   7.360   8.213   9.274  0.0593 -2.3910 -0.4893
  260HK4    C1921815   7.321   8.192   9.060  0.3105  0.0568  0.0722
  260HK4    C1821816   7.284   8.264   8.940 -0.3469 -0.2006  0.1213
  260HK4    C1721817   7.255   8.400   8.943  0.0074 -0.1339  0.7142
  260HK4     H821818   7.239   8.451   8.847  0.8362  0.2770  0.7961
  260HK4     N121819   7.277   8.180   8.827 -0.1088 -0.0386 -0.0138
  260HK4    C2121820   7.298   8.050   8.878 -0.0684  0.0866  0.2882
  260HK4    C2221821   7.326   8.053   9.020  0.4255  0.0246  0.1936
  260HK4    C2621822   7.374   7.937   9.079  0.7682  0.0188 -0.1008
  260HK4    H1321823   7.373   7.932   9.188 -1.0967 -0.5612 -0.1301
  260HK4    C2521824   7.414   7.825   9.006  0.4786 -0.0628 -0.1335
  260HK4    H1221825   7.460   7.737   9.050  1.5765  0.4616 -0.2278
  260HK4    C2421826   7.390   7.824   8.869 -0.1744 -0.4467 -0.0186
  260HK4    H1121827   7.426   7.745   8.802  0.8383  1.4477 -1.7847
  260HK4    C2321828   7.321   7.931   8.811  0.6621  0.2461  0.2553
  260HK4    H1021829   7.322   7.933   8.702  0.9475  1.5274  0.2801
  260HK4    C3921830   7.212   8.207   8.706  0.0499 -0.2949 -0.1574
  260HK4    C4121831   7.248   8.145   8.585 -0.3387 -0.6631 -0.0795
  260HK4    H2121832   7.348   8.101   8.582 -0.4729 -1.0695  1.1387
  260HK4    C4221833   7.160   8.139   8.477  0.1337 -0.0866 -0.5009
  260HK4    H2221834   7.188   8.086   8.385  1.6272  0.2590 -0.2490
  260HK4    C4321835   7.033   8.195   8.490 -0.0151 -0.5169 -0.0964
  260HK4    H2321836   6.958   8.191   8.412  0.6394 -3.5184 -0.6281
  260HK4    C4421837   6.991   8.252   8.610  0.3920  0.3402 -0.3615
  260HK4    H2421838   6.893   8.300   8.620  0.8079  0.9721  0.8549
  260HK4    C4521839   7.082   8.259   8.715  0.1721  0.0126 -0.1516
  260HK4    H2521840   7.048   8.306   8.809 -1.3004  1.3554 -1.3206
  261HK4    H2821841   5.346   7.734   6.885 -1.2361 -1.3885 -0.2782
  261HK4    C4821842   5.448   7.694   6.882 -0.6761  0.0549 -0.7170
  261HK4    C4721843   5.483   7.569   6.931 -0.2580  0.4234 -0.0753
  261HK4    H2721844   5.405   7.501   6.969 -0.3239  0.5868  0.0860
  261HK4    C4621845   5.616   7.528   6.923 -0.1397  0.6500  0.6797
  261HK4    H2621846   5.651   7.448   6.990 -1.6090  0.5146  1.3172
  261HK4    C4021847   5.718   7.612   6.874 -0.0432 -0.0297 -0.2790
  261HK4    C5021848   5.680   7.741   6.832 -0.3213 -0.0873 -0.1976
  261HK4    H3021849   5.747   7.802   6.771 -0.3226 -0.6227 -0.7459
  261HK4    C4921850   5.546   7.778   6.829 -0.2638  0.1543  0.1964
  261HK4    H2921851   5.520   7.882   6.803 -0.4535 -0.1247 -0.7289
  261HK4     N221852   5.844   7.560   6.842 -0.2987 -0.4334 -0.6357
  261HK4    C3021853   5.960   7.637   6.823 -0.3957  0.0593  0.7015
  261HK4    C2921854   5.996   7.761   6.876  0.2483 -0.1339  0.7218
  261HK4    H1521855   5.921   7.833   6.909  0.2256  0.2361 -0.1138
  261HK4    C2821856   6.129   7.798   6.892  0.2464  0.4073 -0.4321
  261HK4    C2721857   6.231   7.719   6.836  0.5277  0.2408  0.3069
  261HK4    H1421858   6.333   7.757   6.821  1.5833 -2.6162 -0.0431
  261HK4    C3221859   6.201   7.598   6.775 -0.0260  0.2147  0.6224
  261HK4    H1621860   6.278   7.542   6.721 -1.3787 -2.3971  1.3078
  261HK4    C3121861   6.069   7.554   6.777 -0.1508  0.5787  0.3286
  261HK4    C3421862   6.023   7.416   6.782 -0.0837  0.5122 -0.6882
  261HK4    C3321863   5.887   7.426   6.830  0.0451 -0.3746 -0.1335
  261HK4    C3521864   5.823   7.304   6.854  0.0145 -0.3601 -0.1349
  261HK4    H1721865   5.728   7.291   6.906  0.1154  1.0795  0.4284
  261HK4    C3621866   5.890   7.183   6.845  0.1409 -0.3192  0.2845
  261HK4    H1821867   5.835   7.089   6.866  0.6208 -0.5222  0.6312
  261HK4    C3721868   6.024   7.182   6.810  0.1305  0.0437  0.2289
  261HK4    H1921869   6.072   7.086   6.792 -0.1633 -0.1483  0.4674
  261HK4    C3821870   6.092   7.296   6.770 -0.2765  0.2990  0.2575
  261HK4    H2021871   6.200   7.297   6.755 -0.2908 -0.5772  0.0961
  261HK4    C1421872   6.164   7.919   6.969 -0.0495  0.1365  0.1300
  261HK4     C921873   6.280   7.994   6.948 -0.1434  0.2718  0.0978
  261HK4     C821874   6.359   8.036   7.057 -0.5635 -0.0362  0.5199
  261HK4    C1121875   6.306   8.014   7.184 -0.1219 -0.0763  0.6988
  261HK4     H421876   6.369   8.038   7.271 -0.7248  2.7592  0.4232
  261HK4    C1221877   6.178   7.967   7.210 -0.3499  0.1318 -0.0448
  261HK4     H521878   6.123   7.967   7.305  1.0680  0.7710  0.7948
  261HK4    C1321879   6.108   7.921   7.099 -0.0165 -0.8957  0.1638
  261HK4     H621880   6.016   7.862   7.111 -0.1877 -0.7815 -0.5381
  261HK4     C721881   6.483   8.115   7.045 -0.1750 -0.7105 -0.0038
  261HK4     O221882   6.551   8.144   7.144  0.0409  0.1967 -0.4166
  261HK4     C421883   6.533   8.146   6.910 -0.3396  0.0961  0.1116
  261HK4     C321884   6.657   8.206   6.886 -0.0352 -0.7381 -0.4431
  261HK4     H321885   6.705   8.251   6.974 -0.4729 -0.1410 -0.5051
  261HK4     C221886   6.717   8.221   6.762 -0.6579  0.7872 -0.5743
  261HK4     H221887   6.814   8.270   6.749  1.0116 -2.1315  0.3512
  261HK4     C121888   6.648   8.163   6.656  0.3124 -0.5159 -0.5106
  261HK4     H121889   6.703   8.165   6.561  0.2491  0.5384 -0.5295
  261HK4     C621890   6.527   8.093   6.673 -0.1962  0.4055 -0.3224
  261HK4     C521891   6.467   8.089   6.799  0.1250  0.1113 -0.1763
  261HK4    C1021892   6.329   8.034   6.813  0.0094  0.5019  0.2213
  261HK4     O121893   6.242   8.069   6.734  0.2757  0.0215 -0.2909
  261HK4    C1621894   6.481   8.017   6.556 -0.0711  0.2120 -0.2453
  261HK4    C1521895   6.418   7.891   6.570  0.1214  0.1141 -0.2624
  261HK4     H721896   6.450   7.829   6.655  0.0610  1.1055  0.4880
  261HK4    C2021897   6.336   7.833   6.474  0.0552  0.1623 -0.2350
  261HK4     H921898   6.272   7.749   6.500  1.3628 -1.3392 -1.7197
  261HK4    C1921899   6.317   7.896   6.351 -0.1922  0.1423 -0.2077
  261HK4    C1821900   6.382   8.023   6.330 -0.5891  0.3636 -0.1017
  261HK4    C1721901   6.460   8.076   6.432 -0.1651  0.0975 -0.2843
  261HK4     H821902   6.520   8.165   6.411  0.0067  0.3221  1.0868
  261HK4     N121903   6.351   8.074   6.202  0.1018  0.0774 -0.3873
  261HK4    C2121904   6.272   7.976   6.139 -0.1953  0.0233  0.0720
  261HK4    C2221905   6.248   7.863   6.227 -0.1523 -0.1609 -0.1510
  261HK4    C2621906   6.174   7.756   6.179 -0.4892 -0.0996  0.2279
  261HK4    H1321907   6.159   7.672   6.246 -2.7574  0.5524  0.5670
  261HK4    C2521908   6.132   7.752   6.047 -0.0335  0.2549  0.0700
  261HK4    H1221909   6.068   7.668   6.018 -1.4447  1.0705  0.7822
  261HK4    C2421910   6.164   7.854   5.959  0.1384  0.0567 -0.0976
  261HK4    H1121911   6.144   7.837   5.852 -1.9576  2.3302 -0.0959
  261HK4    C2321912   6.231   7.967   6.007  0.1682  0.0153 -0.0400
  261HK4    H1021913   6.238   8.058   5.948  0.1738 -0.2187 -0.4047
  261HK4    C3921914   6.349   8.211   6.173 -0.5200  0.2547  0.4861
  261HK4    C4121915   6.355   8.247   6.037 -0.6454 -0.4055  0.3046
  261HK4    H2121916   6.404   8.191   5.956  1.5090  1.8238 -0.0017
  261HK4    C4221917   6.309   8.370   5.990  0.1358 -0.3996 -0.4776
  261HK4    H2221918   6.316   8.401   5.885  0.0771  1.0901 -0.0487
  261HK4    C4321919   6.253   8.453   6.087  0.2168 -0.6935 -0.1785
  261HK4    H2321920   6.231   8.556   6.057  1.0608 -0.8494 -1.3803
  261HK4    C4421921   6.249   8.424   6.223 -0.2925  0.5587  0.0798
  261HK4    H2421922   6.205   8.497   6.293 -1.1136  0.2004 -0.0553
  261HK4    C4521923   6.295   8.301   6.268 -0.4156  0.5713  0.2439
  261HK4    H2521924   6.294   8.268   6.372  2.7950 -1.2619 -0.2351
  262HK4    H2821925   3.130   5.404   6.560  1.7289  0.3747  0.0730
  262HK4    C4821926   3.173   5.335   6.632  0.4617  0.0493  0.5244
  262HK4    C4721927   3.156   5.364   6.767  0.5635  0.6589  0.4071
  262HK4    H2721928   3.090   5.448   6.794 -0.3899  0.7541 -2.0970
  262HK4    C4621929   3.209   5.280   6.865 -0.0349  0.0574  0.2148
  262HK4    H2621930   3.202   5.317   6.968 -1.4295 -0.1268  0.2030
  262HK4    C4021931   3.276   5.161   6.830 -0.1384  0.0487  0.0392
  262HK4    C5021932   3.286   5.135   6.692  0.2442  0.1928  0.0412
  262HK4    H3021933   3.341   5.049   6.651 -0.8417 -1.1784  1.4269
  262HK4    C4921934   3.234   5.217   6.592  0.1518  0.0661 -0.0137
  262HK4    H2921935   3.230   5.189   6.486 -2.3536  0.4063 -0.0293
  262HK4     N221936   3.374   5.106   6.914  0.0443 -0.1703 -0.3148
  262HK4    C3021937   3.455   5.167   7.012  0.1505 -0.1301 -0.4276
  262HK4    C2921938   3.498   5.299   7.017  0.8938 -0.3758 -0.1787
  262HK4    H1521939   3.461   5.370   6.942 -0.6165  1.4759  2.2319
  262HK4    C2821940   3.591   5.348   7.107  0.1855  0.1058  0.3020
  262HK4    C2721941   3.653   5.253   7.191 -0.3227 -0.3884  0.1222
  262HK4    H1421942   3.717   5.292   7.272 -0.3691 -1.8631  0.8931
  262HK4    C3221943   3.614   5.120   7.190 -0.0502 -0.4693  0.2274
  262HK4    H1621944   3.666   5.046   7.251 -0.6447 -2.2104 -1.2963
  262HK4    C3121945   3.519   5.072   7.101 -0.0666  0.0741 -0.0507
  262HK4    C3421946   3.473   4.941   7.057 -0.0920 -0.0683  0.4000
  262HK4    C3321947   3.392   4.968   6.940  0.3565 -0.0525  0.0946
  262HK4    C3521948   3.348   4.863   6.861 -0.0184  0.1770 -0.0058
  262HK4    H1721949   3.287   4.878   6.772 -0.0469 -2.5922 -0.4933
  262HK4    C3621950   3.381   4.734   6.900 -0.0016  0.1120 -0.2331
  262HK4    H1821951   3.348   4.647   6.841  0.5341 -0.3785  0.1820
  262HK4    C3721952   3.451   4.712   7.018  0.3342  0.6576 -0.3298
  262HK4    H1921953   3.477   4.608   7.041  0.3836  0.1533 -2.5186
  262HK4    C3821954   3.497   4.812   7.103 -0.1893  0.0231  0.7105
  262HK4    H2021955   3.553   4.783   7.191  2.8662  0.0983 -1.1326
  262HK4    C1421956   3.622   5.492   7.110 -0.1821  0.1914  0.0527
  262HK4     C921957   3.737   5.549   7.166 -0.1441 -0.2565  0.4314
  262HK4     C821958   3.731   5.657   7.256  0.0907  0.2387 -0.1407
  262HK4    C1121959   3.610   5.723   7.274  0.2174  0.4774 -0.1727
  262HK4     H421960   3.605   5.793   7.360 -0.7306 -0.4198  0.5065
  262HK4    C1221961   3.500   5.687   7.197 -0.0006  0.1488  0.2885
  262HK4     H521962   3.404   5.740   7.193  0.3735  0.7810 -0.5000
  262HK4    C1321963   3.506   5.570   7.123 -0.4261 -0.3124  0.9762
  262HK4     H621964   3.417   5.547   7.063  0.3211 -1.2848  0.2236
  262HK4     C721965   3.854   5.728   7.295  0.0014  0.3609 -0.0811
  262HK4     O221966   3.856   5.761   7.413 -0.2371  0.3865 -0.0840
  262HK4     C421967   3.975   5.713   7.210 -0.1666 -0.1267 -0.2338
  262HK4     C321968   4.081   5.798   7.240 -0.1816 -0.0694 -0.3442
  262HK4     H321969   4.071   5.856   7.332 -0.2680 -1.5093  0.5795
  262HK4     C221970   4.194   5.799   7.159  0.1628 -0.3912  0.1316
  262HK4     H221971   4.284   5.851   7.196 -0.5420  1.3602 -0.5588
  262HK4     C121972   4.190   5.717   7.046 -0.1019  0.0236 -0.1609
  262HK4     H121973   4.280   5.722   6.984 -1.2978 -0.6682 -1.9632
  262HK4     C621974   4.086   5.632   7.005 -0.2335  0.1345 -0.0645
  262HK4     C521975   3.980   5.631   7.096  0.0041 -0.7210  0.2018
  262HK4    C1021976   3.866   5.534   7.092 -0.3398 -0.3121  0.1004
  262HK4     O121977   3.891   5.419   7.059  0.0672 -0.2162  0.0727
  262HK4    C1621978   4.105   5.567   6.874 -0.1953 -0.2019  0.1101
  262HK4    C1521979   4.234   5.544   6.823 -0.1772 -0.6820  0.3588
  262HK4     H721980   4.324   5.567   6.882 -1.7670  1.6137  1.9871
  262HK4    C2021981   4.259   5.495   6.695  0.2822 -0.1305  0.2325
  262HK4     H921982   4.356   5.447   6.680  0.1099 -0.3420 -0.2053
  262HK4    C1921983   4.150   5.481   6.611  0.5095 -0.0080 -0.0812
  262HK4    C1821984   4.015   5.497   6.662  0.5278 -0.1095 -0.0027
  262HK4    C1721985   3.996   5.546   6.791 -0.0508 -0.0117 -0.1277
  262HK4     H821986   3.896   5.567   6.830 -0.0748 -0.1649 -0.1045
  262HK4     N121987   3.915   5.465   6.569  0.3706  0.1278  0.0832
  262HK4    C2121988   3.989   5.435   6.453 -0.2981 -0.7197 -0.1345
  262HK4    C2221989   4.133   5.430   6.476 -0.3400 -0.4361  0.1882
  262HK4    C2621990   4.224   5.420   6.372 -0.5250 -0.0788 -0.0108
  262HK4    H1321991   4.329   5.443   6.387 -0.7097  1.8646 -1.6091
  262HK4    C2521992   4.180   5.408   6.240  0.6992  0.0327 -0.4339
  262HK4    H1221993   4.258   5.411   6.164 -0.9666 -0.2115 -2.1550
  262HK4    C2421994   4.044   5.419   6.216  0.5452  0.1113  0.4443
  262HK4    H1121995   4.007   5.416   6.112 -1.0053  3.6415  0.8251
  262HK4    C2321996   3.952   5.433   6.319 -0.1927 -0.1476 -0.1734
  262HK4    H1021997   3.847   5.429   6.289  0.0436 -0.7612 -0.9285
  262HK4    C3921998   3.799   5.396   6.605 -0.0487  0.7741 -0.0254
  262HK4    C4121999   3.688   5.385   6.518 -0.2422  0.3016  0.2821
  262HK4    H2122000   3.664   5.462   6.444  0.5615  2.6106  2.3381
  262HK4    C4222001   3.590   5.286   6.523  0.2899 -0.2478 -0.1710
  262HK4    H2222002   3.494   5.301   6.471  0.7708 -0.0399 -1.0163
  262HK4    C4322003   3.608   5.192   6.623 -0.1331 -0.0005  0.1349
  262HK4    H2322004   3.554   5.096   6.621  1.2419 -0.7791 -3.7913
  262HK4    C4422005   3.708   5.199   6.719  0.1542  0.2232 -0.1814
  262HK4    H2422006   3.719   5.138   6.810 -3.3333  0.1300  0.2611
  262HK4    C4522007   3.803   5.300   6.709  0.3317  0.0006 -0.7402
  262HK4    H2522008   3.879   5.305   6.788  0.0154  0.2726 -0.4510
  263HK4    H2822009   2.767   9.582   7.639 -1.0304  0.0091  0.3517
  263HK4    C4822010   2.806   9.639   7.724 -0.1776  0.0170 -0.0417
  263HK4    C4722011   2.780   9.597   7.854 -0.2923 -0.0155 -0.0735
  263HK4    H2722012   2.702   9.523   7.879  0.2020 -0.5446 -0.0892
  263HK4    C4622013   2.845   9.661   7.959  0.8575 -0.8851 -0.2422
  263HK4    H2622014   2.807   9.644   8.060  0.3316 -0.8276 -0.4273
  263HK4    C4022015   2.949   9.753   7.932  0.0497  0.1062 -0.0129
  263HK4    C5022016   2.970   9.794   7.798  0.5397  0.0055  0.0340
  263HK4    H3022017   3.067   9.836   7.767  1.4245 -1.7533  0.2935
  263HK4    C4922018   2.892   9.744   7.695  0.0018  0.0051  0.4417
  263HK4    H2922019   2.870   9.808   7.608 -0.3024  2.1744  2.0697
  263HK4     N222020   3.054   9.792   8.015 -0.1295  0.1907  0.1727
  263HK4    C3022021   3.091   9.728   8.135 -0.1627  0.2809  0.2318
  263HK4    C2922022   3.066   9.598   8.179  0.4354  0.0282 -0.1642
  263HK4    H1522023   3.000   9.533   8.121 -2.6574  0.2050  3.0090
  263HK4    C2822024   3.129   9.549   8.292 -0.2999  0.0018  0.2373
  263HK4    C2722025   3.229   9.626   8.355  0.0353 -0.0324 -0.2516
  263HK4    H1422026   3.294   9.576   8.428 -1.2124  3.2138  3.2465
  263HK4    C3222027   3.248   9.760   8.320  0.0086 -0.0163 -0.2143
  263HK4    H1622028   3.316   9.825   8.375  0.0259 -2.2554  2.5143
  263HK4    C3122029   3.181   9.813   8.210 -0.7810  0.6371  0.5736
  263HK4    C3422030   3.180   9.943   8.146 -0.1111  0.4340  0.1429
  263HK4    C3322031   3.109   9.922   8.022  0.5844 -0.0880 -0.1734
  263HK4    C3522032   3.080  10.037   7.949 -0.1893 -0.0711  0.1590
  263HK4    H1722033   3.011  10.034   7.865  0.5468 -1.6037 -0.4027
  263HK4    C3622034   3.115  10.166   7.989  0.0263 -0.1788  0.3246
  263HK4    H1822035   3.073  10.252   7.935 -1.0592 -0.7923  0.1743
  263HK4    C3722036   3.183  10.186   8.108  0.1978  0.3928  0.1304
  263HK4    H1922037   3.234  10.281   8.127 -1.3282  1.3898 -0.6028
  263HK4    C3822038   3.218  10.072   8.180 -0.2467  0.4138  0.3806
  263HK4    H2022039   3.306  10.084   8.242  0.2474 -1.0797 -0.0317
  263HK4    C1422040   3.097   9.423   8.360 -0.2971 -0.2907 -0.2944
  263HK4     C922041   3.135   9.385   8.490 -0.1732  0.0655 -0.2316
  263HK4     C822042   3.159   9.250   8.523 -0.2452  0.0989 -0.0321
  263HK4    C1122043   3.127   9.154   8.428  0.2314 -0.1375  0.0461
  263HK4     H422044   3.134   9.047   8.454 -0.9414 -0.1230  0.4428
  263HK4    C1222045   3.077   9.192   8.304 -0.7925 -0.5327  0.3323
  263HK4     H522046   3.077   9.109   8.232  3.5868 -1.7698  1.6184
  263HK4    C1322047   3.057   9.325   8.267  0.5648 -0.5325 -0.4119
  263HK4     H622048   3.016   9.354   8.169 -1.5146  1.1067  0.9128
  263HK4     C722049   3.253   9.211   8.630 -0.0500  0.1037 -0.2045
  263HK4     O222050   3.288   9.098   8.661 -0.1982  0.1359  0.0788
  263HK4     C422051   3.298   9.327   8.710 -0.1844 -0.0414  0.0842
  263HK4     C322052   3.400   9.309   8.804 -0.0077  0.4659 -0.0053
  263HK4     H322053   3.477   9.231   8.792  0.4978  1.0428 -0.4867
  263HK4     C222054   3.415   9.393   8.913  0.2819 -0.0220  0.3303
  263HK4     H222055   3.505   9.392   8.975 -0.5081  1.7270  1.5477
  263HK4     C122056   3.315   9.488   8.934  0.3460  0.1481 -0.1356
  263HK4     H122057   3.318   9.560   9.017 -0.7749  0.0855 -0.0404
  263HK4     C622058   3.204   9.508   8.850  0.2200 -0.4366 -0.1077
  263HK4     C522059   3.214   9.439   8.728  0.2826  0.4188 -0.5929
  263HK4    C1022060   3.136   9.477   8.607 -0.1887  0.2215 -0.3499
  263HK4     O122061   3.058   9.572   8.614 -0.0632  0.2866  0.2111
  263HK4    C1622062   3.079   9.554   8.912  0.1915 -0.3649 -0.2181
  263HK4    C1522063   3.068   9.605   9.043  0.0759 -0.7840 -0.0598
  263HK4     H722064   3.141   9.685   9.062 -0.4348  0.0250 -1.4693
  263HK4    C2022065   2.962   9.588   9.132  0.1124  0.3384  0.2076
  263HK4     H922066   2.956   9.623   9.235  0.1099  0.6848  0.0911
  263HK4    C1922067   2.847   9.524   9.087  0.0201  0.7288 -0.1123
  263HK4    C1822068   2.853   9.465   8.955  0.2249 -0.0401  0.2373
  263HK4    C1722069   2.963   9.488   8.874 -0.3154  0.5812 -0.3331
  263HK4     H822070   2.954   9.427   8.784  2.7011  1.6262 -1.4043
  263HK4     N122071   2.728   9.406   8.924  0.4145 -0.3997  0.1526
  263HK4    C2122072   2.642   9.435   9.032  0.0316  0.4144 -0.3623
  263HK4    C2222073   2.716   9.496   9.141  0.2419 -0.3008 -0.1021
  263HK4    C2622074   2.649   9.514   9.261  0.2346  0.4852 -0.2165
  263HK4    H1322075   2.702   9.549   9.350 -0.0538  0.1387  0.0919
  263HK4    C2522076   2.514   9.483   9.274  0.1760  0.5540 -0.6761
  263HK4    H1222077   2.479   9.458   9.374  0.6525  0.4209 -0.5408
  263HK4    C2422078   2.445   9.428   9.166 -0.1485  0.4298 -0.4057
  263HK4    H1122079   2.337   9.409   9.170  0.1366 -1.2487 -0.5483
  263HK4    C2322080   2.507   9.402   9.044  0.1519 -0.0062 -0.1614
  263HK4    H1022081   2.448   9.390   8.954 -2.2127  0.6527  1.2342
  263HK4    C3922082   2.678   9.356   8.804  0.5155 -0.1040 -0.0152
  263HK4    C4122083   2.731   9.403   8.682  0.0610  0.3698 -0.0311
  263HK4    H2122084   2.752   9.509   8.666  2.0219  0.0216  0.1105
  263HK4    C4222085   2.733   9.332   8.562 -0.0285 -0.6561  0.5640
  263HK4    H2222086   2.788   9.366   8.473  0.8906  0.9254  1.7017
  263HK4    C4322087   2.668   9.209   8.562  0.7073 -1.0475  0.2914
  263HK4    H2322088   2.666   9.146   8.474  3.4038 -2.8154  1.4212
  263HK4    C4422089   2.611   9.162   8.680 -0.3513  0.0695  0.2321
  263HK4    H2422090   2.592   9.054   8.687  1.0917 -0.1791  0.5819
  263HK4    C4522091   2.619   9.228   8.802 -0.5700  0.3886  0.0792
  263HK4    H2522092   2.579   9.181   8.893  1.2254  0.5357  0.9782
  264HK4    H2822093   3.742   6.479  11.040 -1.6242 -2.0604 -0.6066
  264HK4    C4822094   3.665   6.536  11.092 -0.0103  0.0856 -0.4956
  264HK4    C4722095   3.591   6.625  11.014  0.2468  0.6598 -0.0851
  264HK4    H2722096   3.622   6.652  10.912 -0.5909  0.8617 -0.2935
  264HK4    C4622097   3.491   6.698  11.076 -0.3175 -0.2615  0.1031
  264HK4    H2622098   3.414   6.744  11.011  0.6567  0.6884 -0.3961
  264HK4    C4022099   3.463   6.688  11.214 -0.1628  0.0391  0.1554
  264HK4    C5022100   3.542   6.603   0.046 -0.4736 -0.2791  0.1235
  264HK4    H3022101   3.534   6.596   0.155  0.7101  0.5791  0.2740
  264HK4    C4922102   3.637   6.526  11.228 -0.5045  0.2875 -0.5785
  264HK4    H2922103   3.694   6.455   0.041 -1.8759 -0.3173  0.0016
  264HK4     N222104   3.368   6.774   0.022 -0.4143  0.1140 -0.3803
  264HK4    C3022105   3.337   6.903  11.221  0.1283  0.2852 -0.2827
  264HK4    C2922106   3.403   6.987  11.133  0.4650 -0.2571 -0.5462
  264HK4    H1522107   3.489   6.946  11.080  1.2378  0.0570  0.4658
  264HK4    C2822108   3.357   7.117  11.111  0.0733 -0.3103 -0.0541
  264HK4    C2722109   3.257   7.171  11.194  0.3256  0.3074 -0.1538
  264HK4    H1422110   3.215   7.266  11.159  2.7600  1.1565 -0.9104
  264HK4    C3222111   3.201   7.092   0.046  0.1737  0.0489 -0.4425
  264HK4    H1622112   3.118   7.135   0.102  0.0695 -0.0445 -0.5262
  264HK4    C3122113   3.235   6.958   0.061  0.3467  0.1480  0.0565
  264HK4    C3422114   3.204   6.859   0.163 -0.2733 -0.3598 -0.6196
  264HK4    C3322115   3.287   6.744   0.134 -0.0451 -0.2999 -0.2228
  264HK4    C3522116   3.284   6.635   0.221  0.4803 -0.2435 -0.1357
  264HK4    H1722117   3.327   6.539   0.193  2.2985  0.5091 -0.0440
  264HK4    C3622118   3.202   6.640   0.332 -0.1157 -0.0694 -0.5798
  264HK4    H1822119   3.224   6.574   0.417 -0.1066 -0.2808 -0.7487
  264HK4    C3722120   3.127   6.752   0.366  0.6662  0.3849 -0.3241
  264HK4    H1922121   3.066   6.744   0.456 -0.8176 -0.6217 -1.3909
  264HK4    C3822122   3.127   6.861   0.279  0.6827  0.6549  0.0142
  264HK4    H2022123   3.061   6.945   0.300  2.0538  1.0906  2.7550
  264HK4    C1422124   3.440   7.214  11.039 -0.0463 -0.0947  0.0998
  264HK4     C922125   3.469   7.342  11.086 -0.0563 -0.1477  0.2450
  264HK4     C822126   3.466   7.460  11.008 -0.3782 -0.3086  0.0196
  264HK4    C1122127   3.454   7.447  10.870 -0.5653 -0.1701  0.0191
  264HK4     H422128   3.440   7.534  10.804 -2.1182 -0.1877  0.3152
  264HK4    C1222129   3.455   7.318  10.818 -0.2036 -0.3531  0.4803
  264HK4     H522130   3.439   7.308  10.710 -1.0408 -0.1375  0.5812
  264HK4    C1322131   3.444   7.205  10.898  0.0079 -0.6166  0.1342
  264HK4     H622132   3.463   7.106  10.853  1.9950  1.0272 -2.7897
  264HK4     C722133   3.443   7.587  11.079 -0.0942 -0.2455 -0.0026
  264HK4     O222134   3.464   7.691  11.017  0.2446 -0.6112 -0.5004
  264HK4     C422135   3.415   7.591  11.224 -0.3632  0.2083 -0.0647
  264HK4     C322136   3.359   7.707   0.029  0.2762  0.5434 -0.1048
  264HK4     H322137   3.340   7.799  11.221  0.9956  1.3043  0.9028
  264HK4     C222138   3.324   7.703   0.164 -0.4389 -0.5217 -0.3083
  264HK4     H222139   3.274   7.795   0.200  0.4259  0.7883 -2.3388
  264HK4     C122140   3.351   7.597   0.249 -0.5545 -0.1161  0.2393
  264HK4     H122141   3.329   7.607   0.356  0.3967 -1.4296  0.5763
  264HK4     C622142   3.408   7.479   0.195  0.0322  0.2497  0.0496
  264HK4     C522143   3.429   7.476   0.056  0.0999  0.3489  0.0577
  264HK4    C1022144   3.481   7.355  11.234 -0.4594 -0.0137  0.2687
  264HK4     O122145   3.584   7.305   0.031 -0.2972 -0.0835 -0.1831
  264HK4    C1622146   3.384   7.361   0.279 -0.2235  0.5898  0.4553
  264HK4    C1522147   3.256   7.344   0.336 -0.4038 -0.0559 -0.1464
  264HK4     H722148   3.185   7.428   0.326  2.1641  2.1943  0.0842
  264HK4    C2022149   3.220   7.231   0.408  0.1658 -0.0760  0.1006
  264HK4     H922150   3.118   7.224   0.446 -0.2001 -1.6000 -1.0945
  264HK4    C1922151   3.308   7.126   0.435  0.2626 -0.1781 -0.6082
  264HK4    C1822152   3.435   7.137   0.367  0.2141  0.0079 -0.6690
  264HK4    C1722153   3.469   7.254   0.299 -0.4163  0.2355 -0.6002
  264HK4     H822154   3.578   7.264   0.297 -0.3238 -0.8447 -3.9792
  264HK4     N122155   3.524   7.038   0.411  0.0409  0.0091 -0.3116
  264HK4    C2122156   3.451   6.961   0.503 -0.0726 -0.1517 -0.5351
  264HK4    C2222157   3.320   7.017   0.530  0.0551  0.0460 -0.3225
  264HK4    C2622158   3.230   6.949   0.612  0.0581  0.4639  0.0256
  264HK4    H1322159   3.137   6.991   0.651 -0.0525 -2.2429  2.8290
  264HK4    C2522160   3.259   6.821   0.658 -0.2637  0.2243 -0.4350
  264HK4    H1222161   3.192   6.757   0.716 -1.3478  2.2414  0.6128
  264HK4    C2422162   3.382   6.765   0.630 -0.3372 -0.2907  0.2677
  264HK4    H1122163   3.405   6.662   0.663 -0.4362 -0.9575 -1.6668
  264HK4    C2322164   3.478   6.837   0.560 -0.8902 -0.3539 -0.5705
  264HK4    H1022165   3.576   6.794   0.540  0.1323  1.3976  0.5096
  264HK4    C3922166   3.630   6.993   0.330 -0.0892 -0.2684 -0.3293
  264HK4    C4122167   3.734   6.923   0.394  0.1121  0.3150 -0.0100
  264HK4    H2122168   3.784   6.970   0.480 -2.0352  2.7724 -0.0370
  264HK4    C4222169   3.806   6.821   0.332  0.3829  0.3276  0.2816
  264HK4    H2222170   3.852   6.738   0.387  0.0507 -0.5804 -0.8002
  264HK4    C4322171   3.796   6.809   0.194 -0.0192 -0.1122  0.3502
  264HK4    H2322172   3.860   6.739   0.141  1.4096  0.8410  0.8128
  264HK4    C4422173   3.704   6.886   0.122  0.3369  0.0108  0.0284
  264HK4    H2422174   3.677   6.874   0.016  0.6998  1.4202 -0.2240
  264HK4    C4522175   3.621   6.973   0.191 -0.7823 -0.8544 -0.2044
  264HK4    H2522176   3.544   7.032   0.140 -2.1571 -1.4907  1.1116
  265HK4    H2822177   9.614   4.885   9.504 -1.3615  1.0378 -0.0026
  265HK4    C4822178   9.687   4.966   9.502 -0.0478 -0.1287 -0.1192
  265HK4    C4722179   9.762   4.989   9.617 -0.2212 -0.2146  0.0121
  265HK4    H2722180   9.766   4.907   9.691 -2.8302 -1.2841 -0.9818
  265HK4    C4622181   9.853   5.094   9.628 -0.1242 -0.3344  0.3961
  265HK4    H2622182   9.899   5.117   9.725 -2.3468  0.0877  1.3773
  265HK4    C4022183   9.872   5.184   9.521 -0.0647 -0.1376  0.5733
  265HK4    C5022184   9.794   5.154   9.408  0.5259 -0.3916  0.2376
  265HK4    H3022185   9.800   5.219   9.320  0.0332 -0.0867  0.4293
  265HK4    C4922186   9.705   5.048   9.392  0.2137 -0.0886 -0.0451
  265HK4    H2922187   9.636   5.036   9.307 -0.0183 -0.0767  0.1432
  265HK4     N222188   9.979   5.273   9.510 -0.1144 -0.1604 -0.0868
  265HK4    C3022189   9.987   5.381   9.419  0.1595 -0.3258 -0.2609
  265HK4    C2922190   9.887   5.474   9.396 -0.1776 -0.6927 -0.2736
  265HK4    H1522191   9.809   5.488   9.471 -0.2393 -1.6634 -0.1534
  265HK4    C2822192   9.908   5.572   9.299  0.0752 -0.2105  0.2727
  265HK4    C2722193  10.036   5.580   9.242  0.0086 -0.3990  0.0969
  265HK4    H1422194  10.054   5.656   9.164  3.7819 -0.1009  1.1512
  265HK4    C3222195  10.146   5.504   9.281  0.3402 -0.1512 -0.3442
  265HK4    H1622196  10.250   5.535   9.265  0.1164  0.3776 -0.8059
  265HK4    C3122197  10.123   5.406   9.377  0.1245  0.1413 -0.0952
  265HK4    C3422198  10.206   5.313   9.450  0.0952 -0.1361 -0.4122
  265HK4    C3322199  10.114   5.239   9.535 -0.0467 -0.4651 -0.8514
  265HK4    C3522200  10.163   5.129   9.604  0.2941 -0.0640 -0.4531
  265HK4    H1722201  10.097   5.075   9.671  2.7820 -1.1434  1.2392
  265HK4    C3622202  10.296   5.089   9.590 -0.0512 -1.1900 -0.5319
  265HK4    H1822203  10.334   5.019   9.666  0.6797  0.2419  0.4390
  265HK4    C3722204  10.379   5.154   9.500  0.1520 -0.5524  0.1179
  265HK4    H1922205  10.483   5.124   9.507 -0.5438 -2.6765  1.7906
  265HK4    C3822206  10.334   5.263   9.426  0.0822 -0.4951  0.2466
  265HK4    H2022207  10.394   5.317   9.353 -0.7417  0.1644  0.0425
  265HK4    C1422208   9.788   5.629   9.235  0.6733  0.7825  0.0198
  265HK4     C922209   9.778   5.652   9.098 -0.3082  0.0632 -0.0324
  265HK4     C822210   9.701   5.761   9.052 -0.2352  0.0435 -0.2097
  265HK4    C1122211   9.630   5.839   9.143  0.2455  0.0906  0.1272
  265HK4     H422212   9.559   5.917   9.111 -1.7432 -1.6873  0.1559
  265HK4    C1222213   9.634   5.805   9.277  0.6557 -0.2906  0.0210
  265HK4     H522214   9.585   5.871   9.350  0.9285 -0.6576  0.5424
  265HK4    C1322215   9.705   5.696   9.327  0.2832 -0.3231  0.4789
  265HK4     H622216   9.660   5.640   9.411 -1.0090 -0.8216 -0.5140
  265HK4     C722217   9.691   5.786   8.907 -0.1293  0.0379 -0.2184
  265HK4     O222218   9.649   5.895   8.869 -1.3559 -0.5649 -0.6141
  265HK4     C422219   9.761   5.703   8.806  0.0773  0.0692 -0.1022
  265HK4     C322220   9.733   5.720   8.670 -0.1039 -0.5994 -0.1489
  265HK4     H322221   9.665   5.798   8.634 -2.1519 -1.8066  0.9736
  265HK4     C222222   9.790   5.631   8.580  0.4078 -0.1172 -0.3101
  265HK4     H222223   9.735   5.596   8.491 -1.3033  0.0952  0.6305
  265HK4     C122224   9.893   5.548   8.623  0.5579 -0.0393 -0.5221
  265HK4     H122225   9.929   5.468   8.557 -0.1625 -0.5067 -0.3479
  265HK4     C622226   9.933   5.543   8.758 -0.0335  0.4423 -0.3230
  265HK4     C522227   9.853   5.607   8.853 -0.2171 -0.1851 -0.0507
  265HK4    C1022228   9.849   5.569   8.997 -0.3311  0.0082  0.0026
  265HK4     O122229   9.838   5.448   9.015 -0.2795 -0.0939 -0.6292
  265HK4    C1622230  10.074   5.513   8.786 -0.2147 -0.6764 -0.5831
  265HK4    C1522231  10.163   5.537   8.679  0.3222 -0.5583 -0.1118
  265HK4     H722232  10.142   5.613   8.602 -2.3654  1.1315  2.2016
  265HK4    C2022233  10.287   5.473   8.674  0.3927 -0.4158 -0.1635
  265HK4     H922234  10.350   5.493   8.587 -0.3335 -0.5241 -0.7233
  265HK4    C1922235  10.332   5.391   8.776  0.0656 -0.0277  0.2935
  265HK4    C1822236  10.237   5.362   8.881 -0.2044  0.0921  0.0791
  265HK4    C1722237  10.119   5.435   8.892  0.2008  0.7223  0.2906
  265HK4     H822238  10.092   5.449   8.996  3.6127  0.2034  1.3024
  265HK4     N122239  10.270   5.247   8.955  0.0328 -0.0262 -0.2133
  265HK4    C2122240  10.384   5.198   8.888  0.1181  0.1881 -0.2238
  265HK4    C2222241  10.434   5.289   8.787 -0.3363 -0.5948 -1.1630
  265HK4    C2622242  10.548   5.265   8.710  0.0173 -0.3140 -0.7355
  265HK4    H1322243  10.590   5.348   8.655 -0.4693  1.9121  2.1329
  265HK4    C2522244  10.618   5.146   8.725  0.4094 -0.0341 -0.3451
  265HK4    H1222245  10.711   5.127   8.672  1.0231  0.8840  0.3993
  265HK4    C2422246  10.573   5.061   8.826 -0.0474  0.5033 -0.0944
  265HK4    H1122247  10.632   4.969   8.842  0.3673  0.4608 -1.7245
  265HK4    C2322248  10.457   5.080   8.899 -0.4569 -0.1994 -0.5591
  265HK4    H1022249  10.421   4.990   8.949 -0.7357  0.4366  0.3955
  265HK4    C3922250  10.193   5.172   9.045 -0.0723 -0.0729 -0.3416
  265HK4    C4122251  10.263   5.092   9.137  0.1784  0.1800 -0.3122
  265HK4    H2122252  10.373   5.089   9.144  0.1896  2.1712  0.6574
  265HK4    C4222253  10.196   5.003   9.220  0.4099 -0.1495 -0.4788
  265HK4    H2222254  10.252   4.950   9.299  0.4085 -2.4862 -1.9904
  265HK4    C4322255  10.058   4.998   9.213  0.3712  0.0199  0.1324
  265HK4    H2322256   9.997   4.936   9.279 -1.3380 -0.3731 -1.7605
  265HK4    C4422257   9.990   5.085   9.128 -0.3226 -0.0281  0.6363
  265HK4    H2422258   9.886   5.115   9.149 -0.3900  1.0332 -1.1569
  265HK4    C4522259  10.052   5.171   9.039 -0.1294  0.1026  0.9000
  265HK4    H2522260  10.000   5.225   8.959  2.8030 -0.7830 -1.6919
  266HK4    H2822261   1.335   8.225   2.206 -0.2885 -0.7473  0.4219
  266HK4    C4822262   1.250   8.291   2.224  0.0477 -0.2595  0.2231
  266HK4    C4722263   1.181   8.261   2.341 -0.3329 -0.2800 -0.0049
  266HK4    H2722264   1.202   8.173   2.402  1.8146  0.6848  0.7030
  266HK4    C4622265   1.084   8.350   2.383 -0.4639 -0.3440 -0.1665
  266HK4    H2622266   1.044   8.342   2.486  0.5164 -0.2563  0.2235
  266HK4    C4022267   1.067   8.474   2.317 -0.3751 -0.3433 -0.1851
  266HK4    C5022268   1.143   8.503   2.202 -0.2422 -0.0864 -0.0332
  266HK4    H3022269   1.136   8.606   2.162  1.1396  0.4430  1.0710
  266HK4    C4922270   1.232   8.409   2.153 -0.3198 -0.3047  0.2420
  266HK4    H2922271   1.267   8.420   2.049 -3.2672  2.3849 -0.5340
  266HK4     N222272   0.957   8.552   2.353  0.0268  0.1412 -0.0059
  266HK4    C3022273   0.907   8.566   2.484 -0.0686 -0.0686 -0.0206
  266HK4    C2922274   0.970   8.568   2.608 -0.6150 -0.0598  0.2593
  266HK4    H1522275   1.078   8.554   2.609 -0.6313 -0.2394 -0.6557
  266HK4    C2822276   0.907   8.597   2.728 -0.3140 -0.2700  0.4705
  266HK4    C2722277   0.773   8.642   2.721 -0.2563 -0.1830 -0.0948
  266HK4    H1422278   0.722   8.670   2.815 -1.9241 -1.8078 -0.5063
  266HK4    C3222279   0.704   8.636   2.601 -0.2652  0.2885 -0.1156
  266HK4    H1622280   0.598   8.660   2.605 -0.8021 -1.6397 -1.6071
  266HK4    C3122281   0.766   8.597   2.482 -0.1118 -0.2531  0.1386
  266HK4    C3422282   0.728   8.605   2.343 -0.4284 -0.0849  0.2321
  266HK4    C3322283   0.851   8.587   2.267 -0.4961 -0.7454  0.2770
  266HK4    C3522284   0.846   8.613   2.131  0.6233 -0.2455  0.3321
  266HK4    H1722285   0.935   8.593   2.070  0.9571 -2.0693  1.3885
  266HK4    C3622286   0.730   8.655   2.067  0.8298 -0.6820 -0.3424
  266HK4    H1822287   0.719   8.645   1.958  1.9926  1.6882 -0.7181
  266HK4    C3722288   0.614   8.673   2.142  0.8969 -0.8361 -0.2023
  266HK4    H1922289   0.515   8.697   2.104  0.8358  0.5517  0.8098
  266HK4    C3822290   0.611   8.641   2.277 -0.3307 -0.4211 -0.1298
  266HK4    H2022291   0.515   8.654   2.327  0.1658 -3.1882  1.6982
  266HK4    C1422292   0.960   8.542   2.854  0.2881 -0.3301  0.1894
  266HK4     C922293   0.876   8.500   2.957 -0.1047  0.0527  0.0258
  266HK4     C822294   0.898   8.529   3.093  0.0013  0.1273 -0.0073
  266HK4    C1122295   1.026   8.568   3.128  0.0771 -0.0125 -0.1306
  266HK4     H422296   1.047   8.562   3.236 -2.5520  2.2985  0.5510
  266HK4    C1222297   1.118   8.601   3.029  0.3482  0.0058  0.1255
  266HK4     H522298   1.212   8.656   3.047  0.4586  0.1364 -0.8381
  266HK4    C1322299   1.085   8.593   2.895  0.2966 -0.3237  0.1559
  266HK4     H622300   1.136   8.652   2.817 -0.8889  1.5806  0.7954
  266HK4     C722301   0.798   8.497   3.198 -0.0416  0.4576  0.0536
  266HK4     O222302   0.830   8.508   3.316  0.4528 -0.5149  0.0092
  266HK4     C422303   0.672   8.433   3.155  0.0236  0.2143  0.2282
  266HK4     C322304   0.562   8.422   3.241 -0.1630 -1.0351 -0.1586
  266HK4     H322305   0.589   8.401   3.345  0.8611  2.0835  0.2625
  266HK4     C222306   0.430   8.404   3.201 -0.2583 -0.3628 -0.1501
  266HK4     H222307   0.351   8.434   3.271 -0.1682 -1.8211  0.5726
  266HK4     C122308   0.404   8.394   3.064  0.0014 -0.0340 -0.2265
  266HK4     H122309   0.310   8.351   3.028  0.4200 -0.2381 -1.0803
  266HK4     C622310   0.511   8.396   2.973  0.1384 -0.1360 -0.0695
  266HK4     C522311   0.642   8.411   3.019  0.0094 -0.0896  0.2795
  266HK4    C1022312   0.756   8.417   2.923 -0.0718 -0.0617  0.1853
  266HK4     O122313   0.770   8.314   2.859 -0.4760  0.1522 -0.2502
  266HK4    C1622314   0.474   8.443   2.838 -0.2168 -0.2352 -0.0071
  266HK4    C1522315   0.396   8.558   2.816  0.0705  0.0291  0.3393
  266HK4     H722316   0.372   8.614   2.907 -0.0232  1.8736 -0.7882
  266HK4    C2022317   0.343   8.590   2.691  0.6500  0.4974  0.2092
  266HK4     H922318   0.285   8.682   2.682 -0.4126 -0.0792  0.9721
  266HK4    C1922319   0.358   8.503   2.584 -0.6449  0.0850  0.3479
  266HK4    C1822320   0.437   8.383   2.604  0.1361  0.5079 -0.1947
  266HK4    C1722321   0.490   8.357   2.730 -0.4520 -0.1826 -0.0838
  266HK4     H822322   0.530   8.257   2.746 -2.3024 -0.9668 -0.2375
  266HK4     N122323   0.431   8.299   2.491 -0.0751  0.0976  0.1207
  266HK4    C2122324   0.350   8.366   2.397 -0.2724 -0.3542 -0.0310
  266HK4    C2222325   0.292   8.485   2.456 -0.1957 -0.4226  0.1841
  266HK4    C2622326   0.220   8.574   2.378 -0.3833  0.2056  1.0705
  266HK4    H1322327   0.216   8.678   2.412  2.2463  0.2349  1.4180
  266HK4    C2522328   0.184   8.544   2.248  0.3240  0.6347  0.7739
  266HK4    H1222329   0.141   8.619   2.180  0.9425  0.6436  0.3852
  266HK4    C2422330   0.238   8.428   2.195 -0.1942  0.4634  0.6100
  266HK4    H1122331   0.199   8.389   2.100  2.3424 -2.5058  0.6973
  266HK4    C2322332   0.326   8.343   2.262 -0.3941 -0.2505 -0.0270
  266HK4    H1022333   0.376   8.264   2.205 -0.3561  0.2365 -0.6755
  266HK4    C3922334   0.538   8.213   2.463  0.1190  0.3733  0.0176
  266HK4    C4122335   0.514   8.102   2.379  0.2512  0.3983 -0.0568
  266HK4    H2122336   0.413   8.080   2.340  1.0043 -0.7275 -1.4186
  266HK4    C4222337   0.609   8.010   2.337 -0.0190  0.2705 -0.3816
  266HK4    H2222338   0.603   7.931   2.260 -0.8820  0.3461 -0.3961
  266HK4    C4322339   0.736   8.027   2.389 -0.1665  0.4838 -0.0880
  266HK4    H2322340   0.816   7.959   2.358  0.4689  0.6235  1.2395
  266HK4    C4422341   0.763   8.131   2.477  0.3313  0.1136  0.2000
  266HK4    H2422342   0.862   8.127   2.524  1.0461  0.6985 -1.2110
  266HK4    C4522343   0.668   8.224   2.517  0.1509  0.0061  0.0192
  266HK4    H2522344   0.705   8.312   2.571 -1.7672  1.3155 -0.7227
  267HK4    H2822345  10.842  10.614   6.560  1.0789  1.5969 -1.0469
  267HK4    C4822346  10.765  10.690   6.564  0.1117  0.5584  0.8868
  267HK4    C4722347  10.798  10.819   6.524 -0.2899  0.4511  0.2172
  267HK4    H2722348  10.880  10.815   6.451 -1.1794  0.1977 -0.7906
  267HK4    C4622349  10.705  10.920   6.548  0.0091  0.6673  0.4636
  267HK4    H2622350  10.735  11.024   6.533  1.5759  0.3455  1.3285
  267HK4    C4022351  10.580  10.885   6.604 -0.0324  0.0689  0.0259
  267HK4    C5022352  10.549  10.754   6.644 -0.4690  0.1058 -0.1919
  267HK4    H3022353  10.459  10.729   6.702 -0.5516  0.9112  0.0293
  267HK4    C4922354  10.649  10.657   6.632 -0.0212  0.4647  0.6168
  267HK4    H2922355  10.627  10.555   6.667 -2.5698 -0.3860 -3.2104
  267HK4     N222356  10.501  10.987   6.659  0.1345  0.0229  0.3449
  267HK4    C3022357  10.547  11.111   6.709  0.2425  0.1227 -0.0048
  267HK4    C2922358  10.670  11.143   6.766  0.0533 -0.0312  0.4927
  267HK4    H1522359  10.725  11.062   6.813  0.6500  0.1053  0.0301
  267HK4    C2822360  10.691   0.023   6.817  0.3555 -0.0156  0.3325
  267HK4    C2722361  10.586   0.116   6.811  0.1115 -0.2590  0.7396
  267HK4    H1422362  10.612   0.222   6.828 -0.0194  0.2003 -1.6721
  267HK4    C3222363  10.457   0.082   6.770  0.3074  0.5223 -0.5501
  267HK4    H1622364  10.367   0.144   6.773 -0.1381 -0.0602 -1.6816
  267HK4    C3122365  10.436  11.204   6.715  0.3750  0.2858 -0.0315
  267HK4    C3422366  10.321  11.136   6.660  0.4537  0.1431 -0.0170
  267HK4    C3322367  10.363  10.999   6.637  0.2302  0.1067 -0.2205
  267HK4    C3522368  10.263  10.906   6.606  0.3685 -0.1365  0.0568
  267HK4    H1722369  10.288  10.815   6.551  0.7769 -0.3625  0.6069
  267HK4    C3622370  10.128  10.938   6.605  0.4034  0.0065 -0.0992
  267HK4    H1822371  10.060  10.858   6.637  1.7253 -0.1045  2.6516
  267HK4    C3722372  10.088  11.069   6.631  0.1003 -0.1973  0.4583
  267HK4    H1922373   9.997  11.079   6.573  0.4775 -0.8405 -0.2545
  267HK4    C3822374  10.185  11.164   6.662  0.3397 -0.4079  0.3529
  267HK4    H2022375  10.157   0.016   6.695  1.8570 -0.1560  0.9029
  267HK4    C1422376  10.807   0.050   6.904  0.3052 -0.2958  0.4867
  267HK4     C922377  10.803   0.143   7.008  0.0782  0.3202 -0.0693
  267HK4     C822378  10.919   0.218   7.040  0.0622  0.5298 -0.4980
  267HK4    C1122379  11.031   0.193   6.962  0.2935  0.0487 -0.0204
  267HK4     H422380  11.108   0.271   6.967  1.5139 -1.2344  1.7792
  267HK4    C1222381  11.043   0.090   6.869  0.2422 -0.3130  0.3704
  267HK4     H522382  11.145   0.067   6.835 -0.8075 -2.9865 -1.0797
  267HK4    C1322383  10.930   0.013   6.845  0.0123  0.2906 -0.5195
  267HK4     H622384  10.933  11.174   6.779 -0.4007  0.9057 -1.3645
  267HK4     C722385  10.915   0.327   7.140 -0.1191 -0.0060  0.0859
  267HK4     O222386  11.018   0.351   7.203  0.2400 -0.3937 -0.3500
  267HK4     C422387  10.781   0.370   7.187 -0.0429  0.0039  0.2935
  267HK4     C322388  10.783   0.479   7.274  0.2311  0.1178  0.1432
  267HK4     H322389  10.871   0.545   7.266  0.0814  0.2767 -0.2361
  267HK4     C222390  10.664   0.512   7.336  0.0869  0.3553 -0.2606
  267HK4     H222391  10.655   0.609   7.388  1.7476  0.7926 -0.7554
  267HK4     C122392  10.545   0.447   7.304 -0.1345  0.7271 -0.2118
  267HK4     H122393  10.455   0.479   7.358  0.0512  0.0029  0.5512
  267HK4     C622394  10.542   0.335   7.218 -0.0349  0.4676  0.1191
  267HK4     C522395  10.666   0.291   7.170 -0.1180  0.1274  0.2217
  267HK4    C1022396  10.680   0.167   7.088 -0.0351  0.4707 -0.2841
  267HK4     O122397  10.628   0.065   7.132  0.0551  0.4208 -0.2953
  267HK4    C1622398  10.423   0.319   7.133  0.0705  0.3538 -0.0098
  267HK4    C1522399  10.358   0.429   7.072 -0.2352  0.2925  0.2018
  267HK4     H722400  10.420   0.516   7.044 -1.3082  1.2675  0.8097
  267HK4    C2022401  10.240   0.408   7.003  0.1115 -0.3170 -0.2148
  267HK4     H922402  10.188   0.490   6.954 -0.0886 -0.6810 -0.6231
  267HK4    C1922403  10.185   0.280   6.991 -0.1888 -0.1139 -0.9977
  267HK4    C1822404  10.250   0.167   7.054  0.1960  0.1674 -0.8926
  267HK4    C1722405  10.362   0.194   7.133 -0.0671  0.4224 -0.6033
  267HK4     H822406  10.392   0.123   7.209  0.6956 -0.4056 -1.6725
  267HK4     N122407  10.166   0.054   7.055 -0.0170  0.3231  0.6422
  267HK4    C2122408  10.055   0.095   6.979 -0.3207 -0.2730  0.7637
  267HK4    C2222409  10.060   0.233   6.935 -0.7001 -0.3837  0.3682
  267HK4    C2622410   9.962   0.290   6.855 -0.1000  1.0110  0.6093
  267HK4    H1322411   9.952   0.399   6.845  0.3712  0.9712 -0.3258
  267HK4    C2522412   9.857   0.211   6.810  1.1426 -0.2784 -0.0430
  267HK4    H1222413   9.811   0.234   6.713  0.6643 -0.5758  0.1129
  267HK4    C2422414   9.854   0.079   6.852 -0.4647 -0.2469 -0.0353
  267HK4    H1122415   9.774   0.020   6.804  0.2878 -1.8247  0.6294
  267HK4    C2322416   9.946   0.020   6.937  0.0096 -0.0950 -0.4386
  267HK4    H1022417   9.970  11.161   6.931  0.2125 -0.0387 -0.6349
  267HK4    C3922418  10.217  11.173   7.075 -0.0894  0.1310 -0.3567
  267HK4    C4122419  10.128  11.072   7.116  0.1326 -0.0785 -0.3810
  267HK4    H2122420  10.043  11.113   7.173  2.0154  1.0140  1.7297
  267HK4    C4222421  10.170  10.941   7.136 -0.1443 -0.0711  0.2721
  267HK4    H2222422  10.094  10.863   7.131 -2.4979  2.2694 -1.6931
  267HK4    C4322423  10.305  10.910   7.121 -0.2039  0.0119 -0.4124
  267HK4    H2322424  10.334  10.806   7.133 -0.1171  0.1743  0.8808
  267HK4    C4422425  10.399  11.010   7.101 -0.4410  0.2643 -0.2484
  267HK4    H2422426  10.505  10.981   7.105 -1.0151 -1.7209  1.6026
  267HK4    C4522427  10.353  11.136   7.064 -0.0600  0.3075 -0.5847
  267HK4    H2522428  10.413  11.195   6.994 -1.7212  0.9045 -1.5382
  268HK4    H2822429   1.535   1.198   8.635  0.7728 -1.0635  0.7934
  268HK4    C4822430   1.605   1.146   8.569  0.1732 -0.2337 -0.5267
  268HK4    C4722431   1.627   1.194   8.441 -0.3903 -0.0509 -0.5589
  268HK4    H2722432   1.563   1.268   8.391  2.2825  0.5883 -3.2179
  268HK4    C4622433   1.729   1.134   8.367  0.1509 -0.1024  0.2188
  268HK4    H2622434   1.727   1.151   8.258 -1.1333  0.1615  0.2661
  268HK4    C4022435   1.817   1.036   8.418  0.2743 -0.1216 -0.0336
  268HK4    C5022436   1.793   1.000   8.552 -0.2571 -0.0027 -0.0927
  268HK4    H3022437   1.864   0.934   8.604  2.0273  3.9238  2.0519
  268HK4    C4922438   1.685   1.047   8.625 -0.1405 -0.1087  0.1437
  268HK4    H2922439   1.663   1.009   8.726  1.5809 -1.2183  0.1083
  268HK4     N222440   1.922   0.994   8.335  0.1678 -0.1519 -0.1513
  268HK4    C3022441   1.970   1.060   8.220 -0.1537  0.2535 -0.0565
  268HK4    C2922442   2.009   1.193   8.206  0.1467  0.1388 -0.3163
  268HK4    H1522443   1.958   1.261   8.274 -3.2685 -2.8170  0.2425
  268HK4    C2822444   2.080   1.244   8.097  0.0169  0.3407 -0.3105
  268HK4    C2722445   2.103   1.148   7.997 -0.1068 -0.0109 -0.0016
  268HK4    H1422446   2.143   1.180   7.899 -2.8939 -0.6889 -1.4352
  268HK4    C3222447   2.075   1.012   8.009 -0.5431  0.0640 -0.1281
  268HK4    H1622448   2.109   0.944   7.931 -0.6409  1.2619 -1.2189
  268HK4    C3122449   2.012   0.962   8.122  0.4377  0.0351  0.4149
  268HK4    C3422450   2.007   0.834   8.190  0.2245 -0.0934  0.1560
  268HK4    C3322451   1.944   0.856   8.319  0.3055 -0.1703  0.2107
  268HK4    C3522452   1.904   0.739   8.383 -0.0536 -0.0983  0.1140
  268HK4    H1722453   1.856   0.749   8.480  1.4910 -0.6787  0.9588
  268HK4    C3622454   1.940   0.612   8.338 -0.4534 -0.2364  0.1870
  268HK4    H1822455   1.918   0.519   8.393  0.1031  1.0364  2.6632
  268HK4    C3722456   2.018   0.595   8.225 -0.1436  0.0488  0.3524
  268HK4    H1922457   2.057   0.495   8.206 -0.2186 -0.0632  0.7813
  268HK4    C3822458   2.042   0.707   8.146 -0.0742 -0.1528  0.0878
  268HK4    H2022459   2.102   0.705   8.055 -0.3024  0.9513 -0.0986
  268HK4    C1422460   2.086   1.388   8.072 -0.4655  0.5239  0.6074
  268HK4     C922461   2.067   1.460   7.954  0.0925 -0.0440  0.1672
  268HK4     C822462   2.125   1.585   7.927 -0.2653  0.1058  0.0888
  268HK4    C1122463   2.183   1.645   8.038 -0.3327  0.1842  0.0803
  268HK4     H422464   2.250   1.724   8.003  0.4762 -0.5693 -0.0826
  268HK4    C1222465   2.193   1.586   8.164 -0.5658 -0.0121  0.0062
  268HK4     H522466   2.243   1.640   8.245  0.0510 -0.1700 -0.2669
  268HK4    C1322467   2.148   1.455   8.180 -0.0902 -0.0805  0.7662
  268HK4     H622468   2.140   1.413   8.282 -0.5796  1.2778  1.3158
  268HK4     C722469   2.112   1.665   7.803  0.6422 -0.5036 -0.4039
  268HK4     O222470   2.204   1.737   7.765  0.2602  0.1671 -0.0539
  268HK4     C422471   2.000   1.621   7.717  0.0073  0.2365  0.0383
  268HK4     C322472   1.952   1.699   7.612 -0.2368 -0.1527 -0.1420
  268HK4     H322473   1.981   1.805   7.620 -2.4638  0.2760  3.6870
  268HK4     C222474   1.883   1.641   7.506 -0.3703 -0.2927  0.0195
  268HK4     H222475   1.834   1.710   7.436 -0.9140  0.8164  1.4572
  268HK4     C122476   1.887   1.504   7.487 -0.7214 -0.3542  0.4063
  268HK4     H122477   1.837   1.469   7.396 -1.6958 -2.0994  1.5713
  268HK4     C622478   1.942   1.422   7.588  0.0318  0.1841  0.4300
  268HK4     C522479   1.981   1.481   7.709 -0.1218  0.2301  0.4558
  268HK4    C1022480   1.988   1.408   7.838  0.1186 -0.1822  0.2113
  268HK4     O122481   1.904   1.319   7.849 -0.5799  0.4928  0.3429
  268HK4    C1622482   1.962   1.284   7.544  0.0762  0.2701  0.1800
  268HK4    C1522483   2.067   1.207   7.599  0.2193  0.2982 -0.0495
  268HK4     H722484   2.153   1.258   7.646 -1.9190  1.2839  2.9596
  268HK4    C2022485   2.099   1.076   7.563  0.2346  0.3003 -0.0434
  268HK4     H922486   2.183   1.034   7.617  0.7191 -0.9340 -1.7463
  268HK4    C1922487   2.024   1.014   7.464 -0.0898  0.4835  0.0849
  268HK4    C1822488   1.917   1.090   7.401 -0.4842  0.2387  0.4620
  268HK4    C1722489   1.888   1.218   7.447 -0.0425  0.4523  0.1491
  268HK4     H822490   1.786   1.251   7.428 -0.6778  0.2992  3.0718
  268HK4     N122491   1.869   1.031   7.282  0.7338  0.5858 -0.2074
  268HK4    C2122492   1.954   0.920   7.262  0.1916  0.0786  0.3009
  268HK4    C2222493   2.041   0.900   7.376 -0.0685  0.1590  0.5136
  268HK4    C2622494   2.153   0.819   7.365 -0.5683 -0.5122  0.3352
  268HK4    H1322495   2.229   0.827   7.443  0.7845 -0.4507 -0.9688
  268HK4    C2522496   2.182   0.745   7.251  0.4314  0.1943  0.1240
  268HK4    H1222497   2.242   0.655   7.255 -0.3656 -0.2572  2.7901
  268HK4    C2422498   2.092   0.760   7.146  0.2825  0.8758  0.3469
  268HK4    H1122499   2.136   0.726   7.051  2.3985  3.3646  0.3910
  268HK4    C2322500   1.980   0.842   7.150 -0.1928  0.2432  0.0961
  268HK4    H1022501   1.918   0.829   7.061 -0.4074 -0.0408  0.2871
  268HK4    C3922502   1.736   1.036   7.239  0.6436  0.5167  0.0617
  268HK4    C4122503   1.708   0.999   7.105  0.3052  0.3077  0.1873
  268HK4    H2122504   1.782   1.013   7.024 -0.0452 -2.9919 -0.7355
  268HK4    C4222505   1.577   0.969   7.073  0.3559 -0.0613  0.3281
  268HK4    H2222506   1.547   0.921   6.978  0.1283 -0.9968  0.8640
  268HK4    C4322507   1.479   0.987   7.170  0.2239 -0.1571  0.2134
  268HK4    H2322508   1.377   0.964   7.140  0.6830 -2.1589  0.1793
  268HK4    C4422509   1.503   1.019   7.304  0.0106  0.4235  0.1190
  268HK4    H2422510   1.420   1.021   7.375  0.6156  2.4754  0.7970
  268HK4    C4522511   1.636   1.044   7.337  0.1143  0.7066 -0.4914
  268HK4    H2522512   1.656   1.047   7.445  1.9549  2.8800 -0.8633
  269HK4    H2822513   4.525   4.718   2.310 -0.4355  3.7797  0.8647
  269HK4    C4822514   4.554   4.742   2.208 -0.0456  0.2088  0.0624
  269HK4    C4722515   4.635   4.850   2.176  0.4116 -0.1028  0.1740
  269HK4    H2722516   4.674   4.920   2.252 -0.9543 -0.3291  1.1035
  269HK4    C4622517   4.655   4.888   2.044 -0.2850  0.1986  0.1526
  269HK4    H2622518   4.701   4.984   2.019 -0.2788 -0.5285 -2.8249
  269HK4    C4022519   4.581   4.818   1.946 -0.0347 -0.1491  0.2080
  269HK4    C5022520   4.494   4.710   1.974 -0.3901  0.1252  0.1644
  269HK4    H3022521   4.429   4.667   1.897  0.4274  3.1002 -2.3075
  269HK4    C4922522   4.489   4.671   2.107 -0.2241  0.1894  0.1900
  269HK4    H2922523   4.443   4.575   2.135  1.9166 -0.6207  1.0846
  269HK4     N222524   4.575   4.873   1.817 -0.0801 -0.0038  0.2722
  269HK4    C3022525   4.574   5.010   1.786 -0.1504 -0.0478  0.0778
  269HK4    C2922526   4.542   5.117   1.868 -0.4378 -0.1285  0.0706
  269HK4    H1522527   4.505   5.103   1.970  1.7390 -1.4281  0.7033
  269HK4    C2822528   4.533   5.245   1.815 -0.1460 -0.2542 -0.2883
  269HK4    C2722529   4.575   5.270   1.683 -0.4176 -0.0801 -0.3434
  269HK4    H1422530   4.569   5.373   1.646 -1.4090  0.8928  2.3571
  269HK4    C3222531   4.619   5.165   1.603  0.3334  0.2047 -0.3113
  269HK4    H1622532   4.666   5.193   1.509 -1.9087  1.8563 -0.9834
  269HK4    C3122533   4.609   5.033   1.647 -0.2446  0.3900  0.1263
  269HK4    C3422534   4.647   4.903   1.595  0.2380  0.4531  0.3204
  269HK4    C3322535   4.622   4.808   1.702 -0.0189  0.3025  0.1272
  269HK4    C3522536   4.668   4.678   1.685 -0.1027  0.2717  0.1313
  269HK4    H1722537   4.633   4.602   1.755 -0.2095  0.3703  0.1839
  269HK4    C3622538   4.727   4.637   1.566  0.0282  0.2358  0.2098
  269HK4    H1822539   4.780   4.541   1.561 -0.4374 -0.1077  1.5214
  269HK4    C3722540   4.742   4.726   1.460 -0.3947 -0.2554 -0.2629
  269HK4    H1922541   4.781   4.688   1.366 -1.5905 -2.2881  0.0393
  269HK4    C3822542   4.708   4.859   1.478 -0.1282 -0.2698  0.4022
  269HK4    H2022543   4.686   4.915   1.387  0.1132 -1.2389 -0.2531
  269HK4    C1422544   4.457   5.341   1.898  0.2790 -0.3903  0.2655
  269HK4     C922545   4.399   5.455   1.840  0.3288 -0.3411  0.3140
  269HK4     C822546   4.405   5.578   1.910 -0.6675 -0.2455  0.2319
  269HK4    C1122547   4.465   5.585   2.035  0.0835  0.0213 -0.1399
  269HK4     H422548   4.470   5.678   2.094  1.8457 -0.1408 -0.0121
  269HK4    C1222549   4.500   5.468   2.101  0.2636  0.2769  0.2180
  269HK4     H522550   4.518   5.469   2.210 -1.0608 -0.8126  0.4505
  269HK4    C1322551   4.498   5.348   2.032 -0.0195  0.2175  0.3298
  269HK4     H622552   4.498   5.264   2.104 -1.2335  2.1106  2.5845
  269HK4     C722553   4.363   5.704   1.845 -0.0579 -0.0994  0.1257
  269HK4     O222554   4.330   5.797   1.919  0.3535 -0.1165  0.3322
  269HK4     C422555   4.338   5.704   1.699  0.2217 -0.1606  0.0759
  269HK4     C322556   4.306   5.821   1.631  0.2621 -0.2811 -0.1512
  269HK4     H322557   4.319   5.915   1.687  0.7706 -1.0348  1.0307
  269HK4     C222558   4.278   5.827   1.495 -0.0202  0.6796 -0.0576
  269HK4     H222559   4.243   5.919   1.446  0.9245  0.0311 -2.0030
  269HK4     C122560   4.291   5.711   1.420  0.1617  0.4632  0.3088
  269HK4     H122561   4.255   5.710   1.316 -1.7530 -2.3984  0.9452
  269HK4     C622562   4.318   5.590   1.488  0.7349  0.2904 -0.2178
  269HK4     C522563   4.329   5.584   1.627 -0.2313  0.0095 -0.1531
  269HK4    C1022564   4.340   5.456   1.703 -0.2461  0.4316  0.5618
  269HK4     O122565   4.259   5.366   1.682  0.2773  0.0553  0.1309
  269HK4    C1622566   4.378   5.489   1.399 -0.1453 -0.0541 -0.4277
  269HK4    C1522567   4.487   5.522   1.315  0.6403 -0.1422  0.5412
  269HK4     H722568   4.526   5.624   1.311 -1.2200  0.5257 -1.9178
  269HK4    C2022569   4.538   5.421   1.234  0.0322 -0.1665  0.1821
  269HK4     H922570   4.615   5.447   1.161 -0.3330  0.9763  0.1901
  269HK4    C1922571   4.492   5.291   1.243 -0.2252 -0.1018 -0.1726
  269HK4    C1822572   4.381   5.255   1.329 -0.2881  0.0034 -0.2107
  269HK4    C1722573   4.326   5.360   1.402  0.4526 -0.2817  0.7783
  269HK4     H822574   4.225   5.349   1.442  0.4838 -2.3968  0.3005
  269HK4     N122575   4.325   5.128   1.310 -0.0763 -0.1314  0.0617
  269HK4    C2122576   4.397   5.085   1.196  0.4410 -0.5181  0.5346
  269HK4    C2222577   4.503   5.175   1.157  0.2853 -0.4254  0.3250
  269HK4    C2622578   4.587   5.138   1.052 -0.7192 -0.1519 -0.5836
  269HK4    H1322579   4.669   5.208   1.040 -1.2794  0.5169 -0.5506
  269HK4    C2522580   4.569   5.018   0.984 -0.5444 -0.1775 -0.5875
  269HK4    H1222581   4.635   4.984   0.904 -0.6554 -1.3389 -0.1999
  269HK4    C2422582   4.465   4.934   1.020  0.1573 -0.7275  0.1749
  269HK4    H1122583   4.433   4.851   0.955  0.4316 -1.2010  0.6365
  269HK4    C2322584   4.377   4.969   1.122 -0.0338  0.0635 -0.2575
  269HK4    H1022585   4.301   4.897   1.153 -0.0215  0.6595  1.1938
  269HK4    C3922586   4.226   5.068   1.390  0.0327 -0.3632  0.0228
  269HK4    C4122587   4.133   4.980   1.331  0.0413 -0.5923  0.3474
  269HK4    H2122588   4.100   4.990   1.227  2.2178  1.3759 -0.1949
  269HK4    C4222589   4.080   4.875   1.406 -0.2334 -0.7039 -0.0071
  269HK4    H2222590   4.023   4.802   1.346  0.5662  0.0426 -1.7431
  269HK4    C4322591   4.120   4.859   1.538  0.0078 -0.0669 -0.0019
  269HK4    H2322592   4.083   4.772   1.591 -0.0110  1.5057  2.6412
  269HK4    C4422593   4.213   4.948   1.593 -0.1614  0.2791 -0.2748
  269HK4    H2422594   4.223   4.949   1.702 -0.8441  0.2354 -0.2093
  269HK4    C4522595   4.269   5.054   1.523  0.6985 -0.0979 -0.1604
  269HK4    H2522596   4.330   5.128   1.578  2.2814 -1.4568 -0.0432
  270HK4    H2822597   1.170   7.004   9.331 -1.6312 -2.0042  1.4492
  270HK4    C4822598   1.094   7.068   9.377 -0.6698 -0.1461  0.5304
  270HK4    C4722599   1.079   7.089   9.514 -0.1819  0.0946  0.5448
  270HK4    H2722600   1.129   7.021   9.585 -1.5114 -1.6823 -0.1724
  270HK4    C4622601   0.990   7.180   9.569  0.3055  0.7106  0.3232
  270HK4    H2622602   0.985   7.200   9.677 -3.2057 -1.8224  0.7513
  270HK4    C4022603   0.905   7.257   9.487 -0.1128 -0.1286 -0.0356
  270HK4    C5022604   0.915   7.228   9.349  0.1004  0.6319 -0.1844
  270HK4    H3022605   0.843   7.275   9.281 -0.7919 -1.7585 -0.9459
  270HK4    C4922606   1.004   7.136   9.296  0.4388  0.8023  0.0845
  270HK4    H2922607   1.006   7.130   9.186 -1.4223  0.6838  0.0263
  270HK4     N222608   0.793   7.323   9.538  0.4438  0.5543  0.3020
  270HK4    C3022609   0.718   7.293   9.654 -0.1832 -0.3715 -0.3394
  270HK4    C2922610   0.715   7.178   9.732 -0.1707 -0.6291 -0.7190
  270HK4    H1522611   0.804   7.116   9.735 -0.3859 -0.9372 -0.7437
  270HK4    C2822612   0.619   7.155   9.830 -0.0907  0.0129 -0.4850
  270HK4    C2722613   0.526   7.257   9.859 -0.2936 -0.1450 -0.5817
  270HK4    H1422614   0.476   7.252   9.956 -0.3259 -0.1125 -0.5936
  270HK4    C3222615   0.523   7.373   9.782 -0.3219  0.0171 -0.3323
  270HK4    H1622616   0.463   7.456   9.820  0.5596  0.5675 -0.1365
  270HK4    C3122617   0.614   7.392   9.679  0.2211 -0.0633  0.1270
  270HK4    C3422618   0.631   7.491   9.575  0.0806 -0.4453 -0.2567
  270HK4    C3322619   0.749   7.452   9.500  0.3339  0.3472 -0.2706
  270HK4    C3522620   0.798   7.532   9.398  0.3346  0.0573 -0.4974
  270HK4    H1722621   0.868   7.492   9.324 -2.0471 -0.9471 -2.2626
  270HK4    C3622622   0.739   7.658   9.383 -0.3988 -0.1722  0.3840
  270HK4    H1822623   0.765   7.718   9.294 -0.8838  0.6091  0.7777
  270HK4    C3722624   0.636   7.708   9.461 -0.1148 -0.1339  0.7328
  270HK4    H1922625   0.581   7.796   9.430 -0.1475 -0.3618  0.1305
  270HK4    C3822626   0.580   7.618   9.551 -0.1144 -0.3839  0.4819
  270HK4    H2022627   0.511   7.656   9.626  1.2620 -0.0205  1.5732
  270HK4    C1422628   0.577   7.020   9.868 -0.3314  0.2882  0.2331
  270HK4     C922629   0.446   6.971   9.884 -0.3591  0.3205  0.1097
  270HK4     C822630   0.412   6.885   9.990 -0.0967 -0.2995 -0.3097
  270HK4    C1122631   0.511   6.841  10.077  0.0201 -0.3874 -0.4849
  270HK4     H422632   0.477   6.795  10.172  0.1600  3.9800  1.8269
  270HK4    C1222633   0.643   6.876  10.053 -0.1565  0.8767  0.3475
  270HK4     H522634   0.717   6.810  10.100 -1.4053 -1.4831 -0.9155
  270HK4    C1322635   0.676   6.967   9.953  0.0063  0.2283 -0.1961
  270HK4     H622636   0.780   7.003   9.945 -0.9383  2.8030 -1.5898
  270HK4     C722637   0.267   6.882  10.022 -0.0491 -0.2130 -0.0848
  270HK4     O222638   0.231   6.846  10.134  0.2618  0.3562  0.2003
  270HK4     C422639   0.170   6.955   9.938  0.4935 -0.0600 -0.5840
  270HK4     C322640   0.034   6.948   9.964  0.6292 -0.6008 -0.0154
  270HK4     H322641   0.002   6.908  10.062  1.9242  0.4650  0.8579
  270HK4     C222642  11.187   7.025   9.898  0.6207 -0.1276  0.5365
  270HK4     H222643  11.080   7.026   9.922  0.3336 -0.7846 -0.6746
  270HK4     C122644  11.234   7.112   9.800 -0.3237 -0.1027  0.0960
  270HK4     H122645  11.150   7.168   9.756 -1.7420  0.0191  2.8355
  270HK4     C622646   0.121   7.118   9.759 -0.4117  0.2354 -0.1477
  270HK4     C522647   0.208   7.031   9.825  0.0969  0.6908 -0.2174
  270HK4    C1022648   0.350   7.021   9.781  0.0595  0.3625 -0.2678
  270HK4     O122649   0.369   6.986   9.665  0.5503  0.2132 -0.1425
  270HK4    C1622650   0.151   7.252   9.705 -0.0263  0.1960 -0.0338
  270HK4    C1522651   0.098   7.372   9.757  0.2904  0.1708  0.3451
  270HK4     H722652   0.059   7.369   9.860  0.2120 -0.7783  0.2986
  270HK4    C2022653   0.111   7.494   9.693  0.3415  0.3746  0.7421
  270HK4     H922654   0.041   7.573   9.720 -0.6101  0.1832 -1.0781
  270HK4    C1922655   0.182   7.503   9.573 -0.2169 -0.1173  0.3759
  270HK4    C1822656   0.230   7.380   9.512 -0.0069  0.2665 -0.2328
  270HK4    C1722657   0.218   7.262   9.584 -0.0049  0.4023 -0.0052
  270HK4     H822658   0.248   7.170   9.533  1.4319  0.9073 -0.0844
  270HK4     N122659   0.291   7.401   9.387  0.1075  0.5481 -0.1288
  270HK4    C2122660   0.274   7.539   9.364  0.7347  0.6774  0.1873
  270HK4    C2222661   0.225   7.607   9.482 -0.0925 -0.1950  0.3451
  270HK4    C2622662   0.223   7.746   9.485  0.5929 -0.1840  0.3418
  270HK4    H1322663   0.170   7.794   9.568 -0.3128 -0.8341  0.1499
  270HK4    C2522664   0.264   7.817   9.373  0.5180  0.0054  0.4392
  270HK4    H1222665   0.249   7.925   9.380 -0.0888 -0.0297 -0.2138
  270HK4    C2422666   0.309   7.754   9.258 -0.0060 -0.3876  0.4500
  270HK4    H1122667   0.341   7.816   9.173 -0.8847  0.7228  0.9027
  270HK4    C2322668   0.308   7.615   9.252 -0.2201 -0.3425 -0.8061
  270HK4    H1022669   0.312   7.564   9.156 -0.5218  0.6228 -1.3390
  270HK4    C3922670   0.388   7.323   9.323  0.3476  0.5342  0.2568
  270HK4    C4122671   0.467   7.231   9.394  0.3929 -0.0814 -0.5927
  270HK4    H2122672   0.461   7.228   9.504 -1.6927  0.0284 -0.6928
  270HK4    C4222673   0.550   7.142   9.326 -0.1171 -0.6927 -0.4228
  270HK4    H2222674   0.614   7.078   9.388 -0.3943 -1.1613 -0.6166
  270HK4    C4322675   0.552   7.129   9.187  0.5752 -0.4239 -0.4376
  270HK4    H2322676   0.629   7.066   9.142  2.0264  0.1403  1.1850
  270HK4    C4422677   0.461   7.210   9.121  0.6131  0.2680  0.3407
  270HK4    H2422678   0.459   7.210   9.011 -0.2728  1.4711  0.3530
  270HK4    C4522679   0.377   7.301   9.185  0.9417  0.6767  0.1861
  270HK4    H2522680   0.298   7.343   9.120  0.1798  1.2509  1.4782
  271HK4    H2822681   4.180   4.431   9.124  1.3656 -1.8421  1.0461
  271HK4    C4822682   4.250   4.514   9.120 -0.3328 -0.4033  0.2015
  271HK4    C4722683   4.369   4.489   9.187 -0.2415  0.0642  0.2162
  271HK4    H2722684   4.387   4.384   9.215  0.2002  0.0206 -0.2226
  271HK4    C4622685   4.463   4.589   9.211  0.2474 -0.5678  0.9711
  271HK4    H2622686   4.560   4.560   9.253  1.4661  1.8354 -0.0654
  271HK4    C4022687   4.440   4.723   9.172 -0.0534 -0.8718  0.0976
  271HK4    C5022688   4.311   4.751   9.120 -0.1962 -0.2395  0.7889
  271HK4    H3022689   4.291   4.853   9.086 -0.9371 -0.7584 -0.3547
  271HK4    C4922690   4.223   4.647   9.091  0.3352 -0.3833 -0.3299
  271HK4    H2922691   4.134   4.673   9.033 -0.7801 -0.7759  1.1770
  271HK4     N222692   4.496   4.828   9.245  0.0678 -0.6975 -0.2452
  271HK4    C3022693   4.526   4.825   9.383 -0.4034  0.9063 -0.0993
  271HK4    C2922694   4.465   4.750   9.484  0.3017 -0.0591 -0.3857
  271HK4    H1522695   4.389   4.679   9.453 -0.5045 -1.1246  3.8346
  271HK4    C2822696   4.491   4.786   9.616 -0.0384  0.1365 -0.3719
  271HK4    C2722697   4.580   4.891   9.646 -0.0309  0.1123 -0.3127
  271HK4    H1422698   4.610   4.909   9.750 -0.6495 -3.1971  0.4741
  271HK4    C3222699   4.635   4.969   9.544 -0.6512  0.6603 -0.2384
  271HK4    H1622700   4.696   5.056   9.568 -0.3873  0.3467  0.2567
  271HK4    C3122701   4.612   4.938   9.411  0.0144  0.6518 -0.3528
  271HK4    C3422702   4.628   5.017   9.290  0.1261  0.0521 -0.7327
  271HK4    C3322703   4.553   4.944   9.190 -0.3636 -0.3930 -0.0507
  271HK4    C3522704   4.582   4.958   9.054  0.0560 -0.3787  0.0393
  271HK4    H1722705   4.532   4.901   8.976 -2.1104 -0.1130  1.1870
  271HK4    C3622706   4.679   5.051   9.020  0.0360 -0.1799  0.5102
  271HK4    H1822707   4.694   5.071   8.913 -0.9766 -1.2438  0.1618
  271HK4    C3722708   4.751   5.121   9.116  0.5685  0.1307 -0.1106
  271HK4    H1922709   4.843   5.163   9.075 -0.1943 -0.5820 -2.5939
  271HK4    C3822710   4.726   5.107   9.252  0.4213 -0.0215 -0.1502
  271HK4    H2022711   4.770   5.170   9.329  0.2458  0.5606 -0.5297
  271HK4    C1422712   4.425   4.705   9.719  0.7553  0.1483  0.1527
  271HK4     C922713   4.405   4.750   9.850 -0.1601 -0.1749  0.1319
  271HK4     C822714   4.407   4.657   9.956 -0.5750 -0.5132 -0.1600
  271HK4    C1122715   4.411   4.521   9.926  0.1191 -0.5197 -0.0481
  271HK4     H422716   4.411   4.456  10.015  1.0145 -0.5802 -0.0912
  271HK4    C1222717   4.414   4.469   9.797  0.0640 -0.0830 -0.2279
  271HK4     H522718   4.453   4.367   9.784  0.6793  0.1734 -0.4210
  271HK4    C1322719   4.413   4.566   9.698  0.4074  0.1962  0.0360
  271HK4     H622720   4.393   4.531   9.595  0.9731  2.9775 -1.0699
  271HK4     C722721   4.423   4.705  10.095  0.5640  0.1912 -0.5291
  271HK4     O222722   4.458   4.622  10.179 -0.4814 -0.1431 -0.4162
  271HK4     C422723   4.419   4.850  10.123 -0.5174  0.0627  0.0041
  271HK4     C322724   4.455   4.886  10.253 -0.8828  0.8039 -0.0955
  271HK4     H322725   4.441   4.824  10.342 -1.1165 -3.0894 -2.6971
  271HK4     C222726   4.494   5.019  10.266  0.5198  0.3751  0.1244
  271HK4     H222727   4.538   5.046  10.363  0.8672  0.4896 -0.0645
  271HK4     C122728   4.494   5.108  10.160  0.5679 -0.3394 -0.4834
  271HK4     H122729   4.520   5.213  10.183  0.8107 -0.9794  2.3288
  271HK4     C622730   4.458   5.077  10.027 -0.3110  0.0077 -0.3284
  271HK4     C522731   4.410   4.946  10.020 -0.5596  0.0790  0.0264
  271HK4    C1022732   4.383   4.893   9.884  0.5242 -0.0022 -0.1571
  271HK4     O122733   4.298   4.946   9.812  0.0841 -0.0688  0.3185
  271HK4    C1622734   4.533   5.145   9.921  0.1014 -0.1891 -0.1602
  271HK4    C1522735   4.654   5.206   9.960  0.0186  0.0171 -0.2276
  271HK4     H722736   4.711   5.156  10.041 -1.0347  2.1419  1.8966
  271HK4    C2022737   4.714   5.306   9.884 -0.4511  0.3700 -0.1376
  271HK4     H922738   4.816   5.339   9.904  0.1328  0.6198 -3.3133
  271HK4    C1922739   4.660   5.348   9.764 -0.3693 -0.4434 -0.4580
  271HK4    C1822740   4.526   5.302   9.730 -0.7158  0.2031  0.0106
  271HK4    C1722741   4.473   5.200   9.809 -0.1893 -0.0226  0.0779
  271HK4     H822742   4.365   5.206   9.822 -0.0534  1.5076  0.6044
  271HK4     N122743   4.477   5.370   9.617 -0.5111  0.1762 -0.0960
  271HK4    C2122744   4.580   5.458   9.578 -0.4504  0.1501  0.0106
  271HK4    C2222745   4.699   5.442   9.661 -0.2336 -0.4562 -0.4224
  271HK4    C2622746   4.814   5.517   9.641 -0.3896 -0.1141 -0.0337
  271HK4    H1322747   4.906   5.488   9.691 -0.4569 -0.6064 -0.1943
  271HK4    C2522748   4.812   5.602   9.531 -0.0076 -0.4277 -0.2879
  271HK4    H1222749   4.894   5.669   9.504 -1.0332  1.4393  1.0981
  271HK4    C2422750   4.703   5.616   9.446 -0.6906  0.3363  0.6969
  271HK4    H1122751   4.717   5.690   9.366 -0.4295  1.1499  1.4834
  271HK4    C2322752   4.586   5.546   9.470 -0.7534  0.2089  0.0406
  271HK4    H1022753   4.491   5.577   9.426  0.1122  0.4276 -1.6779
  271HK4    C3922754   4.375   5.319   9.536  0.1974 -0.3498 -0.6783
  271HK4    C4122755   4.317   5.407   9.442  0.0008  0.1919 -0.0557
  271HK4    H2122756   4.292   5.509   9.473  0.8176  0.4021 -0.0710
  271HK4    C4222757   4.261   5.350   9.328 -0.0847  0.3461 -0.0907
  271HK4    H2222758   4.239   5.415   9.242 -1.3639  1.5197  1.0886
  271HK4    C4322759   4.252   5.216   9.294 -0.4434  0.4502 -0.4078
  271HK4    H2322760   4.164   5.191   9.236 -1.1296 -0.1508  0.8642
  271HK4    C4422761   4.303   5.128   9.389 -0.9360  0.1685 -0.4035
  271HK4    H2422762   4.295   5.022   9.362 -0.8490  0.9527 -3.7321
  271HK4    C4522763   4.362   5.183   9.503 -0.1783 -0.3486 -0.5426
  271HK4    H2522764   4.393   5.111   9.580  1.8814 -0.5628 -1.5445
  272HK4    H2822765   8.112   3.714   6.889 -0.7621 -0.3722 -0.1621
  272HK4    C4822766   8.088   3.749   6.789  0.2508  0.1673 -0.2182
  272HK4    C4722767   7.958   3.756   6.741  0.2229 -0.5329 -0.2494
  272HK4    H2722768   7.871   3.697   6.775 -0.7445 -0.2081 -2.0913
  272HK4    C4622769   7.933   3.837   6.631  0.1888 -0.1022  0.0724
  272HK4    H2622770   7.841   3.807   6.580 -0.3381 -0.9301  1.4971
  272HK4    C4022771   8.040   3.899   6.562  0.0983 -0.2044 -0.1593
  272HK4    C5022772   8.170   3.874   6.610  0.0818  0.0646  0.0275
  272HK4    H3022773   8.255   3.913   6.552  0.4692  0.2407  0.7115
  272HK4    C4922774   8.199   3.806   6.728  0.4754 -0.3929 -0.3331
  272HK4    H2922775   8.302   3.775   6.752  0.6427  0.5963  0.2427
  272HK4     N222776   8.013   3.965   6.442  0.3032 -0.0098 -0.1002
  272HK4    C3022777   7.917   3.935   6.343 -0.7174  0.1782  0.8202
  272HK4    C2922778   7.856   3.812   6.320 -0.3804  0.1626 -0.0082
  272HK4    H1522779   7.897   3.723   6.366  0.6209  0.2817 -0.6687
  272HK4    C2822780   7.756   3.799   6.223 -0.2333 -0.2060 -0.1117
  272HK4    C2722781   7.730   3.916   6.149  0.3189 -0.2741 -0.4165
  272HK4    H1422782   7.662   3.908   6.063 -1.2858  1.5970  0.6492
  272HK4    C3222783   7.795   4.039   6.161 -0.0954 -0.1134  0.2356
  272HK4    H1622784   7.762   4.126   6.104  1.5831  0.4492  0.1113
  272HK4    C3122785   7.892   4.051   6.260 -0.3200 -0.0048  0.4400
  272HK4    C3422786   7.977   4.156   6.312 -0.1823  0.1733 -0.1427
  272HK4    C3322787   8.047   4.101   6.426 -0.2151  0.1168 -0.1506
  272HK4    C3522788   8.156   4.170   6.479  0.2085 -0.1196 -0.7131
  272HK4    H1722789   8.216   4.120   6.555 -0.3332 -0.6025 -0.6005
  272HK4    C3622790   8.191   4.291   6.421 -0.1526  0.2070 -0.2446
  272HK4    H1822791   8.285   4.339   6.455 -0.8352  0.4592  1.3156
  272HK4    C3722792   8.122   4.348   6.315  0.4612  0.6741 -0.3982
  272HK4    H1922793   8.130   4.453   6.285  1.1964  0.6521 -0.2993
  272HK4    C3822794   8.009   4.284   6.266  0.7514 -0.0486 -0.1185
  272HK4    H2022795   7.963   4.322   6.175  2.8425  0.8167 -0.8522
  272HK4    C1422796   7.721   3.667   6.171  0.4245 -0.2722 -0.3919
  272HK4     C922797   7.680   3.650   6.038 -0.2163  0.2589 -0.2608
  272HK4     C822798   7.573   3.562   6.014  0.4822 -0.4781 -0.6784
  272HK4    C1122799   7.508   3.492   6.115  0.3225 -0.1314 -0.5429
  272HK4     H422800   7.426   3.424   6.091  1.5433 -2.6303  2.0662
  272HK4    C1222801   7.557   3.503   6.245  0.8007 -0.2376 -0.7107
  272HK4     H522802   7.507   3.446   6.324  0.9241 -1.5213 -1.5494
  272HK4    C1322803   7.660   3.592   6.274  0.2228  0.2513 -0.1317
  272HK4     H622804   7.712   3.579   6.370  1.1988 -0.2516 -0.7135
  272HK4     C722805   7.532   3.529   5.875  0.2926 -0.6452 -0.5845
  272HK4     O222806   7.426   3.472   5.853  0.1718 -0.6660  0.0358
  272HK4     C422807   7.614   3.582   5.764  0.9544 -0.0877  0.1610
  272HK4     C322808   7.601   3.528   5.636 -0.4641 -0.1807  0.3390
  272HK4     H322809   7.524   3.452   5.616  0.3155 -0.9511  0.2449
  272HK4     C222810   7.663   3.590   5.528 -0.2583  0.1998  0.6722
  272HK4     H222811   7.638   3.556   5.427 -0.1809  2.1764 -0.0301
  272HK4     C122812   7.738   3.706   5.547  0.2602 -0.0337  0.0578
  272HK4     H122813   7.781   3.752   5.457 -0.4888 -0.7725 -0.6948
  272HK4     C622814   7.742   3.765   5.675 -0.2051  0.4257 -0.1382
  272HK4     C522815   7.694   3.696   5.787  0.7854  0.0536  0.0569
  272HK4    C1022816   7.751   3.713   5.924  0.4405  0.2982  0.1667
  272HK4     O122817   7.872   3.733   5.932  0.4915  0.0050  0.1498
  272HK4    C1622818   7.796   3.901   5.677 -0.0190  0.3589 -0.4879
  272HK4    C1522819   7.737   3.998   5.760 -0.5876 -0.5353  0.1569
  272HK4     H722820   7.629   3.999   5.785 -0.4489  1.9218  0.8555
  272HK4    C2022821   7.814   4.101   5.812 -0.5398 -0.3293 -0.3214
  272HK4     H922822   7.779   4.180   5.879 -1.7667 -0.2528 -1.0505
  272HK4    C1922823   7.946   4.120   5.774 -0.4292 -0.1878  0.1264
  272HK4    C1822824   8.004   4.025   5.681 -0.2276  0.1039 -0.0498
  272HK4    C1722825   7.926   3.921   5.632  0.0882  0.0029 -0.3347
  272HK4     H822826   7.975   3.855   5.560 -1.3273  1.5745 -2.7837
  272HK4     N122827   8.137   4.062   5.651  0.1294 -0.6499  0.5724
  272HK4    C2122828   8.168   4.181   5.718 -0.2044 -0.0350 -0.3572
  272HK4    C2222829   8.053   4.216   5.799 -0.0209 -0.6566  0.1787
  272HK4    C2622830   8.044   4.338   5.865  0.5186 -0.1329 -0.7116
  272HK4    H1322831   7.955   4.364   5.922  0.9782 -0.5913  0.2213
  272HK4    C2522832   8.147   4.429   5.849  0.1829  0.4575  0.4498
  272HK4    H1222833   8.144   4.528   5.895  1.4193  0.7751 -0.1207
  272HK4    C2422834   8.255   4.398   5.767 -0.2133  0.0905  0.0658
  272HK4    H1122835   8.288   4.488   5.713  0.3381  0.6406  1.3053
  272HK4    C2322836   8.273   4.272   5.710 -0.6001  0.3919 -0.7357
  272HK4    H1022837   8.374   4.232   5.703 -0.0919  0.9953  2.2759
  272HK4    C3922838   8.231   3.967   5.608 -0.2862 -0.4715 -0.7524
  272HK4    C4122839   8.349   4.003   5.540 -0.6166  0.4269 -0.8630
  272HK4    H2122840   8.350   4.108   5.506  1.1365  0.9092  0.5587
  272HK4    C4222841   8.452   3.911   5.520 -1.0116 -0.1395 -0.2933
  272HK4    H2222842   8.545   3.957   5.483 -0.9812 -0.3384 -0.4639
  272HK4    C4322843   8.442   3.777   5.557  0.2675 -0.5154 -1.3098
  272HK4    H2322844   8.527   3.708   5.561  1.1581  0.6612  2.9931
  272HK4    C4422845   8.328   3.743   5.627  0.6968  0.5056 -0.0938
  272HK4    H2422846   8.336   3.652   5.689  3.7383 -0.6099 -2.0070
  272HK4    C4522847   8.226   3.834   5.653  0.0574 -0.2298  0.0110
  272HK4    H2522848   8.155   3.805   5.732  0.1361  0.1467  0.2220
  273HK4    H2822849   2.945   5.873   8.123  3.1007  1.3235 -1.5697
  273HK4    C4822850   2.983   5.843   8.220  0.0284  0.4000 -0.5963
  273HK4    C4722851   3.116   5.803   8.232  0.1295  0.8223 -0.2762
  273HK4    H2722852   3.177   5.784   8.142 -0.1214  2.2105 -0.7509
  273HK4    C4622853   3.171   5.760   8.352 -0.0436  0.0022 -0.4832
  273HK4    H2622854   3.272   5.716   8.358  1.3132  3.0993  0.5173
  273HK4    C4022855   3.108   5.771   8.478  0.1233  0.2062 -0.4183
  273HK4    C5022856   2.976   5.819   8.465 -0.2566 -0.6689  0.1795
  273HK4    H3022857   2.913   5.835   8.554 -0.3198 -3.2869  0.6573
  273HK4    C4922858   2.920   5.857   8.343  0.9687  0.2806 -0.0962
  273HK4    H2922859   2.817   5.895   8.335  1.4096  1.1369 -1.8508
  273HK4     N222860   3.149   5.704   8.594  0.4046  0.2903 -0.4697
  273HK4    C3022861   3.111   5.731   8.727  0.0303 -0.1806 -0.4756
  273HK4    C2922862   3.083   5.857   8.780 -0.7621 -0.4984 -0.1375
  273HK4    H1522863   3.085   5.939   8.709 -1.3592 -1.3585 -1.1682
  273HK4    C2822864   3.058   5.877   8.915 -0.5538 -0.0585 -0.1640
  273HK4    C2722865   3.068   5.764   8.999 -0.8899  0.0005 -0.0419
  273HK4    H1422866   3.029   5.780   9.100  2.1490  1.0463  1.0139
  273HK4    C3222867   3.108   5.639   8.953  0.3159  0.3582  0.0189
  273HK4    H1622868   3.113   5.550   9.016 -1.0672  0.5314  0.3770
  273HK4    C3122869   3.129   5.620   8.817 -0.1053  0.1654 -0.0212
  273HK4    C3422870   3.178   5.512   8.733  0.1593 -0.0267  0.3750
  273HK4    C3322871   3.189   5.568   8.600 -0.1402  0.1629  0.4310
  273HK4    C3522872   3.246   5.490   8.501 -0.5574  0.3228  0.0589
  273HK4    H1722873   3.246   5.518   8.395 -0.9601  2.1059  0.5238
  273HK4    C3622874   3.303   5.367   8.530 -0.8663  0.0322 -0.5702
  273HK4    H1822875   3.371   5.321   8.456 -0.0758  0.0903  0.1233
  273HK4    C3722876   3.277   5.309   8.653 -0.0668  0.1699 -0.3331
  273HK4    H1922877   3.282   5.200   8.654  1.0636  0.2181  1.5286
  273HK4    C3822878   3.216   5.380   8.756 -0.2883 -0.2548 -0.1715
  273HK4    H2022879   3.184   5.330   8.847 -0.2334  0.2539  0.1284
  273HK4    C1422880   3.075   6.015   8.962  0.2066  0.1039 -0.9222
  273HK4     C922881   3.142   6.052   9.079 -0.2844 -0.2567 -0.5291
  273HK4     C822882   3.120   6.184   9.126 -0.0860 -0.3894 -0.0634
  273HK4    C1122883   3.031   6.267   9.059  0.2858 -0.1575 -0.2700
  273HK4     H422884   3.002   6.367   9.095 -1.3424 -0.8997  0.4977
  273HK4    C1222885   2.961   6.233   8.944 -0.5861 -0.0178  0.2197
  273HK4     H522886   2.899   6.306   8.890 -2.1444 -1.6484 -0.2377
  273HK4    C1322887   2.983   6.103   8.901  0.0937  0.3147 -0.4458
  273HK4     H622888   2.929   6.081   8.808 -0.3305  2.3904 -0.7182
  273HK4     C722889   3.162   6.222   9.263 -0.9022 -0.0151  0.0867
  273HK4     O222890   3.188   6.340   9.285 -0.3924 -0.1562  0.2556
  273HK4     C422891   3.200   6.111   9.353  0.0060 -0.1111 -0.4085
  273HK4     C322892   3.213   6.150   9.486  0.1665 -0.0735 -0.4350
  273HK4     H322893   3.193   6.253   9.520  1.0640  0.5365 -1.7038
  273HK4     C222894   3.267   6.061   9.578 -0.6203  0.2552  0.3547
  273HK4     H222895   3.294   6.076   9.683 -0.0203 -2.8323  0.6957
  273HK4     C122896   3.297   5.934   9.530  0.1399  0.6139 -0.1238
  273HK4     H122897   3.323   5.854   9.601 -0.0409  1.1044  0.5021
  273HK4     C622898   3.282   5.887   9.398  0.3661 -0.1386  0.1151
  273HK4     C522899   3.245   5.986   9.306  0.0570 -0.2816  0.0863
  273HK4    C1022900   3.224   5.958   9.161 -0.2831  0.2287  0.0344
  273HK4     O122901   3.319   5.917   9.095 -0.0568 -0.0002  0.5070
  273HK4    C1622902   3.261   5.743   9.378  0.7088 -0.2125  0.2731
  273HK4    C1522903   3.180   5.668   9.465 -0.3529  0.3355 -0.2313
  273HK4     H722904   3.145   5.713   9.559  0.1249  1.8514 -0.7716
  273HK4    C2022905   3.156   5.532   9.452  0.3547  0.1517  0.3756
  273HK4     H922906   3.098   5.471   9.521  0.0968 -0.0382 -0.0061
  273HK4    C1922907   3.213   5.464   9.344 -0.5631  0.2321 -0.1608
  273HK4    C1822908   3.307   5.537   9.261  0.1357  0.0447  0.4612
  273HK4    C1722909   3.329   5.673   9.279  0.2498  0.1313 -0.2925
  273HK4     H822910   3.401   5.725   9.215 -0.4183  0.9882 -0.3508
  273HK4     N122911   3.362   5.448   9.166  0.1967  0.1464  0.4036
  273HK4    C2122912   3.295   5.325   9.181  0.3227  0.0398  0.0885
  273HK4    C2222913   3.210   5.327   9.298  0.0049  0.2145 -0.1452
  273HK4    C2622914   3.117   5.226   9.321  0.3120  0.0282  0.2799
  273HK4    H1322915   3.068   5.231   9.419  0.7656  2.2739  0.4243
  273HK4    C2522916   3.097   5.127   9.226 -0.0279  0.6171 -0.2622
  273HK4    H1222917   3.020   5.049   9.231  0.9364 -0.2976  0.5805
  273HK4    C2422918   3.181   5.121   9.115  0.0333 -0.3138 -0.1671
  273HK4    H1122919   3.156   5.048   9.037 -3.4172  2.4923 -1.8194
  273HK4    C2322920   3.280   5.216   9.096 -0.4324  0.2112  0.0013
  273HK4    H1022921   3.361   5.203   9.024 -0.8604 -1.4935 -0.1852
  273HK4    C3922922   3.492   5.470   9.120  0.1395 -0.1628  0.0867
  273HK4    C4122923   3.524   5.419   8.993  0.2025  0.2800 -0.0744
  273HK4    H2122924   3.449   5.379   8.924 -0.5378 -0.3519  1.1007
  273HK4    C4222925   3.654   5.433   8.944  0.1654  0.3050 -0.1673
  273HK4    H2222926   3.672   5.395   8.842 -2.2951  0.0575 -0.5495
  273HK4    C4322927   3.754   5.489   9.022  0.3245 -0.3105  0.0711
  273HK4    H2322928   3.858   5.492   8.991  0.1609  2.8010 -0.3321
  273HK4    C4422929   3.726   5.533   9.151  0.1355 -0.0947 -0.0431
  273HK4    H2422930   3.800   5.582   9.217 -1.0821 -1.7600  2.6366
  273HK4    C4522931   3.595   5.529   9.197  0.0896  0.2293 -0.1456
  273HK4    H2522932   3.577   5.551   9.303 -1.4326 -1.2034 -0.0906
  274HK4    H2822933  11.005   0.775   0.513 -1.0191  1.1379  1.2270
  274HK4    C4822934  10.909   0.762   0.463 -0.0154  0.1822 -0.5003
  274HK4    C4722935  10.901   0.775   0.325 -0.0163  0.3344 -0.4870
  274HK4    H2722936  10.991   0.791   0.264  0.8414  1.1830  0.9901
  274HK4    C4622937  10.779   0.758   0.259 -0.1794 -0.0488 -0.0931
  274HK4    H2622938  10.779   0.717   0.157 -1.3152  0.2323 -0.2075
  274HK4    C4022939  10.660   0.749   0.334 -0.1667  0.3307 -0.0269
  274HK4    C5022940  10.667   0.753   0.475  0.2877 -0.3238 -0.0302
  274HK4    H3022941  10.576   0.788   0.526 -0.4267  0.1552 -1.6032
  274HK4    C4922942  10.792   0.750   0.537  0.2985 -0.0016 -0.0326
  274HK4    H2922943  10.787   0.761   0.646  0.7163  2.9436 -0.2663
  274HK4     N222944  10.535   0.758   0.273 -0.3202  0.1591  0.2626
  274HK4    C3022945  10.517   0.810   0.143  0.2611 -0.5075 -0.0887
  274HK4    C2922946  10.608   0.873   0.059  0.0501 -0.6034 -0.3856
  274HK4    H1522947  10.683   0.937   0.104 -0.5208  0.8854 -1.5142
  274HK4    C2822948  10.588   0.893  11.171 -0.1045  0.2395 -0.2391
  274HK4    C2722949  10.463   0.852  11.121 -0.2545  0.8433 -0.3644
  274HK4    H1422950  10.449   0.843  11.013 -1.9146 -0.9432 -0.0377
  274HK4    C3222951  10.363   0.805  11.206  0.2675  0.6435  0.1346
  274HK4    H1622952  10.260   0.797  11.172  0.4326 -2.6091  0.2378
  274HK4    C3122953  10.384   0.778   0.093 -0.1411  0.6623  0.2012
  274HK4    C3422954  10.317   0.713   0.204 -0.0108  0.4660  0.1643
  274HK4    C3322955  10.413   0.700   0.313 -0.1102 -0.3576  0.1518
  274HK4    C3522956  10.371   0.630   0.426 -0.1598 -0.0976  0.2949
  274HK4    H1722957  10.447   0.587   0.490  0.7184  2.1658  0.8105
  274HK4    C3622958  10.244   0.577   0.445 -0.0977 -0.0041  0.9744
  274HK4    H1822959  10.217   0.529   0.540 -0.3605  1.2735  1.5629
  274HK4    C3722960  10.157   0.603   0.339  0.6916  0.1539  0.3570
  274HK4    H1922961  10.061   0.553   0.351  1.2833 -1.6383 -1.8874
  274HK4    C3822962  10.186   0.669   0.221  0.0756  0.2267  0.2440
  274HK4    H2022963  10.103   0.680   0.151 -0.7343 -2.2474  0.7934
  274HK4    C1422964  10.676   0.987  11.099  0.1206  0.0470 -0.2138
  274HK4     C922965  10.649   1.075  10.993  0.1336  0.1936 -0.0944
  274HK4     C822966  10.756   1.133  10.922  0.0833 -0.0440 -0.3598
  274HK4    C1122967  10.889   1.118  10.961  0.1314 -0.3139 -0.6213
  274HK4     H422968  10.968   1.180  10.916 -1.8222  2.9072  0.2228
  274HK4    C1222969  10.923   1.030  11.063 -0.0004  0.5357  0.1654
  274HK4     H522970  11.020   0.978  11.056 -1.4536 -2.2223 -0.3954
  274HK4    C1322971  10.814   0.970  11.124  0.1015  0.2174  0.0311
  274HK4     H622972  10.839   0.889  11.195 -0.8066 -0.1055 -0.0045
  274HK4     C722973  10.725   1.191  10.790 -0.0330  0.6069 -0.0470
  274HK4     O222974  10.806   1.269  10.741  0.4166  0.0708 -0.1494
  274HK4     C422975  10.589   1.188  10.731  0.0059 -0.5434 -0.0740
  274HK4     C322976  10.562   1.255  10.613  0.2815  0.2083  0.2887
  274HK4     H322977  10.637   1.313  10.556 -0.5423  0.2007 -0.8378
  274HK4     C222978  10.433   1.255  10.560  0.4042  0.0086 -0.0168
  274HK4     H222979  10.418   1.319  10.472  0.6644  1.6476  1.1096
  274HK4     C122980  10.337   1.176  10.622 -0.1744  0.3232 -0.5124
  274HK4     H122981  10.233   1.181  10.586 -0.3535  3.1476  0.3100
  274HK4     C622982  10.361   1.104  10.741 -0.2044  0.9516 -0.1226
  274HK4     C522983  10.487   1.119  10.800 -0.2523  0.1165  0.1992
  274HK4    C1022984  10.509   1.089  10.944  0.0466  0.4493  0.2231
  274HK4     O122985  10.428   1.142  11.020 -0.1215  0.0861  0.2953
  274HK4    C1622986  10.280   0.982  10.756  0.2781  0.6449 -0.0073
  274HK4    C1522987  10.240   0.914  10.639 -0.7719  0.3476  0.5182
  274HK4     H722988  10.295   0.934  10.546 -0.2376  0.9225  0.9495
  274HK4    C2022989  10.133   0.825  10.633  0.0115 -0.5623 -0.0982
  274HK4     H922990  10.116   0.786  10.533  1.0170  2.0600 -1.3633
  274HK4    C1922991  10.058   0.803  10.748 -0.0492 -0.2258 -0.0722
  274HK4    C1822992  10.099   0.861  10.874 -0.0980  0.1377 -0.2208
  274HK4    C1722993  10.212   0.943  10.870  0.3703 -0.5021 -0.3443
  274HK4     H822994  10.244   0.975  10.969  1.0021 -1.8820 -0.0877
  274HK4     N122995  10.016   0.821  10.980 -0.1285  0.2007 -0.2227
  274HK4    C2122996   9.926   0.732  10.918 -0.5014  0.5461 -0.1755
  274HK4    C2222997   9.946   0.715  10.776 -0.1602 -0.0755 -0.0511
  274HK4    C2622998   9.853   0.648  10.697  0.3326 -0.8110 -0.0220
  274HK4    H1322999   9.859   0.654  10.588 -1.2652 -0.7838 -0.1118
  274HK4    C2523000   9.736   0.598  10.752 -0.1943  0.5506  0.1093
  274HK4    H1223001   9.656   0.557  10.691 -1.2281  0.3285  1.5955
  274HK4    C2423002   9.710   0.620  10.887  0.3281 -0.3630  0.3635
  274HK4    H1123003   9.608   0.612  10.929 -0.6051  2.4404 -1.2331
  274HK4    C2323004   9.806   0.680  10.967 -0.1040  0.2203  0.4527
  274HK4    H1023005   9.775   0.699  11.070 -1.0284  2.6606 -0.2501
  274HK4    C3923006  10.006   0.880  11.107 -0.2098 -0.6446  0.1720
  274HK4    C4123007   9.964   0.806  11.219 -0.1545 -0.5710  0.2438
  274HK4    H2123008   9.943   0.700  11.199  0.7884 -0.4779 -1.2987
  274HK4    C4223009   9.940   0.862   0.096 -0.3092  0.4908 -0.2549
  274HK4    H2223010   9.890   0.818   0.184  1.7530  0.8653  1.1414
  274HK4    C4323011   9.956   0.999   0.111 -0.4852  0.4539  0.2886
  274HK4    H2323012   9.933   1.047   0.206  0.2380  0.5399  0.4238
  274HK4    C4423013   9.982   1.076  11.246 -0.0993  0.3674  0.3166
  274HK4    H2423014   9.973   1.186   0.006  1.4797  0.4536  1.1341
  274HK4    C4523015  10.014   1.020  11.123 -1.2828 -0.6108  0.4428
  274HK4    H2523016  10.020   1.081  11.032  0.7572 -1.3967  0.0125
  275HK4    H2823017   8.153   9.306   6.544 -2.3124 -0.5370 -0.1176
  275HK4    C4823018   8.152   9.260   6.446  0.4268 -0.4440 -0.2206
  275HK4    C4723019   8.048   9.291   6.359  0.6169 -0.6092 -0.5094
  275HK4    H2723020   7.958   9.342   6.397  2.0970  0.1795  2.0836
  275HK4    C4623021   8.070   9.271   6.223 -0.1117 -0.1895 -0.6936
  275HK4    H2623022   7.991   9.304   6.155  3.0776  0.4346 -4.2554
  275HK4    C4023023   8.186   9.218   6.162  0.3645  0.1765 -0.1162
  275HK4    C5023024   8.286   9.192   6.258  0.6858  0.7343 -0.2990
  275HK4    H3023025   8.389   9.180   6.222  0.3680  2.6049 -1.9399
  275HK4    C4923026   8.268   9.201   6.396  0.5292 -0.2130 -0.2542
  275HK4    H2923027   8.356   9.195   6.461  1.6046  1.1152 -1.5191
  275HK4     N223028   8.185   9.163   6.034 -0.0216 -0.6652  0.2456
  275HK4    C3023029   8.071   9.121   5.961 -0.3703  1.1274 -0.2659
  275HK4    C2923030   7.938   9.095   5.992 -0.0758 -0.1274 -0.0229
  275HK4    H1523031   7.916   9.101   6.098 -0.7398 -1.9136 -0.0465
  275HK4    C2823032   7.834   9.072   5.903  0.0254 -0.0903 -0.1517
  275HK4    C2723033   7.872   9.055   5.769 -0.2300  0.6614 -0.3228
  275HK4    H1423034   7.789   9.052   5.697  1.2116  0.9458 -2.0394
  275HK4    C3223035   8.005   9.064   5.730  0.0315 -0.2130  0.3610
  275HK4    H1623036   8.035   9.045   5.627 -0.6839 -0.5427  0.2127
  275HK4    C3123037   8.103   9.103   5.821  0.3632 -0.3960  0.0864
  275HK4    C3423038   8.245   9.130   5.809  0.1726  0.4388 -0.2975
  275HK4    C3323039   8.288   9.179   5.938 -0.0540 -0.7017  0.2050
  275HK4    C3523040   8.414   9.232   5.960 -0.4644  0.4728 -0.2114
  275HK4    H1723041   8.450   9.280   6.051 -0.2154 -2.2269  1.1638
  275HK4    C3623042   8.505   9.231   5.854  0.2454 -0.6132  0.3971
  275HK4    H1823043   8.610   9.247   5.883 -0.0352  1.4307  0.3041
  275HK4    C3723044   8.461   9.188   5.730  0.3689 -0.0061  0.1443
  275HK4    H1923045   8.534   9.180   5.649 -0.6314 -2.0914 -0.5802
  275HK4    C3823046   8.335   9.134   5.703  0.4532 -0.0937 -0.0768
  275HK4    H2023047   8.325   9.052   5.632  1.5428 -1.9647  1.8574
  275HK4    C1423048   7.705   9.026   5.959  0.2104 -0.3567  0.0556
  275HK4     C923049   7.621   8.931   5.900  0.1756 -0.1636 -0.2072
  275HK4     C823050   7.480   8.941   5.908  0.1966 -0.2856  0.2499
  275HK4    C1123051   7.424   9.042   5.986 -0.0156 -0.1980 -0.0203
  275HK4     H423052   7.317   9.064   5.975 -0.2318 -0.1277  2.0653
  275HK4    C1223053   7.499   9.137   6.054  0.0394 -0.2370 -0.0252
  275HK4     H523054   7.450   9.216   6.112 -0.1036  0.6618 -1.3565
  275HK4    C1323055   7.636   9.121   6.037 -0.0049  0.1885 -0.7899
  275HK4     H623056   7.700   9.172   6.110 -1.6652 -1.5889  2.0362
  275HK4     C723057   7.393   8.854   5.826  0.0899 -0.0959  0.1612
  275HK4     O223058   7.274   8.848   5.856 -0.0235  0.1073 -0.2410
  275HK4     C423059   7.454   8.769   5.721 -0.0007 -0.6889  0.5874
  275HK4     C323060   7.369   8.706   5.631 -0.2630  0.4272  0.0349
  275HK4     H323061   7.267   8.743   5.618 -0.8914 -1.0100  0.7618
  275HK4     C223062   7.416   8.619   5.532 -0.3319  0.3261  0.0898
  275HK4     H223063   7.361   8.525   5.515 -0.3427 -0.1140  2.4536
  275HK4     C123064   7.552   8.627   5.505 -0.3546 -0.0050 -0.1190
  275HK4     H123065   7.590   8.571   5.418 -1.0425  0.0687 -0.4682
  275HK4     C623066   7.641   8.696   5.590 -0.1633  0.0654 -0.3765
  275HK4     C523067   7.593   8.758   5.706 -0.0349  0.0568 -0.3201
  275HK4    C1023068   7.675   8.824   5.812  0.2552  0.2336 -0.6518
  275HK4     O123069   7.772   8.760   5.851 -0.0541 -0.1704 -0.5474
  275HK4    C1623070   7.774   8.722   5.533  0.0937 -0.2084  0.1020
  275HK4    C1523071   7.779   8.786   5.408  0.3214 -0.1996  0.1141
  275HK4     H723072   7.684   8.828   5.370 -1.8345 -4.4452  0.5630
  275HK4    C2023073   7.894   8.779   5.330  0.2379  0.1424 -0.0441
  275HK4     H923074   7.894   8.827   5.233 -1.9112 -1.2877 -0.7920
  275HK4    C1923075   8.012   8.718   5.371  0.1475 -0.2298 -0.3448
  275HK4    C1823076   8.003   8.637   5.491 -0.2321  0.1757 -0.0985
  275HK4    C1723077   7.891   8.656   5.571  0.1957  0.1961  0.4981
  275HK4     H823078   7.889   8.611   5.670  1.0516 -0.2752  0.3043
  275HK4     N123079   8.099   8.534   5.498 -0.1430  0.2693  0.0339
  275HK4    C2123080   8.181   8.553   5.385  0.5943  0.0654  0.5377
  275HK4    C2223081   8.128   8.661   5.305  0.0798 -0.6573 -0.1042
  275HK4    C2623082   8.210   8.706   5.201  0.1229 -0.6526 -0.0682
  275HK4    H1323083   8.205   8.807   5.162  1.1924 -0.6631 -0.2300
  275HK4    C2523084   8.325   8.636   5.166  0.0593 -0.6298 -0.3371
  275HK4    H1223085   8.366   8.645   5.066 -0.3181  0.2119 -0.4222
  275HK4    C2423086   8.372   8.530   5.243 -0.4665 -0.6549 -0.0534
  275HK4    H1123087   8.451   8.465   5.204 -2.1382 -3.0310  0.3894
  275HK4    C2323088   8.301   8.489   5.356  0.4842 -0.2213  0.6990
  275HK4    H1023089   8.341   8.396   5.396  2.0419 -0.7752 -2.0279
  275HK4    C3923090   8.137   8.470   5.616 -0.7637 -0.1337  0.0198
  275HK4    C4123091   8.172   8.333   5.608 -0.1572 -0.0024  0.3662
  275HK4    H2123092   8.129   8.269   5.529  1.6509  0.8121 -1.3452
  275HK4    C4223093   8.279   8.284   5.681 -0.0251 -0.2765 -0.0040
  275HK4    H2223094   8.317   8.189   5.641  0.8101  0.4630 -0.9917
  275HK4    C4323095   8.334   8.367   5.779 -0.2289  0.1101 -0.2207
  275HK4    H2323096   8.410   8.330   5.848  0.1149  0.9581 -0.1469
  275HK4    C4423097   8.298   8.500   5.796 -0.0133  0.1375  0.0490
  275HK4    H2423098   8.366   8.569   5.848 -0.2968  0.4931 -0.0514
  275HK4    C4523099   8.194   8.549   5.718 -0.0141 -0.3326 -0.2480
  275HK4    H2523100   8.146   8.646   5.737  2.6677  0.8604  0.6398
  276HK4    H2823101   3.452   9.299   3.314  2.5700  0.6197 -0.1348
  276HK4    C4823102   3.439   9.332   3.417 -0.0252  0.0743 -0.2664
  276HK4    C4723103   3.331   9.407   3.463  0.1982  0.2425 -0.0250
  276HK4    H2723104   3.229   9.374   3.440 -0.1228  0.1055  1.5063
  276HK4    C4623105   3.352   9.509   3.555  0.0737  0.3513 -0.1148
  276HK4    H2623106   3.273   9.585   3.569  0.0116  1.0932 -3.9821
  276HK4    C4023107   3.480   9.528   3.612  0.1123  0.0774 -0.1144
  276HK4    C5023108   3.584   9.440   3.574 -0.2203 -0.6410  0.6205
  276HK4    H3023109   3.683   9.439   3.622  0.1443 -1.0083 -0.1325
  276HK4    C4923110   3.564   9.345   3.475 -0.4708 -0.9469  0.9586
  276HK4    H2923111   3.640   9.270   3.448 -0.2274  0.0091 -1.1447
  276HK4     N223112   3.496   9.610   3.724  0.1359 -0.1483  0.0498
  276HK4    C3023113   3.616   9.675   3.759  0.3568 -0.1711 -0.6510
  276HK4    C2923114   3.736   9.696   3.694  0.6525 -0.2682 -0.1364
  276HK4    H1523115   3.747   9.677   3.587  1.8107 -0.4014 -0.0042
  276HK4    C2823116   3.847   9.759   3.749  0.5617 -0.5381  0.3576
  276HK4    C2723117   3.833   9.813   3.879  0.1775  0.2775 -0.0186
  276HK4    H1423118   3.909   9.878   3.924 -1.3613  0.7073  2.0570
  276HK4    C3223119   3.713   9.800   3.948  0.2188 -0.4173 -0.0700
  276HK4    H1623120   3.694   9.869   4.031  0.3306 -1.1486  0.5718
  276HK4    C3123121   3.607   9.729   3.893  0.3990 -0.2696 -0.6080
  276HK4    C3423122   3.469   9.701   3.930  0.3592  0.3183 -0.2969
  276HK4    C3323123   3.405   9.617   3.831  0.1474  0.0792  0.0455
  276HK4    C3523124   3.283   9.558   3.863  0.2240  0.2966  0.7608
  276HK4    H1723125   3.224   9.515   3.781  2.1247 -3.1287  1.0910
  276HK4    C3623126   3.231   9.576   3.990 -0.8147 -0.3912  0.4448
  276HK4    H1823127   3.127   9.546   4.011 -0.9187 -1.5632 -1.6464
  276HK4    C3723128   3.295   9.652   4.087 -0.3534  0.0642 -0.2128
  276HK4    H1923129   3.248   9.681   4.181  1.1541  0.1879  0.5178
  276HK4    C3823130   3.415   9.715   4.057 -0.1216 -0.4639 -0.4093
  276HK4    H2023131   3.486   9.734   4.138 -1.6160  1.2082  0.5347
  276HK4    C1423132   3.982   9.745   3.692  0.4129  0.8496 -0.3429
  276HK4     C923133   4.101   9.747   3.765  0.1571 -0.3460  0.1184
  276HK4     C823134   4.205   9.821   3.705 -0.2740  0.5597  0.4798
  276HK4    C1123135   4.205   9.865   3.573  0.3073 -0.6682  0.0667
  276HK4     H423136   4.286   9.931   3.538  0.6028 -0.9483  0.2206
  276HK4    C1223137   4.100   9.830   3.489 -0.0951  0.6476  0.0142
  276HK4     H523138   4.111   9.836   3.380  1.9113  0.1434  0.1580
  276HK4    C1323139   3.990   9.775   3.554 -0.2969  0.4712 -0.4723
  276HK4     H623140   3.908   9.746   3.487 -3.5039  0.2557  3.3346
  276HK4     C723141   4.322   9.855   3.790 -0.0115  0.1504  0.2802
  276HK4     O223142   4.418   9.917   3.742 -0.3505  0.2528 -0.2740
  276HK4     C423143   4.339   9.786   3.920 -0.7601  0.2790  0.4462
  276HK4     C323144   4.445   9.827   4.000 -0.0726  0.1911 -0.4101
  276HK4     H323145   4.493   9.925   3.985 -0.9490  0.5733 -0.7231
  276HK4     C223146   4.494   9.735   4.092  0.2732  0.2266 -0.5591
  276HK4     H223147   4.589   9.763   4.138  0.3723  0.7025 -1.0446
  276HK4     C123148   4.442   9.606   4.099  0.3161  0.2390  0.0499
  276HK4     H123149   4.505   9.533   4.152  0.1937  0.4506  0.4860
  276HK4     C623150   4.336   9.567   4.014  0.4232  0.2826 -0.1037
  276HK4     C523151   4.269   9.665   3.939 -0.2268 -0.1053 -0.0325
  276HK4    C1023152   4.133   9.658   3.880 -0.1029 -0.8989 -0.2351
  276HK4     O123153   4.038   9.626   3.951 -0.1973 -0.2216 -0.0500
  276HK4    C1623154   4.296   9.426   4.017  0.0685  0.3933  0.3272
  276HK4    C1523155   4.316   9.351   4.135 -0.0816 -0.0262  0.0857
  276HK4     H723156   4.294   9.397   4.232  1.3123 -0.3914  0.5896
  276HK4    C2023157   4.304   9.212   4.131 -0.3938  0.0089 -0.3721
  276HK4     H923158   4.329   9.162   4.225 -0.9848  1.7085  0.7119
  276HK4    C1923159   4.265   9.150   4.014 -0.1964 -0.0640 -0.4001
  276HK4    C1823160   4.236   9.224   3.893 -0.1432  0.2445 -0.2195
  276HK4    C1723161   4.261   9.361   3.899  0.8522  0.0413  0.2829
  276HK4     H823162   4.257   9.418   3.806 -2.7353  1.0773  1.0041
  276HK4     N123163   4.190   9.141   3.789  0.3401 -0.0167 -0.2216
  276HK4    C2123164   4.197   9.009   3.838  0.6857  0.0585 -0.0626
  276HK4    C2223165   4.241   9.012   3.976  0.2384 -0.2755  0.0881
  276HK4    C2623166   4.280   8.892   4.034  1.0306 -0.2960 -0.4819
  276HK4    H1323167   4.326   8.892   4.133 -2.1590 -0.1216  1.0564
  276HK4    C2523168   4.270   8.772   3.964  0.3025 -0.5694  0.0790
  276HK4    H1223169   4.248   8.685   4.026  0.2793 -0.0927  0.7404
  276HK4    C2423170   4.238   8.774   3.829  0.3458  0.0538  0.0747
  276HK4    H1123171   4.257   8.685   3.768 -0.6298 -0.1193  0.0093
  276HK4    C2323172   4.196   8.891   3.766 -0.2210 -0.0890  0.1801
  276HK4    H1023173   4.138   8.888   3.673 -0.8054 -1.3318  0.5789
  276HK4    C3923174   4.116   9.193   3.681 -0.0701  0.3824  0.2501
  276HK4    C4123175   4.100   9.125   3.559  0.7547  0.4213  0.1139
  276HK4    H2123176   4.164   9.041   3.529 -0.8363 -0.7575 -0.1009
  276HK4    C4223177   4.005   9.161   3.463  0.2078  0.0297  0.5076
  276HK4    H2223178   3.992   9.116   3.364  0.9033  1.1441 -0.0949
  276HK4    C4323179   3.925   9.272   3.487  0.1084  0.0462  0.1116
  276HK4    H2323180   3.856   9.294   3.406  0.2522  1.3675  0.3247
  276HK4    C4423181   3.943   9.351   3.600 -0.2638 -0.0695  0.2476
  276HK4    H2423182   3.883   9.440   3.619  0.6763  1.1142 -2.1580
  276HK4    C4523183   4.041   9.311   3.692  0.0496  0.4701  0.1482
  276HK4    H2523184   4.033   9.358   3.791 -1.5171 -0.8938  0.6979
  277HK4    H2823185   4.136   7.249   5.827  0.0057 -2.3697  1.6879
  277HK4    C4823186   4.151   7.308   5.918  0.4471 -0.2212  0.2515
  277HK4    C4723187   4.134   7.248   6.042 -0.1215 -0.0055  0.2800
  277HK4    H2723188   4.142   7.138   6.041  1.0424  0.0679 -0.1617
  277HK4    C4623189   4.150   7.314   6.163  0.3364  0.2579  0.0788
  277HK4    H2623190   4.126   7.270   6.261 -0.6165  1.3642  0.3588
  277HK4    C4023191   4.186   7.451   6.162  0.0575  0.3277 -0.4322
  277HK4    C5023192   4.210   7.509   6.036 -0.1128  0.2540 -0.5003
  277HK4    H3023193   4.254   7.610   6.033 -4.0246  2.0724  0.4409
  277HK4    C4923194   4.189   7.442   5.917  0.3812 -0.2047 -0.3284
  277HK4    H2923195   4.205   7.496   5.822 -1.2275 -0.2269 -0.6247
  277HK4     N223196   4.251   7.512   6.269 -0.0091  0.0038 -0.2063
  277HK4    C3023197   4.333   7.446   6.364 -0.2355  0.2346  0.1531
  277HK4    C2923198   4.410   7.331   6.360 -0.3403  0.1767 -0.2108
  277HK4    H1523199   4.406   7.271   6.269 -1.5535 -1.5925  0.9888
  277HK4    C2823200   4.488   7.281   6.463  0.0747 -0.1979 -0.7050
  277HK4    C2723201   4.482   7.353   6.584  0.3640 -0.5569 -0.4740
  277HK4    H1423202   4.547   7.324   6.667  0.7517  0.9305 -0.2343
  277HK4    C3223203   4.414   7.474   6.591  0.5923 -0.4490 -0.1294
  277HK4    H1623204   4.431   7.537   6.679 -2.3564 -1.8015  1.4649
  277HK4    C3123205   4.333   7.521   6.488  0.2530 -0.0427  0.3190
  277HK4    C3423206   4.249   7.638   6.471  0.2226 -0.0750  0.2435
  277HK4    C3323207   4.203   7.628   6.334  0.9648  0.3165 -0.0386
  277HK4    C3523208   4.125   7.730   6.283 -0.2244 -0.6018 -0.0685
  277HK4    H1723209   4.115   7.748   6.175  0.3607 -0.6579 -0.1312
  277HK4    C3623210   4.093   7.833   6.371  0.6717 -0.4628  0.1003
  277HK4    H1823211   4.018   7.910   6.344  0.7479  0.3756  2.2483
  277HK4    C3723212   4.132   7.844   6.503 -0.0497  0.2479  0.2575
  277HK4    H1923213   4.085   7.916   6.570 -0.6986  1.0241 -1.0160
  277HK4    C3823214   4.210   7.742   6.555 -0.0341  0.0886 -0.0798
  277HK4    H2023215   4.245   7.747   6.658  0.3910  2.3012 -0.3077
  277HK4    C1423216   4.503   7.134   6.463  0.4052 -0.1711  0.1734
  277HK4     C923217   4.472   7.054   6.573  0.0255  0.0303  0.2145
  277HK4     C823218   4.537   6.932   6.600  0.2896  0.1495  0.1108
  277HK4    C1123219   4.624   6.880   6.505  0.1876 -0.3383  0.2840
  277HK4     H423220   4.686   6.793   6.529 -0.0476 -0.6909 -0.3428
  277HK4    C1223221   4.649   6.954   6.390 -0.0521  0.2445  0.6040
  277HK4     H523222   4.729   6.919   6.322 -0.5408  2.0360 -0.9481
  277HK4    C1323223   4.590   7.077   6.367 -0.2541 -0.0474 -0.5058
  277HK4     H623224   4.620   7.135   6.279 -0.7166  1.6700  0.4336
  277HK4     C723225   4.517   6.860   6.728 -0.0593 -0.3059 -0.1999
  277HK4     O223226   4.581   6.756   6.746  0.0996 -0.1431  0.1837
  277HK4     C423227   4.422   6.907   6.831  0.2879  0.2655 -0.1415
  277HK4     C323228   4.392   6.823   6.938  0.1449  0.5625  0.0509
  277HK4     H323229   4.413   6.717   6.922  0.9148  0.7649 -0.3220
  277HK4     C223230   4.303   6.870   7.033 -0.1457 -0.2503  0.1768
  277HK4     H223231   4.298   6.819   7.131 -0.5229 -2.2629 -0.8621
  277HK4     C123232   4.251   6.997   7.017  0.2617 -0.1018  0.0418
  277HK4     H123233   4.194   7.033   7.103  0.3054 -1.5776  0.6826
  277HK4     C623234   4.276   7.084   6.908 -0.1142 -0.0216  0.0180
  277HK4     C523235   4.359   7.031   6.808  0.1096  0.2158  0.0799
  277HK4    C1023236   4.363   7.085   6.670 -0.0911  0.1447  0.0462
  277HK4     O123237   4.255   7.100   6.613  0.0889  0.2660 -0.2637
  277HK4    C1623238   4.248   7.227   6.926  0.1538  0.0089  0.1956
  277HK4    C1523239   4.266   7.290   7.051  0.2909 -0.0727  0.2166
  277HK4     H723240   4.326   7.234   7.125  0.4978  1.6387  1.3790
  277HK4    C2023241   4.200   7.408   7.083 -0.3541 -0.5006  0.4894
  277HK4     H923242   4.182   7.446   7.183 -2.9855  3.0357 -1.2516
  277HK4    C1923243   4.118   7.475   6.993  0.4028 -0.0809  0.1065
  277HK4    C1823244   4.088   7.403   6.871 -0.1852  0.1714  0.1045
  277HK4    C1723245   4.157   7.287   6.840 -0.1793  0.0494  0.5762
  277HK4     H823246   4.142   7.235   6.746  2.0988  0.7994 -0.2352
  277HK4     N123247   4.016   7.479   6.776  0.0657  0.0267 -0.2024
  277HK4    C2123248   4.009   7.607   6.835  0.0770  0.0907 -0.3408
  277HK4    C2223249   4.073   7.609   6.964 -0.3014 -0.3655 -0.1428
  277HK4    C2623250   4.096   7.730   7.029 -0.2538 -0.2841 -0.3112
  277HK4    H1323251   4.159   7.734   7.117  0.1776  1.0932 -0.6566
  277HK4    C2523252   4.046   7.844   6.965 -1.1131 -0.6214 -0.2560
  277HK4    H1223253   4.069   7.944   7.002  0.0366 -0.0283 -2.5141
  277HK4    C2423254   3.988   7.844   6.839 -0.0893 -0.1669 -0.7311
  277HK4    H1123255   3.970   7.944   6.798  0.8553  0.9089  1.4090
  277HK4    C2323256   3.962   7.724   6.775 -0.6053 -0.2212 -0.4209
  277HK4    H1023257   3.948   7.732   6.667  0.0047  1.1013 -0.4034
  277HK4    C3923258   3.929   7.423   6.682 -0.6381  0.4932  0.1717
  277HK4    C4123259   3.862   7.301   6.709  0.0086  0.1375  0.1703
  277HK4    H2123260   3.829   7.285   6.812 -0.3597 -1.4349 -0.1854
  277HK4    C4223261   3.819   7.212   6.612 -0.1755 -0.1605  0.5257
  277HK4    H2223262   3.772   7.114   6.631 -2.7083  0.9445  0.2090
  277HK4    C4323263   3.843   7.244   6.479  0.0340  0.2010  0.6517
  277HK4    H2323264   3.826   7.165   6.406  0.6184  0.5096  0.1766
  277HK4    C4423265   3.908   7.363   6.446 -0.3660  0.3568  0.4287
  277HK4    H2423266   3.945   7.387   6.345 -2.1789  3.1252  0.3608
  277HK4    C4523267   3.955   7.447   6.546  0.6768 -0.0820  0.3134
  277HK4    H2523268   3.963   7.552   6.514  1.4549  0.1886  1.3745
  278HK4    H2823269   5.427  10.466   1.618  0.3555 -0.6618 -1.7772
  278HK4    C4823270   5.475  10.553   1.572 -0.0843  0.4125 -0.2420
  278HK4    C4723271   5.497  10.548   1.435 -0.3478 -0.2566 -0.2656
  278HK4    H2723272   5.478  10.462   1.370 -0.1480  1.8476 -3.2628
  278HK4    C4623273   5.556  10.657   1.371 -0.0133 -0.3281 -0.0797
  278HK4    H2623274   5.562  10.659   1.262 -0.3926  1.7251 -0.0864
  278HK4    C4023275   5.606  10.768   1.442 -0.5937  0.0926 -0.3235
  278HK4    C5023276   5.573  10.774   1.579 -0.0350  0.4081 -0.2026
  278HK4    H3023277   5.566  10.871   1.631  0.3005  0.6294 -0.5674
  278HK4    C4923278   5.512  10.667   1.642 -0.3552  0.5363 -0.2982
  278HK4    H2923279   5.485  10.677   1.748 -0.6509  0.1170 -0.3302
  278HK4     N223280   5.675  10.874   1.381 -0.0783 -0.0325  0.0371
  278HK4    C3023281   5.652  10.906   1.246 -0.4322 -0.4448 -0.0007
  278HK4    C2923282   5.533  10.949   1.188 -0.0738  0.5496 -0.0028
  278HK4    H1523283   5.442  10.936   1.246 -0.5772 -2.1350 -1.3101
  278HK4    C2823284   5.530  10.988   1.055 -0.2493 -0.0775 -0.1879
  278HK4    C2723285   5.647  10.977   0.976  0.1169  0.1826  0.3143
  278HK4    H1423286   5.644  10.990   0.867 -2.0265 -0.9030  0.2072
  278HK4    C3223287   5.768  10.937   1.032  0.1505 -0.0918  0.0475
  278HK4    H1623288   5.857  10.934   0.970 -1.3837 -0.7550 -2.1932
  278HK4    C3123289   5.774  10.907   1.168 -0.3646  0.1050  0.1167
  278HK4    C3423290   5.882  10.896   1.265 -0.0724 -0.2148 -0.2472
  278HK4    C3323291   5.816  10.879   1.392 -0.0490 -0.1943 -0.2331
  278HK4    C3523292   5.902  10.890   1.501 -0.0153 -0.8419 -0.1902
  278HK4    H1723293   5.853  10.847   1.588 -0.8704  0.8701  0.1987
  278HK4    C3623294   6.039  10.907   1.488 -0.1216  0.1542 -0.0749
  278HK4    H1823295   6.101  10.913   1.579  2.8855  0.5015 -2.0624
  278HK4    C3723296   6.098  10.912   1.362  0.3148  0.2617  0.1310
  278HK4    H1923297   6.206  10.918   1.350  0.6090 -0.4800  2.2447
  278HK4    C3823298   6.019  10.904   1.247 -0.0386  0.5142  0.3560
  278HK4    H2023299   6.071  10.900   1.151  0.8646  1.5148  0.7852
  278HK4    C1423300   5.400  11.031   1.003 -0.2019 -0.0419 -0.2745
  278HK4     C923301   5.359  11.008   0.871  0.7138  0.0512 -0.5769
  278HK4     C823302   5.277  11.099   0.800 -0.4417 -0.1140  0.5376
  278HK4    C1123303   5.211  11.197   0.873 -0.3934  0.5195 -0.2684
  278HK4     H423304   5.119  11.245   0.837 -1.5964 -1.3136  0.2817
  278HK4    C1223305   5.236  11.208   1.009 -0.0672 -0.5962 -0.2364
  278HK4     H523306   5.188   0.040   1.067 -0.4977 -1.2660  0.3380
  278HK4    C1323307   5.333  11.132   1.075  0.4637  0.2380 -0.0490
  278HK4     H623308   5.347  11.146   1.183 -2.2836 -1.5149  0.5873
  278HK4     C723309   5.273  11.094   0.652 -0.1261  0.0398  0.5250
  278HK4     O223310   5.223  11.188   0.591  0.3362 -0.3715 -0.5052
  278HK4     C423311   5.329  10.977   0.581 -0.4422 -0.0358  0.4013
  278HK4     C323312   5.324  10.978   0.442 -0.1197 -0.5900  0.3823
  278HK4     H323313   5.287  11.062   0.381  1.9536 -0.3760 -0.5941
  278HK4     C223314   5.374  10.870   0.371 -0.6216 -0.2477 -0.4984
  278HK4     H223315   5.368  10.855   0.262  0.7454  0.3044 -0.6711
  278HK4     C123316   5.429  10.763   0.441 -0.4646 -0.0457 -0.3062
  278HK4     H123317   5.442  10.664   0.395 -0.1620 -1.3167  2.4012
  278HK4     C623318   5.453  10.768   0.580  0.2767  0.1561 -0.4410
  278HK4     C523319   5.393  10.872   0.651  0.6815  0.2352 -0.2136
  278HK4    C1023320   5.389  10.880   0.800  0.5633 -0.1991 -0.1932
  278HK4     O123321   5.345  10.778   0.851  0.0547  0.3056  0.3897
  278HK4    C1623322   5.581  10.709   0.623  0.0205 -0.1515 -0.0950
  278HK4    C1523323   5.594  10.670   0.758 -0.1308 -0.3839 -0.1482
  278HK4     H723324   5.509  10.624   0.811  0.5474  0.9442  2.1189
  278HK4    C2023325   5.716  10.668   0.824 -0.1963 -0.2795 -0.0271
  278HK4     H923326   5.718  10.630   0.926  0.2275  0.4551  0.2449
  278HK4    C1923327   5.832  10.687   0.750 -0.3338  0.3573 -0.0857
  278HK4    C1823328   5.824  10.699   0.606 -0.3316  0.3925 -0.0828
  278HK4    C1723329   5.698  10.709   0.548 -0.2705 -1.3942 -0.5603
  278HK4     H823330   5.693  10.710   0.439 -0.5221 -1.7767 -0.5530
  278HK4     N123331   5.950  10.735   0.554 -0.2162 -0.0671 -0.1320
  278HK4    C2123332   6.032  10.754   0.667 -0.1654 -0.2633 -0.1377
  278HK4    C2223333   5.966  10.721   0.792  0.1014 -1.1360 -0.2206
  278HK4    C2623334   6.030  10.726   0.915 -0.3306  1.0107 -0.0562
  278HK4    H1323335   5.985  10.707   1.013 -0.4166 -0.8306 -0.4273
  278HK4    C2523336   6.166  10.755   0.911 -0.1346  0.0550 -0.5185
  278HK4    H1223337   6.218  10.743   1.006 -0.9595 -0.1663 -0.0904
  278HK4    C2423338   6.227  10.796   0.793  0.5800 -0.5693 -0.3678
  278HK4    H1123339   6.337  10.804   0.787  0.7439 -1.3313  1.2330
  278HK4    C2323340   6.167  10.789   0.668 -0.2300 -0.0220 -0.0081
  278HK4    H1023341   6.227  10.810   0.580  0.4149 -1.3658  0.1064
  278HK4    C3923342   5.995  10.700   0.426 -0.0729 -0.6436  0.0775
  278HK4    C4123343   6.097  10.772   0.360  0.2380 -0.6643  0.5322
  278HK4    H2123344   6.126  10.875   0.387 -0.3341 -0.4757  0.4320
  278HK4    C4223345   6.145  10.729   0.237 -0.5941 -0.0486 -0.0139
  278HK4    H2223346   6.228  10.773   0.182 -2.6966  1.4751 -2.0736
  278HK4    C4323347   6.099  10.614   0.173  0.1796  0.0310 -0.7188
  278HK4    H2323348   6.124  10.596   0.069 -0.8682  0.2417 -1.0096
  278HK4    C4423349   6.009  10.539   0.248 -0.1233  0.2471 -0.8677
  278HK4    H2423350   5.983  10.436   0.218  2.8189 -1.2450  1.4086
  278HK4    C4523351   5.949  10.581   0.366 -0.6088  0.1369 -1.0746
  278HK4    H2523352   5.876  10.522   0.423 -0.4403  0.7524 -0.2092
  279HK4    H2823353   0.089  10.697   9.220  0.2748 -0.0913  0.4099
  279HK4    C4823354   0.111  10.593   9.192 -0.7990 -0.1354 -0.2830
  279HK4    C4723355   0.048  10.486   9.255 -0.6845  0.1377  0.3004
  279HK4    H2723356  11.241  10.502   9.349  1.0686  0.9654  1.2094
  279HK4    C4623357   0.051  10.357   9.205  0.2365  0.2272  0.1163
  279HK4    H2623358  11.229  10.281   9.243  0.2294  0.8074  1.2930
  279HK4    C4023359   0.123  10.326   9.088  0.0772  0.0059  0.0793
  279HK4    C5023360   0.195  10.432   9.029 -0.7333  0.3896 -0.2289
  279HK4    H3023361   0.251  10.411   8.937 -0.5770 -2.1346  0.4008
  279HK4    C4923362   0.184  10.561   9.079  0.0208  0.3197  0.1110
  279HK4    H2923363   0.234  10.639   9.020 -2.2153  0.9276 -1.0419
  279HK4     N223364   0.135  10.193   9.044 -0.6825 -0.0192 -0.0723
  279HK4    C3023365   0.144  10.079   9.126 -0.5003  0.1725  0.1774
  279HK4    C2923366   0.209  10.067   9.248 -0.1665 -0.4705 -0.0630
  279HK4    H1523367   0.258  10.156   9.288 -0.6270  1.1907 -3.0521
  279HK4    C2823368   0.256   9.949   9.304 -0.1065 -0.1866  0.4848
  279HK4    C2723369   0.231   9.835   9.225 -0.4090 -0.4077  0.8917
  279HK4    H1423370   0.261   9.736   9.263 -0.2038 -0.1884  1.2981
  279HK4    C3223371   0.162   9.836   9.104 -0.1338  0.4336  0.7362
  279HK4    H1623372   0.120   9.746   9.059 -1.7281  0.8253  1.4090
  279HK4    C3123373   0.123   9.957   9.050 -0.1192  0.1556  0.0990
  279HK4    C3423374   0.092  10.001   8.915 -0.0960 -0.3761 -0.0793
  279HK4    C3323375   0.111  10.144   8.914  0.7191 -0.4823 -0.1675
  279HK4    C3523376   0.112  10.216   8.795 -0.1326 -0.1246  0.0376
  279HK4    H1723377   0.116  10.325   8.797  0.1083 -0.1274 -0.2642
  279HK4    C3623378   0.094  10.148   8.675 -0.5931  0.1415 -0.0466
  279HK4    H1823379   0.117  10.190   8.576  0.7763 -1.4627 -0.4334
  279HK4    C3723380   0.064  10.012   8.678 -0.4964  0.1156 -0.2940
  279HK4    H1923381   0.049   9.964   8.581 -0.4626  0.0972 -0.2925
  279HK4    C3823382   0.069   9.936   8.794 -0.0526  0.0838 -0.3330
  279HK4    H2023383   0.072   9.827   8.792 -1.2535 -0.0139  1.4358
  279HK4    C1423384   0.364   9.955   9.403  0.1479  0.0097  0.1924
  279HK4     C923385   0.458   9.850   9.402 -0.0308 -0.1466 -0.1795
  279HK4     C823386   0.503   9.801   9.526 -0.2843  0.0455 -0.0104
  279HK4    C1123387   0.444   9.846   9.644 -0.0934 -0.2255  0.1887
  279HK4     H423388   0.453   9.792   9.739  1.4013  2.1426  1.4501
  279HK4    C1223389   0.361   9.957   9.642  0.3950  0.1430 -0.1075
  279HK4     H523390   0.323  10.012   9.730  2.5552  0.7483  0.4749
  279HK4    C1323391   0.327  10.020   9.523 -0.0900  0.1624  0.0380
  279HK4     H623392   0.297  10.125   9.515  1.0028  0.6670  2.2888
  279HK4     C723393   0.589   9.681   9.533  0.3217  0.4722 -0.0097
  279HK4     O223394   0.614   9.629   9.642  0.0859  0.6272  0.1163
  279HK4     C423395   0.643   9.623   9.408  0.1777 -0.0341  0.1606
  279HK4     C323396   0.714   9.503   9.413  0.3249  0.0398 -0.0781
  279HK4     H323397   0.783   9.481   9.496 -1.1690  0.9219  1.4542
  279HK4     C223398   0.711   9.421   9.301  0.4756  0.3854 -0.3359
  279HK4     H223399   0.755   9.323   9.324 -1.7573 -0.3557  0.8320
  279HK4     C123400   0.642   9.458   9.186  0.0520  0.4223 -0.0687
  279HK4     H123401   0.644   9.387   9.102  0.9687 -1.6570  1.6364
  279HK4     C623402   0.581   9.584   9.172  0.2314  0.4893 -0.2717
  279HK4     C523403   0.592   9.667   9.284  1.1649  0.2176 -0.1639
  279HK4    C1023404   0.527   9.801   9.279  0.6453 -0.0224  0.1464
  279HK4     O123405   0.579   9.888   9.210  0.3279 -0.3137 -0.4562
  279HK4    C1623406   0.472   9.605   9.076 -0.1816  0.0509  0.0895
  279HK4    C1523407   0.374   9.509   9.043  0.7699 -0.6988 -0.5789
  279HK4     H723408   0.351   9.434   9.120 -1.0927  0.1838 -0.2526
  279HK4    C2023409   0.292   9.511   8.931  0.7780  0.2328 -0.5701
  279HK4     H923410   0.222   9.429   8.916  1.4349 -0.4187 -0.0584
  279HK4    C1923411   0.306   9.620   8.846 -0.2727  0.6552 -0.2142
  279HK4    C1823412   0.410   9.718   8.870  0.4001 -0.0778 -0.1171
  279HK4    C1723413   0.492   9.705   8.981  0.3598 -0.2467 -0.1094
  279HK4     H823414   0.588   9.757   8.986  0.3109 -0.0953 -0.7399
  279HK4     N123415   0.419   9.796   8.752 -0.1588  0.4889  0.2075
  279HK4    C2123416   0.324   9.757   8.655  0.3150  0.2558 -0.1636
  279HK4    C2223417   0.249   9.648   8.715 -0.1337  0.4798 -0.3132
  279HK4    C2623418   0.156   9.579   8.639  0.0360 -0.4614  0.3256
  279HK4    H1323419   0.085   9.517   8.693  0.1151  0.3696  1.4035
  279HK4    C2523420   0.133   9.622   8.509 -0.3457  0.2535  0.6233
  279HK4    H1223421   0.073   9.560   8.442  1.0700  0.4640 -0.8695
  279HK4    C2423422   0.202   9.726   8.447  0.0080 -0.1103  0.4021
  279HK4    H1123423   0.195   9.745   8.339  2.5776 -2.0081 -0.1560
  279HK4    C2323424   0.299   9.791   8.523  0.2453  0.1959 -0.1642
  279HK4    H1023425   0.353   9.878   8.487 -0.1048  0.7772  0.6982
  279HK4    C3923426   0.494   9.914   8.751  0.2272  0.2456  0.2813
  279HK4    C4123427   0.533   9.982   8.634 -0.5794 -0.0293 -0.1629
  279HK4    H2123428   0.543   9.930   8.538 -0.2098 -2.9860  1.4267
  279HK4    C4223429   0.573  10.116   8.631 -0.3455 -0.0979 -0.0807
  279HK4    H2223430   0.603  10.165   8.538 -2.7949  1.6495  0.0040
  279HK4    C4323431   0.572  10.191   8.749  0.5855 -0.1357 -0.0504
  279HK4    H2323432   0.571  10.300   8.749 -1.3891 -0.1464  1.3094
  279HK4    C4423433   0.532  10.131   8.867 -0.3895  0.5210 -0.0405
  279HK4    H2423434   0.555  10.180   8.963  1.7708 -2.2222  0.9398
  279HK4    C4523435   0.493   9.997   8.864 -0.3011  0.4911  0.0919
  279HK4    H2523436   0.449   9.955   8.956  3.0665 -2.0603  0.6179
  280HK4    H2823437  10.788   2.402   3.365 -0.6174 -0.4212 -0.4964
  280HK4    C4823438  10.772   2.486   3.296 -0.2775  0.4292  0.4437
  280HK4    C4723439  10.826   2.610   3.325 -0.0270  0.4960 -0.3015
  280HK4    H2723440  10.839   2.642   3.430  0.6632 -0.7181 -0.0137
  280HK4    C4623441  10.830   2.714   3.233  0.0338  0.1497 -0.6911
  280HK4    H2623442  10.913   2.786   3.244  0.3329 -0.3799  0.5987
  280HK4    C4023443  10.763   2.712   3.109 -0.2860 -0.1797 -0.5128
  280HK4    C5023444  10.699   2.589   3.086 -0.7489 -0.1487  0.5637
  280HK4    H3023445  10.633   2.568   3.000  2.1317 -0.8077 -1.5851
  280HK4    C4923446  10.707   2.481   3.173 -0.0199 -0.2852  0.3310
  280HK4    H2923447  10.667   2.387   3.134  2.4212 -1.4424  0.4952
  280HK4     N223448  10.717   2.829   3.047 -0.3285  0.0876  0.0197
  280HK4    C3023449  10.701   2.957   3.106 -0.2044  0.1382 -0.0569
  280HK4    C2923450  10.745   3.004   3.228 -0.0876 -0.3923  0.1094
  280HK4    H1523451  10.743   2.935   3.313 -0.2907  0.1333  0.5382
  280HK4    C2823452  10.776   3.137   3.258 -0.5315 -0.2600 -0.0208
  280HK4    C2723453  10.733   3.232   3.163 -0.4579  0.0912  0.2975
  280HK4    H1423454  10.746   3.339   3.185 -0.4914 -0.1695  1.6536
  280HK4    C3223455  10.692   3.195   3.035  0.2294  0.1099  0.0670
  280HK4    H1623456  10.680   3.262   2.950  1.0063  0.0457 -0.0921
  280HK4    C3123457  10.677   3.060   3.007  0.1074  0.1602 -0.1094
  280HK4    C3423458  10.689   2.992   2.880 -0.0119 -0.1545  0.0482
  280HK4    C3323459  10.714   2.852   2.908  0.0238 -0.1655 -0.0314
  280HK4    C3523460  10.701   2.762   2.803 -0.0153 -0.2540  0.0493
  280HK4    H1723461  10.691   2.657   2.831 -0.2120 -0.4286 -0.6696
  280HK4    C3623462  10.643   2.794   2.681 -0.7828  0.1913  0.5237
  280HK4    H1823463  10.591   2.720   2.618 -0.9223  1.4327 -0.8333
  280HK4    C3723464  10.619   2.929   2.660 -0.7928  0.1441  0.2262
  280HK4    H1923465  10.583   2.961   2.563  1.1701  1.2771 -0.1431
  280HK4    C3823466  10.647   3.029   2.752 -0.0649  0.0405  0.1227
  280HK4    H2023467  10.637   3.133   2.722  1.6779  0.1143 -0.2670
  280HK4    C1423468  10.810   3.164   3.398  0.0999 -0.5843 -0.1107
  280HK4     C923469  10.768   3.269   3.481  0.0150 -0.6426 -0.0789
  280HK4     C823470  10.849   3.313   3.588 -0.4161 -0.3981  0.1448
  280HK4    C1123471  10.965   3.246   3.624 -0.4017 -0.3330  0.2247
  280HK4     H423472  11.028   3.277   3.708  1.4772 -2.1622 -0.4644
  280HK4    C1223473  11.002   3.132   3.554  0.0383 -0.0648  0.0171
  280HK4     H523474  11.104   3.092   3.571 -0.0077 -0.0447  0.3625
  280HK4    C1323475  10.926   3.098   3.443  0.0712 -0.4766  0.1182
  280HK4     H623476  10.980   3.026   3.379 -1.1808 -2.2796  1.0489
  280HK4     C723477  10.810   3.430   3.670 -0.1442 -0.1311 -0.1125
  280HK4     O223478  10.889   3.484   3.748  0.1705 -0.5698 -0.1240
  280HK4     C423479  10.681   3.498   3.645 -0.2621 -0.1413  0.4580
  280HK4     C323480  10.639   3.606   3.722  0.3401 -0.1693  0.8275
  280HK4     H323481  10.704   3.632   3.807 -1.1067  1.5771  1.4351
  280HK4     C223482  10.527   3.686   3.701  0.0783 -0.6618  0.3405
  280HK4     H223483  10.495   3.764   3.771  1.1401  0.1807 -0.1051
  280HK4     C123484  10.456   3.653   3.586  0.2137  0.0507  0.0496
  280HK4     H123485  10.365   3.707   3.558 -0.8020 -1.2115  0.8515
  280HK4     C623486  10.489   3.542   3.505  0.4593  0.3035 -0.1971
  280HK4     C523487  10.598   3.460   3.537  0.2771  0.1161 -0.0463
  280HK4    C1023488  10.640   3.342   3.457  0.1673 -0.2210  0.3915
  280HK4     O123489  10.551   3.266   3.419  0.2934 -0.1497 -0.0508
  280HK4    C1623490  10.414   3.540   3.379 -0.1220  0.6573  0.1422
  280HK4    C1523491  10.416   3.657   3.299  0.1239  0.7383  0.2683
  280HK4     H723492  10.486   3.740   3.318 -0.9034  2.3996 -3.0026
  280HK4    C2023493  10.315   3.689   3.210 -0.0967  0.2066  0.3239
  280HK4     H923494  10.310   3.780   3.151  0.1575 -0.5567 -0.9081
  280HK4    C1923495  10.207   3.601   3.198  0.0704  0.0365  0.0705
  280HK4    C1823496  10.203   3.477   3.274  0.0942  0.0022  0.0166
  280HK4    C1723497  10.305   3.455   3.365  0.1274  0.3496  0.0665
  280HK4     H823498  10.277   3.400   3.454 -0.5954 -0.3417 -0.5828
  280HK4     N123499  10.086   3.401   3.258  0.0107  0.0675  0.3377
  280HK4    C2123500  10.015   3.474   3.160 -0.0396 -0.0999  0.2489
  280HK4    C2223501  10.087   3.592   3.119 -0.2798  0.1641  0.5825
  280HK4    C2623502  10.032   3.674   3.020 -0.1095 -0.3727  0.0425
  280HK4    H1323503  10.079   3.770   2.998  1.1724 -0.5796  1.7946
  280HK4    C2523504   9.913   3.642   2.955 -0.1524 -0.2262  0.0470
  280HK4    H1223505   9.880   3.706   2.873  0.2305 -0.6682 -0.4580
  280HK4    C2423506   9.845   3.525   2.985  0.0585 -0.3830 -0.0877
  280HK4    H1123507   9.769   3.480   2.919 -0.0114  1.3316 -1.1958
  280HK4    C2323508   9.896   3.451   3.091  0.2108 -0.3178 -0.1168
  280HK4    H1023509   9.854   3.351   3.091  0.2922 -0.3519 -0.8921
  280HK4    C3923510  10.071   3.262   3.262 -0.5133  0.1099 -0.0422
  280HK4    C4123511   9.942   3.208   3.278 -0.4779 -0.0533 -0.3295
  280HK4    H2123512   9.858   3.272   3.310  1.1433  0.6885  2.5596
  280HK4    C4223513   9.925   3.070   3.275  0.6611 -0.2153  0.6179
  280HK4    H2223514   9.823   3.034   3.295 -1.4437  4.0885 -1.6874
  280HK4    C4323515  10.033   2.984   3.258  0.2048 -0.8419  0.8457
  280HK4    H2323516  10.027   2.876   3.244 -1.4897 -0.7758  1.0047
  280HK4    C4423517  10.161   3.038   3.247 -0.4494  0.7104  0.6823
  280HK4    H2423518  10.242   2.972   3.212 -1.9990 -1.3004  0.7929
  280HK4    C4523519  10.182   3.175   3.259 -0.0492  0.6851  0.2981
  280HK4    H2523520  10.284   3.211   3.279  0.8974 -1.0680 -1.1761
  281HK4    H2823521   8.391   2.357   2.453  0.0594 -0.0486  0.2378
  281HK4    C4823522   8.350   2.257   2.438  0.5709 -0.1802 -0.3364
  281HK4    C4723523   8.333   2.173   2.547 -0.5466  0.0859 -0.2969
  281HK4    H2723524   8.362   2.216   2.644 -1.0148  1.4258 -0.7329
  281HK4    C4623525   8.280   2.045   2.535  0.4880 -0.3500 -0.2208
  281HK4    H2623526   8.272   1.989   2.629 -0.6228  1.5470  0.8422
  281HK4    C4023527   8.237   1.994   2.410  0.1169  0.0948 -0.2752
  281HK4    C5023528   8.254   2.084   2.303  0.2623 -0.0480 -0.3726
  281HK4    H3023529   8.210   2.063   2.204  0.4190 -1.5644 -0.1258
  281HK4    C4923530   8.306   2.212   2.314 -0.2708  0.1513 -0.1620
  281HK4    H2923531   8.326   2.268   2.221  2.3419 -0.8068 -0.1925
  281HK4     N223532   8.248   1.858   2.378  0.3573  0.0851 -0.1578
  281HK4    C3023533   8.334   1.766   2.440  0.2037 -0.0192 -0.0994
  281HK4    C2923534   8.458   1.774   2.503  0.4663  0.1152 -0.6377
  281HK4    H1523535   8.518   1.862   2.481  0.1505  0.5709  0.2958
  281HK4    C2823536   8.521   1.667   2.564  0.6392 -0.0532 -1.1062
  281HK4    C2723537   8.451   1.545   2.574  0.3867  0.1774  0.0836
  281HK4    H1423538   8.483   1.474   2.652  2.3326  0.6346 -0.2767
  281HK4    C3223539   8.330   1.523   2.508  0.3952  0.2919  0.0299
  281HK4    H1623540   8.283   1.425   2.497 -1.9402  1.1543  2.0133
  281HK4    C3123541   8.273   1.634   2.448  0.1307  0.0050 -0.2537
  281HK4    C3423542   8.140   1.646   2.390  0.2697  0.1397 -0.5434
  281HK4    C3323543   8.133   1.784   2.345  0.1756  0.3067 -0.0216
  281HK4    C3523544   8.025   1.823   2.267  0.6955 -0.1919 -1.0107
  281HK4    H1723545   8.011   1.927   2.240 -4.0857 -0.4120  0.1014
  281HK4    C3623546   7.924   1.729   2.245  0.0549  0.1740  0.3182
  281HK4    H1823547   7.834   1.758   2.189 -0.3959  0.7647  1.3385
  281HK4    C3723548   7.926   1.600   2.296  0.5013  0.1286  0.1863
  281HK4    H1923549   7.833   1.544   2.295 -1.0666  2.6773 -1.2431
  281HK4    C3823550   8.035   1.557   2.371  0.6176 -0.3329 -0.2487
  281HK4    H2023551   8.022   1.476   2.443 -2.1047  0.3678  0.0973
  281HK4    C1423552   8.665   1.683   2.585  0.4388  0.0354  0.2907
  281HK4     C923553   8.754   1.575   2.572  0.4392  0.0580  0.1201
  281HK4     C823554   8.863   1.557   2.660  0.0284 -0.0482  0.6107
  281HK4    C1123555   8.893   1.659   2.750  0.5130  0.3579 -0.0005
  281HK4     H423556   8.980   1.649   2.817 -0.3637  1.9708  1.4151
  281HK4    C1223557   8.814   1.772   2.762 -0.0763 -0.1088  0.5742
  281HK4     H523558   8.853   1.854   2.823  0.9973 -1.1317  1.2769
  281HK4    C1323559   8.706   1.784   2.675  0.1819  0.1420  0.2871
  281HK4     H623560   8.650   1.878   2.682  1.0168  0.9459 -3.0760
  281HK4     C723561   8.948   1.437   2.655  0.5673  0.3544 -0.1162
  281HK4     O223562   9.046   1.415   2.727 -0.1251  0.4080  0.8436
  281HK4     C423563   8.921   1.333   2.554 -0.0176 -0.0638  0.4657
  281HK4     C323564   9.000   1.219   2.543 -0.3419 -0.2842  0.4266
  281HK4     H323565   9.073   1.189   2.619 -0.7255 -0.1535  0.8416
  281HK4     C223566   8.987   1.129   2.437  0.3490  0.3890 -0.2310
  281HK4     H223567   9.048   1.038   2.431 -0.1596  0.0495 -0.2369
  281HK4     C123568   8.882   1.141   2.347  0.0316 -0.0268  0.0872
  281HK4     H123569   8.885   1.080   2.256 -1.0816  0.7525 -0.4791
  281HK4     C623570   8.790   1.247   2.365  0.0984 -0.0031  0.3081
  281HK4     C523571   8.820   1.349   2.456  0.3976  0.1313  0.0630
  281HK4    C1023572   8.743   1.476   2.461 -0.0496 -0.1467  0.3499
  281HK4     O123573   8.695   1.517   2.356  1.1741  0.2923 -0.0466
  281HK4    C1623574   8.664   1.218   2.296  0.0984  0.6550  0.0399
  281HK4    C1523575   8.542   1.265   2.351  0.0476  0.5699  0.0055
  281HK4     H723576   8.539   1.284   2.459 -0.8456  2.5199 -0.3345
  281HK4    C2023577   8.424   1.264   2.277 -0.1871 -1.2015  0.3952
  281HK4     H923578   8.326   1.295   2.312 -0.9050  0.5976 -3.0154
  281HK4    C1923579   8.423   1.197   2.155 -0.0241  0.4045 -0.4878
  281HK4    C1823580   8.546   1.139   2.105 -0.0247 -0.0043 -0.0206
  281HK4    C1723581   8.667   1.163   2.169 -0.1855  0.4937  0.1009
  281HK4     H823582   8.760   1.139   2.116 -0.0955 -1.3837  1.0746
  281HK4     N123583   8.511   1.051   2.000 -0.2696  0.4412 -0.3189
  281HK4    C2123584   8.371   1.050   1.986 -0.2623 -0.2950 -0.3679
  281HK4    C2223585   8.311   1.137   2.086  0.1258 -0.9246  0.4200
  281HK4    C2623586   8.176   1.165   2.072  0.2026 -0.4799  0.5789
  281HK4    H1323587   8.148   1.254   2.128  1.8743  0.4824 -0.1000
  281HK4    C2523588   8.095   1.117   1.970  0.7589  0.2442 -0.2051
  281HK4    H1223589   7.986   1.118   1.968  0.7643  0.9254 -0.0641
  281HK4    C2423590   8.156   1.039   1.872  0.1368 -0.4002 -0.0817
  281HK4    H1123591   8.103   1.041   1.775  1.2519 -0.0492 -0.6900
  281HK4    C2323592   8.290   1.003   1.884  0.1226 -0.6118 -0.5295
  281HK4    H1023593   8.344   0.958   1.801  4.0158 -2.0108  2.6359
  281HK4    C3923594   8.605   1.019   1.901 -0.2757  0.3684 -0.3008
  281HK4    C4123595   8.609   0.895   1.835 -0.4068  0.1926  0.0215
  281HK4    H2123596   8.557   0.812   1.887 -0.4723  0.0950 -0.1981
  281HK4    C4223597   8.671   0.876   1.712  0.1248  0.2269  0.2856
  281HK4    H2223598   8.668   0.783   1.654 -0.8293  0.9711 -0.8979
  281HK4    C4323599   8.730   0.986   1.649 -0.2074  0.2922  0.0878
  281HK4    H2323600   8.788   0.971   1.558  1.8517  0.1659  1.3864
  281HK4    C4423601   8.723   1.114   1.702 -0.7946  0.6522 -0.8566
  281HK4    H2423602   8.741   1.200   1.635 -1.9305 -0.0300 -2.0592
  281HK4    C4523603   8.662   1.124   1.826  0.2155  0.0949 -0.3109
  281HK4    H2523604   8.646   1.224   1.870  1.0570  0.7582 -1.4895
  282HK4    H2823605   1.400   9.949   9.983  0.1395  0.5045  0.2056
  282HK4    C4823606   1.320  10.016  10.016 -0.6640 -0.5432  0.4269
  282HK4    C4723607   1.323  10.060  10.148  0.1568 -0.4361  0.3789
  282HK4    H2723608   1.391  10.005  10.214  0.4725 -0.7886 -0.2326
  282HK4    C4623609   1.240  10.157  10.203  0.0365 -0.1342 -0.3299
  282HK4    H2623610   1.250  10.185  10.309  0.4349 -0.5193 -0.2620
  282HK4    C4023611   1.141  10.207  10.116 -0.4579 -0.3518  0.1035
  282HK4    C5023612   1.139  10.163   9.982 -0.2522  0.0930 -0.0500
  282HK4    H3023613   1.061  10.205   9.917  0.1165  0.1163 -0.4735
  282HK4    C4923614   1.225  10.068   9.929 -0.5497 -0.4192  0.3790
  282HK4    H2923615   1.208  10.028   9.828  0.4676  1.9348 -0.7601
  282HK4     N223616   1.038  10.290  10.162 -0.2086  0.0351 -0.0289
  282HK4    C3023617   0.984  10.393  10.083 -0.4784 -0.2820 -0.2581
  282HK4    C2923618   1.051  10.465   9.984 -0.0961  0.0790  0.2580
  282HK4    H1523619   1.158  10.458   9.970 -0.5827 -2.0665 -2.8757
  282HK4    C2823620   0.984  10.570   9.922 -0.1597 -0.0979  0.0305
  282HK4    C2723621   0.857  10.608   9.970 -0.4522 -0.2666 -0.6071
  282HK4    H1423622   0.807  10.698   9.930  0.2367 -0.3481 -1.6692
  282HK4    C3223623   0.787  10.535  10.065  0.5098  0.7213  0.8681
  282HK4    H1623624   0.687  10.562  10.098  1.1523 -0.4445  3.9465
  282HK4    C3123625   0.846  10.420  10.116 -0.4214 -0.1934 -0.0981
  282HK4    C3423626   0.809  10.328  10.223  0.0308 -0.2789 -0.0148
  282HK4    C3323627   0.931  10.251  10.245 -0.0266 -0.3570  0.0273
  282HK4    C3523628   0.910  10.133  10.315 -0.0432  0.4889  1.4676
  282HK4    H1723629   0.993  10.064  10.327  0.1485  0.7077  1.3947
  282HK4    C3623630   0.792  10.103  10.381 -0.5190 -0.5807  0.1499
  282HK4    H1823631   0.782  10.006  10.433 -0.1266 -0.7066 -0.0089
  282HK4    C3723632   0.678  10.181  10.364 -0.1190  0.1248  0.6875
  282HK4    H1923633   0.584  10.156  10.411 -0.3453  0.5221  0.4488
  282HK4    C3823634   0.690  10.295  10.285  0.0764 -0.3379  0.0423
  282HK4    H2023635   0.605  10.363  10.272  0.6517  1.1546  3.4834
  282HK4    C1423636   1.041  10.627   9.799 -0.8160  0.0235 -0.2220
  282HK4     C923637   1.014  10.756   9.752 -0.2524  0.0984 -0.3429
  282HK4     C823638   0.992  10.772   9.613 -0.6545 -0.2124 -0.3171
  282HK4    C1123639   1.003  10.660   9.531 -0.4962 -0.0127 -0.5675
  282HK4     H423640   0.983  10.670   9.423 -0.1936  0.8820 -0.5435
  282HK4    C1223641   1.056  10.537   9.568 -0.7707 -0.1290 -0.5615
  282HK4     H523642   1.089  10.459   9.499  0.6880 -0.5355  0.5818
  282HK4    C1323643   1.075  10.527   9.705 -0.5235  0.4346 -0.5542
  282HK4     H623644   1.135  10.441   9.737  0.9142  1.7334  0.3454
  282HK4     C723645   0.973  10.909   9.560  0.1170 -0.0086 -0.0615
  282HK4     O223646   0.941  10.925   9.443  0.4989 -0.3728 -0.2205
  282HK4     C423647   1.004  11.022   9.650 -0.6261  0.1982 -0.0687
  282HK4     C323648   0.985  11.149   9.597  0.0067  0.2132 -0.2708
  282HK4     H323649   0.942  11.166   9.497  0.3057 -1.5961 -0.7316
  282HK4     C223650   1.024   0.013   9.668 -0.5920  0.1723  0.1245
  282HK4     H223651   1.019   0.115   9.627 -0.3242  0.2138  0.1886
  282HK4     C123652   1.089  11.247   9.790  0.5224 -0.2889 -0.5165
  282HK4     H123653   1.119   0.089   9.846 -0.4552 -0.9158  1.0617
  282HK4     C623654   1.120  11.118   9.838 -0.4453 -0.3029  0.0822
  282HK4     C523655   1.067  11.005   9.775 -0.6058 -0.1182 -0.1199
  282HK4    C1023656   1.047  10.871   9.839  0.7337 -0.3289 -0.1497
  282HK4     O123657   1.054  10.860   9.961  0.1654  0.0165 -0.0867
  282HK4    C1623658   1.221  11.114   9.945 -0.0944 -0.1474 -0.2393
  282HK4    C1523659   1.246  11.223  10.031 -0.0069 -0.6238  0.3462
  282HK4     H723660   1.174   0.056  10.051  1.3742  1.4699 -2.7235
  282HK4    C2023661   1.366  11.235  10.101  0.3087  0.2427 -0.3297
  282HK4     H923662   1.393   0.089  10.129 -2.1751  0.3645  1.7711
  282HK4    C1923663   1.457  11.130  10.106  0.4171  0.3497 -0.1063
  282HK4    C1823664   1.426  11.012  10.028  0.0939  0.5789 -0.3244
  282HK4    C1723665   1.313  11.010   9.948 -0.1487 -0.1912  0.0338
  282HK4     H823666   1.302  10.929   9.875  0.5535 -0.6539  0.4397
  282HK4     N123667   1.525  10.914  10.048 -0.4681  0.0658 -0.0525
  282HK4    C2123668   1.626  10.977  10.123  0.0542 -0.4121 -0.3472
  282HK4    C2223669   1.586  11.109  10.169  0.4853 -0.2428 -0.4450
  282HK4    C2623670   1.680  11.190  10.231 -0.0989  0.1217 -0.0383
  282HK4    H1323671   1.660   0.048  10.249  1.0736 -0.0314  2.3543
  282HK4    C2523672   1.814  11.155  10.241  0.0118  0.1660 -1.3021
  282HK4    H1223673   1.888  11.213  10.296 -0.0817 -0.9412  0.0263
  282HK4    C2423674   1.851  11.029  10.196  0.0964 -0.2167 -0.1821
  282HK4    H1123675   1.956  11.004  10.219 -0.2086  1.2893  3.1264
  282HK4    C2323676   1.760  10.941  10.140  0.1397 -0.1187 -0.4024
  282HK4    H1023677   1.803  10.856  10.087  0.2731 -2.1516  2.8801
  282HK4    C3923678   1.488  10.779  10.054 -0.1426 -0.0234  0.0217
  282HK4    C4123679   1.583  10.675  10.049 -0.0305  0.1013 -0.5307
  282HK4    H2123680   1.672  10.683   9.985 -0.4447  0.8681 -1.0181
  282HK4    C4223681   1.550  10.547  10.093 -0.5126  0.6491  0.7162
  282HK4    H2223682   1.612  10.458  10.071 -1.1892  0.4554 -0.4251
  282HK4    C4323683   1.429  10.520  10.156 -0.3060 -0.4630  0.6448
  282HK4    H2323684   1.399  10.416  10.166  0.2162 -1.0014 -2.6473
  282HK4    C4423685   1.332  10.619  10.161 -0.2174 -0.3283 -0.1517
  282HK4    H2423686   1.229  10.593  10.191 -1.1210  2.3734 -0.7912
  282HK4    C4523687   1.364  10.744  10.109 -0.1766 -0.3936 -0.2878
  282HK4    H2523688   1.286  10.817  10.137  0.0639 -0.2353 -0.0352
  283HK4    H2823689   3.463  10.568   6.727 -0.0532 -0.3671  1.6095
  283HK4    C4823690   3.534  10.648   6.707 -0.2262 -0.5464  0.1643
  283HK4    C4723691   3.643  10.660   6.793 -0.0090 -0.2621 -0.1528
  283HK4    H2723692   3.655  10.595   6.881 -2.9046 -3.6286 -2.1115
  283HK4    C4623693   3.752  10.742   6.765 -0.1427 -0.0158  0.0526
  283HK4    H2623694   3.825  10.757   6.846  2.5419 -1.9802 -1.9259
  283HK4    C4023695   3.760  10.805   6.639 -0.0502 -0.6082 -0.2396
  283HK4    C5023696   3.645  10.798   6.557  0.0399  0.4392 -0.4689
  283HK4    H3023697   3.637  10.861   6.468  0.4716 -1.6441 -2.0133
  283HK4    C4923698   3.533  10.721   6.589  0.5807  0.0638  0.5313
  283HK4    H2923699   3.450  10.712   6.518  2.3929 -2.1549 -1.3806
  283HK4     N223700   3.864  10.895   6.616 -0.0435 -0.5273  0.0967
  283HK4    C3023701   3.935  10.964   6.716  0.1344  0.0512 -0.4212
  283HK4    C2923702   3.900  11.009   6.843 -0.0604 -0.3286 -0.3404
  283HK4    H1523703   3.794  10.993   6.861  0.2725 -0.1141  1.9105
  283HK4    C2823704   3.984  11.090   6.918 -0.3481 -0.3213 -0.0226
  283HK4    C2723705   4.114  11.111   6.867 -0.1532 -0.6768  0.3255
  283HK4    H1423706   4.197  11.135   6.935  0.3287 -0.1244 -0.4509
  283HK4    C3223707   4.147  11.077   6.736  0.2005 -0.5711  0.3838
  283HK4    H1623708   4.235  11.122   6.692 -1.6660  3.0848  0.1531
  283HK4    C3123709   4.061  11.004   6.655  0.1019  0.3139 -0.3149
  283HK4    C3423710   4.056  10.966   6.515 -0.3133  0.5425 -0.3676
  283HK4    C3323711   3.929  10.902   6.490 -0.3857  0.5562 -0.0283
  283HK4    C3523712   3.894  10.866   6.361  0.6069  0.0124 -0.1482
  283HK4    H1723713   3.811  10.802   6.332 -0.8837  2.0363 -0.4186
  283HK4    C3623714   3.985  10.886   6.257  0.0893 -0.1764 -0.6363
  283HK4    H1823715   3.967  10.833   6.162 -0.4569  0.8410 -1.1131
  283HK4    C3723716   4.106  10.949   6.285 -0.1845  0.0749 -0.0117
  283HK4    H1923717   4.161  10.967   6.193 -1.0057  3.3868  0.1045
  283HK4    C3823718   4.144  10.992   6.411  0.1740  0.0014 -0.0960
  283HK4    H2023719   4.221  11.069   6.423 -0.2398  0.2108  1.2285
  283HK4    C1423720   3.927  11.167   7.029  0.3946 -0.1289  0.2347
  283HK4     C923721   3.987   0.031   7.088 -0.0264  0.2457 -0.0429
  283HK4     C823722   3.970   0.060   7.225  0.1810 -0.4250  0.1286
  283HK4    C1123723   3.873  11.240   7.297  0.0799 -0.6317 -0.2030
  283HK4     H423724   3.843   0.021   7.399  0.4383  0.6230 -0.4487
  283HK4    C1223725   3.793  11.146   7.233 -0.2775 -0.1287 -0.4982
  283HK4     H523726   3.726  11.080   7.291 -0.0067 -0.3026 -0.3797
  283HK4    C1323727   3.821  11.109   7.102  0.4708 -0.7748 -0.1600
  283HK4     H623728   3.744  11.062   7.040 -0.4778  1.6315 -0.8757
  283HK4     C723729   4.040   0.174   7.288  0.1772 -0.2153 -0.2415
  283HK4     O223730   4.048   0.173   7.411  0.0384  0.6642 -0.2157
  283HK4     C423731   4.125   0.269   7.212 -0.3884  0.3796 -0.1416
  283HK4     C323732   4.197   0.368   7.277  0.0529  0.0754 -0.1570
  283HK4     H323733   4.183   0.391   7.384 -0.9883  0.7389 -0.4256
  283HK4     C223734   4.295   0.439   7.208 -0.1628 -0.1374 -0.6831
  283HK4     H223735   4.331   0.536   7.242 -0.9845  0.5390 -1.7089
  283HK4     C123736   4.334   0.397   7.082  0.8809 -0.1421 -0.3597
  283HK4     H123737   4.408   0.449   7.019 -0.6568  0.7833 -1.4306
  283HK4     C623738   4.263   0.294   7.016 -0.1972  0.5203 -0.2489
  283HK4     C523739   4.154   0.233   7.079 -0.1845  0.5939 -0.1558
  283HK4    C1023740   4.064   0.134   7.013  0.3109  0.0321  0.0107
  283HK4     O123741   4.024   0.165   6.901  0.1310 -0.1873  0.0128
  283HK4    C1623742   4.345   0.235   6.908  0.1231  0.3754  0.0714
  283HK4    C1523743   4.484   0.214   6.912  0.0717  0.0378  0.1275
  283HK4     H723744   4.546   0.225   7.002 -0.9527  1.4819  0.6841
  283HK4    C2023745   4.552   0.172   6.798 -0.2830 -0.1114 -0.0287
  283HK4     H923746   4.661   0.179   6.796 -0.2894  1.0843  2.1080
  283HK4    C1923747   4.492   0.154   6.674  0.0410  0.5578 -0.2835
  283HK4    C1823748   4.350   0.182   6.667 -0.1849 -0.5296 -0.0739
  283HK4    C1723749   4.285   0.221   6.784  0.2823 -0.1112  0.0457
  283HK4     H823750   4.181   0.247   6.763  0.9035  1.2216 -1.5241
  283HK4     N123751   4.310   0.160   6.534 -0.2697 -0.0738 -0.1230
  283HK4    C2123752   4.417   0.108   6.458 -0.2589 -0.0575 -0.1188
  283HK4    C2223753   4.533   0.103   6.545 -0.1670  0.2437 -0.2267
  283HK4    C2623754   4.632   0.014   6.505 -0.3576  0.1015 -0.3834
  283HK4    H1323755   4.722   0.012   6.566 -0.0735 -1.4425 -0.8197
  283HK4    C2523756   4.624  11.188   6.387 -0.2171  0.1013 -0.3920
  283HK4    H1223757   4.680  11.096   6.378  1.1165  0.7099  1.4393
  283HK4    C2423758   4.522  11.206   6.295  0.2314 -0.0513 -0.9180
  283HK4    H1123759   4.515  11.135   6.211  0.4330  0.1606 -1.1134
  283HK4    C2323760   4.418   0.040   6.337  0.4936 -0.1507 -0.0651
  283HK4    H1023761   4.343   0.058   6.260  1.9952  2.0451 -1.0398
  283HK4    C3923762   4.196   0.219   6.479 -0.1936  0.0596 -0.1396
  283HK4    C4123763   4.132   0.156   6.371 -0.0160  0.0912 -0.2605
  283HK4    H2123764   4.134   0.049   6.345 -0.2531 -1.0517  4.0626
  283HK4    C4223765   4.053   0.229   6.283  0.2634  0.4829 -0.1878
  283HK4    H2223766   4.064   0.190   6.180  1.5140 -0.1180  0.1567
  283HK4    C4323767   4.015   0.360   6.309 -0.3428  0.1880  0.4194
  283HK4    H2323768   3.938   0.404   6.246 -0.2213 -1.0385 -0.5978
  283HK4    C4423769   4.070   0.424   6.420 -0.3177 -0.2831  0.6795
  283HK4    H2423770   4.061   0.533   6.431  1.8124 -0.2289  2.2694
  283HK4    C4523771   4.162   0.355   6.498  0.0584  0.0326  0.5195
  283HK4    H2523772   4.205   0.399   6.589 -1.5638  1.5447  0.5775
  284HK4    H2823773   9.814   3.803   5.232  0.1962  1.5936 -0.8664
  284HK4    C4823774   9.864   3.757   5.146  0.1115  0.0063 -0.0948
  284HK4    C4723775   9.942   3.643   5.155 -0.0693 -0.1192 -0.1563
  284HK4    H2723776   9.957   3.580   5.244 -0.5891 -3.5719 -2.3895
  284HK4    C4623777  10.027   3.608   5.050  0.8223  0.2343  0.4351
  284HK4    H2623778  10.113   3.552   5.091 -1.6830 -4.1419  0.0459
  284HK4    C4023779  10.030   3.675   4.926 -0.1373 -0.3539  0.0804
  284HK4    C5023780   9.941   3.784   4.920  0.0445 -0.2210 -0.2232
  284HK4    H3023781   9.906   3.831   4.827  0.7789  1.5764  0.3761
  284HK4    C4923782   9.863   3.828   5.026  0.1163 -0.1626 -0.1950
  284HK4    H2923783   9.790   3.903   4.994  0.3399 -0.1255 -0.6051
  284HK4     N223784  10.133   3.656   4.833 -0.1910 -0.1967 -0.0088
  284HK4    C3023785  10.264   3.606   4.848  0.0755  0.4511 -0.1097
  284HK4    C2923786  10.345   3.613   4.961  0.2806  0.6903 -0.2735
  284HK4    H1523787  10.315   3.678   5.043 -1.5908  0.0680 -0.4511
  284HK4    C2823788  10.482   3.591   4.954  0.2003  0.0794  0.0942
  284HK4    C2723789  10.540   3.550   4.832 -0.2310 -0.1416 -0.0387
  284HK4    H1423790  10.634   3.494   4.838 -0.9516 -1.3093  0.6340
  284HK4    C3223791  10.463   3.553   4.716 -0.3605 -0.2426  0.0432
  284HK4    H1623792  10.514   3.556   4.620  1.0504 -1.1154  0.7432
  284HK4    C3123793  10.326   3.575   4.720 -0.4801 -0.9643 -0.0382
  284HK4    C3423794  10.226   3.610   4.621  0.2075 -0.0340 -0.4029
  284HK4    C3323795  10.110   3.655   4.694  0.5380  0.3849 -0.1369
  284HK4    C3523796   9.988   3.649   4.628  0.3468 -0.0951  0.2556
  284HK4    H1723797   9.894   3.629   4.679  1.1604 -1.3454  1.3125
  284HK4    C3623798   9.984   3.627   4.490 -0.2960  0.4154  0.1952
  284HK4    H1823799   9.891   3.652   4.436  0.9472 -0.1809 -2.2879
  284HK4    C3723800  10.098   3.589   4.421 -0.4658 -0.3554  0.3408
  284HK4    H1923801  10.085   3.547   4.321 -1.4349  0.9454 -0.0895
  284HK4    C3823802  10.221   3.579   4.486 -0.1702 -0.6347 -0.2520
  284HK4    H2023803  10.307   3.567   4.420  0.1490 -1.8570  0.3814
  284HK4    C1423804  10.576   3.614   5.065  0.1197 -0.2063  0.2185
  284HK4     C923805  10.715   3.627   5.060  0.0853 -0.0083 -0.2535
  284HK4     C823806  10.789   3.563   5.162  0.3352  0.1451 -0.3397
  284HK4    C1123807  10.720   3.495   5.262 -0.0412  0.6888 -0.2262
  284HK4     H423808  10.765   3.413   5.319  0.5626  0.2543 -1.3061
  284HK4    C1223809  10.588   3.523   5.293  0.1227  0.6462  0.5104
  284HK4     H523810  10.536   3.493   5.386  1.5340 -1.0684  0.7724
  284HK4    C1323811  10.516   3.578   5.188  0.0288 -0.0029  0.2338
  284HK4     H623812  10.417   3.615   5.219 -0.7604 -1.3184 -0.6399
  284HK4     C723813  10.933   3.596   5.174  0.2869  0.2153  0.0601
  284HK4     O223814  10.995   3.516   5.244 -0.6901 -0.0415  0.6370
  284HK4     C423815  10.998   3.699   5.090 -0.0622  0.1524 -0.2852
  284HK4     C323816  11.127   3.744   5.114 -0.2165  0.3094  0.2713
  284HK4     H323817  11.171   3.736   5.214 -1.7366 -0.4214  0.9000
  284HK4     C223818  11.191   3.830   5.025 -0.1478  0.1094  0.1280
  284HK4     H223819   0.032   3.882   5.061 -0.4132  1.0565 -0.5837
  284HK4     C123820  11.126   3.861   4.906  0.1399  0.2006 -0.0062
  284HK4     H123821  11.160   3.957   4.865 -0.4835  0.0630 -0.8538
  284HK4     C623822  11.002   3.805   4.869  0.3595 -0.1810 -0.1682
  284HK4     C523823  10.935   3.733   4.969 -0.1226  0.1493 -0.2536
  284HK4    C1023824  10.787   3.717   4.966 -0.1843  0.6429  0.1615
  284HK4     O123825  10.717   3.803   4.913 -0.4014  0.0726 -0.4861
  284HK4    C1623826  10.977   3.805   4.724  0.0475 -0.6733 -0.1177
  284HK4    C1523827  11.067   3.868   4.636 -0.1867  0.0192  0.1313
  284HK4     H723828  11.104   3.970   4.657 -0.4909 -0.1145  1.3524
  284HK4    C2023829  11.079   3.828   4.503  0.0654 -0.1107  0.1930
  284HK4     H923830  11.133   3.897   4.439  0.6600  0.8904  1.7297
  284HK4    C1923831  10.991   3.734   4.449 -0.6836  0.4437  0.4410
  284HK4    C1823832  10.897   3.668   4.538 -0.5715 -0.2829  0.0209
  284HK4    C1723833  10.892   3.708   4.671 -0.5530 -0.2210  0.0032
  284HK4     H823834  10.791   3.703   4.711  0.3862  1.4142  2.7049
  284HK4     N123835  10.827   3.563   4.475 -0.0403 -0.5362 -0.1524
  284HK4    C2123836  10.874   3.565   4.342  0.1467 -0.0974 -0.0806
  284HK4    C2223837  10.963   3.677   4.319 -0.1418  0.2400  0.4123
  284HK4    C2623838  11.034   3.680   4.199  0.3747 -1.0314  0.6722
  284HK4    H1323839  11.087   3.774   4.181  0.4863 -1.3792 -0.8286
  284HK4    C2523840  11.013   3.585   4.101 -0.2137 -0.5159  0.2935
  284HK4    H1223841  11.050   3.616   4.003  1.1463 -0.2580  0.8817
  284HK4    C2423842  10.929   3.476   4.126  0.2100 -0.8927  0.0766
  284HK4    H1123843  10.914   3.402   4.046 -0.8635  0.0904 -0.6474
  284HK4    C2323844  10.865   3.463   4.248  0.3108 -0.3565  0.1881
  284HK4    H1023845  10.785   3.389   4.253  0.1909 -0.1046  2.3562
  284HK4    C3923846  10.779   3.453   4.547  0.2857 -0.8235 -0.3705
  284HK4    C4123847  10.672   3.378   4.494 -0.2636 -0.4533  0.2062
  284HK4    H2123848  10.600   3.426   4.426  0.1512 -0.6123 -0.3516
  284HK4    C4223849  10.636   3.257   4.550 -0.6069 -0.3918  0.1198
  284HK4    H2223850  10.559   3.197   4.499 -0.7252 -0.9032  0.8843
  284HK4    C4323851  10.705   3.214   4.664  0.2587  0.2869 -0.1476
  284HK4    H2323852  10.672   3.121   4.709 -1.3598  1.7873  1.8839
  284HK4    C4423853  10.809   3.287   4.720  0.2418  0.0834  0.1561
  284HK4    H2423854  10.840   3.277   4.825  3.2382 -0.6128 -0.7416
  284HK4    C4523855  10.851   3.405   4.658  0.6517 -0.3520 -0.3976
  284HK4    H2523856  10.950   3.450   4.677  0.8968 -1.4310  0.9868
  285HK4    H2823857   7.322   5.708   9.433  0.6472 -1.0671 -0.1662
  285HK4    C4823858   7.269   5.639   9.366  0.0016 -0.0195 -0.7472
  285HK4    C4723859   7.131   5.648   9.351  0.0153  0.9126 -0.3648
  285HK4    H2723860   7.087   5.699   9.437  1.9030  1.8059  0.1019
  285HK4    C4623861   7.074   5.579   9.245  0.2561 -0.3206  0.2972
  285HK4    H2623862   6.977   5.621   9.214 -0.5243 -0.6677  2.2515
  285HK4    C4023863   7.141   5.488   9.160  0.1971 -0.1480  0.0634
  285HK4    C5023864   7.280   5.488   9.182  0.2390 -0.3207 -0.2019
  285HK4    H3023865   7.349   5.446   9.107  1.4136 -0.4323  0.9145
  285HK4    C4923866   7.346   5.559   9.282  0.3355  0.1186 -0.5729
  285HK4    H2923867   7.455   5.567   9.274  0.4601 -0.9301 -0.0551
  285HK4     N223868   7.081   5.384   9.088 -0.1093  0.2626 -0.2811
  285HK4    C3023869   6.948   5.349   9.118 -0.0879  0.6104  0.2355
  285HK4    C2923870   6.878   5.336   9.238 -0.1691  0.1090  0.1369
  285HK4    H1523871   6.933   5.300   9.324 -0.5646 -0.0417  0.3244
  285HK4    C2823872   6.741   5.317   9.248 -0.1259 -0.3180 -0.0442
  285HK4    C2723873   6.668   5.309   9.128 -0.4381 -0.1800  0.1355
  285HK4    H1423874   6.559   5.297   9.132 -0.6979  1.5004 -0.9989
  285HK4    C3223875   6.738   5.307   9.007 -0.3148  0.2481  0.1975
  285HK4    H1623876   6.680   5.286   8.918  0.6717 -1.1714 -0.1255
  285HK4    C3123877   6.877   5.314   8.997 -0.3261  0.7124  0.3446
  285HK4    C3423878   6.979   5.298   8.896 -0.6495  0.6635  0.0260
  285HK4    C3323879   7.102   5.349   8.953 -0.1170 -0.4656 -0.0990
  285HK4    C3523880   7.221   5.313   8.891 -0.0496 -0.1809 -0.1409
  285HK4    H1723881   7.308   5.376   8.909 -0.6622  0.3971  0.8498
  285HK4    C3623882   7.227   5.229   8.780  0.3774  0.6608 -0.7558
  285HK4    H1823883   7.323   5.212   8.728 -0.2066 -1.4310 -1.1884
  285HK4    C3723884   7.108   5.178   8.729  0.0636  0.6128  0.0183
  285HK4    H1923885   7.108   5.098   8.656 -0.1252  2.0566 -1.6086
  285HK4    C3823886   6.986   5.215   8.785  0.1344 -0.2674  0.7631
  285HK4    H2023887   6.896   5.168   8.745  0.6813  0.6173 -1.6047
  285HK4    C1423888   6.665   5.322   9.374 -0.0065 -0.2281  0.0241
  285HK4     C923889   6.527   5.299   9.386 -0.1762  0.4390 -0.5839
  285HK4     C823890   6.458   5.372   9.485  0.2830  0.1669 -0.0578
  285HK4    C1123891   6.523   5.441   9.587  0.2105  0.2833 -0.0896
  285HK4     H423892   6.471   5.476   9.677 -1.1697 -1.2656 -0.2553
  285HK4    C1223893   6.661   5.457   9.582  0.2472  0.2186  0.6662
  285HK4     H523894   6.720   5.501   9.665  0.0526  3.0565 -0.6399
  285HK4    C1323895   6.727   5.396   9.477 -0.6811  0.5302 -0.1012
  285HK4     H623896   6.837   5.392   9.480 -0.4429  3.7959 -1.8598
  285HK4     C723897   6.311   5.359   9.493  0.3236 -0.2219  0.0481
  285HK4     O223898   6.247   5.461   9.521 -0.2350 -0.3254 -0.8447
  285HK4     C423899   6.241   5.246   9.428  0.3466 -0.1470 -0.1107
  285HK4     C323900   6.103   5.241   9.440  0.2972 -0.2075 -0.6875
  285HK4     H323901   6.048   5.310   9.506 -1.1561 -1.2507 -0.7848
  285HK4     C223902   6.031   5.134   9.388 -0.6799  0.0563  0.1072
  285HK4     H223903   5.922   5.129   9.396 -0.6138 -2.3513  0.0072
  285HK4     C123904   6.107   5.035   9.327  0.2248  0.3865  0.6755
  285HK4     H123905   6.051   4.949   9.288 -0.7024  0.1252  2.5161
  285HK4     C623906   6.247   5.033   9.315  0.1655 -0.0218 -0.0338
  285HK4     C523907   6.316   5.142   9.370  0.3869 -0.1966  0.0327
  285HK4    C1023908   6.459   5.175   9.341  0.2383  0.1179 -0.3358
  285HK4     O123909   6.535   5.085   9.306  0.4319  0.2892 -0.3562
  285HK4    C1623910   6.294   4.920   9.235 -0.0373 -0.0579 -0.1009
  285HK4    C1523911   6.217   4.881   9.124 -0.3683 -0.1681  0.1649
  285HK4     H723912   6.163   4.957   9.066  0.4418  1.2951  1.3052
  285HK4    C2023913   6.228   4.754   9.067  0.0145 -0.1440  0.1863
  285HK4     H923914   6.190   4.735   8.967  0.2481 -3.1442  0.6107
  285HK4    C1923915   6.308   4.654   9.122  0.2324 -0.4436 -0.6769
  285HK4    C1823916   6.388   4.687   9.238 -0.5148 -0.5228 -0.1303
  285HK4    C1723917   6.376   4.818   9.283 -0.3195 -0.4182 -0.3817
  285HK4     H823918   6.432   4.841   9.374  0.5198  0.0672 -1.0052
  285HK4     N123919   6.405   4.579   9.327 -0.0871  0.0304  0.4679
  285HK4    C2123920   6.338   4.476   9.257 -0.1637  0.0632  0.4961
  285HK4    C2223921   6.283   4.511   9.128 -0.7953 -0.2190  0.6826
  285HK4    C2623922   6.236   4.411   9.043  0.3938 -0.2754  0.0926
  285HK4    H1323923   6.186   4.434   8.949  0.1513  2.4497  0.8377
  285HK4    C2523924   6.239   4.277   9.078 -0.8556 -0.3358 -0.0227
  285HK4    H1223925   6.216   4.202   9.002  0.6088 -1.3786  0.5475
  285HK4    C2423926   6.294   4.240   9.201 -0.0033  0.0412 -0.2836
  285HK4    H1123927   6.285   4.136   9.234  1.0830 -0.1595 -0.5986
  285HK4    C2323928   6.337   4.340   9.287 -0.6329 -0.0208  0.1101
  285HK4    H1023929   6.343   4.321   9.394  1.4036  3.5433  0.7259
  285HK4    C3923930   6.490   4.561   9.436  0.1978  0.3986  0.3105
  285HK4    C4123931   6.441   4.492   9.549  0.0611 -0.2561 -0.1457
  285HK4    H2123932   6.336   4.495   9.583 -0.2013  0.9430 -1.0390
  285HK4    C4223933   6.530   4.443   9.644  0.1150  0.4654  0.1730
  285HK4    H2223934   6.507   4.363   9.716 -0.2764 -1.4023 -1.9740
  285HK4    C4323935   6.667   4.464   9.634  0.0180  1.0659  0.1117
  285HK4    H2323936   6.726   4.449   9.724  0.4233 -1.6050 -0.5532
  285HK4    C4423937   6.717   4.531   9.523  0.7032 -0.6500 -0.6283
  285HK4    H2423938   6.825   4.551   9.512  1.1768 -1.1625  2.7289
  285HK4    C4523939   6.629   4.582   9.428  0.2954 -0.3891 -0.1156
  285HK4    H2523940   6.669   4.636   9.341  1.3707  0.2444  0.7648
  286HK4    H2823941   3.293   2.717  10.054  1.7312  0.1594 -0.6417
  286HK4    C4823942   3.281   2.742   9.949  0.3534  0.2611 -0.4733
  286HK4    C4723943   3.160   2.722   9.885  0.1381 -0.0247  0.0238
  286HK4    H2723944   3.089   2.649   9.926 -0.5201  0.1139 -0.8416
  286HK4    C4623945   3.130   2.774   9.759  0.1793  0.1642  0.0901
  286HK4    H2623946   3.025   2.794   9.735  0.4958  0.5440 -1.0301
  286HK4    C4023947   3.234   2.845   9.695  0.2592  0.1878  0.2460
  286HK4    C5023948   3.356   2.864   9.763  0.6152 -0.4383 -0.2245
  286HK4    H3023949   3.443   2.899   9.705  0.7193 -2.2621 -1.2296
  286HK4    C4923950   3.385   2.814   9.889  0.4827  0.6786  0.2517
  286HK4    H2923951   3.487   2.808   9.929  0.6016 -0.1741 -0.1619
  286HK4     N223952   3.222   2.867   9.558 -0.2835 -0.6068  0.1623
  286HK4    C3023953   3.135   2.798   9.470 -1.2008  0.5596  0.1422
  286HK4    C2923954   3.069   2.676   9.478  0.7755 -0.5248  0.1725
  286HK4    H1523955   3.095   2.615   9.565  0.5991 -0.8742 -0.0219
  286HK4    C2823956   2.995   2.625   9.372  0.1317  0.2915  0.2245
  286HK4    C2723957   2.982   2.702   9.255 -0.1140  0.0649  0.1042
  286HK4    H1423958   2.902   2.664   9.189  0.2529  0.5798 -0.6433
  286HK4    C3223959   3.044   2.825   9.242 -0.2100  0.0822 -0.2024
  286HK4    H1623960   3.003   2.900   9.174  0.3845  1.7366  1.2086
  286HK4    C3123961   3.127   2.870   9.344 -0.0480 -0.0334 -0.2837
  286HK4    C3423962   3.221   2.980   9.350  0.9548 -0.8951 -0.1879
  286HK4    C3323963   3.276   2.975   9.485 -0.5289 -0.2934  0.4440
  286HK4    C3523964   3.369   3.073   9.517 -0.1591 -0.5796  0.2518
  286HK4    H1723965   3.399   3.087   9.620 -0.6135 -0.3649  0.3566
  286HK4    C3623966   3.416   3.162   9.421  0.6831 -0.9660  0.3102
  286HK4    H1823967   3.465   3.250   9.465  0.0529 -0.5911  0.2659
  286HK4    C3723968   3.362   3.163   9.293 -0.2054 -0.1880  0.6869
  286HK4    H1923969   3.395   3.240   9.223 -1.2131  3.3155  3.8946
  286HK4    C3823970   3.264   3.072   9.256  0.3081 -0.4525 -0.0473
  286HK4    H2023971   3.223   3.067   9.155 -0.3401 -2.1051  0.2880
  286HK4    C1423972   2.957   2.483   9.373  0.3570  0.2245 -0.4573
  286HK4     C923973   2.922   2.413   9.257 -0.0011  0.1564 -0.3068
  286HK4     C823974   2.808   2.330   9.257  0.0210  0.1265  0.3971
  286HK4    C1123975   2.744   2.310   9.379  0.2304 -0.2884  0.4408
  286HK4     H423976   2.663   2.235   9.380 -0.5540  0.5523  0.0908
  286HK4    C1223977   2.775   2.364   9.503  0.5534 -0.0665  0.2635
  286HK4     H523978   2.742   2.334   9.604 -0.2134  2.9629  0.9490
  286HK4    C1323979   2.887   2.446   9.490  0.1092  0.4110 -0.5468
  286HK4     H623980   2.940   2.463   9.584 -0.0912 -1.4369 -0.0716
  286HK4     C723981   2.769   2.253   9.138 -0.2589  0.5990  0.1835
  286HK4     O223982   2.665   2.188   9.143 -0.1990  0.4849 -0.0113
  286HK4     C423983   2.852   2.265   9.016 -0.0148 -0.9896  0.1702
  286HK4     C323984   2.815   2.194   8.903 -0.0749 -0.4656 -0.1417
  286HK4     H323985   2.740   2.114   8.910 -0.1730 -0.4367 -0.8201
  286HK4     C223986   2.879   2.217   8.782  0.8625 -0.5308  0.3416
  286HK4     H223987   2.846   2.178   8.685 -0.5480 -0.6791  0.8782
  286HK4     C123988   2.980   2.313   8.781  0.9910 -0.6677 -0.0489
  286HK4     H123989   3.039   2.315   8.688  0.7474 -0.8989 -0.2120
  286HK4     C623990   3.020   2.395   8.889 -0.9395 -0.1705  0.3044
  286HK4     C523991   2.958   2.359   9.009 -0.8428 -0.0238  0.4000
  286HK4    C1023992   3.009   2.416   9.136  0.5318 -0.4812  0.0599
  286HK4     O123993   3.130   2.421   9.158  0.5123  0.2516 -0.0027
  286HK4    C1623994   3.060   2.530   8.848 -0.0057 -0.5853 -0.1682
  286HK4    C1523995   3.007   2.598   8.736 -0.1083  0.5662  0.5608
  286HK4     H723996   2.919   2.556   8.686 -0.4962  1.9382  0.0867
  286HK4    C2023997   3.054   2.723   8.700  0.3184  0.1227 -0.4534
  286HK4     H923998   3.018   2.780   8.614 -0.8267  1.1691  0.6972
  286HK4    C1923999   3.155   2.791   8.769  0.1092 -0.0526  0.0260
  286HK4    C1824000   3.216   2.718   8.878  0.1319 -0.1667 -0.0615
  286HK4    C1724001   3.169   2.591   8.909 -0.1128 -0.1588 -0.4029
  286HK4     H824002   3.239   2.530   8.966 -0.1516 -0.0485 -0.2358
  286HK4     N124003   3.316   2.797   8.940 -0.1683 -0.1948  0.4614
  286HK4    C2124004   3.311   2.923   8.876  0.1840 -0.3073  0.2127
  286HK4    C2224005   3.207   2.926   8.775  0.0017 -0.0273  0.4069
  286HK4    C2624006   3.181   3.039   8.699 -0.1865 -0.2747  0.1015
  286HK4    H1324007   3.100   3.039   8.626 -0.5256  0.0083  0.4804
  286HK4    C2524008   3.263   3.149   8.719 -0.5572 -0.0410  0.3236
  286HK4    H1224009   3.261   3.223   8.639  0.6340  0.3404  0.6366
  286HK4    C2424010   3.363   3.148   8.815  0.3027 -0.4630 -0.5713
  286HK4    H1124011   3.420   3.241   8.830  1.1094 -0.8310 -1.2802
  286HK4    C2324012   3.386   3.038   8.898 -0.2517 -0.0165  0.1783
  286HK4    H1024013   3.435   3.057   8.993  0.6870  2.6553 -0.7743
  286HK4    C3924014   3.431   2.762   9.011 -0.0924 -0.2964  0.2893
  286HK4    C4124015   3.484   2.634   8.985 -0.0009 -0.0427 -0.7678
  286HK4    H2124016   3.478   2.588   8.885  1.0790 -0.1755 -0.7835
  286HK4    C4224017   3.570   2.582   9.081 -0.5495  0.0029 -0.2510
  286HK4    H2224018   3.620   2.484   9.069  1.1203  0.6881  0.8897
  286HK4    C4324019   3.595   2.642   9.204 -0.2212 -0.0572 -0.2850
  286HK4    H2324020   3.642   2.574   9.275 -0.1956  0.8226  0.5391
  286HK4    C4424021   3.540   2.765   9.233 -0.3224 -0.1733  0.0103
  286HK4    H2424022   3.574   2.820   9.322 -0.5371 -0.9454  0.5692
  286HK4    C4524023   3.464   2.825   9.133 -0.5949 -0.0405  0.2938
  286HK4    H2524024   3.411   2.918   9.159 -0.9011  0.3224 -1.5667
  287HK4    H2824025   1.898   7.154   7.309  0.4801 -0.8051 -0.0879
  287HK4    C4824026   1.811   7.111   7.358  0.0009  0.3748  0.1131
  287HK4    C4724027   1.689   7.080   7.300  0.3866 -0.4924 -0.2405
  287HK4    H2724028   1.675   7.091   7.191  0.6460 -0.8594 -0.3132
  287HK4    C4624029   1.588   7.026   7.378  0.5947 -0.9538 -0.2902
  287HK4    H2624030   1.490   7.011   7.330  1.3247  1.2703 -2.5683
  287HK4    C4024031   1.608   6.988   7.513  0.0038  0.5775  0.2430
  287HK4    C5024032   1.734   7.016   7.570  0.3461 -0.0609 -0.1913
  287HK4    H3024033   1.745   6.996   7.677 -1.0999 -1.0931 -0.2204
  287HK4    C4924034   1.830   7.079   7.492  0.3346  0.2301  0.0309
  287HK4    H2924035   1.930   7.113   7.523 -0.0306  0.8900  0.5007
  287HK4     N224036   1.501   6.928   7.580 -0.0121  0.3985  0.0608
  287HK4    C3024037   1.414   6.836   7.518  0.5017  0.0374 -0.1239
  287HK4    C2924038   1.449   6.738   7.425  0.0227 -0.1850 -0.0672
  287HK4    H1524039   1.548   6.750   7.382 -1.0947  1.4794 -2.3536
  287HK4    C2824040   1.367   6.634   7.383 -0.2610 -0.1466  0.3929
  287HK4    C2724041   1.238   6.639   7.440 -0.2242 -0.2174  0.4823
  287HK4    H1424042   1.158   6.581   7.390  0.9038 -2.3359  1.0617
  287HK4    C3224043   1.201   6.726   7.541 -0.0283  0.0449  0.3299
  287HK4    H1624044   1.101   6.723   7.585 -0.0818  0.4752  0.2387
  287HK4    C3124045   1.288   6.824   7.587  0.3213  0.1006 -0.4397
  287HK4    C3424046   1.302   6.903   7.709 -0.1170 -0.4844 -0.0074
  287HK4    C3324047   1.434   6.960   7.700 -0.2607 -0.1428  0.0692
  287HK4    C3524048   1.480   7.027   7.813 -0.3706 -0.2125  0.1551
  287HK4    H1724049   1.561   7.098   7.799  0.5880 -1.0147  1.5458
  287HK4    C3624050   1.404   7.033   7.930 -0.1409 -0.2548  0.3058
  287HK4    H1824051   1.435   7.093   8.017  1.9852 -0.9330  0.0582
  287HK4    C3724052   1.279   6.975   7.941 -0.3354  0.1940  0.4709
  287HK4    H1924053   1.229   6.984   8.037  2.3322  1.9549  1.7404
  287HK4    C3824054   1.228   6.916   7.826  0.2314  0.4075  0.1109
  287HK4    H2024055   1.129   6.871   7.829 -0.2237  1.2829 -1.0948
  287HK4    C1424056   1.421   6.532   7.292  0.2050  0.1330  0.3565
  287HK4     C924057   1.328   6.458   7.218  0.0034  0.2079  0.5356
  287HK4     C824058   1.344   6.319   7.203 -0.3550  0.2414 -0.1817
  287HK4    C1124059   1.462   6.265   7.252 -0.5247 -0.1137 -0.1587
  287HK4     H424060   1.488   6.159   7.245  0.6652  0.2569 -1.4900
  287HK4    C1224061   1.562   6.338   7.316 -0.1694 -0.4644 -0.3156
  287HK4     H524062   1.651   6.294   7.364  0.9329  0.9816 -1.0044
  287HK4    C1324063   1.542   6.474   7.335  0.1843 -0.4114 -0.3146
  287HK4     H624064   1.608   6.530   7.403 -1.3433 -0.2733  1.0701
  287HK4     C724065   1.247   6.241   7.123  0.3501 -0.3397 -0.4736
  287HK4     O224066   1.248   6.118   7.127 -0.1895 -0.3296  0.1505
  287HK4     C424067   1.135   6.308   7.053  0.2551 -0.0703 -0.0655
  287HK4     C324068   1.057   6.246   6.956  0.2017 -0.1360  0.0196
  287HK4     H324069   1.050   6.137   6.945 -1.7193 -0.1535  1.1194
  287HK4     C224070   0.947   6.309   6.898 -0.3630 -0.3403  0.8501
  287HK4     H224071   0.892   6.264   6.813 -1.2607 -0.5533  1.5382
  287HK4     C124072   0.909   6.433   6.948  0.1245  0.2701 -0.2660
  287HK4     H124073   0.847   6.500   6.887 -0.5304  0.2204  0.3453
  287HK4     C624074   0.977   6.493   7.056 -0.0094 -0.5687  0.2856
  287HK4     C524075   1.101   6.439   7.093  0.2098 -0.1497  0.1589
  287HK4    C1024076   1.212   6.521   7.149 -0.0938  0.0110  0.5202
  287HK4     O124077   1.238   6.630   7.099 -0.2994 -0.3337 -0.3376
  287HK4    C1624078   0.898   6.572   7.152  0.1147 -0.6103  0.4220
  287HK4    C1524079   0.758   6.567   7.147  0.1068 -0.2041  0.2244
  287HK4     H724080   0.716   6.469   7.118 -0.5010 -0.0721  0.6394
  287HK4    C2024081   0.665   6.663   7.186 -0.1681 -0.4109  0.0871
  287HK4     H924082   0.561   6.647   7.158 -0.2382  1.4953 -0.8287
  287HK4    C1924083   0.715   6.770   7.260  0.4809  0.0210 -0.9583
  287HK4    C1824084   0.858   6.781   7.278  0.3898  0.3526 -0.4058
  287HK4    C1724085   0.941   6.684   7.222 -0.0579 -0.1137 -0.2603
  287HK4     H824086   1.045   6.702   7.251  0.2833  1.9237 -2.5858
  287HK4     N124087   0.893   6.896   7.352 -0.0911  0.3682 -0.2016
  287HK4    C2124088   0.771   6.963   7.372 -0.4172 -0.2766 -0.0045
  287HK4    C2224089   0.658   6.891   7.317 -0.1637 -0.7766  0.1314
  287HK4    C2624090   0.536   6.953   7.294  0.1842 -0.0763  0.1387
  287HK4    H1324091   0.452   6.903   7.244 -0.8423  1.0459  0.7185
  287HK4    C2524092   0.524   7.089   7.318  0.0648 -0.0623  0.0070
  287HK4    H1224093   0.430   7.138   7.291  0.7650  1.3608  0.1447
  287HK4    C2424094   0.629   7.162   7.371  0.0349  0.1697 -0.2529
  287HK4    H1124095   0.614   7.266   7.405  1.2419  0.2129  0.1778
  287HK4    C2324096   0.750   7.099   7.397 -0.3396 -0.3201  0.3028
  287HK4    H1024097   0.831   7.163   7.432 -0.0650 -1.8659  2.5843
  287HK4    C3924098   1.021   6.952   7.354  0.1375 -0.1541 -0.2092
  287HK4    C4124099   1.046   7.031   7.469 -0.2032  0.3105 -0.4573
  287HK4    H2124100   1.022   6.997   7.570  1.4646  2.4483  0.7015
  287HK4    C4224101   1.141   7.132   7.465  0.2162 -0.0781 -0.3723
  287HK4    H2224102   1.171   7.187   7.555 -0.7510 -1.9425  1.1163
  287HK4    C4324103   1.212   7.150   7.347  0.3216 -0.2942 -0.3403
  287HK4    H2324104   1.289   7.226   7.334 -0.5543  0.4108 -1.5153
  287HK4    C4424105   1.194   7.065   7.238  0.2631 -0.7572  0.0250
  287HK4    H2424106   1.250   7.092   7.147 -1.2724 -0.0053 -0.7227
  287HK4    C4524107   1.096   6.966   7.236  0.2380 -0.7273 -0.2161
  287HK4    H2524108   1.119   6.881   7.170 -2.5322 -0.8996 -1.0054
  288HK4    H2824109   5.780   5.292   8.030 -0.0137 -1.4364 -3.8197
  288HK4    C4824110   5.784   5.194   8.077 -0.2921  0.1142 -0.4540
  288HK4    C4724111   5.854   5.163   8.193 -0.5822 -0.1578 -0.3455
  288HK4    H2724112   5.923   5.241   8.229 -1.7287 -0.7602  3.2782
  288HK4    C4624113   5.853   5.043   8.262  0.1463 -0.0683 -0.1672
  288HK4    H2624114   5.867   5.042   8.371  0.3971  0.7252 -0.1941
  288HK4    C4024115   5.778   4.938   8.204 -0.4788  0.0692  0.3788
  288HK4    C5024116   5.711   4.963   8.082  0.0661 -0.3240 -0.0073
  288HK4    H3024117   5.643   4.886   8.043  0.6898 -0.2983 -1.1327
  288HK4    C4924118   5.714   5.088   8.021 -0.2557 -0.2353  0.1577
  288HK4    H2924119   5.643   5.101   7.938 -0.8779 -1.4982  0.4743
  288HK4     N224120   5.793   4.806   8.248 -0.3829 -0.1675 -0.3526
  288HK4    C3024121   5.903   4.746   8.311 -0.2359  0.3204 -0.1406
  288HK4    C2924122   6.034   4.790   8.322 -0.0171 -0.4468  0.3504
  288HK4    H1524123   6.054   4.893   8.293 -0.6182 -0.4910 -0.2023
  288HK4    C2824124   6.135   4.707   8.371  0.6231  0.0080 -0.1919
  288HK4    C2724125   6.090   4.580   8.412  0.0536  0.3856  0.3726
  288HK4    H1424126   6.163   4.507   8.448  0.6902  0.9121  0.1562
  288HK4    C3224127   5.958   4.536   8.413  0.0259  0.4536 -0.0681
  288HK4    H1624128   5.938   4.429   8.423 -0.2699  0.5435  0.2968
  288HK4    C3124129   5.857   4.622   8.371 -0.1012  0.1429 -0.4010
  288HK4    C3424130   5.715   4.607   8.344 -0.0261 -0.3287 -0.5562
  288HK4    C3324131   5.677   4.730   8.278 -0.4080  0.3984  0.9865
  288HK4    C3524132   5.541   4.755   8.265 -0.2352  0.8046 -0.1611
  288HK4    H1724133   5.510   4.855   8.236  2.0360  1.5062 -0.2732
  288HK4    C3624134   5.446   4.659   8.300  0.5784  0.2592  0.5972
  288HK4    H1824135   5.340   4.678   8.276  0.8590 -1.2516 -2.0433
  288HK4    C3724136   5.488   4.540   8.357 -0.0277 -0.0146  0.4813
  288HK4    H1924137   5.419   4.463   8.390  0.1792  0.3685  1.8739
  288HK4    C3824138   5.622   4.513   8.384  0.0380 -0.1606 -0.0010
  288HK4    H2024139   5.654   4.410   8.403  0.5283 -0.1188 -0.5886
  288HK4    C1424140   6.271   4.721   8.317  0.5687  0.3398 -0.2432
  288HK4     C924141   6.355   4.613   8.288  0.1321 -0.2357  0.6259
  288HK4     C824142   6.491   4.632   8.320  0.1991 -0.0781  0.2440
  288HK4    C1124143   6.547   4.755   8.353  0.5897 -0.1359 -0.1825
  288HK4     H424144   6.642   4.752   8.408  0.7020 -1.2828 -0.4385
  288HK4    C1224145   6.467   4.869   8.354  0.6756 -0.0761  0.0533
  288HK4     H524146   6.512   4.964   8.386 -1.5159  1.2531 -0.6744
  288HK4    C1324147   6.330   4.847   8.339  0.5906  0.2183  0.4016
  288HK4     H624148   6.264   4.934   8.327 -0.3450 -0.4301  0.7597
  288HK4     C724149   6.572   4.509   8.314 -0.0792 -0.2479 -0.0571
  288HK4     O224150   6.665   4.499   8.394  0.5920  0.3739 -0.7543
  288HK4     C424151   6.526   4.384   8.250  0.3910 -0.3588 -0.1792
  288HK4     C324152   6.622   4.292   8.208  0.9155  0.2518 -0.3132
  288HK4     H324153   6.715   4.289   8.266  1.4281  2.7058 -0.9274
  288HK4     C224154   6.585   4.194   8.117 -0.4208  0.5307 -0.0912
  288HK4     H224155   6.656   4.114   8.090  1.2587  1.6302  0.9700
  288HK4     C124156   6.451   4.181   8.083 -0.1272  0.0510 -1.0828
  288HK4     H124157   6.433   4.114   7.998  1.0466 -1.3843 -0.2229
  288HK4     C624158   6.346   4.257   8.138  0.2460 -0.6028  0.5749
  288HK4     C524159   6.392   4.367   8.211  0.3223 -0.2613  0.0115
  288HK4    C1024160   6.307   4.490   8.219  0.7928  0.0946 -0.4218
  288HK4     O124161   6.215   4.508   8.140  0.3874  0.0971  0.0514
  288HK4    C1624162   6.220   4.182   8.146  0.2181 -0.6028  0.1663
  288HK4    C1524163   6.206   4.042   8.128  0.6735 -0.6190 -0.0561
  288HK4     H724164   6.293   3.976   8.140  0.4796 -0.7220  0.7685
  288HK4    C2024165   6.087   3.983   8.089  0.2904  0.3630 -0.4049
  288HK4     H924166   6.080   3.874   8.093 -2.4553  0.5719  1.8916
  288HK4    C1924167   5.972   4.052   8.054 -0.1199  0.2612  0.7136
  288HK4    C1824168   5.978   4.193   8.086  0.2209  0.3695  0.1830
  288HK4    C1724169   6.097   4.246   8.135  0.3680 -0.2565  0.5060
  288HK4     H824170   6.078   4.332   8.199 -0.6233  0.3492 -0.5905
  288HK4     N124171   5.856   4.252   8.049  0.2118 -0.0119 -0.3973
  288HK4    C2124172   5.776   4.151   7.990  0.0589 -0.2791  0.2563
  288HK4    C2224173   5.846   4.024   7.986  0.3757 -0.0937 -0.0693
  288HK4    C2624174   5.778   3.914   7.935  0.2402  0.3481 -0.8573
  288HK4    H1324175   5.827   3.817   7.941  0.7262  0.7257  2.5230
  288HK4    C2524176   5.644   3.915   7.900 -0.1004 -0.4209  0.3940
  288HK4    H1224177   5.574   3.832   7.895 -1.2548  0.5468  0.3711
  288HK4    C2424178   5.576   4.036   7.906 -0.1480 -0.4479  0.3876
  288HK4    H1124179   5.477   4.063   7.865 -0.6998 -0.4897  1.6899
  288HK4    C2324180   5.644   4.149   7.948  0.3535 -0.3424 -0.6763
  288HK4    H1024181   5.580   4.236   7.965 -0.5781 -1.2115  0.3337
  288HK4    C3924182   5.840   4.385   8.010 -0.5524 -0.0942 -0.3716
  288HK4    C4124183   5.714   4.447   8.020 -0.3497  0.2559  0.0757
  288HK4    H2124184   5.631   4.403   8.076 -0.1297  0.2268  0.3743
  288HK4    C4224185   5.694   4.577   7.974 -0.3893  0.3147  0.2586
  288HK4    H2224186   5.595   4.621   7.956 -1.2263 -1.0568  1.3991
  288HK4    C4324187   5.804   4.652   7.931  0.1228 -0.2174  0.6332
  288HK4    H2324188   5.799   4.760   7.939  0.3016 -0.0254 -1.6096
  288HK4    C4424189   5.931   4.596   7.926  0.0688 -0.2334 -0.9393
  288HK4    H2424190   6.016   4.657   7.891  0.6792 -0.2438  0.4961
  288HK4    C4524191   5.947   4.463   7.961 -0.2702  0.1119  0.5638
  288HK4    H2524192   6.046   4.422   7.936  0.9184  1.6845  2.5134
  289HK4    H2824193   9.054   0.363   8.623 -0.6733 -1.6580  0.7713
  289HK4    C4824194   8.977   0.435   8.649  0.1962 -0.0714 -0.9853
  289HK4    C4724195   9.000   0.572   8.659 -0.2123 -0.0666 -0.0264
  289HK4    H2724196   9.092   0.616   8.618 -0.0925  1.4671  1.8119
  289HK4    C4624197   8.911   0.662   8.715 -0.0388  0.0008  0.1394
  289HK4    H2624198   8.936   0.768   8.709  0.8736 -0.2513 -0.4796
  289HK4    C4024199   8.786   0.619   8.765 -0.2127  0.5326  0.1652
  289HK4    C5024200   8.760   0.480   8.756  0.7796  0.3469  0.0947
  289HK4    H3024201   8.674   0.439   8.811  1.9151 -1.4253  0.5539
  289HK4    C4924202   8.853   0.395   8.697  0.5350  0.1152  0.0410
  289HK4    H2924203   8.818   0.295   8.668 -0.7460 -0.0552  2.0243
  289HK4     N224204   8.701   0.704   8.837 -0.2438  0.2181  0.5085
  289HK4    C3024205   8.739   0.812   8.919  0.5356  0.0152  0.4155
  289HK4    C2924206   8.862   0.842   8.978  0.4343 -0.4995  0.8899
  289HK4    H1524207   8.938   0.765   8.967  1.3845  0.8400 -2.6547
  289HK4    C2824208   8.873   0.957   9.055 -0.0006  0.2025 -0.0828
  289HK4    C2724209   8.756   1.028   9.089 -0.0346 -0.3916  1.0613
  289HK4    H1424210   8.757   1.127   9.137 -2.6849  0.5841 -0.8148
  289HK4    C3224211   8.632   0.989   9.042  0.2360 -0.9294  0.7848
  289HK4    H1624212   8.541   1.038   9.076  1.5523  0.5097  2.2783
  289HK4    C3124213   8.617   0.882   8.954  0.3013  0.0123 -0.3831
  289HK4    C3424214   8.504   0.812   8.897  0.1246 -0.0743  0.0712
  289HK4    C3324215   8.561   0.705   8.819 -0.1635 -0.0683 -0.1520
  289HK4    C3524216   8.479   0.611   8.758 -0.3253 -0.3901  0.5479
  289HK4    H1724217   8.511   0.531   8.690 -3.1041  1.8143 -3.5703
  289HK4    C3624218   8.342   0.622   8.778 -0.3452 -0.1899  0.3194
  289HK4    H1824219   8.277   0.545   8.733 -1.8532  0.4093  1.4403
  289HK4    C3724220   8.282   0.726   8.847  0.1983  0.0836  0.3817
  289HK4    H1924221   8.173   0.730   8.856  0.3323  1.6813  1.5468
  289HK4    C3824222   8.365   0.820   8.906  0.1516  0.1918  0.2720
  289HK4    H2024223   8.322   0.907   8.956 -0.3459 -0.2865  0.6841
  289HK4    C1424224   8.996   0.957   9.135 -0.0669 -0.1823  0.0256
  289HK4     C924225   8.998   0.985   9.273 -0.3193  0.2452 -0.0574
  289HK4     C824226   9.105   1.058   9.328  0.1078 -0.4987  0.0991
  289HK4    C1124227   9.214   1.086   9.247 -0.1798  0.7572  0.1270
  289HK4     H424228   9.295   1.144   9.292 -0.3897  1.5397 -0.4810
  289HK4    C1224229   9.223   1.057   9.111 -0.5221  1.0165  0.0507
  289HK4     H524230   9.320   1.050   9.061 -0.4892 -1.6050  0.4066
  289HK4    C1324231   9.109   0.995   9.060 -0.2874  0.5732  0.0699
  289HK4     H624232   9.098   0.985   8.951 -1.2005  0.2618  0.1908
  289HK4     C724233   9.104   1.098   9.471  0.2912 -0.2584  0.0295
  289HK4     O224234   9.168   1.198   9.503 -0.1474 -0.1319  0.5136
  289HK4     C424235   8.994   1.055   9.560  0.1434  0.2673  0.1044
  289HK4     C324236   8.993   1.087   9.695  0.0431  0.1205  0.1386
  289HK4     H324237   9.094   1.098   9.737 -0.3335 -0.9135  1.3502
  289HK4     C224238   8.887   1.054   9.779 -0.5370  1.2942 -0.1119
  289HK4     H224239   8.881   1.084   9.885  0.7028 -1.0497  0.6631
  289HK4     C124240   8.775   1.002   9.717  0.0207 -0.2899  0.1839
  289HK4     H124241   8.698   0.977   9.792  0.2019 -0.1113  0.4270
  289HK4     C624242   8.766   0.971   9.580 -0.0580 -0.4102  0.2157
  289HK4     C524243   8.883   0.988   9.504  0.1378 -0.1206  0.5810
  289HK4    C1024244   8.891   0.937   9.364  0.2583  0.0558  0.5246
  289HK4     O124245   8.846   0.825   9.341  0.1144  0.2584 -0.1807
  289HK4    C1624246   8.638   0.998   9.513  0.1543  0.1923  0.0513
  289HK4    C1524247   8.556   1.104   9.556 -0.0051  0.2107 -0.2876
  289HK4     H724248   8.590   1.181   9.628  0.4879 -0.2589 -0.0139
  289HK4    C2024249   8.426   1.122   9.510  0.0376  0.6992 -0.2207
  289HK4     H924250   8.365   1.208   9.535  1.6195  1.5612  0.7350
  289HK4    C1924251   8.366   1.030   9.425  0.1339  0.0855  0.3694
  289HK4    C1824252   8.441   0.909   9.397  0.1301  0.1876 -0.0752
  289HK4    C1724253   8.572   0.898   9.443 -0.1766 -0.0695  0.7366
  289HK4     H824254   8.612   0.797   9.448 -0.7253 -0.3056  0.5037
  289HK4     N124255   8.361   0.830   9.312  0.0463  0.6080 -0.3918
  289HK4    C2124256   8.240   0.897   9.286 -0.1317  0.3684 -0.1966
  289HK4    C2224257   8.238   1.023   9.357  0.0117 -0.0837  0.6116
  289HK4    C2624258   8.130   1.111   9.361 -0.0288 -0.1104  0.0980
  289HK4    H1324259   8.123   1.189   9.437 -1.7916  0.7162 -0.8749
  289HK4    C2524260   8.024   1.076   9.278  0.2020  0.2731 -0.3556
  289HK4    H1224261   7.958   1.160   9.259 -1.9197 -0.5794  2.9034
  289HK4    C2424262   8.021   0.955   9.208  0.4530  0.3156 -0.4436
  289HK4    H1124263   7.926   0.918   9.167  2.2534 -2.4612 -2.1881
  289HK4    C2324264   8.129   0.868   9.206  0.2960  0.1216 -0.6994
  289HK4    H1024265   8.133   0.793   9.127 -1.7696 -0.3579 -0.3731
  289HK4    C3924266   8.395   0.697   9.285  0.2941  0.6573 -0.3153
  289HK4    C4124267   8.294   0.617   9.228  0.4908 -0.0621  0.3401
  289HK4    H2124268   8.204   0.607   9.290  0.4091 -2.0467 -0.0627
  289HK4    C4224269   8.321   0.524   9.128 -0.2923 -0.2867  0.3380
  289HK4    H2224270   8.237   0.491   9.065  1.1683 -1.3132 -1.1432
  289HK4    C4324271   8.453   0.499   9.092 -0.1942 -0.6370  0.9318
  289HK4    H2324272   8.461   0.449   8.995  1.7695 -0.4711  0.9983
  289HK4    C4424273   8.558   0.562   9.158 -0.2069  0.7553 -0.3579
  289HK4    H2424274   8.660   0.559   9.117 -0.7562 -0.0655 -1.7172
  289HK4    C4524275   8.527   0.663   9.248  0.3806  0.5179  0.1129
  289HK4    H2524276   8.612   0.731   9.264  0.1113  1.0114 -0.5168
  290HK4    H2824277   9.224   4.038   8.533 -2.5380 -0.5108 -1.4752
  290HK4    C4824278   9.152   4.095   8.591 -0.7077  0.4208 -0.0732
  290HK4    C4724279   9.097   4.206   8.529 -0.2032  0.2887 -0.7682
  290HK4    H2724280   9.122   4.224   8.424  1.8186  0.6036 -0.2570
  290HK4    C4624281   8.996   4.271   8.600 -0.2310 -0.4043 -0.1564
  290HK4    H2624282   8.958   4.358   8.544  0.6027 -0.5168 -0.9035
  290HK4    C4024283   8.945   4.235   8.726  0.0680  0.0527  0.1001
  290HK4    C5024284   8.999   4.114   8.773  0.6982  0.2694 -0.0682
  290HK4    H3024285   8.964   4.068   8.867  1.6060 -0.5629 -0.1249
  290HK4    C4924286   9.103   4.045   8.711  0.3856 -0.3261  0.0664
  290HK4    H2924287   9.158   3.970   8.771  0.8986 -0.7460 -0.9141
  290HK4     N224288   8.871   4.328   8.800 -0.0265 -0.2437  0.3768
  290HK4    C3024289   8.857   4.466   8.776 -0.0869 -0.2806  0.2047
  290HK4    C2924290   8.955   4.551   8.725 -0.6270 -0.1073 -0.5555
  290HK4    H1524291   9.056   4.519   8.700 -0.1327  1.4256 -0.5346
  290HK4    C2824292   8.928   4.686   8.710  0.0090  0.1299  0.3753
  290HK4    C2724293   8.802   4.737   8.746 -0.4558 -0.2496 -0.6914
  290HK4    H1424294   8.781   4.845   8.742 -0.6228 -0.3185 -1.7775
  290HK4    C3224295   8.709   4.660   8.815 -0.1598 -0.0452 -0.0633
  290HK4    H1624296   8.611   4.701   8.838 -0.2964 -1.9147  3.0239
  290HK4    C3124297   8.731   4.522   8.820 -0.1003 -0.0375 -0.1353
  290HK4    C3424298   8.660   4.411   8.881  0.0029  0.0364  0.1200
  290HK4    C3324299   8.748   4.298   8.862 -0.1006 -0.0733  0.3112
  290HK4    C3524300   8.706   4.172   8.903 -0.2537 -0.0258  0.3031
  290HK4    H1724301   8.762   4.082   8.875 -1.7118 -1.3266  1.4458
  290HK4    C3624302   8.582   4.149   8.963 -0.4686 -0.3139 -0.2537
  290HK4    H1824303   8.561   4.059   9.023  0.9197  0.3493  1.2542
  290HK4    C3724304   8.500   4.259   8.980  0.1817  0.1482 -0.1105
  290HK4    H1924305   8.401   4.253   9.025  0.2727 -0.7413 -0.0165
  290HK4    C3824306   8.539   4.388   8.945 -0.0905  0.2670  0.0286
  290HK4    H2024307   8.477   4.473   8.975  3.0271  2.3747  0.7782
  290HK4    C1424308   9.036   4.784   8.688  0.1730 -0.1583 -0.1002
  290HK4     C924309   9.038   4.907   8.755 -0.0188 -0.0876 -0.2214
  290HK4     C824310   9.089   5.019   8.687 -0.2974  0.2392  0.1030
  290HK4    C1124311   9.158   4.996   8.568 -0.6601 -0.3946  0.0169
  290HK4     H424312   9.188   5.088   8.515 -0.4329  0.4964  1.6644
  290HK4    C1224313   9.166   4.873   8.504  0.4221 -0.3929  0.1494
  290HK4     H524314   9.214   4.863   8.405  2.1782 -0.5115  0.9884
  290HK4    C1324315   9.100   4.767   8.564 -0.3219 -0.2113 -0.3476
  290HK4     H624316   9.097   4.671   8.510  0.1731 -0.3579 -0.1089
  290HK4     C724317   9.082   5.149   8.757 -0.1780  0.2955  0.0154
  290HK4     O224318   9.066   5.251   8.689  0.1745  0.0694 -0.4049
  290HK4     C424319   9.076   5.156   8.904  0.2565 -0.2714  0.0602
  290HK4     C324320   9.079   5.279   8.970  0.2578 -0.3951  0.2925
  290HK4     H324321   9.102   5.371   8.915  2.3928 -0.3261  1.2392
  290HK4     C224322   9.065   5.288   9.108  0.5316  0.2754  0.2742
  290HK4     H224323   9.064   5.391   9.148 -1.9853  0.5092 -0.3091
  290HK4     C124324   9.056   5.167   9.175 -0.6457 -0.0041 -0.3574
  290HK4     H124325   8.999   5.166   9.269  0.3746  0.7409  0.2836
  290HK4     C624326   9.084   5.043   9.114 -0.9448 -0.3419  0.1821
  290HK4     C524327   9.073   5.034   8.975  0.7957 -0.3009  0.0320
  290HK4    C1024328   9.034   4.909   8.904 -0.3524  0.2063 -0.2353
  290HK4     O124329   8.972   4.828   8.972  0.0527 -0.0853 -0.2114
  290HK4    C1624330   9.129   4.936   9.204  0.7165  0.2751  0.1016
  290HK4    C1524331   9.120   4.958   9.343 -0.3991  0.0585  0.0658
  290HK4     H724332   9.041   5.013   9.395 -0.6696 -0.8831  0.6570
  290HK4    C2024333   9.203   4.888   9.430 -0.3685  0.1363  0.1064
  290HK4     H924334   9.211   4.923   9.533  2.2028  0.2861 -0.1239
  290HK4    C1924335   9.287   4.787   9.384 -0.3085  0.3842 -0.3180
  290HK4    C1824336   9.292   4.763   9.241  0.1897 -0.1230 -0.2148
  290HK4    C1724337   9.215   4.839   9.154  0.2462 -0.0059 -0.1653
  290HK4     H824338   9.245   4.842   9.049  2.8638 -0.1589  0.5488
  290HK4     N124339   9.369   4.650   9.207 -0.3390 -0.6836  0.4428
  290HK4    C2124340   9.424   4.609   9.330  0.2978  0.5860  0.5964
  290HK4    C2224341   9.383   4.695   9.440 -0.6686  0.4212  0.3723
  290HK4    C2624342   9.442   4.679   9.565  0.1315 -0.0277 -0.0525
  290HK4    H1324343   9.433   4.763   9.634 -1.0786 -1.6573  1.8297
  290HK4    C2524344   9.536   4.579   9.587 -0.0061 -0.1960 -0.2176
  290HK4    H1224345   9.602   4.587   9.673  0.8210 -0.0374 -0.8700
  290HK4    C2424346   9.569   4.495   9.481  0.0734 -0.3447 -0.0743
  290HK4    H1124347   9.640   4.413   9.500  1.5365  0.4177 -2.0732
  290HK4    C2324348   9.516   4.507   9.354 -0.3101 -0.0821  0.1101
  290HK4    H1024349   9.553   4.436   9.280  2.0104  2.4097 -1.2031
  290HK4    C3924350   9.337   4.566   9.099  0.0678 -0.4300  0.1235
  290HK4    C4124351   9.431   4.471   9.054  0.1809 -0.4673  0.4361
  290HK4    H2124352   9.537   4.501   9.056  0.1672 -0.4153  0.3974
  290HK4    C4224353   9.397   4.346   9.005 -0.1454 -0.1926 -0.0544
  290HK4    H2224354   9.469   4.283   8.950  1.1400 -0.4989  1.9232
  290HK4    C4324355   9.264   4.308   8.993 -0.2557  0.2170 -0.1262
  290HK4    H2324356   9.239   4.209   8.954  0.0620  0.0764  0.0204
  290HK4    C4424357   9.167   4.397   9.037 -0.0470  0.3745  0.0085
  290HK4    H2424358   9.064   4.363   9.050 -0.9962  2.4737 -1.6690
  290HK4    C4524359   9.204   4.523   9.084 -0.1952  0.1977  0.6014
  290HK4    H2524360   9.123   4.598   9.091 -0.9359 -0.6511  1.2985
  291HK4    H2824361   2.818   8.370   0.356  0.0603 -2.4059  0.1134
  291HK4    C4824362   2.821   8.344   0.462  0.1544  0.0032  0.7312
  291HK4    C4724363   2.934   8.294   0.526  0.4380  0.0883  0.2984
  291HK4    H2724364   3.034   8.329   0.497  0.7325 -0.0810  1.1018
  291HK4    C4624365   2.928   8.226   0.647 -0.2242 -1.1297 -0.4128
  291HK4    H2624366   3.023   8.210   0.701 -1.2886 -0.5005  1.6859
  291HK4    C4024367   2.802   8.204   0.705 -0.2104  0.5164  0.2615
  291HK4    C5024368   2.685   8.254   0.644 -0.1886  0.2486 -0.0009
  291HK4    H3024369   2.588   8.237   0.693  0.7647  0.6154  2.0605
  291HK4    C4924370   2.699   8.322   0.524 -0.2507  0.3862  0.0712
  291HK4    H2924371   2.606   8.357   0.476 -0.3829 -1.6800 -1.2250
  291HK4     N224372   2.787   8.112   0.810 -0.0618  0.1667 -0.0228
  291HK4    C3024373   2.858   7.993   0.837 -0.0633  0.1811  0.0502
  291HK4    C2924374   2.946   7.925   0.755 -0.7691 -1.0350  0.2928
  291HK4    H1524375   2.910   7.911   0.653  1.9233  0.6304 -0.9397
  291HK4    C2824376   3.049   7.842   0.799  0.3062  0.4151  0.5428
  291HK4    C2724377   3.037   7.803   0.934  0.5399  0.1155  0.4785
  291HK4    H1424378   3.117   7.742   0.978  1.5410  0.7557 -0.4114
  291HK4    C3224379   2.939   7.852   1.020  0.0313 -0.0239 -0.0136
  291HK4    H1624380   2.948   7.815   1.123 -0.2775  0.3917  0.1626
  291HK4    C3124381   2.849   7.947   0.974  0.1754  0.1459  0.0529
  291HK4    C3424382   2.755   8.040   1.033 -0.6567 -0.5442 -0.1834
  291HK4    C3324383   2.715   8.134   0.930 -0.0938 -0.0952  0.0058
  291HK4    C3524384   2.611   8.220   0.962 -0.3761 -0.5082  0.1834
  291HK4    H1724385   2.580   8.301   0.896 -0.0858 -0.8346 -0.3536
  291HK4    C3624386   2.543   8.210   1.084 -0.2969 -0.1694  0.2534
  291HK4    H1824387   2.466   8.284   1.108  0.0095  0.5601 -0.9539
  291HK4    C3724388   2.584   8.124   1.185  0.2058  0.0871  0.2727
  291HK4    H1924389   2.537   8.119   1.284  2.1845  0.7019  1.2667
  291HK4    C3824390   2.692   8.042   1.157  0.1424  0.0224  0.2204
  291HK4    H2024391   2.723   7.972   1.234  0.5437 -1.9353 -1.6538
  291HK4    C1424392   3.145   7.795   0.698  0.2975  0.3898  0.5464
  291HK4     C924393   3.219   7.677   0.708  0.3133  0.4223  0.8017
  291HK4     C824394   3.357   7.681   0.678  0.0420  0.1415 -0.5091
  291HK4    C1124395   3.413   7.791   0.614  0.2906  0.1123 -0.3416
  291HK4     H424396   3.516   7.788   0.576  0.1832 -0.2412 -0.6091
  291HK4    C1224397   3.336   7.904   0.588 -0.2655 -0.2056 -0.0809
  291HK4     H524398   3.391   7.993   0.554 -0.8180  0.5635  1.0177
  291HK4    C1324399   3.205   7.906   0.635 -0.0643  0.5277  0.4374
  291HK4     H624400   3.143   7.994   0.613  0.2917  0.1853 -2.0900
  291HK4     C724401   3.448   7.571   0.714 -0.1436  0.1518 -0.0002
  291HK4     O224402   3.542   7.543   0.639 -0.2399  0.5210 -0.2595
  291HK4     C424403   3.391   7.469   0.805 -0.0870  0.1568  0.0415
  291HK4     C324404   3.486   7.393   0.872 -0.3776 -0.7087 -0.5133
  291HK4     H324405   3.591   7.424   0.884 -0.6195 -0.7593  1.9626
  291HK4     C224406   3.444   7.283   0.944  0.1552 -0.2733  0.4761
  291HK4     H224407   3.523   7.229   1.000 -0.1063 -3.7784 -2.3017
  291HK4     C124408   3.310   7.246   0.932  0.1013  0.2053 -0.3979
  291HK4     H124409   3.292   7.139   0.945  1.2268  0.1603  0.9510
  291HK4     C624410   3.207   7.317   0.867 -0.2795  0.1045  0.0912
  291HK4     C524411   3.254   7.437   0.811 -0.0231 -0.1777 -0.3049
  291HK4    C1024412   3.167   7.548   0.762  0.1935  0.3302  0.4696
  291HK4     O124413   3.047   7.533   0.743  0.3253 -0.1763  0.0301
  291HK4    C1624414   3.077   7.249   0.875 -0.4310  0.4029  0.1610
  291HK4    C1524415   3.050   7.152   0.973  0.0628 -0.2570 -0.3500
  291HK4     H724416   3.096   7.164   1.073 -0.0559  3.1129 -0.6304
  291HK4    C2024417   2.975   7.038   0.945 -0.0935 -0.2052 -0.1427
  291HK4     H924418   2.949   6.968   1.024 -0.4828 -0.7936 -0.7952
  291HK4    C1924419   2.921   7.014   0.820 -0.0662  0.3556 -0.2633
  291HK4    C1824420   2.916   7.123   0.724  0.1540  0.3627 -0.2677
  291HK4    C1724421   3.007   7.223   0.758  0.5511  0.0347 -0.3560
  291HK4     H824422   3.034   7.283   0.671  1.0502 -1.1897 -1.0557
  291HK4     N124423   2.873   7.087   0.595 -0.1178 -0.0288 -0.0694
  291HK4    C2124424   2.866   6.947   0.601 -0.0078 -0.0110  0.5371
  291HK4    C2224425   2.897   6.899   0.735 -0.5086 -0.1872  0.5910
  291HK4    C2624426   2.882   6.767   0.775  0.6928 -0.4048  0.3349
  291HK4    H1324427   2.909   6.731   0.874  0.1412  1.6983  1.2864
  291HK4    C2524428   2.842   6.675   0.679  0.0614  0.4455 -0.2264
  291HK4    H1224429   2.873   6.572   0.699 -0.7579 -0.1723 -1.9847
  291HK4    C2424430   2.807   6.720   0.552 -0.3076 -0.0767 -0.3132
  291HK4    H1124431   2.766   6.645   0.482  2.7426 -2.8769  0.7095
  291HK4    C2324432   2.823   6.851   0.510  0.1591  0.0856  0.3586
  291HK4    H1024433   2.786   6.878   0.411 -3.4446 -0.8883  1.3686
  291HK4    C3924434   2.783   7.158   0.514  0.7432  0.8161 -0.2929
  291HK4    C4124435   2.706   7.267   0.560 -0.7185 -0.4092  0.2010
  291HK4    H2124436   2.658   7.262   0.658  1.0697  1.4804  1.2151
  291HK4    C4224437   2.658   7.373   0.483  0.9014  0.2730  0.1115
  291HK4    H2224438   2.585   7.443   0.524 -0.1671  0.6594 -2.3707
  291HK4    C4324439   2.675   7.362   0.346 -0.2992  0.1715 -0.0340
  291HK4    H2324440   2.647   7.444   0.279  0.5976  1.1568  0.7730
  291HK4    C4424441   2.753   7.258   0.296 -0.1699  0.0849  0.3496
  291HK4    H2424442   2.748   7.242   0.188  0.6648 -1.6038  0.5506
  291HK4    C4524443   2.808   7.157   0.375  0.2204 -0.2776 -0.3838
  291HK4    H2524444   2.881   7.091   0.327  0.2148 -0.7882  0.2994
  292HK4    H2824445   1.505   2.073   1.778 -0.6282  0.0425 -0.4660
  292HK4    C4824446   1.568   2.037   1.860 -0.9317 -0.3446 -0.4013
  292HK4    C4724447   1.586   2.122   1.968  0.5594 -0.2119 -0.7512
  292HK4    H2724448   1.532   2.218   1.973 -0.9889 -1.1132 -0.0049
  292HK4    C4624449   1.650   2.081   2.084 -0.0570 -0.1733 -0.3994
  292HK4    H2624450   1.698   2.157   2.146  0.6079 -0.3958 -0.6420
  292HK4    C4024451   1.693   1.947   2.098  0.3123 -0.0055  0.0826
  292HK4    C5024452   1.676   1.871   1.981  0.2953  0.3046 -0.1157
  292HK4    H3024453   1.733   1.777   1.992 -1.2776 -0.5360  0.9949
  292HK4    C4924454   1.623   1.910   1.858 -0.2591 -0.0588  0.0065
  292HK4    H2924455   1.575   1.833   1.796  1.5913 -0.3121 -1.1664
  292HK4     N224456   1.731   1.897   2.223  0.2414  0.2277  0.1972
  292HK4    C3024457   1.685   1.945   2.348  0.3551  0.0056  0.3252
  292HK4    C2924458   1.570   2.018   2.376  0.5338  0.3338  0.2051
  292HK4    H1524459   1.495   2.032   2.298  0.4288 -0.3368  0.1821
  292HK4    C2824460   1.535   2.055   2.505 -0.3750 -0.1829  0.1022
  292HK4    C2724461   1.627   2.023   2.607 -0.0273  0.4189 -0.0241
  292HK4    H1424462   1.599   2.055   2.708 -1.8990 -0.4146 -0.2595
  292HK4    C3224463   1.745   1.952   2.585 -0.0349  0.3658  0.1076
  292HK4    H1624464   1.816   1.937   2.667  0.3348  1.0829 -0.0827
  292HK4    C3124465   1.779   1.918   2.455  0.2892 -0.1815  0.3347
  292HK4    C3424466   1.890   1.853   2.387 -0.2305 -0.4815 -0.2283
  292HK4    C3324467   1.855   1.836   2.247  0.0688 -0.3257 -0.3211
  292HK4    C3524468   1.959   1.805   2.160 -0.0442 -0.6258 -0.3527
  292HK4    H1724469   1.940   1.798   2.053 -1.6511  0.3406 -0.1548
  292HK4    C3624470   2.091   1.788   2.201 -0.1951 -0.0257  0.4032
  292HK4    H1824471   2.165   1.754   2.127  1.7171  0.8850  1.8543
  292HK4    C3724472   2.126   1.802   2.335  0.2803 -0.3893  0.3212
  292HK4    H1924473   2.228   1.801   2.373  0.0101  1.6531  1.1988
  292HK4    C3824474   2.023   1.834   2.423 -0.0994  0.2246 -0.3368
  292HK4    H2024475   2.044   1.819   2.529 -1.4672 -0.5316 -0.1616
  292HK4    C1424476   1.417   2.139   2.530 -0.0941  0.4969 -0.8336
  292HK4     C924477   1.403   2.218   2.644  0.1077 -0.5725 -0.0542
  292HK4     C824478   1.286   2.213   2.724  0.4779 -0.2481  0.5088
  292HK4    C1124479   1.174   2.149   2.673  0.1891  0.3986  0.3298
  292HK4     H424480   1.088   2.126   2.738  0.6130 -0.5548  0.5477
  292HK4    C1224481   1.177   2.091   2.547 -0.5070  0.8108  0.1166
  292HK4     H524482   1.094   2.028   2.511  0.5032 -0.1502 -0.5903
  292HK4    C1324483   1.297   2.086   2.477 -0.5540  0.6446  0.0465
  292HK4     H624484   1.301   2.015   2.393  0.8090  0.2939  0.3925
  292HK4     C724485   1.276   2.293   2.848 -0.0219 -0.1748  0.4205
  292HK4     O224486   1.191   2.262   2.931 -0.2383  0.2075  0.3465
  292HK4     C424487   1.376   2.398   2.878 -0.0087 -0.0565 -0.0474
  292HK4     C324488   1.357   2.483   2.986 -0.0253 -0.1878  0.0524
  292HK4     H324489   1.264   2.479   3.045 -0.8511  0.7690 -1.1701
  292HK4     C224490   1.464   2.561   3.029 -0.1617  0.1841 -0.2807
  292HK4     H224491   1.437   2.647   3.092  0.2429 -0.3146  0.5941
  292HK4     C124492   1.590   2.541   2.975 -0.1039  0.5214 -0.2690
  292HK4     H124493   1.681   2.586   3.019 -0.5311  0.1618  1.0203
  292HK4     C624494   1.615   2.445   2.875 -0.2174  0.3579 -0.1407
  292HK4     C524495   1.501   2.392   2.813 -0.0629  0.0546 -0.1645
  292HK4    C1024496   1.511   2.311   2.689 -0.1801 -0.2850  0.0465
  292HK4     O124497   1.586   2.352   2.601 -0.3176  0.2407  0.1683
  292HK4    C1624498   1.723   2.348   2.899  0.1486  0.8589  0.2589
  292HK4    C1524499   1.750   2.310   3.032 -0.0414 -0.5759 -0.1015
  292HK4     H724500   1.674   2.325   3.111  1.1703 -0.4129  1.0597
  292HK4    C2024501   1.865   2.240   3.069  0.1583  0.0473  0.4663
  292HK4     H924502   1.882   2.208   3.172  0.2492  0.6462  0.6424
  292HK4    C1924503   1.948   2.197   2.966 -0.2202 -0.4376  0.3612
  292HK4    C1824504   1.930   2.247   2.831  0.0720 -0.4751  0.3085
  292HK4    C1724505   1.814   2.315   2.799  0.1942 -0.1195  0.6152
  292HK4     H824506   1.811   2.375   2.708 -0.7096 -1.3004 -0.1466
  292HK4     N124507   2.039   2.208   2.750 -0.1532  0.2532 -0.3459
  292HK4    C2124508   2.119   2.121   2.826 -0.5840 -0.1578 -0.3583
  292HK4    C2224509   2.066   2.113   2.961 -0.2814 -0.4845 -0.2572
  292HK4    C2624510   2.104   2.022   3.059 -0.2399 -0.4258 -0.2204
  292HK4    H1324511   2.079   2.055   3.160  0.8259  0.6242 -0.2775
  292HK4    C2524512   2.205   1.932   3.025  0.4721  0.1919  0.2213
  292HK4    H1224513   2.225   1.845   3.087  1.0151 -1.6906 -2.4849
  292HK4    C2424514   2.263   1.939   2.898  0.1130  0.2410  0.0576
  292HK4    H1124515   2.348   1.873   2.877 -0.0845  0.3386 -1.0312
  292HK4    C2324516   2.218   2.027   2.800 -0.4036 -0.0723  0.0099
  292HK4    H1024517   2.281   2.045   2.713  0.3901  0.7159  0.7340
  292HK4    C3924518   2.042   2.224   2.611  0.3329 -0.2003 -0.3886
  292HK4    C4124519   2.168   2.229   2.548  0.6436 -0.5599  0.2035
  292HK4    H2124520   2.255   2.269   2.604 -0.1396  2.6839 -0.7997
  292HK4    C4224521   2.182   2.219   2.411 -0.2881 -0.4054  0.0972
  292HK4    H2224522   2.281   2.245   2.370 -0.4081  0.5487  0.4065
  292HK4    C4324523   2.071   2.195   2.330 -0.2964 -0.1068  0.0184
  292HK4    H2324524   2.089   2.142   2.236  1.3994 -2.0175  1.3791
  292HK4    C4424525   1.945   2.193   2.389  0.0722 -0.3509  0.8024
  292HK4    H2424526   1.854   2.195   2.328 -0.0733  1.7221  1.0280
  292HK4    C4524527   1.930   2.206   2.527 -0.5743  0.4295  0.6657
  292HK4    H2524528   1.829   2.197   2.569 -0.8908 -0.3548 -0.2171
  293HK4    H2824529  10.641   9.770  10.857  0.0421 -0.2441  0.0222
  293HK4    C4824530  10.549   9.805  10.904  0.0604 -0.5725  0.3031
  293HK4    C4724531  10.433   9.814  10.827  0.1508  0.1594  0.2464
  293HK4    H2724532  10.436   9.800  10.718 -1.1469 -1.9860  0.4456
  293HK4    C4624533  10.310   9.811  10.891  0.0032  0.8404 -0.0038
  293HK4    H2624534  10.216   9.835  10.839 -0.0107 -0.7777 -0.7801
  293HK4    C4024535  10.298   9.784  11.029  0.0823 -0.9435 -0.3287
  293HK4    C5024536  10.417   9.781  11.104 -0.3390  0.5120  0.4048
  293HK4    H3024537  10.417   9.788  11.214  0.5568  1.3514  0.3542
  293HK4    C4924538  10.541   9.790  11.042 -0.3451  0.9590  0.4532
  293HK4    H2924539  10.630   9.823  11.098 -0.2305  0.0229  0.8408
  293HK4     N224540  10.170   9.752  11.077 -0.0338  0.4259  0.2836
  293HK4    C3024541  10.134   9.770  11.213  0.9414 -0.2464  0.6379
  293HK4    C2924542  10.179   9.870   0.050  0.2336  0.8111 -0.2235
  293HK4    H1524543  10.216   9.959  11.248 -1.8829  0.6513 -2.1791
  293HK4    C2824544  10.140   9.872   0.183  0.0406 -0.0923 -0.2640
  293HK4    C2724545  10.051   9.771   0.228 -0.1551  0.5227  0.7558
  293HK4    H1424546  10.034   9.771   0.336 -1.3666  0.8020  0.5660
  293HK4    C3224547  10.008   9.666   0.148  0.6367  0.6058  0.2110
  293HK4    H1624548   9.951   9.579   0.180  1.0921 -0.2882 -1.3422
  293HK4    C3124549  10.050   9.663   0.015  0.9050 -0.3769  0.3124
  293HK4    C3424550  10.023   9.582  11.146  0.2868  0.2872 -0.0135
  293HK4    C3324551  10.095   9.641  11.035  0.4139  0.2180  0.0324
  293HK4    C3524552  10.074   9.582  10.911  0.3381 -0.0969  0.1934
  293HK4    H1724553  10.127   9.628  10.827 -0.1339 -0.4600 -0.3010
  293HK4    C3624554   9.996   9.469  10.891  0.3327 -0.0601 -0.0081
  293HK4    H1824555   9.996   9.413  10.797 -3.5110 -3.2182  1.7000
  293HK4    C3724556   9.920   9.426  10.999  0.0720  0.0943 -0.1266
  293HK4    H1924557   9.846   9.349  10.980 -1.6297  1.4196  0.8893
  293HK4    C3824558   9.933   9.478  11.128  0.5773  0.0630 -0.1663
  293HK4    H2024559   9.875   9.429  11.206  0.7590 -1.4455 -0.9382
  293HK4    C1424560  10.217   9.949   0.282 -0.3656 -0.4043  0.2994
  293HK4     C924561  10.253   9.914   0.413 -0.8411 -0.6035  0.3772
  293HK4     C824562  10.267  10.014   0.511 -0.2532 -0.3475  0.0296
  293HK4    C1124563  10.257  10.148   0.475 -0.2495 -0.2579  0.3423
  293HK4     H424564  10.257  10.231   0.546 -1.9315  1.0092 -1.1066
  293HK4    C1224565  10.226  10.189   0.345 -0.0034 -0.5963  0.1760
  293HK4     H524566  10.243  10.294   0.317 -0.0591  0.1577  2.8174
  293HK4    C1324567  10.209  10.086   0.253  0.1852 -0.4447 -0.0291
  293HK4     H624568  10.191  10.127   0.152 -0.5473 -0.1855  0.2082
  293HK4     C724569  10.309   9.983   0.649 -0.3500 -0.1691  0.0988
  293HK4     O224570  10.269  10.049   0.745 -0.7673 -0.1045 -0.1220
  293HK4     C424571  10.359   9.845   0.671  0.0022 -0.0146  0.2832
  293HK4     C324572  10.437   9.824   0.785 -0.0217 -0.1757  0.2700
  293HK4     H324573  10.484   9.909   0.838  1.6289 -2.1512  2.0673
  293HK4     C224574  10.456   9.693   0.827 -0.0996 -0.1009  0.5383
  293HK4     H224575  10.500   9.674   0.926  0.7476  2.5758  0.7230
  293HK4     C124576  10.406   9.590   0.748 -0.4461 -0.1840  0.8675
  293HK4     H124577  10.436   9.488   0.777 -0.5094 -1.0314 -1.9074
  293HK4     C624578  10.323   9.607   0.635 -0.3844 -0.3061  0.8029
  293HK4     C524579  10.315   9.739   0.590  0.1249 -0.3280  0.6276
  293HK4    C1024580  10.284   9.772   0.448  0.8715 -0.2142  0.4894
  293HK4     O124581  10.339   9.702   0.364  0.4676  0.3393 -0.2418
  293HK4    C1624582  10.222   9.504   0.609 -0.0523 -0.4070 -0.0959
  293HK4    C1524583  10.190   9.414   0.713 -0.1411 -0.5748 -0.2700
  293HK4     H724584  10.162   9.460   0.808 -1.7708 -1.3946 -0.3332
  293HK4    C2024585  10.159   9.279   0.701  0.2530 -0.7019  0.1193
  293HK4     H924586  10.153   9.222   0.794 -1.4803  0.6584  0.8558
  293HK4    C1924587  10.141   9.232   0.571  0.3914  0.3469 -0.2766
  293HK4    C1824588  10.165   9.320   0.458  0.0934  0.2859 -0.3858
  293HK4    C1724589  10.197   9.453   0.482  0.2124  0.2667 -0.4209
  293HK4     H824590  10.168   9.521   0.402  2.1011 -1.0590 -2.2654
  293HK4     N124591  10.145   9.263   0.331  0.1468 -0.1509 -0.2002
  293HK4    C2124592  10.111   9.130   0.364 -0.5740  0.1146  0.1480
  293HK4    C2224593  10.107   9.107   0.507 -0.0048  0.2160  0.1816
  293HK4    C2624594  10.061   8.988   0.561  0.3925  0.0982  0.2557
  293HK4    H1324595  10.037   8.989   0.667 -0.6238  0.0940  0.0307
  293HK4    C2524596  10.027   8.887   0.471  0.2631  0.1319  0.2650
  293HK4    H1224597   9.994   8.791   0.512  3.2263 -1.1212 -0.1353
  293HK4    C2424598  10.034   8.903   0.333 -0.0973 -0.3108  0.1928
  293HK4    H1124599  10.007   8.817   0.270  0.0483  0.5220 -1.0268
  293HK4    C2324600  10.075   9.025   0.280 -0.4965 -0.0934  0.3807
  293HK4    H1024601  10.129   9.023   0.185 -0.5227 -0.3564  0.3707
  293HK4    C3924602  10.207   9.303   0.212 -0.2764  0.5673 -0.1819
  293HK4    C4124603  10.129   9.285   0.095  0.0706 -0.2712 -0.2872
  293HK4    H2124604  10.019   9.286   0.100  0.0916 -1.1019  0.6109
  293HK4    C4224605  10.193   9.277  11.220 -0.0958  0.7444 -0.4417
  293HK4    H2224606  10.134   9.284  11.127 -0.5545  0.8523 -0.1440
  293HK4    C4324607  10.331   9.291  11.216 -0.0380  0.1713 -0.4538
  293HK4    H2324608  10.378   9.302  11.118  2.4552  0.2904  0.7241
  293HK4    C4424609  10.408   9.304   0.083 -0.0277  0.3320 -0.4818
  293HK4    H2424610  10.517   9.306   0.073 -0.3123 -0.5813 -4.7962
  293HK4    C4524611  10.347   9.312   0.208 -0.2000 -0.5902 -0.5007
  293HK4    H2524612  10.402   9.356   0.293 -2.3082 -0.9206  1.0524
  294HK4    H2824613   2.551   8.274   3.703 -1.7967 -0.9038  0.3427
  294HK4    C4824614   2.512   8.353   3.767 -0.2931  0.2352 -0.1340
  294HK4    C4724615   2.576   8.473   3.795 -0.0036  0.0014  0.2218
  294HK4    H2724616   2.647   8.506   3.718 -0.5854 -1.2117 -0.8454
  294HK4    C4624617   2.567   8.532   3.921 -0.2968 -0.3704  0.3720
  294HK4    H2624618   2.614   8.631   3.928 -3.6161  1.2287  0.6504
  294HK4    C4024619   2.481   8.480   4.020 -0.7852  0.0254  0.1588
  294HK4    C5024620   2.414   8.362   3.983  0.2739 -0.6240  0.2731
  294HK4    H3024621   2.358   8.307   4.060  0.3158  0.0760  0.8050
  294HK4    C4924622   2.423   8.299   3.859 -0.3505  0.2154 -0.2021
  294HK4    H2924623   2.365   8.207   3.848 -0.4205  0.4149 -1.5712
  294HK4     N224624   2.506   8.499   4.156 -0.3387 -0.2060  0.1132
  294HK4    C3024625   2.629   8.536   4.216 -0.2370  0.0703 -0.2679
  294HK4    C2924626   2.760   8.510   4.178 -0.1703 -0.1044  0.0831
  294HK4    H1524627   2.770   8.443   4.093  0.9700  1.5230 -1.0943
  294HK4    C2824628   2.867   8.558   4.251 -0.1784  0.5037 -0.3030
  294HK4    C2724629   2.838   8.636   4.365 -0.0629  0.0323  0.0551
  294HK4    H1424630   2.919   8.702   4.400  0.9820 -0.6008 -1.1348
  294HK4    C3224631   2.711   8.651   4.420  0.0335 -0.1665  0.3309
  294HK4    H1624632   2.691   8.714   4.506  1.5836  1.7168 -0.6313
  294HK4    C3124633   2.608   8.591   4.348  0.2669  0.0227 -0.1674
  294HK4    C3424634   2.464   8.597   4.368  0.3470 -0.2648  0.5060
  294HK4    C3324635   2.407   8.535   4.250  0.0047  0.7768  0.1126
  294HK4    C3524636   2.273   8.497   4.246  0.0680  0.5782 -0.1172
  294HK4    H1724637   2.231   8.471   4.149  2.3767 -0.5972 -0.8414
  294HK4    C3624638   2.200   8.521   4.361 -0.1458 -0.0940 -0.1133
  294HK4    H1824639   2.100   8.475   4.361 -1.0420  1.8175 -1.0583
  294HK4    C3724640   2.247   8.581   4.477 -0.1368 -0.3275  0.0077
  294HK4    H1924641   2.208   8.584   4.578  1.2128 -0.2390  0.5458
  294HK4    C3824642   2.380   8.623   4.476 -0.0776 -0.5106  0.2341
  294HK4    H2024643   2.421   8.661   4.569  0.8121  0.1742 -0.4335
  294HK4    C1424644   3.003   8.510   4.221 -0.5587 -0.7938  0.0330
  294HK4     C924645   3.107   8.510   4.315 -0.1146  0.7056 -0.4390
  294HK4     C824646   3.241   8.513   4.271  0.1228 -0.0086  0.2225
  294HK4    C1124647   3.269   8.497   4.136  0.2005 -0.0842  0.2484
  294HK4     H424648   3.373   8.509   4.102  0.1153  2.9609  0.8886
  294HK4    C1224649   3.168   8.499   4.041 -0.1823  0.4833  0.6650
  294HK4     H524650   3.196   8.476   3.937  2.6670  0.9292  1.2938
  294HK4    C1324651   3.036   8.502   4.085 -0.4078 -0.1493  0.0270
  294HK4     H624652   2.958   8.487   4.008  0.7846  0.2841 -1.2940
  294HK4     C724653   3.351   8.531   4.369  0.0527  0.5354  0.2011
  294HK4     O224654   3.467   8.538   4.328 -0.1099 -0.6326 -0.4702
  294HK4     C424655   3.316   8.562   4.510 -0.2430  0.1765  0.2062
  294HK4     C324656   3.411   8.607   4.600  0.2309  0.4593 -0.4256
  294HK4     H324657   3.512   8.636   4.567  1.4427 -1.1721  1.6452
  294HK4     C224658   3.383   8.628   4.734 -0.0098  0.4069 -0.4697
  294HK4     H224659   3.463   8.648   4.807 -0.1223 -0.3519 -0.1373
  294HK4     C124660   3.247   8.630   4.764  0.0798 -0.0680 -0.0245
  294HK4     H124661   3.213   8.667   4.862  0.2826  0.6503 -0.2261
  294HK4     C624662   3.141   8.589   4.680 -0.0257  0.0997  0.0291
  294HK4     C524663   3.183   8.547   4.554 -0.2745 -0.1079  0.0136
  294HK4    C1024664   3.079   8.495   4.461  0.1062 -0.0133 -0.4652
  294HK4     O124665   3.014   8.397   4.496  0.0981  0.1975  0.1077
  294HK4    C1624666   3.010   8.653   4.702 -0.0854 -0.1576  0.4325
  294HK4    C1524667   3.000   8.791   4.731  0.4062 -0.0092 -0.0841
  294HK4     H724668   3.093   8.846   4.712 -0.8265  2.6594  1.4163
  294HK4    C2024669   2.892   8.850   4.795  0.3934  0.0364 -0.1515
  294HK4     H924670   2.900   8.954   4.828  1.0786 -1.0391  3.3209
  294HK4    C1924671   2.789   8.767   4.838  0.3028  0.2170 -0.0250
  294HK4    C1824672   2.796   8.625   4.812  0.0407  0.1201  0.4210
  294HK4    C1724673   2.907   8.572   4.747 -0.4454 -0.0766 -0.2422
  294HK4     H824674   2.922   8.464   4.741  1.2570  0.1847 -0.9557
  294HK4     N124675   2.683   8.556   4.860 -0.2023  0.0029 -0.3191
  294HK4    C2124676   2.602   8.661   4.910  0.2418 -0.2108  0.8744
  294HK4    C2224677   2.665   8.791   4.909  0.0861 -0.1326 -0.2838
  294HK4    C2624678   2.598   8.904   4.956 -0.3600 -0.1877 -0.7817
  294HK4    H1324679   2.645   9.002   4.959 -0.1553 -0.3228  1.3636
  294HK4    C2524680   2.466   8.893   4.998  0.0811 -0.0378  0.6829
  294HK4    H1224681   2.418   8.982   5.038 -0.4596  0.4123 -0.9194
  294HK4    C2424682   2.404   8.769   5.002  0.0807 -0.0580  0.1349
  294HK4    H1124683   2.314   8.765   5.066 -0.2417  0.7323 -0.2733
  294HK4    C2324684   2.472   8.656   4.958 -0.0514 -0.1248  0.1006
  294HK4    H1024685   2.408   8.575   4.921 -0.0800 -0.0944  0.0884
  294HK4    C3924686   2.640   8.430   4.817  0.0579 -0.1539 -0.1250
  294HK4    C4124687   2.566   8.343   4.900  0.2488  0.2227  0.4415
  294HK4    H2124688   2.555   8.366   5.007 -0.4584  1.2938  0.1539
  294HK4    C4224689   2.490   8.235   4.858 -0.1027  0.4601  0.4619
  294HK4    H2224690   2.422   8.177   4.921 -0.4396  0.6451  0.2667
  294HK4    C4324691   2.496   8.207   4.722  0.5355 -0.1581  0.6152
  294HK4    H2324692   2.439   8.122   4.685  1.3726 -0.3302 -0.3381
  294HK4    C4424693   2.575   8.283   4.636  0.3219 -0.7411 -0.1051
  294HK4    H2424694   2.585   8.257   4.530  2.7593  4.5621 -1.3481
  294HK4    C4524695   2.646   8.394   4.681 -0.0903 -0.5028 -0.0390
  294HK4    H2524696   2.703   8.461   4.614 -1.8007  0.2761 -0.7545
  295HK4    H2824697   2.713   9.011   0.063  1.3532  1.3443 -0.5049
  295HK4    C4824698   2.730   9.070   0.153  0.1824  0.4401  0.3304
  295HK4    C4724699   2.808   9.022   0.258 -0.0812 -0.0369  0.3066
  295HK4    H2724700   2.857   8.923   0.256 -0.6918 -0.3196 -2.0726
  295HK4    C4624701   2.821   9.091   0.378 -0.1229  0.2294  0.1585
  295HK4    H2624702   2.875   9.028   0.450  0.3121  0.9284  0.4431
  295HK4    C4024703   2.750   9.210   0.399  0.3685  0.6444 -0.5305
  295HK4    C5024704   2.672   9.264   0.293  0.0873  0.3983 -0.4503
  295HK4    H3024705   2.628   9.364   0.287 -1.9674 -0.5237 -0.9743
  295HK4    C4924706   2.664   9.190   0.176 -0.4370  0.2185 -0.3007
  295HK4    H2924707   2.583   9.212   0.104  0.4360 -0.6605 -1.5764
  295HK4     N224708   2.739   9.268   0.526 -0.3563 -0.4148 -0.1036
  295HK4    C3024709   2.752   9.194   0.645  0.0452 -0.3446 -0.1031
  295HK4    C2924710   2.714   9.062   0.665  0.4598 -0.4296  0.1308
  295HK4    H1524711   2.664   9.004   0.588  2.0241 -1.6811  0.0343
  295HK4    C2824712   2.721   8.999   0.789 -0.1487 -0.6702  0.0419
  295HK4    C2724713   2.768   9.080   0.894  0.6523 -0.1732 -0.6922
  295HK4    H1424714   2.775   9.032   0.993 -0.2232 -0.5869 -0.8239
  295HK4    C3224715   2.794   9.216   0.885 -0.2912  0.0268 -0.4917
  295HK4    H1624716   2.838   9.271   0.968 -0.6227  2.0383 -1.6062
  295HK4    C3124717   2.788   9.276   0.759  0.4511  0.0485 -0.5147
  295HK4    C3424718   2.797   9.410   0.705 -0.5182  0.2702 -0.1291
  295HK4    C3324719   2.761   9.402   0.565 -0.5769 -0.3870 -0.0763
  295HK4    C3524720   2.760   9.515   0.484  0.1739 -0.6151 -0.4079
  295HK4    H1724721   2.755   9.512   0.375  2.3161  3.5629 -0.7035
  295HK4    C3624722   2.789   9.639   0.539 -0.7531 -0.1937 -0.8565
  295HK4    H1824723   2.752   9.730   0.489 -2.1846 -1.0643 -1.4198
  295HK4    C3724724   2.825   9.645   0.673 -1.1054 -0.0128 -0.7682
  295HK4    H1924725   2.873   9.736   0.708  0.3197 -1.8015  2.1673
  295HK4    C3824726   2.839   9.533   0.755 -0.2043  0.3089 -0.4803
  295HK4    H2024727   2.891   9.535   0.850 -1.4532 -1.0598  0.2545
  295HK4    C1424728   2.694   8.855   0.804 -0.4676 -0.6421 -0.2370
  295HK4     C924729   2.654   8.791   0.922  0.1998 -0.1699  0.2467
  295HK4     C824730   2.686   8.656   0.946  0.4116 -0.1824 -0.1103
  295HK4    C1124731   2.744   8.583   0.842 -0.5793 -0.7362 -0.2847
  295HK4     H424732   2.749   8.474   0.847  2.5590 -0.6626 -1.1289
  295HK4    C1224733   2.780   8.639   0.720  0.1539  0.0272  0.2756
  295HK4     H524734   2.821   8.575   0.641  1.2678  0.3414  0.5900
  295HK4    C1324735   2.755   8.775   0.706  0.7479  0.0965 -0.0888
  295HK4     H624736   2.774   8.816   0.605  1.1065 -1.8543 -0.8292
  295HK4     C724737   2.659   8.593   1.077 -0.0905 -0.0422 -0.1438
  295HK4     O224738   2.707   8.484   1.109 -0.3903 -0.0578  0.2488
  295HK4     C424739   2.586   8.670   1.180  0.0340 -0.1966  0.0607
  295HK4     C324740   2.551   8.609   1.300 -0.0338 -0.4695 -0.0951
  295HK4     H324741   2.599   8.519   1.340 -2.7128 -0.7462  2.6500
  295HK4     C224742   2.481   8.683   1.395  0.7719  0.1203  0.0452
  295HK4     H224743   2.443   8.626   1.481 -0.3434 -0.1749 -0.6428
  295HK4     C124744   2.463   8.820   1.382  0.4730  0.0549 -0.2330
  295HK4     H124745   2.418   8.876   1.465  0.9959  0.4064 -0.1907
  295HK4     C624746   2.502   8.884   1.262  0.0891  0.3868 -0.1812
  295HK4     C524747   2.553   8.805   1.159 -0.3424 -0.2794  0.1110
  295HK4    C1024748   2.569   8.862   1.022 -0.5148 -0.6132 -0.0481
  295HK4     O124749   2.476   8.930   0.979 -0.0673  0.0111 -0.0286
  295HK4    C1624750   2.540   9.025   1.281 -0.1037  0.3621  0.4081
  295HK4    C1524751   2.594   9.066   1.405  0.8117  0.2630  0.0496
  295HK4     H724752   2.665   9.002   1.459  0.2736 -1.5111 -1.3065
  295HK4    C2024753   2.596   9.202   1.436  0.1938  0.2075  0.3479
  295HK4     H924754   2.603   9.224   1.543 -0.9996 -1.7513  0.8627
  295HK4    C1924755   2.562   9.300   1.343 -0.2964  0.1491  0.4651
  295HK4    C1824756   2.518   9.263   1.211  0.1764  0.4234  0.2297
  295HK4    C1724757   2.502   9.126   1.194  0.1866  0.4074  0.3325
  295HK4     H824758   2.439   9.101   1.108  0.1672  0.4523  0.3335
  295HK4     N124759   2.525   9.369   1.118  0.4875  0.3957  0.2222
  295HK4    C2124760   2.594   9.472   1.185 -0.4372  0.8640  0.4610
  295HK4    C2224761   2.613   9.434   1.324  0.4506 -0.1893  0.0561
  295HK4    C2624762   2.663   9.525   1.417  0.2852 -0.2863  0.2411
  295HK4    H1324763   2.664   9.489   1.520  0.7756 -2.1116 -0.3761
  295HK4    C2524764   2.696   9.653   1.374 -0.1132 -0.2182  0.1393
  295HK4    H1224765   2.712   9.732   1.448  2.0347 -0.6855  0.2088
  295HK4    C2424766   2.684   9.688   1.240 -0.1853 -0.4566  0.0821
  295HK4    H1124767   2.729   9.783   1.208  0.9387 -2.1466 -3.5852
  295HK4    C2324768   2.634   9.600   1.146  0.6366  0.1243 -0.9061
  295HK4    H1024769   2.598   9.643   1.053  0.0761 -0.2003 -0.8433
  295HK4    C3924770   2.462   9.374   0.993 -0.0598  0.0526  0.4813
  295HK4    C4124771   2.521   9.446   0.887 -0.0930 -0.1765  0.3053
  295HK4    H2124772   2.626   9.475   0.900  0.2268 -0.8300 -0.8475
  295HK4    C4224773   2.461   9.448   0.762  0.2490 -0.0017  0.1438
  295HK4    H2224774   2.507   9.506   0.681 -0.4141 -0.4619 -0.5721
  295HK4    C4324775   2.342   9.379   0.741  0.0412  0.3428  0.1950
  295HK4    H2324776   2.292   9.386   0.645  0.5096 -2.0266 -0.2514
  295HK4    C4424777   2.285   9.298   0.839  0.2107  0.5429  0.4584
  295HK4    H2424778   2.207   9.225   0.815  1.2940 -0.6322  0.4189
  295HK4    C4524779   2.346   9.299   0.964  0.3492 -0.5562  0.4049
  295HK4    H2524780   2.293   9.249   1.047  1.5357 -0.8235  1.0095
  296HK4    H2824781   4.651  10.855   0.958  2.3317 -0.4356  1.2824
  296HK4    C4824782   4.680  10.950   0.913  0.5907 -0.6816 -0.4235
  296HK4    C4724783   4.607  11.016   0.815  0.1936 -0.3576  0.0859
  296HK4    H2724784   4.527  10.961   0.763 -1.2581  1.6600  0.1325
  296HK4    C4624785   4.634  11.145   0.772  0.5310 -0.6364 -0.5554
  296HK4    H2624786   4.570  11.197   0.699  1.3203  1.6708  0.3577
  296HK4    C4024787   4.752  11.205   0.820 -0.1948 -0.1168  0.5891
  296HK4    C5024788   4.834  11.143   0.916  0.3343 -0.0383  0.1930
  296HK4    H3024789   4.931  11.182   0.952  1.8892 -0.8423 -2.9336
  296HK4    C4924790   4.788  11.021   0.964 -0.3017  0.2203  0.2413
  296HK4    H2924791   4.851  10.962   1.034  0.0020  1.0635  0.6848
  296HK4     N224792   4.820   0.060   0.753 -0.2881 -0.2130  0.3455
  296HK4    C3024793   4.808   0.086   0.615 -0.4692  0.2586  0.4475
  296HK4    C2924794   4.770   0.009   0.506  0.2061  0.1199  0.3097
  296HK4    H1524795   4.723  11.162   0.533  1.2964 -0.9492 -1.4322
  296HK4    C2824796   4.779   0.039   0.370  0.4596 -0.2405  0.2465
  296HK4    C2724797   4.832   0.167   0.346  0.6531 -0.4573 -0.4766
  296HK4    H1424798   4.849   0.204   0.243  1.2380 -1.0073 -0.5798
  296HK4    C3224799   4.874   0.250   0.449 -0.3550 -0.5260 -0.0043
  296HK4    H1624800   4.932   0.339   0.423 -0.1839 -0.7865 -0.5358
  296HK4    C3124801   4.863   0.216   0.583  0.1425 -0.0745  0.1539
  296HK4    C3424802   4.916   0.268   0.707  0.0526 -0.0640  0.1875
  296HK4    C3324803   4.886   0.171   0.811 -0.5142  0.0387  0.1232
  296HK4    C3524804   4.898   0.203   0.945 -0.1148  0.5136 -0.0253
  296HK4    H1724805   4.856   0.141   1.024 -1.0077  0.5649 -0.4623
  296HK4    C3624806   4.961   0.324   0.975  0.3455  0.1676  0.4257
  296HK4    H1824807   4.980   0.361   1.077 -1.8775  1.0771  0.5464
  296HK4    C3724808   4.994   0.417   0.878  0.3545 -0.2894 -0.0125
  296HK4    H1924809   5.042   0.514   0.893 -2.2497  1.0127  0.0753
  296HK4    C3824810   4.967   0.392   0.744  0.4609 -0.1598 -0.0590
  296HK4    H2024811   4.975   0.474   0.674 -1.4282 -0.3297 -0.4826
  296HK4    C1424812   4.796  11.180   0.271  0.2087  0.0412 -0.1017
  296HK4     C924813   4.875  11.192   0.156  0.1805 -0.1622 -0.1428
  296HK4     C824814   4.832  11.143   0.031 -0.3357  0.0038 -0.0296
  296HK4    C1124815   4.720  11.062   0.020 -0.6050  0.3188  0.3545
  296HK4     H424816   4.676  11.034  11.171  0.9818 -1.7485  0.1930
  296HK4    C1224817   4.644  11.034   0.133 -0.1591 -0.2587  0.5106
  296HK4     H524818   4.548  10.980   0.129 -0.9610  1.2588 -1.5001
  296HK4    C1324819   4.686  11.094   0.251  0.2983 -0.1733  0.3026
  296HK4     H624820   4.620  11.070   0.336 -0.1774  0.1733  0.0338
  296HK4     C724821   4.901  11.182  11.154  0.1492 -0.4911  0.0834
  296HK4     O224822   4.858  11.155  11.041  0.4589  0.0023 -0.1542
  296HK4     C424823   5.028   0.010  11.160 -0.4310  0.4689  0.2095
  296HK4     C324824   5.091   0.037  11.039 -0.2003  0.3227  0.2983
  296HK4     H324825   5.042   0.019  10.942  0.0545  0.2284  0.1866
  296HK4     C224826   5.202   0.121  11.036 -0.2752  0.4254  0.3799
  296HK4     H224827   5.236   0.167  10.942  1.3674 -1.2259  0.1223
  296HK4     C124828   5.249   0.173  11.156  0.6915  0.1233  0.1356
  296HK4     H124829   5.335   0.241  11.167  1.0794 -0.6243  1.8503
  296HK4     C624830   5.183   0.143   0.028 -0.2009 -0.2104 -0.4373
  296HK4     C524831   5.077   0.052   0.037 -0.0967 -0.2614  0.3196
  296HK4    C1024832   5.008   0.011   0.163  0.0555  0.0219  0.4948
  296HK4     O124833   5.079  11.247   0.262  0.6891 -0.2688  0.0105
  296HK4    C1624834   5.247   0.217   0.138 -0.4495 -0.3949 -0.1679
  296HK4    C1524835   5.190   0.311   0.226 -0.2185 -0.5209  0.1191
  296HK4     H724836   5.087   0.347   0.207 -0.0203  0.7229  1.3618
  296HK4    C2024837   5.253   0.361   0.339  0.2403  0.1771 -0.4403
  296HK4     H924838   5.205   0.424   0.415  1.4592  1.6550 -0.8747
  296HK4    C1924839   5.383   0.324   0.370  0.4454  0.6643 -0.7084
  296HK4    C1824840   5.450   0.235   0.277  0.0483  0.2783 -0.6270
  296HK4    C1724841   5.376   0.179   0.174 -0.4667 -0.2648  0.0345
  296HK4     H824842   5.418   0.092   0.122 -1.1980 -0.5910 -0.0264
  296HK4     N124843   5.588   0.230   0.306 -0.0825  0.0278 -0.0339
  296HK4    C2124844   5.614   0.321   0.410 -0.1396 -0.1204  0.1103
  296HK4    C2224845   5.486   0.366   0.463 -0.0994 -0.2691  0.3330
  296HK4    C2624846   5.483   0.446   0.576  0.0099 -0.3121  0.3668
  296HK4    H1324847   5.392   0.447   0.636 -0.4148  1.1962 -0.2609
  296HK4    C2524848   5.601   0.496   0.631  0.1475  0.2300 -0.4074
  296HK4    H1224849   5.601   0.579   0.701 -2.0990  0.8809 -1.1176
  296HK4    C2424850   5.722   0.453   0.579  0.4585 -0.1488  0.6304
  296HK4    H1124851   5.813   0.472   0.639 -0.5616 -0.3210  2.2463
  296HK4    C2324852   5.731   0.367   0.470 -0.3421  0.6663 -0.0827
  296HK4    H1024853   5.824   0.344   0.419 -0.6131 -0.4199 -0.1032
  296HK4    C3924854   5.654   0.108   0.289  0.1044  0.1369 -0.0846
  296HK4    C4124855   5.792   0.104   0.260  0.1011 -0.5196 -0.0280
  296HK4    H2124856   5.843   0.200   0.243 -2.1320  0.6670 -0.2226
  296HK4    C4224857   5.868  11.238   0.283  1.0031  0.0331 -0.2018
  296HK4    H2224858   5.976  11.244   0.267  1.8001 -1.8368  3.8129
  296HK4    C4324859   5.800  11.126   0.330  0.3061  0.5534  0.0479
  296HK4    H2324860   5.860  11.036   0.348 -2.6928 -1.2895  1.3563
  296HK4    C4424861   5.663  11.122   0.354  0.4333  0.2846  0.7559
  296HK4    H2424862   5.620  11.044   0.417 -1.6863  0.5337 -0.3633
  296HK4    C4524863   5.591  11.240   0.339  0.3461  0.1723  0.3074
  296HK4    H2524864   5.485  11.236   0.369  0.6868  0.1447  1.5279
  297HK4    H2824865   7.707   0.207   3.790  0.4929  1.1978 -0.8559
  297HK4    C4824866   7.622   0.252   3.738 -0.3558  0.5213 -0.0504
  297HK4    C4724867   7.511   0.269   3.820  0.0019  0.0119  0.5454
  297HK4    H2724868   7.526   0.280   3.929 -1.2485  1.7511  0.5619
  297HK4    C4624869   7.397   0.315   3.756  0.2545  0.0833  0.1509
  297HK4    H2624870   7.313   0.345   3.821  1.1132  0.8423  0.9177
  297HK4    C4024871   7.388   0.359   3.622  0.1090  0.6488  0.3459
  297HK4    C5024872   7.505   0.339   3.546  0.0017  0.0974  0.3208
  297HK4    H3024873   7.506   0.349   3.436  2.7712 -1.2703  0.1811
  297HK4    C4924874   7.619   0.284   3.603  0.2929  0.2184 -0.1376
  297HK4    H2924875   7.715   0.278   3.549  1.6367  1.1686  2.0819
  297HK4     N224876   7.271   0.382   3.549  0.4105  0.3524 -0.2359
  297HK4    C3024877   7.147   0.322   3.578  0.4964  0.2026 -0.1773
  297HK4    C2924878   7.127   0.199   3.638  0.2249  0.1577 -0.3563
  297HK4    H1524879   7.212   0.138   3.669  0.3714  1.9098  2.9433
  297HK4    C2824880   6.996   0.153   3.652  0.2994 -0.1517 -0.6660
  297HK4    C2724881   6.888   0.235   3.612  0.4533  0.0411 -0.6933
  297HK4    H1424882   6.786   0.206   3.644  0.9535 -1.8791 -0.7276
  297HK4    C3224883   6.906   0.359   3.553  0.1039  0.3336 -0.1928
  297HK4    H1624884   6.822   0.416   3.512 -0.2222  0.3349  0.4733
  297HK4    C3124885   7.036   0.402   3.529  0.2688 -0.4163 -0.6714
  297HK4    C3424886   7.096   0.514   3.459 -0.1280  0.4286  0.3320
  297HK4    C3324887   7.239   0.496   3.472 -0.1020  0.2730 -0.1408
  297HK4    C3524888   7.318   0.594   3.415  0.1869 -0.0924 -0.3685
  297HK4    H1724889   7.425   0.592   3.437 -0.4579 -1.7091  2.8271
  297HK4    C3624890   7.266   0.705   3.349  0.3782 -0.1737 -0.6575
  297HK4    H1824891   7.329   0.788   3.314 -0.2095  0.8826  0.7307
  297HK4    C3724892   7.129   0.714   3.330  0.2830 -0.0748  0.0583
  297HK4    H1924893   7.081   0.795   3.276 -0.9061 -1.3249 -0.7931
  297HK4    C3824894   7.044   0.614   3.377 -0.1481  0.4096  0.3213
  297HK4    H2024895   6.940   0.614   3.346  0.0333  1.5156 -0.3011
  297HK4    C1424896   6.981   0.008   3.669  0.0742 -0.0819 -0.2611
  297HK4     C924897   6.880  11.177   3.614 -0.2800  0.1277  0.0906
  297HK4     C824898   6.841  11.054   3.672 -0.1450 -0.1288 -0.3585
  297HK4    C1124899   6.917  11.006   3.778 -0.4759  0.1489  0.0052
  297HK4     H424900   6.909  10.900   3.806  3.2685 -0.1995 -0.0591
  297HK4    C1224901   7.015  11.086   3.835 -0.2169 -0.0149 -0.2137
  297HK4     H524902   7.071  11.049   3.922 -0.5477 -1.8960 -0.7854
  297HK4    C1324903   7.056  11.205   3.777 -0.3148  0.1962  0.1401
  297HK4     H624904   7.144   0.011   3.814  1.3711 -3.1558  1.1279
  297HK4     C724905   6.714  10.986   3.638 -0.1996 -0.4266  0.4442
  297HK4     O224906   6.702  10.867   3.666 -0.1894 -0.5059  0.1194
  297HK4     C424907   6.620  11.059   3.551 -0.0950 -0.0797  0.6276
  297HK4     C324908   6.491  11.009   3.534 -0.1175  0.1453  0.1098
  297HK4     H324909   6.463  10.911   3.575  0.7806  0.1730  0.8335
  297HK4     C224910   6.404  11.075   3.448 -0.3156  0.2168  0.3660
  297HK4     H224911   6.302  11.037   3.446  0.5324 -2.0830 -2.8448
  297HK4     C124912   6.438  11.199   3.395  0.2349  0.0464  0.3189
  297HK4     H124913   6.370   0.001   3.325 -1.2057 -1.0612  0.9133
  297HK4     C624914   6.567   0.005   3.413  0.2891 -0.0508  0.2324
  297HK4     C524915   6.661  11.175   3.482  0.0315 -0.3450  0.2532
  297HK4    C1024916   6.798  11.230   3.501  0.0008 -0.1036 -0.2225
  297HK4     O124917   6.858   0.015   3.398 -0.1112 -0.2236 -0.3253
  297HK4    C1624918   6.577   0.151   3.398  0.5003 -0.0278  0.5857
  297HK4    C1524919   6.470   0.234   3.439  0.1957  0.0967 -0.4412
  297HK4     H724920   6.381   0.191   3.487 -0.4554  2.3261  0.4030
  297HK4    C2024921   6.461   0.369   3.407 -0.1658  0.1442 -0.1427
  297HK4     H924922   6.383   0.433   3.447 -1.4539 -1.0287 -0.7484
  297HK4    C1924923   6.559   0.423   3.324 -0.5180 -0.2522 -0.8249
  297HK4    C1824924   6.666   0.337   3.276 -0.3380 -0.0835 -0.7251
  297HK4    C1724925   6.670   0.202   3.308 -0.1313  0.0893 -0.0080
  297HK4     H824926   6.718   0.132   3.240  0.2547  0.8250 -0.5068
  297HK4     N124927   6.741   0.409   3.180 -0.8039 -0.1510 -1.1417
  297HK4    C2124928   6.698   0.543   3.185  0.2373  0.1464  0.3956
  297HK4    C2224929   6.581   0.555   3.270  0.3979  0.1994  0.6099
  297HK4    C2624930   6.531   0.681   3.302 -0.4307  0.1922 -0.6097
  297HK4    H1324931   6.437   0.690   3.355 -0.4110 -0.1138 -0.5211
  297HK4    C2524932   6.600   0.796   3.264  0.5784 -0.2246 -0.0548
  297HK4    H1224933   6.591   0.885   3.325 -1.5196 -1.4485  1.4894
  297HK4    C2424934   6.708   0.777   3.178  0.0479 -0.5409 -0.6604
  297HK4    H1124935   6.768   0.867   3.156  0.1536 -0.6556 -0.8382
  297HK4    C2324936   6.763   0.656   3.137  0.1877 -0.3823 -0.9405
  297HK4    H1024937   6.868   0.651   3.109  0.3350 -0.6790 -0.3293
  297HK4    C3924938   6.857   0.355   3.123 -0.0157  0.1284  0.1800
  297HK4    C4124939   6.901   0.413   3.002  0.0956 -0.3346 -0.0026
  297HK4    H2124940   6.828   0.440   2.925 -0.4506  1.1678  1.0107
  297HK4    C4224941   7.034   0.436   2.968  0.1594  0.1451  0.5620
  297HK4    H2224942   7.059   0.485   2.873 -1.9285  0.1445 -0.0099
  297HK4    C4324943   7.132   0.399   3.060  0.4340 -0.8628 -0.1247
  297HK4    H2324944   7.236   0.407   3.030  0.1192  0.7207 -0.8666
  297HK4    C4424945   7.098   0.336   3.179  0.1409 -0.7438 -0.1463
  297HK4    H2424946   7.176   0.313   3.253  0.0017  1.6871  0.8219
  297HK4    C4524947   6.963   0.310   3.204  0.0479 -0.2418 -0.1090
  297HK4    H2524948   6.935   0.240   3.285 -0.8083 -2.2431 -2.0943
  298HK4    H2824949   7.658   0.498   2.012 -0.6958 -2.5340 -1.9885
  298HK4    C4824950   7.649   0.441   2.104  0.0827 -0.1795 -0.4174
  298HK4    C4724951   7.738   0.337   2.127  0.2992  0.0324 -0.2950
  298HK4    H2724952   7.831   0.323   2.068  0.8137  2.1793 -0.0394
  298HK4    C4624953   7.700   0.237   2.215 -0.1958  0.7355  0.2841
  298HK4    H2624954   7.780   0.173   2.254  0.6748  0.3408 -2.0831
  298HK4    C4024955   7.572   0.236   2.276 -0.3382  0.6655 -0.0130
  298HK4    C5024956   7.484   0.344   2.252 -0.3693  0.7325  0.4085
  298HK4    H3024957   7.387   0.346   2.303 -1.6353  0.0767 -1.8905
  298HK4    C4924958   7.525   0.445   2.166  0.4281  0.2828  0.2488
  298HK4    H2924959   7.448   0.512   2.125  1.1874 -0.3062 -2.1691
  298HK4     N224960   7.545   0.151   2.384  0.4877 -0.1052 -0.4106
  298HK4    C3024961   7.421   0.093   2.417  0.7123 -0.5642 -0.3589
  298HK4    C2924962   7.304   0.100   2.343  0.3494 -0.0533  0.2564
  298HK4    H1524963   7.305   0.161   2.253 -0.2473 -3.6337 -2.3201
  298HK4    C2824964   7.184   0.043   2.387  0.2126  0.2652  0.2968
  298HK4    C2724965   7.192  11.211   2.502  0.4073 -0.2959 -0.1062
  298HK4    H1424966   7.111  11.139   2.524 -0.8688 -0.3108 -4.4307
  298HK4    C3224967   7.306  11.201   2.581  0.1604 -0.0643  0.2859
  298HK4    H1624968   7.306  11.151   2.678  1.9648  1.4008  1.0682
  298HK4    C3124969   7.420   0.024   2.544  0.1746 -0.3631 -0.2544
  298HK4    C3424970   7.554   0.048   2.593 -0.1202 -0.1134  0.4541
  298HK4    C3324971   7.623   0.136   2.500 -0.5335  0.0435  0.2946
  298HK4    C3524972   7.747   0.183   2.544 -0.4454 -0.0597  0.1590
  298HK4    H1724973   7.796   0.263   2.490  0.8140 -0.1629  1.1190
  298HK4    C3624974   7.800   0.153   2.669 -0.0291  1.0460  0.2515
  298HK4    H1824975   7.902   0.180   2.699 -0.1810  0.5602  1.2232
  298HK4    C3724976   7.726   0.080   2.762  0.7657 -0.6346 -0.4190
  298HK4    H1924977   7.755   0.074   2.867  0.7406 -0.5371 -0.4074
  298HK4    C3824978   7.605   0.026   2.720  0.6091 -0.6674  0.0726
  298HK4    H2024979   7.571  11.196   2.788  2.8057 -0.9575  0.8872
  298HK4    C1424980   7.069   0.125   2.346  0.0083 -0.1709  0.0049
  298HK4     C924981   6.961   0.174   2.420 -0.0295 -0.0092 -0.1580
  298HK4     C824982   6.846   0.229   2.360  0.1917  0.9803  0.3191
  298HK4    C1124983   6.837   0.220   2.222 -0.1408 -0.2470  0.4189
  298HK4     H424984   6.748   0.257   2.169  0.1119  0.3134  0.3834
  298HK4    C1224985   6.944   0.175   2.145 -0.0370  0.2891  0.2501
  298HK4     H524986   6.947   0.203   2.038 -1.1222 -1.6431 -0.3163
  298HK4    C1324987   7.060   0.129   2.205  0.0512  0.2017  0.0122
  298HK4     H624988   7.141   0.113   2.132 -0.7904  1.1622 -1.1395
  298HK4     C724989   6.730   0.278   2.438 -0.1682  0.2913  0.2146
  298HK4     O224990   6.631   0.324   2.381  0.3481  0.1703 -0.7901
  298HK4     C424991   6.731   0.253   2.584  0.4606  0.3039  0.2130
  298HK4     C324992   6.636   0.306   2.672 -0.0298 -0.5493  0.2086
  298HK4     H324993   6.552   0.366   2.634  0.0943 -1.2276 -1.1879
  298HK4     C224994   6.629   0.270   2.806  0.3526  0.0518  0.3947
  298HK4     H224995   6.573   0.334   2.876 -0.5094  1.4891 -1.5574
  298HK4     C124996   6.715   0.175   2.860  0.3622  0.1801  0.5988
  298HK4     H124997   6.710   0.153   2.968 -0.1776  0.1041  0.5601
  298HK4     C624998   6.808   0.117   2.772 -0.3872 -0.0867 -0.0213
  298HK4     C524999   6.826   0.166   2.642  0.2085 -0.0733  0.0638
  298HK4    C1025000   6.954   0.154   2.567 -0.0328 -0.7057 -0.2522
  298HK4     O125001   7.058   0.187   2.624 -0.6023  0.6426  0.0354
  298HK4    C1625002   6.892   0.013   2.833  0.0280  0.3155  0.0985
  298HK4    C1525003   6.900  11.141   2.758 -0.4880  0.1034  0.3834
  298HK4     H725004   6.897  11.151   2.649  0.1675  2.5187  0.5538
  298HK4    C2025005   6.953  11.028   2.818  0.2263  0.3262  0.1696
  298HK4     H925006   6.928  10.930   2.777  1.5299 -0.4885  1.2505
  298HK4    C1925007   7.017  11.037   2.941  0.2519  0.2488  0.1623
  298HK4    C1825008   7.038  11.166   3.003  0.4037  0.3807 -0.1683
  298HK4    C1725009   6.967   0.024   2.949 -0.3954  0.1303  0.3905
  298HK4     H825010   6.989   0.126   2.983  1.6767 -0.7515  1.7845
  298HK4     N125011   7.119  11.162   3.119 -0.1702 -0.3714  0.2069
  298HK4    C2125012   7.143  11.024   3.133  0.2221 -0.3043  0.2075
  298HK4    C2225013   7.088  10.943   3.026 -0.9943 -0.1814  0.7331
  298HK4    C2625014   7.125  10.809   3.020 -0.0276  0.1228 -0.1676
  298HK4    H1325015   7.075  10.740   2.952 -1.3905 -1.7653  2.6717
  298HK4    C2525016   7.209  10.749   3.113 -0.5998 -0.3829  0.0235
  298HK4    H1225017   7.250  10.649   3.099 -1.0750 -0.6142  0.2462
  298HK4    C2425018   7.253  10.828   3.218 -0.1244 -0.0586 -0.4199
  298HK4    H1125019   7.313  10.779   3.296  1.7939  2.5522 -0.1904
  298HK4    C2325020   7.223  10.963   3.229  0.4333  0.0124  0.2315
  298HK4    H1025021   7.217  10.999   3.332  1.2593  1.4435 -0.2011
  298HK4    C3925022   7.216   0.010   3.150 -0.1978 -0.2494 -0.0880
  298HK4    C4125023   7.255   0.021   3.285 -0.0623  0.2580 -0.1677
  298HK4    H2125024   7.185  11.247   3.367 -0.5524  1.2078 -0.3182
  298HK4    C4225025   7.388   0.045   3.316 -0.0459  0.0242 -0.0661
  298HK4    H2225026   7.421   0.056   3.420  1.4636  2.5455 -0.7832
  298HK4    C4325027   7.485   0.055   3.217 -0.3713 -0.5709 -0.4499
  298HK4    H2325028   7.590   0.062   3.245 -0.1555 -0.4133 -1.2948
  298HK4    C4425029   7.449   0.050   3.083 -0.2124 -0.2270 -0.5085
  298HK4    H2425030   7.525   0.037   3.005  1.5213 -0.8455  1.2615
  298HK4    C4525031   7.315   0.029   3.051 -0.4143  0.5231 -0.1547
  298HK4    H2525032   7.282   0.044   2.947  0.1760  0.2079 -0.3857
  299HK4    H2825033   7.160   2.156   1.010  0.5407  0.6162  1.1536
  299HK4    C4825034   7.202   2.180   0.913 -0.4004  0.0240  0.5888
  299HK4    C4725035   7.271   2.300   0.908 -0.0951 -0.1728 -0.0071
  299HK4    H2725036   7.293   2.352   1.003  0.3064  1.5213 -1.0090
  299HK4    C4625037   7.317   2.342   0.784  0.1921 -0.3985  0.0219
  299HK4    H2625038   7.383   2.430   0.784  3.3001 -2.6333 -1.8539
  299HK4    C4025039   7.308   2.270   0.663  0.0951 -0.3597  0.0066
  299HK4    C5025040   7.228   2.154   0.674 -0.2578 -0.1587 -0.3843
  299HK4    H3025041   7.192   2.099   0.587  3.2286 -2.2766 -0.5840
  299HK4    C4925042   7.177   2.110   0.796  0.4136  0.4825  0.1375
  299HK4    H2925043   7.107   2.025   0.796  1.0532 -0.1116 -2.5320
  299HK4     N225044   7.340   2.322   0.537 -0.4183 -0.1132 -0.0249
  299HK4    C3025045   7.363   2.455   0.494 -0.4510 -0.0869  0.0398
  299HK4    C2925046   7.308   2.575   0.537 -0.4462 -0.0027 -0.1880
  299HK4    H1525047   7.252   2.581   0.631 -1.3095  0.5901 -0.7311
  299HK4    C2825048   7.336   2.692   0.467 -0.5347 -0.3112 -0.7397
  299HK4    C2725049   7.421   2.685   0.356  1.1851  0.3422  0.5154
  299HK4    H1425050   7.463   2.782   0.326  3.9956 -0.7717  0.6204
  299HK4    C3225051   7.479   2.567   0.308  0.0811 -0.0369  0.0931
  299HK4    H1625052   7.551   2.577   0.227 -1.8157  1.7981 -1.4154
  299HK4    C3125053   7.449   2.450   0.378 -0.2943  0.0923  0.1498
  299HK4    C3425054   7.492   2.314   0.355  0.4595  0.2525  0.5791
  299HK4    C3325055   7.413   2.238   0.450 -0.4797  0.1137 -0.3007
  299HK4    C3525056   7.434   2.101   0.451 -0.3324  0.1374 -0.1862
  299HK4    H1725057   7.401   2.021   0.517  0.0641 -0.2441 -0.4448
  299HK4    C3625058   7.519   2.042   0.357 -0.3479 -0.2192  0.0216
  299HK4    H1825059   7.547   1.936   0.368 -3.0191 -1.1323 -1.4054
  299HK4    C3725060   7.583   2.122   0.263 -0.5322  0.2504  0.2928
  299HK4    H1925061   7.631   2.060   0.187  0.8353  1.3830  0.2170
  299HK4    C3825062   7.574   2.260   0.257  0.8089  0.3656  0.8094
  299HK4    H2025063   7.630   2.322   0.186 -0.9150  1.2656  0.2088
  299HK4    C1425064   7.258   2.812   0.501  0.2729  0.1028 -0.3517
  299HK4     C925065   7.225   2.906   0.403  0.3545  0.3321 -0.1602
  299HK4     C825066   7.232   3.044   0.431 -0.4106  0.3348  0.0203
  299HK4    C1125067   7.251   3.083   0.563 -0.2154 -0.0982  0.1219
  299HK4     H425068   7.269   3.187   0.596 -0.2640 -0.2682  0.6835
  299HK4    C1225069   7.264   2.994   0.668  0.4862 -0.1459 -0.0027
  299HK4     H525070   7.234   3.028   0.769  1.9184 -2.8260  1.3947
  299HK4    C1325071   7.268   2.859   0.634  0.0310 -0.0939 -0.2643
  299HK4     H625072   7.265   2.784   0.715  0.5825 -0.7993 -0.8888
  299HK4     C725073   7.234   3.142   0.320  0.0120 -0.0392 -0.3034
  299HK4     O225074   7.212   3.262   0.335 -0.3539 -0.1310 -0.1052
  299HK4     C425075   7.245   3.086   0.183 -0.1128  0.1729 -0.4002
  299HK4     C325076   7.279   3.170   0.078 -0.0815  0.4620 -0.1605
  299HK4     H325077   7.281   3.279   0.091 -1.5633  0.4163  0.5821
  299HK4     C225078   7.262   3.128  11.194  0.3573  0.0545 -0.0882
  299HK4     H225079   7.284   3.198  11.113  0.8796 -0.0173 -0.0041
  299HK4     C125080   7.250   2.991  11.174 -0.0024  0.1193 -0.3218
  299HK4     H125081   7.278   2.951  11.075 -1.6986  0.1793 -0.8501
  299HK4     C625082   7.228   2.893   0.025 -0.2457  0.2485 -0.2480
  299HK4     C525083   7.212   2.953   0.150 -0.0636  0.1001 -0.1526
  299HK4    C1025084   7.174   2.869   0.268  0.2021  0.1272 -0.0477
  299HK4     O125085   7.062   2.820   0.271  0.2939 -0.0898 -0.1816
  299HK4    C1625086   7.292   2.764  11.245  0.1602  0.4699 -0.3433
  299HK4    C1525087   7.384   2.748  11.139  0.5993  0.3120  0.0613
  299HK4     H725088   7.442   2.835  11.105  2.4545 -0.9113 -0.0151
  299HK4    C2025089   7.423   2.621  11.098 -0.1804 -0.0199  0.3399
  299HK4     H925090   7.487   2.599  11.013 -0.2264 -0.5980  0.4503
  299HK4    C1925091   7.365   2.509  11.157 -0.1485 -0.1700  0.0874
  299HK4    C1825092   7.266   2.521   0.015  0.3084  0.5156  0.4428
  299HK4    C1725093   7.229   2.651   0.048  0.3759  0.5972  0.1970
  299HK4     H825094   7.172   2.657   0.141 -0.4542  1.7847 -0.3983
  299HK4     N125095   7.242   2.391   0.065  0.4713  0.5082  0.5034
  299HK4    C2125096   7.328   2.298   0.004  0.1971  0.2708  0.4763
  299HK4    C2225097   7.403   2.370  11.150  0.0853 -0.1082  0.1232
  299HK4    C2625098   7.498   2.303  11.074  0.0330  0.0730 -0.0984
  299HK4    H1325099   7.561   2.356  11.002 -0.0813  2.3928  1.4307
  299HK4    C2525100   7.519   2.168  11.096  0.0582  0.1460  0.3295
  299HK4    H1225101   7.596   2.114  11.040 -0.2274 -1.2231  1.2318
  299HK4    C2425102   7.450   2.101  11.197 -0.0587  0.1005  0.2195
  299HK4    H1125103   7.463   1.992  11.198  0.0002  0.0134 -3.1980
  299HK4    C2325104   7.354   2.163   0.028 -0.1590  0.1286  0.0720
  299HK4    H1025105   7.277   2.099   0.071 -0.7679  1.0139  0.3090
  299HK4    C3925106   7.149   2.371   0.167  0.0117  0.1177  0.0131
  299HK4    C4125107   7.156   2.256   0.249 -0.0377  0.7312  0.8924
  299HK4    H2125108   7.254   2.215   0.279 -0.6101  0.7518  2.8656
  299HK4    C4225109   7.044   2.196   0.305 -0.3618 -0.1717 -0.6804
  299HK4    H2225110   7.061   2.093   0.340  2.3221  0.0594 -1.2335
  299HK4    C4325111   6.921   2.260   0.299 -0.1704  0.2182 -0.4482
  299HK4    H2325112   6.827   2.216   0.334 -0.4155  0.3029 -0.9922
  299HK4    C4425113   6.911   2.379   0.227  0.2650  0.4055 -0.1981
  299HK4    H2425114   6.817   2.436   0.226  1.2005  1.9491 -0.2875
  299HK4    C4525115   7.020   2.428   0.158 -0.0348 -0.1576 -1.0766
  299HK4    H2525116   6.999   2.519   0.100 -2.3831  0.4990  0.7573
  300HK4    H2825117   6.912   6.410   9.334  1.4692  1.0893  1.4917
  300HK4    C4825118   6.929   6.495   9.269  0.1598  0.1596 -0.1194
  300HK4    C4725119   6.911   6.482   9.131 -0.5134  0.2064 -0.0373
  300HK4    H2725120   6.901   6.383   9.085  0.0922  0.2468 -0.2623
  300HK4    C4625121   6.914   6.595   9.050 -0.2621  0.5261  0.4112
  300HK4    H2625122   6.893   6.584   8.943 -0.6749  1.7544  0.3636
  300HK4    C4025123   6.950   6.723   9.097  0.5030  0.3515  0.3165
  300HK4    C5025124   6.967   6.734   9.237  0.4797 -0.3908  0.3788
  300HK4    H3025125   7.018   6.822   9.278 -0.0806 -0.4881  1.3163
  300HK4    C4925126   6.961   6.621   9.318 -0.3003 -0.0727  0.7695
  300HK4    H2925127   7.013   6.631   9.415  0.3390 -0.4838  0.4705
  300HK4     N225128   7.042   6.801   9.027  0.0364  0.4151 -0.2293
  300HK4    C3025129   7.141   6.753   8.939 -0.1289 -0.0690 -0.1537
  300HK4    C2925130   7.203   6.628   8.940  0.1099  0.0458 -0.2630
  300HK4    H1525131   7.162   6.543   8.994  2.5432 -0.6919  0.4869
  300HK4    C2825132   7.321   6.612   8.868  0.0379  0.1061 -0.3963
  300HK4    C2725133   7.370   6.720   8.793  0.0555  0.2865 -0.1243
  300HK4    H1425134   7.453   6.697   8.723 -0.1365  0.6535 -0.4769
  300HK4    C3225135   7.307   6.843   8.782  0.1996  0.3444 -0.3087
  300HK4    H1625136   7.342   6.916   8.709  0.7133 -1.4655 -1.9161
  300HK4    C3125137   7.191   6.862   8.858  0.5555 -0.0246  0.3273
  300HK4    C3425138   7.120   6.982   8.898  0.1968 -0.1094 -0.0539
  300HK4    C3325139   7.031   6.940   9.005  0.0570  0.4601  0.0579
  300HK4    C3525140   6.929   7.028   9.039  0.0141  0.2602  0.4438
  300HK4    H1725141   6.850   7.005   9.110 -1.5029 -0.2585 -1.3775
  300HK4    C3625142   6.918   7.157   8.989 -0.3807  0.0149 -0.0931
  300HK4    H1825143   6.822   7.209   9.004  0.5094  1.6055  0.2022
  300HK4    C3725144   7.012   7.199   8.895  0.1581 -0.8518  0.0533
  300HK4    H1925145   7.016   7.302   8.860 -0.9729 -1.6014 -2.4311
  300HK4    C3825146   7.108   7.110   8.847  0.3305 -0.3148 -0.6000
  300HK4    H2025147   7.171   7.147   8.766  2.2284  0.7691  1.3329
  300HK4    C1425148   7.408   6.498   8.901 -0.1858  0.0946  0.1585
  300HK4     C925149   7.547   6.511   8.900 -0.1714 -0.0259  0.4190
  300HK4     C825150   7.630   6.399   8.879 -0.1474  0.1636 -0.5305
  300HK4    C1125151   7.571   6.274   8.869 -0.1803  0.2354 -1.2245
  300HK4     H425152   7.633   6.186   8.847 -0.4548 -0.1160 -0.6179
  300HK4    C1225153   7.433   6.257   8.876 -0.0965 -0.0358 -0.1013
  300HK4     H525154   7.388   6.158   8.856  2.9026 -1.5742  0.5008
  300HK4    C1325155   7.353   6.370   8.884  0.0148  0.0417 -0.0881
  300HK4     H625156   7.247   6.355   8.910 -0.5605  2.6668 -0.7638
  300HK4     C725157   7.772   6.413   8.840  0.1034 -0.3287  0.1800
  300HK4     O225158   7.852   6.320   8.842  0.2842 -0.1878 -0.2495
  300HK4     C425159   7.828   6.548   8.816 -0.0429 -0.2177  0.4563
  300HK4     C325160   7.953   6.562   8.756  0.0610  0.1990  0.7662
  300HK4     H325161   8.020   6.475   8.747 -1.3959 -0.9656  0.9237
  300HK4     C225162   7.999   6.687   8.716  0.2797  0.0896  0.6765
  300HK4     H225163   8.091   6.686   8.655  0.4124 -2.4745  0.8629
  300HK4     C125164   7.920   6.799   8.737  0.0714  0.0241  0.2517
  300HK4     H125165   7.939   6.890   8.677 -2.1470  1.0394  1.0606
  300HK4     C625166   7.797   6.787   8.804  0.0583 -0.1274  0.1966
  300HK4     C525167   7.753   6.662   8.851 -0.0012 -0.1080  0.1916
  300HK4    C1025168   7.617   6.643   8.909 -0.1409 -0.0068 -0.0992
  300HK4     O125169   7.588   6.706   9.010 -0.1408 -0.5354  0.2316
  300HK4    C1625170   7.706   6.901   8.784  0.4387  0.0894 -0.3030
  300HK4    C1525171   7.700   6.966   8.659 -0.1231  0.1850 -0.2276
  300HK4     H725172   7.766   6.946   8.573 -0.1506  1.6925 -0.6185
  300HK4    C2025173   7.620   7.079   8.645 -0.2293  0.1293 -0.0624
  300HK4     H925174   7.610   7.116   8.543 -1.0931  0.7808  0.2557
  300HK4    C1925175   7.542   7.122   8.751  0.3383 -0.0271  0.4277
  300HK4    C1825176   7.558   7.068   8.885  0.1411 -0.2755  0.3511
  300HK4    C1725177   7.645   6.960   8.894  0.1512 -0.3215 -0.2427
  300HK4     H825178   7.673   6.934   8.996 -0.5277 -1.6481 -0.3834
  300HK4     N125179   7.503   7.156   8.979  0.0390 -0.1036  0.1289
  300HK4    C2125180   7.434   7.255   8.905  0.1682  0.0441  0.2053
  300HK4    C2225181   7.459   7.241   8.763 -0.1554 -0.3470  0.1846
  300HK4    C2625182   7.411   7.336   8.674  0.5883  0.3318  0.5081
  300HK4    H1325183   7.434   7.323   8.568 -3.3470  0.2280 -0.3924
  300HK4    C2525184   7.349   7.450   8.723  0.1174  0.3212 -0.0385
  300HK4    H1225185   7.282   7.514   8.666 -1.0447  0.0238  0.9670
  300HK4    C2425186   7.339   7.474   8.860  0.1590  0.1368 -0.0077
  300HK4    H1125187   7.295   7.567   8.899 -0.0118  0.1880 -0.3266
  300HK4    C2325188   7.374   7.372   8.948 -0.3670 -0.1182 -0.0880
  300HK4    H1025189   7.347   7.388   9.053 -2.6986  0.5601 -0.7612
  300HK4    C3925190   7.464   7.106   9.104 -0.1679 -0.4816 -0.0869
  300HK4    C4125191   7.457   7.195   9.213  0.1860 -0.1389 -0.3425
  300HK4    H2125192   7.500   7.295   9.200 -0.7262 -0.0294 -2.7342
  300HK4    C4225193   7.398   7.159   9.334  0.8499 -0.8983 -0.2333
  300HK4    H2225194   7.384   7.240   9.407  1.0983 -0.9531 -0.1291
  300HK4    C4325195   7.345   7.032   9.350  0.2065 -0.5835  0.1837
  300HK4    H2325196   7.275   7.020   9.433  0.7042  0.9771  0.8477
  300HK4    C4425197   7.348   6.941   9.245  0.2025 -0.3064 -0.0547
  300HK4    H2425198   7.297   6.844   9.251 -2.7168  0.9700 -3.0159
  300HK4    C4525199   7.408   6.978   9.125  0.5160 -0.7759 -0.0477
  300HK4    H2525200   7.389   6.913   9.039  0.3903 -1.8097  0.7559
  301HK4    H2825201   3.512   1.511   3.202 -1.6884  2.4741 -2.1689
  301HK4    C4825202   3.417   1.465   3.228  0.0686  0.0371  0.2623
  301HK4    C4725203   3.373   1.353   3.158 -0.2433  0.1226  0.3202
  301HK4    H2725204   3.436   1.319   3.074 -0.2035  0.2890  0.2844
  301HK4    C4625205   3.255   1.287   3.192 -0.4258  0.2442 -0.0693
  301HK4    H2625206   3.229   1.195   3.139 -0.7149 -0.8838  1.9583
  301HK4    C4025207   3.190   1.320   3.313 -0.0520 -0.2120  0.2599
  301HK4    C5025208   3.241   1.426   3.391 -0.2007 -0.0163  0.0925
  301HK4    H3025209   3.200   1.448   3.490  1.2788 -0.4518  0.8099
  301HK4    C4925210   3.346   1.503   3.341 -0.0095 -0.1550  0.2776
  301HK4    H2925211   3.352   1.605   3.380  2.5523 -0.5742  1.0786
  301HK4     N225212   3.052   1.295   3.325 -0.1267  0.0627 -0.0158
  301HK4    C3025213   2.963   1.256   3.223 -0.4196  0.4579  0.0892
  301HK4    C2925214   2.973   1.270   3.085  0.1343  0.1706  0.0992
  301HK4    H1525215   3.062   1.304   3.033  0.7045 -0.5337  0.5976
  301HK4    C2825216   2.861   1.255   3.005  0.2172 -0.1917  0.0476
  301HK4    C2725217   2.739   1.214   3.062  0.0523 -0.0107 -0.1727
  301HK4    H1425218   2.656   1.184   2.996  0.9659 -0.6707 -1.0364
  301HK4    C3225219   2.722   1.195   3.199 -0.5585 -0.0431 -0.2468
  301HK4    H1625220   2.630   1.165   3.247 -1.4890 -1.9554 -3.1079
  301HK4    C3125221   2.834   1.217   3.278 -0.5939  0.4398 -0.3305
  301HK4    C3425222   2.852   1.220   3.422 -0.2446 -0.0039 -0.3636
  301HK4    C3325223   2.989   1.262   3.446 -0.1983 -0.2787 -0.1454
  301HK4    C3525224   3.037   1.257   3.576 -0.5309  0.3584  0.0065
  301HK4    H1725225   3.146   1.267   3.586 -0.5658 -0.2140  1.0915
  301HK4    C3625226   2.967   1.198   3.680 -0.1862 -0.5516 -0.2716
  301HK4    H1825227   2.998   1.216   3.784 -2.8367  3.5283 -0.0689
  301HK4    C3725228   2.841   1.146   3.651 -0.3478 -0.1895 -0.2267
  301HK4    H1925229   2.786   1.089   3.726  0.5014 -1.7791 -0.7870
  301HK4    C3825230   2.782   1.160   3.526 -0.0593 -0.2267 -0.3676
  301HK4    H2025231   2.683   1.123   3.499 -0.3678  0.4054 -0.0990
  301HK4    C1425232   2.869   1.298   2.864  0.0465 -0.2701  0.0138
  301HK4     C925233   2.753   1.335   2.794 -0.0897  0.1050  0.4411
  301HK4     C825234   2.720   1.272   2.673  0.0628  0.1218  0.3900
  301HK4    C1125235   2.812   1.182   2.619 -0.0042  0.1193  0.2782
  301HK4     H425236   2.797   1.119   2.531 -1.5257  1.9942 -0.8393
  301HK4    C1225237   2.936   1.160   2.679  0.3205  0.0947 -0.4036
  301HK4     H525238   3.008   1.099   2.623  1.1693  0.5747  0.1497
  301HK4    C1325239   2.969   1.224   2.798 -0.0658 -0.3659 -0.0493
  301HK4     H625240   3.067   1.200   2.841 -0.9334 -2.3520  0.9044
  301HK4     C725241   2.588   1.298   2.611 -0.0774 -0.6809  0.3521
  301HK4     O225242   2.555   1.236   2.510 -0.3242  0.2459 -0.1395
  301HK4     C425243   2.492   1.391   2.674 -0.0247 -0.4102  0.0281
  301HK4     C325244   2.371   1.422   2.612 -0.0301 -0.1426  0.1721
  301HK4     H325245   2.340   1.381   2.515 -1.1415  0.1422  0.4000
  301HK4     C225246   2.285   1.515   2.669  0.0479  0.1608 -0.1986
  301HK4     H225247   2.193   1.546   2.617 -0.6890 -0.0216  0.9717
  301HK4     C125248   2.320   1.571   2.792  0.1106 -0.1093 -0.0924
  301HK4     H125249   2.250   1.643   2.837  2.1152  1.3066  0.8155
  301HK4     C625250   2.437   1.536   2.862  0.2773  0.1930 -0.2210
  301HK4     C525251   2.530   1.459   2.791  0.1506  0.1640 -0.3564
  301HK4    C1025252   2.669   1.448   2.843 -0.2070 -0.0360  0.5640
  301HK4     O125253   2.724   1.552   2.879 -0.4247  0.2668  0.0226
  301HK4    C1625254   2.421   1.523   3.007  0.2014 -0.6160 -0.3033
  301HK4    C1525255   2.307   1.471   3.073  0.3795 -0.4530  0.1407
  301HK4     H725256   2.230   1.429   3.006  1.5478 -1.4082 -0.6344
  301HK4    C2025257   2.282   1.473   3.209 -0.4979  0.4514 -0.0220
  301HK4     H925258   2.195   1.425   3.254  0.9399 -2.6003 -0.3768
  301HK4    C1925259   2.391   1.510   3.287 -0.2151 -0.5120  0.0491
  301HK4    C1825260   2.509   1.569   3.228 -0.3045 -0.2672  0.1134
  301HK4    C1725261   2.520   1.575   3.089 -0.4641  0.0009  0.1136
  301HK4     H825262   2.595   1.647   3.056 -1.1952  0.0700 -1.4349
  301HK4     N125263   2.609   1.581   3.327 -0.5558  0.7519  0.2421
  301HK4    C2125264   2.558   1.532   3.449  0.0050  0.7323  0.4701
  301HK4    C2225265   2.420   1.490   3.428  0.3918 -0.2867 -0.0442
  301HK4    C2625266   2.346   1.418   3.521  0.4799 -0.5315 -0.1613
  301HK4    H1325267   2.239   1.407   3.503  0.3741  1.4318 -0.8097
  301HK4    C2525268   2.412   1.367   3.632 -0.0181  0.5868  0.6664
  301HK4    H1225269   2.344   1.314   3.699  0.4853  0.8370  1.3699
  301HK4    C2425270   2.546   1.398   3.655  0.1919 -0.0541  0.3365
  301HK4    H1125271   2.599   1.355   3.741 -0.3152 -0.7482  0.3070
  301HK4    C2325272   2.613   1.480   3.565  0.1640 -0.5894 -0.1805
  301HK4    H1025273   2.719   1.504   3.581 -0.2164  0.4368  0.8441
  301HK4    C3925274   2.744   1.616   3.314 -0.4245 -0.0462 -0.5803
  301HK4    C4125275   2.806   1.578   3.194 -0.6225 -0.1797 -0.6409
  301HK4    H2125276   2.775   1.482   3.149 -2.0367  0.2783 -0.6617
  301HK4    C4225277   2.923   1.642   3.155  0.0285 -0.5714  0.6511
  301HK4    H2225278   2.973   1.604   3.064  0.3752  0.7259  0.2862
  301HK4    C4325279   2.982   1.741   3.232  0.2842 -0.5877  0.4774
  301HK4    H2325280   3.074   1.788   3.197  0.3683 -1.4015 -0.4320
  301HK4    C4425281   2.919   1.786   3.348 -0.4195 -0.2002 -0.0533
  301HK4    H2425282   2.963   1.870   3.404 -0.1911  3.1964 -4.9269
  301HK4    C4525283   2.807   1.716   3.390 -0.1925 -0.5762 -0.0696
  301HK4    H2525284   2.774   1.737   3.493  3.8655  2.3076  0.7777
  302HK4    H2825285  11.005   6.531   1.789  0.1286 -1.9030  0.3135
  302HK4    C4825286  10.901   6.503   1.777 -0.3430 -0.1409  0.0569
  302HK4    C4725287  10.895   6.368   1.744  0.5400 -0.2375  0.2941
  302HK4    H2725288  10.980   6.327   1.687 -0.2154 -0.6323 -0.5580
  302HK4    C4625289  10.771   6.307   1.731  0.2638  0.5112 -0.5495
  302HK4    H2625290  10.759   6.202   1.702 -0.0685  0.3894  0.0217
  302HK4    C4025291  10.649   6.373   1.758 -0.1633 -0.6154  0.2773
  302HK4    C5025292  10.664   6.506   1.803 -0.3166 -0.6100  0.3168
  302HK4    H3025293  10.568   6.557   1.822  0.0790  0.1761  0.2423
  302HK4    C4925294  10.786   6.573   1.809 -0.5134 -0.1672 -0.4855
  302HK4    H2925295  10.789   6.680   1.833 -2.5723 -0.8279  3.3026
  302HK4     N225296  10.526   6.337   1.702 -0.1842  0.1113 -0.1478
  302HK4    C3025297  10.514   6.285   1.571  0.1800  0.1442 -0.1967
  302HK4    C2925298  10.602   6.284   1.464  0.3605  0.1603 -0.0464
  302HK4    H1525299  10.709   6.280   1.487  0.4521  0.2102 -0.4522
  302HK4    C2825300  10.566   6.283   1.330 -0.2379  0.1709  0.1140
  302HK4    C2725301  10.431   6.256   1.302 -0.1422 -0.1942  0.0038
  302HK4    H1425302  10.399   6.227   1.201 -0.7735  0.4987  0.0048
  302HK4    C3225303  10.339   6.241   1.405 -0.0384  0.1189  0.1383
  302HK4    H1625304  10.237   6.210   1.384  0.1510 -1.0282  0.8706
  302HK4    C3125305  10.377   6.252   1.539  0.1934 -0.2086  0.0983
  302HK4    C3425306  10.301   6.265   1.662  0.2970 -0.4034  0.1838
  302HK4    C3325307  10.396   6.324   1.754 -0.1799  0.6581  0.0086
  302HK4    C3525308  10.343   6.368   1.875 -0.1942 -0.2802  0.3450
  302HK4    H1725309  10.411   6.408   1.949 -0.5500  1.2442 -0.1410
  302HK4    C3625310  10.207   6.361   1.903 -0.3579 -0.5241 -0.4940
  302HK4    H1825311  10.167   6.404   1.995  1.3173 -0.8400  0.3915
  302HK4    C3725312  10.116   6.309   1.811 -0.9082 -0.1464 -0.1619
  302HK4    H1925313  10.011   6.307   1.839 -0.1767 -0.8363  2.6433
  302HK4    C3825314  10.165   6.256   1.692  0.3342 -0.2676  0.3972
  302HK4    H2025315  10.090   6.247   1.614 -1.3318 -1.3230  2.0777
  302HK4    C1425316  10.645   6.350   1.225  0.0328  0.3219  0.4141
  302HK4     C925317  10.590   6.423   1.120  0.1211  0.4383  0.4482
  302HK4     C825318  10.667   6.447   1.004 -0.2970 -0.3375  0.0066
  302HK4    C1125319  10.800   6.405   1.006 -0.0325  0.5180  0.8089
  302HK4     H425320  10.859   6.424   0.915  2.6476  1.8729  2.7564
  302HK4    C1225321  10.859   6.335   1.110  0.2928 -0.2442  0.1214
  302HK4     H525322  10.960   6.291   1.102 -0.5230 -2.2036  0.2841
  302HK4    C1325323  10.781   6.314   1.224 -0.0671 -0.0358 -0.0855
  302HK4     H625324  10.835   6.305   1.319  0.1794  0.7301 -0.1544
  302HK4     C725325  10.618   6.524   0.888 -0.1569 -0.0198  0.1588
  302HK4     O225326  10.685   6.547   0.788 -0.4665  0.1891 -0.0046
  302HK4     C425327  10.483   6.585   0.897 -0.2455 -0.1829 -0.0538
  302HK4     C325328  10.427   6.639   0.782  0.1272 -0.4180 -0.3446
  302HK4     H325329  10.492   6.656   0.695 -0.2413 -0.4002 -0.6173
  302HK4     C225330  10.290   6.660   0.775  0.1914  0.2064  0.1887
  302HK4     H225331  10.243   6.692   0.680  1.8898 -1.0991 -1.1266
  302HK4     C125332  10.212   6.635   0.887 -0.1619  0.4448 -0.0057
  302HK4     H125333  10.103   6.635   0.874 -0.3671  1.9395  1.5926
  302HK4     C625334  10.264   6.591   1.010  0.2537 -0.0646 -0.3583
  302HK4     C525335  10.402   6.571   1.012  0.2910  0.2690  0.3804
  302HK4    C1025336  10.465   6.504   1.129 -0.4914 -0.4940  0.3668
  302HK4     O125337  10.463   6.566   1.235 -0.0722  0.8284 -0.3903
  302HK4    C1625338  10.171   6.520   1.100  0.0407  0.2867 -0.2967
  302HK4    C1525339  10.064   6.447   1.044  0.3077 -0.2713 -0.0818
  302HK4     H725340  10.052   6.432   0.936  1.0374  1.0524 -0.3552
  302HK4    C2025341   9.964   6.396   1.126  0.0498  0.4111  0.0232
  302HK4     H925342   9.881   6.341   1.081 -1.4844  2.0323  0.7787
  302HK4    C1925343   9.968   6.424   1.262  0.2706  0.1200  0.0769
  302HK4    C1825344  10.071   6.507   1.322  0.1439  0.2940  0.0540
  302HK4    C1725345  10.167   6.555   1.234  0.1755 -0.1715 -0.1704
  302HK4     H825346  10.235   6.628   1.279  0.2956 -0.5104  0.2072
  302HK4     N125347  10.042   6.569   1.446 -0.1227  0.0948  0.0910
  302HK4    C2125348   9.909   6.526   1.468 -0.0834 -0.1578 -0.1492
  302HK4    C2225349   9.860   6.448   1.356 -0.1861  0.4431 -0.5216
  302HK4    C2625350   9.723   6.428   1.345 -0.1744  0.4192 -0.6271
  302HK4    H1325351   9.686   6.377   1.256 -2.1000  0.2852  0.2351
  302HK4    C2525352   9.633   6.468   1.443 -0.1579  0.0255 -0.4514
  302HK4    H1225353   9.527   6.465   1.420  0.0547 -2.8329 -1.2849
  302HK4    C2425354   9.684   6.531   1.556  0.0779  0.1241 -0.6134
  302HK4    H1125355   9.617   6.565   1.636  0.6245 -1.0660  0.3792
  302HK4    C2325356   9.821   6.553   1.572  0.0407 -0.0398 -0.0736
  302HK4    H1025357   9.863   6.533   1.671 -0.2156  0.3833  0.1201
  302HK4    C3925358  10.129   6.630   1.536 -0.2678  0.7045 -0.1750
  302HK4    C4125359  10.084   6.707   1.645 -0.3968 -0.2598  0.4681
  302HK4    H2125360   9.978   6.719   1.669 -0.3951  0.9586 -0.0807
  302HK4    C4225361  10.171   6.752   1.744  0.0283 -0.1262  0.0394
  302HK4    H2225362  10.132   6.808   1.831  1.1774 -0.2257  0.6205
  302HK4    C4325363  10.307   6.724   1.744 -0.0594 -0.5607  0.2014
  302HK4    H2325364  10.371   6.734   1.831  0.8170  0.4850 -0.5562
  302HK4    C4425365  10.356   6.659   1.631  0.3846 -1.1417  0.7279
  302HK4    H2425366  10.465   6.658   1.619  0.3562 -2.0245  0.4791
  302HK4    C4525367  10.269   6.608   1.536 -0.3376  0.1933  0.6672
  302HK4    H2525368  10.308   6.520   1.482  2.6996  2.2690 -0.6701
  303HK4    H2825369   1.194   2.611   6.893 -5.1319 -1.3985  0.4085
  303HK4    C4825370   1.227   2.507   6.886 -0.0051  0.1590 -0.7424
  303HK4    C4725371   1.154   2.405   6.946  0.5933  0.1947  0.0530
  303HK4    H2725372   1.090   2.432   7.031 -0.3520  1.8674 -1.1695
  303HK4    C4625373   1.179   2.271   6.918  0.0734 -0.0053  0.5527
  303HK4    H2625374   1.135   2.191   6.980 -0.5997  0.6687  0.9512
  303HK4    C4025375   1.282   2.233   6.830 -0.3425 -0.1891  0.1470
  303HK4    C5025376   1.348   2.343   6.770 -0.0460 -0.4121  0.0608
  303HK4    H3025377   1.416   2.318   6.688  1.0556 -1.6248  1.2957
  303HK4    C4925378   1.331   2.478   6.798  0.2870 -0.3069 -0.2471
  303HK4    H2925379   1.409   2.554   6.785 -0.3785  0.3883 -0.1876
  303HK4     N225380   1.344   2.108   6.820  0.4553  0.1956  0.2536
  303HK4    C3025381   1.349   2.015   6.926 -0.4404 -0.0202  0.1066
  303HK4    C2925382   1.344   2.036   7.063  0.6420  0.0859  0.1310
  303HK4    H1525383   1.394   2.127   7.094  1.3037  0.4361 -1.9279
  303HK4    C2825384   1.339   1.932   7.156  0.2738  0.3102  0.3614
  303HK4    C2725385   1.358   1.803   7.104 -0.4299  0.3792 -0.0751
  303HK4    H1425386   1.352   1.722   7.178  0.3640  0.5723  0.2025
  303HK4    C3225387   1.384   1.774   6.970  0.3030  0.1480  0.1102
  303HK4    H1625388   1.404   1.674   6.931  1.4800  0.8058 -1.0022
  303HK4    C3125389   1.385   1.881   6.882  0.3750  0.1823  0.1545
  303HK4    C3425390   1.399   1.892   6.738  0.2825  0.1624  0.1429
  303HK4    C3325391   1.371   2.030   6.705  0.3980  0.2082  0.2325
  303HK4    C3525392   1.377   2.063   6.570 -0.9869 -0.4063  0.0109
  303HK4    H1725393   1.343   2.162   6.539 -0.2817  0.0347  0.6368
  303HK4    C3625394   1.421   1.976   6.471  0.1662  0.2479 -0.0611
  303HK4    H1825395   1.434   2.008   6.367  0.4344 -0.3381 -0.2054
  303HK4    C3725396   1.444   1.845   6.510 -0.2190  0.4220  0.7640
  303HK4    H1925397   1.455   1.765   6.436 -1.3935 -0.2655  1.3049
  303HK4    C3825398   1.434   1.799   6.641  0.1986 -0.2910  0.5464
  303HK4    H2025399   1.404   1.697   6.664 -0.9873 -0.0628  0.0214
  303HK4    C1425400   1.342   1.964   7.299  0.2566  0.0697  0.4161
  303HK4     C925401   1.388   1.880   7.402 -0.5962 -0.3268  0.4745
  303HK4     C825402   1.337   1.891   7.533  0.1208  0.1500  0.7147
  303HK4    C1125403   1.248   1.992   7.564 -0.2865  0.0743 -0.1876
  303HK4     H425404   1.191   2.005   7.658  1.6959 -0.7750  1.1686
  303HK4    C1225405   1.211   2.084   7.466  0.1651  0.3439 -0.1073
  303HK4     H525406   1.145   2.168   7.491  1.2334  0.4593  2.5582
  303HK4    C1325407   1.256   2.069   7.335 -0.2475 -0.1329 -0.1983
  303HK4     H625408   1.221   2.143   7.262 -2.8059  0.9041  1.9750
  303HK4     C725409   1.391   1.803   7.640  0.4724 -0.3698  0.1177
  303HK4     O225410   1.368   1.823   7.759  0.5147  0.2766  0.0223
  303HK4     C425411   1.483   1.693   7.605  0.6741  0.0101 -0.5443
  303HK4     C325412   1.520   1.595   7.695 -0.1055  0.1307 -0.0924
  303HK4     H325413   1.536   1.618   7.802 -1.1984  1.9370 -0.2971
  303HK4     C225414   1.583   1.476   7.659 -0.1020  0.0161  0.2870
  303HK4     H225415   1.636   1.416   7.735  0.3931  1.1411  0.8457
  303HK4     C125416   1.592   1.446   7.524  0.2599 -0.2996  0.3765
  303HK4     H125417   1.608   1.341   7.496 -2.4357 -0.4068 -1.0147
  303HK4     C625418   1.560   1.543   7.427  0.6459 -0.4628  0.0879
  303HK4     C525419   1.520   1.670   7.471  0.3556 -0.3249 -0.5739
  303HK4    C1025420   1.496   1.781   7.375 -0.9161 -0.4395 -0.3993
  303HK4     O125421   1.597   1.825   7.321 -0.5885 -0.2024  0.4070
  303HK4    C1625422   1.520   1.487   7.297 -0.3964  0.0158  0.1981
  303HK4    C1525423   1.429   1.380   7.289 -0.4183  0.0293  0.2732
  303HK4     H725424   1.383   1.335   7.379 -0.4178 -0.2600  0.1298
  303HK4    C2025425   1.399   1.315   7.170  0.3073 -0.0637  0.1365
  303HK4     H925426   1.323   1.237   7.166  0.7276 -0.4662 -0.0243
  303HK4    C1925427   1.465   1.349   7.052  0.1167  0.4490  0.1752
  303HK4    C1825428   1.567   1.452   7.059 -0.2149  0.7709  0.2391
  303HK4    C1725429   1.583   1.522   7.178  0.1582  0.1701  0.5373
  303HK4     H825430   1.632   1.619   7.170  1.7672 -0.7159 -0.8366
  303HK4     N125431   1.626   1.472   6.932 -0.4727 -0.0129 -0.0034
  303HK4    C2125432   1.559   1.385   6.843  0.1913 -0.6854  0.1491
  303HK4    C2225433   1.463   1.304   6.915 -0.4446  0.1702  0.2747
  303HK4    C2625434   1.397   1.193   6.862 -0.1261  0.3243 -0.4481
  303HK4    H1325435   1.307   1.159   6.912 -0.7210  0.6968 -1.2492
  303HK4    C2525436   1.429   1.162   6.730  0.2101 -0.3736 -0.2065
  303HK4    H1225437   1.404   1.066   6.684  1.7214 -2.0582  2.3501
  303HK4    C2425438   1.517   1.244   6.660 -0.4001  0.2341 -0.2750
  303HK4    H1125439   1.509   1.220   6.553  0.5283 -0.4399 -0.2009
  303HK4    C2325440   1.588   1.351   6.711  0.2031 -0.3190  0.0567
  303HK4    H1025441   1.657   1.409   6.650 -0.1907  2.3476  2.0332
  303HK4    C3925442   1.742   1.547   6.912 -0.2431 -0.2594  0.4006
  303HK4    C4125443   1.763   1.626   6.798 -0.0281 -0.4585  0.3015
  303HK4    H2125444   1.681   1.674   6.743 -0.3451 -0.4754  0.7633
  303HK4    C4225445   1.888   1.675   6.760 -0.0293 -0.9034 -0.2843
  303HK4    H2225446   1.902   1.747   6.678 -0.3607 -0.3053  0.1801
  303HK4    C4325447   1.994   1.662   6.849 -0.2448  0.3253  0.1647
  303HK4    H2325448   2.096   1.681   6.815 -0.2817  0.6618  0.2416
  303HK4    C4425449   1.970   1.601   6.972  0.1172  0.0955  0.1204
  303HK4    H2425450   2.048   1.597   7.050 -0.0256 -0.7237  0.2185
  303HK4    C4525451   1.852   1.535   7.000  0.1318  0.0060 -0.0260
  303HK4    H2525452   1.840   1.463   7.083  2.0784 -1.7242 -1.2196
  304HK4    H2825453   6.651   4.381   1.187 -2.1270  0.0254  0.9954
  304HK4    C4825454   6.683   4.281   1.217 -0.5762  0.2658  0.1760
  304HK4    C4725455   6.626   4.174   1.148 -0.0548  0.1383 -0.0538
  304HK4    H2725456   6.554   4.191   1.066 -1.8777  0.6829  1.6387
  304HK4    C4625457   6.636   4.045   1.199 -0.0987  0.0749 -0.2034
  304HK4    H2625458   6.609   3.966   1.128 -2.8109  1.1636 -0.4438
  304HK4    C4025459   6.697   4.021   1.324  0.2547 -0.1897 -0.4288
  304HK4    C5025460   6.755   4.128   1.394 -0.6412 -0.0244  0.0590
  304HK4    H3025461   6.789   4.115   1.498 -0.5797 -0.1143  0.0275
  304HK4    C4925462   6.752   4.254   1.334  0.2324 -0.2177 -0.4051
  304HK4    H2925463   6.803   4.341   1.376 -0.6025  0.6305 -1.1314
  304HK4     N225464   6.694   3.893   1.379 -0.1119 -0.1725 -0.4093
  304HK4    C3025465   6.600   3.794   1.343 -0.7424  0.1728  0.2714
  304HK4    C2925466   6.474   3.800   1.284 -0.7747  0.5767  0.3749
  304HK4    H1525467   6.411   3.879   1.326 -1.9078 -0.6534  1.0520
  304HK4    C2825468   6.411   3.693   1.222 -0.4468  0.2154  0.6675
  304HK4    C2725469   6.471   3.566   1.239  0.0243  0.4600  0.8165
  304HK4    H1425470   6.409   3.477   1.225 -0.6734  1.2915 -1.6173
  304HK4    C3225471   6.591   3.549   1.307  0.4057 -0.0277  0.0236
  304HK4    H1625472   6.648   3.456   1.299  0.4222  0.0142 -0.3440
  304HK4    C3125473   6.652   3.661   1.363 -0.0464  0.3632 -0.2628
  304HK4    C3425474   6.785   3.678   1.419  0.0009  0.1665 -0.3113
  304HK4    C3325475   6.804   3.822   1.430 -0.1405  0.1531  0.1107
  304HK4    C3525476   6.926   3.865   1.483 -0.3073  0.3072  0.3682
  304HK4    H1725477   6.945   3.966   1.517 -0.3506  0.1468  0.8726
  304HK4    C3625478   7.024   3.770   1.509 -0.2534  0.1740 -0.3229
  304HK4    H1825479   7.121   3.805   1.548 -0.2560  0.7388 -0.8108
  304HK4    C3725480   7.010   3.633   1.492  0.1002  0.0898  0.0518
  304HK4    H1925481   7.068   3.572   1.562  0.1335  0.9477  0.7805
  304HK4    C3825482   6.884   3.588   1.453  0.1731  0.3058 -0.4380
  304HK4    H2025483   6.869   3.486   1.417 -1.4784 -0.0655  1.1971
  304HK4    C1425484   6.272   3.708   1.178 -0.1441 -0.4975 -0.5493
  304HK4     C925485   6.167   3.615   1.186 -0.1787 -0.4305 -0.2250
  304HK4     C825486   6.055   3.631   1.103 -0.3172  0.0148  0.0467
  304HK4    C1125487   6.051   3.733   1.008  0.2083 -0.1288 -0.1298
  304HK4     H425488   5.976   3.750   0.930 -0.3723  1.0489  0.6650
  304HK4    C1225489   6.146   3.834   1.013 -0.0057  0.0405  0.6301
  304HK4     H525490   6.149   3.903   0.927  1.8281 -1.1503 -0.2791
  304HK4    C1325491   6.257   3.821   1.095  0.3777  0.0617  0.1200
  304HK4     H625492   6.340   3.893   1.084  0.8603 -0.8214 -2.2754
  304HK4     C725493   5.928   3.561   1.133 -0.3034 -0.0472 -0.0349
  304HK4     O225494   5.831   3.580   1.059  0.0607 -0.2756 -0.5791
  304HK4     C425495   5.923   3.468   1.248 -0.0667  0.9440  0.7782
  304HK4     C325496   5.804   3.402   1.274  0.4672 -0.2616  0.1990
  304HK4     H325497   5.713   3.430   1.219  1.6804  1.0228 -1.1853
  304HK4     C225498   5.799   3.292   1.360 -0.0307 -0.6143 -0.2763
  304HK4     H225499   5.698   3.262   1.389 -0.3576 -0.4733 -1.2303
  304HK4     C125500   5.921   3.235   1.394  0.0819 -0.0892  0.1966
  304HK4     H125501   5.926   3.157   1.472  0.0847 -1.1391 -0.8449
  304HK4     C625502   6.046   3.288   1.355  0.1756 -0.0227  0.5776
  304HK4     C525503   6.044   3.415   1.296 -0.2688 -0.3552 -0.1319
  304HK4    C1025504   6.160   3.508   1.290 -0.6595  0.1620  0.3526
  304HK4     O125505   6.215   3.521   1.399 -0.1016 -0.3831  0.1335
  304HK4    C1625506   6.146   3.190   1.310 -0.2438 -0.0494 -0.2968
  304HK4    C1525507   6.100   3.061   1.277 -0.1717 -0.0016 -0.5884
  304HK4     H725508   6.014   3.057   1.209 -0.0376 -0.0438 -0.7545
  304HK4    C2025509   6.180   2.948   1.295  0.0787  0.2334 -0.2343
  304HK4     H925510   6.144   2.846   1.302  2.1281 -0.3994  1.7933
  304HK4    C1925511   6.314   2.961   1.330 -0.1237  0.4437  0.4775
  304HK4    C1825512   6.368   3.094   1.349  0.1684  0.4031 -0.0460
  304HK4    C1725513   6.282   3.203   1.337 -0.2989  0.0326 -0.0580
  304HK4     H825514   6.320   3.304   1.349 -2.6600  1.0047 -0.4697
  304HK4     N125515   6.507   3.086   1.369  0.1196 -0.0564  0.1183
  304HK4    C2125516   6.540   2.949   1.376  0.0521 -0.0806 -0.0488
  304HK4    C2225517   6.424   2.868   1.347 -0.1290  0.2782 -0.3468
  304HK4    C2625518   6.436   2.731   1.370 -0.3764  0.3008 -0.0747
  304HK4    H1325519   6.346   2.669   1.369 -0.4041  0.3489 -1.0130
  304HK4    C2525520   6.555   2.665   1.399 -0.3357  0.5242  0.2787
  304HK4    H1225521   6.564   2.557   1.392  0.8970  0.6910 -1.0427
  304HK4    C2425522   6.669   2.743   1.416  0.1987 -0.1911 -0.0297
  304HK4    H1125523   6.767   2.692   1.422  0.1648 -0.1555  0.8365
  304HK4    C2325524   6.658   2.881   1.404  0.0266 -0.2273 -0.2995
  304HK4    H1025525   6.749   2.936   1.426 -0.6362  1.9805 -2.9070
  304HK4    C3925526   6.593   3.183   1.424 -0.2025  0.1750  0.2154
  304HK4    C4125527   6.732   3.184   1.399 -0.1935 -0.1335  0.2517
  304HK4    H2125528   6.777   3.146   1.306 -0.3597 -1.2339  0.6102
  304HK4    C4225529   6.820   3.239   1.491  0.5401 -0.8456 -0.0156
  304HK4    H2225530   6.929   3.229   1.478  0.4298 -0.3625 -1.4092
  304HK4    C4325531   6.776   3.314   1.599  0.4897  0.3124 -0.8189
  304HK4    H2325532   6.851   3.349   1.670  0.2038 -1.0142  0.1725
  304HK4    C4425533   6.639   3.326   1.622  0.4951  0.4388 -0.8525
  304HK4    H2425534   6.602   3.376   1.712 -0.9152  0.6017 -1.5168
  304HK4    C4525535   6.553   3.259   1.535 -0.3083 -0.4505  0.6076
  304HK4    H2525536   6.447   3.282   1.550 -0.4988 -1.1176  0.2902
  305HK4    H2825537  11.170   3.720   2.607 -0.4389 -2.1601  1.7004
  305HK4    C4825538  11.089   3.680   2.547 -0.3300 -0.1258  0.1703
  305HK4    C4725539  10.973   3.755   2.527  0.2116  0.6473 -0.1052
  305HK4    H2725540  10.951   3.837   2.597 -0.4854  3.0267 -3.0029
  305HK4    C4625541  10.883   3.715   2.429  0.0083  0.3822  0.1889
  305HK4    H2625542  10.787   3.769   2.422 -0.7629 -1.0693 -0.6920
  305HK4    C4025543  10.899   3.601   2.348 -0.2167  0.3782  0.1496
  305HK4    C5025544  11.014   3.526   2.379 -0.3021  0.3117  0.3106
  305HK4    H3025545  11.042   3.437   2.320 -1.3217 -1.5672  2.5843
  305HK4    C4925546  11.106   3.561   2.477 -0.1047 -0.1704  0.3014
  305HK4    H2925547  11.206   3.515   2.480 -0.9039 -1.9034  1.9985
  305HK4     N225548  10.836   3.589   2.224  0.0758 -0.0523  0.0410
  305HK4    C3025549  10.806   3.692   2.132 -0.4576 -0.2540 -0.0130
  305HK4    C2925550  10.764   3.823   2.150 -0.5787 -0.3066  0.0821
  305HK4    H1525551  10.782   3.866   2.249  2.6088 -1.2850 -0.0225
  305HK4    C2825552  10.702   3.907   2.058 -0.6021 -0.4260 -0.0127
  305HK4    C2725553  10.699   3.856   1.927 -0.0079 -0.0118 -0.1888
  305HK4    H1425554  10.699   3.931   1.846  1.8135 -1.5123 -1.6200
  305HK4    C3225555  10.737   3.725   1.903  0.8315  0.1964 -0.0162
  305HK4    H1625556  10.716   3.684   1.804  0.5424 -1.0035  0.5306
  305HK4    C3125557  10.790   3.639   1.998 -0.1238 -0.3864  0.0000
  305HK4    C3425558  10.800   3.494   2.008  0.3432 -0.3463  0.1407
  305HK4    C3325559  10.823   3.470   2.149  0.1983 -0.1625  0.1957
  305HK4    C3525560  10.805   3.343   2.200 -0.6592 -0.1350 -0.0234
  305HK4    H1725561  10.844   3.311   2.297  0.7336  1.2674 -0.1062
  305HK4    C3625562  10.765   3.240   2.115  0.2350 -0.6826  0.2024
  305HK4    H1825563  10.723   3.145   2.151  0.4166 -0.8530 -0.0378
  305HK4    C3725564  10.755   3.263   1.978 -0.2390 -0.2088  0.3137
  305HK4    H1925565  10.712   3.188   1.911 -4.1904  2.3613 -0.1710
  305HK4    C3825566  10.764   3.390   1.923  0.4306 -0.3482  0.1061
  305HK4    H2025567  10.793   3.397   1.818 -0.7857  0.3469 -0.1830
  305HK4    C1425568  10.632   4.033   2.089 -0.2180 -0.2985  0.3439
  305HK4     C925569  10.537   4.098   2.010  0.1525  0.1795  0.2871
  305HK4     C825570  10.510   4.236   2.019 -0.2755  0.1195 -0.0650
  305HK4    C1125571  10.579   4.307   2.117 -0.4578 -0.2397  0.3240
  305HK4     H425572  10.547   4.412   2.122  0.7697  0.1661 -0.2622
  305HK4    C1225573  10.671   4.243   2.199  0.4198  0.1317 -0.3605
  305HK4     H525574  10.741   4.302   2.260  0.2796  0.8591 -0.9003
  305HK4    C1325575  10.698   4.107   2.189 -0.0936 -0.0013  0.0401
  305HK4     H625576  10.742   4.060   2.279  3.8237  3.2968  0.0084
  305HK4     C725577  10.450   4.313   1.908 -0.3340 -0.1456 -0.2168
  305HK4     O225578  10.417   4.431   1.921  0.4874  0.0095  0.4867
  305HK4     C425579  10.393   4.238   1.793  0.4380 -0.1061 -0.6278
  305HK4     C325580  10.316   4.298   1.695  0.1635  0.1450 -0.2558
  305HK4     H325581  10.309   4.408   1.704  0.9844  0.0827  1.2592
  305HK4     C225582  10.280   4.238   1.575  0.0891 -0.4857  0.0793
  305HK4     H225583  10.208   4.290   1.510  0.2396 -2.2022 -1.4843
  305HK4     C125584  10.310   4.102   1.571  0.3960 -0.3961 -0.6908
  305HK4     H125585  10.275   4.054   1.478  1.3940 -0.8508 -0.8345
  305HK4     C625586  10.379   4.024   1.666 -0.4205 -0.2312  0.0380
  305HK4     C525587  10.412   4.099   1.780 -0.1736 -0.2479 -0.0211
  305HK4    C1025588  10.459   4.029   1.903  0.0497  0.3644  0.2433
  305HK4     O125589  10.393   3.937   1.951  0.7862 -0.4228 -0.2308
  305HK4    C1625590  10.457   3.914   1.609 -0.1893 -0.1817  0.2591
  305HK4    C1525591  10.512   3.924   1.480 -0.1220 -0.5671  0.2551
  305HK4     H725592  10.536   4.026   1.446 -0.2559 -0.5151  0.3157
  305HK4    C2025593  10.531   3.807   1.408 -0.8716 -0.1216 -0.6863
  305HK4     H925594  10.577   3.819   1.310 -3.0648 -2.2806 -2.0451
  305HK4    C1925595  10.501   3.680   1.458  0.1810 -0.1146 -0.0187
  305HK4    C1825596  10.467   3.665   1.598 -0.0259 -0.2059 -0.0777
  305HK4    C1725597  10.436   3.786   1.660 -0.7082 -0.2955 -0.2484
  305HK4     H825598  10.394   3.782   1.760 -0.7521  1.6939 -0.1803
  305HK4     N125599  10.470   3.530   1.637 -0.2173 -0.1855  0.0075
  305HK4    C2125600  10.526   3.461   1.528 -0.3759 -0.1081 -0.1232
  305HK4    C2225601  10.538   3.548   1.413  0.6144 -0.0156  0.0445
  305HK4    C2625602  10.580   3.494   1.291 -0.3445 -0.1362 -0.2391
  305HK4    H1325603  10.583   3.553   1.200 -2.3914  1.4841  0.6908
  305HK4    C2525604  10.603   3.358   1.277  0.2951 -0.0157 -0.3741
  305HK4    H1225605  10.628   3.325   1.176  1.1639 -1.5185  0.3107
  305HK4    C2425606  10.590   3.276   1.388 -0.3477 -0.0273 -0.4571
  305HK4    H1125607  10.568   3.171   1.361  0.9948 -0.6813  0.9022
  305HK4    C2325608  10.554   3.325   1.513  0.3013  0.0503 -0.2998
  305HK4    H1025609  10.555   3.254   1.596 -2.1575  0.2615 -0.0480
  305HK4    C3925610  10.417   3.475   1.755  0.2695 -0.2927  0.1782
  305HK4    C4125611  10.366   3.344   1.765  0.0504 -0.1846  0.4807
  305HK4    H2125612  10.341   3.296   1.669 -1.9093 -2.6420  2.1586
  305HK4    C4225613  10.351   3.269   1.881  0.0143 -0.3379  0.3789
  305HK4    H2225614  10.322   3.164   1.868  0.4354 -0.3577 -0.4081
  305HK4    C4325615  10.394   3.328   2.000 -0.8391  0.6755  0.1933
  305HK4    H2325616  10.397   3.262   2.087  2.2476  0.7771  0.2340
  305HK4    C4425617  10.446   3.457   2.002 -0.3921  0.4978  0.1033
  305HK4    H2425618  10.493   3.495   2.094  0.9998 -1.0329  0.0570
  305HK4    C4525619  10.445   3.527   1.882  0.6579  0.1725 -0.0992
  305HK4    H2525620  10.471   3.634   1.889 -0.2890  0.5507 -2.1611
  306HK4    H2825621   8.738   4.718   5.943  0.5949 -0.4508 -0.8336
  306HK4    C4825622   8.790   4.651   6.011 -0.3592 -0.1046  0.2593
  306HK4    C4725623   8.746   4.521   6.031 -0.1942 -0.1880  0.0775
  306HK4    H2725624   8.637   4.509   6.041 -0.1439  0.1452  1.0645
  306HK4    C4625625   8.834   4.424   6.078  0.3259  0.1254 -0.2355
  306HK4    H2625626   8.809   4.317   6.069 -0.6123  0.2110  1.0517
  306HK4    C4025627   8.963   4.455   6.124  0.6022 -0.3056 -0.7234
  306HK4    C5025628   8.998   4.592   6.119 -0.1409 -0.0705  0.3539
  306HK4    H3025629   9.087   4.627   6.174 -1.6281 -0.7755  3.3246
  306HK4    C4925630   8.915   4.687   6.061 -0.3083 -0.2779  0.2530
  306HK4    H2925631   8.947   4.792   6.052 -1.4110  0.1730  1.5077
  306HK4     N225632   9.053   4.370   6.189  0.2333 -0.0044  0.1904
  306HK4    C3025633   9.010   4.258   6.263 -0.2002  0.0443  0.0120
  306HK4    C2925634   8.889   4.246   6.330  0.1433  0.6021  0.7354
  306HK4    H1525635   8.822   4.332   6.321  2.5320  2.2759 -1.9022
  306HK4    C2825636   8.864   4.139   6.415  0.1041  0.1469  0.1569
  306HK4    C2725637   8.968   4.045   6.430 -0.4298 -0.3885  0.5029
  306HK4    H1425638   8.941   3.952   6.483 -2.0500  0.2171  0.7621
  306HK4    C3225639   9.090   4.054   6.364 -0.7818 -0.1082 -0.1146
  306HK4    H1625640   9.164   3.981   6.396 -0.5850 -0.7324 -1.9204
  306HK4    C3125641   9.115   4.159   6.276 -0.2047  0.0744  0.2623
  306HK4    C3425642   9.228   4.220   6.209 -0.1852  0.0588  0.2754
  306HK4    C3325643   9.189   4.349   6.157  0.3230  0.2667  0.4076
  306HK4    C3525644   9.281   4.421   6.081  0.4200  0.4515  0.6943
  306HK4    H1725645   9.260   4.523   6.050  0.2470  0.2899  0.2795
  306HK4    C3625646   9.408   4.368   6.060  0.2016  0.1721  0.0583
  306HK4    H1825647   9.483   4.433   6.013  0.6124  1.0548  1.8984
  306HK4    C3725648   9.446   4.247   6.116 -0.2605 -0.1289 -0.2672
  306HK4    H1925649   9.541   4.207   6.080 -0.9564 -0.8999 -1.2314
  306HK4    C3825650   9.357   4.170   6.189 -0.3285 -0.0883 -0.3059
  306HK4    H2025651   9.399   4.085   6.243  1.6819 -0.2056 -1.9952
  306HK4    C1425652   8.755   4.141   6.514  0.1165  0.7982  0.1656
  306HK4     C925653   8.752   4.078   6.639  0.0549  0.4491 -0.0114
  306HK4     C825654   8.629   4.025   6.683  0.1426  0.3062  0.0680
  306HK4    C1125655   8.514   4.041   6.605 -0.0040  0.1607  0.2561
  306HK4     H425656   8.426   3.994   6.650  0.2933 -0.0582  0.6188
  306HK4    C1225657   8.512   4.119   6.491  0.3033  0.1347  0.2294
  306HK4     H525658   8.431   4.115   6.416  0.8161 -1.7546 -0.2251
  306HK4    C1325659   8.635   4.167   6.446  0.1701  0.0738 -0.2137
  306HK4     H625660   8.633   4.239   6.363 -1.7398  0.7888  0.4022
  306HK4     C725661   8.628   3.944   6.806 -0.2520  0.2429  0.0227
  306HK4     O225662   8.542   3.855   6.814 -0.2129  0.2156  0.1339
  306HK4     C425663   8.746   3.945   6.895 -0.4543  0.6150  0.2897
  306HK4     C325664   8.720   3.892   7.021  0.2001  0.0559  0.1925
  306HK4     H325665   8.630   3.830   7.038  0.5130 -0.9244 -1.6254
  306HK4     C225666   8.798   3.917   7.133 -0.1945 -0.3126  0.5517
  306HK4     H225667   8.798   3.860   7.227  0.1010 -2.9897 -1.0195
  306HK4     C125668   8.906   3.996   7.097 -0.9344  0.1847 -0.6166
  306HK4     H125669   8.976   4.011   7.181 -1.0162 -0.4740 -0.4323
  306HK4     C625670   8.951   4.042   6.972  0.2223  0.3598 -0.1433
  306HK4     C525671   8.859   4.024   6.868 -0.2527  0.3257  0.2831
  306HK4    C1025672   8.866   4.090   6.734 -0.0687  0.0991  0.1812
  306HK4     O125673   8.961   4.163   6.707 -0.2332  0.0059 -0.6528
  306HK4    C1625674   9.096   4.071   6.973  0.1336  0.8246 -0.3934
  306HK4    C1525675   9.159   4.125   7.087  0.2355  0.1041 -0.1072
  306HK4     H725676   9.110   4.213   7.132  0.4415 -0.2006  0.7176
  306HK4    C2025677   9.285   4.089   7.134  0.0391 -0.7407 -0.2099
  306HK4     H925678   9.327   4.143   7.219  0.2564  0.9723 -1.3915
  306HK4    C1925679   9.364   4.013   7.049  0.2127 -0.2069 -0.5297
  306HK4    C1825680   9.312   3.976   6.919 -0.1615 -0.2024 -0.3827
  306HK4    C1725681   9.180   4.002   6.886 -0.0883  0.3531 -0.2371
  306HK4     H825682   9.147   3.977   6.786 -1.2061 -0.0372  0.2237
  306HK4     N125683   9.408   3.898   6.851 -0.2734 -0.2972 -0.4317
  306HK4    C2125684   9.503   3.859   6.948  0.2422  0.9097 -0.4355
  306HK4    C2225685   9.480   3.929   7.072  0.4626  0.2726 -0.0338
  306HK4    C2625686   9.552   3.912   7.190 -0.2914 -0.4389  0.3302
  306HK4    H1325687   9.544   3.988   7.267  0.4786  0.7474 -0.7410
  306HK4    C2525688   9.653   3.817   7.178  0.1449  0.0475  0.1491
  306HK4    H1225689   9.708   3.790   7.268 -0.6479  0.1782  0.6852
  306HK4    C2425690   9.698   3.757   7.061  0.0233  0.2183  0.0135
  306HK4    H1125691   9.777   3.681   7.057  0.0715  0.1254  2.1513
  306HK4    C2325692   9.619   3.782   6.950 -0.1003  0.4039  0.1427
  306HK4    H1025693   9.649   3.730   6.859 -2.1515 -1.3636  0.4077
  306HK4    C3925694   9.435   3.909   6.714 -0.0814 -0.4489 -0.4051
  306HK4    C4125695   9.407   4.026   6.641 -0.5154 -0.2823  0.0266
  306HK4    H2125696   9.333   4.090   6.691 -1.9730 -0.5960 -1.7135
  306HK4    C4225697   9.455   4.045   6.512 -0.9818 -0.3190 -0.1564
  306HK4    H2225698   9.445   4.144   6.466 -0.5830 -0.4470 -0.5303
  306HK4    C4325699   9.527   3.946   6.446 -0.0591  0.3450 -0.1464
  306HK4    H2325700   9.557   3.972   6.344  0.8439  0.5907  0.1756
  306HK4    C4425701   9.550   3.827   6.513 -0.4331  0.2901 -0.1213
  306HK4    H2425702   9.616   3.751   6.470  3.3730  1.9936  2.4823
  306HK4    C4525703   9.504   3.808   6.643  0.0833 -0.5794 -0.0596
  306HK4    H2525704   9.489   3.705   6.678 -0.9716 -0.7374 -0.9301
  307HK4    H2825705   2.288   3.914   3.149  1.0741  0.9325 -2.1019
  307HK4    C4825706   2.387   3.873   3.164  0.4482  0.1835  0.1886
  307HK4    C4725707   2.498   3.936   3.109  0.2625 -0.0972 -0.5106
  307HK4    H2725708   2.489   4.019   3.037  0.2395  1.0417  0.7890
  307HK4    C4625709   2.626   3.898   3.150  0.0456  0.0965  0.3451
  307HK4    H2625710   2.706   3.973   3.136 -2.0619  2.5568  1.0062
  307HK4    C4025711   2.644   3.787   3.234  0.2277  0.0017  0.1803
  307HK4    C5025712   2.529   3.722   3.284 -0.1474  0.6357  0.1440
  307HK4    H3025713   2.538   3.633   3.347  0.3071  0.0175 -0.7882
  307HK4    C4925714   2.401   3.768   3.255 -0.3644  0.0597  0.1753
  307HK4    H2925715   2.313   3.708   3.281 -0.7457 -0.1434 -1.5240
  307HK4     N225716   2.769   3.724   3.237  0.1539 -0.1541 -0.0519
  307HK4    C3025717   2.866   3.728   3.135 -0.1003 -0.1515 -0.2947
  307HK4    C2925718   2.858   3.776   3.005 -0.4788  0.1875 -0.1457
  307HK4    H1525719   2.758   3.775   2.960 -0.8504 -2.4458  0.6795
  307HK4    C2825720   2.976   3.788   2.932 -0.1964  0.0856  0.2930
  307HK4    C2725721   3.095   3.739   2.987 -0.3612 -0.6115  0.0296
  307HK4    H1425722   3.192   3.762   2.941 -1.7603 -0.8648 -3.1038
  307HK4    C3225723   3.104   3.678   3.112 -0.0650  0.1438  0.3810
  307HK4    H1625724   3.187   3.621   3.154 -0.0684  0.0677  0.2852
  307HK4    C3125725   2.989   3.674   3.190 -0.0779  0.5896  0.3816
  307HK4    C3425726   2.968   3.651   3.332  0.3398  0.6635  0.4563
  307HK4    C3325727   2.829   3.683   3.358 -0.1072 -0.7592 -0.1214
  307HK4    C3525728   2.782   3.663   3.487 -0.1341  0.7809  0.1183
  307HK4    H1725729   2.701   3.728   3.520  0.4276  0.0790  3.0709
  307HK4    C3625730   2.871   3.615   3.582  0.1784  0.4500 -0.3424
  307HK4    H1825731   2.828   3.605   3.683 -1.8978  1.0182 -1.1528
  307HK4    C3725732   3.004   3.580   3.561  0.1118 -0.0687  0.0897
  307HK4    H1925733   3.063   3.527   3.636 -2.9377 -1.3662  1.6525
  307HK4    C3825734   3.047   3.592   3.430  0.0708 -0.3780  0.0463
  307HK4    H2025735   3.150   3.561   3.412 -0.1648 -1.0286 -0.2297
  307HK4    C1425736   2.969   3.855   2.801  0.0043 -0.2755  0.0977
  307HK4     C925737   3.065   3.844   2.700  1.0455  0.8973  0.9338
  307HK4     C825738   3.075   3.940   2.597 -0.4666 -0.0416 -0.1178
  307HK4    C1125739   2.983   4.044   2.596  0.0015  0.3820  0.0918
  307HK4     H425740   2.974   4.101   2.502  0.3045 -0.7392 -0.6329
  307HK4    C1225741   2.888   4.061   2.696 -0.2301 -0.3168  0.0003
  307HK4     H525742   2.818   4.145   2.683  1.7647  1.8400  2.6119
  307HK4    C1325743   2.886   3.969   2.800  0.4705  0.0679  0.3582
  307HK4     H625744   2.806   3.983   2.874 -2.6407  0.8240 -3.0630
  307HK4     C725745   3.194   3.961   2.512 -0.3358  0.2385  0.1322
  307HK4     O225746   3.183   4.015   2.402 -0.3159  0.6068  0.3090
  307HK4     C425747   3.310   3.875   2.545 -0.4079  0.1563  0.1648
  307HK4     C325748   3.436   3.908   2.498 -0.1255 -0.4642  0.4747
  307HK4     H325749   3.453   4.000   2.440 -0.3658 -1.5030 -1.2803
  307HK4     C225750   3.547   3.828   2.523  0.0105 -0.2220  0.6627
  307HK4     H225751   3.647   3.871   2.510  0.2628 -1.0978 -0.4448
  307HK4     C125752   3.529   3.707   2.589 -0.1928 -0.2305  0.5913
  307HK4     H125753   3.619   3.655   2.624 -0.5671 -1.1638  0.2070
  307HK4     C625754   3.398   3.661   2.617 -0.4132 -0.1572 -0.3099
  307HK4     C525755   3.291   3.751   2.609 -0.3038 -0.0117 -0.1298
  307HK4    C1025756   3.164   3.734   2.685  0.0101  0.0321  0.4058
  307HK4     O125757   3.117   3.625   2.720 -0.7739  0.1551 -0.2494
  307HK4    C1625758   3.392   3.527   2.676  0.2289  0.0633  0.2675
  307HK4    C1525759   3.503   3.473   2.744  0.3788  0.1610  0.1011
  307HK4     H725760   3.568   3.534   2.807 -1.1071  1.9175 -0.0161
  307HK4    C2025761   3.550   3.343   2.729  0.4555  0.2083 -0.0696
  307HK4     H925762   3.634   3.306   2.787  0.3633  0.1621  0.0369
  307HK4    C1925763   3.472   3.257   2.652 -0.2852  0.0342  0.8616
  307HK4    C1825764   3.343   3.298   2.600 -0.0624  0.0205  0.2915
  307HK4    C1725765   3.312   3.434   2.610  0.5095  0.1919 -0.2567
  307HK4     H825766   3.223   3.471   2.559 -0.3596 -0.9907  0.3709
  307HK4     N125767   3.276   3.189   2.542  0.1414 -0.3226  0.7071
  307HK4    C2125768   3.361   3.076   2.549  0.2786 -0.2828 -0.3027
  307HK4    C2225769   3.486   3.120   2.608  0.1542  0.5384 -0.6342
  307HK4    C2625770   3.586   3.023   2.608 -0.8130 -0.4748 -0.0599
  307HK4    H1325771   3.686   3.064   2.602 -1.0349  0.0615 -0.1652
  307HK4    C2525772   3.573   2.889   2.573 -0.1928 -0.4720 -0.3131
  307HK4    H1225773   3.649   2.817   2.603  1.2826  1.1779 -0.0592
  307HK4    C2425774   3.455   2.846   2.513  0.1560 -0.5422 -0.9482
  307HK4    H1125775   3.438   2.746   2.472  0.9983 -0.2650 -1.9925
  307HK4    C2325776   3.354   2.942   2.513  0.2325 -0.4531  0.3304
  307HK4    H1025777   3.250   2.919   2.489  0.2057  1.1622 -1.2440
  307HK4    C3925778   3.136   3.179   2.534  0.1623  0.2316 -0.2912
  307HK4    C4125779   3.071   3.088   2.448  0.3660 -0.1669 -0.0271
  307HK4    H2125780   3.127   3.054   2.359 -1.1843  0.5639 -1.3122
  307HK4    C4225781   2.934   3.068   2.458  0.2761  0.1841 -0.5213
  307HK4    H2225782   2.889   2.980   2.410 -1.3571  0.3127  0.7265
  307HK4    C4325783   2.858   3.139   2.550  0.4531  0.3255 -0.4835
  307HK4    H2325784   2.753   3.119   2.569  0.7244  0.3713  1.1420
  307HK4    C4425785   2.922   3.229   2.634 -0.2255  0.4694 -0.1173
  307HK4    H2425786   2.873   3.259   2.728  1.1759 -0.1982  0.8482
  307HK4    C4525787   3.060   3.250   2.628 -0.0628 -0.5179  0.0903
  307HK4    H2525788   3.102   3.331   2.689 -1.4433 -1.7047  2.7613
  308HK4    H2825789   5.602   5.820  10.776 -0.4952 -0.5402  1.0721
  308HK4    C4825790   5.512   5.791  10.720 -0.3640 -1.1103  1.1458
  308HK4    C4725791   5.396   5.867  10.725  0.0312 -0.3877 -0.3126
  308HK4    H2725792   5.395   5.953  10.794 -2.1966  1.5294 -2.6245
  308HK4    C4625793   5.282   5.829  10.654 -0.1688 -0.1113 -0.1388
  308HK4    H2625794   5.193   5.894  10.650  0.5163  1.1287  2.8810
  308HK4    C4025795   5.277   5.716  10.571 -0.0490 -0.0377 -0.2480
  308HK4    C5025796   5.400   5.648  10.560 -0.1182 -0.0836 -0.7426
  308HK4    H3025797   5.395   5.543  10.528  1.9621  0.2147 -2.2019
  308HK4    C4925798   5.515   5.689  10.626 -0.3338  0.6548 -0.8211
  308HK4    H2925799   5.589   5.608  10.634  0.3944  1.2245 -1.6538
  308HK4     N225800   5.158   5.665  10.519 -0.3745  0.3768  0.0887
  308HK4    C3025801   5.031   5.675  10.579 -0.3533 -0.0615  0.2082
  308HK4    C2925802   4.992   5.659  10.711 -0.0493 -0.7021  0.2251
  308HK4    H1525803   5.064   5.611  10.778  0.3805 -1.4048 -0.7417
  308HK4    C2825804   4.864   5.685  10.760  0.0825 -0.0869  0.2513
  308HK4    C2725805   4.777   5.732  10.660 -0.0450  0.1650  0.4825
  308HK4    H1425806   4.687   5.787  10.692 -0.2544  0.7477 -1.0296
  308HK4    C3225807   4.801   5.729  10.523 -0.3967 -0.7826  0.4430
  308HK4    H1625808   4.718   5.750  10.455 -0.9528  0.4465  1.4961
  308HK4    C3125809   4.927   5.690  10.479 -0.1687  0.3510  0.0806
  308HK4    C3425810   4.993   5.684  10.349 -0.5264  0.2705 -0.0984
  308HK4    C3325811   5.133   5.663  10.380 -0.6663 -0.3310  0.1464
  308HK4    C3525812   5.219   5.640  10.273  0.1858 -0.5806  0.8777
  308HK4    H1725813   5.326   5.640  10.294  0.4589  0.3701 -0.4870
  308HK4    C3625814   5.176   5.639  10.141 -0.2200 -0.5012  1.0084
  308HK4    H1825815   5.238   5.622  10.051 -1.3500  1.1574 -0.1164
  308HK4    C3725816   5.041   5.659  10.117  0.0970  0.5662  0.0566
  308HK4    H1925817   5.012   5.661  10.012  0.5061 -2.2115 -0.1412
  308HK4    C3825818   4.949   5.688  10.218 -0.4726 -0.5346 -0.1403
  308HK4    H2025819   4.854   5.730  10.184  0.3127  2.2135  0.9307
  308HK4    C1425820   4.816   5.633  10.888  0.1434 -0.7918 -0.0100
  308HK4     C925821   4.681   5.623  10.921  0.1323 -0.3000  0.0959
  308HK4     C825822   4.646   5.635  11.058 -0.0542 -0.5680  0.0728
  308HK4    C1125823   4.739   5.620  11.160  0.0531  0.2796  0.1016
  308HK4     H425824   4.708   5.616   0.017  2.6448  1.6675  0.9693
  308HK4    C1225825   4.868   5.588  11.121  0.1494  0.3534  0.3578
  308HK4     H525826   4.938   5.555  11.199  0.9430 -0.6758 -0.7538
  308HK4    C1325827   4.911   5.610  10.990  0.0691  0.5319  0.3636
  308HK4     H625828   5.011   5.653  10.978  0.6699 -0.1037  2.8088
  308HK4     C725829   4.509   5.673  11.098  0.0238 -0.1482 -0.0553
  308HK4     O225830   4.491   5.725  11.208  0.4068  0.0222 -0.0710
  308HK4     C425831   4.402   5.681  10.996 -0.0960  0.1274  0.0954
  308HK4     C325832   4.270   5.698  11.039 -0.2210 -0.9780  0.1469
  308HK4     H325833   4.247   5.697  11.146  2.3115 -0.0139  0.7448
  308HK4     C225834   4.166   5.696  10.946 -0.2028  0.1945  0.1033
  308HK4     H225835   4.064   5.679  10.981  0.5036 -2.6158  0.9172
  308HK4     C125836   4.203   5.687  10.812  0.2686  0.5473  0.2033
  308HK4     H125837   4.119   5.673  10.742 -0.3237  0.6353  0.8887
  308HK4     C625838   4.334   5.669  10.764  0.1080 -0.3416  0.0901
  308HK4     C525839   4.432   5.653  10.862 -0.0046 -0.3217  0.2063
  308HK4    C1025840   4.569   5.607  10.824  0.1403  0.2834 -0.0104
  308HK4     O125841   4.577   5.502  10.762 -0.6302  0.4352 -0.3813
  308HK4    C1625842   4.350   5.721  10.627  0.4939 -0.3298  0.1411
  308HK4    C1525843   4.252   5.806  10.571  0.4241 -0.5467 -0.0660
  308HK4     H725844   4.196   5.875  10.636 -0.5338  0.1776 -1.6403
  308HK4    C2025845   4.220   5.812  10.436 -0.0369 -0.7141  0.0355
  308HK4     H925846   4.160   5.894  10.397 -0.5149 -1.0126  0.1378
  308HK4    C1925847   4.283   5.731  10.343  0.2308 -0.3391 -0.1058
  308HK4    C1825848   4.396   5.658  10.397 -0.1407 -0.6406  0.2581
  308HK4    C1725849   4.428   5.655  10.533  0.3640 -0.4862  0.1469
  308HK4     H825850   4.525   5.625  10.570 -0.6991 -1.2158  2.4058
  308HK4     N125851   4.470   5.587  10.300 -0.0490 -0.3788  0.1409
  308HK4    C2125852   4.399   5.603  10.180  0.3011  0.0021 -0.0169
  308HK4    C2225853   4.291   5.697  10.202  0.4442  0.2157 -0.2300
  308HK4    C2625854   4.197   5.724  10.103  0.0779  0.5778  0.2109
  308HK4    H1325855   4.118   5.790  10.139  0.3604  0.4453  1.1055
  308HK4    C2525856   4.209   5.656   9.983 -0.0860 -0.0281  0.5354
  308HK4    H1225857   4.141   5.679   9.900  0.0051 -2.7063 -0.3400
  308HK4    C2425858   4.307   5.559   9.969  0.2033  0.3419 -0.0441
  308HK4    H1125859   4.330   5.541   9.862 -0.6036  0.0882 -0.1768
  308HK4    C2325860   4.401   5.524  10.065  0.0595  0.0071 -0.0282
  308HK4    H1025861   4.418   5.418  10.084 -0.4401  0.2637  2.0689
  308HK4    C3925862   4.554   5.480  10.333  0.4207 -0.0904 -0.0985
  308HK4    C4125863   4.660   5.442  10.248 -0.2102 -0.4089 -0.7581
  308HK4    H2125864   4.693   5.508  10.167 -1.4934  0.7183 -0.3895
  308HK4    C4225865   4.744   5.336  10.281 -0.1248  0.0379  0.4878
  308HK4    H2225866   4.826   5.306  10.214  1.1339  3.4229  0.4150
  308HK4    C4325867   4.718   5.259  10.393 -0.0149 -0.6826  0.0224
  308HK4    H2325868   4.779   5.169  10.404  0.9090 -0.2930 -1.8941
  308HK4    C4425869   4.615   5.291  10.481  0.1405  0.4835 -0.2229
  308HK4    H2425870   4.574   5.217  10.552 -2.1682  2.5402  0.6853
  308HK4    C4525871   4.535   5.400  10.447  0.0218  0.5565  0.2891
  308HK4    H2525872   4.442   5.414  10.505 -0.7946  0.8097 -1.0487
  309HK4    H2825873   5.654   9.444   4.160 -0.1885 -1.1260  0.9788
  309HK4    C4825874   5.763   9.431   4.162 -0.0135 -0.0063 -0.2665
  309HK4    C4725875   5.839   9.502   4.254 -0.0926 -0.2062 -0.0441
  309HK4    H2725876   5.797   9.576   4.324  0.7972  0.4534 -0.1930
  309HK4    C4625877   5.974   9.471   4.263 -0.1276 -0.2857  0.1793
  309HK4    H2625878   6.035   9.520   4.341  1.7227  0.9499 -1.9816
  309HK4    C4025879   6.036   9.365   4.193 -0.5278 -1.1147  1.0610
  309HK4    C5025880   5.951   9.291   4.109 -0.0197 -0.6362  0.1298
  309HK4    H3025881   5.989   9.229   4.026 -0.0518 -0.2427 -0.1871
  309HK4    C4925882   5.817   9.324   4.092 -0.1659 -0.8450  0.8820
  309HK4    H2925883   5.758   9.266   4.020  0.0091  1.8674 -1.5611
  309HK4     N225884   6.175   9.353   4.180 -0.5150 -0.6446  0.7451
  309HK4    C3025885   6.263   9.457   4.214 -0.4753 -0.2224 -0.6179
  309HK4    C2925886   6.249   9.595   4.220  0.5985 -0.1199 -0.2570
  309HK4    H1525887   6.150   9.628   4.188 -0.4856 -1.4639  1.6041
  309HK4    C2825888   6.355   9.678   4.254  0.3320  0.3058 -0.4657
  309HK4    C2725889   6.484   9.624   4.270  0.2811  0.2355 -0.2935
  309HK4    H1425890   6.565   9.691   4.302 -1.2466  2.0327 -0.0886
  309HK4    C3225891   6.500   9.486   4.263 -0.0683  0.1804 -0.0264
  309HK4    H1625892   6.601   9.447   4.260 -0.6061 -1.2813  0.2505
  309HK4    C3125893   6.394   9.399   4.240 -0.1968  0.4608 -0.4804
  309HK4    C3425894   6.386   9.255   4.227  0.4905  0.3698  0.0544
  309HK4    C3325895   6.248   9.232   4.189  0.6731 -0.0298 -0.3790
  309HK4    C3525896   6.214   9.098   4.178 -0.0555  0.0979  0.2539
  309HK4    H1725897   6.107   9.074   4.175 -0.7169  3.1035 -3.3397
  309HK4    C3625898   6.305   8.993   4.186  0.2252  0.2392 -0.9654
  309HK4    H1825899   6.289   8.901   4.129  0.0236 -0.2644 -0.1085
  309HK4    C3725900   6.437   9.018   4.222  0.1736  0.1057 -0.6789
  309HK4    H1925901   6.506   8.933   4.218 -1.9868 -1.6855 -0.8188
  309HK4    C3825902   6.474   9.150   4.245  0.2392  0.0581 -0.5188
  309HK4    H2025903   6.579   9.177   4.259  0.0202  1.8722 -2.2836
  309HK4    C1425904   6.334   9.818   4.213 -0.1551  0.3948  0.0836
  309HK4     C925905   6.440   9.894   4.161  0.3791 -0.0564  0.5073
  309HK4     C825906   6.453  10.034   4.172  0.4433  0.0008 -0.2543
  309HK4    C1125907   6.342  10.096   4.226  0.1455 -0.8125  0.0747
  309HK4     H425908   6.324  10.202   4.205 -1.2499 -1.1194 -0.3803
  309HK4    C1225909   6.237  10.026   4.284 -0.2916 -0.1507  0.0898
  309HK4     H525910   6.153  10.081   4.329 -0.7183  1.3549 -2.4426
  309HK4    C1325911   6.230   9.887   4.278 -0.4865 -0.1429  0.1229
  309HK4     H625912   6.146   9.827   4.318 -0.3470 -1.7535 -1.9012
  309HK4     C725913   6.576  10.105   4.129  0.3585  0.1827 -0.1895
  309HK4     O225914   6.564  10.224   4.098  0.5639  0.0671 -0.7110
  309HK4     C425915   6.691  10.026   4.081  0.1184 -0.4377  0.2580
  309HK4     C325916   6.818  10.081   4.074 -0.0256 -0.1558 -0.1854
  309HK4     H325917   6.827  10.189   4.088 -1.5674 -0.1847  1.1768
  309HK4     C225918   6.926   9.998   4.046  0.1528 -0.1739  0.5382
  309HK4     H225919   7.023  10.046   4.026 -0.0395 -0.5430 -1.4363
  309HK4     C125920   6.906   9.866   4.008 -0.0236  0.0918 -0.3088
  309HK4     H125921   6.987   9.800   3.975  1.6639  2.1462 -0.3535
  309HK4     C625922   6.777   9.809   4.008  0.0016  0.0302  0.3411
  309HK4     C525923   6.669   9.892   4.041 -0.3744 -0.1927 -0.3147
  309HK4    C1025924   6.534   9.834   4.062 -0.3878 -0.1186 -0.1887
  309HK4     O125925   6.489   9.768   3.968  0.2652 -0.2064 -0.4401
  309HK4    C1625926   6.784   9.665   4.038 -0.1236  0.0078  0.2812
  309HK4    C1525927   6.880   9.613   4.127  0.3333  0.3680  0.0037
  309HK4     H725928   6.920   9.685   4.200 -1.0219  1.9931 -0.8273
  309HK4    C2025929   6.900   9.476   4.145 -0.9412  0.1859  0.0518
  309HK4     H925930   6.981   9.436   4.206  0.1820  0.5162 -1.1870
  309HK4    C1925931   6.820   9.386   4.076  0.0410 -0.2372 -0.5325
  309HK4    C1825932   6.723   9.436   3.981  0.0912  0.1460 -0.3796
  309HK4    C1725933   6.710   9.574   3.964  0.2857  0.1728 -0.3322
  309HK4     H825934   6.645   9.617   3.888  0.8542  0.0881 -0.8712
  309HK4     N125935   6.669   9.336   3.898  0.4717 -0.1200 -0.3014
  309HK4    C2125936   6.716   9.217   3.959 -0.4279 -0.2300  0.1874
  309HK4    C2225937   6.807   9.242   4.070  0.3156 -0.2676 -0.4117
  309HK4    C2625938   6.851   9.134   4.146  0.4939 -0.2527 -0.4917
  309HK4    H1325939   6.907   9.150   4.237 -2.6874 -0.0211  1.4990
  309HK4    C2525940   6.797   9.008   4.121  0.2567 -0.1967 -0.2622
  309HK4    H1225941   6.834   8.921   4.176 -0.0412 -0.1378  0.0333
  309HK4    C2425942   6.722   8.982   4.007  0.0341 -0.3568 -0.0792
  309HK4    H1125943   6.682   8.883   3.981 -0.8506 -0.2208  0.7065
  309HK4    C2325944   6.677   9.088   3.928 -0.0829 -0.3050  0.0570
  309HK4    H1025945   6.620   9.064   3.839 -0.9263 -0.7432  0.7104
  309HK4    C3925946   6.574   9.350   3.797  0.6097  0.9303 -0.2910
  309HK4    C4125947   6.569   9.256   3.691 -0.3543  0.1917  0.4004
  309HK4    H2125948   6.647   9.179   3.681 -0.8388 -0.0918 -1.4071
  309HK4    C4225949   6.460   9.253   3.605 -0.2327 -0.3064  0.2654
  309HK4    H2225950   6.466   9.192   3.513  1.8865 -0.5325  0.5109
  309HK4    C4325951   6.349   9.330   3.635  0.1051  0.0408  0.6321
  309HK4    H2325952   6.266   9.319   3.565  0.3254  1.4036  0.1508
  309HK4    C4425953   6.339   9.408   3.750 -0.0626  0.4820  0.3187
  309HK4    H2425954   6.245   9.451   3.788 -0.4900 -1.7779  1.9196
  309HK4    C4525955   6.454   9.416   3.828  0.1170 -0.1555  0.1254
  309HK4    H2525956   6.448   9.488   3.911  0.5479 -1.5690  1.4129
  310HK4    H2825957   9.177   8.851   7.464 -0.7541  0.4529  1.3257
  310HK4    C4825958   9.237   8.768   7.500  0.2768  0.3418 -0.5759
  310HK4    C4725959   9.373   8.795   7.517  0.2166  0.2366  0.0879
  310HK4    H2725960   9.410   8.876   7.452  1.6865  0.1847  0.8522
  310HK4    C4625961   9.457   8.712   7.589 -0.4660 -0.2329  0.3532
  310HK4    H2625962   9.563   8.742   7.590 -0.4552 -0.2436 -0.0688
  310HK4    C4025963   9.413   8.595   7.655 -0.2068 -0.2233  0.5413
  310HK4    C5025964   9.275   8.574   7.640 -0.1875  0.0225 -0.0234
  310HK4    H3025965   9.227   8.516   7.721 -0.6637 -0.5442 -0.7097
  310HK4    C4925966   9.190   8.655   7.566  0.3135  0.7929  0.2393
  310HK4    H2925967   9.087   8.623   7.546  0.4347 -0.0950  1.0319
  310HK4     N225968   9.498   8.496   7.705  0.0025 -0.0537  0.5167
  310HK4    C3025969   9.634   8.478   7.669 -0.1929 -0.0071 -0.2586
  310HK4    C2925970   9.708   8.515   7.558 -0.4497  0.0042 -0.4252
  310HK4    H1525971   9.657   8.565   7.475 -0.1796 -0.6962 -1.0167
  310HK4    C2825972   9.842   8.483   7.540 -0.5057 -0.5128  0.0644
  310HK4    C2725973   9.900   8.402   7.640 -0.2073 -0.3207  0.0443
  310HK4    H1425974  10.003   8.368   7.626  0.1539  0.3486  0.9785
  310HK4    C3225975   9.832   8.360   7.754  0.1621  0.1864  0.4545
  310HK4    H1625976   9.887   8.299   7.826  1.8242  1.9276  0.7023
  310HK4    C3125977   9.698   8.395   7.769  0.0851  0.2194 -0.2503
  310HK4    C3425978   9.590   8.350   7.854  0.0413  0.0460 -0.4021
  310HK4    C3325979   9.472   8.429   7.826 -0.2030  0.0100  0.5086
  310HK4    C3525980   9.361   8.414   7.909 -0.5338 -0.1877  0.0326
  310HK4    H1725981   9.281   8.487   7.916 -0.3296 -0.0614  1.2436
  310HK4    C3625982   9.367   8.323   8.013 -0.1813 -0.3305 -0.1114
  310HK4    H1825983   9.285   8.307   8.085  0.0591 -1.4804 -0.0704
  310HK4    C3725984   9.476   8.242   8.043 -0.3338 -0.6050 -0.3062
  310HK4    H1925985   9.487   8.185   8.135  1.0224  0.4820  0.2206
  310HK4    C3825986   9.585   8.257   7.958 -0.5421 -0.0018 -0.4689
  310HK4    H2025987   9.674   8.194   7.968  0.5735  1.9231  2.4624
  310HK4    C1425988   9.908   8.511   7.412  0.0956  0.3086  0.5560
  310HK4     C925989  10.003   8.433   7.346 -0.6446  0.2101 -0.3938
  310HK4     C825990  10.104   8.493   7.268 -0.3538  0.0558 -0.1320
  310HK4    C1125991  10.095   8.629   7.238 -0.2067  0.1702  0.3361
  310HK4     H425992  10.178   8.680   7.187 -0.8959 -1.2467 -2.3027
  310HK4    C1225993   9.988   8.702   7.288 -0.0055  0.5372  0.2390
  310HK4     H525994   9.971   8.800   7.241 -1.3309  0.2954  0.1952
  310HK4    C1325995   9.894   8.646   7.374 -0.0053  0.1286 -0.0289
  310HK4     H625996   9.803   8.701   7.402  0.3829  0.3466  0.8383
  310HK4     C725997  10.217   8.412   7.218  0.0197  0.3450  0.2374
  310HK4     O225998  10.284   8.448   7.120  0.3240 -0.4568  0.1423
  310HK4     C425999  10.221   8.270   7.259 -0.3194  0.2961  0.1151
  310HK4     C326000  10.346   8.209   7.254 -0.5278 -0.0680 -0.6733
  310HK4     H326001  10.432   8.275   7.236  0.1756 -1.0565 -0.9802
  310HK4     C226002  10.348   8.073   7.286 -0.4416  0.0189 -0.3016
  310HK4     H226003  10.447   8.029   7.265 -0.3426 -1.6240  3.3007
  310HK4     C126004  10.231   8.000   7.298 -0.0935 -0.3159  1.1233
  310HK4     H126005  10.247   7.902   7.346 -0.5184 -0.3528  1.1892
  310HK4     C626006  10.105   8.062   7.283  0.1068 -0.1731 -0.0695
  310HK4     C526007  10.101   8.202   7.285 -0.0909 -0.1772 -0.0571
  310HK4    C1026008   9.988   8.285   7.338  0.1517  0.1032  0.0208
  310HK4     O126009   9.874   8.240   7.342  0.2850 -0.2619 -0.2015
  310HK4    C1626010   9.991   7.972   7.306  0.2930 -0.3438  0.1793
  310HK4    C1526011   9.999   7.853   7.380 -0.7381 -0.0424  0.7719
  310HK4     H726012  10.053   7.855   7.476 -1.1973 -0.1286  1.0338
  310HK4    C2026013   9.909   7.747   7.369 -0.2261 -0.4166  0.1621
  310HK4     H926014   9.946   7.655   7.415  2.2913  0.6898  0.4309
  310HK4    C1926015   9.804   7.758   7.278 -0.0210  0.0892 -0.0177
  310HK4    C1826016   9.785   7.879   7.201 -0.4723 -0.0796 -0.1724
  310HK4    C1726017   9.881   7.978   7.221 -0.2510 -0.5061  0.8704
  310HK4     H826018   9.874   8.061   7.151  0.7741 -0.9971  0.1696
  310HK4     N126019   9.668   7.875   7.122 -0.2368  0.1147 -0.5392
  310HK4    C2126020   9.618   7.745   7.143  0.3157 -0.1074 -0.5979
  310HK4    C2226021   9.695   7.670   7.241 -0.6154  0.5476  0.6381
  310HK4    C2626022   9.657   7.543   7.280  0.3522 -0.0185 -0.2503
  310HK4    H1326023   9.695   7.509   7.377 -0.4592 -1.9195 -0.5675
  310HK4    C2526024   9.539   7.491   7.229  0.1886  0.1321 -0.0299
  310HK4    H1226025   9.482   7.414   7.282 -1.8553  0.8425 -1.1194
  310HK4    C2426026   9.469   7.557   7.129  0.0183 -0.5651 -0.3707
  310HK4    H1126027   9.382   7.504   7.086 -0.5527 -1.2438  1.5837
  310HK4    C2326028   9.507   7.684   7.086 -0.3323 -0.1114  0.6398
  310HK4    H1026029   9.481   7.714   6.984  0.7667  0.0163  0.3874
  310HK4    C3926030   9.603   7.984   7.064 -0.1795  0.4000 -0.0738
  310HK4    C4126031   9.516   7.967   6.954 -0.5931  0.0152  0.3134
  310HK4    H2126032   9.539   7.902   6.868  0.0785  2.3594 -1.3080
  310HK4    C4226033   9.409   8.053   6.936 -0.4189  0.0403 -0.6243
  310HK4    H2226034   9.341   8.035   6.851  0.0192 -0.9530 -0.7613
  310HK4    C4326035   9.392   8.158   7.026  0.9241 -0.2473 -0.0218
  310HK4    H2326036   9.313   8.230   7.004  0.1054 -0.4291  2.2198
  310HK4    C4426037   9.474   8.179   7.136  0.0993  0.2231  0.5070
  310HK4    H2426038   9.463   8.276   7.186 -1.7047 -0.6420  1.8373
  310HK4    C4526039   9.582   8.093   7.150  0.3890  0.4863 -0.0456
  310HK4    H2526040   9.668   8.130   7.209  1.6198  3.0996 -3.3160
  311HK4    H2826041   3.413   9.602   9.642  0.8604  1.1784 -0.2624
  311HK4    C4826042   3.458   9.581   9.739  0.1696  0.4662 -0.0843
  311HK4    C4726043   3.546   9.476   9.761 -0.5216 -0.0077  0.4824
  311HK4    H2726044   3.581   9.409   9.681 -2.0244  0.1079 -0.2910
  311HK4    C4626045   3.607   9.459   9.885  0.4385 -0.5426 -0.0538
  311HK4    H2626046   3.676   9.376   9.902  0.3865 -0.7446 -0.8044
  311HK4    C4026047   3.571   9.544   9.991 -0.1214  0.0351 -0.6939
  311HK4    C5026048   3.482   9.650   9.967 -0.2391  0.1874  0.3722
  311HK4    H3026049   3.432   9.702  10.050  1.7963  0.9552  1.1457
  311HK4    C4926050   3.422   9.668   9.842  0.1177  0.1171  0.1896
  311HK4    H2926051   3.356   9.754   9.827 -1.2985 -0.8412  0.7621
  311HK4     N226052   3.572   9.502  10.125  0.0382  0.5328 -0.5368
  311HK4    C3026053   3.547   9.366  10.152  0.1904  0.5552 -0.2860
  311HK4    C2926054   3.450   9.278  10.107  0.0910  0.2082  0.5791
  311HK4    H1526055   3.406   9.302  10.010  1.8377 -1.3406 -0.6365
  311HK4    C2826056   3.424   9.155  10.165 -0.4633  0.0547  0.0071
  311HK4    C2726057   3.487   9.130  10.289  0.0023  0.0304 -0.2324
  311HK4    H1426058   3.460   9.036  10.339  0.2427 -0.5066 -1.1044
  311HK4    C3226059   3.584   9.214  10.342  0.2173 -0.0486 -0.5008
  311HK4    H1626060   3.647   9.170  10.419  0.7717  1.3309 -0.1505
  311HK4    C3126061   3.613   9.334  10.278  0.0544  0.0783 -0.3357
  311HK4    C3426062   3.684   9.453  10.321  0.3379 -0.0837 -0.3528
  311HK4    C3326063   3.648   9.560  10.229  0.1988 -0.0905 -0.3098
  311HK4    C3526064   3.703   9.686  10.247  0.4302 -0.2193 -0.1264
  311HK4    H1726065   3.686   9.759  10.168 -0.3533 -1.3398 -1.0087
  311HK4    C3626066   3.789   9.712  10.353  0.8281 -0.6324 -0.3477
  311HK4    H1826067   3.832   9.812  10.368  0.9641 -0.3506 -2.5203
  311HK4    C3726068   3.822   9.604  10.434  0.6393 -0.1475  0.3842
  311HK4    H1926069   3.874   9.637  10.524 -0.1824  0.4424  0.6379
  311HK4    C3826070   3.777   9.473  10.422 -0.0014  0.1188 -0.0835
  311HK4    H2026071   3.797   9.399  10.500  1.4647 -1.0284 -1.5196
  311HK4    C1426072   3.332   9.065  10.093 -0.2692  0.0596 -0.2439
  311HK4     C926073   3.278   8.954  10.159  0.2236 -0.0524 -0.0244
  311HK4     C826074   3.277   8.824  10.105  0.3186 -0.2357  0.4163
  311HK4    C1126075   3.337   8.802   9.982 -0.7413  0.6028 -0.2629
  311HK4     H426076   3.345   8.698   9.946  0.8418  0.3334  0.8071
  311HK4    C1226077   3.385   8.912   9.912  0.1272 -0.0109 -0.6470
  311HK4     H526078   3.424   8.898   9.810  0.6164  0.6775 -0.5552
  311HK4    C1326079   3.373   9.042   9.960 -0.4847 -0.2030 -0.2650
  311HK4     H626080   3.385   9.127   9.891 -0.8530  0.2450  0.2263
  311HK4     C726081   3.216   8.711  10.179 -0.2497 -0.3826 -0.2699
  311HK4     O226082   3.197   8.603  10.124 -0.3603 -0.7060  0.4044
  311HK4     C426083   3.180   8.729  10.322 -0.5377  0.0659 -0.3963
  311HK4     C326084   3.129   8.625  10.397 -0.1855  0.3320  0.2219
  311HK4     H326085   3.144   8.522  10.361  2.8611  0.3290  1.3977
  311HK4     C226086   3.063   8.646  10.518 -0.6118  0.3992 -0.0201
  311HK4     H226087   2.984   8.578  10.553 -1.3981  0.9632 -0.6949
  311HK4     C126088   3.078   8.770  10.579  0.4042  0.2346  0.0815
  311HK4     H126089   3.053   8.785  10.685  0.4455  0.6223  0.0402
  311HK4     C626090   3.148   8.873  10.512  0.7114 -0.2780 -0.3888
  311HK4     C526091   3.181   8.859  10.377  0.2361  0.1291 -0.5508
  311HK4    C1026092   3.209   8.977  10.289  0.0173  0.4339 -0.2163
  311HK4     O126093   3.123   9.064  10.289  0.0154  0.4370  0.6003
  311HK4    C1626094   3.207   8.977  10.598 -0.3709 -0.0261  0.0558
  311HK4    C1526095   3.273   8.939  10.716  0.1614  0.2738 -0.1356
  311HK4     H726096   3.324   8.841  10.716  0.0175  0.1917  1.0106
  311HK4    C2026097   3.289   9.024  10.825 -1.3173 -0.1533  0.4292
  311HK4     H926098   3.299   8.974  10.921  1.7031 -0.0106  0.2428
  311HK4    C1926099   3.256   9.159  10.814  0.2420  0.2161  0.1628
  311HK4    C1826100   3.208   9.202  10.684  0.1511  0.0694  0.1495
  311HK4    C1726101   3.178   9.112  10.583 -0.3242  0.0143  0.3331
  311HK4     H826102   3.122   9.154  10.499  2.8950  0.8672 -1.5130
  311HK4     N126103   3.191   9.342  10.690  0.3895  0.1153 -0.2110
  311HK4    C2126104   3.244   9.386  10.813 -0.7220 -0.1388  0.3630
  311HK4    C2226105   3.284   9.274  10.897 -0.0317  0.1188  0.3861
  311HK4    C2626106   3.297   9.288  11.035 -0.3662  0.0010  0.4305
  311HK4    H1326107   3.299   9.204  11.103 -1.5780  0.1889  0.7131
  311HK4    C2526108   3.269   9.413  11.091 -0.6410  0.0456  0.1904
  311HK4    H1226109   3.241   9.417  11.196 -0.2521  0.0407  0.2953
  311HK4    C2426110   3.233   9.523  11.014 -0.3736 -0.1499 -0.2135
  311HK4    H1126111   3.191   9.607  11.070  0.8612 -1.2788  2.5034
  311HK4    C2326112   3.222   9.508  10.876  0.0794  0.3563 -0.3118
  311HK4    H1026113   3.207   9.599  10.819 -0.2862  0.7547  0.4103
  311HK4    C3926114   3.186   9.429  10.580  0.5284  0.3920  0.0000
  311HK4    C4126115   3.122   9.554  10.580  0.5532  0.4045  0.4416
  311HK4    H2126116   3.030   9.557  10.640 -0.9673  1.0549 -1.8767
  311HK4    C4226117   3.123   9.650  10.479  0.0057 -0.0270  0.0234
  311HK4    H2226118   3.076   9.750  10.478  0.6332  0.2556 -1.3400
  311HK4    C4326119   3.186   9.611  10.362 -0.4437  0.0621 -0.2511
  311HK4    H2326120   3.175   9.672  10.272  0.1886  2.0775  0.9915
  311HK4    C4426121   3.252   9.489  10.352  0.8763  0.7444 -0.1151
  311HK4    H2426122   3.271   9.456  10.249  0.1380  0.6707 -0.2322
  311HK4    C4526123   3.257   9.402  10.461 -0.4200  0.1491 -0.5150
  311HK4    H2526124   3.316   9.310  10.459 -2.8704 -1.4478 -0.6916
  312HK4    H2826125   3.319   6.807   5.204 -0.7465 -1.6947 -1.4277
  312HK4    C4826126   3.392   6.729   5.228 -0.0118 -0.4098  0.6105
  312HK4    C4726127   3.457   6.727   5.351  0.2289  0.0310  0.4940
  312HK4    H2726128   3.492   6.823   5.391 -1.3808  1.0098 -0.4061
  312HK4    C4626129   3.511   6.607   5.395  0.3629 -0.0525  0.1063
  312HK4    H2626130   3.552   6.610   5.497 -2.3292 -0.5514  1.2557
  312HK4    C4026131   3.504   6.487   5.322  0.5075 -0.1782  0.2975
  312HK4    C5026132   3.449   6.495   5.192 -0.3332 -0.5233  0.6293
  312HK4    H3026133   3.476   6.423   5.114 -1.3761 -0.0054 -0.2297
  312HK4    C4926134   3.390   6.614   5.150  0.1881 -0.3194  0.4753
  312HK4    H2926135   3.334   6.625   5.057 -1.7445 -0.5707  1.5866
  312HK4     N226136   3.570   6.367   5.350 -0.0932 -0.4937  0.3833
  312HK4    C3026137   3.680   6.359   5.438  0.4560  0.0180 -0.2512
  312HK4    C2926138   3.771   6.460   5.468 -0.3381  0.6690 -0.0436
  312HK4    H1526139   3.772   6.554   5.413  0.7847  0.4359 -0.4203
  312HK4    C2826140   3.880   6.446   5.552 -0.1864  0.4354 -0.2780
  312HK4    C2726141   3.898   6.312   5.594  0.3275  0.2766 -0.9967
  312HK4    H1426142   3.978   6.299   5.667  1.7165  0.9367 -2.3709
  312HK4    C3226143   3.813   6.207   5.564  0.1380  0.1514 -0.0350
  312HK4    H1626144   3.842   6.107   5.596 -1.2108 -1.5840 -3.8146
  312HK4    C3126145   3.692   6.227   5.498 -0.0341  0.2263  0.3040
  312HK4    C3426146   3.593   6.144   5.432  0.4487 -0.0806 -0.0390
  312HK4    C3326147   3.521   6.235   5.345 -0.0317 -0.5047 -0.0841
  312HK4    C3526148   3.400   6.184   5.299 -0.2225 -0.1435  0.0199
  312HK4    H1726149   3.348   6.239   5.220  0.5376 -0.1913 -0.5116
  312HK4    C3626150   3.358   6.054   5.326 -0.6402  0.1115  0.6307
  312HK4    H1826151   3.283   6.013   5.257  1.3676 -0.7922 -1.0530
  312HK4    C3726152   3.435   5.970   5.405  0.4524  0.7600  0.2751
  312HK4    H1926153   3.398   5.873   5.440  0.8389  1.1552  1.8336
  312HK4    C3826154   3.558   6.011   5.453  1.0547 -0.2904 -0.3532
  312HK4    H2026155   3.603   5.950   5.532 -1.2211 -0.1440  1.0977
  312HK4    C1426156   3.981   6.553   5.557  0.3027 -0.0330 -0.0957
  312HK4     C926157   4.118   6.534   5.582  0.3906  0.2801 -0.3411
  312HK4     C826158   4.197   6.634   5.642 -0.1589  0.6973 -0.3057
  312HK4    C1126159   4.137   6.755   5.675  0.1079  0.8727 -0.4615
  312HK4     H426160   4.197   6.824   5.736 -0.5108  1.1710 -0.1861
  312HK4    C1226161   4.003   6.779   5.646 -0.1370  0.4062  0.2927
  312HK4     H526162   3.952   6.872   5.672 -0.1304  1.2125 -2.4532
  312HK4    C1326163   3.927   6.680   5.584  0.1931 -0.3099  1.0121
  312HK4     H626164   3.833   6.717   5.542 -0.4369 -1.2853  1.5652
  312HK4     C726165   4.338   6.605   5.675 -0.4863 -0.0819  0.4219
  312HK4     O226166   4.413   6.702   5.687 -0.3223 -0.2090  0.4283
  312HK4     C426167   4.397   6.471   5.651 -0.0893  0.1241  0.2339
  312HK4     C326168   4.531   6.446   5.677 -0.1158  0.1106  0.3602
  312HK4     H326169   4.601   6.520   5.720  0.2383 -0.0086 -0.0043
  312HK4     C226170   4.597   6.334   5.628 -0.4035  0.2064 -0.2569
  312HK4     H226171   4.706   6.340   5.617 -0.1959 -1.2144  0.9071
  312HK4     C126172   4.517   6.234   5.573 -0.0810  0.0144 -0.3785
  312HK4     H126173   4.565   6.140   5.542  0.3715  0.7584 -1.9828
  312HK4     C626174   4.377   6.246   5.559 -0.1044  0.1174 -0.0684
  312HK4     C526175   4.325   6.374   5.579 -0.1206  0.0437  0.3726
  312HK4    C1026176   4.191   6.416   5.528 -0.2119 -0.3748  0.2655
  312HK4     O126177   4.172   6.402   5.407 -0.4153 -0.4442  0.3071
  312HK4    C1626178   4.299   6.122   5.555 -0.3297  0.2547  0.0376
  312HK4    C1526179   4.359   6.005   5.608  0.2810  0.2439 -0.6700
  312HK4     H726180   4.407   6.014   5.707  0.2952  0.3022 -0.6817
  312HK4    C2026181   4.322   5.874   5.580 -0.4929  0.2891  0.1098
  312HK4     H926182   4.353   5.790   5.642  2.6352  0.9224 -0.4980
  312HK4    C1926183   4.210   5.855   5.500 -0.2529 -0.3159 -0.0885
  312HK4    C1826184   4.152   5.974   5.440 -0.0641 -0.0215  0.3077
  312HK4    C1726185   4.194   6.104   5.466 -0.0052  0.0854 -0.3112
  312HK4     H826186   4.121   6.184   5.463 -0.0744  0.0010 -1.0167
  312HK4     N126187   4.042   5.936   5.360  0.1753 -0.2348  0.0814
  312HK4    C2126188   4.037   5.795   5.363 -0.4447 -0.2097  0.1614
  312HK4    C2226189   4.132   5.740   5.458 -0.1980 -0.3281 -0.1573
  312HK4    C2626190   4.161   5.605   5.451  0.4626 -0.1843 -0.2999
  312HK4    H1326191   4.229   5.558   5.523 -1.2822 -2.8030 -0.2713
  312HK4    C2526192   4.104   5.519   5.357  0.2903  0.1999 -0.5442
  312HK4    H1226193   4.103   5.415   5.390  1.3962  0.5079  0.5188
  312HK4    C2426194   4.010   5.575   5.271 -0.0281 -0.0183 -0.3406
  312HK4    H1126195   3.954   5.509   5.203 -0.8890  0.4672 -0.1034
  312HK4    C2326196   3.975   5.710   5.273 -0.4428 -0.1320  0.0879
  312HK4    H1026197   3.939   5.750   5.178 -0.0195 -1.2159 -0.5492
  312HK4    C3926198   3.961   6.023   5.286  0.1580 -0.2340  0.0998
  312HK4    C4126199   3.835   5.972   5.250 -0.1545  0.8292 -0.3280
  312HK4    H2126200   3.789   5.883   5.296 -0.4036  1.8076  1.3735
  312HK4    C4226201   3.759   6.042   5.157 -0.5562  0.4139 -0.3146
  312HK4    H2226202   3.663   6.002   5.122  0.2944 -1.8555 -0.1167
  312HK4    C4326203   3.800   6.164   5.104 -0.3101  0.5215  0.1178
  312HK4    H2326204   3.728   6.211   5.038  0.8946  1.0987 -0.8149
  312HK4    C4426205   3.924   6.218   5.137  0.0822 -0.1331 -0.2589
  312HK4    H2426206   3.962   6.298   5.072 -0.4613 -0.0469 -0.4716
  312HK4    C4526207   4.001   6.144   5.226 -0.1616 -0.2495 -0.1425
  312HK4    H2526208   4.108   6.165   5.240 -0.6320  1.2048  1.6028
  313HK4    H2826209   6.730   4.781   0.773 -0.1641 -0.9692  0.0576
  313HK4    C4826210   6.651   4.815   0.841 -0.2854  0.2752 -0.7015
  313HK4    C4726211   6.524   4.762   0.829 -0.1754 -0.0290 -0.5123
  313HK4    H2726212   6.494   4.682   0.760  2.1493 -0.3440 -1.1861
  313HK4    C4626213   6.423   4.801   0.917  0.3474 -0.0828  0.1183
  313HK4    H2626214   6.339   4.730   0.929  0.1673  0.4052  1.8038
  313HK4    C4026215   6.454   4.895   1.017  0.2365 -0.0343  0.1066
  313HK4    C5026216   6.585   4.947   1.025  0.2041 -0.0664  0.9762
  313HK4    H3026217   6.601   5.041   1.079  2.2852  0.2354 -0.0906
  313HK4    C4926218   6.687   4.908   0.938 -0.8567  0.1736 -0.3933
  313HK4    H2926219   6.783   4.960   0.925 -0.8107  0.4667  1.0259
  313HK4     N226220   6.354   4.959   1.090  0.3382  0.2355  0.0075
  313HK4    C3026221   6.220   4.975   1.049  0.4706  0.2113 -0.4381
  313HK4    C2926222   6.172   4.988   0.919 -0.4759 -0.4737 -0.1626
  313HK4    H1526223   6.238   4.961   0.836 -0.6486  1.1783 -0.8448
  313HK4    C2826224   6.038   5.019   0.897 -0.4758 -0.1142  0.3299
  313HK4    C2726225   5.951   5.039   1.006 -0.9945 -0.3505 -0.0416
  313HK4    H1426226   5.849   5.077   0.989 -1.5660 -2.1324 -0.6590
  313HK4    C3226227   5.999   5.028   1.136 -0.4550 -0.5574 -0.2553
  313HK4    H1626228   5.931   5.046   1.219 -1.7717 -1.4586 -1.1195
  313HK4    C3126229   6.132   5.000   1.162 -0.3380 -0.5913 -0.8798
  313HK4    C3426230   6.221   4.997   1.277 -0.5148  0.0804 -0.7225
  313HK4    C3326231   6.356   4.978   1.230 -0.2757 -0.2358  0.0809
  313HK4    C3526232   6.460   4.973   1.322 -0.1402  0.1542 -0.0492
  313HK4    H1726233   6.564   4.958   1.291  0.0999  0.1274  0.7535
  313HK4    C3626234   6.437   4.993   1.457  0.6802  0.8600 -0.0137
  313HK4    H1826235   6.523   5.003   1.526 -0.2958 -0.9476  1.5138
  313HK4    C3726236   6.307   5.016   1.499  0.3715 -0.2008 -0.3924
  313HK4    H1926237   6.283   5.026   1.605  0.7396 -0.8075 -0.2529
  313HK4    C3826238   6.197   5.017   1.413  0.5035  0.1491 -0.5559
  313HK4    H2026239   6.099   5.017   1.458  0.7296  0.6200 -0.0565
  313HK4    C1426240   6.019   5.088   0.768  0.1027 -0.4177  0.0794
  313HK4     C926241   5.938   5.202   0.762  0.5644 -0.1022 -0.1431
  313HK4     C826242   5.843   5.219   0.660  1.0010  0.2728 -0.4904
  313HK4    C1126243   5.845   5.121   0.562 -0.1545 -0.2395 -0.0125
  313HK4     H426244   5.748   5.111   0.510  0.1397 -0.7445 -0.4733
  313HK4    C1226245   5.939   5.019   0.553  0.2444  0.1464 -0.2806
  313HK4     H526246   5.957   4.964   0.459  1.9092  0.1791  0.0145
  313HK4    C1326247   6.024   4.998   0.660  0.5753  0.3157 -0.5110
  313HK4     H626248   6.052   4.893   0.679  0.4421  0.4134  0.2344
  313HK4     C726249   5.747   5.331   0.668  0.7212  0.0102 -0.1514
  313HK4     O226250   5.691   5.364   0.563  0.3861  0.1099  0.0553
  313HK4     C426251   5.744   5.413   0.792 -0.3420 -0.5669  0.2109
  313HK4     C326252   5.639   5.501   0.810  0.1311  0.1227 -0.3581
  313HK4     H326253   5.570   5.506   0.724 -0.3600  2.2968  0.1329
  313HK4     C226254   5.625   5.569   0.931  0.5484  0.2258 -0.3677
  313HK4     H226255   5.541   5.637   0.953  1.7613  0.9430  2.2357
  313HK4     C126256   5.717   5.550   1.033  0.0613  0.2782  0.0883
  313HK4     H126257   5.693   5.595   1.130 -0.9187 -0.4549  0.1837
  313HK4     C626258   5.833   5.471   1.014  0.1740  0.5616 -0.4187
  313HK4     C526259   5.842   5.402   0.893  0.3097  0.3863 -0.3084
  313HK4    C1026260   5.956   5.310   0.864  0.3685  0.6371 -0.8860
  313HK4     O126261   6.068   5.357   0.881  0.4893  0.0379  0.0361
  313HK4    C1626262   5.930   5.488   1.123  0.2324 -0.1116 -0.3642
  313HK4    C1526263   6.017   5.383   1.159 -0.3204 -0.2625  0.5668
  313HK4     H726264   5.969   5.285   1.143 -2.2970  0.6101  0.9824
  313HK4    C2026265   6.138   5.409   1.223 -0.3288  0.0018  0.4766
  313HK4     H926266   6.208   5.328   1.244  0.2160  0.6892  1.3348
  313HK4    C1926267   6.178   5.539   1.250 -0.2306  0.0137  0.2764
  313HK4    C1826268   6.088   5.647   1.216  0.1434  0.0985 -0.4496
  313HK4    C1726269   5.968   5.618   1.153  0.1347 -0.0863 -0.3508
  313HK4     H826270   5.905   5.704   1.130  1.0884  1.0573  1.2582
  313HK4     N126271   6.139   5.773   1.254 -0.2878  0.0341  0.3482
  313HK4    C2126272   6.264   5.738   1.312 -0.5305  0.0255  0.8737
  313HK4    C2226273   6.289   5.596   1.324 -0.1916  0.0270  0.2095
  313HK4    C2626274   6.417   5.556   1.361 -0.0972  0.3857  0.2759
  313HK4    H1326275   6.438   5.451   1.340 -1.5966  0.1885 -0.3201
  313HK4    C2526276   6.518   5.644   1.397  0.3827 -0.2010  0.3751
  313HK4    H1226277   6.618   5.609   1.422  1.1010  0.8377 -0.9363
  313HK4    C2426278   6.495   5.780   1.380 -0.2318 -0.3414  0.0646
  313HK4    H1126279   6.586   5.841   1.375  0.0568 -0.6423  1.3766
  313HK4    C2326280   6.368   5.824   1.345 -0.2147 -0.1237  0.2722
  313HK4    H1026281   6.360   5.933   1.340  2.9206  0.0683 -2.3882
  313HK4    C3926282   6.103   5.899   1.206 -0.0648  0.1254  0.4163
  313HK4    C4126283   6.094   6.009   1.294  0.7510  0.0990  0.5340
  313HK4    H2126284   6.054   5.988   1.394  0.7564 -1.5234  0.2106
  313HK4    C4226285   6.098   6.140   1.246 -0.1060 -0.1134 -0.1310
  313HK4    H2226286   6.128   6.222   1.313 -0.4345 -1.6327  1.9508
  313HK4    C4326287   6.090   6.167   1.110 -0.1834  0.4802 -0.0102
  313HK4    H2326288   6.072   6.267   1.072 -0.2982  0.5315  0.1789
  313HK4    C4426289   6.100   6.058   1.024  0.5139  0.1667  0.4628
  313HK4    H2426290   6.136   6.078   0.922  0.5400 -0.4451  0.3519
  313HK4    C4526291   6.103   5.926   1.068 -0.2932  0.1265  0.4158
  313HK4    H2526292   6.119   5.839   1.002 -0.9811 -0.1361  0.5949
  314HK4    H2826293   7.201   1.964   7.613  0.0218  1.1170 -1.2645
  314HK4    C4826294   7.107   2.018   7.617 -0.1820  0.6981 -0.1607
  314HK4    C4726295   7.118   2.141   7.553  0.7269  0.5884 -0.2319
  314HK4    H2726296   7.214   2.161   7.504  0.7152 -0.9775 -0.9119
  314HK4    C4626297   7.020   2.240   7.560  0.2887  0.0870  0.9441
  314HK4    H2626298   7.034   2.336   7.507 -1.0409 -0.0043  0.4118
  314HK4    C4026299   6.906   2.217   7.639 -0.3461  0.2435  0.0818
  314HK4    C5026300   6.889   2.090   7.698 -0.2303  0.4005  0.4564
  314HK4    H3026301   6.803   2.070   7.764 -0.7073 -1.6212 -0.7244
  314HK4    C4926302   6.989   1.994   7.685 -0.1186  0.5888 -0.0896
  314HK4    H2926303   6.962   1.893   7.721 -0.1998  0.8376  0.5492
  314HK4     N226304   6.817   2.321   7.666 -0.4163  0.0610  0.5572
  314HK4    C3026305   6.845   2.458   7.679  0.0470 -0.0039  0.2277
  314HK4    C2926306   6.961   2.533   7.698 -0.1038  0.2485  0.1580
  314HK4    H1526307   7.055   2.481   7.715 -0.4322  0.2725  2.1115
  314HK4    C2826308   6.966   2.672   7.699  0.2114  0.2362  0.1976
  314HK4    C2726309   6.846   2.741   7.673  0.1274  0.0863  0.1820
  314HK4    H1426310   6.853   2.834   7.616 -1.0387 -0.2208 -0.4764
  314HK4    C3226311   6.725   2.673   7.667  0.1442  0.0414  0.3489
  314HK4    H1626312   6.634   2.732   7.677 -0.6539 -1.2889  1.1668
  314HK4    C3126313   6.721   2.534   7.674  0.0740  0.0294  0.0621
  314HK4    C3426314   6.613   2.438   7.664 -0.1152  0.2386  0.1099
  314HK4    C3326315   6.676   2.308   7.660 -0.4141  0.0821  0.4615
  314HK4    C3526316   6.590   2.199   7.653  0.2300 -0.3750 -0.4105
  314HK4    H1726317   6.632   2.099   7.645  2.3116  0.0822  3.4304
  314HK4    C3626318   6.452   2.208   7.660  0.2126 -0.0288 -1.0986
  314HK4    H1826319   6.391   2.117   7.652 -0.0665 -0.1849  2.1584
  314HK4    C3726320   6.395   2.334   7.671 -0.1011 -0.2071 -0.6665
  314HK4    H1926321   6.288   2.354   7.660 -0.2002 -0.6413 -0.4923
  314HK4    C3826322   6.475   2.448   7.673 -0.1367 -0.1956  0.2413
  314HK4    H2026323   6.428   2.543   7.650 -0.0856  0.2912  2.0753
  314HK4    C1426324   7.074   2.740   7.773  0.2760  0.0921  0.2375
  314HK4     C926325   7.046   2.846   7.859  0.3395 -0.1543  0.5600
  314HK4     C826326   7.141   2.948   7.879  0.3705 -0.0677 -0.0247
  314HK4    C1126327   7.262   2.933   7.813  0.3390  0.4902 -0.2126
  314HK4     H426328   7.348   3.000   7.830  1.0073 -0.2278 -0.6994
  314HK4    C1226329   7.298   2.825   7.734 -0.1532  0.1897 -0.0257
  314HK4     H526330   7.401   2.805   7.700  0.6901 -0.4833  2.8179
  314HK4    C1326331   7.202   2.726   7.716  0.2660 -0.2840  0.3067
  314HK4     H626332   7.233   2.638   7.658 -1.1441 -1.3113  1.0901
  314HK4     C726333   7.111   3.076   7.948  0.5316 -0.3613  0.5988
  314HK4     O226334   7.192   3.168   7.944 -0.3391  0.3928 -0.2307
  314HK4     C426335   6.977   3.087   8.011  0.0585  0.0019 -0.4519
  314HK4     C326336   6.937   3.208   8.066  0.0471 -0.3350  0.2848
  314HK4     H326337   7.006   3.293   8.054  2.4137 -2.0485  1.2735
  314HK4     C226338   6.802   3.233   8.089  0.0324 -0.1649  0.0165
  314HK4     H226339   6.771   3.335   8.115  0.6615  0.2466 -0.8255
  314HK4     C126340   6.709   3.130   8.078 -0.4500  0.2450  0.2952
  314HK4     H126341   6.603   3.154   8.098  0.3591  3.4851  1.0419
  314HK4     C626342   6.746   3.001   8.037 -0.1947  0.3947  0.0524
  314HK4     C526343   6.881   2.984   8.004 -0.2064  0.2111  0.1038
  314HK4    C1026344   6.922   2.855   7.942 -0.1087  0.3681 -0.1596
  314HK4     O126345   6.891   2.755   8.006  0.5416  0.0129 -0.3976
  314HK4    C1626346   6.636   2.924   7.976 -0.0547  0.1167  0.1519
  314HK4    C1526347   6.531   2.988   7.907  0.0667  0.4422  0.2653
  314HK4     H726348   6.557   3.079   7.851 -0.1324  1.3630  1.6569
  314HK4    C2026349   6.408   2.927   7.883  0.4637 -0.1562 -0.2810
  314HK4     H926350   6.316   2.976   7.851 -0.0895 -2.0509 -1.6716
  314HK4    C1926351   6.385   2.799   7.930 -0.1418  0.0388 -0.0360
  314HK4    C1826352   6.496   2.723   7.986 -0.1186 -0.1192 -0.2918
  314HK4    C1726353   6.614   2.792   8.014 -0.4826  0.2420  0.3372
  314HK4     H826354   6.676   2.753   8.094 -2.2234  0.1685  1.7010
  314HK4     N126355   6.462   2.590   8.017 -0.1632 -0.1303 -0.3864
  314HK4    C2126356   6.325   2.582   7.985 -0.3226 -0.0157  0.2751
  314HK4    C2226357   6.272   2.708   7.938 -0.0149 -0.1564 -0.4440
  314HK4    C2626358   6.135   2.720   7.914  0.0241 -0.0193 -0.6099
  314HK4    H1326359   6.096   2.821   7.910 -4.2636 -1.5586  0.1569
  314HK4    C2526360   6.050   2.610   7.912 -0.4604  0.3302  0.4512
  314HK4    H1226361   5.959   2.617   7.851  1.1839  1.7244 -1.9382
  314HK4    C2426362   6.106   2.488   7.946  0.2551  0.5592  0.1133
  314HK4    H1126363   6.036   2.404   7.964 -2.1259  2.6295  0.7087
  314HK4    C2326364   6.239   2.473   7.983  0.2040 -0.4265 -0.0797
  314HK4    H1026365   6.283   2.375   7.963  0.9852  0.0602 -0.7326
  314HK4    C3926366   6.542   2.492   8.075 -0.2733 -0.0379 -0.0783
  314HK4    C4126367   6.475   2.386   8.140 -0.4594 -0.0239 -0.2495
  314HK4    H2126368   6.397   2.422   8.209 -1.3385 -0.5874 -0.9472
  314HK4    C4226369   6.539   2.263   8.150 -0.0697  0.1803 -0.2059
  314HK4    H2226370   6.489   2.179   8.201 -0.1135 -0.6018 -1.5184
  314HK4    C4326371   6.670   2.241   8.109  0.0345  0.3053  0.0562
  314HK4    H2326372   6.728   2.150   8.122 -3.5205 -2.2366 -0.9113
  314HK4    C4426373   6.733   2.343   8.038 -0.2070  0.4457  0.0415
  314HK4    H2426374   6.839   2.333   8.011 -0.2191  0.1647  0.0950
  314HK4    C4526375   6.668   2.465   8.019  0.0053  0.5889  0.2365
  314HK4    H2526376   6.717   2.532   7.946 -2.1369  0.3867 -1.4274
  315HK4    H2826377  10.611   9.991   2.281 -2.0133 -0.4928 -1.1875
  315HK4    C4826378  10.567   9.951   2.372 -0.2522 -0.5751 -0.3587
  315HK4    C4726379  10.431   9.962   2.395 -0.0471  0.5336  0.3801
  315HK4    H2726380  10.362   9.990   2.313 -0.1955 -1.4902 -0.2108
  315HK4    C4626381  10.372   9.904   2.506 -0.0177  0.6205  0.4389
  315HK4    H2626382  10.274   9.939   2.541 -0.5769  0.1429 -0.6285
  315HK4    C4026383  10.446   9.814   2.586  0.0221 -0.1623 -0.4815
  315HK4    C5026384  10.585   9.807   2.562  0.0210 -0.4275 -0.4300
  315HK4    H3026385  10.647   9.729   2.609  0.8497  0.7885  0.5306
  315HK4    C4926386  10.646   9.877   2.459  0.0457  0.0408 -0.0985
  315HK4    H2926387  10.755   9.886   2.449  0.0952  0.6469  0.9426
  315HK4     N226388  10.382   9.718   2.665  0.4483 -0.1365 -0.1082
  315HK4    C3026389  10.251   9.671   2.642  0.2838  0.2394  0.0302
  315HK4    C2926390  10.187   9.662   2.519  0.3498 -0.9453  0.0732
  315HK4    H1526391  10.216   9.722   2.432  0.5871  1.9681  2.0999
  315HK4    C2826392  10.070   9.589   2.498  0.2188 -0.6914 -0.1036
  315HK4    C2726393  10.014   9.520   2.607 -0.2164 -0.4588 -0.1824
  315HK4    H1426394   9.927   9.453   2.598  0.5131 -1.3924 -0.3461
  315HK4    C3226395  10.071   9.526   2.734 -0.2218 -0.0541 -0.1978
  315HK4    H1626396  10.035   9.457   2.810 -0.0873  1.6411  1.4604
  315HK4    C3126397  10.187   9.600   2.751 -0.1022 -0.1787 -0.4644
  315HK4    C3426398  10.289   9.604   2.854 -0.1991  0.0241 -0.3765
  315HK4    C3326399  10.404   9.672   2.797  0.2229 -0.5459 -0.2125
  315HK4    C3526400  10.525   9.683   2.863 -0.1485  0.1157  0.3674
  315HK4    H1726401  10.615   9.725   2.818  0.7543 -2.6146 -0.4513
  315HK4    C3626402  10.528   9.636   2.994 -0.0070  0.6883  0.5714
  315HK4    H1826403  10.605   9.674   3.063 -0.8803  1.2214  1.2730
  315HK4    C3726404  10.421   9.563   3.044  0.5282 -0.2966  0.2854
  315HK4    H1926405  10.442   9.515   3.139  0.9506  0.3339  0.5109
  315HK4    C3826406  10.299   9.544   2.979  0.7336  0.3413 -0.2955
  315HK4    H2026407  10.221   9.479   3.020 -0.9106  0.2865 -3.4029
  315HK4    C1426408   9.994   9.585   2.372 -0.0789  0.1784  0.0473
  315HK4     C926409   9.856   9.567   2.364 -0.0251 -0.1954 -0.0566
  315HK4     C826410   9.804   9.493   2.255  0.0440 -0.1958 -0.0889
  315HK4    C1126411   9.889   9.469   2.149 -0.1686  0.1674 -0.3430
  315HK4     H426412   9.845   9.441   2.052  0.3114 -0.7657 -0.2996
  315HK4    C1226413  10.025   9.500   2.145 -0.1661  0.2294  0.2508
  315HK4     H526414  10.079   9.491   2.050  0.7779 -0.8028  0.8652
  315HK4    C1326415  10.077   9.554   2.262  0.0932  0.1005  0.1953
  315HK4     H626416  10.183   9.581   2.273  0.5876 -0.6225 -2.3872
  315HK4     C726417   9.670   9.430   2.261 -0.2096  0.3733  0.1972
  315HK4     O226418   9.640   9.331   2.194  0.2762 -0.1383  0.7331
  315HK4     C426419   9.581   9.464   2.375  0.1239 -0.7009  0.7775
  315HK4     C326420   9.455   9.406   2.381 -0.3323  0.2157  0.1131
  315HK4     H326421   9.414   9.333   2.310 -2.5812  3.1884 -1.7962
  315HK4     C226422   9.364   9.428   2.484 -0.0014  0.3617  0.3724
  315HK4     H226423   9.258   9.399   2.476  0.5513 -1.6702  0.1022
  315HK4     C126424   9.408   9.517   2.581  0.6654  0.0135  0.3912
  315HK4     H126425   9.346   9.522   2.671 -0.2253 -0.2141 -0.2067
  315HK4     C626426   9.534   9.582   2.578  0.2436  0.8190 -0.2032
  315HK4     C526427   9.620   9.559   2.471  0.1319  0.2606 -0.1762
  315HK4    C1026428   9.753   9.625   2.454  0.2279  0.1205  0.0242
  315HK4     O126429   9.779   9.741   2.485 -0.3629  0.2139  0.1875
  315HK4    C1626430   9.540   9.686   2.681  0.3877  0.7811 -0.1723
  315HK4    C1526431   9.426   9.756   2.727  0.0994  0.3787 -0.2831
  315HK4     H726432   9.347   9.788   2.658 -1.0386 -1.3366  0.1870
  315HK4    C2026433   9.428   9.831   2.844  0.2660 -0.1807  0.0768
  315HK4     H926434   9.341   9.880   2.887 -1.5097 -0.6457 -2.8360
  315HK4    C1926435   9.550   9.843   2.910  0.2962  0.3055 -0.0650
  315HK4    C1826436   9.671   9.785   2.856  0.2796  0.3583 -0.1580
  315HK4    C1726437   9.661   9.699   2.747  0.2159 -0.3022  0.3663
  315HK4     H826438   9.743   9.630   2.725 -2.0951 -3.1282  0.3779
  315HK4     N126439   9.783   9.823   2.932  0.1111 -0.2492  0.4012
  315HK4    C2126440   9.729   9.891   3.044 -0.2169 -0.0057  0.0961
  315HK4    C2226441   9.589   9.922   3.026 -0.2896 -0.1349  0.4327
  315HK4    C2626442   9.518  10.000   3.116 -0.1195 -0.0962  0.5328
  315HK4    H1326443   9.418  10.038   3.093  0.7948  0.1768 -3.2215
  315HK4    C2526444   9.581  10.031   3.236  0.3458  0.5207  0.1356
  315HK4    H1226445   9.517  10.070   3.315 -0.7219 -0.3698 -0.2796
  315HK4    C2426446   9.713   9.993   3.255  0.1419 -0.1630  0.2028
  315HK4    H1126447   9.767  10.042   3.337  1.0061  2.5241 -1.9089
  315HK4    C2326448   9.791   9.922   3.164 -0.0269 -0.1261  0.0300
  315HK4    H1026449   9.889   9.884   3.192 -0.0105 -0.6865 -0.7750
  315HK4    C3926450   9.909   9.850   2.879 -0.0400 -0.2165  0.0592
  315HK4    C4126451  10.019   9.832   2.966  0.1543  0.2722 -0.0848
  315HK4    H2126452  10.011   9.763   3.051 -1.1791 -0.4263 -0.7634
  315HK4    C4226453  10.144   9.888   2.946  0.1148  0.3639 -0.0767
  315HK4    H2226454  10.234   9.856   3.001 -1.0678  0.5848  2.0172
  315HK4    C4326455  10.170   9.966   2.834  0.4422 -0.4598 -0.5786
  315HK4    H2326456  10.270   9.991   2.799  1.0883 -0.1479  1.4216
  315HK4    C4426457  10.062   9.988   2.748  0.0243  0.6246  0.2217
  315HK4    H2426458  10.078  10.046   2.656  1.1224 -0.5633 -0.3451
  315HK4    C4526459   9.937   9.930   2.766  0.2505  0.2021  0.4263
  315HK4    H2526460   9.877   9.906   2.678  1.9306 -0.0453 -0.6770
  316HK4    H2826461   0.903   9.779   3.078  1.0321 -0.7681 -0.5973
  316HK4    C4826462   0.852   9.687   3.053 -0.3458 -0.2083  0.1101
  316HK4    C4726463   0.796   9.617   3.159 -1.0989  0.0857 -0.0876
  316HK4    H2726464   0.846   9.631   3.256 -0.8107 -0.6196 -0.1301
  316HK4    C4626465   0.693   9.525   3.147 -0.4013 -0.7198  0.0641
  316HK4    H2626466   0.658   9.479   3.241 -1.7164  0.6187  0.2327
  316HK4    C4026467   0.644   9.493   3.019 -0.3319  0.5782 -0.2891
  316HK4    C5026468   0.705   9.555   2.908  0.1090  0.0414 -0.3513
  316HK4    H3026469   0.674   9.525   2.807 -2.3902  1.0156  0.0785
  316HK4    C4926470   0.803   9.652   2.927 -0.5698  0.6812 -0.0547
  316HK4    H2926471   0.840   9.695   2.833 -1.0364 -0.3301 -0.7066
  316HK4     N226472   0.549   9.392   2.999  0.3690 -0.1466  0.0151
  316HK4    C3026473   0.514   9.297   3.097  0.0864  0.2028  0.2540
  316HK4    C2926474   0.598   9.211   3.166 -0.0408 -0.0604  0.0817
  316HK4    H1526475   0.707   9.222   3.169 -0.1821  1.1953  1.0784
  316HK4    C2826476   0.533   9.110   3.236  0.2588  0.0361  0.5044
  316HK4    C2726477   0.392   9.104   3.241  0.2635 -0.1485  0.4279
  316HK4    H1426478   0.340   9.033   3.306  2.4832 -2.6495 -0.4216
  316HK4    C3226479   0.307   9.178   3.160  0.5506 -0.5640 -0.2669
  316HK4    H1626480   0.203   9.149   3.145 -0.0914  1.8364 -0.8062
  316HK4    C3126481   0.370   9.280   3.090  0.0266  0.4929  0.7683
  316HK4    C3426482   0.318   9.358   2.979  0.4825 -0.0386  0.1725
  316HK4    C3326483   0.436   9.418   2.919  0.3619  0.1442  0.1186
  316HK4    C3526484   0.422   9.459   2.787 -0.1726  0.3394  0.2322
  316HK4    H1726485   0.505   9.505   2.732  1.6219  0.1237  2.6567
  316HK4    C3626486   0.302   9.442   2.720 -0.1213  0.2079  0.1744
  316HK4    H1826487   0.272   9.483   2.622 -0.4678 -0.4576 -0.0076
  316HK4    C3726488   0.190   9.380   2.774  0.2452 -0.4179  0.2296
  316HK4    H1926489   0.096   9.366   2.721  1.1211 -1.9178 -0.9280
  316HK4    C3826490   0.202   9.337   2.906  0.1088  0.5735  0.5766
  316HK4    H2026491   0.134   9.262   2.947  0.6567  0.1326  0.6832
  316HK4    C1426492   0.602   8.988   3.281  0.0141 -0.2786  0.0279
  316HK4     C926493   0.545   8.862   3.307 -0.6056  0.1213  0.6482
  316HK4     C826494   0.600   8.770   3.398  0.0648 -0.0688  0.0578
  316HK4    C1126495   0.730   8.792   3.443  0.1221 -0.2607 -0.0087
  316HK4     H426496   0.788   8.718   3.500  0.1917  1.0733  1.7077
  316HK4    C1226497   0.791   8.912   3.410 -0.3608 -0.1162 -0.3857
  316HK4     H526498   0.901   8.913   3.416 -0.4444  1.5007  1.5513
  316HK4    C1326499   0.731   9.011   3.333 -0.3866  0.6689  0.6249
  316HK4     H626500   0.775   9.111   3.326  0.6405  0.2271  0.7150
  316HK4     C726501   0.502   8.676   3.458  0.2236 -0.3047 -0.0521
  316HK4     O226502   0.548   8.584   3.525  0.1858 -0.3560 -0.0971
  316HK4     C426503   0.358   8.674   3.423  0.1173 -0.0490  0.3695
  316HK4     C326504   0.272   8.621   3.517 -0.1680  0.0353  0.1562
  316HK4     H326505   0.314   8.555   3.594 -0.8955 -0.1863  0.3728
  316HK4     C226506   0.135   8.624   3.492 -0.1178 -0.3865 -0.1786
  316HK4     H226507   0.058   8.566   3.544 -0.7575  1.5114  1.0340
  316HK4     C126508   0.095   8.697   3.380  0.2647 -0.0863 -0.1234
  316HK4     H126509  11.236   8.717   3.368 -0.0893 -2.1515 -0.5177
  316HK4     C626510   0.180   8.749   3.280  0.0297 -0.6937 -0.6389
  316HK4     C526511   0.318   8.737   3.303 -0.0894 -0.0164  0.4569
  316HK4    C1026512   0.422   8.819   3.235  0.1189 -0.7367 -0.1014
  316HK4     O126513   0.430   8.811   3.113 -0.3006 -0.1159 -0.1716
  316HK4    C1626514   0.121   8.851   3.193  0.1801 -0.0303  0.0274
  316HK4    C1526515   0.018   8.933   3.244  0.2577 -0.2794  0.5876
  316HK4     H726516   0.009   8.942   3.353 -2.5923 -0.9206  0.4513
  316HK4    C2026517  11.184   9.014   3.165  0.3300 -0.6308  0.1451
  316HK4     H926518  11.094   9.063   3.201  1.1283  1.3970 -0.5414
  316HK4    C1926519  11.210   9.017   3.029 -0.1612 -0.3462  0.0577
  316HK4    C1826520   0.069   8.936   2.973 -0.1686 -0.3732  0.0851
  316HK4    C1726521   0.140   8.849   3.055  0.4855  0.1359  0.0666
  316HK4     H826522   0.176   8.754   3.016  0.7431  0.2713 -0.0294
  316HK4     N126523   0.092   8.965   2.837 -0.3464 -0.5717  0.0127
  316HK4    C2126524  11.244   9.064   2.806 -0.0752 -0.0283  0.8757
  316HK4    C2226525  11.160   9.098   2.919 -0.3042  0.3116  0.6040
  316HK4    C2626526  11.058   9.191   2.904 -0.2826  0.3290  0.5487
  316HK4    H1326527  10.994   9.219   2.988  1.3538  1.1874  1.5311
  316HK4    C2526528  11.037   9.251   2.781  0.0773  0.2474  0.4473
  316HK4    H1226529  10.946   9.307   2.757  1.6197  2.1489 -1.1844
  316HK4    C2426530  11.116   9.217   2.672  0.0237 -0.0063  0.4896
  316HK4    H1126531  11.083   9.251   2.572  0.4620  0.1597  0.4021
  316HK4    C2326532  11.217   9.122   2.683 -0.0083  0.0008  0.8763
  316HK4    H1026533   0.043   9.125   2.603 -0.5767  1.5247  0.3951
  316HK4    C3926534   0.221   8.957   2.782 -0.2388  0.0892  0.1602
  316HK4    C4126535   0.230   8.955   2.641 -0.0798  0.3392  0.1669
  316HK4    H2126536   0.141   8.930   2.581 -0.7302 -1.9467  1.9950
  316HK4    C4226537   0.345   8.982   2.569 -0.5520  0.8493 -0.4018
  316HK4    H2226538   0.349   8.994   2.459  1.6087  0.3521 -0.4104
  316HK4    C4326539   0.455   9.020   2.646 -0.1320 -0.9317 -0.1088
  316HK4    H2326540   0.542   9.057   2.592 -0.1740 -0.5327  0.0967
  316HK4    C4426541   0.455   9.025   2.785 -0.4667  0.1512 -0.1463
  316HK4    H2426542   0.552   9.039   2.834 -0.4472 -0.5885  0.0286
  316HK4    C4526543   0.336   8.998   2.851 -0.3402  0.3618  0.1658
  316HK4    H2526544   0.331   9.002   2.961  0.2631  1.2892  0.1675
  317HK4    H2826545   8.685   7.793   2.882 -1.5812 -0.5714 -0.3519
  317HK4    C4826546   8.697   7.725   2.967  0.1687  0.2573  0.1008
  317HK4    C4726547   8.751   7.603   2.929  0.2093  0.1882  0.3851
  317HK4    H2726548   8.820   7.595   2.844 -0.0219 -0.8077  0.2802
  317HK4    C4626549   8.728   7.495   3.015 -0.5166  0.1183  0.1058
  317HK4    H2626550   8.792   7.407   2.997  0.9414  0.8828  1.4055
  317HK4    C4026551   8.647   7.501   3.130 -0.4476  0.6417  0.1316
  317HK4    C5026552   8.596   7.629   3.161  0.0401  0.8139  0.2225
  317HK4    H3026553   8.541   7.644   3.255 -0.5689  2.5194 -0.3965
  317HK4    C4926554   8.616   7.739   3.079 -0.3326  0.5060 -0.2876
  317HK4    H2926555   8.570   7.839   3.086  0.0414  0.6276  0.4526
  317HK4     N226556   8.601   7.383   3.190  0.4681  0.1328 -0.1587
  317HK4    C3026557   8.610   7.250   3.146 -0.2999 -0.0641  0.2595
  317HK4    C2926558   8.607   7.207   3.014 -0.4036  0.3191  0.1396
  317HK4    H1526559   8.628   7.271   2.928 -2.1605 -1.2072 -1.4666
  317HK4    C2826560   8.576   7.077   2.975  0.0358  0.2271  0.0877
  317HK4    C2726561   8.564   6.984   3.079  0.8259  0.2265  0.1762
  317HK4    H1426562   8.543   6.879   3.054 -0.1481  0.3583  0.4311
  317HK4    C3226563   8.564   7.019   3.214 -0.0391 -0.3448  0.3255
  317HK4    H1626564   8.558   6.938   3.287 -1.2220 -1.9970 -1.5380
  317HK4    C3126565   8.582   7.152   3.249 -0.1370 -0.2736  0.1084
  317HK4    C3426566   8.556   7.233   3.367 -0.1696 -0.1658  0.0282
  317HK4    C3326567   8.579   7.371   3.329 -0.5566 -0.2092 -0.3504
  317HK4    C3526568   8.582   7.464   3.431  1.1614 -0.0118 -0.5763
  317HK4    H1726569   8.616   7.566   3.409 -2.8813  1.3530 -0.8964
  317HK4    C3626570   8.545   7.433   3.561  0.1449  0.1817 -0.8166
  317HK4    H1826571   8.544   7.503   3.646  1.7409 -1.6778  0.7989
  317HK4    C3726572   8.521   7.300   3.593  1.1672  0.2328  0.2268
  317HK4    H1926573   8.505   7.276   3.698  0.0165 -0.1314 -0.0149
  317HK4    C3826574   8.519   7.199   3.497  1.1498  0.0079  0.4630
  317HK4    H2026575   8.430   7.136   3.506  0.2029  1.1262 -0.8130
  317HK4    C1426576   8.492   7.072   2.854 -0.5681  0.2878  0.5021
  317HK4     C926577   8.369   7.010   2.828 -0.1010 -0.3529 -0.2247
  317HK4     C826578   8.333   6.977   2.696  0.0746  0.0489 -0.3742
  317HK4    C1126579   8.415   7.001   2.586 -0.2467  0.2258 -0.5769
  317HK4     H426580   8.392   6.964   2.485 -1.6642 -0.6129  0.0311
  317HK4    C1226581   8.532   7.072   2.609  0.4852 -1.2410  0.3087
  317HK4     H526582   8.587   7.122   2.528 -2.1527 -0.0955 -0.8652
  317HK4    C1326583   8.570   7.102   2.740 -0.2886 -0.7269  0.4241
  317HK4     H626584   8.664   7.158   2.744 -0.7944  0.4295 -2.3787
  317HK4     C726585   8.203   6.915   2.663  0.2868 -0.4180 -0.3208
  317HK4     O226586   8.154   6.917   2.551  0.0892  0.0096 -0.2253
  317HK4     C426587   8.114   6.874   2.774  0.5420 -0.9232 -0.2975
  317HK4     C326588   7.988   6.819   2.752  0.1572 -0.1006 -0.1910
  317HK4     H326589   7.938   6.824   2.654  2.1805 -1.9528 -1.3911
  317HK4     C226590   7.928   6.752   2.858 -0.2366  0.3067 -0.1607
  317HK4     H226591   7.834   6.695   2.852  0.6025 -1.1455  0.2632
  317HK4     C126592   7.988   6.734   2.982  0.4547  0.4831 -0.4694
  317HK4     H126593   7.927   6.713   3.070 -1.0756  0.7873 -1.4318
  317HK4     C626594   8.117   6.785   3.006  0.3030  0.4784  0.3758
  317HK4     C526595   8.167   6.867   2.904  0.0478  0.1335 -0.0302
  317HK4    C1026596   8.273   6.968   2.934  0.3152 -0.2140  0.2120
  317HK4     O126597   8.257   7.046   3.027 -0.0745  0.0293 -0.0549
  317HK4    C1626598   8.203   6.709   3.097 -0.3393 -0.3498  0.2960
  317HK4    C1526599   8.184   6.569   3.101  0.3299 -0.4677 -0.4597
  317HK4     H726600   8.121   6.535   3.018 -0.3693  1.5551 -0.7961
  317HK4    C2026601   8.247   6.482   3.189 -0.1015  0.1323  0.4539
  317HK4     H926602   8.217   6.378   3.199 -0.9434  0.4751  1.4918
  317HK4    C1926603   8.345   6.540   3.270 -0.1943  0.0982  0.5901
  317HK4    C1826604   8.360   6.683   3.280  0.0593  0.1091  0.0723
  317HK4    C1726605   8.285   6.764   3.195 -0.3065 -0.1467  0.1534
  317HK4     H826606   8.265   6.867   3.226 -0.3452 -0.2998  0.6411
  317HK4     N126607   8.429   6.714   3.399  0.0213  0.2777  0.0521
  317HK4    C2126608   8.463   6.592   3.460 -0.0661  0.0202 -0.4103
  317HK4    C2226609   8.431   6.482   3.371  0.0632 -0.4183  0.0821
  317HK4    C2626610   8.478   6.354   3.399  0.6099 -0.3664 -0.5908
  317HK4    H1326611   8.441   6.267   3.344 -1.0743  0.4821 -0.8443
  317HK4    C2526612   8.555   6.323   3.510 -0.2391  0.3818  0.2221
  317HK4    H1226613   8.625   6.240   3.514  2.3506  2.1835 -3.9479
  317HK4    C2426614   8.580   6.428   3.598  0.1285  0.0953  0.4613
  317HK4    H1126615   8.635   6.406   3.691  1.6532 -0.3138 -0.5240
  317HK4    C2326616   8.539   6.558   3.572 -0.1173 -0.1600 -0.4291
  317HK4    H1026617   8.573   6.637   3.638 -0.7590  0.9512 -1.3994
  317HK4    C3926618   8.411   6.834   3.469  0.3062  0.4646 -0.1927
  317HK4    C4126619   8.508   6.875   3.563  0.3665  0.4953 -0.2680
  317HK4    H2126620   8.611   6.873   3.524  0.6010  0.3792  0.3529
  317HK4    C4226621   8.472   6.934   3.684 -0.0292  0.0255 -0.1526
  317HK4    H2226622   8.558   6.973   3.740 -0.4675  2.1654 -0.9279
  317HK4    C4326623   8.343   6.973   3.718 -0.1550 -0.1551 -0.4212
  317HK4    H2326624   8.332   7.054   3.791 -1.7263 -0.0556 -0.7546
  317HK4    C4426625   8.245   6.925   3.632 -0.2554 -0.2757 -0.2387
  317HK4    H2426626   8.145   6.900   3.670 -0.9438 -1.0496 -2.5082
  317HK4    C4526627   8.281   6.866   3.512  0.1940  0.2117 -0.3451
  317HK4    H2526628   8.198   6.860   3.440  0.6734 -2.0458 -0.7545
  318HK4    H2826629  10.493   8.084   6.125  0.7595  0.1760 -0.6290
  318HK4    C4826630  10.459   7.983   6.103  0.1877  0.1563  0.3133
  318HK4    C4726631  10.539   7.876   6.062 -0.1227  0.0440 -0.0020
  318HK4    H2726632  10.648   7.884   6.077 -0.2421  1.8232  0.0490
  318HK4    C4626633  10.482   7.756   6.023  0.3573 -0.1363 -0.1532
  318HK4    H2626634  10.558   7.680   6.003  1.7574  0.2816  3.2601
  318HK4    C4026635  10.344   7.727   6.010  0.2988 -0.2749  0.7913
  318HK4    C5026636  10.270   7.839   6.053  0.3190  0.0410 -0.0024
  318HK4    H3026637  10.161   7.833   6.068  0.3358  2.5577  1.4923
  318HK4    C4926638  10.322   7.959   6.099  0.1922  0.2011 -0.2767
  318HK4    H2926639  10.260   8.029   6.157 -0.5248  1.2251 -2.2289
  318HK4     N226640  10.278   7.635   5.929 -0.0509  0.4710  0.2342
  318HK4    C3026641  10.338   7.572   5.818 -0.1818  0.1454  0.3523
  318HK4    C2926642  10.458   7.600   5.754 -0.0786 -0.1825  0.3910
  318HK4    H1526643  10.507   7.697   5.760  0.0932 -0.3993  4.2340
  318HK4    C2826644  10.507   7.519   5.653 -0.1524  0.1720  0.0703
  318HK4    C2726645  10.428   7.409   5.616 -0.2537  0.0520  0.6530
  318HK4    H1426646  10.450   7.374   5.514  1.7300  3.9649 -0.3341
  318HK4    C3226647  10.305   7.380   5.674 -0.2869 -0.4796  0.3277
  318HK4    H1626648  10.237   7.313   5.621  2.2262 -1.9137 -1.1817
  318HK4    C3126649  10.253   7.463   5.773  0.2398 -0.1858  0.3602
  318HK4    C3426650  10.145   7.450   5.868  0.0293 -0.4149  0.0872
  318HK4    C3326651  10.163   7.560   5.962 -0.0706  0.1527 -0.5528
  318HK4    C3526652  10.052   7.594   6.038  0.0978  0.3050 -0.3781
  318HK4    H1726653  10.066   7.648   6.131 -1.0472 -2.5504  1.5317
  318HK4    C3626654   9.926   7.537   6.025  0.1728  0.0956 -0.1923
  318HK4    H1826655   9.838   7.581   6.075  0.6283 -1.1111  1.7344
  318HK4    C3726656   9.911   7.429   5.939 -0.6040 -0.1504  0.2437
  318HK4    H1926657   9.813   7.384   5.923 -0.3048 -0.9896  0.7905
  318HK4    C3826658  10.021   7.386   5.866 -0.1541 -0.0934  0.8821
  318HK4    H2026659  10.019   7.301   5.798  0.5133 -0.4476  1.2965
  318HK4    C1426660  10.615   7.573   5.568 -0.0389  0.0037  0.1105
  318HK4     C926661  10.612   7.570   5.428 -0.0464  0.1472  0.1071
  318HK4     C826662  10.733   7.553   5.358 -0.1323  0.1180 -0.0296
  318HK4    C1126663  10.854   7.548   5.425 -0.1809 -0.1221  0.0442
  318HK4     H426664  10.947   7.529   5.370  0.4168  0.9211  0.6885
  318HK4    C1226665  10.855   7.569   5.563  0.0787  0.5317 -0.0577
  318HK4     H526666  10.951   7.587   5.614  1.1676 -0.1450 -1.7717
  318HK4    C1326667  10.738   7.574   5.637  0.0671  0.5813 -0.0855
  318HK4     H626668  10.736   7.601   5.743  0.0582 -1.0760  0.3350
  318HK4     C726669  10.727   7.527   5.212 -0.0671  0.7089 -0.1390
  318HK4     O226670  10.833   7.527   5.150 -0.4228 -0.2263 -0.7607
  318HK4     C426671  10.600   7.509   5.138  0.0250  0.4177 -0.2253
  318HK4     C326672  10.595   7.475   5.003 -0.4196 -0.1032 -0.0755
  318HK4     H326673  10.681   7.478   4.936 -1.0129  0.1196 -0.8334
  318HK4     C226674  10.472   7.458   4.941 -0.4193 -0.2472 -0.0380
  318HK4     H226675  10.456   7.447   4.832 -1.3471 -0.1335  0.0802
  318HK4     C126676  10.356   7.463   5.018 -0.3203 -0.2313  0.1081
  318HK4     H126677  10.259   7.441   4.972  0.3859  1.4008 -2.2587
  318HK4     C626678  10.357   7.502   5.153  0.4084  0.1952 -0.0187
  318HK4     C526679  10.481   7.537   5.208  0.2944 -0.1638  0.4666
  318HK4    C1026680  10.486   7.585   5.349 -0.3352 -0.1976  0.5009
  318HK4     O126681  10.414   7.676   5.391  0.0749  0.0740  0.6153
  318HK4    C1626682  10.255   7.434   5.234  0.2865  0.1023 -0.2490
  318HK4    C1526683  10.222   7.298   5.214 -0.0465  0.0840  0.4342
  318HK4     H726684  10.285   7.236   5.149 -0.9552 -0.1396 -0.2364
  318HK4    C2026685  10.117   7.231   5.277 -0.0793 -0.2731 -0.0104
  318HK4     H926686  10.089   7.129   5.250  2.1795 -0.8481 -0.3356
  318HK4    C1926687  10.031   7.304   5.358  0.1176 -0.1727  0.1078
  318HK4    C1826688  10.055   7.445   5.381  0.1091 -0.1573  0.0193
  318HK4    C1726689  10.166   7.500   5.318 -0.0197 -0.2525 -0.2944
  318HK4     H826690  10.168   7.607   5.300 -0.2021 -0.1588  0.2254
  318HK4     N126691   9.962   7.502   5.469 -0.1823 -0.0699 -0.3462
  318HK4    C2126692   9.871   7.399   5.502  0.1167 -0.2791 -0.1806
  318HK4    C2226693   9.912   7.277   5.436  0.3440 -0.4872  0.3493
  318HK4    C2626694   9.877   7.154   5.490 -0.0008 -0.4210  0.2742
  318HK4    H1326695   9.903   7.058   5.444 -2.9024 -0.4639 -1.3547
  318HK4    C2526696   9.803   7.147   5.607 -0.0650  0.1577  0.2703
  318HK4    H1226697   9.776   7.052   5.655 -0.1738 -0.4445 -0.9702
  318HK4    C2426698   9.768   7.264   5.674  0.2529  0.1384  0.4695
  318HK4    H1126699   9.719   7.256   5.772 -0.2862 -0.6446  0.1463
  318HK4    C2326700   9.800   7.388   5.621  0.0374 -0.0911 -0.2085
  318HK4    H1026701   9.800   7.473   5.690 -0.2174 -0.4703  0.2660
  318HK4    C3926702   9.961   7.638   5.505 -0.0601 -0.3111  0.6013
  318HK4    C4126703   9.841   7.702   5.541 -0.2646 -0.4840  0.2228
  318HK4    H2126704   9.747   7.655   5.506  0.8282 -3.4523  1.0626
  318HK4    C4226705   9.830   7.830   5.593  0.4457 -0.2166 -0.2834
  318HK4    H2226706   9.739   7.877   5.632  0.4707 -0.1398 -0.3253
  318HK4    C4326707   9.946   7.905   5.613  0.3287 -0.2441  0.5177
  318HK4    H2326708   9.928   8.005   5.651  0.1822 -0.9793  2.4580
  318HK4    C4426709  10.067   7.849   5.575  0.5742  0.5710  0.1109
  318HK4    H2426710  10.160   7.902   5.602  0.9526 -0.8124  1.5428
  318HK4    C4526711  10.074   7.720   5.524 -0.5131  0.3134  0.6012
  318HK4    H2526712  10.174   7.674   5.516 -0.8838 -0.3578 -0.2506
  319HK4    H2826713   1.855   7.550   4.900  1.2406 -1.1116 -0.9868
  319HK4    C4826714   1.924   7.580   4.979 -0.3579 -0.1793  0.0841
  319HK4    C4726715   1.966   7.506   5.090 -0.1690  0.0966  0.1975
  319HK4    H2726716   1.905   7.420   5.121  1.0704  0.0764  2.6208
  319HK4    C4626717   2.040   7.556   5.196 -0.1861  0.2827  0.1215
  319HK4    H2626718   2.074   7.491   5.277  1.4309  3.1498  1.8132
  319HK4    C4026719   2.087   7.690   5.193  0.4089  0.0735 -0.0334
  319HK4    C5026720   2.047   7.764   5.080 -0.1480 -0.1254  0.0297
  319HK4    H3026721   2.091   7.863   5.065  0.7520 -0.1089  2.5451
  319HK4    C4926722   1.968   7.712   4.978  0.4256 -0.4418 -0.2508
  319HK4    H2926723   1.942   7.781   4.896 -1.5199 -0.3166  0.4602
  319HK4     N226724   2.144   7.752   5.304  0.5560 -0.2619  0.0784
  319HK4    C3026725   2.136   7.719   5.441  0.1479 -0.4977  0.0011
  319HK4    C2926726   2.055   7.627   5.506 -0.7883  0.4882  0.2516
  319HK4    H1526727   1.964   7.586   5.463 -1.7922  1.7139  1.1728
  319HK4    C2826728   2.080   7.594   5.639 -0.0750  0.3445  0.0873
  319HK4    C2726729   2.175   7.667   5.714  0.0304 -0.0254  0.3106
  319HK4    H1426730   2.212   7.610   5.801  0.4881  1.7538  1.3003
  319HK4    C3226731   2.248   7.769   5.655 -0.0693 -0.1635 -0.0503
  319HK4    H1626732   2.322   7.828   5.709  1.7443 -0.4099 -2.1964
  319HK4    C3126733   2.231   7.796   5.519  0.0270 -0.2623 -0.0826
  319HK4    C3426734   2.302   7.879   5.424  0.2059 -0.1739  0.1247
  319HK4    C3326735   2.244   7.850   5.294 -0.0652  0.3780  0.1197
  319HK4    C3526736   2.300   7.901   5.176  0.2215 -0.2781 -0.0285
  319HK4    H1726737   2.289   7.849   5.081  0.7563 -1.0930  0.3438
  319HK4    C3626738   2.402   7.994   5.188  0.0248 -0.0778  0.1116
  319HK4    H1826739   2.451   8.014   5.092 -0.8591 -4.1714 -1.2828
  319HK4    C3726740   2.446   8.035   5.314 -0.3753  0.8977 -0.0648
  319HK4    H1926741   2.510   8.123   5.314  1.9141 -0.7143  0.3554
  319HK4    C3826742   2.405   7.972   5.430 -0.3895  0.5265 -0.2714
  319HK4    H2026743   2.454   7.988   5.527 -0.0572 -1.1962 -0.1330
  319HK4    C1426744   2.011   7.481   5.703 -0.1157  0.1115 -0.3684
  319HK4     C926745   1.977   7.479   5.839  0.1940  0.1932 -0.2891
  319HK4     C826746   1.991   7.356   5.906 -0.6328 -0.0645 -0.5809
  319HK4    C1126747   2.022   7.239   5.838 -0.5683 -0.5041  0.1924
  319HK4     H426748   2.029   7.142   5.889 -0.4225 -1.8398 -2.2643
  319HK4    C1226749   2.055   7.239   5.703 -0.7399 -0.5789  0.1518
  319HK4     H526750   2.089   7.150   5.648 -0.3234 -0.2828 -0.0652
  319HK4    C1326751   2.046   7.361   5.638  0.6047 -0.2243  0.6276
  319HK4     H626752   2.081   7.365   5.533 -3.1674 -1.9224 -0.7533
  319HK4     C726753   1.961   7.351   6.051  0.2566  0.0120 -0.3917
  319HK4     O226754   2.029   7.273   6.118  0.0162  0.3012  0.1935
  319HK4     C426755   1.906   7.469   6.120  0.2580 -0.3661  0.2640
  319HK4     C326756   1.854   7.454   6.248  0.3198  0.4612  0.3923
  319HK4     H326757   1.859   7.352   6.288 -0.6688 -0.1031 -0.9020
  319HK4     C226758   1.796   7.563   6.312 -0.0499  0.3930  0.1723
  319HK4     H226759   1.733   7.551   6.401  0.0296 -3.3327 -0.1935
  319HK4     C126760   1.797   7.687   6.248 -0.1757  0.2413 -0.1266
  319HK4     H126761   1.784   7.767   6.322  1.7445  0.3876  0.0656
  319HK4     C626762   1.853   7.709   6.121  0.6616 -0.0807  0.1843
  319HK4     C526763   1.899   7.595   6.055  0.5526 -0.2638  0.4316
  319HK4    C1026764   1.921   7.598   5.908 -0.1963 -0.3396  0.3167
  319HK4     O126765   1.853   7.671   5.835  0.5166  0.2797  0.2601
  319HK4    C1626766   1.856   7.851   6.081 -0.3298 -0.1103 -0.0072
  319HK4    C1526767   1.773   7.949   6.140 -0.0820 -0.0553  0.2489
  319HK4     H726768   1.664   7.939   6.141 -0.0372 -0.8874 -0.9817
  319HK4    C2026769   1.822   8.076   6.169 -0.0659  0.0402 -0.1816
  319HK4     H926770   1.757   8.135   6.234 -1.7117 -1.7975 -0.1076
  319HK4    C1926771   1.946   8.125   6.129  0.0077 -0.0201 -0.0316
  319HK4    C1826772   2.020   8.029   6.049  0.0410  0.2005 -0.2674
  319HK4    C1726773   1.979   7.897   6.035 -0.4403  0.3091  0.1234
  319HK4     H826774   2.033   7.828   5.971  0.9026  1.0889  0.4037
  319HK4     N126775   2.149   8.083   6.029  0.2238 -0.2523 -0.3295
  319HK4    C2126776   2.155   8.202   6.105  0.2023 -0.1677 -0.4574
  319HK4    C2226777   2.027   8.242   6.159  0.4684 -0.4412  0.3719
  319HK4    C2626778   2.025   8.345   6.252 -0.0795 -0.1696  0.0644
  319HK4    H1326779   1.934   8.381   6.301  0.7016  2.2534 -0.2191
  319HK4    C2526780   2.142   8.414   6.279 -0.0461 -0.2018  0.0022
  319HK4    H1226781   2.135   8.503   6.342  1.4754 -0.3819  0.4516
  319HK4    C2426782   2.266   8.379   6.226 -0.0846  0.2677 -0.4086
  319HK4    H1126783   2.345   8.429   6.283 -1.0279  1.6011 -0.2470
  319HK4    C2326784   2.272   8.269   6.141  0.0683 -0.4971  0.5833
  319HK4    H1026785   2.366   8.214   6.131 -0.0417 -0.5183 -0.3112
  319HK4    C3926786   2.215   8.060   5.908  0.3686 -0.8605 -0.1315
  319HK4    C4126787   2.352   8.094   5.912  0.1627 -0.0859  0.3708
  319HK4    H2126788   2.411   8.069   6.002 -0.6179  0.3976  1.0281
  319HK4    C4226789   2.418   8.157   5.808  0.0004 -0.2492  0.1684
  319HK4    H2226790   2.520   8.193   5.829  0.5624 -1.0542 -1.0465
  319HK4    C4326791   2.342   8.177   5.693  0.4700 -0.5880 -0.2084
  319HK4    H2326792   2.371   8.241   5.610  0.3004  0.1833  0.3191
  319HK4    C4426793   2.212   8.130   5.679  0.0321  0.4038  0.4908
  319HK4    H2426794   2.169   8.135   5.578 -0.8979 -1.1168  0.7912
  319HK4    C4526795   2.144   8.073   5.786 -0.0949  0.0786  0.2377
  319HK4    H2526796   2.042   8.036   5.770 -0.9075  3.1372 -1.9898
  320HK4    H2826797   6.514   1.515   4.006 -0.7397  1.1180  0.9138
  320HK4    C4826798   6.607   1.493   4.059 -0.3156  0.3344 -0.1457
  320HK4    C4726799   6.717   1.460   3.981  0.1459  0.1187  0.5918
  320HK4    H2726800   6.718   1.420   3.878  1.0909 -1.2439  1.1121
  320HK4    C4626801   6.836   1.438   4.051  0.4565 -0.2985 -0.0596
  320HK4    H2626802   6.926   1.426   3.989  2.1247 -1.3904  2.5187
  320HK4    C4026803   6.858   1.443   4.190 -0.2319  0.6798  0.0196
  320HK4    C5026804   6.740   1.477   4.259 -0.6044 -0.4704 -0.0427
  320HK4    H3026805   6.745   1.463   4.368 -2.6184 -2.2411 -0.1489
  320HK4    C4926806   6.618   1.504   4.197 -0.4134  0.2045 -0.1286
  320HK4    H2926807   6.521   1.493   4.246  0.2667 -1.0876  0.9711
  320HK4     N226808   6.977   1.401   4.250 -0.2480  0.1682 -0.3044
  320HK4    C3026809   7.070   1.321   4.181  0.1288 -0.0781  0.4865
  320HK4    C2926810   7.050   1.213   4.097  0.1603 -0.0302  0.4185
  320HK4    H1526811   6.950   1.171   4.087 -0.6673  1.7303  1.3257
  320HK4    C2826812   7.153   1.142   4.034 -0.1897 -0.1748  0.0072
  320HK4    C2726813   7.284   1.186   4.063 -0.3301  0.2952 -0.0632
  320HK4    H1426814   7.366   1.134   4.012 -1.0490  0.8396 -1.8475
  320HK4    C3226815   7.308   1.293   4.147  0.0890  0.7417 -0.7441
  320HK4    H1626816   7.413   1.321   4.153  0.7387 -1.8446  0.5807
  320HK4    C3126817   7.206   1.364   4.210  0.1512  0.2129 -0.0421
  320HK4    C3426818   7.198   1.463   4.315 -0.6317  0.3443 -0.2210
  320HK4    C3326819   7.056   1.480   4.336 -0.6125 -0.0196  0.2042
  320HK4    C3526820   7.021   1.555   4.448 -0.4723 -0.5252  0.5888
  320HK4    H1726821   6.915   1.569   4.468 -0.3817 -0.2439  0.8773
  320HK4    C3626822   7.114   1.607   4.537 -0.2364 -0.0967  0.0957
  320HK4    H1826823   7.090   1.677   4.618 -1.8332 -0.7149  0.1603
  320HK4    C3726824   7.250   1.588   4.512 -0.2748 -0.2159 -0.0180
  320HK4    H1926825   7.322   1.627   4.584 -1.9174  0.1421  1.4940
  320HK4    C3826826   7.293   1.517   4.401 -0.4410 -0.5460  0.1259
  320HK4    H2026827   7.387   1.461   4.407  0.5869  1.0845 -0.2901
  320HK4    C1426828   7.135   1.012   3.968  0.5712 -0.4340  0.3074
  320HK4     C926829   7.232   0.911   3.971  0.7168 -0.2920  0.3764
  320HK4     C826830   7.256   0.825   3.862 -0.9359 -0.7974  0.3967
  320HK4    C1126831   7.173   0.838   3.752 -0.3896 -0.3953  0.0311
  320HK4     H426832   7.176   0.757   3.677  2.3980 -1.7426  1.5082
  320HK4    C1226833   7.070   0.931   3.746 -0.2255 -0.1827  0.5444
  320HK4     H526834   6.998   0.919   3.664  1.3648 -0.2969 -0.8520
  320HK4    C1326835   7.056   1.021   3.851  0.1805 -0.1746  0.5906
  320HK4     H626836   6.997   1.113   3.835  2.0689  0.8752 -0.4757
  320HK4     C726837   7.360   0.720   3.860  0.2203  0.3443 -0.5136
  320HK4     O226838   7.388   0.662   3.755  0.1323  0.3735 -0.5535
  320HK4     C426839   7.440   0.707   3.983 -0.4622 -0.1858 -0.1202
  320HK4     C326840   7.531   0.602   3.993 -0.8987 -0.5347  0.2489
  320HK4     H326841   7.550   0.541   3.903 -1.1879  0.7712 -0.7183
  320HK4     C226842   7.615   0.590   4.103 -0.1591  0.3868 -0.2091
  320HK4     H226843   7.667   0.494   4.108  3.0831  2.0655 -0.3939
  320HK4     C126844   7.612   0.683   4.207 -0.6498 -0.2472  0.3465
  320HK4     H126845   7.679   0.677   4.294  2.1718  1.8120 -1.6033
  320HK4     C626846   7.519   0.789   4.198 -0.1529  0.1496 -0.0942
  320HK4     C526847   7.432   0.800   4.089  0.5264  0.4605 -0.6096
  320HK4    C1026848   7.305   0.877   4.097  0.4021  0.1342  0.6766
  320HK4     O126849   7.243   0.888   4.202 -0.9680  0.7561 -0.1845
  320HK4    C1626850   7.536   0.887   4.306  0.7292 -0.0470 -0.0474
  320HK4    C1526851   7.496   1.021   4.286  1.1917  0.0847 -0.0912
  320HK4     H726852   7.504   1.068   4.187  2.4369  1.8061  0.8100
  320HK4    C2026853   7.462   1.106   4.390  0.6547  0.1520 -0.3215
  320HK4     H926854   7.429   1.209   4.373 -1.3469 -0.6100 -1.1469
  320HK4    C1926855   7.468   1.063   4.522 -0.1862  0.1195 -0.2895
  320HK4    C1826856   7.515   0.928   4.545 -0.7539 -0.0235  0.0372
  320HK4    C1726857   7.546   0.844   4.438 -0.1960  0.1224  0.0865
  320HK4     H826858   7.559   0.739   4.465 -0.7498  0.2703  0.9413
  320HK4     N126859   7.479   0.886   4.675 -0.2424 -0.3706  0.0718
  320HK4    C2126860   7.392   0.986   4.723  0.3322  0.1872 -0.0447
  320HK4    C2226861   7.392   1.104   4.638  0.5165  0.3001  0.1102
  320HK4    C2626862   7.329   1.223   4.674 -0.2053  0.0366 -0.2685
  320HK4    H1326863   7.316   1.306   4.605 -0.0322 -1.0188 -1.6072
  320HK4    C2526864   7.265   1.228   4.797  0.3920 -0.2164  0.0551
  320HK4    H1226865   7.215   1.320   4.826 -1.2448 -0.1321 -2.9043
  320HK4    C2426866   7.264   1.120   4.885  0.1881 -0.0332  0.2785
  320HK4    H1126867   7.198   1.125   4.973  0.1421  3.8622  0.1011
  320HK4    C2326868   7.329   1.004   4.846  1.6055  0.6592  0.5519
  320HK4    H1026869   7.295   0.914   4.897  4.8420 -0.3689  0.9790
  320HK4    C3926870   7.560   0.807   4.757  0.0846 -0.2892 -0.1718
  320HK4    C4126871   7.699   0.803   4.736  0.1587  0.9226  0.0770
  320HK4    H2126872   7.740   0.902   4.712 -4.0615  2.5920 -0.6197
  320HK4    C4226873   7.780   0.704   4.791 -0.8032  0.3111  0.4101
  320HK4    H2226874   7.879   0.690   4.746 -0.3262 -0.2120  1.5882
  320HK4    C4326875   7.724   0.604   4.869 -0.0304 -0.6521 -0.2646
  320HK4    H2326876   7.793   0.537   4.921  0.6043  0.0789 -0.1537
  320HK4    C4426877   7.586   0.604   4.887  0.0362 -0.0756  0.2679
  320HK4    H2426878   7.543   0.523   4.948 -0.8259  0.9203  1.0013
  320HK4    C4526879   7.505   0.705   4.838  0.1771  0.0789  0.3547
  320HK4    H2526880   7.400   0.702   4.871 -0.5824  4.1253 -1.3865
  321HK4    H2826881   5.598   6.190   3.925 -0.8508 -0.0024 -0.4621
  321HK4    C4826882   5.594   6.085   3.954  0.1664  0.0441 -0.1497
  321HK4    C4726883   5.538   5.989   3.871  0.5878 -0.4281  0.1123
  321HK4    H2726884   5.515   6.022   3.769 -0.2039 -1.6107 -0.1099
  321HK4    C4626885   5.512   5.859   3.915  0.2783 -0.2561  0.4399
  321HK4    H2626886   5.440   5.803   3.853 -2.1840  1.6424  1.4832
  321HK4    C4026887   5.541   5.818   4.046 -0.4258  0.1827  0.7390
  321HK4    C5026888   5.614   5.911   4.124  0.3759 -0.5793  0.9045
  321HK4    H3026889   5.669   5.871   4.210 -1.2736  1.5694  2.9817
  321HK4    C4926890   5.629   6.042   4.082  0.0139 -0.9602 -0.4409
  321HK4    H2926891   5.687   6.110   4.146  0.2844 -0.7785 -0.8726
  321HK4     N226892   5.545   5.683   4.082 -0.1271 -0.0896 -0.2904
  321HK4    C3026893   5.553   5.574   3.993  0.4751 -0.5383  0.3148
  321HK4    C2926894   5.592   5.577   3.860  0.0894 -0.1504  0.2105
  321HK4    H1526895   5.664   5.654   3.833 -0.4315  0.1724 -0.2653
  321HK4    C2826896   5.565   5.467   3.779 -0.1939  0.4983 -0.5886
  321HK4    C2726897   5.506   5.354   3.838  0.0161  0.3761 -0.6142
  321HK4    H1426898   5.469   5.273   3.773  1.5029 -1.2960  0.5581
  321HK4    C3226899   5.471   5.346   3.972  0.1154  0.3792 -0.5872
  321HK4    H1626900   5.409   5.262   4.003  0.5113  0.9699  1.9500
  321HK4    C3126901   5.492   5.457   4.054  0.5752 -0.4954  0.5004
  321HK4    C3426902   5.448   5.493   4.187 -0.4188  0.4256 -0.0724
  321HK4    C3326903   5.481   5.634   4.198 -0.2194  0.3850 -0.1411
  321HK4    C3526904   5.419   5.705   4.301  0.2022  0.6910 -0.0980
  321HK4    H1726905   5.464   5.798   4.335  1.6645  0.4964 -1.4088
  321HK4    C3626906   5.327   5.647   4.388 -0.1329  0.3206 -0.6920
  321HK4    H1826907   5.287   5.713   4.466 -1.2540 -1.4668  0.2686
  321HK4    C3726908   5.305   5.510   4.379  0.0949  0.2266  0.1693
  321HK4    H1926909   5.242   5.457   4.449 -0.3377  1.8491  1.0352
  321HK4    C3826910   5.363   5.433   4.279 -0.5112  0.2969 -0.2408
  321HK4    H2026911   5.359   5.324   4.288  1.2630  0.4055  2.7267
  321HK4    C1426912   5.546   5.497   3.637 -0.3695  0.9600 -0.4703
  321HK4     C926913   5.446   5.439   3.557 -0.0324 -0.1313 -0.1070
  321HK4     C826914   5.464   5.434   3.417 -0.0225 -0.2745 -0.1009
  321HK4    C1126915   5.566   5.505   3.354 -0.1639 -0.2547 -0.3060
  321HK4     H426916   5.563   5.519   3.245 -0.9306 -1.3071 -0.4311
  321HK4    C1226917   5.660   5.574   3.430 -0.1291 -0.3199 -0.2897
  321HK4     H526918   5.744   5.629   3.384 -1.6605 -0.1994 -3.0784
  321HK4    C1326919   5.646   5.568   3.568  0.5091  0.0041 -0.2073
  321HK4     H626920   5.706   5.639   3.627  0.4578  0.0236 -0.1779
  321HK4     C726921   5.377   5.344   3.339  0.0491 -0.2595 -0.1965
  321HK4     O226922   5.374   5.368   3.219 -0.0647  0.9136  0.0406
  321HK4     C426923   5.279   5.256   3.407 -0.0327  0.2374  0.3300
  321HK4     C326924   5.219   5.152   3.338  0.2240  0.2459  0.0989
  321HK4     H326925   5.256   5.117   3.240 -0.9528  0.9569 -0.6003
  321HK4     C226926   5.126   5.067   3.397  0.3858  0.0251  0.0417
  321HK4     H226927   5.077   4.987   3.339  0.0457  1.1651 -1.2824
  321HK4     C126928   5.087   5.098   3.526 -0.6112 -0.1005 -0.2267
  321HK4     H126929   4.985   5.067   3.556 -0.6066 -0.2687 -0.3892
  321HK4     C626930   5.144   5.198   3.608 -0.2256 -0.4059 -0.1238
  321HK4     C526931   5.238   5.278   3.541 -0.4982  0.1866  0.1960
  321HK4    C1026932   5.319   5.381   3.610 -0.3157  0.3496 -0.2606
  321HK4     O126933   5.257   5.464   3.677 -0.2434 -0.1747  0.4539
  321HK4    C1626934   5.149   5.171   3.752  0.1261  0.4146  0.0243
  321HK4    C1526935   5.185   5.044   3.802 -0.2279  0.3879  0.2120
  321HK4     H726936   5.226   4.973   3.729  0.7968 -0.9496  2.0335
  321HK4    C2026937   5.172   5.001   3.934  0.1771  0.0381  0.1378
  321HK4     H926938   5.195   4.900   3.967  1.3206 -0.3736 -1.7990
  321HK4    C1926939   5.124   5.098   4.020 -0.1691  0.0129 -0.0218
  321HK4    C1826940   5.092   5.232   3.974  0.0989 -0.0687 -0.4452
  321HK4    C1726941   5.097   5.266   3.839  0.4383  0.8073 -0.2168
  321HK4     H826942   5.063   5.365   3.810  0.1290  0.9216  0.5367
  321HK4     N126943   5.056   5.318   4.079  0.3032  0.1023 -0.5161
  321HK4    C2126944   5.070   5.242   4.197 -0.0954  0.3906 -0.2797
  321HK4    C2226945   5.112   5.107   4.165 -0.2083  0.2972 -0.0415
  321HK4    C2626946   5.107   5.011   4.265  0.7616  0.2843 -0.0044
  321HK4    H1326947   5.128   4.907   4.241 -1.3172  0.5378 -3.2214
  321HK4    C2526948   5.062   5.038   4.394 -0.2096 -0.0546 -0.2728
  321HK4    H1226949   5.076   4.976   4.482  1.9784  2.0025  0.8752
  321HK4    C2426950   5.023   5.168   4.423  0.3542  0.0870 -0.1416
  321HK4    H1126951   5.003   5.196   4.527 -1.5212 -0.7162 -0.2565
  321HK4    C2326952   5.019   5.266   4.324 -0.2150 -0.0359 -0.2450
  321HK4    H1026953   4.980   5.362   4.357  0.1776 -0.2172  0.7764
  321HK4    C3926954   5.062   5.458   4.078  0.0219  0.1186 -0.1357
  321HK4    C4126955   4.989   5.539   4.168  0.1970 -0.1930  0.2901
  321HK4    H2126956   4.899   5.501   4.216 -0.5354  0.2983 -0.6642
  321HK4    C4226957   5.021   5.674   4.183 -0.1760 -0.0839  0.1362
  321HK4    H2226958   4.973   5.726   4.267  0.3905 -0.0760  0.4564
  321HK4    C4326959   5.113   5.738   4.101  0.2286 -0.2894  0.4298
  321HK4    H2326960   5.134   5.845   4.104 -2.6780  0.3113  0.6273
  321HK4    C4426961   5.183   5.664   4.007  0.4470  0.5518 -0.0774
  321HK4    H2426962   5.230   5.714   3.921  0.1268 -0.5175 -0.8957
  321HK4    C4526963   5.160   5.527   4.003  0.2736  0.5590  0.5876
  321HK4    H2526964   5.234   5.471   3.945 -1.3650  0.6043 -1.6001
  322HK4    H2826965   7.152   3.720   0.271  1.5333  0.3989 -0.9382
  322HK4    C4826966   7.219   3.695   0.354  0.4767  0.2033 -0.1357
  322HK4    C4726967   7.352   3.683   0.317  0.4761 -0.5714  0.1002
  322HK4    H2726968   7.369   3.667   0.210 -0.7659  0.6803 -0.2910
  322HK4    C4626969   7.452   3.666   0.413  0.6089 -0.5785 -0.0385
  322HK4    H2626970   7.559   3.653   0.393  0.4064 -1.4062 -0.6011
  322HK4    C4026971   7.410   3.659   0.548 -0.0056  0.3357 -0.1745
  322HK4    C5026972   7.278   3.692   0.585 -0.1242 -0.1447 -0.1622
  322HK4    H3026973   7.260   3.739   0.682 -0.2051  0.7798 -0.6243
  322HK4    C4926974   7.180   3.703   0.487  0.0016  0.0739 -0.2631
  322HK4    H2926975   7.077   3.726   0.518 -0.4376 -1.4823 -0.5645
  322HK4     N226976   7.487   3.584   0.638 -0.0323  0.5014 -0.0150
  322HK4    C3026977   7.566   3.472   0.604  0.1223  0.6294 -0.0780
  322HK4    C2926978   7.553   3.377   0.503 -0.2479 -0.6488  1.1619
  322HK4    H1526979   7.459   3.373   0.449 -0.4462  1.3333  1.3070
  322HK4    C2826980   7.652   3.283   0.476 -0.1176 -0.2321  0.1553
  322HK4    C2726981   7.756   3.269   0.570  0.6286  0.4778 -0.5672
  322HK4    H1426982   7.842   3.203   0.550  0.2872 -0.0306 -0.3625
  322HK4    C3226983   7.765   3.352   0.681 -0.0671  0.1798 -0.2883
  322HK4    H1626984   7.845   3.351   0.754  0.1089  3.3699 -0.3576
  322HK4    C3126985   7.667   3.448   0.705 -0.3170 -0.1918  0.1596
  322HK4    C3426986   7.646   3.547   0.809  0.2529  0.2491 -0.1495
  322HK4    C3326987   7.528   3.621   0.767  0.0111  0.0109  0.1120
  322HK4    C3526988   7.491   3.729   0.847 -0.3733  0.0729 -0.1527
  322HK4    H1726989   7.404   3.792   0.831 -1.6888 -0.9062  2.8870
  322HK4    C3626990   7.557   3.754   0.967  0.0670  0.2501 -0.4277
  322HK4    H1826991   7.532   3.848   1.017 -1.4574  1.1004 -2.7087
  322HK4    C3726992   7.665   3.679   1.010 -0.3769 -0.1343  0.0291
  322HK4    H1926993   7.726   3.718   1.092 -1.0743 -4.0370  2.5735
  322HK4    C3826994   7.712   3.578   0.927  0.3993  0.4893 -0.2933
  322HK4    H2026995   7.798   3.516   0.954 -1.6015 -0.8019  3.3767
  322HK4    C1426996   7.629   3.186   0.369 -0.2508  0.2401 -0.2450
  322HK4     C926997   7.679   3.055   0.366 -0.6607  0.0736  0.1121
  322HK4     C826998   7.686   2.975   0.250  0.2405  0.2885  0.0112
  322HK4    C1126999   7.627   3.031   0.138 -0.0975 -0.1197 -0.0184
  322HK4     H427000   7.633   2.968   0.048  1.1788 -1.4192  0.9540
  322HK4    C1227001   7.572   3.159   0.133  0.4457  0.1171  0.0381
  322HK4     H527002   7.535   3.201   0.039 -0.5930  0.3055  0.5268
  322HK4    C1327003   7.575   3.237   0.249 -0.4060  0.3844 -0.1143
  322HK4     H627004   7.531   3.337   0.242 -0.9938  0.0823 -0.8670
  322HK4     C727005   7.759   2.846   0.244 -0.0376  0.1201  0.2204
  322HK4     O227006   7.746   2.775   0.144  0.0620 -0.0498  0.3279
  322HK4     C427007   7.832   2.804   0.365  0.3626  0.1854  0.0001
  322HK4     C327008   7.910   2.689   0.367  0.2565  0.1048 -0.3622
  322HK4     H327009   7.905   2.630   0.274  0.9863  0.2245 -0.4819
  322HK4     C227010   7.985   2.653   0.479  0.2661  0.0741 -0.3783
  322HK4     H227011   8.022   2.550   0.486 -0.5137 -0.2220 -0.5551
  322HK4     C127012   7.976   2.732   0.593  0.0395  0.2211 -0.4975
  322HK4     H127013   8.042   2.714   0.679  0.5292  3.3499 -0.1616
  322HK4     C627014   7.890   2.844   0.604 -0.3076 -0.1093  0.1939
  322HK4     C527015   7.818   2.872   0.487 -0.0006  0.0389  0.0401
  322HK4    C1027016   7.724   2.988   0.491 -0.0219  0.0296 -0.1400
  322HK4     O127017   7.637   2.989   0.578  0.0522  0.3068 -0.0684
  322HK4    C1627018   7.947   2.953   0.684 -0.0758  0.2459 -0.4451
  322HK4    C1527019   8.076   3.007   0.668  0.3937 -0.7328 -0.0085
  322HK4     H727020   8.126   2.986   0.572  0.4113  3.4125 -0.9988
  322HK4    C2027021   8.136   3.091   0.761 -0.2008 -0.2884 -0.0238
  322HK4     H927022   8.237   3.129   0.745 -0.5486  0.4402 -0.4892
  322HK4    C1927023   8.064   3.139   0.869 -0.2386 -0.2429 -0.0687
  322HK4    C1827024   7.927   3.093   0.881 -0.0404 -0.7025  0.4546
  322HK4    C1727025   7.873   3.001   0.792 -0.0610  0.1062 -0.3725
  322HK4     H827026   7.780   2.952   0.820  0.0704 -0.6645 -1.2439
  322HK4     N127027   7.871   3.137   1.003 -0.4197  0.3150 -0.0798
  322HK4    C2127028   7.965   3.227   1.056  0.0841 -0.0914 -0.2815
  322HK4    C2227029   8.089   3.228   0.981  0.3696 -0.7227  0.1755
  322HK4    C2627030   8.189   3.322   1.001  0.1829 -0.7045  1.0313
  322HK4    H1327031   8.264   3.341   0.925 -2.2401 -2.2997 -1.8724
  322HK4    C2527032   8.167   3.415   1.102  0.0460  0.4390 -0.0363
  322HK4    H1227033   8.228   3.505   1.102  0.7933 -0.0626 -1.4116
  322HK4    C2427034   8.053   3.416   1.182  0.0879  0.6092  0.0215
  322HK4    H1127035   8.026   3.501   1.246  0.1983  0.1912  0.6201
  322HK4    C2327036   7.951   3.325   1.153  0.6107  0.1790 -0.4797
  322HK4    H1027037   7.849   3.346   1.183  0.7056 -0.1947  0.1180
  322HK4    C3927038   7.734   3.140   1.034 -0.4046 -0.1121  0.0390
  322HK4    C4127039   7.691   3.152   1.167 -0.2690 -0.6142  0.1302
  322HK4    H2127040   7.763   3.143   1.249  0.1796 -0.0395 -0.1994
  322HK4    C4227041   7.563   3.198   1.196  0.0748  0.3450  0.1693
  322HK4    H2227042   7.535   3.233   1.296  0.6600  0.6362  0.2330
  322HK4    C4327043   7.468   3.225   1.098 -0.3281  0.2669  0.5340
  322HK4    H2327044   7.379   3.281   1.125 -1.0228 -0.2615 -0.6032
  322HK4    C4427045   7.512   3.204   0.967 -0.1603 -0.0732  0.6434
  322HK4    H2427046   7.448   3.223   0.880 -0.1542 -1.8373  0.2442
  322HK4    C4527047   7.640   3.164   0.931 -0.4292 -0.3579  0.0034
  322HK4    H2527048   7.671   3.153   0.826  0.4430 -0.7547  0.2984
  323HK4    H2827049   1.363   6.605   4.872  0.9335 -1.7572  3.5860
  323HK4    C4827050   1.466   6.608   4.838 -0.2207 -0.0088  0.0036
  323HK4    C4727051   1.506   6.706   4.748 -0.0756 -0.4092 -0.3725
  323HK4    H2727052   1.441   6.792   4.723  1.8013  0.6705 -1.6637
  323HK4    C4627053   1.633   6.702   4.692 -0.1392  0.2304 -0.5692
  323HK4    H2627054   1.668   6.754   4.601  0.5698 -1.9053 -1.5483
  323HK4    C4027055   1.728   6.609   4.737 -0.2820  0.4486  0.1842
  323HK4    C5027056   1.689   6.520   4.840 -0.3803 -0.0676 -0.2983
  323HK4    H3027057   1.761   6.447   4.880  0.1553  0.3177 -0.5577
  323HK4    C4927058   1.560   6.520   4.891 -0.3425 -0.2661 -0.2050
  323HK4    H2927059   1.531   6.458   4.977  2.2352  0.9011  1.5843
  323HK4     N227060   1.850   6.590   4.671 -0.0956  0.1924  0.5980
  323HK4    C3027061   1.872   6.606   4.533  0.0589  0.2625  0.6301
  323HK4    C2927062   1.785   6.604   4.425  0.6530 -0.7511  0.1675
  323HK4    H1527063   1.679   6.591   4.445  0.1818 -1.1110 -2.2885
  323HK4    C2827064   1.831   6.590   4.294 -0.1815  0.4554 -0.2633
  323HK4    C2727065   1.969   6.595   4.266 -0.1585  0.2238 -0.1982
  323HK4    H1427066   1.997   6.577   4.161 -0.5427 -1.6819  0.0235
  323HK4    C3227067   2.056   6.616   4.373 -0.2732  0.3973 -0.1381
  323HK4    H1627068   2.161   6.627   4.349 -0.0505 -1.9358 -0.3408
  323HK4    C3127069   2.015   6.616   4.506 -0.0831  0.4049 -0.0798
  323HK4    C3427070   2.081   6.631   4.634 -0.2580  0.3756  0.0153
  323HK4    C3327071   1.978   6.599   4.731  0.1012 -0.1493  0.2253
  323HK4    C3527072   2.019   6.562   4.858  0.3966  0.0585  0.1922
  323HK4    H1727073   1.945   6.556   4.939 -0.0121  0.2976 -0.1619
  323HK4    C3627074   2.154   6.563   4.892  0.3864 -0.4088  0.2460
  323HK4    H1827075   2.187   6.532   4.992  1.2705 -0.8277 -0.1762
  323HK4    C3727076   2.250   6.596   4.797 -0.5968  0.8008 -0.3376
  323HK4    H1927077   2.353   6.572   4.820 -0.5887  3.7427  3.1400
  323HK4    C3827078   2.217   6.628   4.665 -0.0988 -0.3071 -0.7335
  323HK4    H2027079   2.294   6.644   4.591  0.8464 -0.6196  0.1738
  323HK4    C1427080   1.745   6.499   4.217  0.0434 -0.1678  0.2078
  323HK4     C927081   1.795   6.380   4.165  0.1224 -0.1944  0.3461
  323HK4     C827082   1.745   6.333   4.041  0.2260  0.1082  0.1911
  323HK4    C1127083   1.636   6.399   3.986  0.0505 -0.3031  0.0501
  323HK4     H427084   1.605   6.371   3.884 -1.3143 -1.3550  0.7246
  323HK4    C1227085   1.575   6.508   4.046  0.5011 -0.0595  0.0615
  323HK4     H527086   1.487   6.558   4.004  0.1366  1.5729  2.6106
  323HK4    C1327087   1.630   6.561   4.162 -0.5054 -0.6428  0.8152
  323HK4     H627088   1.602   6.663   4.193  0.5566 -0.8684  2.6404
  323HK4     C727089   1.794   6.207   3.982  0.1028  0.1955 -0.0968
  323HK4     O227090   1.759   6.172   3.870  0.3284 -0.3943  0.0128
  323HK4     C427091   1.892   6.125   4.058  0.5949  0.5263 -0.3701
  323HK4     C327092   1.933   5.999   4.017 -0.1113  0.1175  0.1757
  323HK4     H327093   1.915   5.961   3.916  0.2335  1.0984 -0.2534
  323HK4     C227094   2.033   5.926   4.082  0.2027  0.2502 -0.1598
  323HK4     H227095   2.072   5.829   4.049 -1.0775 -0.8350  1.4620
  323HK4     C127096   2.104   5.989   4.183 -0.2247 -0.0151  0.3028
  323HK4     H127097   2.152   5.920   4.255 -1.4666 -1.1887  0.0391
  323HK4     C627098   2.076   6.123   4.216 -0.6498 -0.1666  0.5768
  323HK4     C527099   1.960   6.184   4.166 -0.0024  0.5871 -0.0248
  323HK4    C1027100   1.900   6.301   4.236  0.3361  0.3637  0.6533
  323HK4     O127101   1.897   6.293   4.358  0.4942  0.4358  0.6610
  323HK4    C1627102   2.179   6.191   4.297 -0.0533 -0.6248  0.2112
  323HK4    C1527103   2.218   6.321   4.261 -0.0579 -0.7047 -0.0856
  323HK4     H727104   2.177   6.372   4.172  2.2025  2.2310  0.4519
  323HK4    C2027105   2.320   6.386   4.330  0.2702 -0.5000 -0.7501
  323HK4     H927106   2.382   6.452   4.271 -1.5250 -0.1857 -2.3144
  323HK4    C1927107   2.373   6.328   4.445 -0.4366 -0.1752 -0.2621
  323HK4    C1827108   2.315   6.205   4.494 -0.0320 -0.0770  0.4764
  323HK4    C1727109   2.228   6.133   4.413  0.8988 -0.5244 -0.1355
  323HK4     H827110   2.206   6.029   4.438 -0.4011 -0.2633 -0.1210
  323HK4     N127111   2.373   6.170   4.618  0.1706  0.5316  0.5572
  323HK4    C2127112   2.471   6.268   4.643  0.7952  0.1295 -0.2511
  323HK4    C2227113   2.482   6.363   4.534 -0.3372  0.0275 -0.4635
  323HK4    C2627114   2.570   6.471   4.537  0.1760 -0.4015  0.0578
  323HK4    H1327115   2.558   6.550   4.462  1.5014  0.2534  0.5167
  323HK4    C2527116   2.654   6.486   4.647 -0.5710  0.1258  0.5589
  323HK4    H1227117   2.717   6.575   4.647 -1.0790  0.4905  1.4337
  323HK4    C2427118   2.648   6.393   4.750  0.6687 -0.4801  0.0891
  323HK4    H1127119   2.706   6.411   4.842  1.3045 -2.5220  0.0997
  323HK4    C2327120   2.552   6.294   4.753 -0.0937  0.2607  0.3783
  323HK4    H1027121   2.527   6.262   4.854 -0.0351 -0.4411  0.1744
  323HK4    C3927122   2.308   6.109   4.726 -0.0398  0.2632  0.2811
  323HK4    C4127123   2.386   6.052   4.829 -0.2638 -0.3360  0.1196
  323HK4    H2127124   2.487   6.016   4.805  0.4404 -0.5634  3.2094
  323HK4    C4227125   2.334   6.034   4.956 -0.0380 -0.0610  0.2525
  323HK4    H2227126   2.393   5.973   5.026 -0.9402 -0.7267  0.4466
  323HK4    C4327127   2.205   6.071   4.991 -0.1804 -0.2969 -0.0209
  323HK4    H2327128   2.169   6.076   5.094  1.0000  0.0263  0.3848
  323HK4    C4427129   2.124   6.121   4.890 -0.0207  0.6687  0.3230
  323HK4    H2427130   2.017   6.123   4.915  0.2139  0.2074  1.3599
  323HK4    C4527131   2.176   6.140   4.762 -0.0744  0.1792  0.2275
  323HK4    H2527132   2.117   6.188   4.682 -2.1526 -0.1999  1.4809
  324HK4    H2827133   1.320   7.926   0.797  0.3397  0.0882 -0.9637
  324HK4    C4827134   1.405   7.868   0.833 -0.3040 -0.1434  0.2020
  324HK4    C4727135   1.499   7.958   0.881 -0.5856 -0.1170  0.7068
  324HK4    H2727136   1.477   8.066   0.884  1.1234  0.4349 -3.1704
  324HK4    C4627137   1.629   7.911   0.897 -0.4132 -0.0178 -0.3496
  324HK4    H2627138   1.708   7.987   0.896 -2.0608  1.7603  0.2914
  324HK4    C4027139   1.659   7.774   0.881 -0.1388  0.0030 -0.0265
  324HK4    C5027140   1.560   7.689   0.827  0.1064 -0.4027  0.1585
  324HK4    H3027141   1.587   7.589   0.792  2.2296  0.2173 -0.0463
  324HK4    C4927142   1.430   7.734   0.805  0.3820  0.1178 -0.4447
  324HK4    H2927143   1.352   7.656   0.803  1.3813 -1.0517  2.7102
  324HK4     N227144   1.746   7.716   0.974  0.1658  0.1504 -0.2188
  324HK4    C3027145   1.786   7.766   1.099 -0.0732  0.0818 -0.1143
  324HK4    C2927146   1.735   7.868   1.178  0.2563 -0.2740  0.5648
  324HK4    H1527147   1.627   7.861   1.189 -0.1955  0.9158 -2.4650
  324HK4    C2827148   1.803   7.923   1.286 -0.0150  0.2555  0.4666
  324HK4    C2727149   1.924   7.864   1.326 -0.1103 -0.3012 -0.0567
  324HK4    H1427150   1.993   7.921   1.391 -1.8160 -0.5700  2.0598
  324HK4    C3227151   1.973   7.753   1.258 -0.0615 -0.2155 -0.1617
  324HK4    H1627152   2.056   7.700   1.303  0.8538 -0.3296 -1.9469
  324HK4    C3127153   1.913   7.708   1.141  0.1428  0.2985 -0.4650
  324HK4    C3427154   1.949   7.612   1.039 -0.3383  0.0427 -0.3984
  324HK4    C3327155   1.845   7.621   0.939 -0.3733 -0.3495 -0.3988
  324HK4    C3527156   1.872   7.552   0.822  0.0824 -0.4365 -0.2425
  324HK4    H1727157   1.793   7.553   0.747 -0.9075 -1.2058  0.7743
  324HK4    C3627158   1.989   7.483   0.793  0.2635 -0.0332 -0.4865
  324HK4    H1827159   1.985   7.438   0.692  0.4653 -0.7286 -0.1855
  324HK4    C3727160   2.088   7.475   0.890 -0.1136  0.4533 -0.0608
  324HK4    H1927161   2.192   7.466   0.859  0.4210  1.3962  1.4192
  324HK4    C3827162   2.065   7.540   1.010 -0.1860  0.0734  0.1304
  324HK4    H2027163   2.129   7.524   1.097  1.5214 -1.9515 -1.4610
  324HK4    C1427164   1.756   8.054   1.336 -0.4002  0.4504 -0.3998
  324HK4     C927165   1.838   8.158   1.381  0.1154 -0.1392  0.0354
  324HK4     C827166   1.810   8.231   1.498 -0.0343 -0.5251  0.2444
  324HK4    C1127167   1.689   8.216   1.564 -0.2567  0.6049  0.1046
  324HK4     H427168   1.679   8.261   1.665 -0.1833 -0.0844  0.4179
  324HK4    C1227169   1.599   8.125   1.511  0.3667 -0.2232  0.4511
  324HK4     H527170   1.509   8.097   1.568  0.3162  0.4930  0.7349
  324HK4    C1327171   1.632   8.046   1.402 -0.0861  0.0037  0.1437
  324HK4     H627172   1.546   7.999   1.352 -0.2099  0.5327 -0.1356
  324HK4     C727173   1.919   8.286   1.581  0.2606 -0.0403 -0.4512
  324HK4     O227174   1.903   8.350   1.685  0.2896  0.0785 -0.5197
  324HK4     C427175   2.052   8.287   1.516  0.5743 -0.3827  0.1790
  324HK4     C327176   2.170   8.305   1.587  0.5430 -0.8119  0.3437
  324HK4     H327177   2.177   8.263   1.689  0.6081  0.2675  0.7907
  324HK4     C227178   2.289   8.334   1.522  0.0901 -0.3560 -0.2860
  324HK4     H227179   2.382   8.320   1.579 -1.2338  0.6142  2.2010
  324HK4     C127180   2.284   8.375   1.389  0.3825 -0.4930 -0.3378
  324HK4     H127181   2.376   8.407   1.338  0.0718 -0.2214 -0.7300
  324HK4     C627182   2.164   8.361   1.317  0.1247 -0.1572  0.0226
  324HK4     C527183   2.057   8.292   1.375  0.4028 -0.4666  0.1685
  324HK4    C1027184   1.960   8.202   1.307 -0.3469  0.6512 -0.2689
  324HK4     O127185   1.985   8.164   1.193  0.2911  0.5328 -0.0925
  324HK4    C1627186   2.141   8.449   1.201 -0.4882 -0.0169  0.2531
  324HK4    C1527187   2.246   8.527   1.151 -0.6914  0.1685  0.1137
  324HK4     H727188   2.351   8.511   1.183 -1.0218 -0.0274  1.1196
  324HK4    C2027189   2.231   8.626   1.055 -0.1494  0.7227  0.5885
  324HK4     H927190   2.322   8.653   1.002  0.7229 -0.3347  1.5329
  324HK4    C1927191   2.103   8.654   1.008 -0.0400  0.7811  0.3234
  324HK4    C1827192   1.989   8.574   1.051  0.2388  0.0880 -0.2155
  324HK4    C1727193   2.016   8.477   1.147 -0.4097  0.4027  0.2899
  324HK4     H827194   1.934   8.438   1.206 -0.4452  2.4817  1.6550
  324HK4     N127195   1.873   8.597   0.974 -0.2440 -0.0159  0.4788
  324HK4    C2127196   1.915   8.697   0.884 -0.4781  0.0656  0.4623
  324HK4    C2227197   2.047   8.749   0.914 -0.4369  0.2310  0.0038
  324HK4    C2627198   2.096   8.862   0.849  0.0797 -0.0335 -0.0722
  324HK4    H1327199   2.201   8.886   0.860  0.1519 -0.2703 -0.2399
  324HK4    C2527200   2.009   8.936   0.770 -0.5461 -0.0763  0.5680
  324HK4    H1227201   2.035   9.039   0.744  1.2722 -0.6548 -0.0038
  324HK4    C2427202   1.879   8.892   0.750 -0.5506  0.1605  0.0841
  324HK4    H1127203   1.809   8.945   0.683 -1.0338 -0.7452 -0.1371
  324HK4    C2327204   1.835   8.768   0.794 -0.0004 -0.1001 -0.0991
  324HK4    H1027205   1.760   8.720   0.732  1.6289 -1.6148 -0.9555
  324HK4    C3927206   1.763   8.514   0.949  0.2797 -0.5279 -0.1208
  324HK4    C4127207   1.637   8.564   0.912  0.4944 -0.2592 -0.4839
  324HK4    H2127208   1.621   8.672   0.926 -0.1451 -0.3704 -0.3679
  324HK4    C4227209   1.529   8.481   0.885 -0.0273  0.3349 -0.2441
  324HK4    H2227210   1.437   8.528   0.848 -1.0101 -0.0454  1.6649
  324HK4    C4327211   1.535   8.342   0.891 -0.0886  0.3193 -0.5393
  324HK4    H2327212   1.445   8.280   0.895  0.0948  0.0889  0.2057
  324HK4    C4427213   1.661   8.293   0.923 -0.3056 -0.1458 -0.3848
  324HK4    H2427214   1.681   8.191   0.888  1.8819 -0.1132  0.7058
  324HK4    C4527215   1.772   8.373   0.950 -0.0188 -0.5485 -0.3723
  324HK4    H2527216   1.863   8.335   0.998  0.6066  2.2944  0.7653
  325HK4    H2827217   9.147   9.904   1.427  0.5023 -1.6328  0.7160
  325HK4    C4827218   9.162   9.963   1.517 -1.1604 -0.1637  0.0637
  325HK4    C4727219   9.149  10.101   1.508  0.1128 -0.0673 -0.4523
  325HK4    H2727220   9.126  10.151   1.413  0.9738 -1.8634 -1.6468
  325HK4    C4627221   9.171  10.175   1.624  0.3433 -0.0996 -0.4749
  325HK4    H2627222   9.179  10.283   1.609  0.6891  0.0732  0.8995
  325HK4    C4027223   9.204  10.117   1.748  0.2702 -0.1912 -0.4968
  325HK4    C5027224   9.221   9.977   1.745 -0.5472 -0.3124  0.3416
  325HK4    H3027225   9.240   9.920   1.837 -2.1301 -0.7078  0.4433
  325HK4    C4927226   9.193   9.896   1.635 -0.0800  0.0903 -0.0740
  325HK4    H2927227   9.221   9.790   1.626  0.0882  0.0759  0.5778
  325HK4     N227228   9.267  10.192   1.849 -0.5316 -0.1821 -0.0015
  325HK4    C3027229   9.351  10.303   1.831  0.1533 -0.6868  0.0344
  325HK4    C2927230   9.444  10.325   1.730 -0.4878  0.7668 -0.2502
  325HK4    H1527231   9.428  10.275   1.634 -0.8683 -0.8125  0.6283
  325HK4    C2827232   9.551  10.413   1.738 -0.1337  0.3614 -0.5275
  325HK4    C2727233   9.552  10.493   1.854  0.2821  0.3260 -0.5048
  325HK4    H1427234   9.622  10.576   1.868  0.0412  0.0963  2.3531
  325HK4    C3227235   9.469  10.472   1.964 -0.4558 -0.2620 -1.1676
  325HK4    H1627236   9.501  10.515   2.059 -0.7227 -0.1885 -1.1124
  325HK4    C3127237   9.377  10.368   1.958 -0.1572 -0.6072  0.0573
  325HK4    C3427238   9.309  10.287   2.057 -0.1253  0.0704  0.6354
  325HK4    C3327239   9.242  10.180   1.987  0.6726 -0.1709  0.2269
  325HK4    C3527240   9.162  10.092   2.060  0.0709 -0.1741 -0.4336
  325HK4    H1727241   9.127  10.002   2.010  1.3764 -1.1394  0.3488
  325HK4    C3627242   9.138  10.111   2.195 -0.0532  0.0549 -0.4879
  325HK4    H1827243   9.082  10.038   2.256  0.1372  3.3326  3.8629
  325HK4    C3727244   9.202  10.215   2.262 -0.1225 -0.1942 -0.0303
  325HK4    H1927245   9.192  10.221   2.370  3.5981  3.0189  0.2602
  325HK4    C3827246   9.290  10.299   2.195 -0.0238  0.2356  0.6352
  325HK4    H2027247   9.369  10.346   2.254  0.9009 -0.4796 -0.0206
  325HK4    C1427248   9.672  10.370   1.666  0.0820 -0.3679  0.2542
  325HK4     C927249   9.803  10.370   1.714  0.0814 -0.5311  0.2629
  325HK4     C827250   9.904  10.385   1.617 -0.3195  0.5507  0.0034
  325HK4    C1127251   9.876  10.382   1.480 -0.3611  0.1425  0.0203
  325HK4     H427252   9.956  10.405   1.408 -0.4935  0.4026 -0.0417
  325HK4    C1227253   9.746  10.380   1.432 -0.3113 -0.2135 -0.1038
  325HK4     H527254   9.731  10.397   1.325  2.1570  1.5150 -0.2105
  325HK4    C1327255   9.645  10.374   1.527  0.0315 -0.0479  0.2731
  325HK4     H627256   9.545  10.361   1.482 -0.3440  0.0099  1.0664
  325HK4     C727257  10.047  10.382   1.655 -0.2610 -0.0503 -0.2419
  325HK4     O227258  10.136  10.369   1.572  0.1592  0.3641  0.1387
  325HK4     C427259  10.085  10.382   1.798 -0.5088 -0.2544 -0.1766
  325HK4     C327260  10.216  10.367   1.841 -0.6287  0.5278  0.4685
  325HK4     H327261  10.284  10.364   1.755 -0.7162 -0.0509  0.4205
  325HK4     C227262  10.251  10.390   1.974  0.2171  0.6645  0.2267
  325HK4     H227263  10.346  10.357   2.018  1.2162  0.3073 -2.1504
  325HK4     C127264  10.155  10.445   2.059 -0.1782  0.3006  0.0173
  325HK4     H127265  10.174  10.435   2.167 -0.9631  0.0203  0.1272
  325HK4     C627266  10.026  10.482   2.015 -0.0023  0.4720 -0.3740
  325HK4     C527267   9.989  10.423   1.894 -0.3097  0.5935 -0.3399
  325HK4    C1027268   9.849  10.392   1.854 -0.2510 -0.6642  0.3929
  325HK4     O127269   9.784  10.337   1.943 -0.8669 -0.6670 -0.0553
  325HK4    C1627270   9.981  10.612   2.067 -0.3104  0.1104  0.2736
  325HK4    C1527271  10.071  10.715   2.102 -0.0710  0.1581 -0.4589
  325HK4     H727272  10.178  10.696   2.089 -0.3797 -2.6120  0.6165
  325HK4    C2027273  10.026  10.832   2.162 -0.4625  0.4461 -1.3082
  325HK4     H927274  10.088  10.921   2.149  0.1466  0.1434 -0.4860
  325HK4    C1927275   9.891  10.845   2.193 -0.1867 -0.3432  0.2581
  325HK4    C1827276   9.797  10.738   2.169  0.0622 -0.5562  0.2307
  325HK4    C1727277   9.847  10.630   2.096 -0.4986 -0.5654 -0.1444
  325HK4     H827278   9.766  10.566   2.062 -1.5841  1.6855 -1.9728
  325HK4     N127279   9.667  10.759   2.220 -0.1416  0.1706 -0.5853
  325HK4    C2127280   9.680  10.889   2.274 -0.4046  0.1038 -0.3620
  325HK4    C2227281   9.808  10.951   2.247 -0.2288 -0.1647 -0.1598
  325HK4    C2627282   9.848  11.080   2.280  0.1269 -0.2939 -0.0844
  325HK4    H1327283   9.945  11.126   2.265  1.3666 -2.6790  0.3438
  325HK4    C2527284   9.749  11.155   2.344  0.1599 -0.8349  0.6092
  325HK4    H1227285   9.767   0.011   2.368 -1.5930 -0.2759 -0.4055
  325HK4    C2427286   9.628  11.098   2.382 -0.7193  0.2286 -0.5586
  325HK4    H1127287   9.570  11.150   2.460  1.2837  2.1434 -0.2911
  325HK4    C2327288   9.594  10.967   2.350 -0.1153 -0.1164  0.2007
  325HK4    H1027289   9.488  10.942   2.342 -0.9170  2.5860  1.6764
  325HK4    C3927290   9.586  10.657   2.270  0.4421  0.0971  0.2115
  325HK4    C4127291   9.448  10.683   2.282  0.4286  0.1498 -0.0858
  325HK4    H2127292   9.388  10.747   2.215  0.7415  1.6612  1.0506
  325HK4    C4227293   9.382  10.623   2.388  0.0668  0.8658  0.1002
  325HK4    H2227294   9.299  10.681   2.430  1.6649  1.7698  2.1004
  325HK4    C4327295   9.440  10.525   2.468 -0.1933  0.8067  0.2142
  325HK4    H2327296   9.384  10.461   2.536  1.3875 -0.7928  0.0549
  325HK4    C4427297   9.575  10.495   2.454 -0.3590  0.0087  0.3058
  325HK4    H2427298   9.628  10.443   2.535 -0.8595 -0.7098  0.1735
  325HK4    C4527299   9.646  10.560   2.353 -0.3237 -0.6382 -0.0862
  325HK4    H2527300   9.752  10.534   2.337 -0.6654 -2.6009  0.6125
  326HK4    H2827301   0.182   2.963   7.136 -0.0753 -1.3694 -0.4212
  326HK4    C4827302   0.262   3.037   7.140 -0.9608 -0.4200  0.2387
  326HK4    C4727303   0.372   3.021   7.224 -0.6404 -0.3244 -0.1536
  326HK4    H2727304   0.387   2.921   7.268 -1.0724  0.6514  2.3459
  326HK4    C4627305   0.477   3.111   7.219 -1.0643  0.1862 -0.0164
  326HK4    H2627306   0.556   3.104   7.295  0.5197 -2.5575 -1.8167
  326HK4    C4027307   0.474   3.228   7.141  0.0103  0.0529 -0.2710
  326HK4    C5027308   0.358   3.241   7.061 -0.2034  0.0750  0.0409
  326HK4    H3027309   0.334   3.341   7.022  0.3637  0.2258  0.0793
  326HK4    C4927310   0.253   3.149   7.058  0.3285 -0.5345 -0.0767
  326HK4    H2927311   0.172   3.165   6.986 -2.2625  3.2536  3.3776
  326HK4     N227312   0.533   3.352   7.168 -0.6315  0.3083 -0.0343
  326HK4    C3027313   0.587   3.393   7.291 -0.0995 -0.6452  0.0557
  326HK4    C2927314   0.523   3.402   7.414  0.1549 -0.6313  0.1867
  326HK4    H1527315   0.434   3.340   7.430  1.0111 -2.2065 -1.0231
  326HK4    C2827316   0.573   3.473   7.523 -0.1673  0.7251 -0.5420
  326HK4    C2727317   0.697   3.535   7.498  0.3658 -0.1310 -0.0692
  326HK4    H1427318   0.744   3.590   7.581  0.4634 -1.4068  0.7277
  326HK4    C3227319   0.762   3.540   7.375 -0.0860 -0.2416 -0.3127
  326HK4    H1627320   0.854   3.595   7.355 -0.8094  0.5116 -1.6775
  326HK4    C3127321   0.710   3.467   7.269 -0.1781 -0.5471 -0.0572
  326HK4    C3427322   0.723   3.482   7.125  0.1431  0.3495  0.0644
  326HK4    C3327323   0.611   3.412   7.067  0.3520 -0.2585  0.3908
  326HK4    C3527324   0.588   3.433   6.931 -0.1691 -0.2750  0.4785
  326HK4    H1727325   0.491   3.404   6.891  0.3191 -0.0850 -0.8583
  326HK4    C3627326   0.679   3.505   6.855 -0.3546 -0.9244 -0.3695
  326HK4    H1827327   0.656   3.506   6.748 -2.1253 -0.8557 -0.0099
  326HK4    C3727328   0.790   3.568   6.910 -0.4990 -0.5264 -0.5321
  326HK4    H1927329   0.829   3.655   6.859 -2.3716 -2.0403 -4.7141
  326HK4    C3827330   0.809   3.560   7.048 -0.0640 -0.0433 -0.5623
  326HK4    H2027331   0.893   3.617   7.088 -0.6228 -0.7645  1.7212
  326HK4    C1427332   0.487   3.514   7.634  0.2173 -0.0303  0.0413
  326HK4     C927333   0.505   3.633   7.706 -0.3265 -0.0953  0.2918
  326HK4     C827334   0.477   3.643   7.844 -0.2507 -0.1146  0.3098
  326HK4    C1127335   0.403   3.539   7.900 -0.4294 -0.2849 -0.2362
  326HK4     H427336   0.355   3.549   7.998  1.2337 -0.9737  0.6703
  326HK4    C1227337   0.378   3.421   7.832 -0.4978 -0.4458  0.0711
  326HK4     H527338   0.312   3.349   7.883  0.2392 -0.6181  0.7916
  326HK4    C1327339   0.425   3.408   7.702 -0.5885  0.3786 -0.0477
  326HK4     H627340   0.385   3.325   7.641  0.6339  1.2165 -2.0427
  326HK4     C727341   0.536   3.757   7.917 -0.2160  0.1152 -0.0768
  326HK4     O227342   0.510   3.770   8.036  0.5398  0.1184  0.0926
  326HK4     C427343   0.620   3.855   7.844  0.5888 -0.5178 -0.0071
  326HK4     C327344   0.695   3.949   7.915 -0.2114  0.2451 -0.1670
  326HK4     H327345   0.667   3.965   8.020  1.8965 -0.4271  0.5207
  326HK4     C227346   0.782   4.036   7.852 -0.1440  0.3197  0.0284
  326HK4     H227347   0.836   4.107   7.916 -1.0702 -0.4870  1.7256
  326HK4     C127348   0.796   4.030   7.714  0.5970 -0.6387  0.1437
  326HK4     H127349   0.867   4.097   7.663 -0.1180  1.5094  1.9087
  326HK4     C627350   0.723   3.936   7.638 -0.2019 -0.0677  0.1947
  326HK4     C527351   0.630   3.854   7.704 -0.4748  0.0173 -0.0866
  326HK4    C1027352   0.540   3.758   7.633 -0.5753 -0.0879  0.1850
  326HK4     O127353   0.467   3.793   7.541  0.0673  0.0676 -0.2724
  326HK4    C1627354   0.781   3.897   7.509 -0.0120 -0.1062  0.2917
  326HK4    C1527355   0.920   3.895   7.487 -0.0466 -0.5323  0.1122
  326HK4     H727356   0.984   3.857   7.568 -0.5287 -0.5454  0.4857
  326HK4    C2027357   0.977   3.901   7.360 -0.4659 -0.4265 -0.0687
  326HK4     H927358   1.077   3.940   7.344 -0.2391 -1.0850 -0.2412
  326HK4    C1927359   0.893   3.898   7.249 -0.3516 -0.1522 -0.1646
  326HK4    C1827360   0.750   3.898   7.270 -0.3667  0.4759 -0.2697
  326HK4    C1727361   0.697   3.908   7.398  0.3484  0.1986  0.0474
  326HK4     H827362   0.600   3.954   7.411  0.7099  1.1575 -0.5782
  326HK4     N127363   0.679   3.908   7.148 -0.4916  1.0238 -0.1549
  326HK4    C2127364   0.780   3.909   7.050 -0.3270  0.6790  0.0090
  326HK4    C2227365   0.914   3.915   7.106 -0.2397  0.0184 -0.1261
  326HK4    C2627366   1.031   3.921   7.032 -0.0466  0.2713  0.1956
  326HK4    H1327367   1.127   3.921   7.084  0.9347 -1.0623 -1.5535
  326HK4    C2527368   1.022   3.914   6.893 -0.2864  0.6135  0.1930
  326HK4    H1227369   1.112   3.935   6.835 -0.7529 -1.9378 -1.5381
  326HK4    C2427370   0.895   3.918   6.839 -0.1080 -0.3002 -0.3004
  326HK4    H1127371   0.889   3.920   6.729 -0.5052  2.3092 -0.2729
  326HK4    C2327372   0.777   3.927   6.912  0.0609  0.0979 -0.0764
  326HK4    H1027373   0.682   3.941   6.859 -0.4955  3.4149  1.6796
  326HK4    C3927374   0.551   3.855   7.128 -0.0157 -0.2387  0.0749
  326HK4    C4127375   0.479   3.902   7.016 -0.1266  0.2002  0.3278
  326HK4    H2127376   0.495   4.006   6.983 -0.7435 -0.2910 -1.5695
  326HK4    C4227377   0.372   3.833   6.961 -0.1912  0.2880  0.3440
  326HK4    H2227378   0.319   3.862   6.869 -1.1221 -1.3034  0.3562
  326HK4    C4327379   0.320   3.720   7.023  0.6171 -0.3457 -0.1222
  326HK4    H2327380   0.229   3.671   6.989 -0.0763  0.5238  0.4542
  326HK4    C4427381   0.384   3.683   7.140 -0.6492 -0.0954  0.6548
  326HK4    H2427382   0.332   3.607   7.201 -1.9034 -0.7265 -1.1853
  326HK4    C4527383   0.494   3.747   7.197 -0.9007  0.4893  0.4923
  326HK4    H2527384   0.547   3.705   7.284 -0.1287  0.4272 -0.0093
  327HK4    H2827385   9.533   1.016   7.668 -0.2170 -2.1845  1.5579
  327HK4    C4827386   9.627   0.987   7.622  0.1248  0.1994  0.6839
  327HK4    C4727387   9.629   0.907   7.508  0.5366  0.1231  0.7442
  327HK4    H2727388   9.537   0.885   7.451  1.2989 -0.0976 -0.4156
  327HK4    C4627389   9.747   0.842   7.475  0.0650 -0.2282 -0.2523
  327HK4    H2627390   9.753   0.765   7.395 -0.0788 -0.7761  0.2622
  327HK4    C4027391   9.869   0.865   7.541 -0.0158 -0.2287 -0.1042
  327HK4    C5027392   9.862   0.954   7.651  0.3693 -0.1367 -0.1520
  327HK4    H3027393   9.952   0.960   7.714 -1.7965 -0.9091  3.1410
  327HK4    C4927394   9.743   1.013   7.693  0.5641  0.1439 -0.0034
  327HK4    H2927395   9.737   1.071   7.787  1.1340 -1.9456  1.3424
  327HK4     N227396   9.983   0.789   7.512  0.3698  0.4977 -0.5005
  327HK4    C3027397   9.983   0.657   7.462  0.2378  0.1115  0.5081
  327HK4    C2927398   9.881   0.563   7.462 -0.0003  0.3649 -0.0887
  327HK4    H1527399   9.791   0.579   7.522 -1.1186 -0.5094 -1.5165
  327HK4    C2827400   9.894   0.442   7.395  0.1907  0.2329  0.1865
  327HK4    C2727401  10.017   0.402   7.337 -0.0080 -0.3578  0.1711
  327HK4    H1427402  10.028   0.308   7.281 -0.8142  0.3784 -1.2633
  327HK4    C3227403  10.125   0.489   7.348 -0.0599 -0.3322  0.4922
  327HK4    H1627404  10.219   0.467   7.298 -0.7736  0.3356 -1.2101
  327HK4    C3127405  10.110   0.615   7.406 -0.0207 -0.1618  0.1352
  327HK4    C3427406  10.192   0.733   7.416  0.2357 -0.3191 -0.1161
  327HK4    C3327407  10.116   0.831   7.491  0.4340  0.2289 -0.6249
  327HK4    C3527408  10.162   0.961   7.505 -0.0339  0.3434 -0.1691
  327HK4    H1727409  10.122   1.028   7.582  0.8655 -1.0294  1.4997
  327HK4    C3627410  10.275   1.008   7.440  0.2275  0.4756  0.3754
  327HK4    H1827411  10.310   1.111   7.456  0.0335  0.4996  0.6335
  327HK4    C3727412  10.349   0.913   7.369 -0.3478  0.0282  0.3700
  327HK4    H1927413  10.437   0.943   7.313  0.1746 -0.4136  0.9480
  327HK4    C3827414  10.307   0.782   7.354  0.4748 -0.2377  0.3969
  327HK4    H2027415  10.382   0.711   7.318 -0.0256  0.2899 -1.7015
  327HK4    C1427416   9.780   0.351   7.382  0.2537  0.2534 -0.5156
  327HK4     C927417   9.797   0.212   7.372 -0.2229  0.1286  0.3486
  327HK4     C827418   9.714   0.130   7.293 -0.1438 -0.1530  0.5612
  327HK4    C1127419   9.600   0.190   7.241 -0.0929 -0.2040  0.3868
  327HK4     H427420   9.528   0.134   7.178 -1.2412  0.1912  1.3340
  327HK4    C1227421   9.571   0.325   7.260 -0.6228 -0.2831  0.1700
  327HK4     H527422   9.478   0.372   7.227  0.2001  1.4215  0.2106
  327HK4    C1327423   9.662   0.406   7.326 -0.0710 -0.3813 -0.4646
  327HK4     H627424   9.640   0.510   7.357 -3.1011 -1.0291 -0.3096
  327HK4     C727425   9.746  11.239   7.255  0.5234  0.2265 -0.2803
  327HK4     O227426   9.692  11.185   7.159  0.4216  0.3109 -0.2682
  327HK4     C427427   9.851  11.174   7.337  0.0772  0.1833  0.2541
  327HK4     C327428   9.857  11.035   7.335 -0.3346  0.1658  0.2490
  327HK4     H327429   9.771  10.981   7.292  0.1320  0.6816 -1.3511
  327HK4     C227430   9.958  10.966   7.401 -0.1909 -0.3297 -0.4909
  327HK4     H227431   9.973  10.858   7.409 -2.3488 -0.6078  0.1322
  327HK4     C127432  10.058  11.049   7.450 -0.7243  0.2955 -0.4464
  327HK4     H127433  10.142  11.003   7.505  0.7847  2.5885 -0.7364
  327HK4     C627434  10.064  11.190   7.440  0.1448  0.3543  0.7777
  327HK4     C527435   9.947   0.008   7.401  0.3071  0.1567 -0.0514
  327HK4    C1027436   9.908   0.145   7.445 -0.1452 -0.0165  0.0970
  327HK4     O127437   9.934   0.186   7.558  0.0738  0.2022 -0.0312
  327HK4    C1627438  10.197   0.003   7.431  0.4259 -0.3010  0.4986
  327HK4    C1527439  10.309  11.167   7.418  0.6735  0.2297 -0.8286
  327HK4     H727440  10.297  11.078   7.354 -1.9630  1.0274 -1.4986
  327HK4    C2027441  10.438  11.203   7.456  0.3052 -0.1267  0.7698
  327HK4     H927442  10.518  11.130   7.445  0.4906  0.1430  0.3285
  327HK4    C1927443  10.461   0.083   7.505 -0.1385  0.2703 -0.0516
  327HK4    C1827444  10.349   0.175   7.513 -0.0183  0.3907  0.2370
  327HK4    C1727445  10.223   0.133   7.472  0.2849 -0.0323 -0.2675
  327HK4     H827446  10.155   0.214   7.444 -0.3068 -0.1449  0.8336
  327HK4     N127447  10.390   0.287   7.588  0.2193  0.2077  0.3852
  327HK4    C2127448  10.527   0.273   7.618  0.4146  0.1112 -0.5323
  327HK4    C2227449  10.574   0.143   7.574  0.1320 -0.1218 -0.1520
  327HK4    C2627450  10.691   0.094   7.631  0.4304  0.3176 -0.3835
  327HK4    H1327451  10.708  11.235   7.631 -2.2482 -0.1580  0.3267
  327HK4    C2527452  10.757   0.165   7.731 -0.4746 -0.1802  0.5774
  327HK4    H1227453  10.851   0.129   7.772 -0.2687 -1.7997 -1.2401
  327HK4    C2427454  10.717   0.293   7.767 -0.3238 -0.1357  0.5803
  327HK4    H1127455  10.770   0.332   7.856 -0.9996  0.5297  0.6990
  327HK4    C2327456  10.598   0.342   7.715 -0.1590 -0.2132  0.1224
  327HK4    H1027457  10.545   0.420   7.769  1.4629  2.5849 -2.2254
  327HK4    C3927458  10.299   0.385   7.632  0.0694  0.3196 -0.1678
  327HK4    C4127459  10.343   0.516   7.658 -0.0916  0.4406 -0.5055
  327HK4    H2127460  10.446   0.536   7.625 -0.4210 -0.0315 -1.8811
  327HK4    C4227461  10.277   0.612   7.733  0.1016  0.0507  0.1676
  327HK4    H2227462  10.323   0.708   7.764 -0.7879  0.2572  0.8645
  327HK4    C4327463  10.150   0.579   7.777  0.0571  0.0989  0.0755
  327HK4    H2327464  10.122   0.635   7.867  0.3331 -0.9689  0.8430
  327HK4    C4427465  10.095   0.454   7.748  0.2111  0.1188 -0.3030
  327HK4    H2427466   9.989   0.435   7.771  0.1797  1.8353  1.0978
  327HK4    C4527467  10.171   0.358   7.683  0.0260  0.0490 -0.4154
  327HK4    H2527468  10.118   0.261   7.674  0.3258  0.0099 -1.7777
  328HK4    H2827469   1.953   5.226   8.889  1.5684 -0.2067  0.8945
  328HK4    C4827470   1.889   5.250   8.974  0.2182  0.3440 -0.2633
  328HK4    C4727471   1.751   5.250   8.954  0.1207  0.1813  0.4012
  328HK4    H2727472   1.723   5.254   8.848 -1.9605 -1.5138  0.8458
  328HK4    C4627473   1.654   5.242   9.054 -0.0513  0.7280  0.2770
  328HK4    H2627474   1.549   5.251   9.021  0.0116  0.2915 -0.0469
  328HK4    C4027475   1.695   5.226   9.188  0.0460  0.2086  0.1930
  328HK4    C5027476   1.834   5.232   9.211 -0.0085  0.1674  0.5294
  328HK4    H3027477   1.886   5.214   9.306  0.8915 -0.4446 -0.0696
  328HK4    C4927478   1.926   5.245   9.108 -0.5904 -0.3087 -0.0543
  328HK4    H2927479   2.028   5.271   9.140 -0.4352  0.4523 -1.1247
  328HK4     N227480   1.608   5.215   9.297 -0.4097 -0.1676 -0.2085
  328HK4    C3027481   1.484   5.279   9.315 -0.4599 -0.3202 -0.0154
  328HK4    C2927482   1.444   5.411   9.296 -0.0859 -0.2342 -0.2077
  328HK4    H1527483   1.521   5.485   9.273 -1.5215  2.4230  3.1591
  328HK4    C2827484   1.319   5.458   9.333  0.1638  0.1125  0.1960
  328HK4    C2727485   1.223   5.368   9.382 -0.1514  0.3864  0.0859
  328HK4    H1427486   1.114   5.386   9.383  0.1831  2.6241  1.4854
  328HK4    C3227487   1.258   5.236   9.408 -0.0231  0.3204 -0.4287
  328HK4    H1627488   1.184   5.166   9.447  1.1555  0.0312  1.3286
  328HK4    C3127489   1.387   5.194   9.382  0.0027 -0.3037  0.6844
  328HK4    C3427490   1.465   5.076   9.415  0.1229 -0.2509  0.5928
  328HK4    C3327491   1.601   5.092   9.366 -0.1389 -0.1198 -0.0925
  328HK4    C3527492   1.702   5.005   9.405  0.1081  0.4794  0.6128
  328HK4    H1727493   1.805   5.004   9.371 -0.9928  0.4832 -2.8870
  328HK4    C3627494   1.666   4.893   9.481 -0.2794 -0.0956 -0.4014
  328HK4    H1827495   1.733   4.808   9.502 -1.1370 -0.9419 -1.0852
  328HK4    C3727496   1.536   4.880   9.526  0.0977 -0.0197  0.7060
  328HK4    H1927497   1.508   4.784   9.570 -1.0433 -0.3718 -0.7574
  328HK4    C3827498   1.432   4.968   9.497 -0.0810 -0.3315  0.4068
  328HK4    H2027499   1.332   4.958   9.539 -1.3425  0.4720 -2.2882
  328HK4    C1427500   1.301   5.603   9.353  0.0770  0.1344 -0.0425
  328HK4     C927501   1.208   5.658   9.443  0.2158  0.3702 -0.0450
  328HK4     C827502   1.145   5.781   9.418 -0.0891  0.2621  0.1904
  328HK4    C1127503   1.187   5.859   9.311 -0.7879  0.2060 -0.1287
  328HK4     H427504   1.149   5.961   9.294  0.3695  0.6808  0.1165
  328HK4    C1227505   1.276   5.805   9.219 -0.3287 -0.0027  0.4373
  328HK4     H527506   1.330   5.865   9.144  0.6189 -0.9378  0.3662
  328HK4    C1327507   1.327   5.677   9.236  0.2412  0.1655  0.0126
  328HK4     H627508   1.367   5.619   9.151  0.4681 -2.9501  2.1477
  328HK4     C727509   1.021   5.816   9.490 -0.5905 -0.0356 -0.5274
  328HK4     O227510   0.974   5.929   9.478 -0.2066  0.0863 -0.8858
  328HK4     C427511   0.965   5.723   9.591 -0.0474 -0.5286 -0.6744
  328HK4     C327512   0.837   5.743   9.641  0.4450  0.0319  0.3838
  328HK4     H327513   0.795   5.844   9.633  1.2940  0.2218 -2.0521
  328HK4     C227514   0.773   5.641   9.712  0.5311 -0.0795  0.3030
  328HK4     H227515   0.674   5.662   9.754  0.3064 -1.4619  0.4567
  328HK4     C127516   0.835   5.520   9.739 -0.3059 -0.5419  0.1784
  328HK4     H127517   0.782   5.442   9.795  0.8269 -0.9391  0.7107
  328HK4     C627518   0.972   5.504   9.709 -0.2573  0.0583  0.0771
  328HK4     C527519   1.032   5.607   9.634 -0.0007 -0.3624 -0.2963
  328HK4    C1027520   1.162   5.587   9.565  0.3135  0.4676  0.0502
  328HK4     O127521   1.251   5.534   9.632  0.1224  0.1298  0.0375
  328HK4    C1627522   1.022   5.366   9.715 -0.1439  0.1073  0.2835
  328HK4    C1527523   0.952   5.258   9.656  0.1529  0.1273 -0.1063
  328HK4     H727524   0.870   5.268   9.583 -0.9199 -0.0109  1.0629
  328HK4    C2027525   1.000   5.129   9.670  0.2293  0.1351 -0.2838
  328HK4     H927526   0.925   5.050   9.673  0.7547 -0.3994 -1.0796
  328HK4    C1927527   1.117   5.099   9.739 -0.1098 -0.1711  0.1583
  328HK4    C1827528   1.182   5.206   9.811  0.3313 -0.3437  0.0227
  328HK4    C1727529   1.128   5.333   9.798  0.2324 -0.4289 -0.4007
  328HK4     H827530   1.165   5.413   9.862 -2.0649  1.0701 -0.8953
  328HK4     N127531   1.283   5.156   9.897  0.3814 -0.2698  0.0057
  328HK4    C2127532   1.280   5.016   9.889  0.1568 -0.2746  0.1535
  328HK4    C2227533   1.185   4.979   9.786  0.7552  0.0501 -0.5181
  328HK4    C2627534   1.170   4.843   9.761  0.2230  0.0382 -0.1547
  328HK4    H1327535   1.109   4.810   9.677  1.4462  0.4275 -1.2235
  328HK4    C2527536   1.254   4.750   9.822  0.0489 -0.2507 -0.3545
  328HK4    H1227537   1.237   4.643   9.818  1.4707 -0.4871 -0.2950
  328HK4    C2427538   1.352   4.787   9.914 -0.1496  0.1793 -0.3119
  328HK4    H1127539   1.415   4.713   9.964  1.0180  1.5302  0.2230
  328HK4    C2327540   1.356   4.919   9.955  0.4115 -0.0076  0.2509
  328HK4    H1027541   1.415   4.955  10.039  1.7458  1.9137 -1.4441
  328HK4    C3927542   1.385   5.241   9.941  0.2099 -0.1073  0.0908
  328HK4    C4127543   1.458   5.207  10.056  0.3893 -0.1968 -0.0468
  328HK4    H2127544   1.413   5.149  10.137 -1.7705  0.1970 -0.9307
  328HK4    C4227545   1.582   5.266  10.081  0.3657 -0.0481 -0.2862
  328HK4    H2227546   1.645   5.232  10.164 -1.3302  0.2460  1.1601
  328HK4    C4327547   1.631   5.357   9.988  0.5152 -0.0371 -0.1969
  328HK4    H2327548   1.731   5.398  10.004  0.7507 -1.2151  1.4701
  328HK4    C4427549   1.559   5.398   9.876  0.6121 -0.3068 -0.3556
  328HK4    H2427550   1.610   5.449   9.794  2.5945 -0.0255  1.0162
  328HK4    C4527551   1.436   5.337   9.851  0.4852 -0.2427  0.1019
  328HK4    H2527552   1.391   5.343   9.750  1.4381  3.2576 -0.1767
  329HK4    H2827553   3.461   0.834   7.035 -0.4814  0.3506 -2.1593
  329HK4    C4827554   3.415   0.925   7.074  0.3261 -0.2438  0.2797
  329HK4    C4727555   3.322   0.920   7.177 -0.4827 -0.4637 -0.4599
  329HK4    H2727556   3.284   0.824   7.216  2.0842 -0.8258  1.2280
  329HK4    C4627557   3.270   1.035   7.236 -0.1999 -0.3418 -0.4534
  329HK4    H2627558   3.183   1.018   7.300  0.0924 -1.0842 -0.2443
  329HK4    C4027559   3.321   1.163   7.206 -0.9192  0.0115 -0.1768
  329HK4    C5027560   3.415   1.165   7.101  0.4103 -0.4047  0.9880
  329HK4    H3027561   3.472   1.259   7.093  0.2271  0.0294  4.0380
  329HK4    C4927562   3.458   1.051   7.034  0.3396 -0.1667  0.5357
  329HK4    H2927563   3.544   1.061   6.966  0.1009  0.6092  0.3435
  329HK4     N227564   3.320   1.266   7.300  0.1528 -0.0584 -0.0771
  329HK4    C3027565   3.319   1.404   7.270  0.4366 -0.0681 -0.1302
  329HK4    C2927566   3.282   1.473   7.155 -0.1110 -0.1330  0.0081
  329HK4    H1527567   3.226   1.425   7.074  1.4133  1.2219 -1.8900
  329HK4    C2827568   3.292   1.611   7.147 -0.7412 -0.0896 -0.0991
  329HK4    C2727569   3.335   1.680   7.263 -0.2619 -0.2076 -0.2066
  329HK4    H1427570   3.363   1.786   7.248 -1.2474  0.0011 -0.6327
  329HK4    C3227571   3.376   1.617   7.379 -0.8167 -0.1744  0.0074
  329HK4    H1627572   3.415   1.679   7.459 -0.1255 -0.8805  0.2280
  329HK4    C3127573   3.372   1.478   7.383  0.3089 -0.2138  0.0238
  329HK4    C3427574   3.408   1.379   7.483 -0.4049 -0.1534  0.3406
  329HK4    C3327575   3.366   1.250   7.433  0.1116 -0.1582 -0.0753
  329HK4    C3527576   3.390   1.133   7.504  0.2032  0.1369  0.3849
  329HK4    H1727577   3.337   1.045   7.468  0.8645 -0.2642  0.3804
  329HK4    C3627578   3.465   1.137   7.621 -0.2592  0.3154  0.6762
  329HK4    H1827579   3.519   1.046   7.651 -1.2086  0.3398  2.4916
  329HK4    C3727580   3.503   1.261   7.669  0.8905  0.1923  0.1008
  329HK4    H1927581   3.558   1.257   7.764  2.5897  1.9998 -0.7875
  329HK4    C3827582   3.478   1.380   7.603 -0.1293  0.0219  0.1788
  329HK4    H2027583   3.508   1.478   7.642 -1.0081 -0.2808  1.6605
  329HK4    C1427584   3.261   1.686   7.025 -0.4091 -0.0600 -0.1677
  329HK4     C927585   3.252   1.825   7.014  0.1032 -0.0040  0.1112
  329HK4     C827586   3.286   1.888   6.892  0.1518 -0.0554  0.0976
  329HK4    C1127587   3.326   1.813   6.782 -0.3735 -0.3688  0.1181
  329HK4     H427588   3.330   1.866   6.686 -0.3180 -1.2382 -0.3620
  329HK4    C1227589   3.326   1.674   6.782  0.4036 -0.3715 -0.2459
  329HK4     H527590   3.365   1.621   6.694  0.1165  0.1521 -0.6925
  329HK4    C1327591   3.285   1.619   6.903  0.2228  0.0599 -0.1077
  329HK4     H627592   3.250   1.515   6.892  0.9168 -0.2287  0.3330
  329HK4     C727593   3.272   2.035   6.879 -0.0118 -0.0518  0.2964
  329HK4     O227594   3.353   2.088   6.804 -0.7477  0.5275 -0.0886
  329HK4     C427595   3.190   2.113   6.973  0.0587 -0.0221  0.3341
  329HK4     C327596   3.161   2.245   6.941 -0.3481 -0.1623  0.1178
  329HK4     H327597   3.198   2.302   6.854 -1.5343  1.9025  0.9398
  329HK4     C227598   3.084   2.319   7.030  0.0659 -0.0067  0.3441
  329HK4     H227599   3.044   2.416   6.997  0.2313 -0.3803 -0.9553
  329HK4     C127600   3.040   2.259   7.147 -0.6657  0.0350  0.0950
  329HK4     H127601   2.977   2.328   7.204 -1.5935 -2.7398  2.5982
  329HK4     C627602   3.065   2.124   7.181  0.0306  0.1981  0.2474
  329HK4     C527603   3.136   2.049   7.087 -0.2995 -0.0180  0.1682
  329HK4    C1027604   3.167   1.904   7.107 -0.1862 -0.0364 -0.1237
  329HK4     O127605   3.091   1.835   7.176 -0.0178 -0.7500 -0.6523
  329HK4    C1627606   2.981   2.082   7.295 -0.1027 -0.4430 -0.0861
  329HK4    C1527607   2.842   2.102   7.295  0.0555  0.6604 -0.0879
  329HK4     H727608   2.797   2.115   7.195  1.1595  1.3314 -0.5037
  329HK4    C2027609   2.766   2.074   7.408  0.2122 -0.3784 -0.2392
  329HK4     H927610   2.659   2.064   7.391 -0.0070 -0.4571  1.1112
  329HK4    C1927611   2.831   2.042   7.526 -0.1308 -0.2390 -0.0106
  329HK4    C1827612   2.974   2.016   7.528 -0.1337 -0.2706 -0.2300
  329HK4    C1727613   3.045   2.040   7.411  0.1446  0.2914  0.0483
  329HK4     H827614   3.148   2.004   7.406  0.0562 -0.2753  2.0215
  329HK4     N127615   3.020   1.992   7.659 -0.4832  0.1410 -0.0276
  329HK4    C2127616   2.902   1.985   7.736 -0.2066 -0.4891  0.3476
  329HK4    C2227617   2.783   2.019   7.661  0.0735 -0.0500  0.0958
  329HK4    C2627618   2.660   2.042   7.721  0.1148  0.5481 -0.0458
  329HK4    H1327619   2.575   2.044   7.652 -0.7020 -0.0015  0.9244
  329HK4    C2527620   2.649   2.038   7.860  0.0714 -0.1012 -0.0653
  329HK4    H1227621   2.563   2.081   7.911 -0.3072  0.1743 -0.9295
  329HK4    C2427622   2.762   2.003   7.933 -0.0945 -0.3764  0.0614
  329HK4    H1127623   2.756   2.012   8.043  1.5787 -0.0708  0.1411
  329HK4    C2327624   2.885   1.981   7.873  0.1573  0.0764  0.4118
  329HK4    H1027625   2.963   1.934   7.934 -0.5786 -1.2677  0.3316
  329HK4    C3927626   3.148   1.951   7.699 -0.6096 -0.1136  0.1188
  329HK4    C4127627   3.204   1.989   7.823 -0.2841 -0.4120  0.0651
  329HK4    H2127628   3.140   2.050   7.889 -1.1411 -0.1506 -0.9887
  329HK4    C4227629   3.319   1.933   7.876  0.1306  0.1264 -0.2573
  329HK4    H2227630   3.374   1.979   7.960 -1.0102  1.6110 -0.3075
  329HK4    C4327631   3.379   1.826   7.811  0.7072  0.4754 -0.3024
  329HK4    H2327632   3.464   1.781   7.863  0.7858  3.4907  2.3051
  329HK4    C4427633   3.320   1.780   7.694  0.7738  0.9175 -0.5094
  329HK4    H2427634   3.345   1.678   7.659  1.1305  0.4817  0.9958
  329HK4    C4527635   3.210   1.841   7.636 -0.2959 -0.1098  0.4188
  329HK4    H2527636   3.180   1.803   7.537 -0.3733  0.0683  0.3738
  330HK4    H2827637   5.813   6.344   3.165  2.3471  1.3094 -1.7530
  330HK4    C4827638   5.732   6.397   3.115  0.2718 -0.1196 -0.0246
  330HK4    C4727639   5.735   6.413   2.977 -0.2725  0.0673 -0.0160
  330HK4    H2727640   5.811   6.355   2.922 -1.8765 -0.1756 -2.0357
  330HK4    C4627641   5.646   6.498   2.911 -0.1785  0.0067 -0.2235
  330HK4    H2627642   5.628   6.481   2.804 -0.4364  0.8257 -0.3068
  330HK4    C4027643   5.547   6.568   2.983  0.2765  0.1942  0.2229
  330HK4    C5027644   5.546   6.543   3.121  0.1765 -0.0466  0.1799
  330HK4    H3027645   5.496   6.620   3.182  1.4739 -0.7070  2.1482
  330HK4    C4927646   5.627   6.451   3.187  0.4638  0.1257  0.0705
  330HK4    H2927647   5.634   6.432   3.295  2.0005 -2.1066 -0.3986
  330HK4     N227648   5.466   6.656   2.910  0.2373 -0.2150 -0.2342
  330HK4    C3027649   5.495   6.731   2.794 -0.0524 -0.0200 -0.1806
  330HK4    C2927650   5.619   6.770   2.744 -0.2004  0.1950 -0.3817
  330HK4    H1527651   5.707   6.731   2.795  0.9428  3.3294  0.1138
  330HK4    C2827652   5.635   6.875   2.655  0.2029  0.5630  0.1199
  330HK4    C2727653   5.520   6.945   2.612 -0.2112 -0.4905 -0.5200
  330HK4    H1427654   5.525   7.016   2.528 -1.5162 -0.1530 -0.3277
  330HK4    C3227655   5.392   6.918   2.658 -0.1635  0.4325  0.1693
  330HK4    H1627656   5.311   6.982   2.622  1.1045  1.7568 -0.3733
  330HK4    C3127657   5.384   6.811   2.746  0.0856  0.3100  0.0441
  330HK4    C3427658   5.279   6.771   2.838  0.2099 -0.6980 -0.2458
  330HK4    C3327659   5.329   6.676   2.936  0.1475 -0.7674 -0.2791
  330HK4    C3527660   5.242   6.624   3.031 -0.2155  0.1342 -0.1080
  330HK4    H1727661   5.280   6.555   3.106  0.8672 -0.9574 -1.6245
  330HK4    C3627662   5.109   6.667   3.028  0.0052  0.8434  0.2604
  330HK4    H1827663   5.037   6.611   3.089  0.8853 -0.0026  0.5537
  330HK4    C3727664   5.058   6.762   2.941  0.0422  0.3999 -0.2466
  330HK4    H1927665   4.951   6.783   2.940 -0.2171 -0.8944 -1.1647
  330HK4    C3827666   5.147   6.812   2.847  0.4117 -0.0620 -0.1446
  330HK4    H2027667   5.117   6.894   2.781  0.5814  0.4033  0.3562
  330HK4    C1427668   5.771   6.929   2.645  0.1752  0.4927 -0.6558
  330HK4     C927669   5.814   7.062   2.662  0.4352  0.2993  0.1783
  330HK4     C827670   5.946   7.096   2.631  0.4750  0.0823  0.1088
  330HK4    C1127671   6.030   6.998   2.578  0.4677  0.2910 -0.2889
  330HK4     H427672   6.134   7.029   2.562  0.6749 -0.4005 -0.2628
  330HK4    C1227673   5.989   6.867   2.556  0.5816  0.1115  0.5387
  330HK4     H527674   6.052   6.784   2.520 -1.8053 -1.1524 -0.7923
  330HK4    C1327675   5.860   6.833   2.594  0.6560  0.1431  0.8240
  330HK4     H627676   5.850   6.724   2.607 -1.0899  0.0313 -1.1494
  330HK4     C727677   5.989   7.235   2.659  0.2972  0.0479  0.5431
  330HK4     O227678   6.108   7.260   2.677  0.4402 -0.3746  0.1721
  330HK4     C427679   5.890   7.339   2.697 -0.0236  0.0110 -0.1729
  330HK4     C327680   5.936   7.469   2.720  0.0987 -0.0532 -0.0555
  330HK4     H327681   6.035   7.497   2.682 -0.2738  2.1514  0.5486
  330HK4     C227682   5.851   7.563   2.777  0.3751 -0.2933  0.7671
  330HK4     H227683   5.893   7.647   2.835  0.3221  0.4933 -0.3101
  330HK4     C127684   5.715   7.534   2.776  0.2442  0.3207 -0.3960
  330HK4     H127685   5.645   7.618   2.792 -0.0860 -0.1550  0.7047
  330HK4     C627686   5.662   7.415   2.723  0.0133  0.4652 -0.4878
  330HK4     C527687   5.753   7.310   2.701 -0.0372  0.1649  0.6995
  330HK4    C1027688   5.719   7.165   2.712  0.0241  0.0858 -0.1587
  330HK4     O127689   5.655   7.131   2.811 -0.1686  0.3922 -0.1734
  330HK4    C1627690   5.541   7.419   2.639 -0.7894  0.6128  0.6736
  330HK4    C1527691   5.459   7.306   2.619  0.5140 -0.2839  0.2766
  330HK4     H727692   5.457   7.239   2.705 -1.5501  2.1795  2.2421
  330HK4    C2027693   5.362   7.304   2.519  0.2968  0.6588  0.4617
  330HK4     H927694   5.298   7.217   2.500  0.5002  0.5321  0.3633
  330HK4    C1927695   5.355   7.411   2.431  0.1208  0.5042  0.2858
  330HK4    C1827696   5.442   7.527   2.439 -0.0038  0.5760  0.6237
  330HK4    C1727697   5.534   7.519   2.543  0.4045  0.2970  0.2451
  330HK4     H827698   5.619   7.588   2.542  1.6640 -1.2320  0.4741
  330HK4     N127699   5.401   7.635   2.359  0.0744 -0.0244 -0.2377
  330HK4    C2127700   5.274   7.598   2.309 -0.2216  0.3671  0.2089
  330HK4    C2227701   5.250   7.459   2.344  0.2804  0.2065 -0.0688
  330HK4    C2627702   5.146   7.389   2.283  0.5098 -0.2451  0.0583
  330HK4    H1327703   5.114   7.297   2.331  0.4490 -0.2656 -0.0220
  330HK4    C2527704   5.060   7.450   2.192 -0.1937 -0.4733  0.5735
  330HK4    H1227705   4.970   7.397   2.159 -0.6411 -1.3202  3.0577
  330HK4    C2427706   5.072   7.585   2.166 -0.4388 -0.6136 -0.2950
  330HK4    H1127707   5.017   7.639   2.087  1.1237 -1.1998 -1.8239
  330HK4    C2327708   5.179   7.653   2.225 -0.5652 -0.6207 -0.0617
  330HK4    H1027709   5.200   7.752   2.183 -1.0203  0.2905  1.8285
  330HK4    C3927710   5.439   7.769   2.373  0.3964 -0.1382 -0.0442
  330HK4    C4127711   5.425   7.852   2.260 -0.1758  0.5666  0.5414
  330HK4    H2127712   5.453   7.805   2.164 -1.8174 -0.4036  0.5091
  330HK4    C4227713   5.443   7.989   2.264 -0.4427  0.6154  0.1368
  330HK4    H2227714   5.478   8.050   2.179 -0.4353  0.7985  0.2719
  330HK4    C4327715   5.462   8.050   2.388  0.0581  0.3813  0.1755
  330HK4    H2327716   5.472   8.158   2.391 -1.0351  0.5410 -1.3233
  330HK4    C4427717   5.468   7.971   2.503  0.0269 -0.0013 -0.0846
  330HK4    H2427718   5.507   8.014   2.596  0.5332  0.5777 -0.5602
  330HK4    C4527719   5.457   7.833   2.497 -0.3315  0.0246 -0.0228
  330HK4    H2527720   5.458   7.770   2.588  0.5199  0.8765  0.5633
  331HK4    H2827721   9.239   5.494   6.777 -0.5712  0.3366  1.2730
  331HK4    C4827722   9.329   5.433   6.784 -0.3150  0.5551  0.0652
  331HK4    C4727723   9.350   5.345   6.890 -0.5546  0.3714 -0.0390
  331HK4    H2727724   9.264   5.300   6.942  0.8632 -0.9954  1.1452
  331HK4    C4627725   9.471   5.280   6.912 -0.6164  0.1896 -0.2234
  331HK4    H2627726   9.465   5.195   6.982  0.9392  0.6150  0.4426
  331HK4    C4027727   9.580   5.303   6.826 -0.0973 -0.4972  0.2452
  331HK4    C5027728   9.556   5.396   6.722  0.2046 -0.4686  0.2029
  331HK4    H3027729   9.650   5.434   6.679 -0.4295  3.0829  1.7311
  331HK4    C4927730   9.432   5.452   6.693  0.3796  0.2490  0.7862
  331HK4    H2927731   9.414   5.479   6.588  0.5920  0.6411  0.8534
  331HK4     N227732   9.707   5.252   6.853  0.2219 -0.0112 -0.3156
  331HK4    C3027733   9.807   5.236   6.755  0.0298 -0.9788 -0.3574
  331HK4    C2927734   9.810   5.241   6.616 -0.1984 -0.1978 -0.3323
  331HK4    H1527735   9.709   5.240   6.573 -1.2874  0.7829  2.0720
  331HK4    C2827736   9.931   5.239   6.549 -0.0030  0.1600  0.0002
  331HK4    C2727737  10.047   5.205   6.622  0.2819 -0.2644 -0.6408
  331HK4    H1427738  10.146   5.224   6.579  1.9609 -1.2687  2.6182
  331HK4    C3227739  10.045   5.180   6.758 -0.1406 -0.0161 -0.5982
  331HK4    H1627740  10.134   5.143   6.809 -1.2321 -1.7644  0.0884
  331HK4    C3127741   9.927   5.201   6.828  0.0662 -0.3973 -0.1343
  331HK4    C3427742   9.894   5.196   6.970  0.0455 -0.4013 -0.1395
  331HK4    C3327743   9.754   5.228   6.984  0.0666 -0.2362 -0.3028
  331HK4    C3527744   9.694   5.213   7.108 -0.0338  0.4776 -0.2687
  331HK4    H1727745   9.589   5.244   7.118  0.3001  2.2679 -1.9997
  331HK4    C3627746   9.766   5.171   7.220 -0.0005 -0.1461 -0.5259
  331HK4    H1827747   9.726   5.168   7.322 -2.1796 -0.9122 -1.3639
  331HK4    C3727748   9.903   5.156   7.211  0.1127  0.2164  0.4758
  331HK4    H1927749   9.958   5.131   7.302 -1.4078 -0.1100  1.3048
  331HK4    C3827750   9.965   5.169   7.086 -0.3754  0.0488  0.2178
  331HK4    H2027751  10.073   5.157   7.085 -0.3345 -0.1757  2.5334
  331HK4    C1427752   9.941   5.262   6.404 -0.4563 -1.0346 -0.2295
  331HK4     C927753  10.052   5.225   6.326 -0.3642 -0.1178 -0.5362
  331HK4     C827754  10.110   5.313   6.233 -0.2385 -0.0554 -0.4017
  331HK4    C1127755  10.049   5.432   6.194 -0.5924 -0.2267 -0.3721
  331HK4     H427756  10.082   5.500   6.114 -1.8066 -1.1614 -1.7060
  331HK4    C1227757   9.926   5.458   6.254 -0.2761  0.1330  0.1125
  331HK4     H527758   9.867   5.543   6.217 -2.1756 -1.7680 -1.2939
  331HK4    C1327759   9.876   5.377   6.355  0.6637 -0.1231  0.3831
  331HK4     H627760   9.780   5.407   6.400  1.2964 -1.2525  2.5375
  331HK4     C727761  10.248   5.287   6.186 -0.0413  0.0888  0.1003
  331HK4     O227762  10.303   5.363   6.107  0.0545  0.0173  0.0992
  331HK4     C427763  10.327   5.180   6.252  0.0424 -0.1036 -0.3141
  331HK4     C327764  10.463   5.166   6.231  0.0546  0.3930 -0.5765
  331HK4     H327765  10.521   5.243   6.177  1.7957 -0.5357 -0.0605
  331HK4     C227766  10.542   5.064   6.281  0.0828  0.2731 -0.8630
  331HK4     H227767  10.651   5.053   6.268  0.3817 -2.2987  3.0025
  331HK4     C127768  10.479   4.975   6.367 -0.4691  0.1656 -1.3815
  331HK4     H127769  10.526   4.876   6.373 -0.4094  0.2794  0.2286
  331HK4     C627770  10.342   4.986   6.400 -0.3437 -0.2511 -0.6974
  331HK4     C527771  10.265   5.080   6.330 -0.2629  0.4359  0.1349
  331HK4    C1027772  10.118   5.093   6.345 -0.2464  0.0927  0.6125
  331HK4     O127773  10.056   4.998   6.297 -0.3935  0.3832  0.2214
  331HK4    C1627774  10.301   4.918   6.524 -0.2540  1.1834  0.1336
  331HK4    C1527775  10.399   4.902   6.624  0.1021 -0.1453 -0.4126
  331HK4     H727776  10.476   4.980   6.627 -0.3194  0.3645 -2.3882
  331HK4    C2027777  10.386   4.811   6.729  0.0371 -0.1181 -0.3975
  331HK4     H927778  10.465   4.800   6.802  0.5919 -0.3666 -1.0398
  331HK4    C1927779  10.272   4.732   6.741 -0.2894  0.4423  0.2331
  331HK4    C1827780  10.162   4.758   6.650  0.2696 -0.0566 -0.5941
  331HK4    C1727781  10.190   4.837   6.539  0.2294  0.4389 -0.2534
  331HK4     H827782  10.125   4.820   6.454  2.0235  0.5743 -1.6604
  331HK4     N127783  10.045   4.685   6.681  0.4523 -0.2677 -0.3952
  331HK4    C2127784  10.080   4.620   6.801  0.1342 -0.2751 -0.3055
  331HK4    C2227785  10.219   4.638   6.838  0.0099  0.0366  0.0063
  331HK4    C2627786  10.276   4.578   6.950  0.1148  0.1619  0.0211
  331HK4    H1327787  10.383   4.594   6.963  0.4846 -1.2190 -1.1166
  331HK4    C2527788  10.205   4.507   7.046  0.3910 -0.4557 -0.2289
  331HK4    H1227789  10.250   4.437   7.117 -1.4265  0.8877  2.3284
  331HK4    C2427790  10.071   4.494   7.012  0.1586  0.4169  0.3438
  331HK4    H1127791   9.999   4.474   7.093  0.9471  0.8659  1.1551
  331HK4    C2327792  10.013   4.541   6.894  0.3880 -0.1010  0.0293
  331HK4    H1027793   9.908   4.518   6.878  0.0666  0.2463  1.5817
  331HK4    C3927794   9.913   4.709   6.643  0.2441 -0.1571  0.3891
  331HK4    C4127795   9.819   4.604   6.639 -0.4530  0.4931 -0.6487
  331HK4    H2127796   9.848   4.502   6.669 -0.2995  1.2823  2.0178
  331HK4    C4227797   9.683   4.631   6.638 -0.5754 -0.0560  0.4071
  331HK4    H2227798   9.607   4.552   6.624  0.8210 -1.3529 -0.0458
  331HK4    C4327799   9.632   4.760   6.641  0.0430  0.2010 -0.1627
  331HK4    H2327800   9.525   4.779   6.639  0.1247  0.6461 -0.3840
  331HK4    C4427801   9.721   4.866   6.637  0.4850 -0.1741 -0.3018
  331HK4    H2427802   9.693   4.971   6.657 -0.5323 -0.6722  0.9398
  331HK4    C4527803   9.857   4.839   6.645  0.5294 -0.0146 -0.5182
  331HK4    H2527804   9.936   4.915   6.655  0.7054 -0.3795  1.0907
  332HK4    H2827805  11.022  11.045   2.160 -2.2846  0.2683 -1.0865
  332HK4    C4827806  10.994  11.087   2.257  0.3959 -0.2227 -0.0714
  332HK4    C4727807  11.089  11.144   2.340  0.4422 -0.4758  0.0533
  332HK4    H2727808  11.192  11.165   2.305 -0.0506  0.4000 -0.9090
  332HK4    C4627809  11.042  11.203   2.456 -0.2322  0.3798 -0.6511
  332HK4    H2627810  11.110   0.022   2.512 -1.0182  0.2265  0.5185
  332HK4    C4027811  10.906  11.212   2.494 -0.0305 -0.0835  0.1860
  332HK4    C5027812  10.815  11.135   2.418 -0.1166  0.4298 -0.2289
  332HK4    H3027813  10.712  11.108   2.446 -0.3847  3.1470  1.6888
  332HK4    C4927814  10.863  11.076   2.302  0.3991  0.2763  0.0610
  332HK4    H2927815  10.792  11.026   2.235  0.8807 -1.9659  1.1655
  332HK4     N227816  10.866   0.035   2.608  0.1342  0.1729  0.0833
  332HK4    C3027817  10.954   0.081   2.708  0.0646  0.3611  0.0565
  332HK4    C2927818  11.060   0.016   2.769 -0.1714 -0.0657  0.0182
  332HK4    H1527819  11.076  11.156   2.760  0.5240 -0.0984  1.4397
  332HK4    C2827820  11.128   0.074   2.875 -0.0542 -0.2441  0.0400
  332HK4    C2727821  11.085   0.198   2.927  0.5683  0.1028 -0.2594
  332HK4    H1427822  11.154   0.258   2.987 -0.2447  1.2788 -0.4965
  332HK4    C3227823  10.972   0.259   2.874 -0.0750 -0.6595  0.2062
  332HK4    H1627824  10.950   0.361   2.908 -1.2185 -0.7163 -0.3549
  332HK4    C3127825  10.902   0.202   2.769 -0.4688  0.1496  0.0234
  332HK4    C3427826  10.777   0.231   2.701 -0.2738  0.2027 -0.3129
  332HK4    C3327827  10.758   0.126   2.603 -0.0902 -0.0963 -0.0293
  332HK4    C3527828  10.650   0.140   2.517 -0.2683 -0.6113  0.1092
  332HK4    H1727829  10.623   0.064   2.443  0.3974  0.2092 -0.9992
  332HK4    C3627830  10.559   0.245   2.522 -0.0776 -0.4292 -0.2204
  332HK4    H1827831  10.494   0.275   2.439 -1.2979  2.0956  1.5958
  332HK4    C3727832  10.573   0.338   2.624 -0.5729 -0.4198 -0.1606
  332HK4    H1927833  10.499   0.418   2.632  0.6304  0.8265 -1.4889
  332HK4    C3827834  10.679   0.328   2.714 -0.2589  0.2341 -0.4549
  332HK4    H2027835  10.687   0.402   2.793  2.3452  1.5736 -1.9185
  332HK4    C1427836   0.008   0.016   2.921  0.1207 -0.0272 -0.1765
  332HK4     C927837   0.059   0.024   3.051  0.0392 -0.8519 -0.0927
  332HK4     C827838   0.199   0.009   3.066  0.0414 -0.5558  0.1739
  332HK4    C1127839   0.282  11.218   2.962 -0.2909 -0.7585 -0.0160
  332HK4     H427840   0.387  11.197   2.985 -0.8723 -3.6242  0.1658
  332HK4    C1227841   0.233  11.200   2.833 -0.1516 -0.4288 -0.1158
  332HK4     H527842   0.303  11.191   2.749 -2.4957 -0.8012 -2.1044
  332HK4    C1327843   0.097  11.227   2.818 -0.0747 -0.1388 -0.3063
  332HK4     H627844   0.060  11.229   2.714 -1.1224 -0.0125  0.0681
  332HK4     C727845   0.256   0.050   3.196  0.1015  0.0843 -0.0537
  332HK4     O227846   0.376   0.031   3.215  0.2073  0.4625 -0.3312
  332HK4     C427847   0.172   0.113   3.301  0.0286  0.0091 -0.0670
  332HK4     C327848   0.227   0.158   3.420  0.2929 -0.5749  0.0356
  332HK4     H327849   0.336   0.170   3.418  0.1975  0.2268 -1.0574
  332HK4     C227850   0.157   0.221   3.523  0.2738  0.4830 -0.6119
  332HK4     H227851   0.198   0.219   3.625  1.8416  1.3644 -1.2117
  332HK4     C127852   0.021   0.238   3.500  0.2233  0.6915 -0.1779
  332HK4     H127853  11.205   0.297   3.566  0.8128 -0.4641  1.4514
  332HK4     C627854  11.208   0.194   3.381  0.3190  0.5989 -0.1940
  332HK4     C527855   0.032   0.120   3.286  0.0743  0.4859 -0.2913
  332HK4    C1027856  11.220   0.050   3.169  0.4437 -0.5657  0.1427
  332HK4     O127857  11.122  11.226   3.186  0.5259 -0.7120  0.0082
  332HK4    C1627858  11.095   0.275   3.334  0.1278  0.2132 -0.4055
  332HK4    C1527859  11.101   0.415   3.346 -0.5112  0.2109 -0.0015
  332HK4     H727860  11.194   0.469   3.368 -1.6061  1.6868  1.1221
  332HK4    C2027861  10.989   0.498   3.336 -0.4771  0.3420  0.7182
  332HK4     H927862  11.004   0.604   3.358 -0.6662  1.0061 -2.1216
  332HK4    C1927863  10.864   0.444   3.310  0.0123 -0.0935 -0.7492
  332HK4    C1827864  10.855   0.300   3.291  0.1772 -0.1919 -0.0887
  332HK4    C1727865  10.969   0.222   3.309  0.0992 -0.1719  0.5014
  332HK4     H827866  10.952   0.115   3.324  0.8711 -0.4215 -0.3666
  332HK4     N127867  10.721   0.258   3.296  0.1105  0.0560  0.2836
  332HK4    C2127868  10.642   0.374   3.311  0.0830  0.1438 -0.5245
  332HK4    C2227869  10.727   0.490   3.325  0.1544 -0.0156  0.3711
  332HK4    C2627870  10.671   0.617   3.330 -0.0839 -0.0993 -0.1707
  332HK4    H1327871  10.730   0.709   3.331  1.6264 -1.1435 -1.2829
  332HK4    C2527872  10.533   0.632   3.325 -0.0509  0.3098  0.1876
  332HK4    H1227873  10.503   0.737   3.334 -0.9061  0.3234 -2.4267
  332HK4    C2427874  10.454   0.522   3.296  1.0003 -0.3511 -0.2096
  332HK4    H1127875  10.348   0.533   3.269  0.8849 -2.1238 -0.5318
  332HK4    C2327876  10.505   0.393   3.294 -0.1049 -0.7937 -0.1518
  332HK4    H1027877  10.440   0.314   3.256 -1.1990 -0.4273  0.9253
  332HK4    C3927878  10.679   0.140   3.233  0.0631  0.1037  0.2262
  332HK4    C4127879  10.560   0.067   3.253 -0.4660  0.6486 -0.9027
  332HK4    H2127880  10.502   0.096   3.342  2.3309  2.1977  0.4574
  332HK4    C4227881  10.508  11.219   3.167 -0.1571 -0.1870 -0.1534
  332HK4    H2227882  10.413  11.168   3.193 -1.2302  1.6529 -0.3727
  332HK4    C4327883  10.571  11.198   3.045  0.2032 -0.0486  0.0089
  332HK4    H2327884  10.526  11.142   2.963 -1.4403 -1.9904  2.1551
  332HK4    C4427885  10.687   0.021   3.017 -0.0680  0.3048 -0.2234
  332HK4    H2427886  10.735   0.015   2.918  0.7629 -1.5445  0.2530
  332HK4    C4527887  10.745   0.101   3.115 -0.1824 -0.0431  0.1347
  332HK4    H2527888  10.854   0.114   3.104 -0.1549  0.7001  1.2152
  333HK4    H2827889   5.995   8.379   9.208 -0.1663 -0.5483  1.8697
  333HK4    C4827890   5.914   8.330   9.154  0.2617  0.1442  0.5954
  333HK4    C4727891   5.874   8.202   9.189 -0.0979  0.0303 -0.2150
  333HK4    H2727892   5.937   8.136   9.251 -1.7239 -0.2769  1.1502
  333HK4    C4627893   5.758   8.152   9.131  0.2397 -0.6879 -0.2719
  333HK4    H2627894   5.717   8.067   9.188 -0.7054 -0.8166 -1.1287
  333HK4    C4027895   5.676   8.219   9.038  0.3396 -0.2475 -0.0432
  333HK4    C5027896   5.717   8.351   9.010  0.4591 -0.2638  0.0587
  333HK4    H3027897   5.667   8.405   8.928 -0.7934 -1.2836  0.1269
  333HK4    C4927898   5.832   8.402   9.067  0.4042 -0.2367  0.1455
  333HK4    H2927899   5.876   8.491   9.020  0.9852 -0.4554  0.2623
  333HK4     N227900   5.592   8.154   8.946 -0.1979  0.4023 -0.0137
  333HK4    C3027901   5.592   8.020   8.902 -0.0413  0.3319  0.1935
  333HK4    C2927902   5.689   7.924   8.927 -0.4632 -0.1507 -0.0134
  333HK4    H1527903   5.770   7.929   9.000 -0.1175 -4.0592 -0.0405
  333HK4    C2827904   5.681   7.802   8.861 -0.3013 -0.2333  0.1235
  333HK4    C2727905   5.572   7.781   8.774  0.1825  0.4447 -0.6649
  333HK4    H1427906   5.547   7.681   8.733  0.1889  0.0036  0.4016
  333HK4    C3227907   5.478   7.877   8.741 -0.5934  0.1005  0.5209
  333HK4    H1627908   5.388   7.858   8.681 -0.1362  0.4326 -0.2721
  333HK4    C3127909   5.484   7.999   8.808  0.4355  0.5777 -0.4197
  333HK4    C3427910   5.402   8.118   8.805 -0.0736  0.2174 -1.0777
  333HK4    C3327911   5.476   8.211   8.888 -0.4951 -0.3105 -0.1123
  333HK4    C3527912   5.418   8.331   8.924 -0.3929 -0.2741 -0.0587
  333HK4    H1727913   5.461   8.396   9.001  0.7515 -1.2266  0.1220
  333HK4    C3627914   5.288   8.360   8.883 -0.0345  0.1470 -0.9131
  333HK4    H1827915   5.251   8.464   8.884  1.6319  0.7586 -1.2154
  333HK4    C3727916   5.214   8.269   8.809 -0.5008 -0.4987  0.3234
  333HK4    H1927917   5.106   8.282   8.803 -0.2861  1.0684 -0.4780
  333HK4    C3827918   5.275   8.154   8.761 -0.3263 -0.0428 -0.5606
  333HK4    H2027919   5.223   8.080   8.699  1.4495 -0.8348 -1.1504
  333HK4    C1427920   5.776   7.691   8.869 -0.4919 -0.4156 -0.0841
  333HK4     C927921   5.803   7.600   8.766 -0.1142 -0.3730 -0.0225
  333HK4     C827922   5.827   7.465   8.796  0.1517 -0.3364 -0.0733
  333HK4    C1127923   5.837   7.424   8.929  0.3009 -0.2959 -0.0720
  333HK4     H427924   5.825   7.318   8.956  0.3356  0.3499  2.6024
  333HK4    C1227925   5.831   7.514   9.034  0.0501 -0.1182 -0.2381
  333HK4     H527926   5.885   7.488   9.126  1.3727  0.2477 -0.8980
  333HK4    C1327927   5.800   7.646   9.001 -0.1135 -0.1084 -0.0450
  333HK4     H627928   5.789   7.722   9.080 -1.4754 -0.3883  0.0488
  333HK4     C727929   5.851   7.372   8.684  0.0609 -0.5505  0.0857
  333HK4     O227930   5.825   7.253   8.705  0.0329 -0.5653 -0.0310
  333HK4     C427931   5.858   7.426   8.546 -0.0555 -0.1595  0.2326
  333HK4     C327932   5.885   7.340   8.440  0.1413  0.0151  0.1397
  333HK4     H327933   5.922   7.239   8.462  2.0033  0.3329 -1.4341
  333HK4     C227934   5.873   7.379   8.307 -0.1586 -0.0847  0.1391
  333HK4     H227935   5.892   7.303   8.230 -0.9148  1.2061 -1.3442
  333HK4     C127936   5.823   7.506   8.279  0.1648 -0.0759 -0.4042
  333HK4     H127937   5.808   7.530   8.173 -1.2296  0.9778  0.0289
  333HK4     C627938   5.799   7.598   8.383  0.1368 -0.2642 -0.2426
  333HK4     C527939   5.830   7.560   8.514 -0.0228 -0.2553 -0.2045
  333HK4    C1027940   5.823   7.655   8.629  0.0539 -0.4569 -0.0341
  333HK4     O127941   5.896   7.754   8.623 -0.3804 -0.0961  0.5355
  333HK4    C1627942   5.698   7.699   8.349  0.4388 -0.1472 -0.8081
  333HK4    C1527943   5.590   7.671   8.263 -0.1578 -0.1789 -0.0525
  333HK4     H727944   5.545   7.570   8.261  2.7634 -1.5514  0.0431
  333HK4    C2027945   5.535   7.771   8.184  0.0132  0.0264  0.0840
  333HK4     H927946   5.447   7.745   8.125  0.5169  1.7462 -1.4619
  333HK4    C1927947   5.589   7.898   8.183  0.2805 -0.0873 -0.0714
  333HK4    C1827948   5.688   7.935   8.283 -0.4095  0.0673  0.5561
  333HK4    C1727949   5.746   7.830   8.353  0.0411 -0.0193  0.0535
  333HK4     H827950   5.847   7.849   8.390  0.0521 -0.2937  0.1664
  333HK4     N127951   5.741   8.061   8.248 -0.9444  0.0962 -0.1546
  333HK4    C2127952   5.689   8.102   8.124  0.0582  0.4247 -0.4700
  333HK4    C2227953   5.601   7.996   8.077  0.2837  0.0179  0.0257
  333HK4    C2627954   5.567   8.000   7.942 -0.3983  0.6297  0.2100
  333HK4    H1327955   5.490   7.938   7.897  0.3397  0.0834 -0.3169
  333HK4    C2527956   5.627   8.085   7.851  0.4506 -0.0698  0.1063
  333HK4    H1227957   5.630   8.058   7.745  0.5033 -0.6652  0.2582
  333HK4    C2427958   5.693   8.196   7.903 -0.7432  0.7701 -0.1673
  333HK4    H1127959   5.725   8.276   7.835 -0.9013  0.7777 -0.2340
  333HK4    C2327960   5.729   8.204   8.037  0.7918  0.0863 -0.5299
  333HK4    H1027961   5.792   8.282   8.078  1.2269 -1.9585  2.9613
  333HK4    C3927962   5.783   8.150   8.348  0.1450 -0.5870  0.0032
  333HK4    C4127963   5.729   8.145   8.478  0.2619 -0.3662  0.0617
  333HK4    H2127964   5.640   8.086   8.504 -0.1689 -0.6698 -2.0083
  333HK4    C4227965   5.791   8.214   8.582 -0.2442  0.1759  0.0055
  333HK4    H2227966   5.735   8.227   8.676  0.7027 -1.9431  0.9103
  333HK4    C4327967   5.912   8.280   8.566 -0.2527  0.2013  0.0563
  333HK4    H2327968   5.970   8.305   8.654  0.6017 -0.1955 -0.3839
  333HK4    C4427969   5.970   8.283   8.439  0.6296 -0.4166  0.4376
  333HK4    H2427970   6.062   8.342   8.426  1.2364 -1.1002  1.5530
  333HK4    C4527971   5.905   8.218   8.335  0.1502 -0.4498  0.7543
  333HK4    H2527972   5.949   8.226   8.234 -1.3369  0.6398  0.1808
  334HK4    H2827973   0.805   7.648   5.350  0.4254 -1.2677  0.8007
  334HK4    C4827974   0.701   7.626   5.326  0.2988 -0.1809  0.3466
  334HK4    C4727975   0.612   7.713   5.263  0.3908 -0.0942  0.3377
  334HK4    H2727976   0.649   7.800   5.207  0.3333 -0.2197  0.1041
  334HK4    C4627977   0.481   7.671   5.247  0.2749  0.3675  0.0932
  334HK4    H2627978   0.422   7.734   5.178 -0.1302  0.7406  0.7698
  334HK4    C4027979   0.426   7.548   5.288 -0.1896  0.4141 -0.3834
  334HK4    C5027980   0.525   7.456   5.325 -0.6575  0.0066 -0.1399
  334HK4    H3027981   0.489   7.357   5.359  3.5892 -1.7279 -0.3849
  334HK4    C4927982   0.656   7.496   5.348 -0.7996  0.1900  0.3441
  334HK4    H2927983   0.724   7.430   5.403 -0.2687  0.0788 -0.4338
  334HK4     N227984   0.293   7.506   5.276 -0.0102 -0.2291 -0.0961
  334HK4    C3027985   0.202   7.552   5.179  0.1557  0.0486 -0.1160
  334HK4    C2927986   0.227   7.613   5.056  0.3373  0.1152 -0.0476
  334HK4    H1527987   0.332   7.628   5.031 -0.1027 -0.4604 -2.3239
  334HK4    C2827988   0.125   7.664   4.978 -0.0729  0.4799  0.7283
  334HK4    C2727989  11.238   7.641   5.014 -0.2333  0.0131 -0.1600
  334HK4    H1427990  11.157   7.679   4.950  1.9224  1.6818 -2.0303
  334HK4    C3227991  11.206   7.569   5.128  0.4491  0.1049  0.0937
  334HK4    H1627992  11.102   7.547   5.153 -0.5048  1.8615 -2.1722
  334HK4    C3127993   0.063   7.530   5.210  0.2618 -0.1559  0.2078
  334HK4    C3427994   0.072   7.462   5.338 -0.1961 -0.1149  0.2635
  334HK4    C3327995   0.211   7.445   5.374 -0.0987 -0.1756 -0.1364
  334HK4    C3527996   0.249   7.389   5.496 -0.0297  0.0126 -0.0710
  334HK4    H1727997   0.348   7.383   5.540  0.6585 -4.0248 -1.9134
  334HK4    C3627998   0.150   7.342   5.581  0.3073 -0.5113  0.0352
  334HK4    H1827999   0.172   7.294   5.677  0.3025 -0.3321  0.1283
  334HK4    C3728000   0.016   7.359   5.548  0.3705  0.1487  0.1082
  334HK4    H1928001  11.185   7.333   5.619 -0.9329  0.4178 -1.2074
  334HK4    C3828002  11.225   7.420   5.430 -0.2813 -0.3252  0.0784
  334HK4    H2028003  11.121   7.434   5.400 -0.0054  0.5420 -0.4874
  334HK4    C1428004   0.158   7.749   4.863 -0.2511  0.1914  0.4635
  334HK4     C928005   0.081   7.855   4.813 -0.3361 -0.0341  0.1080
  334HK4     C828006   0.083   7.886   4.676 -0.2819 -0.2180  0.0668
  334HK4    C1128007   0.165   7.812   4.590 -0.0820 -0.2938  0.3228
  334HK4     H428008   0.158   7.825   4.481  2.3946  1.6401  0.3363
  334HK4    C1228009   0.251   7.714   4.639  0.3396 -0.3587 -0.5357
  334HK4     H528010   0.334   7.674   4.580  0.6453 -2.1746  1.0672
  334HK4    C1328011   0.248   7.684   4.775 -0.5769  0.7652 -0.3002
  334HK4     H628012   0.305   7.596   4.808 -2.5776 -0.4486 -0.0060
  334HK4     C728013  11.217   7.962   4.621 -0.2712 -0.4615 -0.2967
  334HK4     O228014  11.220   7.997   4.503  0.0582 -0.2520 -0.2263
  334HK4     C428015  11.110   8.011   4.710  0.4517  0.1208  0.2718
  334HK4     C328016  10.987   8.051   4.660  0.2915  0.4682  0.9313
  334HK4     H328017  10.956   8.002   4.566 -0.0837 -0.4273  1.5118
  334HK4     C228018  10.887   8.121   4.726 -0.6384  0.2630 -0.2366
  334HK4     H228019  10.793   8.154   4.679  0.4162  1.6244 -1.4736
  334HK4     C128020  10.927   8.161   4.853 -0.0228  0.2032 -0.4112
  334HK4     H128021  10.858   8.225   4.910  0.5653 -1.6154  2.3890
  334HK4     C628022  11.048   8.119   4.911 -0.3562  0.4241  0.4596
  334HK4     C528023  11.143   8.040   4.844 -0.5034  0.2233  0.4912
  334HK4    C1028024   0.004   7.953   4.896 -0.3111  0.1327 -0.0688
  334HK4     O128025   0.023   7.944   5.017 -0.2377  0.2797 -0.0682
  334HK4    C1628026  11.073   8.161   5.050 -0.0729 -0.0377  0.5502
  334HK4    C1528027  10.967   8.161   5.143 -0.6743  0.6232 -0.1225
  334HK4     H728028  10.880   8.102   5.109 -0.2677 -0.5023  0.7536
  334HK4    C2028029  10.970   8.237   5.260 -0.0684  0.3178  0.0629
  334HK4     H928030  10.888   8.227   5.331  1.0524 -0.9945  1.1951
  334HK4    C1928031  11.083   8.310   5.295  0.1248  0.1423 -0.1873
  334HK4    C1828032  11.191   8.319   5.198  0.1316  0.0247 -0.1882
  334HK4    C1728033  11.178   8.245   5.081 -0.0443  0.2629 -0.3225
  334HK4     H828034   0.002   8.267   5.002  2.0390  0.1618  1.4691
  334HK4     N128035   0.038   8.416   5.236 -0.0767  0.1452  0.0376
  334HK4    C2128036  11.230   8.467   5.355 -0.1551 -0.0548  0.0887
  334HK4    C2228037  11.102   8.414   5.394  0.0169 -0.3086  0.3009
  334HK4    C2628038  11.030   8.468   5.500  0.2954  0.1930  0.2353
  334HK4    H1328039  10.940   8.416   5.535 -0.4106 -0.6067 -2.6966
  334HK4    C2528040  11.080   8.579   5.567  1.0001 -0.4760  0.8406
  334HK4    H1228041  11.040   8.593   5.667 -1.2324  0.7758 -0.1879
  334HK4    C2428042  11.198   8.637   5.521  0.0809  0.3376 -0.5574
  334HK4    H1128043  11.215   8.740   5.555 -1.1612 -0.0592  1.3211
  334HK4    C2328044   0.030   8.579   5.423 -0.2212  0.6177 -0.9632
  334HK4    H1028045   0.138   8.593   5.423 -0.2725  1.3373 -3.1964
  334HK4    C3928046   0.175   8.391   5.219 -0.2311 -0.2170 -0.6724
  334HK4    C4128047   0.263   8.498   5.244 -0.1355 -0.3841 -0.3072
  334HK4    H2128048   0.225   8.601   5.240  0.0992 -0.2590  0.4202
  334HK4    C4228049   0.393   8.481   5.293 -0.1445 -0.0139 -0.1538
  334HK4    H2228050   0.449   8.572   5.319 -0.8639  0.4223 -0.0948
  334HK4    C4328051   0.444   8.354   5.315  0.0639  0.1509  0.3193
  334HK4    H2328052   0.524   8.336   5.386  1.8541  0.7218 -1.5138
  334HK4    C4428053   0.365   8.249   5.267 -0.2993  0.3291  0.5299
  334HK4    H2428054   0.413   8.151   5.281  0.9936  0.5914 -1.9460
  334HK4    C4528055   0.235   8.263   5.221 -0.1141 -0.1587 -0.1321
  334HK4    H2528056   0.173   8.172   5.214 -1.1336  0.2972  2.4036
  335HK4    H2828057   4.717   6.037   6.890  1.3588  0.1761  0.6197
  335HK4    C4828058   4.707   6.010   6.995  0.2868  0.0393  0.4886
  335HK4    C4728059   4.749   5.883   7.034  0.1171 -0.1355  0.1087
  335HK4    H2728060   4.785   5.816   6.954  0.4925 -1.3622  1.2947
  335HK4    C4628061   4.730   5.847   7.167  0.1328  0.0103  0.1508
  335HK4    H2628062   4.788   5.760   7.199 -0.9476 -0.5631  0.5832
  335HK4    C4028063   4.667   5.925   7.266  0.4442  0.1026  0.2754
  335HK4    C5028064   4.626   6.054   7.225 -0.3216 -0.2624 -0.1331
  335HK4    H3028065   4.619   6.127   7.307  0.1126 -0.0335 -0.2990
  335HK4    C4928066   4.651   6.090   7.093 -0.0380  0.3164  0.0762
  335HK4    H2928067   4.627   6.193   7.063 -1.0570 -0.1219 -0.6642
  335HK4     N228068   4.598   5.859   7.369  0.7549 -0.3543  0.1919
  335HK4    C3028069   4.551   5.726   7.369  0.2573 -0.1799 -0.0684
  335HK4    C2928070   4.511   5.637   7.270 -0.4936  0.1744 -0.0895
  335HK4    H1528071   4.500   5.674   7.168 -0.6518 -1.5524 -0.7150
  335HK4    C2828072   4.469   5.507   7.298 -0.1246  0.1389  0.3182
  335HK4    C2728073   4.470   5.474   7.435 -0.4262  0.0879  0.3080
  335HK4    H1428074   4.442   5.370   7.456 -0.9823 -0.1453 -1.4523
  335HK4    C3228075   4.492   5.561   7.541 -0.3392  0.4406  0.0025
  335HK4    H1628076   4.466   5.557   7.646  1.2166 -0.3929  0.3702
  335HK4    C3128077   4.538   5.688   7.508  0.2069  0.2559  0.0471
  335HK4    C3428078   4.574   5.799   7.595 -0.2039  0.2425  0.2338
  335HK4    C3328079   4.616   5.902   7.502 -0.1808  0.1623  0.1538
  335HK4    C3528080   4.663   6.021   7.556  0.0194 -0.0458  0.4358
  335HK4    H1728081   4.691   6.100   7.486  0.2474  2.4357  3.2226
  335HK4    C3628082   4.667   6.039   7.694 -0.0104  0.5254  0.3622
  335HK4    H1828083   4.709   6.131   7.738  1.9796  0.1663 -0.7386
  335HK4    C3728084   4.638   5.938   7.785  0.2122  0.1443  0.0104
  335HK4    H1928085   4.687   5.948   7.882  1.9698 -1.8334 -0.6290
  335HK4    C3828086   4.593   5.818   7.731 -0.1516  0.1802  0.2355
  335HK4    H2028087   4.596   5.729   7.794  1.9772  0.4586  0.5623
  335HK4    C1428088   4.375   5.430   7.215  0.1663  0.2780 -0.1464
  335HK4     C928089   4.254   5.364   7.244  0.5311 -0.3215  0.0278
  335HK4     C828090   4.202   5.267   7.157 -0.3126  0.3453 -0.2189
  335HK4    C1128091   4.258   5.251   7.031  0.4157  0.2685  0.1108
  335HK4     H428092   4.232   5.173   6.958 -0.7042 -1.7328  2.5761
  335HK4    C1228093   4.370   5.326   6.996  0.0229  0.4539 -0.7629
  335HK4     H528094   4.397   5.340   6.890 -2.6891  3.0170 -1.1988
  335HK4    C1328095   4.432   5.410   7.088  0.1033 -0.3527 -0.0772
  335HK4     H628096   4.525   5.462   7.062  0.0228 -0.8126 -1.3439
  335HK4     C728097   4.085   5.184   7.195 -0.1411  0.0860 -0.2512
  335HK4     O228098   4.068   5.081   7.130 -0.0973 -0.0072 -0.1145
  335HK4     C428099   4.004   5.223   7.313  0.3666  0.1908  0.0673
  335HK4     C328100   3.903   5.139   7.357  0.1140  0.2036 -0.4698
  335HK4     H328101   3.885   5.049   7.297  0.7182 -0.8203  0.8477
  335HK4     C228102   3.838   5.155   7.479 -0.1083  0.0343 -0.5670
  335HK4     H228103   3.741   5.105   7.499  0.1969  0.4880  2.2305
  335HK4     C128104   3.879   5.262   7.557 -0.1929  0.0652 -0.5648
  335HK4     H128105   3.812   5.293   7.639  0.6687 -1.2264  0.6347
  335HK4     C628106   3.984   5.348   7.521 -0.3189  0.3059 -0.3601
  335HK4     C528107   4.041   5.332   7.394  0.2409  0.3730 -0.1186
  335HK4    C1028108   4.164   5.407   7.354  0.6474 -0.1835  0.0693
  335HK4     O128109   4.173   5.527   7.377  0.2191 -0.0827 -0.2770
  335HK4    C1628110   4.042   5.421   7.635  0.2796 -0.4045 -0.2014
  335HK4    C1528111   4.066   5.352   7.756  0.2759 -0.2423 -0.1091
  335HK4     H728112   4.064   5.243   7.770  0.0144  0.0998  2.6855
  335HK4    C2028113   4.098   5.421   7.872 -0.2796 -0.0703 -0.0535
  335HK4     H928114   4.143   5.368   7.956 -0.4132  0.0442  0.0902
  335HK4    C1928115   4.100   5.560   7.883 -0.3552 -0.0783  0.0437
  335HK4    C1828116   4.059   5.630   7.763 -0.3879 -0.2951 -0.0730
  335HK4    C1728117   4.037   5.560   7.645 -0.2786 -0.4358 -0.0103
  335HK4     H828118   4.012   5.610   7.552 -2.7581  1.9048  1.8296
  335HK4     N128119   4.061   5.768   7.790  0.1399 -0.3114 -0.0221
  335HK4    C2128120   4.073   5.788   7.929 -0.0452  0.1515 -0.0723
  335HK4    C2228121   4.099   5.659   7.989 -0.0321  0.1229 -0.1405
  335HK4    C2628122   4.127   5.654   8.125 -0.2096  0.9557 -0.0765
  335HK4    H1328123   4.136   5.558   8.175  0.3132  1.0606  0.0353
  335HK4    C2528124   4.133   5.770   8.202  0.2944  0.3610  0.7830
  335HK4    H1228125   4.143   5.756   8.310 -0.8977  0.0872  0.8716
  335HK4    C2428126   4.096   5.892   8.146  0.0390 -0.0796 -0.0152
  335HK4    H1128127   4.076   5.982   8.206 -0.9083  0.1542 -0.6878
  335HK4    C2328128   4.065   5.901   8.011  0.2812  0.1610 -0.0541
  335HK4    H1028129   4.052   5.999   7.966 -0.5511 -0.0197 -0.2233
  335HK4    C3928130   4.113   5.859   7.697  0.0005  0.0907  0.2939
  335HK4    C4128131   4.099   5.999   7.705 -0.4584  0.0567  0.1369
  335HK4    H2128132   4.014   6.035   7.766 -1.1398 -0.3181 -0.5879
  335HK4    C4228133   4.152   6.094   7.618 -0.0551 -0.2264  0.0723
  335HK4    H2228134   4.114   6.197   7.622  2.9979  0.9721 -0.7661
  335HK4    C4328135   4.236   6.047   7.518  0.0388  0.2773 -0.0840
  335HK4    H2328136   4.296   6.118   7.460 -1.8295  1.1352 -1.0358
  335HK4    C4428137   4.244   5.910   7.502 -0.1433  0.2405  0.1566
  335HK4    H2428138   4.293   5.880   7.408 -2.2127 -2.3935 -0.1607
  335HK4    C4528139   4.191   5.815   7.589 -0.3874  0.2048 -0.0341
  335HK4    H2528140   4.222   5.710   7.579 -0.3567  0.1344  0.7993
  336HK4    H2828141   5.012   7.167   9.921 -2.4390 -1.1210  1.0454
  336HK4    C4828142   4.989   7.265   9.961  0.1070 -0.0217 -0.0556
  336HK4    C4728143   5.081   7.339  10.034 -0.2679  0.2002  0.2008
  336HK4    H2728144   5.188   7.325  10.012 -0.3193  0.6646 -0.3542
  336HK4    C4628145   5.040   7.454  10.099  0.4236  0.6946 -0.2371
  336HK4    H2628146   5.117   7.522  10.140 -0.9660  0.7475  2.3892
  336HK4    C4028147   4.912   7.512  10.091  0.1369  0.1342  0.2867
  336HK4    C5028148   4.824   7.434  10.015  0.0413 -0.1789  0.7163
  336HK4    H3028149   4.725   7.466   9.978  0.2865 -2.0341 -1.6944
  336HK4    C4928150   4.857   7.311   9.959  0.1682  0.1576  0.0481
  336HK4    H2928151   4.787   7.249   9.902  1.1390 -1.0530  0.1437
  336HK4     N228152   4.860   7.616  10.170  0.0461 -0.0313  0.4498
  336HK4    C3028153   4.924   7.656  10.289 -0.2434  0.0542  0.5775
  336HK4    C2928154   4.971   7.577  10.393  0.1193 -0.0935  0.3003
  336HK4    H1528155   4.913   7.488  10.417 -0.5787  0.7971  2.0269
  336HK4    C2828156   5.035   7.630  10.505  0.6631  0.4572 -0.2716
  336HK4    C2728157   5.037   7.771  10.511 -0.2960  0.4681 -0.1022
  336HK4    H1428158   5.081   7.820  10.600  1.4888  0.3561 -0.9033
  336HK4    C3228159   4.984   7.855  10.414  0.3908  0.5882 -0.3823
  336HK4    H1628160   4.992   7.962  10.431 -0.0410  0.7739 -1.2831
  336HK4    C3128161   4.922   7.800  10.302 -0.4703  0.0743  0.3326
  336HK4    C3428162   4.845   7.852  10.191  0.0192 -0.0904 -0.0898
  336HK4    C3328163   4.803   7.734  10.118 -0.0882 -0.2170  0.1726
  336HK4    C3528164   4.707   7.741  10.017  0.2793 -0.0118 -0.1592
  336HK4    H1728165   4.683   7.667   9.941  0.1207  2.1102 -2.2233
  336HK4    C3628166   4.647   7.865  10.000  0.2983  0.0152 -0.0304
  336HK4    H1828167   4.573   7.875   9.919  0.3955 -2.3950 -0.4389
  336HK4    C3728168   4.682   7.976  10.076  0.0854  0.0662 -0.0040
  336HK4    H1928169   4.641   8.074  10.053 -0.3220  0.1966  1.2055
  336HK4    C3828170   4.783   7.975  10.172 -0.2018 -0.1369  0.3011
  336HK4    H2028171   4.808   8.057  10.239  1.5570  1.0324 -1.6819
  336HK4    C1428172   5.068   7.547  10.621  0.3325  0.1316 -0.4086
  336HK4     C928173   5.049   7.588  10.753 -0.2129 -0.8422 -0.1777
  336HK4     C828174   5.145   7.553  10.850  0.5871  0.4669 -0.4815
  336HK4    C1128175   5.242   7.458  10.820  0.4905 -0.0203  0.7276
  336HK4     H428176   5.337   7.452  10.877  0.7996 -0.3104  0.1891
  336HK4    C1228177   5.244   7.394  10.696 -0.6396 -0.1371  0.7703
  336HK4     H528178   5.303   7.303  10.681 -1.5586 -0.4784 -0.8108
  336HK4    C1328179   5.159   7.442  10.597 -0.4407 -0.7130  0.3220
  336HK4     H628180   5.148   7.389  10.501 -1.6399 -0.8383  0.5302
  336HK4     C728181   5.135   7.603  10.989 -0.2801 -0.0272 -0.3620
  336HK4     O228182   5.192   7.543  11.080 -0.6512  0.2489  0.0516
  336HK4     C428183   5.032   7.703  11.026  0.2043  0.4558 -0.3122
  336HK4     C328184   5.026   7.759  11.153  0.6335 -0.3102  0.0576
  336HK4     H328185   5.060   7.693  11.234 -1.3773 -2.9511 -1.1695
  336HK4     C228186   4.956   7.877  11.178  0.0672 -0.6398  0.0160
  336HK4     H228187   4.971   7.922   0.029 -0.1485  0.1953 -0.3263
  336HK4     C128188   4.888   7.932  11.069  0.6746  0.0804  0.0005
  336HK4     H128189   4.825   8.020  11.085 -1.7205 -1.6110  0.0837
  336HK4     C628190   4.878   7.872  10.942 -0.1342  0.0138  0.0964
  336HK4     C528191   4.949   7.753  10.924 -0.7181 -0.3308  0.0505
  336HK4    C1028192   4.938   7.679  10.795  0.2469 -0.3465 -0.0244
  336HK4     O128193   4.823   7.650  10.761  0.1223  0.2244 -0.0889
  336HK4    C1628194   4.864   7.960  10.825 -0.2967 -0.0903  0.0374
  336HK4    C1528195   4.945   8.074  10.808 -0.5186  0.0261 -0.2265
  336HK4     H728196   5.033   8.082  10.873  0.1359 -1.4257 -0.9256
  336HK4    C2028197   4.919   8.178  10.719  0.0770  0.4130  0.0422
  336HK4     H928198   4.986   8.261  10.700  0.7888  0.3188  2.0670
  336HK4    C1928199   4.809   8.165  10.635 -0.1921  0.0767  0.4424
  336HK4    C1828200   4.726   8.046  10.641 -0.2997  0.1370  0.1754
  336HK4    C1728201   4.751   7.956  10.745 -0.1865 -0.1659 -0.1146
  336HK4     H828202   4.673   7.887  10.775 -0.9976  1.0624  0.6477
  336HK4     N128203   4.632   8.044  10.536 -0.5217 -0.0932  0.3776
  336HK4    C2128204   4.646   8.161  10.459  0.4943 -0.3782  0.1265
  336HK4    C2228205   4.767   8.224  10.509  0.6844 -0.5217 -0.1482
  336HK4    C2628206   4.830   8.317  10.428 -0.1477  0.0118 -0.1982
  336HK4    H1328207   4.928   8.360  10.452 -0.9358  0.5853  2.0600
  336HK4    C2528208   4.784   8.352  10.301  0.3432 -0.0424 -0.3924
  336HK4    H1228209   4.851   8.410  10.238 -0.6204  2.4045  0.7510
  336HK4    C2428210   4.665   8.297  10.255  0.0569  0.4966 -0.3050
  336HK4    H1128211   4.636   8.293  10.149  0.0497  0.2695 -0.2949
  336HK4    C2328212   4.603   8.202  10.334  1.2431 -0.0660 -0.0354
  336HK4    H1028213   4.519   8.148  10.290  2.2442 -2.1073  0.4921
  336HK4    C3928214   4.569   7.929  10.488  0.3075 -0.4182  0.0702
  336HK4    C4128215   4.447   7.933  10.417  0.3008  0.3657  0.1204
  336HK4    H2128216   4.389   8.025  10.432 -0.0871 -0.1184  1.6099
  336HK4    C4228217   4.396   7.823  10.349  0.3018  0.3478  0.1515
  336HK4    H2228218   4.300   7.832  10.296 -0.1702 -2.1647  0.4919
  336HK4    C4328219   4.463   7.701  10.350 -0.4432 -0.0694  0.8017
  336HK4    H2328220   4.437   7.615  10.289 -0.5973  0.6813 -0.2197
  336HK4    C4428221   4.587   7.694  10.413 -0.1573 -0.0527  0.2443
  336HK4    H2428222   4.651   7.605  10.414  1.2053  0.8592 -1.3883
  336HK4    C4528223   4.636   7.805  10.481  0.6751 -0.2123 -0.0918
  336HK4    H2528224   4.731   7.798  10.536 -0.5898  0.3142  2.2375
  337HK4    H2828225   4.929   2.475  10.918 -1.5400 -2.2963  0.4184
  337HK4    C4828226   4.865   2.536  10.982  0.1219 -0.0027 -0.0349
  337HK4    C4728227   4.852   2.674  10.974  0.6152  0.1004  0.8510
  337HK4    H2728228   4.876   2.726  10.880 -0.3035 -1.3047 -0.1811
  337HK4    C4628229   4.801   2.753  11.076 -0.1097  0.1917  0.4249
  337HK4    H2628230   4.781   2.859  11.055  1.3164  0.4561  0.3355
  337HK4    C4028231   4.763   2.691  11.197  0.3371 -0.3632  0.2862
  337HK4    C5028232   4.763   2.550  11.197  0.1557 -0.3644  0.0662
  337HK4    H3028233   4.745   2.489   0.039 -0.2620 -0.4984 -0.1099
  337HK4    C4928234   4.808   2.473  11.091  0.5974 -0.1749  0.1152
  337HK4    H2928235   4.805   2.363  11.095  0.6661 -0.1651  0.4709
  337HK4     N228236   4.712   2.770   0.053 -0.0196 -0.1504 -0.0532
  337HK4    C3028237   4.629   2.723   0.157 -0.0630  0.0293 -0.0041
  337HK4    C2928238   4.548   2.610   0.158  0.1568 -0.1235  0.5549
  337HK4    H1528239   4.516   2.574   0.060 -2.4625 -1.6482  1.8918
  337HK4    C2828240   4.474   2.568   0.268  0.0756  0.0431  0.5651
  337HK4    C2728241   4.484   2.649   0.384 -0.3152  0.2849  0.4277
  337HK4    H1428242   4.447   2.612   0.481 -0.4118  3.6982  1.7433
  337HK4    C3228243   4.564   2.762   0.394 -0.1290  0.1705  0.2459
  337HK4    H1628244   4.556   2.826   0.482 -2.4562 -0.3512  0.4557
  337HK4    C3128245   4.643   2.790   0.284 -0.2397 -0.1125  0.0916
  337HK4    C3428246   4.747   2.886   0.251 -0.1719 -0.1681  0.1462
  337HK4    C3328247   4.775   2.883   0.109 -0.2278 -0.1270  0.1346
  337HK4    C3528248   4.835   2.993   0.048 -0.0778 -0.1302  0.2756
  337HK4    H1728249   4.844   3.003  11.188  1.7371  1.7872  0.5802
  337HK4    C3628250   4.894   3.091   0.126  0.0704 -0.0793  0.0973
  337HK4    H1828251   4.939   3.184   0.088  0.7447 -0.4974 -0.1443
  337HK4    C3728252   4.886   3.083   0.264  0.4919 -0.2237  0.1146
  337HK4    H1928253   4.946   3.152   0.323  0.3818  0.0499 -0.0947
  337HK4    C3828254   4.809   2.985   0.327  0.2088 -0.1746 -0.1566
  337HK4    H2028255   4.796   2.988   0.435  0.0842 -1.7842 -0.1137
  337HK4    C1428256   4.384   2.453   0.252  0.3799 -0.1991  0.5909
  337HK4     C928257   4.263   2.432   0.319 -0.1572  0.4565 -0.1585
  337HK4     C828258   4.214   2.300   0.330  0.1106  0.3608 -0.1056
  337HK4    C1128259   4.264   2.189   0.263  0.5601  0.5273 -0.0480
  337HK4     H428260   4.221   2.091   0.285 -0.9920  1.5344  1.5194
  337HK4    C1228261   4.378   2.211   0.186  0.5207  0.0711 -0.2408
  337HK4     H528262   4.431   2.135   0.126  0.1644 -0.6422  0.3426
  337HK4    C1328263   4.436   2.338   0.188  0.2087  0.2144 -0.3026
  337HK4     H628264   4.525   2.346   0.125  0.3090 -0.4157 -0.2455
  337HK4     C728265   4.096   2.278   0.416 -0.0508  0.0235 -0.4104
  337HK4     O228266   4.077   2.168   0.468 -0.0027  0.2409  0.0695
  337HK4     C428267   4.012   2.390   0.466 -0.0368 -0.3675  0.5010
  337HK4     C328268   3.890   2.363   0.526 -0.1211 -0.2774  0.3702
  337HK4     H328269   3.846   2.262   0.523  1.0434 -0.7574 -1.1996
  337HK4     C228270   3.821   2.473   0.576  0.3443  0.1817  0.0010
  337HK4     H228271   3.721   2.454   0.618 -0.6417  2.1588 -1.3568
  337HK4     C128272   3.880   2.599   0.578  0.4439  0.1356 -0.0381
  337HK4     H128273   3.807   2.682   0.581  2.5115  2.0067 -0.0513
  337HK4     C628274   4.013   2.624   0.540  0.2577  0.4952 -0.4652
  337HK4     C528275   4.069   2.519   0.465 -0.0871 -0.3461  0.4427
  337HK4    C1028276   4.182   2.545   0.373 -0.2101  0.1437  0.4261
  337HK4     O128277   4.176   2.639   0.293 -0.2549 -0.2827 -0.0795
  337HK4    C1628278   4.101   2.705   0.626  0.0716  0.1432  0.0616
  337HK4    C1528279   4.060   2.736   0.758  0.1838 -0.3598  0.2136
  337HK4     H728280   3.970   2.684   0.794 -1.1387 -0.7265 -3.3625
  337HK4    C2028281   4.115   2.837   0.835 -0.1148  0.0085 -0.0511
  337HK4     H928282   4.096   2.829   0.942  2.4504 -0.8128  0.3809
  337HK4    C1928283   4.204   2.930   0.782  0.0683 -0.0522  0.1445
  337HK4    C1828284   4.242   2.905   0.644  0.6821 -0.2524  0.3502
  337HK4    C1728285   4.196   2.792   0.576  0.2065  0.0533  0.1638
  337HK4     H828286   4.259   2.754   0.496 -1.4781 -0.3685 -0.9799
  337HK4     N128287   4.337   3.001   0.604  0.3802 -0.1980 -0.2355
  337HK4    C2128288   4.358   3.082   0.717  0.3556 -0.4277 -0.0660
  337HK4    C2228289   4.278   3.044   0.831 -0.1184  0.2132 -0.1838
  337HK4    C2628290   4.307   3.100   0.955  0.4232 -0.2469 -0.1012
  337HK4    H1328291   4.255   3.067   1.046 -2.0193  0.9724 -1.0188
  337HK4    C2528292   4.410   3.193   0.968  0.7570 -0.6086 -0.1542
  337HK4    H1228293   4.425   3.239   1.066  1.6851  2.3822 -1.6409
  337HK4    C2428294   4.479   3.241   0.858  0.0131  0.3393 -0.2167
  337HK4    H1128295   4.529   3.339   0.854  2.6343 -0.9625 -0.2512
  337HK4    C2328296   4.457   3.178   0.736  0.7492 -0.8940  0.2694
  337HK4    H1028297   4.511   3.218   0.650  0.4777  0.2848  0.6329
  337HK4    C3928298   4.356   3.040   0.471  0.0760  0.0639 -0.2026
  337HK4    C4128299   4.468   3.112   0.426  0.1901 -0.5246 -0.8739
  337HK4    H2128300   4.565   3.084   0.468  0.2895 -1.0162 -1.4330
  337HK4    C4228301   4.460   3.202   0.320  0.1291  0.0914 -0.3529
  337HK4    H2228302   4.537   3.280   0.316 -0.0964  0.3080 -0.4468
  337HK4    C4328303   4.351   3.207   0.234 -0.0829  0.6814 -0.0474
  337HK4    H2328304   4.344   3.278   0.152  0.3406  2.3413  1.3241
  337HK4    C4428305   4.243   3.125   0.266  0.7254 -0.3507  0.0732
  337HK4    H2428306   4.161   3.121   0.193  0.7451 -0.6142  0.0661
  337HK4    C4528307   4.246   3.051   0.383 -0.5364  0.4311  0.6063
  337HK4    H2528308   4.156   2.992   0.410 -1.8836  1.1798 -2.0472
  338HK4    H2828309   6.630   4.655   3.784 -0.0608 -0.2125 -1.4317
  338HK4    C4828310   6.527   4.675   3.815  0.2911 -0.4975 -0.0596
  338HK4    C4728311   6.455   4.572   3.874  0.3986 -0.3269  0.3728
  338HK4    H2728312   6.495   4.469   3.876 -0.1519 -0.5237  1.1619
  338HK4    C4628313   6.329   4.596   3.927 -0.0371 -0.2674 -0.6803
  338HK4    H2628314   6.277   4.505   3.959  2.8657 -1.6515  0.3143
  338HK4    C4028315   6.267   4.722   3.941  0.1020 -0.2973  0.2021
  338HK4    C5028316   6.345   4.825   3.884 -0.3962 -0.3510 -0.5886
  338HK4    H3028317   6.303   4.926   3.873  1.2752  0.4635  0.3259
  338HK4    C4928318   6.470   4.801   3.828 -0.1693 -0.7161  0.0547
  338HK4    H2928319   6.532   4.885   3.793 -1.1936 -0.3167 -0.8297
  338HK4     N228320   6.128   4.734   3.942  0.1217  0.0038 -0.4031
  338HK4    C3028321   6.036   4.638   3.896  0.0247 -0.1682  0.1410
  338HK4    C2928322   6.056   4.523   3.820 -0.1010  0.1773 -0.4208
  338HK4    H1528323   6.147   4.512   3.763 -0.2069 -1.6552 -0.2768
  338HK4    C2828324   5.957   4.425   3.815 -0.1218  0.1932 -0.3724
  338HK4    C2728325   5.832   4.447   3.878  0.0194  0.0634 -0.0442
  338HK4    H1428326   5.743   4.387   3.852  0.3576 -0.2137 -0.5979
  338HK4    C3228327   5.808   4.563   3.950  0.2935  0.2279 -0.2131
  338HK4    H1628328   5.703   4.585   3.972  0.4619  1.7940 -0.9210
  338HK4    C3128329   5.908   4.658   3.962 -0.1518  0.7355 -0.4629
  338HK4    C3428330   5.920   4.779   4.040 -0.0575  0.0811  0.5544
  338HK4    C3328331   6.057   4.826   4.022  0.0876 -0.4965  0.1499
  338HK4    C3528332   6.079   4.955   4.068 -0.3013 -0.3531 -0.0611
  338HK4    H1728333   6.177   5.003   4.065 -1.8358  2.8525 -1.4541
  338HK4    C3628334   5.981   5.038   4.121  0.0348  0.0836 -0.1170
  338HK4    H1828335   6.009   5.139   4.155  1.7464  0.1528 -1.6868
  338HK4    C3728336   5.851   4.992   4.139  0.0553 -0.0091 -0.1988
  338HK4    H1928337   5.787   5.032   4.218 -0.0801  0.3313 -0.4827
  338HK4    C3828338   5.826   4.861   4.101 -0.5672  0.1399 -0.3061
  338HK4    H2028339   5.742   4.809   4.149  0.1414 -0.2493  0.5358
  338HK4    C1428340   5.980   4.305   3.733 -0.0317 -0.3533  0.4444
  338HK4     C928341   5.876   4.236   3.670 -0.0471  0.1391 -0.0791
  338HK4     C828342   5.889   4.095   3.667 -0.7349  0.0510  0.8708
  338HK4    C1128343   6.010   4.036   3.702 -0.5488 -0.0002  0.1594
  338HK4     H428344   6.021   3.929   3.680 -0.3950  0.3923 -1.7231
  338HK4    C1228345   6.121   4.107   3.748 -0.2207 -0.3390 -0.1081
  338HK4     H528346   6.210   4.063   3.795 -0.3083 -2.8808 -2.1999
  338HK4    C1328347   6.104   4.244   3.762  0.0410 -0.3331  0.1741
  338HK4     H628348   6.177   4.303   3.820  2.0702 -1.8539 -0.7943
  338HK4     C728349   5.776   4.011   3.622 -0.2498 -0.1571  0.0316
  338HK4     O228350   5.784   3.888   3.631 -0.7452 -0.2174 -0.3203
  338HK4     C428351   5.652   4.073   3.573  0.2219  0.1548 -0.7709
  338HK4     C328352   5.543   3.991   3.543 -0.0230 -0.1356  0.8951
  338HK4     H328353   5.549   3.882   3.556 -1.3710 -0.1641  1.3235
  338HK4     C228354   5.424   4.045   3.498  0.2079  0.0936  0.5624
  338HK4     H228355   5.331   3.987   3.499  0.4167 -0.2512  0.1859
  338HK4     C128356   5.425   4.180   3.465 -0.0256 -0.2235 -0.7744
  338HK4     H128357   5.335   4.219   3.414 -0.8303  0.1918  0.9324
  338HK4     C628358   5.536   4.265   3.482 -0.0574 -0.2262 -0.5461
  338HK4     C528359   5.650   4.211   3.543  0.0278  0.2607 -0.2747
  338HK4    C1028360   5.765   4.294   3.590  0.0863  0.1642 -0.2487
  338HK4     O128361   5.793   4.401   3.537 -0.0529  0.0752 -0.5052
  338HK4    C1628362   5.537   4.382   3.394 -0.5705  0.1023 -0.1109
  338HK4    C1528363   5.510   4.358   3.258  0.0885  0.5372 -0.3165
  338HK4     H728364   5.552   4.269   3.209  1.7116  0.5497  1.0117
  338HK4    C2028365   5.458   4.461   3.180  0.4750  0.2142 -1.0069
  338HK4     H928366   5.423   4.440   3.079 -3.1643  0.5521  0.1222
  338HK4    C1928367   5.457   4.590   3.231 -0.1114 -0.2040  0.0503
  338HK4    C1828368   5.491   4.619   3.369 -0.4276 -0.2228  0.1325
  338HK4    C1728369   5.526   4.510   3.448 -0.7423 -0.1265  0.4061
  338HK4     H828370   5.545   4.516   3.555  1.4371  0.1529  0.0179
  338HK4     N128371   5.480   4.756   3.404  0.5074 -0.1271  0.0734
  338HK4    C2128372   5.440   4.815   3.282  0.2628 -0.0503  0.1908
  338HK4    C2228373   5.422   4.719   3.175  0.2596 -0.0436  0.1862
  338HK4    C2628374   5.420   4.762   3.043  0.3202 -0.0228  0.1911
  338HK4    H1328375   5.437   4.688   2.964  0.6435  0.3892 -0.1310
  338HK4    C2528376   5.415   4.895   3.003  0.2579 -0.2044 -0.4168
  338HK4    H1228377   5.420   4.923   2.898 -0.2017 -0.0566 -0.4009
  338HK4    C2428378   5.422   4.991   3.103  0.1395 -0.1058 -0.5030
  338HK4    H1128379   5.394   5.096   3.083 -0.0486  0.0037  0.3061
  338HK4    C2328380   5.446   4.944   3.232  0.1537 -0.3468 -0.5927
  338HK4    H1028381   5.489   5.016   3.302  2.3115 -1.2720 -0.9295
  338HK4    C3928382   5.542   4.823   3.509 -0.0309  0.1952  0.1845
  338HK4    C4128383   5.486   4.938   3.569 -0.2143  0.5458 -0.6504
  338HK4    H2128384   5.384   4.964   3.538 -0.8395 -0.2966  0.6610
  338HK4    C4228385   5.546   4.998   3.680 -0.4810 -0.7200  0.1929
  338HK4    H2228386   5.496   5.091   3.712  1.6714  0.7248 -0.4770
  338HK4    C4328387   5.659   4.941   3.738 -0.0098 -0.0035 -0.0107
  338HK4    H2328388   5.709   4.989   3.822  0.5385  0.2208 -0.4587
  338HK4    C4428389   5.718   4.830   3.679  0.1190 -0.0988  0.3047
  338HK4    H2428390   5.806   4.782   3.726  1.8238  1.5432 -1.1628
  338HK4    C4528391   5.661   4.774   3.565  0.0340  0.3102  0.1476
  338HK4    H2528392   5.713   4.692   3.514  0.7796 -0.7291  2.5092
  339HK4    H2828393  11.115   5.248   7.781 -1.1121 -0.2576 -1.7026
  339HK4    C4828394  11.179   5.172   7.736 -0.0414 -0.2075 -0.3210
  339HK4    C4728395   0.045   5.202   7.662  0.1134  0.2639  0.1068
  339HK4    H2728396   0.078   5.307   7.657  2.5109 -0.4988 -0.5210
  339HK4    C4628397   0.129   5.105   7.609  0.6329  0.6806  0.1705
  339HK4    H2628398   0.224   5.143   7.568 -0.9970  2.7060 -1.8586
  339HK4    C4028399   0.114   4.970   7.644 -0.2216  0.5423 -0.6966
  339HK4    C5028400  11.248   4.943   7.723  0.4784  0.2428  0.2356
  339HK4    H3028401  11.216   4.841   7.747 -0.1879  0.1333 -1.0169
  339HK4    C4928402  11.157   5.039   7.767  0.3616 -0.0535  0.6300
  339HK4    H2928403  11.074   5.017   7.837 -1.0756  0.1703 -0.9713
  339HK4     N228404   0.153   4.876   7.548 -0.4657 -0.3991  0.1099
  339HK4    C3028405   0.182   4.892   7.411  0.1249  0.2134  0.3010
  339HK4    C2928406   0.113   4.979   7.328  0.5822  0.1636 -0.1344
  339HK4    H1528407   0.040   5.044   7.376 -0.1155 -2.8266  3.0447
  339HK4    C2828408   0.110   4.968   7.189 -0.4554  0.0807 -0.1136
  339HK4    C2728409   0.192   4.867   7.136 -0.3041  0.0543  0.1716
  339HK4    H1428410   0.188   4.842   7.029 -2.1057 -0.8139  0.4270
  339HK4    C3228411   0.270   4.783   7.215 -0.0590  0.2753  0.1639
  339HK4    H1628412   0.316   4.700   7.161  0.7262  1.1196 -0.4832
  339HK4    C3128413   0.264   4.787   7.353 -0.1961  0.0388  0.1650
  339HK4    C3428414   0.282   4.691   7.460  0.5524  0.0366  0.0372
  339HK4    C3328415   0.200   4.745   7.568 -0.0616 -0.3104 -0.2508
  339HK4    C3528416   0.168   4.661   7.674 -0.0645 -0.4198 -0.3389
  339HK4    H1728417   0.125   4.700   7.766 -0.2478  1.5923 -1.2665
  339HK4    C3628418   0.207   4.527   7.677 -0.4157 -0.5173 -0.0965
  339HK4    H1828419   0.177   4.458   7.757  2.6630 -1.9493 -0.1362
  339HK4    C3728420   0.286   4.480   7.572  0.4884  0.3771  0.1810
  339HK4    H1928421   0.313   4.375   7.562 -0.6442  0.0023  0.9207
  339HK4    C3828422   0.329   4.560   7.467  0.5045  0.0127 -0.0878
  339HK4    H2028423   0.399   4.531   7.389  2.3729  0.5754  1.3532
  339HK4    C1428424   0.012   5.050   7.117 -0.0706  0.4331 -0.2378
  339HK4     C928425  11.208   5.010   6.993  0.1587 -0.0403 -0.1822
  339HK4     C828426  11.156   5.111   6.909 -0.1725 -0.0989 -0.0505
  339HK4    C1128427  11.137   5.238   6.961 -0.7780 -0.5025  0.7236
  339HK4     H428428  11.080   5.308   6.899  1.4031 -0.1536 -0.9645
  339HK4    C1228429  11.182   5.276   7.087  0.3928  0.6560 -0.0331
  339HK4     H528430  11.165   5.376   7.130  3.7785  0.5712  1.6681
  339HK4    C1328431   0.002   5.183   7.164 -1.0005  0.0936  0.5353
  339HK4     H628432   0.092   5.217   7.217 -1.1102 -0.7981  1.3047
  339HK4     C728433  11.140   5.082   6.765  0.4081  0.3055 -0.2000
  339HK4     O228434  11.098   5.172   6.692  0.1279  0.2737 -0.0780
  339HK4     C428435  11.175   4.946   6.717 -0.4705 -0.0141  0.0542
  339HK4     C328436  11.177   4.923   6.580 -0.3843  0.3669 -0.0090
  339HK4     H328437  11.163   5.002   6.505  0.3503  1.7216  1.2354
  339HK4     C228438  11.204   4.795   6.534 -0.5188  0.2845  0.1415
  339HK4     H228439  11.200   4.760   6.430  1.6597  1.5728 -0.4167
  339HK4     C128440  11.236   4.695   6.625 -0.0894  0.7540  0.5156
  339HK4     H128441   0.010   4.592   6.592 -1.1716  0.6479  0.1047
  339HK4     C628442  11.233   4.713   6.764 -0.3387 -0.3494  0.6602
  339HK4     C528443  11.193   4.840   6.808  0.0558  0.0095 -0.0216
  339HK4    C1028444  11.187   4.868   6.955 -0.0949 -0.0476 -0.0174
  339HK4     O128445  11.098   4.814   7.022  0.2931 -0.5175  0.1245
  339HK4    C1628446   0.084   4.633   6.837 -0.1892 -0.6344  0.1455
  339HK4    C1528447   0.209   4.608   6.776 -0.1306  0.2819 -0.1189
  339HK4     H728448   0.230   4.645   6.675 -1.1504 -0.0715 -0.4673
  339HK4    C2028449   0.308   4.543   6.848 -0.1248  0.0016 -0.3801
  339HK4     H928450   0.408   4.544   6.805 -0.2049 -3.7957 -0.8035
  339HK4    C1928451   0.286   4.491   6.975 -0.1661 -0.0622 -0.4131
  339HK4    C1828452   0.155   4.509   7.035 -0.1969 -0.8225 -0.2462
  339HK4    C1728453   0.059   4.580   6.963 -0.2404 -0.3746  0.2465
  339HK4     H828454  11.203   4.558   6.985 -1.1345  0.1352 -3.1432
  339HK4     N128455   0.135   4.420   7.142  0.3599 -0.0819  0.4745
  339HK4    C2128456   0.256   4.349   7.154  0.4052 -0.1182 -0.1737
  339HK4    C2228457   0.351   4.386   7.050  0.1540  0.2287 -0.2816
  339HK4    C2628458   0.470   4.315   7.047 -0.0002 -0.0415 -0.0772
  339HK4    H1328459   0.538   4.319   6.962 -0.1355 -0.8162 -0.2273
  339HK4    C2528460   0.506   4.229   7.150 -0.1798  0.2787  0.2555
  339HK4    H1228461   0.613   4.220   7.170  0.0857  1.1440 -0.7540
  339HK4    C2428462   0.418   4.200   7.254  0.0800 -0.1193  0.3641
  339HK4    H1128463   0.450   4.130   7.332 -2.0808 -2.9492 -1.1766
  339HK4    C2328464   0.294   4.263   7.257  0.2309  0.1842  0.1456
  339HK4    H1028465   0.225   4.232   7.335  1.7574 -0.9737  1.0503
  339HK4    C3928466   0.048   4.433   7.251 -0.2684 -0.0876 -0.0256
  339HK4    C4128467  11.227   4.552   7.282 -0.3928  0.0518 -0.8342
  339HK4    H2128468   0.023   4.648   7.251  0.1831  0.6120  1.6033
  339HK4    C4228469  11.117   4.555   7.366  0.0166 -0.3710 -0.2813
  339HK4    H2228470  11.092   4.651   7.414  2.3463 -0.4240  1.1106
  339HK4    C4328471  11.066   4.435   7.413 -0.1507 -0.3616 -0.4370
  339HK4    H2328472  10.986   4.441   7.486  0.4840  0.5800  0.1881
  339HK4    C4428473  11.124   4.312   7.384  0.2214 -0.2852 -0.0202
  339HK4    H2428474  11.082   4.218   7.423  2.9660 -1.3942  0.3958
  339HK4    C4528475  11.238   4.316   7.304  0.5084 -0.2849  0.3912
  339HK4    H2528476   0.046   4.223   7.287  1.7383  0.4437  0.3778
  340HK4    H2828477   9.126   7.039   7.418  3.4657  1.1145  0.5075
  340HK4    C4828478   9.079   7.137   7.410  0.3701 -0.3414  0.0504
  340HK4    C4728479   9.116   7.226   7.310 -0.5238 -0.3560 -0.2959
  340HK4    H2728480   9.196   7.202   7.237 -1.4484 -0.2817 -1.3534
  340HK4    C4628481   9.062   7.354   7.310 -0.0605 -0.1599 -0.4824
  340HK4    H2628482   9.108   7.432   7.247 -2.1663  0.9638 -0.6760
  340HK4    C4028483   8.967   7.397   7.405 -0.1935 -0.4596 -0.4800
  340HK4    C5028484   8.941   7.305   7.509  0.8905 -0.0959  0.1294
  340HK4    H3028485   8.883   7.337   7.598  1.5052  0.5245  0.3091
  340HK4    C4928486   8.990   7.175   7.509  0.3959 -0.2805  0.0549
  340HK4    H2928487   8.959   7.117   7.597  3.5400 -1.5197  0.4077
  340HK4     N228488   8.868   7.488   7.369  0.6477  0.6452 -0.0127
  340HK4    C3028489   8.788   7.566   7.456  0.0780 -0.0181  0.0580
  340HK4    C2928490   8.825   7.619   7.579  0.1096  0.6681 -0.2402
  340HK4    H1528491   8.913   7.589   7.635  0.2997 -1.7115 -1.7346
  340HK4    C2828492   8.752   7.719   7.642 -0.2417 -0.1073  0.5947
  340HK4    C2728493   8.643   7.775   7.572  0.0278 -0.1923  0.1092
  340HK4    H1428494   8.608   7.872   7.610 -1.7344 -0.0481 -1.7653
  340HK4    C3228495   8.600   7.713   7.455 -0.1183 -0.2308  0.1819
  340HK4    H1628496   8.506   7.744   7.409 -0.0493  0.5156  0.5343
  340HK4    C3128497   8.667   7.610   7.389 -0.0981 -0.2483  0.2286
  340HK4    C3428498   8.678   7.560   7.254 -0.1370 -0.6854  0.3847
  340HK4    C3328499   8.802   7.485   7.245  0.3054  0.0606  0.1851
  340HK4    C3528500   8.832   7.425   7.123 -0.2876  0.0180  0.0540
  340HK4    H1728501   8.923   7.365   7.118 -0.7233 -0.4329 -3.0172
  340HK4    C3628502   8.756   7.441   7.008  0.3071 -0.1567 -0.3680
  340HK4    H1828503   8.781   7.405   6.907 -1.0785 -1.3908 -0.2926
  340HK4    C3728504   8.645   7.524   7.016  0.3561 -0.1121 -0.1386
  340HK4    H1928505   8.578   7.539   6.932  0.9183  0.4622 -0.4801
  340HK4    C3828506   8.606   7.581   7.137  0.4643 -0.4416  0.0547
  340HK4    H2028507   8.521   7.650   7.141  0.5786 -0.4170  2.5474
  340HK4    C1428508   8.782   7.766   7.778  0.3152  0.6520  0.2150
  340HK4     C928509   8.689   7.832   7.858 -0.1019  0.5826 -0.2121
  340HK4     C828510   8.716   7.924   7.962  0.4865  0.0178  0.1335
  340HK4    C1128511   8.852   7.936   7.988  0.5068  0.0309  0.0231
  340HK4     H428512   8.880   7.965   8.090 -1.1058 -1.6242  0.9773
  340HK4    C1228513   8.951   7.874   7.913  0.7083  0.3151  0.0541
  340HK4     H528514   9.057   7.893   7.934  2.3197 -4.9657 -2.4455
  340HK4    C1328515   8.918   7.793   7.805  0.4033  0.2005  0.2321
  340HK4     H628516   8.990   7.773   7.724 -0.6044 -0.0646 -0.6090
  340HK4     C728517   8.613   8.010   8.024  0.4610  0.3641 -0.3945
  340HK4     O228518   8.640   8.107   8.095  0.0712  0.2376 -0.0706
  340HK4     C428519   8.472   7.975   7.994  0.4851  0.1860 -0.2838
  340HK4     C328520   8.373   8.063   8.035 -0.4681 -0.7748 -0.4973
  340HK4     H328521   8.401   8.149   8.098  0.2405  0.7583 -2.8750
  340HK4     C228522   8.241   8.049   7.995 -0.3174  0.2458 -1.3363
  340HK4     H228523   8.173   8.130   8.024 -1.5426 -0.5986 -1.8081
  340HK4     C128524   8.208   7.949   7.904 -0.6127 -0.9689  0.0988
  340HK4     H128525   8.102   7.923   7.897 -1.3145  1.9710 -0.5492
  340HK4     C628526   8.307   7.861   7.854  0.0253 -0.1216 -0.1522
  340HK4     C528527   8.436   7.870   7.907 -0.0924  0.0539  0.1087
  340HK4    C1028528   8.548   7.783   7.863  0.0368  0.2182  0.1147
  340HK4     O128529   8.527   7.665   7.889  0.2211  0.1965  0.1673
  340HK4    C1628530   8.279   7.807   7.720  0.0250 -0.1656 -0.1342
  340HK4    C1528531   8.224   7.887   7.618  0.0396  0.1950  0.1392
  340HK4     H728532   8.227   7.997   7.626  0.1319  0.0213  3.3566
  340HK4    C2028533   8.212   7.830   7.492  0.3436  0.0934  0.1558
  340HK4     H928534   8.181   7.902   7.416  1.4684 -0.7993 -1.1779
  340HK4    C1928535   8.229   7.694   7.468  0.6531  0.1838 -0.1356
  340HK4    C1828536   8.281   7.606   7.571  0.1467  0.0363 -0.0094
  340HK4    C1728537   8.301   7.673   7.691  0.5559 -0.1108  0.0043
  340HK4     H828538   8.294   7.610   7.780  1.6959  0.2549  0.3536
  340HK4     N128539   8.310   7.478   7.520 -0.0243 -0.1186  0.2773
  340HK4    C2128540   8.286   7.488   7.381 -0.0308 -0.2387  0.2705
  340HK4    C2228541   8.234   7.618   7.345  0.2531 -0.1777  0.0718
  340HK4    C2628542   8.190   7.637   7.215  0.5826  0.3884  0.0430
  340HK4    H1328543   8.140   7.730   7.187  1.0787  0.5044 -0.4668
  340HK4    C2528544   8.202   7.535   7.121  0.4119 -0.0286  0.4754
  340HK4    H1228545   8.170   7.551   7.018 -0.9205  2.1940  1.1901
  340HK4    C2428546   8.256   7.412   7.157 -0.8783 -0.6558  0.3266
  340HK4    H1128547   8.278   7.342   7.075 -0.6698 -1.5344  1.1354
  340HK4    C2328548   8.300   7.387   7.286  0.1507 -0.0576  0.1038
  340HK4    H1028549   8.297   7.284   7.322 -0.4194  0.6296  2.1616
  340HK4    C3928550   8.385   7.382   7.589  0.1846 -0.5063 -0.4834
  340HK4    C4128551   8.361   7.244   7.569 -0.2278 -0.4967 -0.0732
  340HK4    H2128552   8.254   7.220   7.574 -0.0712 -1.0090  0.9380
  340HK4    C4228553   8.458   7.148   7.595 -0.2379 -0.4737  0.0407
  340HK4    H2228554   8.426   7.043   7.607 -0.4888 -0.2687  1.2154
  340HK4    C4328555   8.582   7.183   7.647 -0.0464 -0.1207 -0.6516
  340HK4    H2328556   8.669   7.120   7.667 -1.0997 -2.1408 -2.2524
  340HK4    C4428557   8.603   7.318   7.669 -0.5132 -0.0935 -0.3560
  340HK4    H2428558   8.700   7.344   7.716 -0.2827 -0.3445 -0.6931
  340HK4    C4528559   8.510   7.418   7.643 -0.1994  0.2677 -0.1001
  340HK4    H2528560   8.542   7.521   7.665  0.5743 -0.4011  2.0620
  341HK4    H2828561   5.333  10.080   3.840  0.5477 -0.8924 -3.1977
  341HK4    C4828562   5.383  10.176   3.826 -0.1185 -0.1290 -0.6931
  341HK4    C4728563   5.308  10.282   3.777  0.0681  0.2325 -0.1903
  341HK4    H2728564   5.204  10.258   3.753  0.4099 -2.2889  0.7216
  341HK4    C4628565   5.365  10.401   3.732  0.4560 -0.0850 -0.5509
  341HK4    H2628566   5.304  10.485   3.694 -0.4647 -0.1873  0.6613
  341HK4    C4028567   5.505  10.414   3.729  0.4489  0.1341  0.1040
  341HK4    C5028568   5.580  10.309   3.786  0.4293  0.3064  0.4502
  341HK4    H3028569   5.688  10.317   3.768  0.6150 -0.2790  1.2346
  341HK4    C4928570   5.521  10.191   3.830 -0.1708  0.2886 -0.4017
  341HK4    H2928571   5.587  10.109   3.862 -2.4585 -0.8337  1.5684
  341HK4     N228572   5.571  10.509   3.651 -0.2003  0.2261 -0.3289
  341HK4    C3028573   5.526  10.552   3.524  0.1746  0.0804 -0.5105
  341HK4    C2928574   5.503  10.464   3.418  0.1988 -0.3159 -0.1878
  341HK4    H1528575   5.561  10.372   3.421  1.8398  0.7123  1.1208
  341HK4    C2828576   5.467  10.514   3.294 -0.3958  0.0384  0.1222
  341HK4    C2728577   5.456  10.654   3.280  0.3088  0.0317 -0.5475
  341HK4    H1428578   5.440  10.697   3.180 -0.6477  0.3266 -0.2817
  341HK4    C3228579   5.473  10.744   3.385  0.1290 -0.3879 -0.1556
  341HK4    H1628580   5.456  10.850   3.367 -1.5772 -0.1359  2.6357
  341HK4    C3128581   5.511  10.695   3.509 -0.2613  0.1053  0.1620
  341HK4    C3428582   5.577  10.743   3.629  0.5481 -0.1141 -0.1899
  341HK4    C3328583   5.620  10.628   3.707 -0.1760 -0.0690  0.2774
  341HK4    C3528584   5.694  10.654   3.822 -0.3391  0.1973  0.3245
  341HK4    H1728585   5.750  10.569   3.860 -2.8601 -1.2123  1.0010
  341HK4    C3628586   5.709  10.785   3.867 -0.8218  0.2214  0.4148
  341HK4    H1828587   5.759  10.818   3.959  1.3932  1.2731 -1.1056
  341HK4    C3728588   5.666  10.894   3.792  0.0954  0.2618 -0.0600
  341HK4    H1928589   5.694  10.996   3.817  0.1974 -0.1140  1.4343
  341HK4    C3828590   5.599  10.874   3.672 -0.0651 -0.1029  0.0911
  341HK4    H2028591   5.566  10.956   3.609  0.3357 -1.3990 -1.8216
  341HK4    C1428592   5.475  10.422   3.180 -0.1041 -0.3125  0.4229
  341HK4     C928593   5.508  10.459   3.049  0.4541 -0.3425  0.5549
  341HK4     C828594   5.458  10.383   2.941 -0.0251  0.4895  0.1858
  341HK4    C1128595   5.372  10.275   2.961  0.2023  0.2665 -0.0099
  341HK4     H428596   5.315  10.230   2.879  0.8498  1.8341 -1.3703
  341HK4    C1228597   5.337  10.241   3.091  0.4332 -0.5553 -0.1659
  341HK4     H528598   5.293  10.142   3.112 -0.2669  0.0515  1.3276
  341HK4    C1328599   5.396  10.306   3.198  0.1208 -0.5357 -0.0048
  341HK4     H628600   5.384  10.259   3.297  0.8282  1.9124  1.3094
  341HK4     C728601   5.522  10.404   2.809 -0.3361  0.1166 -0.0248
  341HK4     O228602   5.492  10.332   2.713  0.0115  0.2640 -0.2448
  341HK4     C428603   5.609  10.521   2.785  0.5052 -0.3662  0.6412
  341HK4     C328604   5.668  10.541   2.661 -0.0292 -0.1968  0.4128
  341HK4     H328605   5.660  10.470   2.577 -1.9064  1.4945 -0.8783
  341HK4     C228606   5.747  10.653   2.638  0.0627 -0.3519 -0.0485
  341HK4     H228607   5.799  10.669   2.542  1.6253 -1.1513  0.6388
  341HK4     C128608   5.751  10.752   2.736  0.3834 -0.2686 -0.1457
  341HK4     H128609   5.804  10.844   2.707 -1.2359  1.2130  1.4678
  341HK4     C628610   5.679  10.743   2.857  0.5625  0.0173 -0.0196
  341HK4     C528611   5.618  10.621   2.885 -0.1274  0.3595 -0.0206
  341HK4    C1028612   5.602  10.572   3.024  0.0482 -0.1594 -0.1805
  341HK4     O128613   5.680  10.606   3.113 -0.0756  0.2755 -0.2354
  341HK4    C1628614   5.649  10.872   2.921  0.3981  0.4465 -0.9524
  341HK4    C1528615   5.521  10.900   2.975  0.4619  0.3513 -0.7555
  341HK4     H728616   5.430  10.845   2.948  0.1250  0.7345 -0.3993
  341HK4    C2028617   5.493  11.015   3.047 -0.0389 -0.2903  0.0874
  341HK4     H928618   5.397  11.035   3.094 -0.7256  1.0010 -1.7726
  341HK4    C1928619   5.594  11.110   3.058 -0.3369  0.0853 -0.4068
  341HK4    C1828620   5.730  11.072   3.027 -0.2144  0.4186 -0.2776
  341HK4    C1728621   5.754  10.956   2.954  0.2091  0.3006  0.0456
  341HK4     H828622   5.853  10.918   2.928  0.2929  0.6404 -0.1467
  341HK4     N128623   5.814  11.180   3.059  0.0860 -0.0614  0.5674
  341HK4    C2128624   5.735   0.042   3.097  0.1235  0.0497  0.3305
  341HK4    C2228625   5.596   0.001   3.099  0.1521 -0.0609  0.0647
  341HK4    C2628626   5.501   0.098   3.130  0.1761  0.1384 -0.4635
  341HK4    H1328627   5.396   0.077   3.109 -0.3972  1.7119  0.7191
  341HK4    C2528628   5.546   0.226   3.158 -0.2106  0.0564  0.5576
  341HK4    H1228629   5.480   0.286   3.221  0.3302  0.0204  1.1591
  341HK4    C2428630   5.679   0.267   3.156 -0.2680  0.2288  0.2989
  341HK4    H1128631   5.707   0.374   3.156 -1.9383  0.6824  0.2667
  341HK4    C2328632   5.776   0.170   3.132 -0.2814  0.3752 -0.3632
  341HK4    H1028633   5.881   0.194   3.144 -0.2942  0.0908  0.3778
  341HK4    C3928634   5.953  11.163   3.050  0.0202 -0.1800 -0.2202
  341HK4    C4128635   6.034   0.026   3.017 -0.4459  0.2643  0.1318
  341HK4    H2128636   5.987   0.112   2.967 -0.0108  1.4187  1.6621
  341HK4    C4228637   6.172   0.019   3.027 -0.4584  0.3125  0.3372
  341HK4    H2228638   6.240   0.090   2.978 -0.8844  0.1968 -0.4310
  341HK4    C4328639   6.228  11.156   3.089 -0.8777  0.2179  0.5459
  341HK4    H2328640   6.334  11.144   3.110 -0.6449  0.8120 -0.2609
  341HK4    C4428641   6.144  11.055   3.134 -0.3092 -0.2821  0.4860
  341HK4    H2428642   6.193  10.962   3.167  0.7148  0.9295  2.5029
  341HK4    C4528643   6.008  11.047   3.108 -0.1691 -0.2953 -0.2701
  341HK4    H2528644   5.946  10.991   3.180  0.3145 -0.9793 -0.3810
  342HK4    H2828645   2.177   9.981   9.342  0.0766  1.7373 -1.1077
  342HK4    C4828646   2.130   9.933   9.255  0.0348 -0.5023  0.1259
  342HK4    C4728647   2.198   9.847   9.170  0.0867 -0.0400 -0.3004
  342HK4    H2728648   2.306   9.828   9.177  0.5279  2.0967 -1.0538
  342HK4    C4628649   2.126   9.771   9.078  0.1700 -0.3764 -0.0879
  342HK4    H2628650   2.184   9.714   9.004  1.5344 -0.0852  0.7590
  342HK4    C4028651   1.985   9.776   9.074  0.1676 -0.4570 -0.0945
  342HK4    C5028652   1.918   9.861   9.165  0.3915 -0.1408 -0.2287
  342HK4    H3028653   1.810   9.845   9.179  0.4762  0.0719  0.6787
  342HK4    C4928654   1.992   9.942   9.251  0.1062  0.3265 -0.4188
  342HK4    H2928655   1.946  10.001   9.331  0.7382 -0.1160  0.2670
  342HK4     N228656   1.916   9.711   8.971 -0.0709  0.2823 -0.4064
  342HK4    C3028657   1.985   9.686   8.850  0.7310 -0.3879  0.1802
  342HK4    C2928658   2.068   9.765   8.771  0.3215 -0.0623  0.0769
  342HK4    H1528659   2.075   9.871   8.797  0.8697 -0.8016  3.0729
  342HK4    C2828660   2.111   9.735   8.643  0.4832 -0.1772  0.1611
  342HK4    C2728661   2.068   9.613   8.586  0.8628 -0.7473  1.0727
  342HK4    H1428662   2.108   9.586   8.487 -1.1133 -0.1976  0.0973
  342HK4    C3228663   1.981   9.532   8.658 -0.6544 -0.0037  0.1236
  342HK4    H1628664   1.957   9.431   8.627 -0.4574 -0.4218  1.3014
  342HK4    C3128665   1.933   9.568   8.784 -0.7207  0.3376  0.0022
  342HK4    C3428666   1.827   9.526   8.872 -0.2678 -0.0058  0.3796
  342HK4    C3328667   1.819   9.610   8.990  0.2012  0.1469  0.3017
  342HK4    C3528668   1.704   9.613   9.067  0.3175 -0.3357  0.4936
  342HK4    H1728669   1.692   9.687   9.146 -2.1768 -1.5019  1.2639
  342HK4    C3628670   1.601   9.525   9.037  0.0082  0.0773  0.3363
  342HK4    H1828671   1.508   9.524   9.095  1.4699  1.7952  2.7901
  342HK4    C3728672   1.612   9.445   8.924 -0.3531  0.3093  0.1335
  342HK4    H1928673   1.528   9.376   8.912 -0.2050  0.4231 -1.6720
  342HK4    C3828674   1.720   9.444   8.836 -0.1236 -0.2120  0.4226
  342HK4    H2028675   1.734   9.380   8.750  0.6577  1.0840 -0.4352
  342HK4    C1428676   2.168   9.847   8.566 -0.3914  0.1866  0.0400
  342HK4     C928677   2.138   9.880   8.433 -0.0850  0.1640 -0.0318
  342HK4     C828678   2.232   9.950   8.355 -0.0051  0.3028  0.1807
  342HK4    C1128679   2.347  10.005   8.411  0.4902  0.0680 -0.5972
  342HK4     H428680   2.415  10.065   8.349 -0.2138 -1.0720 -2.4962
  342HK4    C1228681   2.378   9.974   8.543  0.4318 -0.3382 -0.6787
  342HK4     H528682   2.470  10.011   8.591 -0.8890  2.0356  0.1223
  342HK4    C1328683   2.293   9.890   8.614 -0.2837  0.5047 -0.5282
  342HK4     H628684   2.336   9.844   8.704 -0.3751  0.6217 -0.4260
  342HK4     C728685   2.206   9.980   8.212 -0.1039  0.2012  0.1783
  342HK4     O228686   2.296  10.017   8.138 -0.0724 -0.0476  0.0928
  342HK4     C428687   2.067   9.956   8.165 -0.0150 -0.0451  0.0415
  342HK4     C328688   2.028  10.013   8.045  0.3301 -0.3281 -0.2034
  342HK4     H328689   2.081  10.102   8.007 -1.7832  1.7819  1.6616
  342HK4     C228690   1.904   9.994   7.985  0.5836 -0.6321 -0.6396
  342HK4     H228691   1.877  10.058   7.899 -0.7729 -0.8124 -0.3494
  342HK4     C128692   1.820   9.903   8.047  0.0518  0.5766  0.4392
  342HK4     H128693   1.714   9.891   8.020  0.6383 -0.8126 -1.3468
  342HK4     C628694   1.863   9.834   8.163 -0.1510  0.0233  0.1885
  342HK4     C528695   1.980   9.868   8.232 -0.3294  0.4481  0.2871
  342HK4    C1028696   2.005   9.846   8.377 -0.1789  0.1304  0.2123
  342HK4     O128697   1.903   9.847   8.446 -0.2983  0.4373  0.0358
  342HK4    C1628698   1.780   9.718   8.196 -0.0054 -0.0803  0.1780
  342HK4    C1528699   1.843   9.598   8.236 -0.2245 -0.2704 -0.0296
  342HK4     H728700   1.950   9.587   8.214 -0.3331 -1.0558 -0.1775
  342HK4    C2028701   1.771   9.506   8.311  0.3048 -0.1510  0.6301
  342HK4     H928702   1.820   9.414   8.345 -0.1915 -0.5146  0.3799
  342HK4    C1928703   1.635   9.521   8.336  0.0893 -0.5817 -0.2429
  342HK4    C1828704   1.569   9.641   8.289  0.5525  0.1247  0.8798
  342HK4    C1728705   1.643   9.734   8.216  0.0711  0.1922  0.4801
  342HK4     H828706   1.585   9.793   8.145  2.3773  1.1757 -0.6501
  342HK4     N128707   1.432   9.651   8.319  0.2615  0.1045 -0.4012
  342HK4    C2128708   1.411   9.538   8.401 -0.2279  0.2128 -0.3713
  342HK4    C2228709   1.529   9.453   8.408 -0.1752  0.3404  0.2441
  342HK4    C2628710   1.536   9.358   8.510  0.1780  0.2378  0.1219
  342HK4    H1328711   1.639   9.322   8.519 -0.0183 -0.5337 -0.6180
  342HK4    C2528712   1.434   9.333   8.601 -0.0333  0.0032 -0.1774
  342HK4    H1228713   1.464   9.271   8.686  0.4122  0.5149  0.0432
  342HK4    C2428714   1.317   9.406   8.586 -0.2458 -0.2740  0.1160
  342HK4    H1128715   1.233   9.381   8.652 -0.6228 -2.0775 -1.0102
  342HK4    C2328716   1.309   9.506   8.489  0.1032 -0.6275 -0.2823
  342HK4    H1028717   1.209   9.546   8.475  0.5423  2.1269  3.5961
  342HK4    C3928718   1.359   9.769   8.304  0.0791 -0.0569 -0.7692
  342HK4    C4128719   1.219   9.768   8.283 -0.0399 -0.2415  0.0066
  342HK4    H2128720   1.168   9.675   8.254 -2.9047  1.6486 -1.2554
  342HK4    C4228721   1.132   9.877   8.288  0.1779 -0.0663  0.0172
  342HK4    H2228722   1.026   9.858   8.267  0.4233 -0.7403 -0.6793
  342HK4    C4328723   1.188  10.002   8.312 -0.8065  0.2935  0.4357
  342HK4    H2328724   1.142  10.097   8.289 -0.4153 -0.1460 -2.2600
  342HK4    C4428725   1.324  10.007   8.341 -0.5703  0.1283 -0.6347
  342HK4    H2428726   1.377  10.095   8.381 -0.4324 -0.1558 -0.1957
  342HK4    C4528727   1.407   9.896   8.343 -0.6734  0.0594 -0.1950
  342HK4    H2528728   1.517   9.908   8.343 -0.8338  1.5836  0.5860
  343HK4    H2828729   0.858  11.108   4.444  2.3086  1.3358 -1.6186
  343HK4    C4828730   0.786  11.188   4.465  0.8437 -0.4328  0.2332
  343HK4    C4728731   0.823   0.029   4.565  0.1397 -0.1682  0.2584
  343HK4    H2728732   0.916   0.015   4.622  2.1495  0.0397 -2.8550
  343HK4    C4628733   0.768   0.156   4.574  0.2240 -0.0943 -0.2411
  343HK4    H2628734   0.797   0.234   4.646  1.3203  2.1413 -2.9984
  343HK4    C4028735   0.662   0.192   4.488 -0.5980 -0.3470  0.6589
  343HK4    C5028736   0.622   0.096   4.393 -0.1114 -0.5125  0.6234
  343HK4    H3028737   0.524   0.106   4.345 -0.0863 -2.5124  0.1334
  343HK4    C4928738   0.680  11.218   4.381  0.4939 -0.2479  0.7396
  343HK4    H2928739   0.651  11.165   4.289 -0.2317  1.2160  0.0947
  343HK4     N228740   0.591   0.313   4.492  0.6651  0.4150  0.2565
  343HK4    C3028741   0.571   0.392   4.608  0.1747  0.6335  0.0257
  343HK4    C2928742   0.562   0.359   4.743 -0.3528  0.4988 -0.0398
  343HK4    H1528743   0.553   0.254   4.769  0.3046  0.8943  1.8539
  343HK4    C2828744   0.535   0.454   4.841 -0.1117  0.4283  0.0974
  343HK4    C2728745   0.514   0.585   4.792  0.5215  0.6240  0.3407
  343HK4    H1428746   0.488   0.658   4.870 -0.4004  0.7454 -0.0656
  343HK4    C3228747   0.521   0.627   4.660 -0.0528  0.3084  0.2053
  343HK4    H1628748   0.502   0.731   4.631  0.0063 -0.5476 -3.1161
  343HK4    C3128749   0.548   0.528   4.566 -0.0280  0.5709 -0.0662
  343HK4    C3428750   0.550   0.530   4.421 -0.5913 -0.0444 -0.0834
  343HK4    C3328751   0.575   0.394   4.378  0.0280  0.0209  0.0659
  343HK4    C3528752   0.608   0.362   4.247 -0.3939  0.0696 -0.0537
  343HK4    H1728753   0.665   0.272   4.226  1.6933  1.3692 -0.1339
  343HK4    C3628754   0.634   0.469   4.162 -0.3354  0.0123 -0.1075
  343HK4    H1828755   0.657   0.460   4.055 -0.8464  1.1535 -0.3174
  343HK4    C3728756   0.619   0.601   4.205 -0.1205 -0.0454  0.1520
  343HK4    H1928757   0.645   0.682   4.137 -0.1397  0.4818  0.7695
  343HK4    C3828758   0.571   0.634   4.331 -0.0352  0.0547  0.1592
  343HK4    H2028759   0.556   0.738   4.359  2.2882  0.7146 -0.9258
  343HK4    C1428760   0.474   0.416   4.969 -0.3343 -0.3919 -0.2549
  343HK4     C928761   0.365   0.490   5.015 -0.1547 -0.4893  0.3365
  343HK4     C828762   0.353   0.517   5.153 -0.4889 -0.0164  0.2152
  343HK4    C1128763   0.439   0.460   5.246 -0.1173  0.4441  0.1518
  343HK4     H428764   0.433   0.475   5.354  0.3459 -1.3868  0.4445
  343HK4    C1228765   0.541   0.379   5.198 -0.2024  0.7576 -0.5663
  343HK4     H528766   0.602   0.322   5.269 -0.3839  2.3392  0.8969
  343HK4    C1328767   0.561   0.355   5.062 -0.1174 -0.2675 -0.3733
  343HK4     H628768   0.652   0.303   5.030  0.1700 -0.0601  0.1076
  343HK4     C728769   0.248   0.608   5.204 -0.0595  0.5109  0.1522
  343HK4     O228770   0.194   0.592   5.313 -0.1472 -0.1433  0.0148
  343HK4     C428771   0.175   0.691   5.105  0.4057  0.4513 -0.2481
  343HK4     C328772   0.106   0.803   5.149 -0.1584  0.0064  0.0162
  343HK4     H328773   0.131   0.826   5.254 -0.5158 -0.9179  0.3066
  343HK4     C228774   0.064   0.900   5.059  0.0879  0.0200 -0.0847
  343HK4     H228775   0.021   0.995   5.093  0.0946  0.7036 -1.9226
  343HK4     C128776   0.075   0.870   4.924  0.5739  0.2593 -0.0981
  343HK4     H128777   0.012   0.928   4.854 -0.6471  1.5531  2.0187
  343HK4     C628778   0.135   0.755   4.870 -0.4877 -0.3420 -0.0189
  343HK4     C528779   0.185   0.667   4.967  0.1172 -0.1659 -0.1627
  343HK4    C1028780   0.258   0.543   4.926  0.4168 -0.0191 -0.0714
  343HK4     O128781   0.204   0.461   4.852 -0.0518  0.4797 -0.2904
  343HK4    C1628782   0.186   0.771   4.733  0.1341 -0.5918  0.1794
  343HK4    C1528783   0.234   0.896   4.686 -0.0867 -0.6975 -0.3284
  343HK4     H728784   0.255   0.972   4.762  2.0622 -0.6387 -0.9384
  343HK4    C2028785   0.274   0.915   4.555 -0.3687  0.2280 -0.2787
  343HK4     H928786   0.319   1.005   4.512 -1.4001  0.8664 -0.0549
  343HK4    C1928787   0.258   0.811   4.464  0.0181  0.0286 -0.1180
  343HK4    C1828788   0.192   0.689   4.505  0.1130 -0.0146 -0.0934
  343HK4    C1728789   0.155   0.674   4.639 -0.1974 -0.1294 -0.1917
  343HK4     H828790   0.085   0.592   4.649  0.9876 -1.3821 -1.8218
  343HK4     N128791   0.156   0.618   4.389 -0.3797  0.1904 -0.0650
  343HK4    C2128792   0.218   0.681   4.280 -0.0586 -0.0918 -0.0445
  343HK4    C2228793   0.282   0.804   4.321  0.3920 -0.3253 -0.0409
  343HK4    C2628794   0.327   0.898   4.229  0.5292 -0.0155  0.3421
  343HK4    H1328795   0.346   1.001   4.260 -1.7964  0.6251 -0.2305
  343HK4    C2528796   0.322   0.863   4.095  0.6848 -0.2426  0.3963
  343HK4    H1228797   0.356   0.938   4.024  0.8283  0.2751  1.0168
  343HK4    C2428798   0.282   0.735   4.055 -0.5220  0.1963  0.1741
  343HK4    H1128799   0.294   0.713   3.948  0.1816  0.0719  0.2770
  343HK4    C2328800   0.234   0.643   4.147 -0.0220 -0.2403  0.0006
  343HK4    H1028801   0.185   0.552   4.114  0.9225 -0.5185 -0.6553
  343HK4    C3928802   0.128   0.481   4.398 -0.1595  0.2033  0.8974
  343HK4    C4128803   0.044   0.419   4.304  0.0545 -0.1752  0.9552
  343HK4    H2128804  11.222   0.480   4.245 -0.9314 -0.4215  1.8610
  343HK4    C4228805   0.041   0.280   4.294  0.5542 -0.1077 -0.2715
  343HK4    H2228806  11.231   0.224   4.219 -0.4598  0.3987  0.1167
  343HK4    C4328807   0.120   0.199   4.375 -0.5960 -0.1549  0.8269
  343HK4    H2328808   0.130   0.097   4.337 -1.5741 -0.1019  0.4150
  343HK4    C4428809   0.204   0.266   4.463 -0.1691  0.2959  0.0858
  343HK4    H2428810   0.259   0.197   4.528 -1.8612  0.1520  1.4082
  343HK4    C4528811   0.207   0.403   4.485 -0.0496  0.1843  0.7795
  343HK4    H2528812   0.260   0.446   4.571  0.2637  0.8949  0.2422
  344HK4    H2828813   7.304   5.578   5.904 -0.5092  1.9058 -1.7851
  344HK4    C4828814   7.197   5.568   5.923 -0.0054  0.1575  0.2857
  344HK4    C4728815   7.164   5.542   6.056 -0.3879  0.0276  0.1656
  344HK4    H2728816   7.228   5.549   6.145 -1.8206 -0.1719  1.2119
  344HK4    C4628817   7.031   5.510   6.079 -0.5856  0.5392 -0.2475
  344HK4    H2628818   7.002   5.482   6.182  0.7776 -4.3168 -1.0708
  344HK4    C4028819   6.936   5.499   5.976 -0.5555 -0.3178 -0.1836
  344HK4    C5028820   6.976   5.528   5.844  0.3182  0.0202  0.1488
  344HK4    H3028821   6.894   5.535   5.771  0.9114 -0.8743 -0.6157
  344HK4    C4928822   7.108   5.561   5.817  0.3399 -0.1714  0.0221
  344HK4    H2928823   7.137   5.605   5.721 -3.5026  0.4899 -0.9293
  344HK4     N228824   6.804   5.499   6.021 -0.5819  0.5746 -0.2630
  344HK4    C3028825   6.699   5.438   5.950 -0.4102 -0.1917  0.1411
  344HK4    C2928826   6.707   5.342   5.849  0.0053  0.3909 -0.3802
  344HK4    H1528827   6.802   5.319   5.800 -1.0755 -0.2952 -2.1697
  344HK4    C2828828   6.594   5.278   5.799 -0.0633 -0.3194  0.6762
  344HK4    C2728829   6.468   5.316   5.849 -0.3106 -0.4656  0.1663
  344HK4    H1428830   6.380   5.255   5.823  0.5005 -1.2274 -0.8287
  344HK4    C3228831   6.455   5.425   5.934  0.0424 -0.1791 -0.1469
  344HK4    H1628832   6.358   5.466   5.962 -0.1087 -0.4924 -0.2096
  344HK4    C3128833   6.568   5.490   5.984 -0.2697  0.2609 -0.0097
  344HK4    C3428834   6.596   5.590   6.085 -0.0171  0.1512  0.0302
  344HK4    C3328835   6.739   5.587   6.110 -0.1616 -0.2111  0.8352
  344HK4    C3528836   6.790   5.658   6.218  0.0239  0.6203  0.2066
  344HK4    H1728837   6.892   5.695   6.210  0.1501  0.1659 -0.2490
  344HK4    C3628838   6.709   5.720   6.312  0.0180  0.3152  0.4020
  344HK4    H1828839   6.753   5.777   6.396  1.0039  0.9362 -0.5309
  344HK4    C3728840   6.572   5.720   6.289  0.1120  0.0036 -0.1710
  344HK4    H1928841   6.522   5.812   6.322 -0.2223 -0.2686  0.0888
  344HK4    C3828842   6.517   5.654   6.180 -0.2309 -0.6260  0.3794
  344HK4    H2028843   6.410   5.636   6.168 -0.4158 -0.1717  1.2866
  344HK4    C1428844   6.599   5.190   5.682 -0.2231 -0.1659  0.5537
  344HK4     C928845   6.499   5.175   5.585 -0.1188 -0.1837  0.4478
  344HK4     C828846   6.483   5.057   5.510  0.2975  0.1077 -0.1044
  344HK4    C1128847   6.586   4.964   5.521 -0.3062 -0.5416  0.0772
  344HK4     H428848   6.601   4.897   5.435 -1.2288  1.1204 -1.4230
  344HK4    C1228849   6.681   4.966   5.622 -0.0340 -0.0400 -0.1849
  344HK4     H528850   6.743   4.881   5.655  0.5332  0.3095 -0.3544
  344HK4    C1328851   6.692   5.085   5.692  0.0307 -0.0168 -0.2346
  344HK4     H628852   6.766   5.092   5.773  0.1324  1.7154 -0.4639
  344HK4     C728853   6.354   5.023   5.445  0.0658 -0.5049  0.6711
  344HK4     O228854   6.340   4.914   5.390 -0.4018 -0.4155  0.6142
  344HK4     C428855   6.241   5.117   5.460  0.0142 -0.3939 -0.4146
  344HK4     C328856   6.115   5.084   5.411  0.0014 -0.1837 -0.5208
  344HK4     H328857   6.094   4.993   5.353  0.2793  0.5173 -1.7607
  344HK4     C228858   6.008   5.173   5.419  0.4031  0.2878 -0.3551
  344HK4     H228859   5.915   5.145   5.366  0.5837  0.9246 -1.0240
  344HK4     C128860   6.032   5.294   5.483  0.2977  0.2589 -0.2623
  344HK4     H128861   5.946   5.355   5.515  0.3303  0.9616 -1.5078
  344HK4     C628862   6.156   5.340   5.530  0.1758 -0.0851  0.4064
  344HK4     C528863   6.259   5.247   5.511 -0.2278 -0.3809 -0.3591
  344HK4    C1028864   6.395   5.280   5.562 -0.3138 -0.4863 -0.0522
  344HK4     O128865   6.442   5.388   5.525 -0.0871 -0.4143  0.4441
  344HK4    C1628866   6.153   5.433   5.643  0.0865  0.2898  0.0958
  344HK4    C1528867   6.070   5.403   5.753  0.4316 -0.2687  0.2053
  344HK4     H728868   6.002   5.315   5.750  2.6543 -2.0650  1.1793
  344HK4    C2028869   6.050   5.493   5.857  0.3472 -0.1259  0.0646
  344HK4     H928870   5.967   5.472   5.924  0.0794 -4.3871 -1.4248
  344HK4    C1928871   6.136   5.602   5.859  0.0626  0.0939  0.2375
  344HK4    C1828872   6.226   5.636   5.751  0.5084 -0.2607  0.5009
  344HK4    C1728873   6.230   5.549   5.642 -0.3652  0.5904 -0.2275
  344HK4     H828874   6.290   5.572   5.554  0.4448  1.4910  0.5411
  344HK4     N128875   6.289   5.761   5.769 -0.3050  0.2963 -0.4685
  344HK4    C2128876   6.228   5.806   5.888 -0.2126 -0.4696 -0.1236
  344HK4    C2228877   6.137   5.714   5.951 -0.8665  0.2799  0.0344
  344HK4    C2628878   6.101   5.719   6.086 -0.0524 -0.0528  0.2650
  344HK4    H1328879   6.059   5.631   6.134  1.4186  0.4053  2.4349
  344HK4    C2528880   6.152   5.825   6.161  0.4515 -0.0061 -0.1364
  344HK4    H1228881   6.128   5.826   6.267 -2.1061  1.4240 -0.6822
  344HK4    C2428882   6.224   5.927   6.100 -0.0076  0.2500 -0.2553
  344HK4    H1128883   6.255   6.016   6.156  1.8912  0.1825 -1.1605
  344HK4    C2328884   6.264   5.915   5.967  0.3358 -0.6882 -0.0696
  344HK4    H1028885   6.315   5.997   5.918 -0.8908 -0.5749 -1.1579
  344HK4    C3928886   6.418   5.796   5.725 -0.2064  0.4369 -0.0656
  344HK4    C4128887   6.472   5.925   5.710  0.1114  0.3274  0.1359
  344HK4    H2128888   6.403   6.010   5.720 -0.1419  0.0854  0.4785
  344HK4    C4228889   6.604   5.949   5.673  0.0552  0.2826 -0.0911
  344HK4    H2228890   6.629   6.053   5.651 -1.4565  0.9890  1.3689
  344HK4    C4328891   6.693   5.846   5.645 -0.4062 -0.3117  0.5606
  344HK4    H2328892   6.800   5.865   5.631 -0.5981 -0.8969 -1.9699
  344HK4    C4428893   6.642   5.718   5.653 -0.0827 -0.4424  0.5741
  344HK4    H2428894   6.711   5.632   5.654 -0.3041 -0.6158  1.3529
  344HK4    C4528895   6.510   5.695   5.690 -0.4691  0.2913 -0.3394
  344HK4    H2528896   6.487   5.591   5.718 -0.1961  0.7848  1.8568
  345HK4    H2828897   1.867   6.278   1.772  2.1321  0.1042 -1.0597
  345HK4    C4828898   1.883   6.188   1.831 -0.4981 -0.0476 -0.4991
  345HK4    C4728899   1.900   6.070   1.760  0.1585  0.0255 -0.4638
  345HK4    H2728900   1.885   6.080   1.651 -0.8291  1.6013 -0.1904
  345HK4    C4628901   1.911   5.949   1.827  0.0628  0.1508 -0.2182
  345HK4    H2628902   1.938   5.855   1.775  1.0280  0.0870  0.3828
  345HK4    C4028903   1.893   5.943   1.966 -0.2629 -0.1322 -0.2697
  345HK4    C5028904   1.878   6.065   2.036  0.2503  0.2737 -0.8680
  345HK4    H3028905   1.859   6.058   2.144 -0.2565 -2.0675 -1.0844
  345HK4    C4928906   1.882   6.188   1.970 -0.2167  0.4880 -0.4962
  345HK4    H2928907   1.877   6.276   2.036 -3.1485  1.5124 -1.9908
  345HK4     N228908   1.886   5.821   2.035 -0.0610 -0.1915 -0.3503
  345HK4    C3028909   1.837   5.699   1.984  0.3297 -0.4642 -0.0701
  345HK4    C2928910   1.732   5.666   1.899  0.2460  0.0808 -0.1788
  345HK4    H1528911   1.680   5.748   1.849 -1.1728 -0.6585  0.0859
  345HK4    C2828912   1.689   5.536   1.876  0.2104  0.0554  0.0334
  345HK4    C2728913   1.759   5.434   1.943  0.2732 -0.1317 -0.3225
  345HK4    H1428914   1.732   5.331   1.917  0.1886  0.1601 -1.4176
  345HK4    C3228915   1.864   5.462   2.030 -0.5200 -0.3644  0.7161
  345HK4    H1628916   1.905   5.383   2.094  2.7319  1.3160  0.7831
  345HK4    C3128917   1.902   5.592   2.057  0.5190 -0.4601 -0.2321
  345HK4    C3428918   1.994   5.651   2.153 -0.3086  0.4557  0.0092
  345HK4    C3328919   1.980   5.795   2.136 -0.0090  0.4587 -0.2251
  345HK4    C3528920   2.037   5.874   2.235 -0.1842  0.1155  0.1488
  345HK4    H1728921   2.022   5.981   2.234 -1.5856 -0.0768 -0.6560
  345HK4    C3628922   2.107   5.814   2.340 -0.4436 -0.2194  0.1330
  345HK4    H1828923   2.132   5.886   2.419 -2.5834  0.8698 -0.1495
  345HK4    C3728924   2.122   5.677   2.354  0.8948 -0.1285 -0.2947
  345HK4    H1928925   2.176   5.633   2.438  0.8951  0.8318  0.2107
  345HK4    C3828926   2.063   5.594   2.259  0.2308  0.4116 -0.3604
  345HK4    H2028927   2.090   5.488   2.258  0.1169  0.3709  0.3847
  345HK4    C1428928   1.555   5.520   1.818  0.3015  0.2591 -0.2355
  345HK4     C928929   1.471   5.418   1.865  0.0359  0.5308 -0.1173
  345HK4     C828930   1.408   5.329   1.775  0.5947 -0.3818  0.3969
  345HK4    C1128931   1.416   5.361   1.640  0.0689 -0.0504  0.4434
  345HK4     H428932   1.396   5.285   1.563 -0.4232 -0.3776  0.8836
  345HK4    C1228933   1.487   5.468   1.589 -0.4123  0.0521 -0.0129
  345HK4     H528934   1.496   5.491   1.481  2.2749 -0.4472  0.0704
  345HK4    C1328935   1.547   5.553   1.681 -0.8286  0.4715 -0.1257
  345HK4     H628936   1.605   5.638   1.643 -0.1792  1.5662  3.0936
  345HK4     C728937   1.316   5.222   1.822  0.4382 -0.3402  0.1831
  345HK4     O228938   1.271   5.137   1.745 -0.0893  0.3024 -0.2180
  345HK4     C428939   1.279   5.221   1.965 -0.3448  0.0476 -0.0139
  345HK4     C328940   1.218   5.107   2.016 -0.1889  0.0474  0.1728
  345HK4     H328941   1.178   5.033   1.945  0.1167  0.2869 -0.2489
  345HK4     C228942   1.170   5.101   2.146  0.1492 -0.4941  0.2748
  345HK4     H228943   1.128   5.005   2.182  0.0032 -0.6687 -0.3672
  345HK4     C128944   1.188   5.218   2.219  0.3751 -0.0359 -0.5136
  345HK4     H128945   1.198   5.190   2.325 -1.0467 -2.0796 -0.9041
  345HK4     C628946   1.239   5.340   2.172  0.1186  0.1467 -0.3204
  345HK4     C528947   1.299   5.335   2.045  0.0448  0.2228 -0.3581
  345HK4    C1028948   1.410   5.423   2.001  0.4169 -0.0243  0.0763
  345HK4     O128949   1.452   5.503   2.084 -0.3116 -0.4058  0.8103
  345HK4    C1628950   1.208   5.458   2.254  0.2433 -0.0882  0.0652
  345HK4    C1528951   1.189   5.447   2.393 -0.2384  0.0121  0.0063
  345HK4     H728952   1.252   5.374   2.446  0.4137 -0.3227 -1.2167
  345HK4    C2028953   1.121   5.545   2.464  0.0331  0.6273 -0.5865
  345HK4     H928954   1.095   5.529   2.569  0.7110  1.9738 -0.1912
  345HK4    C1928955   1.072   5.661   2.404 -0.3958  0.5124 -0.4540
  345HK4    C1828956   1.103   5.678   2.264 -0.4570  0.3595 -0.4869
  345HK4    C1728957   1.167   5.577   2.194  0.0536  0.0383  0.4413
  345HK4     H828958   1.178   5.584   2.086  2.1663 -2.3735  0.4399
  345HK4     N128959   1.058   5.808   2.232 -0.2167  0.5902  0.1085
  345HK4    C2128960   1.006   5.875   2.345 -0.2126 -0.0351  0.4850
  345HK4    C2228961   1.019   5.785   2.458 -0.7183 -0.0441  0.5341
  345HK4    C2628962   1.025   5.835   2.587  0.2472  0.3626  0.3366
  345HK4    H1328963   1.054   5.763   2.663 -0.7769 -2.7497 -2.1104
  345HK4    C2528964   1.023   5.971   2.612  0.7757  0.4489 -0.0925
  345HK4    H1228965   1.014   6.006   2.715  1.3314  0.2164  0.0360
  345HK4    C2428966   1.006   6.058   2.505  0.2342  0.1034 -0.2870
  345HK4    H1128967   1.028   6.163   2.530 -2.3229 -0.0659  2.9703
  345HK4    C2328968   0.995   6.010   2.375 -0.0678  0.1475 -0.2786
  345HK4    H1028969   0.974   6.085   2.298  0.0891  3.1197  2.4679
  345HK4    C3928970   1.086   5.865   2.108 -0.2864 -0.2437 -0.2969
  345HK4    C4128971   0.988   5.954   2.056 -0.0569  0.1346 -0.0850
  345HK4    H2128972   0.896   5.978   2.111 -0.7450 -0.7363 -0.8564
  345HK4    C4228973   1.017   6.026   1.942  0.5901  0.5412  0.3288
  345HK4    H2228974   0.959   6.109   1.897 -0.5500 -0.1543  0.5036
  345HK4    C4328975   1.137   6.002   1.876  0.0067  0.0946 -0.5960
  345HK4    H2328976   1.173   6.051   1.786 -0.1419  0.2979 -0.5450
  345HK4    C4428977   1.235   5.918   1.928 -0.1955  0.1128 -0.1787
  345HK4    H2428978   1.320   5.886   1.865 -0.6983 -1.8418  0.1132
  345HK4    C4528979   1.208   5.843   2.041 -0.2463 -0.0397 -0.2937
  345HK4    H2528980   1.295   5.813   2.102 -1.1684 -1.6707  0.2601
  346HK4    H2828981   4.181   6.916   6.156  0.8716 -1.1016  1.4334
  346HK4    C4828982   4.097   6.911   6.225 -0.2485 -0.5044  0.1270
  346HK4    C4728983   3.989   6.827   6.198 -0.3944 -0.2385 -0.1281
  346HK4    H2728984   3.969   6.801   6.093  1.6151  0.6747 -0.7680
  346HK4    C4628985   3.906   6.777   6.297 -0.2771  0.3145  0.2517
  346HK4    H2628986   3.834   6.696   6.276 -0.7004  0.5390  0.8144
  346HK4    C4028987   3.921   6.826   6.429 -0.0021  0.0994  0.3009
  346HK4    C5028988   4.024   6.918   6.453  0.2537 -0.0978 -0.0310
  346HK4    H3028989   4.013   6.967   6.551 -1.3417 -1.4810  0.5009
  346HK4    C4928990   4.111   6.962   6.353  0.0747  0.0456 -0.1234
  346HK4    H2928991   4.173   7.051   6.368 -2.4259  1.7751  0.2125
  346HK4     N228992   3.832   6.787   6.530 -0.1027  0.3271  0.2984
  346HK4    C3028993   3.706   6.725   6.512  0.0192  0.1549  0.0349
  346HK4    C2928994   3.603   6.759   6.426 -0.1314 -0.2093  0.0717
  346HK4    H1528995   3.614   6.852   6.370  0.8573 -0.5897 -0.3658
  346HK4    C2828996   3.480   6.694   6.430 -0.2027 -0.1030 -0.3001
  346HK4    C2728997   3.460   6.586   6.518  0.3323  0.3400  0.3609
  346HK4    H1428998   3.392   6.508   6.483 -0.7855  1.5931 -0.2806
  346HK4    C3228999   3.555   6.559   6.616  0.4667  0.0752  0.1566
  346HK4    H1629000   3.517   6.490   6.692 -1.1137 -0.8090 -1.4110
  346HK4    C3129001   3.676   6.628   6.615  0.4465  0.1109  0.1209
  346HK4    C3429002   3.796   6.630   6.696  0.4655 -0.4924  0.1107
  346HK4    C3329003   3.874   6.746   6.658  0.0639 -0.2365  0.0646
  346HK4    C3529004   3.985   6.774   6.737  0.1714  0.1121 -0.2067
  346HK4    H1729005   4.052   6.854   6.705  4.0658 -1.4338  3.6291
  346HK4    C3629006   4.022   6.696   6.845 -0.2064  0.4006  0.1323
  346HK4    H1829007   4.114   6.712   6.903 -1.5168  0.9607  2.1120
  346HK4    C3729008   3.941   6.590   6.884  0.7856 -0.5858 -0.4436
  346HK4    H1929009   3.972   6.531   6.970  1.9633 -1.2451 -1.3159
  346HK4    C3829010   3.830   6.554   6.808  0.2192 -0.3626  0.2735
  346HK4    H2029011   3.772   6.465   6.831  0.7867 -1.2110 -1.5210
  346HK4    C1429012   3.361   6.746   6.362 -0.4786 -0.5732 -0.1784
  346HK4     C929013   3.229   6.745   6.409 -0.2738  0.4600  0.4216
  346HK4     C829014   3.117   6.773   6.328 -0.1031  0.3521  0.1481
  346HK4    C1129015   3.137   6.811   6.196  0.1712 -0.4747 -0.0554
  346HK4     H429016   3.044   6.816   6.136 -0.3199 -0.3156  0.7123
  346HK4    C1229017   3.265   6.818   6.144  0.1350  0.3854 -0.0403
  346HK4     H529018   3.274   6.843   6.037  0.8479 -0.9514 -0.2956
  346HK4    C1329019   3.371   6.781   6.226 -0.1443 -0.8072 -0.2132
  346HK4     H629020   3.468   6.775   6.175  0.2134 -0.3871  0.4144
  346HK4     C729021   2.980   6.742   6.376  0.0776 -0.0745  0.3907
  346HK4     O229022   2.885   6.808   6.335  0.0745 -0.1481  0.2785
  346HK4     C429023   2.966   6.664   6.500  0.1488 -0.1792  0.3323
  346HK4     C329024   2.841   6.614   6.535 -0.0565  0.3311  0.3347
  346HK4     H329025   2.753   6.597   6.470 -0.6811  1.1392  0.9660
  346HK4     C229026   2.816   6.571   6.665  0.6445 -0.5969  0.1753
  346HK4     H229027   2.716   6.591   6.708  0.6624  0.9380 -0.4600
  346HK4     C129028   2.927   6.548   6.744  0.5677 -0.6169  0.2759
  346HK4     H129029   2.926   6.466   6.817 -0.2462 -1.0611 -0.2232
  346HK4     C629030   3.057   6.595   6.717  0.3819 -0.3210 -0.0945
  346HK4     C529031   3.070   6.664   6.596  0.1012  0.5705  0.3813
  346HK4    C1029032   3.202   6.720   6.553  0.6852 -0.7908  0.3908
  346HK4     O129033   3.249   6.804   6.630 -0.6282 -0.1848  0.5489
  346HK4    C1629034   3.172   6.542   6.793 -0.2552 -0.6483  0.6451
  346HK4    C1529035   3.187   6.402   6.785  0.2122 -0.5528 -0.1330
  346HK4     H729036   3.109   6.332   6.753 -0.2352 -0.1755  0.1446
  346HK4    C2029037   3.300   6.349   6.846  0.1425 -0.3545  0.1611
  346HK4     H929038   3.322   6.243   6.837  0.6066 -0.0899 -2.0152
  346HK4    C1929039   3.390   6.425   6.920 -0.3029  0.0120  0.3330
  346HK4    C1829040   3.364   6.566   6.945  0.2185  0.2668 -0.5387
  346HK4    C1729041   3.252   6.616   6.879  0.1765  0.2344 -0.4924
  346HK4     H829042   3.238   6.724   6.870 -0.9706  0.0256 -1.3353
  346HK4     N129043   3.475   6.633   7.000  0.3691 -0.1159 -0.3743
  346HK4    C2129044   3.570   6.531   7.019  0.0966 -0.3476 -0.2450
  346HK4    C2229045   3.526   6.403   6.967 -0.1870 -0.2937 -0.1374
  346HK4    C2629046   3.597   6.287   6.995 -0.1771 -0.2057  0.2020
  346HK4    H1329047   3.546   6.191   6.985 -0.8279  0.1675 -0.0871
  346HK4    C2529048   3.710   6.298   7.075  0.1270 -0.3054 -0.2106
  346HK4    H1229049   3.780   6.215   7.079 -1.2960 -1.5611 -0.7215
  346HK4    C2429050   3.755   6.418   7.131  0.0724 -0.3640 -0.0387
  346HK4    H1129051   3.835   6.418   7.206  0.8101  1.0523 -0.7996
  346HK4    C2329052   3.684   6.533   7.099  0.2841 -0.3638 -0.5132
  346HK4    H1029053   3.719   6.632   7.127 -0.1339 -0.2280 -0.4743
  346HK4    C3929054   3.508   6.766   6.974 -0.0391  0.0516 -0.0568
  346HK4    C4129055   3.563   6.840   7.081  0.2771 -0.2232 -0.0253
  346HK4    H2129056   3.571   6.796   7.181 -2.4273  1.6338  1.0642
  346HK4    C4229057   3.619   6.965   7.055 -0.5750  0.1147 -0.2546
  346HK4    H2229058   3.644   7.029   7.140  2.0912  0.6717 -1.4049
  346HK4    C4329059   3.625   7.013   6.924 -0.7463  0.5467 -0.1048
  346HK4    H2329060   3.683   7.103   6.904  0.2642 -0.0462  0.1238
  346HK4    C4429061   3.566   6.947   6.817  0.0322  0.0661 -0.2435
  346HK4    H2429062   3.571   6.987   6.715 -1.3908  0.3996 -0.1860
  346HK4    C4529063   3.508   6.824   6.846 -0.1144  0.1954  0.0099
  346HK4    H2529064   3.458   6.776   6.761 -0.4203  0.7637 -0.1372
  347HK4    H2829065  11.111   7.717   4.433 -1.4004  1.9031  0.4064
  347HK4    C4829066  11.106   7.655   4.523 -0.0654  0.4379 -0.4836
  347HK4    C4729067  10.997   7.672   4.608  0.1663 -0.1484 -0.0760
  347HK4    H2729068  10.925   7.754   4.598 -1.9049 -2.0767 -1.5690
  347HK4    C4629069  10.983   7.590   4.720 -0.0781  0.4683  0.3451
  347HK4    H2629070  10.908   7.623   4.794 -0.0397 -0.5511  0.8412
  347HK4    C4029071  11.071   7.484   4.748 -0.1287  0.1659 -0.6443
  347HK4    C5029072  11.179   7.470   4.658  0.3421  0.3053 -0.1055
  347HK4    H3029073   0.018   7.408   4.683  0.0165  0.1480  0.6461
  347HK4    C4929074  11.200   7.557   4.551 -0.6475 -0.1872 -0.7110
  347HK4    H2929075   0.033   7.536   4.480 -0.9545 -1.4188 -0.7048
  347HK4     N229076  11.020   7.366   4.803 -0.1241  0.5352  0.1550
  347HK4    C3029077  11.095   7.268   4.872 -0.2926  0.5559  0.3677
  347HK4    C2929078  11.216   7.282   4.939 -0.1848 -0.0103  0.2943
  347HK4    H1529079   0.010   7.383   4.940 -0.8192  0.2557  0.7095
  347HK4    C2829080   0.046   7.174   4.977  0.2330  0.0901 -0.2536
  347HK4    C2729081  11.246   7.042   4.958 -0.4710  0.2367  0.4738
  347HK4    H1429082   0.032   6.962   5.025 -0.6943 -1.0621 -0.9282
  347HK4    C3229083  11.122   7.022   4.899 -0.1868 -0.0239 -0.0369
  347HK4    H1629084  11.096   6.920   4.869 -0.3033 -0.3676  1.1745
  347HK4    C3129085  11.046   7.132   4.860  0.2977  0.3644  0.1162
  347HK4    C3429086  10.928   7.146   4.778  0.4873  0.2703 -0.1741
  347HK4    C3329087  10.913   7.288   4.753 -0.1515  0.3281  0.5250
  347HK4    C3529088  10.804   7.335   4.681 -0.0341  0.2468  0.2899
  347HK4    H1729089  10.779   7.441   4.674 -0.4560  0.0651 -1.0838
  347HK4    C3629090  10.713   7.245   4.628  0.3775  0.0820 -0.1397
  347HK4    H1829091  10.619   7.279   4.583  0.4891 -0.7950 -1.0461
  347HK4    C3729092  10.722   7.110   4.659  0.1790  0.2976  0.8789
  347HK4    H1929093  10.653   7.039   4.613  0.5900  0.0898  0.5861
  347HK4    C3829094  10.829   7.060   4.733  0.6236 -0.0001  0.0390
  347HK4    H2029095  10.833   6.956   4.767  2.3492 -0.5006 -1.5882
  347HK4    C1429096   0.173   7.194   5.048  0.2855 -0.2871 -0.2389
  347HK4     C929097   0.233   7.121   5.151  0.2525  0.5342  0.3703
  347HK4     C829098   0.373   7.108   5.166  0.2007 -0.2074  0.2550
  347HK4    C1129099   0.445   7.206   5.098 -0.4052 -0.4324 -0.7240
  347HK4     H429100   0.549   7.212   5.135 -1.0349 -0.9683  1.1802
  347HK4    C1229101   0.390   7.293   5.004 -0.0155  0.4933 -0.0974
  347HK4     H529102   0.448   7.368   4.949 -0.3235 -0.0332 -1.1361
  347HK4    C1329103   0.253   7.286   4.979 -0.0210  0.1707  0.0083
  347HK4     H629104   0.219   7.340   4.889 -1.0381 -1.4218 -0.5743
  347HK4     C729105   0.423   6.999   5.251  0.0629  0.1419  0.7848
  347HK4     O229106   0.540   6.997   5.289  0.1642  0.1293  0.4688
  347HK4     C429107   0.329   6.911   5.325 -0.1298 -0.4543 -0.1659
  347HK4     C329108   0.380   6.797   5.385  0.3252 -0.0315  0.2553
  347HK4     H329109   0.477   6.760   5.350  0.4812  0.0182  0.6359
  347HK4     C229110   0.303   6.725   5.476 -0.2472  0.2021 -0.0423
  347HK4     H229111   0.356   6.655   5.541  0.8171 -0.0012 -1.1085
  347HK4     C129112   0.174   6.769   5.502 -0.4952  0.0205 -0.9460
  347HK4     H129113   0.117   6.718   5.581 -0.4408  2.3555  0.6404
  347HK4     C629114   0.114   6.882   5.441 -0.4647  0.0735 -0.8775
  347HK4     C529115   0.197   6.952   5.354  0.2927  0.5952  0.2584
  347HK4    C1029116   0.152   7.059   5.261 -0.0812  0.1225 -0.1049
  347HK4     O129117   0.048   7.121   5.284  0.0592  0.1096  0.5658
  347HK4    C1629118  11.221   6.910   5.473 -0.2604 -0.2689  0.3787
  347HK4    C1529119  11.171   6.906   5.605  0.1707  1.1067  0.5889
  347HK4     H729120  11.244   6.935   5.682  0.9869 -1.2885  0.7661
  347HK4    C2029121  11.045   6.863   5.642  0.1454  0.1835 -0.5333
  347HK4     H929122  11.022   6.861   5.748 -0.3241 -1.1613 -0.6475
  347HK4    C1929123  10.955   6.838   5.539 -0.4774  0.0807  0.0349
  347HK4    C1829124  10.994   6.848   5.400 -0.0085 -0.5186  0.1216
  347HK4    C1729125  11.126   6.884   5.374 -0.2432  0.3839  0.1934
  347HK4     H829126  11.140   6.923   5.273  2.2738  1.0255  0.7507
  347HK4     N129127  10.890   6.829   5.307  0.1355  0.2126 -0.1961
  347HK4    C2129128  10.780   6.799   5.390  0.3366 -0.0314 -0.0210
  347HK4    C2229129  10.818   6.792   5.530 -0.2303 -0.6857  0.1000
  347HK4    C2629130  10.733   6.753   5.634 -0.3613  0.6865  0.5125
  347HK4    H1329131  10.766   6.765   5.737  0.7814  0.3033  0.2010
  347HK4    C2529132  10.603   6.718   5.601  0.0606 -0.2965 -0.1324
  347HK4    H1229133  10.534   6.668   5.670 -0.9889 -0.6485 -1.4149
  347HK4    C2429134  10.567   6.722   5.467  0.1312  0.5662 -0.1256
  347HK4    H1129135  10.466   6.694   5.434  0.4684 -1.5033  0.4789
  347HK4    C2329136  10.651   6.756   5.361  0.3059  0.1392 -0.1281
  347HK4    H1029137  10.617   6.737   5.260  1.9605  0.0998 -0.6891
  347HK4    C3929138  10.906   6.825   5.168 -0.1449  0.6287 -0.2408
  347HK4    C4129139  10.792   6.849   5.089 -0.8213 -0.3020  0.4458
  347HK4    H2129140  10.725   6.929   5.124 -1.7871 -1.2145  0.7129
  347HK4    C4229141  10.780   6.800   4.960  0.4305 -0.3225  0.3373
  347HK4    H2229142  10.694   6.841   4.906  0.1968 -1.2327  0.0034
  347HK4    C4329143  10.883   6.722   4.908  0.3097 -0.4888  0.3466
  347HK4    H2329144  10.878   6.684   4.806  0.1337 -0.0988  0.2111
  347HK4    C4429145  11.000   6.697   4.980  0.6960  0.3739  0.0325
  347HK4    H2429146  11.060   6.606   4.962 -0.0139 -0.5272  2.1515
  347HK4    C4529147  11.010   6.752   5.107 -0.1501  0.3189  0.1259
  347HK4    H2529148  11.092   6.726   5.175 -0.3423  0.0645  0.2619
  348HK4    H2829149   1.957   8.691   6.220 -2.7439  1.1625 -0.7683
  348HK4    C4829150   1.961   8.725   6.323  0.2152  0.2118 -0.5241
  348HK4    C4729151   2.015   8.852   6.341  0.1634  0.1459  0.1413
  348HK4    H2729152   2.062   8.913   6.262 -0.4501 -0.7099 -0.9045
  348HK4    C4629153   1.998   8.916   6.463 -0.1121  0.4085 -0.0347
  348HK4    H2629154   2.037   9.018   6.476  0.2413  0.4491 -1.3270
  348HK4    C4029155   1.937   8.848   6.571 -0.2873  0.6111 -0.0092
  348HK4    C5029156   1.891   8.716   6.551  0.5653  0.2717  0.2432
  348HK4    H3029157   1.824   8.678   6.629  1.6288 -1.3201  0.4126
  348HK4    C4929158   1.896   8.657   6.425  0.3536  0.8244 -0.0268
  348HK4    H2929159   1.864   8.552   6.412 -0.7566  1.0872  0.4511
  348HK4     N229160   1.979   8.893   6.696  0.3989  0.3338 -0.1397
  348HK4    C3029161   2.090   8.972   6.732  0.5648 -0.0034  0.1127
  348HK4    C2929162   2.215   8.997   6.676  0.4022  0.0364 -0.2338
  348HK4    H1529163   2.241   8.936   6.590  1.2409 -0.9098  0.6803
  348HK4    C2829164   2.310   9.081   6.734  0.2078  0.0552  0.0614
  348HK4    C2729165   2.277   9.150   6.852  0.1339  0.5279 -0.2357
  348HK4    H1429166   2.342   9.231   6.888 -0.7235  1.7342 -1.3385
  348HK4    C3229167   2.157   9.127   6.918  0.3887 -0.1192  0.0064
  348HK4    H1629168   2.118   9.188   7.000  0.7730  0.0477  0.0668
  348HK4    C3129169   2.072   9.032   6.863  0.0452  0.2225 -0.0598
  348HK4    C3429170   1.947   8.977   6.909  0.1275 -0.4948 -0.6797
  348HK4    C3329171   1.888   8.897   6.804 -0.2004 -0.3426 -0.6136
  348HK4    C3529172   1.757   8.852   6.817 -0.3741  0.0335 -1.0456
  348HK4    H1729173   1.697   8.822   6.731 -0.7595  0.4995 -0.9478
  348HK4    C3629174   1.685   8.875   6.934  0.7742  0.0440 -0.3337
  348HK4    H1829175   1.586   8.828   6.944  1.4301 -1.0286  1.3228
  348HK4    C3729176   1.742   8.945   7.040  0.1783  0.2594 -0.1597
  348HK4    H1929177   1.693   8.951   7.137  0.7893  0.1117  0.1591
  348HK4    C3829178   1.871   8.994   7.025  0.3682 -0.3509 -0.5421
  348HK4    H2029179   1.919   9.053   7.103  0.0718  0.7141 -1.1459
  348HK4    C1429180   2.437   9.096   6.661 -0.0080 -0.2947 -0.3892
  348HK4     C929181   2.562   9.116   6.720 -0.1877  0.0865 -0.1367
  348HK4     C829182   2.654   9.203   6.656 -0.0744  0.1166  0.0662
  348HK4    C1129183   2.611   9.263   6.538  0.2867  0.0013 -0.1261
  348HK4     H429184   2.663   9.353   6.502 -1.7338  0.9121 -0.8770
  348HK4    C1229185   2.498   9.227   6.466  0.0050  0.5356  0.0468
  348HK4     H529186   2.495   9.241   6.357  0.8850 -1.3729 -0.2363
  348HK4    C1329187   2.412   9.137   6.528  0.2926 -0.0267 -0.3669
  348HK4     H629188   2.334   9.098   6.461  0.1239 -0.4583  0.0800
  348HK4     C729189   2.794   9.216   6.701 -0.1918  0.2198  0.3964
  348HK4     O229190   2.873   9.299   6.659  0.0517 -0.2277 -0.0363
  348HK4     C429191   2.838   9.128   6.812  0.0630 -0.0695  0.0693
  348HK4     C329192   2.964   9.145   6.869 -0.0213  0.0651  0.2189
  348HK4     H329193   3.027   9.224   6.825 -2.0493  0.5096 -1.9996
  348HK4     C229194   3.011   9.056   6.965  0.4038 -0.0999 -0.1381
  348HK4     H229195   3.092   9.090   7.032  1.0800 -0.0747 -0.9617
  348HK4     C129196   2.935   8.942   6.982  0.1216  0.0201 -0.5915
  348HK4     H129197   2.955   8.879   7.071  1.2131  2.5302  0.9794
  348HK4     C629198   2.820   8.906   6.908 -0.4790  0.2087  0.2309
  348HK4     C529199   2.760   9.016   6.846 -0.2306 -0.0111 -0.4158
  348HK4    C1029200   2.613   9.024   6.825 -0.2599 -0.0728 -0.2384
  348HK4     O129201   2.542   9.000   6.922 -0.0569  0.2755 -0.0039
  348HK4    C1629202   2.813   8.772   6.848 -0.1121  0.0178  0.6164
  348HK4    C1529203   2.901   8.666   6.878  0.2078  0.0761 -0.1061
  348HK4     H729204   2.980   8.687   6.951 -2.6246  2.8729  2.2987
  348HK4    C2029205   2.886   8.538   6.825 -0.0490  0.0459  0.0398
  348HK4     H929206   2.967   8.466   6.829 -0.5039 -0.4112  1.1784
  348HK4    C1929207   2.777   8.504   6.746 -0.1126 -0.0474  0.1672
  348HK4    C1829208   2.684   8.611   6.719  0.3322  0.2451 -0.2220
  348HK4    C1729209   2.711   8.742   6.759  0.3279  0.1617  0.0609
  348HK4     H829210   2.664   8.815   6.692  1.1499 -0.3885 -1.1370
  348HK4     N129211   2.570   8.561   6.653  0.1690  0.5084 -0.1417
  348HK4    C2129212   2.594   8.424   6.630 -0.0942  0.3319  0.5938
  348HK4    C2229213   2.725   8.385   6.680 -0.0561 -0.0791  0.1807
  348HK4    C2629214   2.784   8.265   6.643  0.1888  0.0708  0.0826
  348HK4    H1329215   2.891   8.250   6.661  0.3965 -0.0845 -1.2504
  348HK4    C2529216   2.718   8.179   6.556  0.2453 -0.2448  0.3482
  348HK4    H1229217   2.753   8.082   6.522 -1.5856 -0.4592 -0.9950
  348HK4    C2429218   2.588   8.209   6.517  0.7396  0.8669 -0.4851
  348HK4    H1129219   2.537   8.146   6.442  1.1177  2.0976 -1.8103
  348HK4    C2329220   2.530   8.331   6.549  0.2264  0.4494  0.2090
  348HK4    H1029221   2.429   8.352   6.514  0.5675  1.2779 -0.3082
  348HK4    C3929222   2.444   8.618   6.675 -0.0552  0.0497 -0.2235
  348HK4    C4129223   2.338   8.582   6.589  0.1129  0.0750 -0.4404
  348HK4    H2129224   2.352   8.541   6.487  1.5214  0.7047 -0.5095
  348HK4    C4229225   2.206   8.578   6.632  0.3674  1.1856  0.4496
  348HK4    H2229226   2.125   8.542   6.567  1.7922 -0.0769 -0.6548
  348HK4    C4329227   2.174   8.615   6.762 -0.4886  0.1598  0.5364
  348HK4    H2329228   2.071   8.596   6.792 -0.3972 -0.8093  0.2578
  348HK4    C4429229   2.276   8.654   6.848 -0.1393 -0.3557  0.3644
  348HK4    H2429230   2.258   8.689   6.951  1.4270 -0.2595  0.6222
  348HK4    C4529231   2.408   8.662   6.803 -0.2585 -0.6435 -0.0396
  348HK4    H2529232   2.486   8.713   6.862 -1.0764 -1.8073  2.1341
  349HK4    H2829233   1.008   6.131   6.610  0.4431 -0.7242 -0.1464
  349HK4    C4829234   1.062   6.207   6.554 -0.0679 -0.4593 -0.2753
  349HK4    C4729235   1.196   6.235   6.577 -0.3245  0.5340  0.0309
  349HK4    H2729236   1.248   6.186   6.660 -1.7301  0.1197  0.6872
  349HK4    C4629237   1.270   6.306   6.483  0.0552  0.3694  0.2065
  349HK4    H2629238   1.375   6.327   6.509  0.2034 -0.0182 -0.0617
  349HK4    C4029239   1.209   6.359   6.368  0.0315 -0.1937 -0.0472
  349HK4    C5029240   1.071   6.338   6.347  0.0290  0.0412 -0.2753
  349HK4    H3029241   1.022   6.395   6.268 -0.1101  0.8546  0.3896
  349HK4    C4929242   1.002   6.262   6.441  0.1092  0.3246  0.0127
  349HK4    H2929243   0.893   6.265   6.427  0.4789  0.5976 -3.1353
  349HK4     N229244   1.285   6.445   6.287 -0.4640  0.3031  0.0128
  349HK4    C3029245   1.273   6.474   6.150 -0.3174  0.2580 -0.0095
  349HK4    C2929246   1.200   6.408   6.051  0.1311  0.1170 -0.2512
  349HK4    H1529247   1.119   6.346   6.092  2.2103 -2.7461 -0.3142
  349HK4    C2829248   1.212   6.440   5.917  0.6312  0.2252 -0.1812
  349HK4    C2729249   1.296   6.547   5.883  0.5670  0.5939  0.8024
  349HK4    H1429250   1.284   6.588   5.781 -0.1774 -0.1209  0.6007
  349HK4    C3229251   1.374   6.617   5.974  0.7023  0.8256  0.5087
  349HK4    H1629252   1.454   6.685   5.944 -0.7587  0.8150 -3.7616
  349HK4    C3129253   1.355   6.586   6.108 -0.3394  0.3733  0.2577
  349HK4    C3429254   1.416   6.632   6.231  0.1862  0.5646 -0.0778
  349HK4    C3329255   1.364   6.550   6.339  0.6794 -0.3012 -0.4900
  349HK4    C3529256   1.363   6.602   6.467  0.3520  0.2008 -0.6945
  349HK4    H1729257   1.312   6.553   6.550 -0.0587  2.1567  0.2401
  349HK4    C3629258   1.422   6.726   6.490  0.7021 -0.1648  0.4301
  349HK4    H1829259   1.422   6.770   6.591  0.5806 -0.7512  0.6840
  349HK4    C3729260   1.474   6.805   6.388 -0.5256  0.4543  0.2827
  349HK4    H1929261   1.523   6.903   6.394  1.2987 -0.4584  0.5801
  349HK4    C3829262   1.466   6.759   6.257  0.1917  0.5012  0.2213
  349HK4    H2029263   1.497   6.813   6.167 -1.9219  1.3327 -0.0329
  349HK4    C1429264   1.163   6.348   5.813  0.0061  0.1746  0.1538
  349HK4     C929265   1.233   6.329   5.693  0.0564  0.1316  0.1915
  349HK4     C829266   1.161   6.305   5.574  0.0808  0.0842  0.1859
  349HK4    C1129267   1.022   6.295   5.576  0.0286  0.7292  0.0548
  349HK4     H429268   0.963   6.280   5.485 -2.0174  1.3121  1.2529
  349HK4    C1229269   0.954   6.303   5.697 -0.0166 -0.4569  0.1126
  349HK4     H529270   0.845   6.292   5.709 -0.0804  1.6596  1.7934
  349HK4    C1329271   1.023   6.332   5.814  0.0746 -0.4341  0.0533
  349HK4     H629272   0.961   6.350   5.904  0.0124 -0.6891  0.0611
  349HK4     C729273   1.236   6.309   5.447 -0.2330 -0.6297 -0.0215
  349HK4     O229274   1.177   6.306   5.338 -0.2552 -0.1329 -0.0203
  349HK4     C429275   1.384   6.309   5.446 -0.2330  0.6362 -0.4878
  349HK4     C329276   1.452   6.324   5.326  0.0108  0.1617 -0.4102
  349HK4     H329277   1.416   6.281   5.231 -0.0974  0.1640 -0.3712
  349HK4     C229278   1.581   6.374   5.327 -0.1334  0.5264 -0.0875
  349HK4     H229279   1.627   6.409   5.234  1.3989  0.6067  0.6738
  349HK4     C129280   1.651   6.409   5.442  0.0697 -0.7107  0.1702
  349HK4     H129281   1.760   6.411   5.430  0.3239 -0.7386  2.1663
  349HK4     C629282   1.580   6.404   5.564 -0.1979  0.1574  0.0544
  349HK4     C529283   1.453   6.346   5.564 -0.2717  0.3191 -0.3659
  349HK4    C1029284   1.381   6.341   5.694  0.0978 -0.3386 -0.1842
  349HK4     O129285   1.440   6.284   5.786  0.1387 -0.5720 -0.3545
  349HK4    C1629286   1.609   6.517   5.654 -0.0268  0.1322  0.0292
  349HK4    C1529287   1.591   6.652   5.615 -0.5816 -0.0545 -0.3715
  349HK4     H729288   1.541   6.674   5.520  0.1131  0.4799 -0.6151
  349HK4    C2029289   1.622   6.753   5.705 -0.5881 -0.4780  0.1076
  349HK4     H929290   1.605   6.858   5.680  3.6401  1.1557  3.4336
  349HK4    C1929291   1.674   6.724   5.831  0.5623 -0.0415 -0.2612
  349HK4    C1829292   1.706   6.589   5.874  0.0135 -0.2404 -0.4703
  349HK4    C1729293   1.671   6.497   5.776 -0.4575 -0.6894  0.1154
  349HK4     H829294   1.707   6.396   5.795 -0.5763 -0.4990  1.4151
  349HK4     N129295   1.766   6.582   6.002  0.0577 -0.2377 -0.4911
  349HK4    C2129296   1.767   6.716   6.048  0.0635 -0.2864 -0.3485
  349HK4    C2229297   1.726   6.804   5.940 -0.3244  0.0620  0.0865
  349HK4    C2629298   1.733   6.942   5.954  0.5431  0.0634 -0.3554
  349HK4    H1329299   1.699   7.005   5.872 -1.2427  0.0100  0.3272
  349HK4    C2529300   1.763   6.998   6.078 -0.3304  0.1039 -0.1595
  349HK4    H1229301   1.801   7.099   6.087 -2.8380  1.2592 -1.7745
  349HK4    C2429302   1.788   6.911   6.183  0.0361  0.3806 -0.0192
  349HK4    H1129303   1.783   6.955   6.284  2.3723 -0.8027  0.6386
  349HK4    C2329304   1.795   6.773   6.171 -0.0934  0.4277 -0.6428
  349HK4    H1029305   1.834   6.717   6.256 -1.1410  0.5036 -0.0967
  349HK4    C3929306   1.767   6.470   6.085 -0.2129  0.5132  0.5344
  349HK4    C4129307   1.856   6.462   6.194  0.2360  0.1466  0.1448
  349HK4    H2129308   1.943   6.529   6.202  1.6817 -1.4630 -1.6190
  349HK4    C4229309   1.832   6.371   6.296  0.4304  0.4318  0.4488
  349HK4    H2229310   1.919   6.348   6.360  1.9422  0.0703 -1.6568
  349HK4    C4329311   1.721   6.287   6.293  0.5168  0.3411 -0.1700
  349HK4    H2329312   1.690   6.223   6.375  1.1835  1.4327  0.9661
  349HK4    C4429313   1.640   6.285   6.180  0.2179  0.2227  0.0487
  349HK4    H2429314   1.572   6.198   6.172  0.8641 -0.4478  1.6905
  349HK4    C4529315   1.661   6.377   6.078  0.0908  0.2059  0.0049
  349HK4    H2529316   1.583   6.388   6.002  0.0848  1.8630  0.2427
  350HK4    H2829317   3.884   0.998   8.571  0.4953 -0.3483 -1.7078
  350HK4    C4829318   3.819   0.911   8.558  0.4701 -0.5093 -0.5109
  350HK4    C4729319   3.749   0.909   8.438  0.0165 -0.1882 -0.2536
  350HK4    H2729320   3.758   0.992   8.367 -1.1890 -0.1148 -0.3296
  350HK4    C4629321   3.671   0.796   8.416 -0.0835 -0.1988  0.1495
  350HK4    H2629322   3.647   0.780   8.310  1.6932  0.1231 -0.3179
  350HK4    C4029323   3.646   0.692   8.508  0.2204 -0.3387  0.0705
  350HK4    C5029324   3.719   0.704   8.628 -0.0053 -0.0275  0.1791
  350HK4    H3029325   3.701   0.634   8.711  0.6538  0.9051  1.1254
  350HK4    C4929326   3.807   0.809   8.652  0.1518 -0.0927 -0.1045
  350HK4    H2929327   3.869   0.803   8.742  0.7745 -2.5665 -0.6891
  350HK4     N229328   3.537   0.606   8.491 -0.0727 -0.0311  0.3962
  350HK4    C3029329   3.410   0.642   8.442 -0.0588 -0.3409  0.1341
  350HK4    C2929330   3.341   0.763   8.440  0.3017 -0.1384 -0.1335
  350HK4    H1529331   3.393   0.854   8.471 -2.7814  1.5102  0.4426
  350HK4    C2829332   3.210   0.784   8.397  0.1647 -0.0888  0.3085
  350HK4    C2729333   3.149   0.660   8.367  0.2717 -0.0259 -0.1776
  350HK4    H1429334   3.043   0.673   8.339  0.1280 -0.5942  0.1011
  350HK4    C3229335   3.205   0.533   8.368 -0.1455 -0.2071  0.1576
  350HK4    H1629336   3.149   0.441   8.355 -1.0083  0.0816  1.6383
  350HK4    C3129337   3.339   0.522   8.403  0.0626 -0.1702 -0.6261
  350HK4    C3429338   3.419   0.411   8.452 -0.3420 -0.1028  0.2040
  350HK4    C3329339   3.548   0.466   8.492 -0.2015 -0.0463 -0.3189
  350HK4    C3529340   3.655   0.382   8.519 -0.1070  0.0638 -0.3525
  350HK4    H1729341   3.755   0.419   8.542 -0.0403 -1.8679  2.7214
  350HK4    C3629342   3.627   0.246   8.516 -0.0520  0.0463 -0.1154
  350HK4    H1829343   3.709   0.175   8.532  0.0875  0.8770  3.2486
  350HK4    C3729344   3.505   0.189   8.483 -0.0701 -0.2592  0.4802
  350HK4    H1929345   3.475   0.087   8.510 -0.2193  0.0749  1.6025
  350HK4    C3829346   3.399   0.274   8.452  0.2753 -0.1985 -0.5484
  350HK4    H2029347   3.298   0.235   8.458  0.1297  0.2471 -0.0137
  350HK4    C1429348   3.145   0.911   8.432 -0.1202 -0.2163  0.2377
  350HK4     C929349   3.006   0.925   8.447 -0.1657 -0.2712 -0.1289
  350HK4     C829350   2.940   1.036   8.389  0.2289  0.1448  0.2096
  350HK4    C1129351   3.010   1.133   8.319 -0.1829  0.1281 -0.2217
  350HK4     H429352   2.955   1.216   8.272 -1.6384 -0.8052 -0.1930
  350HK4    C1229353   3.149   1.127   8.311 -0.1824 -0.1930  0.0052
  350HK4     H529354   3.212   1.214   8.288  1.3234 -1.5014 -0.8464
  350HK4    C1329355   3.211   1.023   8.379 -0.2629 -0.2491 -0.0070
  350HK4     H629356   3.321   1.021   8.387 -0.4190 -1.6800  2.0352
  350HK4     C729357   2.800   1.061   8.430 -0.1315 -0.4278 -0.6568
  350HK4     O229358   2.746   1.163   8.387 -0.2885 -0.0792  0.3532
  350HK4     C429359   2.728   0.966   8.517  0.0958 -0.2760 -0.3012
  350HK4     C329360   2.610   1.003   8.580  0.0878  0.1298 -0.5520
  350HK4     H329361   2.564   1.103   8.571  0.0698 -0.0452 -2.5630
  350HK4     C229362   2.546   0.906   8.657  0.1766  0.2393 -0.3413
  350HK4     H229363   2.474   0.947   8.729  0.4954  0.8652 -0.3664
  350HK4     C129364   2.586   0.773   8.655 -0.6628 -0.0296  0.2913
  350HK4     H129365   2.504   0.705   8.682 -1.8936  0.2635 -2.5630
  350HK4     C629366   2.697   0.730   8.579 -0.6321  0.2078  0.1974
  350HK4     C529367   2.778   0.836   8.537 -0.0275 -0.2458  0.2118
  350HK4    C1029368   2.927   0.831   8.530 -0.0431 -0.3188 -0.0664
  350HK4     O129369   2.987   0.764   8.614  0.1217 -0.2128 -0.1024
  350HK4    C1629370   2.714   0.587   8.546  0.2842  0.1952  0.6980
  350HK4    C1529371   2.807   0.555   8.446 -0.3932 -0.1014  0.1587
  350HK4     H729372   2.834   0.632   8.372 -1.7065  0.2919  0.0819
  350HK4    C2029373   2.836   0.425   8.406 -0.0840  0.0465 -0.1019
  350HK4     H929374   2.934   0.409   8.361  0.0407  2.1144 -0.5960
  350HK4    C1929375   2.771   0.322   8.473  0.0226  0.1466  0.1591
  350HK4    C1829376   2.677   0.348   8.580 -0.3490  0.1321 -0.1612
  350HK4    C1729377   2.655   0.481   8.613  0.4064  0.0686  0.6012
  350HK4     H829378   2.594   0.505   8.700  1.1952  0.3049  1.0984
  350HK4     N129379   2.634   0.223   8.629  0.1646 -0.0089 -0.0767
  350HK4    C2129380   2.674   0.123   8.538 -0.0628  0.1501 -0.3462
  350HK4    C2229381   2.770   0.179   8.445 -0.0113  0.2241 -0.2471
  350HK4    C2629382   2.827   0.105   8.342  0.0830  0.3562 -0.2910
  350HK4    H1329383   2.911   0.144   8.284  1.4398 -2.3961 -0.2468
  350HK4    C2529384   2.794  11.218   8.335  0.1786  0.3022  0.3041
  350HK4    H1229385   2.844  11.161   8.258 -0.5625  0.3874 -0.2419
  350HK4    C2429386   2.705  11.157   8.423 -0.0109  0.2165  0.0529
  350HK4    H1129387   2.696  11.048   8.431 -0.3874 -0.0742 -3.6687
  350HK4    C2329388   2.643  11.237   8.519  0.1706 -0.0019  0.3535
  350HK4    H1029389   2.581  11.187   8.594 -0.1083  3.5990  2.6114
  350HK4    C3929390   2.545   0.200   8.734  0.0458  0.1420 -0.1416
  350HK4    C4129391   2.547   0.072   8.794 -0.9259  0.0179 -0.3678
  350HK4    H2129392   2.640   0.016   8.779  1.4464  3.3696  1.0369
  350HK4    C4229393   2.444   0.019   8.871 -0.8121  0.1919 -0.0940
  350HK4    H2229394   2.447  11.163   8.908  0.1676  0.1197 -0.3663
  350HK4    C4329395   2.334   0.100   8.898 -0.6220  0.2381  0.5430
  350HK4    H2329396   2.249   0.052   8.947  0.2884  0.1999  2.1232
  350HK4    C4429397   2.338   0.231   8.854  0.0830  0.2124  0.5190
  350HK4    H2429398   2.242   0.286   8.862 -0.6947 -0.9093 -0.7867
  350HK4    C4529399   2.435   0.282   8.769  0.2723  0.1066  0.6716
  350HK4    H2529400   2.416   0.378   8.718 -0.5572  0.2925  1.3208
  351HK4    H2829401   3.740   2.215   0.151 -0.8908  0.6764 -1.1236
  351HK4    C4829402   3.829   2.245   0.094 -0.3696  0.2767 -0.5284
  351HK4    C4729403   3.873   2.188  11.223 -0.3500 -0.4660 -0.1698
  351HK4    H2729404   3.830   2.097  11.180 -0.2675 -1.1261  1.1230
  351HK4    C4629405   3.986   2.239  11.160  0.1206 -0.1436  0.9085
  351HK4    H2629406   4.012   2.212  11.056 -0.0307  0.9900  0.5643
  351HK4    C4029407   4.066   2.345  11.207  0.2074  0.2396 -0.0872
  351HK4    C5029408   4.013   2.401   0.077 -0.7393 -0.2797 -0.2595
  351HK4    H3029409   4.079   2.470   0.132 -1.6730 -0.4109  1.0437
  351HK4    C4929410   3.903   2.351   0.145 -0.2100 -0.3461  0.5471
  351HK4    H2929411   3.869   2.406   0.234 -1.1988  0.3333 -0.2449
  351HK4     N229412   4.200   2.347  11.167  0.1155 -0.1674 -0.4255
  351HK4    C3029413   4.282   2.249  11.106  0.2767 -0.3821  0.1316
  351HK4    C2929414   4.273   2.111  11.104 -0.1242 -0.3664  0.6690
  351HK4    H1529415   4.184   2.064  11.146 -0.3201 -0.2513  0.3826
  351HK4    C2829416   4.357   2.029  11.030 -0.0386  0.2074  0.1285
  351HK4    C2729417   4.464   2.093  10.964  0.2496 -0.3927  0.0069
  351HK4    H1429418   4.550   2.040  10.919 -1.2068 -1.5986 -1.4404
  351HK4    C3229419   4.480   2.231  10.964 -0.2337 -0.3352 -0.1987
  351HK4    H1629420   4.550   2.278  10.896 -0.1789  0.0124  0.0991
  351HK4    C3129421   4.395   2.311  11.039  0.1003 -0.1827  0.0208
  351HK4    C3429422   4.388   2.452  11.074 -0.0697 -0.0843 -0.4038
  351HK4    C3329423   4.270   2.469  11.157  0.6748 -0.3834  0.7302
  351HK4    C3529424   4.242   2.600  11.194  0.0796 -0.2956 -0.0111
  351HK4    H1729425   4.154   2.627   0.004  1.0648  1.3170  0.7744
  351HK4    C3629426   4.326   2.704  11.156 -0.3937 -0.0712 -0.4479
  351HK4    H1829427   4.289   2.804  11.184 -0.9538 -0.1791 -0.8101
  351HK4    C3729428   4.442   2.687  11.081 -0.2952 -0.3683 -0.2328
  351HK4    H1929429   4.503   2.770  11.044  1.0455 -1.3559 -0.2557
  351HK4    C3829430   4.471   2.558  11.041  0.3677 -0.2966  0.0118
  351HK4    H2029431   4.560   2.541  10.979  1.3072  0.8859  1.0057
  351HK4    C1429432   4.344   1.884  11.052  0.0012  0.1657 -0.1201
  351HK4     C929433   4.456   1.799  11.059  0.2725  0.4906 -0.4736
  351HK4     C829434   4.457   1.671  11.000 -0.0765  0.0057  0.5503
  351HK4    C1129435   4.344   1.623  10.935  0.0819 -0.4888  0.6406
  351HK4     H429436   4.335   1.522  10.893  0.9241  0.3718 -1.6549
  351HK4    C1229437   4.228   1.700  10.939  0.0279 -0.5605  0.4528
  351HK4     H529438   4.139   1.650  10.898 -2.6973  3.4098  1.2121
  351HK4    C1329439   4.230   1.829  10.991  0.1192 -0.4703  0.2291
  351HK4     H629440   4.146   1.885  10.947 -0.8286 -2.5095 -0.6332
  351HK4     C729441   4.584   1.596  10.988 -0.3149 -0.2733 -0.2776
  351HK4     O229442   4.575   1.474  11.003 -0.1303 -0.2564 -0.0175
  351HK4     C429443   4.706   1.674  11.018 -0.4484 -0.3319  0.4373
  351HK4     C329444   4.821   1.612  10.971 -0.2025  0.6181 -0.2134
  351HK4     H329445   4.821   1.509  10.934 -0.2739  0.3303  0.5921
  351HK4     C229446   4.942   1.673  11.003 -0.0699  0.1577  0.1589
  351HK4     H229447   5.039   1.632  10.970 -0.9557 -0.3085 -1.9252
  351HK4     C129448   4.938   1.788  11.080 -0.6780 -0.0377  0.4208
  351HK4     H129449   5.033   1.841  11.097 -0.9032  0.7196 -0.6706
  351HK4     C629450   4.827   1.855  11.135 -0.4591 -0.0822  0.9198
  351HK4     C529451   4.708   1.791  11.097 -0.2216  0.3106 -0.5044
  351HK4    C1029452   4.575   1.847  11.134  0.0102  0.6164 -0.1293
  351HK4     O129453   4.551   1.870   0.004  0.5051  0.5764 -0.0186
  351HK4    C1629454   4.847   1.993  11.181  1.0328 -0.0839  0.2959
  351HK4    C1529455   4.943   2.077  11.121  1.1516 -0.2922  0.1964
  351HK4     H729456   4.950   2.071  11.011 -0.2506  2.2666 -0.0769
  351HK4    C2029457   4.995   2.188  11.186 -0.1089  0.4482 -0.0273
  351HK4     H929458   5.072   2.253  11.144  0.8171 -0.6875 -0.1210
  351HK4    C1929459   4.948   2.217   0.065  0.3428 -0.5317  0.3740
  351HK4    C1829460   4.843   2.142   0.131  0.1484 -0.5734  0.0220
  351HK4    C1729461   4.807   2.027   0.062  0.1049 -0.6435  0.1612
  351HK4     H829462   4.736   1.961   0.113 -0.9101  0.0057 -0.3904
  351HK4     N129463   4.795   2.205   0.248 -0.0136 -0.1913 -0.2502
  351HK4    C2129464   4.866   2.327   0.257 -0.2240 -0.0851  0.0056
  351HK4    C2229465   4.973   2.325   0.159 -0.0514 -0.2850  0.2001
  351HK4    C2629466   5.070   2.425   0.155 -0.3101 -0.0314  0.2667
  351HK4    H1329467   5.159   2.420   0.092 -1.7002 -0.9564 -1.6984
  351HK4    C2529468   5.050   2.537   0.235 -0.4580  0.2138 -0.1135
  351HK4    H1229469   5.125   2.617   0.236 -1.1231  0.8402  0.4107
  351HK4    C2429470   4.941   2.546   0.319 -0.4404  0.1639 -0.0840
  351HK4    H1129471   4.935   2.644   0.370  0.3900 -0.4562  1.2124
  351HK4    C2329472   4.853   2.440   0.336  0.3163 -0.3679  0.4943
  351HK4    H1029473   4.781   2.439   0.418  2.5532 -3.3742  2.5659
  351HK4    C3929474   4.720   2.145   0.350 -0.2055  0.6452  0.1096
  351HK4    C4129475   4.648   2.214   0.449 -0.5051 -0.0638  0.3875
  351HK4    H2129476   4.601   2.311   0.429 -0.1797 -0.1068 -0.6041
  351HK4    C4229477   4.616   2.145   0.566 -0.0675  0.6655  0.9369
  351HK4    H2229478   4.580   2.203   0.652 -0.3543  0.4665  0.9486
  351HK4    C4329479   4.637   2.009   0.588  1.1946  0.7382  0.2604
  351HK4    H2329480   4.613   1.959   0.681  1.4647 -1.8876 -1.0432
  351HK4    C4429481   4.696   1.938   0.484 -0.1776  0.1876 -0.1498
  351HK4    H2429482   4.743   1.842   0.509 -0.3289  0.1626  0.0393
  351HK4    C4529483   4.737   2.006   0.370 -0.1842  0.6488  0.1218
  351HK4    H2529484   4.816   1.955   0.313 -2.0286 -2.0550 -0.1087
  352HK4    H2829485   7.943  10.418   5.172  1.4293 -0.1918  0.1479
  352HK4    C4829486   7.958  10.506   5.234  0.3242  0.1564 -0.0652
  352HK4    C4729487   7.855  10.551   5.316  0.3478  0.2996 -0.1165
  352HK4    H2729488   7.750  10.537   5.287  0.3002 -1.5866  0.9183
  352HK4    C4629489   7.881  10.651   5.409  0.0962 -0.0570  0.3373
  352HK4    H2629490   7.791  10.682   5.465  0.0045 -1.3865  0.9554
  352HK4    C4029491   8.009  10.702   5.435  0.1049  0.1556 -0.1385
  352HK4    C5029492   8.109  10.657   5.346  0.3862  0.4389  0.0353
  352HK4    H3029493   8.215  10.676   5.371  1.1990 -3.2403 -0.3371
  352HK4    C4929494   8.086  10.560   5.250 -0.0409  1.1950 -0.6216
  352HK4    H2929495   8.171  10.516   5.195 -1.2177  0.0258 -1.5488
  352HK4     N229496   8.030  10.830   5.489  0.3504  0.0037  0.1271
  352HK4    C3029497   7.954  10.949   5.482 -0.2868 -0.4179 -0.2087
  352HK4    C2929498   7.875  10.997   5.379 -0.0467  0.1681 -0.1153
  352HK4    H1529499   7.861  10.928   5.295  0.4156  1.4776 -1.2991
  352HK4    C2829500   7.812  11.121   5.378  0.1499  0.2711  0.2561
  352HK4    C2729501   7.832  11.199   5.495 -0.6306  0.1283  0.4876
  352HK4    H1429502   7.774   0.043   5.507  1.1793  1.1672  1.4479
  352HK4    C3229503   7.909  11.159   5.604  0.4560 -0.3895 -0.4524
  352HK4    H1629504   7.935  11.234   5.678  1.0109  0.7642 -1.7815
  352HK4    C3129505   7.974  11.036   5.596  0.0327 -0.6398 -0.0961
  352HK4    C3429506   8.069  10.966   5.680  0.0938  0.1478  0.4961
  352HK4    C3329507   8.092  10.839   5.615  0.0428  0.2572  0.2632
  352HK4    C3529508   8.182  10.751   5.675 -0.1592 -0.0470  0.1214
  352HK4    H1729509   8.170  10.645   5.652  0.9957 -0.9740  3.4659
  352HK4    C3629510   8.227  10.775   5.804 -0.4711 -0.2295  0.2630
  352HK4    H1829511   8.294  10.703   5.853 -0.5216  0.0508  0.7494
  352HK4    C3729512   8.199  10.894   5.870  0.1163  0.1408 -0.1564
  352HK4    H1929513   8.213  10.897   5.978 -1.3890  1.6340  0.0198
  352HK4    C3829514   8.127  10.992   5.804 -0.3239  0.3654  0.6472
  352HK4    H2029515   8.133  11.098   5.830 -1.2204  0.6438 -0.2102
  352HK4    C1429516   7.749  11.173   5.256 -0.1523  0.1242  0.3482
  352HK4     C929517   7.739   0.062   5.227 -0.3848  0.0243 -0.0426
  352HK4     C829518   7.621   0.116   5.173 -0.4054 -0.4181 -0.4463
  352HK4    C1129519   7.530   0.024   5.123 -0.7051  0.1048 -0.8671
  352HK4     H429520   7.426   0.058   5.114 -0.7256  1.0030  2.4664
  352HK4    C1229521   7.557  11.136   5.116  0.1567  0.2610 -0.6024
  352HK4     H529522   7.510  11.069   5.042  0.3721 -2.5503  1.7001
  352HK4    C1329523   7.662  11.084   5.190 -0.2952  0.4113  0.1442
  352HK4     H629524   7.687  10.977   5.180  0.2968  0.4357  1.2461
  352HK4     C729525   7.607   0.263   5.161 -0.2106 -0.3886 -0.3048
  352HK4     O229526   7.506   0.306   5.107 -0.4962 -0.0837  0.4600
  352HK4     C429527   7.712   0.354   5.212 -0.1244 -0.6086 -0.0915
  352HK4     C329528   7.692   0.492   5.212  0.2602 -0.5511 -0.1203
  352HK4     H329529   7.597   0.530   5.173  0.0888 -0.3979  0.4347
  352HK4     C229530   7.788   0.579   5.260 -0.4029  0.2306 -0.2065
  352HK4     H229531   7.795   0.687   5.239  2.8847 -0.0443 -0.8690
  352HK4     C129532   7.904   0.527   5.317 -0.6702  0.1503  0.2623
  352HK4     H129533   7.974   0.600   5.362  1.0141 -0.8596 -0.6915
  352HK4     C629534   7.923   0.388   5.331  0.0716  0.2378  0.1491
  352HK4     C529535   7.831   0.303   5.268  0.3531  0.2674 -0.2983
  352HK4    C1029536   7.851   0.156   5.255 -0.3632  0.2075 -0.7492
  352HK4     O129537   7.955   0.127   5.196  0.0756 -0.6222  0.4118
  352HK4    C1629538   7.992   0.351   5.455 -0.1564  0.0740  0.2292
  352HK4    C1529539   7.970   0.424   5.573  0.1057 -0.0940  0.3826
  352HK4     H729540   7.897   0.506   5.566  1.7283  1.3087 -0.3925
  352HK4    C2029541   8.048   0.411   5.687  0.7202  0.5728  0.0453
  352HK4     H929542   8.026   0.452   5.786  2.0671  1.5725 -0.0449
  352HK4    C1929543   8.156   0.323   5.688 -0.1727 -0.5317  0.1574
  352HK4    C1829544   8.188   0.250   5.566 -0.3018 -0.4487  0.0742
  352HK4    C1729545   8.099   0.261   5.460 -0.3140 -0.1191  0.1166
  352HK4     H829546   8.142   0.241   5.361 -0.4952 -1.5551  0.3268
  352HK4     N129547   8.304   0.172   5.580 -0.1551 -0.2074  0.2028
  352HK4    C2129548   8.350   0.197   5.711 -0.0073 -0.3865  0.1866
  352HK4    C2229549   8.272   0.302   5.773 -0.0045 -0.2680 -0.0098
  352HK4    C2629550   8.328   0.388   5.867  0.2596  0.0913 -0.4886
  352HK4    H1329551   8.276   0.480   5.893 -1.5794 -1.0092 -0.1012
  352HK4    C2529552   8.457   0.367   5.914  0.0805  0.7756  0.3210
  352HK4    H1229553   8.515   0.447   5.960  0.5842 -0.2311  1.4635
  352HK4    C2429554   8.525   0.254   5.869  0.0781  1.0762 -0.4499
  352HK4    H1129555   8.616   0.215   5.918 -1.4763 -0.8632  0.9593
  352HK4    C2329556   8.472   0.171   5.771  0.2654  0.4351 -0.0114
  352HK4    H1029557   8.540   0.095   5.734 -2.6076 -1.0153 -2.4753
  352HK4    C3929558   8.353   0.070   5.497  0.0570  0.1360 -0.0939
  352HK4    C4129559   8.480   0.009   5.506 -0.1223 -0.1929  0.2162
  352HK4    H2129560   8.568   0.072   5.527 -0.9458  0.3578  2.1713
  352HK4    C4229561   8.503  11.124   5.473  0.1043 -0.2987  0.7949
  352HK4    H2229562   8.601  11.080   5.496  0.8917  1.7940  1.5805
  352HK4    C4329563   8.397  11.048   5.425  0.0790  0.0240  0.3432
  352HK4    H2329564   8.402  10.940   5.412 -1.5240  0.0056 -0.2857
  352HK4    C4429565   8.272  11.105   5.401  0.0269 -0.1101  0.2766
  352HK4    H2429566   8.191  11.043   5.361 -0.8925  0.6103  1.0084
  352HK4    C4529567   8.254  11.238   5.438  0.3476  0.1988 -0.6732
  352HK4    H2529568   8.150   0.022   5.418 -1.3782 -2.5239  3.1881
  353HK4    H2829569   9.431   6.155   9.524 -0.6779 -0.1208  0.4160
  353HK4    C4829570   9.535   6.124   9.515 -0.5755  0.3261  0.0396
  353HK4    C4729571   9.608   6.149   9.399 -0.2084 -0.2646  0.1430
  353HK4    H2729572   9.575   6.227   9.329 -2.2913 -1.5800 -0.4053
  353HK4    C4629573   9.739   6.104   9.396  0.0156  0.3862  0.2014
  353HK4    H2629574   9.794   6.123   9.303  1.3845 -3.1312  0.2198
  353HK4    C4029575   9.809   6.043   9.503 -0.2356 -0.0013  0.1468
  353HK4    C5029576   9.737   6.049   9.624  0.0032 -0.1146  0.2946
  353HK4    H3029577   9.789   6.047   9.721 -0.7971  0.5594  0.7420
  353HK4    C4929578   9.600   6.074   9.627  0.0239  0.0903 -0.4098
  353HK4    H2929579   9.537   6.068   9.717  0.9918  1.1970  0.3600
  353HK4     N229580   9.939   5.994   9.494 -0.3229 -0.1477 -0.3313
  353HK4    C3029581  10.022   6.002   9.380  0.3274 -0.5450  0.1066
  353HK4    C2929582   9.993   5.979   9.246 -0.0402  0.4680  0.0110
  353HK4    H1529583   9.888   5.960   9.222 -0.0006 -0.6021  0.6712
  353HK4    C2829584  10.089   6.003   9.149  0.3530 -0.8984  0.0538
  353HK4    C2729585  10.217   6.045   9.191 -0.0582  0.6335 -0.1886
  353HK4    H1429586  10.278   6.108   9.124  0.3583  0.9267  0.4686
  353HK4    C3229587  10.252   6.048   9.325 -0.4994  0.9691 -0.0804
  353HK4    H1629588  10.354   6.065   9.359  0.5774 -1.5933 -1.8768
  353HK4    C3129589  10.159   6.020   9.425  0.1839  0.0484  0.3079
  353HK4    C3429590  10.168   6.013   9.569 -0.1494 -0.4808  0.3049
  353HK4    C3329591  10.030   5.982   9.601 -0.4193  0.1700 -0.2167
  353HK4    C3529592  10.002   5.941   9.731  0.0758  0.8761  0.1177
  353HK4    H1729593   9.905   5.892   9.741 -0.2045  0.7629 -2.6926
  353HK4    C3629594  10.100   5.914   9.826  0.0165 -0.6486 -0.2526
  353HK4    H1829595  10.075   5.907   9.933  1.8243 -2.2305  0.0850
  353HK4    C3729596  10.230   5.952   9.793 -0.0270 -0.3447 -0.0774
  353HK4    H1929597  10.312   5.910   9.852  1.6322  1.9280 -0.7377
  353HK4    C3829598  10.264   6.006   9.670  0.0681  0.0923  0.1364
  353HK4    H2029599  10.367   6.036   9.650  0.3205 -0.6069  0.3648
  353HK4    C1429600  10.065   5.983   9.005  0.2652  1.1600 -0.2381
  353HK4     C929601  10.169   5.957   8.915 -0.0195 -0.0443 -0.2211
  353HK4     C829602  10.162   6.002   8.781 -0.1217  0.8477  0.0825
  353HK4    C1129603  10.048   6.072   8.744 -0.2152  0.6733  0.0344
  353HK4     H429604  10.044   6.138   8.656 -1.0855  0.7514  0.1339
  353HK4    C1229605   9.935   6.080   8.824 -0.2846  0.1746 -0.0112
  353HK4     H529606   9.837   6.101   8.779 -1.1869 -1.0048  1.3851
  353HK4    C1329607   9.945   6.038   8.957 -0.2428  0.2805  0.0216
  353HK4     H629608   9.858   6.035   9.025 -1.2515 -1.8041 -1.3030
  353HK4     C729609  10.269   5.966   8.685 -0.8364 -0.8569 -0.0892
  353HK4     O229610  10.257   6.010   8.571  0.0833 -0.1831  0.0774
  353HK4     C429611  10.381   5.877   8.724 -0.4560 -0.1880  0.3664
  353HK4     C329612  10.463   5.821   8.626 -0.7214 -0.6442  0.3993
  353HK4     H329613  10.460   5.846   8.519 -2.3233  0.3896  0.6699
  353HK4     C229614  10.572   5.744   8.666  0.1165  0.3169  0.0001
  353HK4     H229615  10.656   5.715   8.601 -2.1964 -0.0037 -2.9524
  353HK4     C129616  10.593   5.722   8.802 -0.1550  0.2484  0.0334
  353HK4     H129617  10.685   5.667   8.829 -0.2068  0.2609  0.2297
  353HK4     C629618  10.510   5.771   8.904 -0.4436 -0.2913  0.0583
  353HK4     C529619  10.397   5.841   8.859 -0.1697  0.4412  0.5014
  353HK4    C1029620  10.282   5.866   8.950 -0.0566  0.2599  0.6988
  353HK4     O129621  10.261   5.780   9.035 -0.2332 -0.0436  0.3512
  353HK4    C1629622  10.582   5.816   9.024  0.4674 -0.3815 -0.4517
  353HK4    C1529623  10.708   5.878   9.009  0.6176 -0.6020 -0.1218
  353HK4     H729624  10.746   5.895   8.907 -0.5807  0.0722 -0.4720
  353HK4    C2029625  10.784   5.909   9.121 -0.5000  0.3145  0.3943
  353HK4     H929626  10.878   5.960   9.100 -0.4374 -0.2932 -0.8878
  353HK4    C1929627  10.738   5.892   9.250  0.0708 -0.5778  0.4875
  353HK4    C1829628  10.623   5.805   9.267 -0.4027 -0.1184 -0.3298
  353HK4    C1729629  10.550   5.774   9.152 -0.0771 -0.1842 -0.5213
  353HK4     H829630  10.460   5.716   9.171 -1.7421  2.3442 -0.3318
  353HK4     N129631  10.584   5.805   9.402 -0.6068  0.2173 -0.3879
  353HK4    C2129632  10.670   5.893   9.471 -0.4892 -0.0312 -0.2137
  353HK4    C2229633  10.770   5.947   9.381 -0.1764  0.1482  0.2433
  353HK4    C2629634  10.852   6.053   9.419 -0.0263  0.0110  0.3017
  353HK4    H1329635  10.904   6.122   9.353 -0.2958 -0.3556 -0.2992
  353HK4    C2529636  10.825   6.097   9.548 -0.2475 -0.1668  0.3162
  353HK4    H1229637  10.882   6.185   9.579 -3.2149  2.1847 -0.6308
  353HK4    C2429638  10.745   6.038   9.644  0.1564 -0.2177  0.6203
  353HK4    H1129639  10.713   6.090   9.736 -0.7867  0.7384 -0.2418
  353HK4    C2329640  10.662   5.935   9.603 -0.0829  0.3410 -0.3046
  353HK4    H1029641  10.585   5.894   9.669 -0.0148 -0.9892 -1.0301
  353HK4    C3929642  10.516   5.695   9.456  0.6338  0.0040  0.7522
  353HK4    C4129643  10.420   5.725   9.555  0.0397  0.4147  0.0545
  353HK4    H2129644  10.367   5.821   9.550 -0.2463  0.3924  2.3918
  353HK4    C4229645  10.381   5.632   9.651  0.6741  0.2753  0.1713
  353HK4    H2229646  10.316   5.661   9.734 -2.0758 -2.3630 -0.9987
  353HK4    C4329647  10.439   5.506   9.649  0.4197  0.1476  0.8191
  353HK4    H2329648  10.422   5.435   9.730  2.1448 -0.1326  0.9611
  353HK4    C4429649  10.532   5.477   9.549  0.1515  0.1882  0.5572
  353HK4    H2429650  10.558   5.371   9.536  0.1947  0.2839 -0.1457
  353HK4    C4529651  10.567   5.564   9.447  0.3161 -0.0918  0.3757
  353HK4    H2529652  10.645   5.538   9.374  0.1875 -1.1713  0.6069
  354HK4    H2829653   5.803   1.506   5.669  1.0604  1.2293 -0.3062
  354HK4    C4829654   5.723   1.517   5.596  0.3738  0.0733  0.2754
  354HK4    C4729655   5.749   1.536   5.461 -0.5101 -0.1242  0.0706
  354HK4    H2729656   5.851   1.517   5.425 -0.0838 -0.9152  1.6457
  354HK4    C4629657   5.645   1.536   5.369 -0.0712 -0.6897 -0.4262
  354HK4    H2629658   5.672   1.535   5.263  0.4675  0.2782 -0.2986
  354HK4    C4029659   5.512   1.515   5.413 -0.0203  0.4556  0.2897
  354HK4    C5029660   5.491   1.495   5.551  0.6874 -0.5058  0.2626
  354HK4    H3029661   5.388   1.505   5.588 -0.0153  3.2667 -2.3786
  354HK4    C4929662   5.594   1.494   5.644  0.4507  0.1995  0.5425
  354HK4    H2929663   5.578   1.494   5.753 -1.6853  2.7470  0.2732
  354HK4     N229664   5.409   1.562   5.330  0.0447 -0.1934 -0.1593
  354HK4    C3029665   5.419   1.656   5.226 -0.2883 -0.0279 -0.0415
  354HK4    C2929666   5.510   1.759   5.209 -0.0653 -0.2532 -0.2290
  354HK4    H1529667   5.588   1.773   5.284 -0.0966  0.2101 -0.2771
  354HK4    C2829668   5.505   1.845   5.100 -0.6516  0.3068  0.2358
  354HK4    C2729669   5.406   1.818   5.005 -0.3134  0.7364 -0.2451
  354HK4    H1429670   5.406   1.875   4.911 -4.1672  0.4936 -0.5060
  354HK4    C3229671   5.317   1.710   5.007  0.0436  0.4473  0.0527
  354HK4    H1629672   5.271   1.678   4.914  0.1182  0.4317  0.0208
  354HK4    C3129673   5.318   1.635   5.123 -0.4093  0.3532 -0.0031
  354HK4    C3429674   5.230   1.532   5.176  0.6363 -0.4720  0.1591
  354HK4    C3329675   5.293   1.488   5.299 -0.0648 -0.3358  0.5711
  354HK4    C3529676   5.251   1.373   5.364  0.3581 -0.5204  0.5228
  354HK4    H1729677   5.307   1.330   5.448  1.7351 -0.6594 -0.4480
  354HK4    C3629678   5.136   1.307   5.323  0.1948 -0.1185  0.3338
  354HK4    H1829679   5.091   1.229   5.387 -0.0346 -1.1589 -1.0591
  354HK4    C3729680   5.071   1.348   5.207 -0.0045 -0.6630  0.2507
  354HK4    H1929681   4.998   1.282   5.161 -0.1808 -0.7089  0.6003
  354HK4    C3829682   5.119   1.458   5.137  0.6569 -0.7316  0.5948
  354HK4    H2029683   5.077   1.474   5.038  0.4140  1.4069  1.0259
  354HK4    C1429684   5.566   1.979   5.110  0.5444 -0.1780 -0.4995
  354HK4     C929685   5.517   2.091   5.041 -0.2140  0.0799  0.4517
  354HK4     C829686   5.603   2.193   4.996 -0.4098 -0.0396 -0.2032
  354HK4    C1129687   5.732   2.200   5.049 -0.2736 -0.4873 -0.4741
  354HK4     H429688   5.795   2.287   5.025  1.3028 -1.2379  0.8744
  354HK4    C1229689   5.778   2.101   5.135  0.2359 -0.0622 -0.2555
  354HK4     H529690   5.881   2.113   5.171 -0.8413  1.9416  2.3740
  354HK4    C1329691   5.698   1.990   5.160  0.2471  0.0375  0.2304
  354HK4     H629692   5.746   1.902   5.203 -1.0886 -1.3331 -1.0208
  354HK4     C729693   5.559   2.293   4.897 -0.2812  0.1321 -0.0894
  354HK4     O229694   5.637   2.386   4.878  0.0124 -0.0333  0.2929
  354HK4     C429695   5.421   2.290   4.843 -0.1274 -0.2841 -0.4486
  354HK4     C329696   5.376   2.384   4.751 -0.2262  0.2463  0.1401
  354HK4     H329697   5.444   2.463   4.718  0.5994 -0.6810 -0.4072
  354HK4     C229698   5.246   2.380   4.701 -0.3246  0.3874  0.3874
  354HK4     H229699   5.197   2.465   4.651 -0.5547 -0.1272 -0.2686
  354HK4     C129700   5.164   2.272   4.736 -0.0312 -0.0466 -0.2667
  354HK4     H129701   5.062   2.281   4.696 -0.1587  1.4732  0.3649
  354HK4     C629702   5.206   2.174   4.828 -0.2523  0.2604  0.1620
  354HK4     C529703   5.331   2.192   4.889  0.3385 -0.8396 -0.7197
  354HK4    C1029704   5.375   2.100   4.998 -0.0863 -0.2467 -0.0496
  354HK4     O129705   5.293   2.081   5.088 -1.1960  0.2861 -0.9404
  354HK4    C1629706   5.148   2.042   4.801  0.3668 -0.0223  0.1967
  354HK4    C1529707   5.135   1.998   4.668  0.3782 -0.2705  0.2755
  354HK4     H729708   5.203   2.046   4.595 -0.8380  2.7539  1.0502
  354HK4    C2029709   5.053   1.894   4.627  0.1004  0.1589 -0.2707
  354HK4     H929710   5.051   1.866   4.522  3.1050 -0.7309 -0.1448
  354HK4    C1929711   4.974   1.829   4.722  0.2303  0.2702 -0.0861
  354HK4    C1829712   4.985   1.874   4.859  0.3909  0.0114 -0.0135
  354HK4    C1729713   5.072   1.975   4.896  0.4394 -0.1067  0.1933
  354HK4     H829714   5.066   2.011   4.999 -2.3510 -1.9960  0.7443
  354HK4     N129715   4.933   1.774   4.945  0.2031  0.0011 -0.1377
  354HK4    C2129716   4.875   1.676   4.863  0.4426 -0.0683 -0.2264
  354HK4    C2229717   4.894   1.708   4.723  0.7862 -0.0987 -0.1848
  354HK4    C2629718   4.834   1.633   4.623 -0.3131  0.0670  0.3511
  354HK4    H1329719   4.830   1.669   4.521 -2.2201  1.1826  0.7805
  354HK4    C2529720   4.752   1.528   4.665 -1.0114  0.4335 -0.0972
  354HK4    H1229721   4.684   1.487   4.590  0.8804  1.2450 -2.3473
  354HK4    C2429722   4.732   1.500   4.799 -0.5138  0.3614 -0.0391
  354HK4    H1129723   4.647   1.436   4.827 -0.7607  1.5920  2.1801
  354HK4    C2329724   4.798   1.567   4.902  0.2129  0.0622 -0.3096
  354HK4    H1029725   4.808   1.526   5.003 -0.5834 -0.7895 -0.5703
  354HK4    C3929726   4.874   1.806   5.068 -0.1373  0.3156 -0.3797
  354HK4    C4129727   4.859   1.716   5.176  0.2781 -0.0324 -0.6110
  354HK4    H2129728   4.921   1.627   5.192  1.2708  0.9383  1.1793
  354HK4    C4229729   4.781   1.748   5.287  0.2755 -0.4693 -0.4859
  354HK4    H2229730   4.745   1.668   5.353 -0.5597  0.1875 -0.1389
  354HK4    C4329731   4.716   1.870   5.292 -0.0756 -0.6585 -0.4007
  354HK4    H2329732   4.640   1.895   5.366  0.9005  0.4501  0.2597
  354HK4    C4429733   4.727   1.964   5.190 -0.3122 -0.0813  0.0972
  354HK4    H2429734   4.663   2.053   5.188  1.1678  1.0073 -3.0068
  354HK4    C4529735   4.802   1.927   5.079  0.1618  0.4419  0.2398
  354HK4    H2529736   4.815   1.999   4.997 -1.4591  0.2618 -0.1809
  355HK4    H2829737   9.131   5.723   6.197 -0.9549  0.3658  1.6553
  355HK4    C4829738   9.047   5.769   6.144 -0.1551  0.1792  0.1761
  355HK4    C4729739   9.050   5.831   6.020  0.0550 -0.3937 -0.1078
  355HK4    H2729740   9.139   5.803   5.961  1.3994  0.1174  1.6015
  355HK4    C4629741   8.938   5.895   5.969  0.1740  0.2854  0.4724
  355HK4    H2629742   8.955   5.940   5.870 -0.4357  0.7762  0.5919
  355HK4    C4029743   8.816   5.911   6.038 -0.1421 -0.0661  0.0021
  355HK4    C5029744   8.822   5.851   6.166 -0.3409  0.0905  0.0841
  355HK4    H3029745   8.741   5.858   6.241  1.8319  1.2628  2.3917
  355HK4    C4929746   8.929   5.778   6.216 -0.3274 -0.0111 -0.0851
  355HK4    H2929747   8.914   5.730   6.315 -0.3207 -0.5002 -0.3207
  355HK4     N229748   8.703   5.973   5.986  0.0679  0.3693  0.0735
  355HK4    C3029749   8.714   6.054   5.870 -0.3697  0.3075 -0.0161
  355HK4    C2929750   8.796   6.162   5.842 -0.3810  0.4582  0.5274
  355HK4    H1529751   8.869   6.189   5.919  0.2345 -0.2729  0.1951
  355HK4    C2829752   8.790   6.238   5.726 -0.3608  0.0795  0.2771
  355HK4    C2729753   8.692   6.195   5.635 -0.4783  0.0928  0.3962
  355HK4    H1429754   8.690   6.221   5.528  0.5535 -1.7314 -0.0820
  355HK4    C3229755   8.600   6.093   5.659 -0.1020 -0.4681 -0.5227
  355HK4    H1629756   8.524   6.073   5.584 -2.3874  0.8576  1.3926
  355HK4    C3129757   8.606   6.023   5.779  0.0838 -0.2105 -0.3801
  355HK4    C3429758   8.509   5.945   5.853 -0.0569  0.3478  0.0223
  355HK4    C3329759   8.573   5.918   5.980  0.0462  0.4279 -0.0126
  355HK4    C3529760   8.495   5.907   6.094  0.7812  0.7246  0.5244
  355HK4    H1729761   8.530   5.875   6.192  0.3622 -0.1340  0.3939
  355HK4    C3629762   8.357   5.921   6.091  0.8046  0.7979 -0.1482
  355HK4    H1829763   8.290   5.917   6.178 -0.7864 -0.6775 -1.3856
  355HK4    C3729764   8.294   5.936   5.967  0.4870 -0.4029 -0.1425
  355HK4    H1929765   8.186   5.928   5.966  0.4440 -0.5114  2.1871
  355HK4    C3829766   8.370   5.952   5.852 -0.0657  0.0749 -0.4386
  355HK4    H2029767   8.318   5.996   5.767 -0.1616 -2.1284 -1.5647
  355HK4    C1429768   8.877   6.353   5.696 -0.0398 -0.3736 -0.5522
  355HK4     C929769   8.855   6.443   5.592  0.2991  0.1098 -0.2120
  355HK4     C829770   8.959   6.492   5.511  0.1713  0.5445 -0.1126
  355HK4    C1129771   9.089   6.478   5.559  0.0135 -0.2890  0.0795
  355HK4     H429772   9.178   6.506   5.501  0.4503 -0.4963  0.6439
  355HK4    C1229773   9.116   6.410   5.678  0.2920 -0.4260 -0.0624
  355HK4     H529774   9.219   6.419   5.714  0.1038  3.4648 -0.2395
  355HK4    C1329775   9.011   6.343   5.739 -0.1334  0.1901 -0.1073
  355HK4     H629776   9.031   6.260   5.809 -0.2182  0.6229  0.4272
  355HK4     C729777   8.929   6.513   5.367  0.3516 -0.5450 -0.3132
  355HK4     O229778   9.009   6.572   5.295  0.2015  0.1176  0.0577
  355HK4     C429779   8.790   6.493   5.322  0.0911 -0.2659  0.3464
  355HK4     C329780   8.757   6.476   5.188  0.7270  0.0368  0.1542
  355HK4     H329781   8.825   6.420   5.122 -0.7845  1.2185 -2.5156
  355HK4     C229782   8.631   6.508   5.139  0.7084  0.5509  0.5250
  355HK4     H229783   8.611   6.495   5.032  2.0492  2.6082  0.0149
  355HK4     C129784   8.534   6.552   5.229 -0.1065  0.1623 -0.1504
  355HK4     H129785   8.438   6.582   5.185  1.4665  1.9660 -2.5042
  355HK4     C629786   8.571   6.581   5.362 -0.1750 -0.0299 -0.0889
  355HK4     C529787   8.691   6.533   5.415 -0.1024  0.1850 -0.0490
  355HK4    C1029788   8.720   6.496   5.556  0.0991 -0.4178 -0.2464
  355HK4     O129789   8.628   6.495   5.638 -0.2000  0.0607 -0.5760
  355HK4    C1629790   8.487   6.676   5.438 -0.6895 -0.8581  0.3833
  355HK4    C1529791   8.361   6.715   5.389  0.2111  0.6699 -0.7544
  355HK4     H729792   8.299   6.642   5.335 -2.2154  1.0365  1.4377
  355HK4    C2029793   8.303   6.841   5.404 -0.1418  0.4128  0.0344
  355HK4     H929794   8.200   6.856   5.372 -1.0274  1.0471  3.0529
  355HK4    C1929795   8.367   6.935   5.482  0.0765  0.1420  0.1820
  355HK4    C1829796   8.478   6.888   5.563 -0.0873 -0.6902 -0.0744
  355HK4    C1729797   8.540   6.769   5.527  0.0375 -0.5330 -0.3776
  355HK4     H829798   8.647   6.762   5.548 -0.3500  0.1095  1.8975
  355HK4     N129799   8.525   6.987   5.652  0.1189 -0.5186 -0.3727
  355HK4    C2129800   8.450   7.102   5.621  0.3414 -0.2058  0.2367
  355HK4    C2229801   8.350   7.075   5.519  0.3438  0.1880  0.1279
  355HK4    C2629802   8.259   7.174   5.487  0.3815  0.1325 -0.1635
  355HK4    H1329803   8.179   7.148   5.417 -0.7444  1.9791  0.3885
  355HK4    C2529804   8.257   7.302   5.542 -0.2372  0.2532 -0.4549
  355HK4    H1229805   8.185   7.381   5.519 -0.3684  0.7279  1.4540
  355HK4    C2429806   8.353   7.322   5.641 -0.7281 -0.7301  0.2311
  355HK4    H1129807   8.328   7.400   5.715  1.4749 -1.0313  1.3529
  355HK4    C2329808   8.453   7.231   5.673 -0.1772 -0.1612  0.1557
  355HK4    H1029809   8.514   7.259   5.759 -0.3860 -1.8271  0.8669
  355HK4    C3929810   8.581   6.952   5.775  0.3182 -0.0445 -0.3281
  355HK4    C4129811   8.648   7.045   5.857 -0.6778  0.4340 -0.0409
  355HK4    H2129812   8.695   7.137   5.817 -0.0734 -0.0155 -0.3832
  355HK4    C4229813   8.678   7.032   5.992  0.1282 -0.2383 -0.2795
  355HK4    H2229814   8.729   7.103   6.058  0.8428 -2.1950  1.3238
  355HK4    C4329815   8.637   6.911   6.048 -0.0936 -0.2484 -0.4627
  355HK4    H2329816   8.671   6.897   6.151  1.1893  1.9334 -0.5599
  355HK4    C4429817   8.552   6.823   5.984 -0.2159 -0.5817  0.1517
  355HK4    H2429818   8.502   6.744   6.043 -0.1980  0.7272  1.9508
  355HK4    C4529819   8.529   6.843   5.848  0.8791 -0.0740  0.0358
  355HK4    H2529820   8.482   6.757   5.797 -1.4631  1.5826 -0.7008
  356HK4    H2829821   0.716   1.847   6.762  0.9288 -1.3095  0.0324
  356HK4    C4829822   0.666   1.753   6.737 -0.3232 -0.6637  0.0537
  356HK4    C4729823   0.709   1.690   6.621 -0.0063  0.0945 -0.2488
  356HK4    H2729824   0.781   1.743   6.557  1.8066 -0.8601  0.9612
  356HK4    C4629825   0.666   1.562   6.587  0.3447 -0.1650  0.2698
  356HK4    H2629826   0.703   1.518   6.493 -2.2743 -0.3514 -0.7220
  356HK4    C4029827   0.583   1.488   6.673 -0.2320  0.0374 -0.1087
  356HK4    C5029828   0.548   1.552   6.794 -0.1629  0.0323 -0.0851
  356HK4    H3029829   0.459   1.516   6.848  0.0746  0.3543  0.5129
  356HK4    C4929830   0.589   1.680   6.827 -0.2694 -0.0978  0.5605
  356HK4    H2929831   0.571   1.729   6.923  0.0107 -0.1979  0.6650
  356HK4     N229832   0.507   1.379   6.627 -0.1781 -0.1543  0.2532
  356HK4    C3029833   0.468   1.361   6.493 -0.1477  0.4610  0.1604
  356HK4    C2929834   0.434   1.454   6.395  0.4990  0.2324 -0.2828
  356HK4    H1529835   0.452   1.558   6.420 -1.1693  0.4320  0.1427
  356HK4    C2829836   0.396   1.416   6.266 -0.2841 -0.1760  0.0611
  356HK4    C2729837   0.399   1.279   6.233 -0.1729 -0.1204 -0.1633
  356HK4    H1429838   0.373   1.249   6.130  0.4678 -0.9811 -0.0686
  356HK4    C3229839   0.420   1.185   6.333 -0.1033  0.3532  0.2732
  356HK4    H1629840   0.392   1.081   6.313 -0.2624  0.4115  0.1839
  356HK4    C3129841   0.461   1.220   6.461 -0.0989  0.4386  0.2483
  356HK4    C3429842   0.476   1.151   6.587  0.1090  0.3081  0.1531
  356HK4    C3329843   0.513   1.251   6.686 -0.3144  0.0072  0.6195
  356HK4    C3529844   0.561   1.200   6.805 -0.1272 -0.3687  0.3804
  356HK4    H1729845   0.581   1.270   6.886 -0.8661  0.5634 -0.2347
  356HK4    C3629846   0.569   1.062   6.825 -0.3480 -0.2955  0.9802
  356HK4    H1829847   0.611   1.018   6.917 -0.3940 -0.8076  0.7586
  356HK4    C3729848   0.528   0.968   6.732 -0.1696  0.5581  0.0328
  356HK4    H1929849   0.539   0.860   6.745  2.3750  0.8338  0.3287
  356HK4    C3829850   0.480   1.014   6.609  0.2493  0.2466 -0.2513
  356HK4    H2029851   0.434   0.941   6.543 -0.0950 -0.9916  1.3077
  356HK4    C1429852   0.326   1.509   6.177 -0.6486 -0.0826  0.4454
  356HK4     C929853   0.251   1.468   6.066 -0.1390 -0.2148  0.1493
  356HK4     C829854   0.262   1.536   5.943  0.2321 -0.1717  0.2070
  356HK4    C1129855   0.334   1.655   5.942  0.0732 -0.0740  0.4196
  356HK4     H429856   0.358   1.700   5.844 -1.7633  1.0875  0.4810
  356HK4    C1229857   0.393   1.708   6.056  0.5151 -0.0075  0.1639
  356HK4     H529858   0.432   1.811   6.056 -0.6647  0.4837 -3.3717
  356HK4    C1329859   0.390   1.635   6.175 -0.4517 -0.1893  0.0307
  356HK4     H629860   0.450   1.665   6.261 -0.3555 -1.5616  0.4530
  356HK4     C729861   0.182   1.494   5.826  0.4282 -0.3910  0.1507
  356HK4     O229862   0.190   1.554   5.719 -0.1648  0.3613  0.5231
  356HK4     C429863   0.094   1.377   5.842  0.6772 -0.6050 -0.0482
  356HK4     C329864   0.030   1.331   5.727 -0.5361  0.8100  0.0502
  356HK4     H329865   0.061   1.359   5.625 -1.0036 -0.5346 -0.4680
  356HK4     C229866  11.182   1.231   5.727 -0.2535  0.5380  0.5881
  356HK4     H229867  11.143   1.186   5.635 -0.8061  1.2109  0.4844
  356HK4     C129868  11.151   1.174   5.850  0.0270 -0.7104  0.0844
  356HK4     H129869  11.068   1.103   5.855 -2.1367  1.8407  2.1029
  356HK4     C629870  11.212   1.223   5.968 -0.5017  0.1429  0.0060
  356HK4     C529871   0.061   1.325   5.969 -0.2712 -0.0755 -0.0787
  356HK4    C1029872   0.142   1.368   6.085 -0.4700  0.1129 -0.0079
  356HK4     O129873   0.092   1.351   6.196  0.2907 -0.1863  0.2954
  356HK4    C1629874  11.172   1.137   6.080 -1.0232  0.3087 -0.0504
  356HK4    C1529875  11.173   0.996   6.076  0.0178  0.2981  0.2725
  356HK4     H729876  11.206   0.950   5.981  0.7407 -1.3796  1.3235
  356HK4    C2029877  11.115   0.912   6.170 -0.1728 -0.1951 -0.2820
  356HK4     H929878  11.136   0.805   6.165 -0.9415 -0.2777 -2.1735
  356HK4    C1929879  11.049   0.969   6.278  0.3417  0.2225 -0.1862
  356HK4    C1829880  11.041   1.114   6.281  0.0685  0.1915  0.5481
  356HK4    C1729881  11.095   1.194   6.181 -0.2920  0.3557  0.4814
  356HK4     H829882  11.081   1.302   6.188  0.6681  0.4079  1.9583
  356HK4     N129883  10.965   1.151   6.394  0.1793  0.2317  0.6088
  356HK4    C2129884  10.921   1.030   6.451  0.8347  0.1145  0.8773
  356HK4    C2229885  10.981   0.912   6.392 -0.1913  0.2544 -0.4821
  356HK4    C2629886  10.945   0.783   6.430 -0.0550  0.4006  0.1474
  356HK4    H1329887  11.012   0.702   6.403  0.4429  0.5400  0.9532
  356HK4    C2529888  10.834   0.766   6.513 -0.3611  0.7113 -0.1902
  356HK4    H1229889  10.812   0.662   6.536  3.2082 -0.2321 -0.6406
  356HK4    C2429890  10.771   0.876   6.570 -0.2971  0.3331  0.6252
  356HK4    H1129891  10.707   0.851   6.656 -1.4680 -0.6780 -0.5153
  356HK4    C2329892  10.815   1.004   6.538  0.5046  0.0141  0.4512
  356HK4    H1029893  10.786   1.084   6.606  0.8280  1.1038 -0.6757
  356HK4    C3929894  11.005   1.258   6.475 -0.1062  0.9656 -0.2098
  356HK4    C4129895  10.905   1.352   6.507 -0.5431  0.3226  0.3267
  356HK4    H2129896  10.799   1.324   6.494 -0.2512 -0.0066 -1.4912
  356HK4    C4229897  10.937   1.467   6.577 -0.5462  0.4927  0.0463
  356HK4    H2229898  10.857   1.541   6.595 -0.3659  0.7067 -0.0381
  356HK4    C4329899  11.069   1.492   6.612 -0.3662 -0.2275 -0.1256
  356HK4    H2329900  11.098   1.577   6.673  1.1895  0.9789 -2.4529
  356HK4    C4429901  11.170   1.400   6.582 -0.2963 -0.1453 -0.1392
  356HK4    H2429902   0.022   1.407   6.626  0.0978 -0.4452 -0.9792
  356HK4    C4529903  11.139   1.285   6.511  0.0126 -0.7483  0.7021
  356HK4    H2529904  11.212   1.255   6.434  0.9003  1.0109  0.8437
  357HK4    H2829905   4.011   1.181   5.831  0.5637  0.9998 -3.6813
  357HK4    C4829906   3.922   1.125   5.804 -0.1156 -0.1309  0.5162
  357HK4    C4729907   3.927   1.001   5.742  0.2787 -0.0819  0.4506
  357HK4    H2729908   4.019   0.940   5.749  0.1835 -0.3094 -0.2400
  357HK4    C4629909   3.822   0.950   5.666  0.6052 -0.0576 -0.0190
  357HK4    H2629910   3.830   0.847   5.627 -2.9722 -0.4909  0.2879
  357HK4    C4029911   3.700   1.016   5.644  0.5445 -0.2107 -0.1424
  357HK4    C5029912   3.693   1.135   5.720  0.1779 -0.4299  0.1669
  357HK4    H3029913   3.592   1.177   5.728  0.8857  1.5874 -1.1632
  357HK4    C4929914   3.799   1.190   5.791  0.0400  0.0656 -0.0092
  357HK4    H2929915   3.782   1.284   5.845 -0.8228 -1.6119  2.7302
  357HK4     N229916   3.576   0.964   5.604  0.1417  0.3960  0.3121
  357HK4    C3029917   3.534   0.831   5.626 -0.2658  0.5242  0.3026
  357HK4    C2929918   3.579   0.731   5.711  0.5796 -0.4776 -1.2875
  357HK4    H1529919   3.680   0.738   5.750 -0.7082  1.2635  1.9736
  357HK4    C2829920   3.505   0.614   5.727  0.2888 -0.1764 -0.3940
  357HK4    C2729921   3.392   0.598   5.645 -0.1290 -0.3137  0.2079
  357HK4    H1429922   3.346   0.498   5.644  0.7206 -0.7133 -2.4131
  357HK4    C3229923   3.346   0.687   5.549 -0.2587  0.3127  0.8458
  357HK4    H1629924   3.256   0.676   5.489  0.8041 -1.5535 -0.4360
  357HK4    C3129925   3.422   0.803   5.538  0.3447 -0.1779 -0.2557
  357HK4    C3429926   3.388   0.926   5.470  0.2359 -0.0471  0.0366
  357HK4    C3329927   3.493   1.020   5.505 -0.1102  0.2029  0.4130
  357HK4    C3529928   3.499   1.148   5.452  0.6309  0.0586  0.1396
  357HK4    H1729929   3.582   1.217   5.468  1.1062  0.2876 -2.8826
  357HK4    C3629930   3.395   1.186   5.368  0.3038 -0.1733  0.4359
  357HK4    H1829931   3.384   1.295   5.356 -0.7584 -0.2962  0.2704
  357HK4    C3729932   3.293   1.098   5.335  0.3250 -0.0843  0.1350
  357HK4    H1929933   3.209   1.132   5.274  0.5089 -1.2258 -0.7895
  357HK4    C3829934   3.286   0.970   5.387  0.5130 -0.3392 -0.4593
  357HK4    H2029935   3.196   0.910   5.373 -0.7246  1.3461  0.1640
  357HK4    C1429936   3.586   0.498   5.766  0.3797  0.0888  0.2207
  357HK4     C929937   3.600   0.379   5.693 -0.5223  0.0611  0.0847
  357HK4     C829938   3.614   0.255   5.759 -0.4324 -0.1778 -0.3869
  357HK4    C1129939   3.630   0.259   5.897 -0.1715  0.2466 -0.4252
  357HK4     H429940   3.630   0.162   5.950  1.1638  0.3545 -0.2183
  357HK4    C1229941   3.638   0.376   5.971 -0.0623  0.2238 -0.4028
  357HK4     H529942   3.660   0.379   6.079 -1.8602 -0.8789  0.0042
  357HK4    C1329943   3.614   0.495   5.904  0.2105  0.6547  0.2664
  357HK4     H629944   3.622   0.587   5.965 -2.8004  0.1298  1.5150
  357HK4     C729945   3.630   0.125   5.690 -0.0478 -0.3193 -0.0263
  357HK4     O229946   3.663   0.024   5.752  0.3283  0.0563  0.3868
  357HK4     C429947   3.622   0.121   5.542  0.4070  0.2808 -0.0703
  357HK4     C329948   3.665   0.009   5.471 -0.4298 -0.2330  0.2257
  357HK4     H329949   3.729  11.183   5.523 -1.3901 -0.8840  0.4935
  357HK4     C229950   3.646   0.008   5.334  0.2677  0.3002  0.1184
  357HK4     H229951   3.683  11.175   5.268  1.5014  0.8014  0.2031
  357HK4     C129952   3.569   0.106   5.273  0.4222  0.3905  0.0710
  357HK4     H129953   3.555   0.103   5.164 -1.0279 -1.2569  0.2924
  357HK4     C629954   3.523   0.217   5.347 -0.2992  0.0914  0.0704
  357HK4     C529955   3.567   0.234   5.479 -0.0963  0.0773  0.0058
  357HK4    C1029956   3.577   0.366   5.547  0.6002  0.0813 -0.0993
  357HK4     O129957   3.613   0.461   5.477  0.0120  0.3411 -0.0521
  357HK4    C1629958   3.424   0.306   5.284 -0.5366 -0.3538 -0.1924
  357HK4    C1529959   3.314   0.346   5.362 -0.2473  0.2025 -0.0644
  357HK4     H729960   3.293   0.282   5.449  1.8886  0.3713  0.5983
  357HK4    C2029961   3.246   0.463   5.330 -0.6598 -0.0939 -0.2895
  357HK4     H929962   3.152   0.493   5.376 -0.5936 -1.0006  0.4316
  357HK4    C1929963   3.296   0.547   5.231 -0.1219 -0.0077  0.0502
  357HK4    C1829964   3.417   0.512   5.159  0.2458  0.1800  0.5757
  357HK4    C1729965   3.478   0.390   5.188 -0.3381 -0.2511  0.0059
  357HK4     H829966   3.540   0.345   5.110  0.5567 -1.2107  1.2544
  357HK4     N129967   3.451   0.613   5.066  0.1497 -0.1549  0.1746
  357HK4    C2129968   3.348   0.709   5.074  0.3620  0.0794  0.1140
  357HK4    C2229969   3.245   0.667   5.168 -0.1016 -0.3163 -0.5648
  357HK4    C2629970   3.122   0.732   5.175  0.0332 -0.1215  0.0153
  357HK4    H1329971   3.042   0.691   5.237 -0.6160 -0.2973 -0.9346
  357HK4    C2529972   3.094   0.837   5.088 -0.0630 -0.0735  0.1042
  357HK4    H1229973   2.990   0.863   5.068 -0.1336  0.1395  0.7120
  357HK4    C2429974   3.199   0.885   5.011  0.3487 -0.3075  0.5176
  357HK4    H1129975   3.189   0.983   4.962  1.1835 -0.7858 -0.5993
  357HK4    C2329976   3.324   0.826   5.004  0.5077  0.0812  0.0691
  357HK4    H1029977   3.403   0.878   4.950 -1.6010  2.2124 -1.0522
  357HK4    C3929978   3.583   0.641   5.030  0.0580  0.2891  0.1795
  357HK4    C4129979   3.620   0.701   4.908 -0.5403 -0.2697 -0.2813
  357HK4    H2129980   3.538   0.718   4.836 -0.9365 -0.3875  0.1361
  357HK4    C4229981   3.754   0.712   4.873 -0.5226 -0.8112 -0.3781
  357HK4    H2229982   3.778   0.769   4.782 -1.3253  1.9232  1.0712
  357HK4    C4329983   3.856   0.669   4.956  0.0981 -0.1974 -0.8168
  357HK4    H2329984   3.958   0.676   4.919 -0.2153 -1.3171 -1.9063
  357HK4    C4429985   3.825   0.611   5.079  0.0794  0.4616 -0.5104
  357HK4    H2429986   3.900   0.580   5.153 -1.3514 -0.4553  0.5918
  357HK4    C4529987   3.690   0.601   5.113  0.1990 -0.0988 -0.1884
  357HK4    H2529988   3.667   0.588   5.219 -1.4854 -0.2537 -0.5606
  358HK4    H2829989   6.941   0.726  10.507  0.6270 -0.2473  1.0550
  358HK4    C4829990   7.029   0.788  10.489  0.1435  0.0810 -0.2850
  358HK4    C4729991   7.035   0.872  10.379  0.1476  0.0008 -0.3471
  358HK4    H2729992   6.956   0.859  10.303 -0.5173 -2.7511  0.7658
  358HK4    C4629993   7.138   0.964  10.362 -0.1305  0.3787 -0.0226
  358HK4    H2629994   7.161   1.000  10.261  0.7047  0.2169  0.1095
  358HK4    C4029995   7.237   0.974  10.462 -0.4043  0.5561  0.2269
  358HK4    C5029996   7.232   0.884  10.571  0.2012  0.0389 -0.1684
  358HK4    H3029997   7.332   0.850  10.599  0.1975  0.2526  0.1096
  358HK4    C4929998   7.124   0.798  10.590  0.4659 -0.3783 -0.5408
  358HK4    H2929999   7.134   0.725  10.672  1.3181 -1.6588 -1.7622
  358HK4     N230000   7.344   1.064  10.457  0.0038  0.0456 -0.1921
  358HK4    C3030001   7.379   1.135  10.340  0.6005  0.3309  0.1640
  358HK4    C2930002   7.392   1.082  10.212  0.0578  0.1312  0.1894
  358HK4    H1530003   7.380   0.975  10.198 -1.2009  0.2844  0.0569
  358HK4    C2830004   7.447   1.155  10.108 -0.1185  0.1861  0.1370
  358HK4    C2730005   7.490   1.285  10.142  0.1730  0.0984  0.1019
  358HK4    H1430006   7.479   1.358  10.060 -1.1425  1.6821  1.6514
  358HK4    C3230007   7.492   1.336  10.271  0.6393  0.1908  0.0592
  358HK4    H1630008   7.539   1.431  10.296  1.5793 -0.5286  1.1227
  358HK4    C3130009   7.436   1.264  10.376  0.2917  0.4896  0.0768
  358HK4    C3430010   7.450   1.259  10.520  0.4266 -0.2362  0.0394
  358HK4    C3330011   7.390   1.136  10.569 -0.0670 -0.0522 -0.0991
  358HK4    C3530012   7.408   1.111  10.704 -0.4142  0.0743 -0.0281
  358HK4    H1730013   7.361   1.020  10.740 -0.2092 -0.9341 -2.2694
  358HK4    C3630014   7.466   1.202  10.793  0.2625 -0.1712 -0.2114
  358HK4    H1830015   7.453   1.200  10.902 -1.5123 -1.3051 -0.4044
  358HK4    C3730016   7.506   1.325  10.744 -0.2466  0.0253 -0.1408
  358HK4    H1930017   7.569   1.388  10.806 -0.1116 -0.5926  0.3494
  358HK4    C3830018   7.510   1.349  10.607  0.5450 -0.1325 -0.1500
  358HK4    H2030019   7.567   1.432  10.565 -0.5419 -0.3443 -2.1447
  358HK4    C1430020   7.491   1.082   9.989 -0.0247 -0.1920  0.4056
  358HK4     C930021   7.606   1.110   9.914 -0.1075 -0.2457  0.2533
  358HK4     C830022   7.599   1.107   9.773 -0.0602 -0.1330  0.2522
  358HK4    C1130023   7.491   1.044   9.713  0.1649 -0.2140 -0.0715
  358HK4     H430024   7.491   1.040   9.603 -0.2040 -0.5584 -0.0595
  358HK4    C1230025   7.381   0.999   9.785  0.5068 -0.3839  0.3464
  358HK4     H530026   7.290   0.958   9.738 -0.3193  2.0701 -0.2838
  358HK4    C1330027   7.382   1.022   9.922 -0.3565  0.6362  0.1946
  358HK4     H630028   7.291   1.013   9.983 -0.8860 -0.4104 -0.7386
  358HK4     C730029   7.713   1.150   9.689 -0.1858  0.6236  0.4695
  358HK4     O230030   7.700   1.177   9.570  0.2019 -0.0371  0.2735
  358HK4     C430031   7.839   1.183   9.760  0.2041  0.1755 -0.0177
  358HK4     C330032   7.952   1.227   9.692  0.3969 -0.4653 -0.1190
  358HK4     H330033   7.958   1.238   9.583  0.1806 -1.9868 -0.2986
  358HK4     C230034   8.066   1.280   9.752 -0.0677  0.5419 -0.1236
  358HK4     H230035   8.161   1.272   9.697 -1.4208 -2.4031 -2.1574
  358HK4     C130036   8.060   1.306   9.889  0.0395  0.1990 -0.0539
  358HK4     H130037   8.142   1.361   9.937  0.3021 -1.7820  1.8457
  358HK4     C630038   7.952   1.260   9.967  0.0518 -0.3532 -0.3563
  358HK4     C530039   7.846   1.199   9.900 -0.8710  0.8838 -0.0435
  358HK4    C1030040   7.739   1.131   9.978 -0.0246 -0.3007  0.1029
  358HK4     O130041   7.777   1.042  10.054  0.3811  0.1380  0.4145
  358HK4    C1630042   7.930   1.336  10.091 -0.3717 -0.2328 -0.5076
  358HK4    C1530043   7.970   1.471  10.093 -0.3750 -0.2371  0.1416
  358HK4     H730044   7.934   1.534  10.010 -2.0627 -1.0574  0.2273
  358HK4    C2030045   7.996   1.535  10.214 -0.0710  0.2084 -0.1558
  358HK4     H930046   8.025   1.639  10.222  0.1770  0.1891 -0.7112
  358HK4    C1930047   7.978   1.476  10.338  0.5022 -0.0945 -0.2140
  358HK4    C1830048   7.915   1.345  10.331 -0.0976  0.1872 -0.0940
  358HK4    C1730049   7.908   1.272  10.213  0.6197  0.1592 -0.1177
  358HK4     H830050   7.907   1.164  10.220  1.2638  0.1669  0.2254
  358HK4     N130051   7.892   1.304  10.464  0.0940  0.0776 -0.0970
  358HK4    C2130052   7.920   1.415  10.547 -0.3015  0.4405 -0.4536
  358HK4    C2230053   7.992   1.519  10.476 -0.5156  0.6646 -0.3413
  358HK4    C2630054   8.036   1.636  10.535  0.2958  0.1181  0.1396
  358HK4    H1330055   8.060   1.717  10.466  2.8257 -0.2608  0.5162
  358HK4    C2530056   8.016   1.661  10.671  0.1909  0.0306  0.1374
  358HK4    H1230057   8.054   1.751  10.718 -1.7832  1.0989 -0.2650
  358HK4    C2430058   7.938   1.566  10.735  0.0224 -0.0450 -0.1777
  358HK4    H1130059   7.922   1.578  10.843 -0.9682 -0.9495 -0.2126
  358HK4    C2330060   7.894   1.446  10.680 -0.0078  0.0207 -0.2933
  358HK4    H1030061   7.832   1.384  10.743 -0.4930  0.2942 -0.4948
  358HK4    C3930062   7.842   1.178  10.499  1.0566 -0.4266 -0.5196
  358HK4    C4130063   7.894   1.128  10.621  0.4323 -0.1492 -0.1411
  358HK4    H2130064   7.977   1.176  10.675  0.2720 -0.9326  0.8079
  358HK4    C4230065   7.843   1.007  10.666 -0.3367  0.0767 -0.3912
  358HK4    H2230066   7.876   0.972  10.765 -0.0547  1.9589  0.2032
  358HK4    C4330067   7.748   0.932  10.598 -0.2643 -0.3240 -0.0537
  358HK4    H2330068   7.690   0.870  10.666 -0.6068  1.4835  1.3504
  358HK4    C4430069   7.702   0.983  10.477  0.2274  0.0101 -0.1030
  358HK4    H2430070   7.628   0.924  10.419  1.3812 -0.3949 -1.1963
  358HK4    C4530071   7.746   1.104  10.427  0.4430 -0.0598 -0.0810
  358HK4    H2530072   7.713   1.142  10.329  0.2355 -0.7472 -0.2773
  359HK4    H2830073   1.306   2.382   0.024 -1.9010 -0.4167 -0.2989
  359HK4    C4830074   1.321   2.278   0.051  0.1840  0.0789  0.5608
  359HK4    C4730075   1.358   2.185  11.203 -0.1181 -0.1253  0.6401
  359HK4    H2730076   1.379   2.221  11.101  0.4025  0.1531  0.8436
  359HK4    C4630077   1.408   2.059  11.235  0.9452  0.1177 -0.0003
  359HK4    H2630078   1.465   2.007  11.158  1.7727 -1.1833  1.4616
  359HK4    C4030079   1.405   2.020   0.123 -0.1227  0.2286  0.0135
  359HK4    C5030080   1.358   2.114   0.216 -0.5091 -0.1687  0.2249
  359HK4    H3030081   1.326   2.071   0.312  1.8320 -1.3368  0.5212
  359HK4    C4930082   1.322   2.245   0.186 -0.1754 -0.0038  0.5436
  359HK4    H2930083   1.310   2.321   0.265 -1.0194  0.8702 -0.4138
  359HK4     N230084   1.390   1.883   0.151  0.7710 -0.0980 -1.0243
  359HK4    C3030085   1.444   1.821   0.266 -0.1130 -0.0403 -0.5713
  359HK4    C2930086   1.564   1.837   0.333 -0.2929 -0.1224 -0.2266
  359HK4    H1530087   1.637   1.902   0.284  2.0284 -3.0705 -0.7976
  359HK4    C2830088   1.596   1.768   0.449 -0.2994  0.3690  0.0658
  359HK4    C2730089   1.501   1.677   0.500 -0.0122 -0.0822 -0.2017
  359HK4    H1430090   1.522   1.627   0.596  0.0681  1.7898  0.7789
  359HK4    C3230091   1.384   1.651   0.430 -0.0296 -0.4606 -0.0330
  359HK4    H1630092   1.301   1.606   0.485 -0.1700  0.7033  0.7425
  359HK4    C3130093   1.360   1.710   0.306 -0.1795  0.3510  0.3760
  359HK4    C3430094   1.254   1.702   0.207  0.9190 -0.2559 -0.7602
  359HK4    C3330095   1.273   1.813   0.116  0.0462  0.5532  0.0341
  359HK4    C3530096   1.184   1.831   0.010 -0.1461  0.6076  0.2041
  359HK4    H1730097   1.220   1.891  11.174  0.7089  0.9125  0.7736
  359HK4    C3630098   1.070   1.753   0.000  0.1639  0.1927 -0.1568
  359HK4    H1830099   1.001   1.762  11.163  0.6065 -1.6817 -0.7200
  359HK4    C3730100   1.043   1.651   0.091  0.1068  0.0359 -0.3494
  359HK4    H1930101   0.940   1.617   0.102  0.0381 -0.3505 -2.0359
  359HK4    C3830102   1.137   1.628   0.192  0.0684  0.9500 -0.1009
  359HK4    H2030103   1.142   1.531   0.241 -0.2065 -0.1790 -2.2422
  359HK4    C1430104   1.731   1.777   0.507 -0.1403 -0.4471 -0.1687
  359HK4     C930105   1.777   1.685   0.602 -0.0092 -0.2238 -0.0163
  359HK4     C830106   1.851   1.722   0.717 -0.1203  0.1554 -0.0651
  359HK4    C1130107   1.909   1.848   0.709  0.4722 -0.1221 -0.2035
  359HK4     H430108   1.979   1.880   0.787  1.2841 -0.8741 -0.6192
  359HK4    C1230109   1.884   1.939   0.607 -0.1678 -0.0636  0.0010
  359HK4     H530110   1.938   2.033   0.592  0.0736  0.0008  1.2470
  359HK4    C1330111   1.795   1.903   0.506 -0.0088 -0.5115  0.0193
  359HK4     H630112   1.794   1.958   0.411  4.1948 -0.4854 -0.0917
  359HK4     C730113   1.872   1.633   0.833  0.6003  0.0250 -0.2905
  359HK4     O230114   1.936   1.672   0.930  0.2525 -0.0739 -0.0180
  359HK4     C430115   1.817   1.496   0.819  0.3453  0.1368 -0.3767
  359HK4     C330116   1.811   1.423   0.937 -0.8332  0.0635 -0.4684
  359HK4     H330117   1.833   1.470   1.034  0.1669 -1.3498  0.0117
  359HK4     C230118   1.790   1.286   0.937  0.6402 -0.1736 -0.6480
  359HK4     H230119   1.795   1.216   1.022  2.1613  0.4352 -0.2156
  359HK4     C130120   1.758   1.228   0.815  0.3856 -0.3917 -0.4787
  359HK4     H130121   1.766   1.119   0.803 -1.4810 -0.5646 -0.3808
  359HK4     C630122   1.749   1.302   0.695 -0.2796  0.0374 -0.1685
  359HK4     C530123   1.778   1.439   0.696 -0.1988  0.0207 -0.1519
  359HK4    C1030124   1.758   1.538   0.587  0.2690 -0.2148 -0.4524
  359HK4     O130125   1.751   1.502   0.470 -0.3565  0.2503 -0.5635
  359HK4    C1630126   1.683   1.224   0.590  0.1020 -0.2016 -0.2317
  359HK4    C1530127   1.576   1.135   0.615 -0.3570  0.2800 -0.4773
  359HK4     H730128   1.550   1.130   0.722  1.3203  0.1911 -0.0570
  359HK4    C2030129   1.544   1.031   0.529 -0.0241 -0.4233  0.2474
  359HK4     H930130   1.458   0.966   0.544  0.0209 -0.3696  0.7757
  359HK4    C1930131   1.628   1.007   0.421 -0.5914  0.1953 -0.3333
  359HK4    C1830132   1.741   1.095   0.400 -0.0282 -0.3574  0.3545
  359HK4    C1730133   1.769   1.203   0.483 -0.0442  0.2659 -0.4427
  359HK4     H830134   1.868   1.249   0.484 -0.0157  0.2178  1.2473
  359HK4     N130135   1.807   1.060   0.281 -0.2870 -0.1994  0.1637
  359HK4    C2130136   1.722   0.973   0.209 -0.1877 -0.1219 -0.0498
  359HK4    C2230137   1.624   0.923   0.303  0.1368 -0.4637  0.1068
  359HK4    C2630138   1.525   0.839   0.252  0.3958 -0.6648 -0.0613
  359HK4    H1330139   1.458   0.780   0.315  0.6782 -1.1328 -0.1917
  359HK4    C2530140   1.524   0.808   0.116 -0.3001  0.1296 -0.2363
  359HK4    H1230141   1.452   0.737   0.076 -0.4856 -0.7364  1.5764
  359HK4    C2430142   1.615   0.862   0.026  0.2387 -0.3632  0.0047
  359HK4    H1130143   1.595   0.826  11.172  0.4962 -2.8592  0.8151
  359HK4    C2330144   1.720   0.939   0.074  0.1603 -0.2356 -0.0266
  359HK4    H1030145   1.791   0.976   0.001 -0.0010  0.3527  0.1053
  359HK4    C3930146   1.932   1.101   0.232 -0.5817  0.0053 -0.4214
  359HK4    C4130147   2.005   1.011   0.151 -0.4499 -0.1672 -0.1123
  359HK4    H2130148   1.958   0.916   0.122 -1.4040  0.1566  0.3469
  359HK4    C4230149   2.129   1.048   0.101 -0.4630 -0.3685 -0.2934
  359HK4    H2230150   2.172   0.969   0.037  2.8883  0.8719  0.3205
  359HK4    C4330151   2.197   1.166   0.126 -0.1142 -0.7045  0.3651
  359HK4    H2330152   2.296   1.194   0.088 -1.3691  1.1403 -1.6986
  359HK4    C4430153   2.124   1.255   0.204 -0.0981 -0.3176 -0.0562
  359HK4    H2430154   2.177   1.348   0.228 -0.1895 -0.6533  1.4657
  359HK4    C4530155   1.997   1.224   0.251  0.1514 -0.5131  0.4913
  359HK4    H2530156   1.943   1.312   0.290  0.2417 -0.6862  1.0073
  360HK4    H2830157   3.967   3.512   0.847 -1.6833  1.7803  2.6526
  360HK4    C4830158   3.894   3.432   0.850  0.0741 -0.0403 -0.3643
  360HK4    C4730159   3.838   3.385   0.732  0.4291 -0.6144 -0.3044
  360HK4    H2730160   3.855   3.445   0.641  0.2490  1.1342  0.8007
  360HK4    C4630161   3.781   3.258   0.730 -0.6876 -0.1230 -0.0176
  360HK4    H2630162   3.754   3.211   0.635  2.0163  2.2159 -2.0165
  360HK4    C4030163   3.780   3.173   0.843  0.3377 -0.3276 -0.1595
  360HK4    C5030164   3.832   3.227   0.963  0.3289  0.3532 -0.4570
  360HK4    H3030165   3.824   3.167   1.054 -0.5953  3.9093  1.8778
  360HK4    C4930166   3.892   3.352   0.964  0.0091  0.5013  0.0170
  360HK4    H2930167   3.973   3.371   1.036  1.2964 -0.0273 -1.2525
  360HK4     N230168   3.698   3.060   0.846  0.1004 -0.1503  0.0361
  360HK4    C3030169   3.581   3.053   0.768 -0.1563 -0.1164  0.4166
  360HK4    C2930170   3.491   3.150   0.726 -0.0052 -0.1197  0.0804
  360HK4    H1530171   3.518   3.249   0.763 -0.1948  0.0652 -0.2670
  360HK4    C2830172   3.372   3.121   0.659  0.0732  0.1498 -0.1770
  360HK4    C2730173   3.354   2.985   0.630  0.1751 -0.0313  0.5991
  360HK4    H1430174   3.271   2.957   0.563  0.1348  2.3805 -0.3994
  360HK4    C3230175   3.439   2.882   0.668 -0.0303 -0.4341 -0.0302
  360HK4    H1630176   3.394   2.782   0.671 -1.4188  0.1756 -0.1225
  360HK4    C3130177   3.550   2.913   0.745 -0.5915 -0.0570  0.6332
  360HK4    C3430178   3.646   2.837   0.823 -0.1496  0.0887  0.2355
  360HK4    C3330179   3.739   2.931   0.883 -0.0052 -0.1048  0.3143
  360HK4    C3530180   3.824   2.891   0.986  0.4473  0.2255  0.0692
  360HK4    H1730181   3.896   2.966   1.016 -1.0007  1.4234  0.6348
  360HK4    C3630182   3.824   2.759   1.029 -0.7132  0.2783  0.2574
  360HK4    H1830183   3.884   2.728   1.115 -1.6441  0.1555  0.8702
  360HK4    C3730184   3.739   2.667   0.969 -0.5316  0.2499  0.0409
  360HK4    H1930185   3.731   2.568   1.013  1.9421 -0.4854 -1.0727
  360HK4    C3830186   3.653   2.704   0.865 -0.1648 -0.1144 -0.3952
  360HK4    H2030187   3.586   2.635   0.813 -1.4706 -0.5482  1.7968
  360HK4    C1430188   3.260   3.216   0.663  0.1217  0.1793  0.6246
  360HK4     C930189   3.124   3.188   0.683  0.0374 -0.4001 -0.6836
  360HK4     C830190   3.024   3.284   0.656  0.1867 -0.1390 -0.3180
  360HK4    C1130191   3.073   3.406   0.613 -0.0464 -0.0999 -0.4710
  360HK4     H430192   3.003   3.488   0.588  0.5453 -0.0516 -2.0086
  360HK4    C1230193   3.205   3.443   0.592 -0.0086  0.2450  0.3676
  360HK4     H530194   3.232   3.547   0.569 -0.1480 -0.0924 -1.4040
  360HK4    C1330195   3.300   3.346   0.625 -0.0808  0.1218  0.2103
  360HK4     H630196   3.407   3.361   0.607 -0.0924 -1.9758 -1.8410
  360HK4     C730197   2.880   3.249   0.649  0.1128  0.0507  0.2223
  360HK4     O230198   2.797   3.339   0.664  0.1712  0.1534 -0.0693
  360HK4     C430199   2.846   3.106   0.664  0.3609 -0.1064 -0.6615
  360HK4     C330200   2.716   3.067   0.633  0.2581  0.2650 -0.7068
  360HK4     H330201   2.641   3.145   0.617 -1.3854 -1.1720 -0.1411
  360HK4     C230202   2.681   2.932   0.632  0.4628  0.2039  0.2744
  360HK4     H230203   2.580   2.903   0.601  0.8225 -2.0127  1.0966
  360HK4     C130204   2.776   2.836   0.665  0.2283 -0.0619  0.1799
  360HK4     H130205   2.749   2.730   0.651  1.6217 -0.3010 -0.8297
  360HK4     C630206   2.905   2.874   0.705  0.1308 -0.0943  0.5207
  360HK4     C530207   2.938   3.010   0.710  0.0519 -0.0572  0.0609
  360HK4    C1030208   3.076   3.059   0.740 -0.1039  0.1484  0.4459
  360HK4     O130209   3.132   3.028   0.845 -0.0707 -0.2943  0.2979
  360HK4    C1630210   3.003   2.764   0.702 -0.2488 -0.4284  0.4145
  360HK4    C1530211   3.091   2.738   0.809 -0.0133  0.2024  0.3810
  360HK4     H730212   3.078   2.790   0.905 -4.2798 -0.7577  0.4533
  360HK4    C2030213   3.191   2.643   0.791 -0.1187  0.1288  0.1765
  360HK4     H930214   3.243   2.611   0.881  1.4133  0.5275 -0.5495
  360HK4    C1930215   3.213   2.565   0.677  0.3427  0.4285  0.0556
  360HK4    C1830216   3.122   2.590   0.567  0.2494  0.4273  0.1316
  360HK4    C1730217   3.031   2.693   0.586  0.0826  0.2976  0.0406
  360HK4     H830218   2.997   2.737   0.492 -2.8643 -2.0185 -0.0495
  360HK4     N130219   3.183   2.536   0.451  0.0625 -0.1372  0.2938
  360HK4    C2130220   3.304   2.475   0.490  0.7446  0.9180 -0.1452
  360HK4    C2230221   3.325   2.486   0.633  0.1954  0.2582 -0.0118
  360HK4    C2630222   3.420   2.410   0.701  0.1853  0.3418  0.0975
  360HK4    H1330223   3.403   2.398   0.808 -0.6018 -0.7743 -0.1450
  360HK4    C2530224   3.497   2.318   0.629  0.2551  0.2412  0.3015
  360HK4    H1230225   3.587   2.270   0.668 -0.9895 -1.6816  0.8681
  360HK4    C2430226   3.471   2.301   0.494  0.1485 -0.0780  0.3619
  360HK4    H1130227   3.528   2.225   0.439  1.6106  1.6534 -0.5840
  360HK4    C2330228   3.379   2.379   0.424  0.3247  0.1920  0.4277
  360HK4    H1030229   3.393   2.394   0.317  1.2636  0.3509  0.5660
  360HK4    C3930230   3.101   2.507   0.342  0.0120 -0.8806  0.5245
  360HK4    C4130231   3.158   2.502   0.213 -0.4957  0.2651  0.2385
  360HK4    H2130232   3.262   2.535   0.200  0.2489 -2.0962 -0.0320
  360HK4    C4230233   3.087   2.461   0.101  0.2919 -0.2559 -0.0828
  360HK4    H2230234   3.141   2.439   0.008  2.1258  1.7236  0.4694
  360HK4    C4330235   2.953   2.424   0.113  0.4594 -0.7780  0.1893
  360HK4    H2330236   2.896   2.402   0.023  1.7878  0.0716 -0.8770
  360HK4    C4430237   2.895   2.421   0.239 -0.2686 -0.4857 -0.1341
  360HK4    H2430238   2.788   2.396   0.246 -0.3927  0.2842  0.9513
  360HK4    C4530239   2.968   2.460   0.351 -0.2857 -0.2149 -0.2161
  360HK4    H2530240   2.931   2.439   0.453 -0.4869  1.4089  0.0656
  361HK4    H2830241   9.980   3.276   3.619  1.6963 -0.3585 -0.9914
  361HK4    C4830242  10.021   3.376   3.632  0.8766 -0.1522 -0.0096
  361HK4    C4730243  10.111   3.396   3.736  0.2787 -0.2446  0.5344
  361HK4    H2730244  10.153   3.308   3.786  0.2367  0.0382  1.0724
  361HK4    C4630245  10.155   3.524   3.767  0.1003  0.0146 -0.2686
  361HK4    H2630246  10.234   3.534   3.843 -0.5591  0.1704  0.3997
  361HK4    C4030247  10.105   3.637   3.699 -0.6913  0.1802  0.5697
  361HK4    C5030248  10.009   3.611   3.599 -0.2602  0.3108  0.1213
  361HK4    H3030249   9.954   3.696   3.557 -0.8048 -0.5276 -0.8802
  361HK4    C4930250   9.968   3.483   3.561  0.6386 -0.0450  0.3260
  361HK4    H2930251   9.923   3.468   3.462  1.1755  0.1625  0.0446
  361HK4     N230252  10.132   3.768   3.742  0.1608  0.2792 -0.2391
  361HK4    C3030253  10.144   3.879   3.657 -0.3390  0.3360 -0.2353
  361HK4    C2930254  10.167   3.884   3.520 -0.0044 -0.1097 -0.1974
  361HK4    H1530255  10.187   3.792   3.466 -0.7884  0.0604 -0.7872
  361HK4    C2830256  10.178   4.009   3.459 -0.2861 -0.0077 -0.0449
  361HK4    C2730257  10.155   4.125   3.536  0.2219  0.1561 -0.1393
  361HK4    H1430258  10.129   4.219   3.485 -2.5387 -0.3814  0.2144
  361HK4    C3230259  10.134   4.120   3.673 -0.3258  0.1849 -0.2188
  361HK4    H1630260  10.093   4.204   3.729 -3.1116 -0.9019 -0.5456
  361HK4    C3130261  10.135   3.998   3.740 -0.0026  0.2589 -0.0883
  361HK4    C3430262  10.127   3.960   3.880  0.0801 -0.0166 -0.1572
  361HK4    C3330263  10.119   3.816   3.874  0.0613 -0.0168 -0.1404
  361HK4    C3530264  10.129   3.737   3.989 -0.0001  0.1615 -0.0121
  361HK4    H1730265  10.092   3.635   3.984 -0.8781  0.4907 -0.3123
  361HK4    C3630266  10.142   3.804   4.109 -0.1024  0.0583  0.0565
  361HK4    H1830267  10.153   3.743   4.200 -1.0445  0.1791  0.2577
  361HK4    C3730268  10.137   3.943   4.116  0.7462  0.0928 -0.0153
  361HK4    H1930269  10.144   3.996   4.212 -2.3800  0.7102 -0.0933
  361HK4    C3830270  10.130   4.024   4.003  0.2723 -0.0974 -0.1215
  361HK4    H2030271  10.124   4.132   4.009 -0.6391 -0.1242 -0.4773
  361HK4    C1430272  10.251   4.012   3.331  0.1564  0.2770  0.2108
  361HK4     C930273  10.357   4.101   3.311  0.6826 -0.5059 -0.4850
  361HK4     C830274  10.370   4.168   3.187 -0.0129  0.4754 -0.0338
  361HK4    C1130275  10.285   4.128   3.085 -0.3634  0.4797  0.2542
  361HK4     H430276  10.285   4.189   2.993  0.6829  1.5123  0.9225
  361HK4    C1230277  10.189   4.029   3.102 -0.2731  0.4214  0.4178
  361HK4     H530278  10.130   3.993   3.017 -0.7887 -1.1476  1.4130
  361HK4    C1330279  10.171   3.965   3.224  0.3010 -0.0577  0.2513
  361HK4     H630280  10.092   3.890   3.240  1.2437 -1.1179  0.0223
  361HK4     C730281  10.483   4.262   3.172 -0.1580  0.6851  0.1833
  361HK4     O230282  10.484   4.339   3.077  0.3260  0.1663 -0.2366
  361HK4     C430283  10.575   4.285   3.286  0.1495  0.1041  0.0543
  361HK4     C330284  10.682   4.372   3.271 -0.2155  0.5391 -0.0263
  361HK4     H330285  10.720   4.385   3.169 -0.5319 -2.6233 -0.5931
  361HK4     C230286  10.765   4.410   3.376 -0.1268 -0.1864  0.1638
  361HK4     H230287  10.857   4.464   3.349 -2.0760  2.7683 -0.8215
  361HK4     C130288  10.734   4.364   3.504 -0.1006  0.2667  0.3315
  361HK4     H130289  10.799   4.390   3.589 -3.1998  2.2389  2.1957
  361HK4     C630290  10.623   4.282   3.529  0.3759 -0.5346 -0.1796
  361HK4     C530291  10.552   4.237   3.417 -0.2575  0.0772 -0.0267
  361HK4    C1030292  10.459   4.120   3.417 -0.1885  0.0196  0.2577
  361HK4     O130293  10.489   4.017   3.476 -0.2992 -0.2396 -0.1382
  361HK4    C1630294  10.603   4.240   3.668 -0.2227  0.0803 -0.0773
  361HK4    C1530295  10.473   4.225   3.719 -0.0288  0.4364  0.5392
  361HK4     H730296  10.397   4.290   3.671  2.5052  2.5081 -0.7934
  361HK4    C2030297  10.452   4.156   3.837 -0.6912  0.0978  0.2258
  361HK4     H930298  10.355   4.146   3.888 -0.3247  1.3591  1.2080
  361HK4    C1930299  10.554   4.089   3.903 -0.3459  0.0107 -0.3969
  361HK4    C1830300  10.690   4.112   3.857 -0.2777  0.0855 -0.1650
  361HK4    C1730301  10.709   4.185   3.741 -0.1851 -0.1335 -0.2900
  361HK4     H830302  10.811   4.209   3.710 -0.3683  1.8021  0.5547
  361HK4     N130303  10.776   4.009   3.899 -0.1950  0.1284 -0.2334
  361HK4    C2130304  10.703   3.930   3.990 -0.4544  0.3952 -0.2111
  361HK4    C2230305  10.564   3.970   3.986 -0.4851  0.3225  0.0755
  361HK4    C2630306  10.468   3.904   4.060  0.1938 -0.3380  0.3769
  361HK4    H1330307  10.363   3.932   4.048  0.2046 -0.4141  0.1284
  361HK4    C2530308  10.508   3.795   4.136 -0.0627 -0.2079  0.7035
  361HK4    H1230309  10.431   3.757   4.204  1.3279 -1.8654  1.3703
  361HK4    C2430310  10.641   3.754   4.140  0.1705  0.4575 -0.2709
  361HK4    H1130311  10.673   3.687   4.221 -1.1554  0.4733  0.2799
  361HK4    C2330312  10.740   3.821   4.069  0.0075  0.0569 -0.8827
  361HK4    H1030313  10.840   3.780   4.071  0.9163  2.1848 -1.2001
  361HK4    C3930314  10.916   4.010   3.894 -0.1786  0.0022  0.1044
  361HK4    C4130315  10.992   3.890   3.894 -0.3684 -0.1162  0.2786
  361HK4    H2130316  10.939   3.796   3.877  0.1279 -0.2430 -0.5804
  361HK4    C4230317  11.130   3.882   3.903 -0.4036 -0.0356  0.9315
  361HK4    H2230318  11.179   3.797   3.852  1.5943  1.3286  0.4951
  361HK4    C4330319  11.200   4.001   3.917  0.2137 -0.2082 -0.4905
  361HK4    H2330320   0.056   3.980   3.897  0.5750  0.6597  0.4232
  361HK4    C4430321  11.133   4.123   3.907 -0.0481 -0.3084  0.0184
  361HK4    H2430322  11.186   4.218   3.889 -3.0372  1.2224 -0.8739
  361HK4    C4530323  10.995   4.127   3.897 -0.0849 -0.0714  0.4993
  361HK4    H2530324  10.951   4.224   3.873 -0.5441 -0.3137  0.3636
  362HK4    H2830325   6.803   3.866   4.930 -0.9290 -0.5297  2.9682
  362HK4    C4830326   6.806   3.757   4.920  0.5871 -0.2669  0.2050
  362HK4    C4730327   6.833   3.697   4.798  0.7262 -0.1455  0.1751
  362HK4    H2730328   6.839   3.753   4.703 -1.1915 -0.4880 -0.1743
  362HK4    C4630329   6.825   3.558   4.793  0.0096 -0.1205  0.5392
  362HK4    H2630330   6.867   3.506   4.705 -1.2312 -2.3175  1.2312
  362HK4    C4030331   6.797   3.471   4.900 -0.3926 -0.1946  0.3706
  362HK4    C5030332   6.789   3.537   5.024  0.1174 -0.4391  0.5362
  362HK4    H3030333   6.761   3.473   5.109 -0.1672  0.7088  1.3195
  362HK4    C4930334   6.793   3.676   5.032 -0.3811 -0.3902  0.0071
  362HK4    H2930335   6.786   3.723   5.131 -0.6311  0.4228 -0.3952
  362HK4     N230336   6.726   3.351   4.884  0.2087 -0.5266  0.1965
  362HK4    C3030337   6.645   3.312   4.775 -0.0111  0.5391 -0.0244
  362HK4    C2930338   6.569   3.396   4.693 -0.2758  0.3107 -0.0117
  362HK4    H1530339   6.579   3.504   4.699  0.3785  0.2269  0.5826
  362HK4    C2830340   6.482   3.337   4.602 -0.0649 -0.2278  0.1284
  362HK4    C2730341   6.456   3.199   4.598  0.2443 -0.2752 -0.2460
  362HK4    H1430342   6.388   3.152   4.526 -1.0132 -1.8390  1.8926
  362HK4    C3230343   6.534   3.115   4.678  0.2881  0.0181  0.0195
  362HK4    H1630344   6.527   3.007   4.665 -0.0357  0.3679 -3.1723
  362HK4    C3130345   6.628   3.169   4.766 -0.2348  0.5469  0.2573
  362HK4    C3430346   6.719   3.109   4.861 -0.1410 -0.1698 -0.2814
  362HK4    C3330347   6.764   3.225   4.935 -0.0903 -0.5675  0.3215
  362HK4    C3530348   6.817   3.198   5.060  0.1107  0.1703  0.4010
  362HK4    H1730349   6.882   3.273   5.105  2.2136 -1.3548 -0.0136
  362HK4    C3630350   6.828   3.066   5.102 -0.2425  0.0040 -0.0260
  362HK4    H1830351   6.874   3.040   5.199  1.8776 -0.4461 -1.1300
  362HK4    C3730352   6.784   2.956   5.028  0.0760 -0.1654  0.0378
  362HK4    H1930353   6.796   2.860   5.077  0.9880  0.0843  0.3324
  362HK4    C3830354   6.729   2.976   4.902 -0.0003 -0.0441  0.0901
  362HK4    H2030355   6.694   2.893   4.842  2.4137 -1.9916  1.2676
  362HK4    C1430356   6.418   3.429   4.507  0.3002  0.0426  0.1410
  362HK4     C930357   6.298   3.396   4.444  0.2523 -0.0783  0.2953
  362HK4     C830358   6.281   3.412   4.304 -0.2078  0.1545  0.3760
  362HK4    C1130359   6.366   3.491   4.229 -0.1914  0.2371  0.4844
  362HK4     H430360   6.343   3.522   4.126  1.9572  1.4950  0.3404
  362HK4    C1230361   6.472   3.548   4.299  0.4766 -0.3493 -0.0442
  362HK4     H530362   6.532   3.624   4.248 -0.1685 -0.4879 -1.0248
  362HK4    C1330363   6.494   3.523   4.434 -0.2002  0.5289  0.2353
  362HK4     H630364   6.566   3.581   4.493  0.3575  0.2347 -0.1503
  362HK4     C730365   6.180   3.331   4.232  0.1592  0.1859 -0.1721
  362HK4     O230366   6.163   3.342   4.111  0.0200  0.2181 -0.1509
  362HK4     C430367   6.084   3.251   4.312  0.0672  0.4932  0.0245
  362HK4     C330368   5.988   3.173   4.249  0.0479  0.4226  0.1433
  362HK4     H330369   5.975   3.187   4.141 -2.6849 -0.3716  0.3249
  362HK4     C230370   5.893   3.097   4.316  0.4707 -0.2944 -0.0598
  362HK4     H230371   5.836   3.018   4.265 -0.5174 -0.3840  1.1572
  362HK4     C130372   5.901   3.091   4.455 -0.3675  0.1156  0.0084
  362HK4     H130373   5.823   3.044   4.517  2.2310 -1.1795  2.4109
  362HK4     C630374   6.007   3.152   4.523 -0.2492 -0.0497 -0.0256
  362HK4     C530375   6.083   3.247   4.453  0.0715 -0.2884 -0.0001
  362HK4    C1030376   6.178   3.343   4.515 -0.4400  0.4932 -0.4280
  362HK4     O130377   6.134   3.415   4.605  0.3203  0.5699 -0.1107
  362HK4    C1630378   6.017   3.128   4.668 -0.3851 -0.2812 -0.0555
  362HK4    C1530379   6.141   3.150   4.732 -0.4909 -0.2376  0.1336
  362HK4     H730380   6.233   3.121   4.679 -0.6089 -0.6950  0.1783
  362HK4    C2030381   6.151   3.196   4.862 -0.1478 -0.3359  0.1444
  362HK4     H930382   6.247   3.213   4.911 -0.1623 -0.5758  0.2578
  362HK4    C1930383   6.033   3.221   4.933 -0.1498 -0.4662  0.1853
  362HK4    C1830384   5.904   3.196   4.873 -0.2945 -0.5524  0.5316
  362HK4    C1730385   5.902   3.145   4.743 -0.1180  0.0833  0.2772
  362HK4     H830386   5.803   3.139   4.697 -0.1433  2.8938 -0.1016
  362HK4     N130387   5.797   3.233   4.957 -0.1592 -0.6415  0.7416
  362HK4    C2130388   5.858   3.289   5.071  0.5403  0.2424 -0.0569
  362HK4    C2230389   6.002   3.279   5.062  0.5384  0.0507  0.1224
  362HK4    C2630390   6.075   3.301   5.178  0.0346  0.3672  0.3813
  362HK4    H1330391   6.181   3.273   5.177  0.7548  2.9230 -0.9028
  362HK4    C2530392   6.024   3.353   5.296  0.2530  0.2873  0.5117
  362HK4    H1230393   6.088   3.397   5.373  1.6485  0.2260 -0.5912
  362HK4    C2430394   5.885   3.359   5.301  0.1981 -0.3607 -0.1572
  362HK4    H1130395   5.839   3.397   5.393  0.0391 -0.0328 -0.3694
  362HK4    C2330396   5.803   3.331   5.192  0.0725 -0.3092 -0.0739
  362HK4    H1030397   5.696   3.334   5.213  0.0146 -0.9016 -0.2779
  362HK4    C3930398   5.678   3.269   4.894  0.2584 -0.4121  0.0802
  362HK4    C4130399   5.554   3.250   4.958  0.3383 -0.3078  0.2667
  362HK4    H2130400   5.555   3.216   5.063 -1.1436  0.8330  0.6643
  362HK4    C4230401   5.434   3.290   4.901  0.5576  0.3871  0.2865
  362HK4    H2230402   5.337   3.260   4.944 -0.3069 -0.4645 -2.1520
  362HK4    C4330403   5.439   3.365   4.784 -0.1520 -0.2998 -0.1911
  362HK4    H2330404   5.347   3.416   4.757 -0.5840 -0.4519  0.9464
  362HK4    C4430405   5.559   3.399   4.723 -0.2760 -0.0119 -0.2780
  362HK4    H2430406   5.557   3.450   4.626  0.6026 -0.7652 -0.6988
  362HK4    C4530407   5.677   3.350   4.778 -0.5948 -0.2232  0.2194
  362HK4    H2530408   5.770   3.400   4.749 -1.3114  1.5248  0.8383
  363HK4    H2830409   9.742   7.060   3.739 -0.9790 -0.8776  0.6600
  363HK4    C4830410   9.826   6.990   3.743 -0.1917 -0.0048 -0.2765
  363HK4    C4730411   9.789   6.858   3.767  0.1615  0.0371  0.4970
  363HK4    H2730412   9.689   6.815   3.759  0.1579 -0.1906  1.5982
  363HK4    C4630413   9.887   6.763   3.791  0.1785  0.0749  0.5824
  363HK4    H2630414   9.858   6.657   3.791  1.0290 -0.2026 -2.0503
  363HK4    C4030415  10.025   6.789   3.777  0.0540  0.3408 -0.2218
  363HK4    C5030416  10.057   6.924   3.753  0.0593  0.3235 -0.3065
  363HK4    H3030417  10.164   6.945   3.745  0.7047 -2.0642  1.4894
  363HK4    C4930418   9.961   7.024   3.743 -0.2133  0.0806 -0.0996
  363HK4    H2930419   9.989   7.126   3.773 -1.8821  0.3865  0.4904
  363HK4     N230420  10.127   6.695   3.798  0.0638  0.3827 -0.0694
  363HK4    C3030421  10.119   6.581   3.881 -0.1152  0.2900 -0.2153
  363HK4    C2930422  10.054   6.561   4.002  0.8085 -0.4382  0.1628
  363HK4    H1530423   9.965   6.623   4.015  2.0003  1.1302  1.1193
  363HK4    C2830424  10.070   6.449   4.082  0.3281 -0.4475  0.2500
  363HK4    C2730425  10.153   6.347   4.032  0.2785 -0.6178  0.5080
  363HK4    H1430426  10.166   6.256   4.093 -1.6699 -1.4833 -0.3329
  363HK4    C3230427  10.222   6.364   3.912  0.3519  0.6635  0.7312
  363HK4    H1630428  10.286   6.285   3.873 -1.9474  0.2579 -2.3717
  363HK4    C3130429  10.210   6.479   3.834  0.3445  0.4267  0.3836
  363HK4    C3430430  10.276   6.529   3.715 -0.3523 -0.0237 -0.1936
  363HK4    C3330431  10.224   6.664   3.701  0.4237  0.3319  0.3093
  363HK4    C3530432  10.269   6.730   3.587 -0.4429  0.0481 -0.2062
  363HK4    H1730433  10.242   6.834   3.567 -0.0174  0.7195  2.4483
  363HK4    C3630434  10.366   6.680   3.501 -0.2476 -0.1864  0.1478
  363HK4    H1830435  10.397   6.739   3.413  1.0033 -0.1378  0.6011
  363HK4    C3730436  10.416   6.552   3.520  0.7457  0.0770 -0.6465
  363HK4    H1930437  10.480   6.498   3.449  0.3809 -0.8661 -0.2687
  363HK4    C3830438  10.373   6.479   3.630 -0.0536  0.9016 -0.4063
  363HK4    H2030439  10.424   6.390   3.666  0.8619  1.2765 -0.7680
  363HK4    C1430440  10.047   6.467   4.226  0.0785  0.3522  0.1104
  363HK4     C930441  10.116   6.396   4.325  0.1927  0.5677  0.1868
  363HK4     C830442  10.045   6.354   4.440  0.3771 -0.2451  0.0131
  363HK4    C1130443   9.912   6.389   4.459  0.4592  0.0487  0.0471
  363HK4     H430444   9.854   6.330   4.532 -0.6025 -1.0234 -1.6326
  363HK4    C1230445   9.844   6.469   4.369 -0.0444  0.0407  0.4202
  363HK4     H530446   9.743   6.503   4.396  0.3619  1.5810  0.0446
  363HK4    C1330447   9.914   6.506   4.254 -0.1812 -0.5561  0.1430
  363HK4     H630448   9.849   6.553   4.180  0.7400 -0.1478 -0.4114
  363HK4     C730449  10.119   6.286   4.548  0.0453  0.5964  0.7777
  363HK4     O230450  10.057   6.207   4.619 -0.1672  0.4880  0.4699
  363HK4     C430451  10.266   6.304   4.561  0.2310 -0.3351  0.0017
  363HK4     C330452  10.328   6.266   4.679 -0.3057  0.3608  0.5103
  363HK4     H330453  10.267   6.212   4.753  0.6391  0.3451  1.2851
  363HK4     C230454  10.460   6.300   4.705 -0.3797  1.0252  0.0170
  363HK4     H230455  10.509   6.246   4.787  1.3504 -1.9827 -2.8657
  363HK4     C130456  10.529   6.378   4.612  0.3436  0.6052  0.1969
  363HK4     H130457  10.637   6.396   4.614  0.5144  0.8188 -4.9955
  363HK4     C630458  10.466   6.425   4.495  0.1764  0.3425  0.1828
  363HK4     C530459  10.337   6.379   4.465  0.2647  0.0099  0.2971
  363HK4    C1030460  10.264   6.408   4.338  0.3186 -0.6961  0.0972
  363HK4     O130461  10.335   6.415   4.238 -0.0089 -0.6912 -0.1327
  363HK4    C1630462  10.541   6.527   4.421  0.0668  0.0729 -0.3014
  363HK4    C1530463  10.676   6.508   4.384  0.1238  0.3145 -0.2168
  363HK4     H730464  10.719   6.407   4.376  1.0875  0.7317 -0.4495
  363HK4    C2030465  10.755   6.615   4.342  0.1287  0.5874  0.4829
  363HK4     H930466  10.858   6.596   4.313  0.2729  0.1378  1.2719
  363HK4    C1930467  10.695   6.737   4.315 -0.1442  0.4091  0.2740
  363HK4    C1830468  10.554   6.755   4.344 -0.2890  0.0878 -0.2231
  363HK4    C1730469  10.481   6.650   4.399 -0.1844 -0.0605 -0.3659
  363HK4     H830470  10.373   6.656   4.411 -0.2713 -2.0437  0.0549
  363HK4     N130471  10.517   6.890   4.334  0.1533  0.2005 -0.3184
  363HK4    C2130472  10.634   6.958   4.292 -0.0051  0.3423 -0.5294
  363HK4    C2230473  10.744   6.866   4.270  0.0730  0.2741  0.1245
  363HK4    C2630474  10.853   6.908   4.195  0.0965 -0.1641 -0.0888
  363HK4    H1330475  10.929   6.836   4.165  0.2541 -0.8916  2.0100
  363HK4    C2530476  10.859   7.042   4.157  0.3753  0.0279  0.6331
  363HK4    H1230477  10.954   7.085   4.125  0.6121 -0.8627  0.1249
  363HK4    C2430478  10.753   7.129   4.182  0.0771 -0.3264  0.5902
  363HK4    H1130479  10.760   7.232   4.145 -1.5269 -1.8033 -4.1534
  363HK4    C2330480  10.640   7.091   4.254 -0.2118  0.6964  0.6724
  363HK4    H1030481  10.570   7.168   4.287 -0.5131  0.2505  1.0853
  363HK4    C3930482  10.385   6.925   4.304  0.1903  0.4751 -0.1662
  363HK4    C4130483  10.339   7.056   4.328  0.3330  0.4817  0.0754
  363HK4    H2130484  10.392   7.119   4.401  0.5462 -1.1621  1.3611
  363HK4    C4230485  10.224   7.107   4.268  0.0327 -0.1057  0.1487
  363HK4    H2230486  10.176   7.188   4.324 -1.0378 -1.5008  1.2526
  363HK4    C4330487  10.148   7.035   4.176  0.2385  0.2926 -0.3387
  363HK4    H2330488  10.066   7.079   4.118  1.8488  0.7380 -2.3136
  363HK4    C4430489  10.187   6.904   4.155 -0.1575  0.1217 -0.0350
  363HK4    H2430490  10.129   6.838   4.089 -2.2279  0.3126  1.5748
  363HK4    C4530491  10.303   6.854   4.214 -0.1357  0.4177  0.1709
  363HK4    H2530492  10.332   6.748   4.204  1.1005  0.6951  0.6674
  364HK4    H2830493   8.671  11.064   2.234 -0.1495  0.8621  2.3184
  364HK4    C4830494   8.563  11.050   2.225  0.1251  0.0780 -0.0141
  364HK4    C4730495   8.484  11.009   2.332  0.1537  0.2515  0.0724
  364HK4    H2730496   8.535  10.984   2.426 -2.8306 -2.1177  1.1316
  364HK4    C4630497   8.346  10.998   2.321  0.1681 -0.2779  0.3836
  364HK4    H2630498   8.293  10.927   2.386  0.2927  0.2374  1.0599
  364HK4    C4030499   8.275  11.053   2.212  0.0087 -0.4914  0.3784
  364HK4    C5030500   8.361  11.111   2.116  0.0109 -1.1132 -0.0005
  364HK4    H3030501   8.323  11.199   2.062 -0.5111 -0.2677  1.6903
  364HK4    C4930502   8.499  11.101   2.113  0.1707  0.8657  0.3246
  364HK4    H2930503   8.557  11.140   2.028  1.3502 -1.9324 -0.1795
  364HK4     N230504   8.138  11.079   2.214  0.0489 -0.2275 -0.0646
  364HK4    C3030505   8.058  11.081   2.331  0.1542 -0.1971  0.0064
  364HK4    C2930506   8.091  11.105   2.464 -0.2946  0.3665  0.0191
  364HK4    H1530507   8.198  11.092   2.481  0.0848  1.6223 -1.2884
  364HK4    C2830508   7.997  11.120   2.565 -0.1476  0.4623  0.1430
  364HK4    C2730509   7.861  11.109   2.531 -0.0298 -0.0883 -0.1594
  364HK4    H1430510   7.787  11.096   2.611  0.3626 -1.3516  0.0138
  364HK4    C3230511   7.823  11.099   2.397 -0.1722  0.2353 -0.1439
  364HK4    H1630512   7.717  11.097   2.373  0.3600 -0.7171 -2.5637
  364HK4    C3130513   7.917  11.089   2.296  0.1181 -0.1593  0.1631
  364HK4    C3430514   7.915  11.099   2.151  0.6444  0.4382  0.1930
  364HK4    C3330515   8.050  11.073   2.104  0.4562  0.5836 -0.4376
  364HK4    C3530516   8.077  11.066   1.968  0.0705 -0.6618 -0.4603
  364HK4    H1730517   8.173  11.031   1.931  0.3726 -0.4463  0.1089
  364HK4    C3630518   7.973  11.086   1.878  0.0964 -0.2802 -0.4050
  364HK4    H1830519   8.002  11.075   1.772  0.9509 -0.3510 -0.1638
  364HK4    C3730520   7.847  11.124   1.922  0.7096  0.4420  0.7509
  364HK4    H1930521   7.773  11.170   1.856  0.5325 -0.8067  0.0655
  364HK4    C3830522   7.814  11.120   2.058  0.1899  0.1523  0.6189
  364HK4    H2030523   7.715  11.151   2.090  0.6315 -0.2165  2.4007
  364HK4    C1430524   8.033  11.124   2.708  0.2020  0.3967  0.0578
  364HK4     C930525   7.957  11.085   2.819  0.4654  0.4202  0.2464
  364HK4     C830526   7.972  11.152   2.942  0.1657  0.2708  0.3633
  364HK4    C1130527   8.067   0.004   2.958 -0.2081  0.7007 -0.0611
  364HK4     H430528   8.088   0.051   3.056  3.5724  0.4513 -0.6951
  364HK4    C1230529   8.141   0.046   2.848 -0.3006  0.3271 -0.2668
  364HK4     H530530   8.220   0.120   2.870 -0.1038  0.1309 -0.3101
  364HK4    C1330531   8.123  11.230   2.726  0.5208  0.1916 -0.3223
  364HK4     H630532   8.185   0.008   2.639  1.6565 -1.3925 -0.0069
  364HK4     C730533   7.880  11.127   3.056 -0.3279 -0.0010 -0.0960
  364HK4     O230534   7.861  11.204   3.150  0.0475 -0.1227  0.0795
  364HK4     C430535   7.781  11.018   3.040 -0.0226 -0.2786 -0.0997
  364HK4     C330536   7.716  10.967   3.152  0.8421 -0.1455  0.4732
  364HK4     H330537   7.756  10.995   3.250  2.6934  2.0918 -0.8749
  364HK4     C230538   7.610  10.877   3.141  0.0933  0.8341 -0.5037
  364HK4     H230539   7.570  10.830   3.232 -1.5598  0.7709 -1.2384
  364HK4     C130540   7.569  10.847   3.011  0.5397 -0.5964 -0.3288
  364HK4     H130541   7.479  10.786   2.998  1.2217 -1.0483 -3.1818
  364HK4     C630542   7.627  10.899   2.893  0.1942  0.0919 -0.1984
  364HK4     C530543   7.745  10.973   2.912  0.7873 -0.8646 -0.1208
  364HK4    C1030544   7.852  10.980   2.808  0.6428  0.2886 -0.1962
  364HK4     O130545   7.883  10.879   2.746 -0.0118 -0.0584  0.0333
  364HK4    C1630546   7.531  10.931   2.787  0.2638  0.2985 -0.1977
  364HK4    C1530547   7.392  10.929   2.808  0.2528  0.4836 -0.2433
  364HK4     H730548   7.346  10.971   2.899  2.2750  1.1064  0.5269
  364HK4    C2030549   7.296  10.884   2.718  0.0969  0.5343 -0.1035
  364HK4     H930550   7.198  10.850   2.751  0.3993 -1.7034 -1.4603
  364HK4    C1930551   7.344  10.859   2.590  0.0226 -0.3214  0.0350
  364HK4    C1830552   7.485  10.870   2.555 -0.0582  0.5101 -0.0438
  364HK4    C1730553   7.573  10.906   2.657  0.2836 -0.1574 -0.1034
  364HK4     H830554   7.672  10.946   2.637 -0.2289  1.1941 -0.0253
  364HK4     N130555   7.506  10.874   2.416 -0.1641  0.1857 -0.0691
  364HK4    C2130556   7.379  10.863   2.357  0.0559  0.0740 -0.5231
  364HK4    C2230557   7.278  10.853   2.461  0.4262 -0.1040 -0.1826
  364HK4    C2630558   7.144  10.835   2.428  0.2836  0.5608  0.0377
  364HK4    H1330559   7.070  10.834   2.508 -0.1788 -2.2780 -0.3831
  364HK4    C2530560   7.101  10.832   2.297 -0.2103 -0.4143  0.2179
  364HK4    H1230561   6.993  10.840   2.282 -0.0250  0.7554 -0.5862
  364HK4    C2430562   7.196  10.851   2.198 -0.3127 -0.2910  0.1438
  364HK4    H1130563   7.175  10.885   2.095  2.2933 -0.3324 -0.4481
  364HK4    C2330564   7.332  10.862   2.226 -0.2299  0.1906 -0.4222
  364HK4    H1030565   7.399  10.851   2.140  1.4347  1.0665  0.7505
  364HK4    C3930566   7.623  10.829   2.354 -0.1094  0.2721 -0.0281
  364HK4    C4130567   7.654  10.861   2.220  0.0633  0.3246  0.0225
  364HK4    H2130568   7.594  10.940   2.173  1.3093  0.0198 -2.1276
  364HK4    C4230569   7.739  10.777   2.149  0.0306  0.3053  0.0055
  364HK4    H2230570   7.750  10.803   2.042 -1.3018  1.5341  0.1558
  364HK4    C4330571   7.803  10.667   2.205 -0.2550  0.0779 -0.1211
  364HK4    H2330572   7.884  10.619   2.149  0.3630  1.1476 -0.1450
  364HK4    C4430573   7.785  10.637   2.339  0.0922  0.7049  0.0641
  364HK4    H2430574   7.855  10.563   2.381 -0.5679 -1.0962 -1.9572
  364HK4    C4530575   7.705  10.728   2.409 -0.2618  0.2807  0.2152
  364HK4    H2530576   7.723  10.732   2.517  0.5840 -1.7002  0.1699
  365HK4    H2830577   5.856   1.587   9.766 -0.1785 -0.8140  0.3764
  365HK4    C4830578   5.844   1.591   9.657  0.0436  0.6264  0.3885
  365HK4    C4730579   5.955   1.631   9.584 -0.0211  0.4644  0.1999
  365HK4    H2730580   6.058   1.614   9.619  0.3234  1.7137 -0.2012
  365HK4    C4630581   5.940   1.668   9.451  0.4366  0.2113  0.0778
  365HK4    H2630582   6.017   1.733   9.406 -1.8142  1.4971 -2.0357
  365HK4    C4030583   5.820   1.650   9.380  0.5599 -0.4194  0.0266
  365HK4    C5030584   5.711   1.611   9.460  0.5001 -0.0992  0.0990
  365HK4    H3030585   5.609   1.625   9.421  0.5785 -0.7243 -0.3250
  365HK4    C4930586   5.719   1.586   9.597  0.1910 -0.0421  0.1299
  365HK4    H2930587   5.628   1.582   9.658 -0.1538  2.9385 -0.1069
  365HK4     N230588   5.811   1.639   9.241  0.1330  0.5964 -0.0350
  365HK4    C3030589   5.697   1.667   9.162 -0.5973 -0.7301  0.5307
  365HK4    C2930590   5.595   1.757   9.190  0.0076  0.1805 -0.1805
  365HK4    H1530591   5.632   1.850   9.234  0.4223  0.2200 -0.6068
  365HK4    C2830592   5.491   1.776   9.100 -0.5576 -0.6402  0.2977
  365HK4    C2730593   5.493   1.698   8.982 -0.3968  0.0907 -0.1842
  365HK4    H1430594   5.416   1.723   8.907  0.0562 -2.6560 -1.6113
  365HK4    C3230595   5.599   1.613   8.951 -0.2489  0.0245  0.4905
  365HK4    H1630596   5.616   1.593   8.845  1.1665 -0.8610  0.8664
  365HK4    C3130597   5.706   1.594   9.037 -0.1097 -0.2159  0.2638
  365HK4    C3430598   5.838   1.533   9.034 -0.3005 -0.6569  0.7260
  365HK4    C3330599   5.900   1.564   9.161  0.1959  0.3867  0.2295
  365HK4    C3530600   6.026   1.509   9.181 -0.1518 -0.5211 -0.0393
  365HK4    H1730601   6.081   1.534   9.272  0.4783  0.7876 -0.7689
  365HK4    C3630602   6.096   1.439   9.084  0.3293  0.6149 -0.5286
  365HK4    H1830603   6.195   1.392   9.098 -0.2285 -1.0012 -1.7842
  365HK4    C3730604   6.042   1.428   8.956  0.1888 -0.5045 -0.3805
  365HK4    H1930605   6.096   1.399   8.867  0.7387  1.0827 -0.5874
  365HK4    C3830606   5.913   1.475   8.932  0.0177 -0.3535  0.7857
  365HK4    H2030607   5.871   1.479   8.832 -1.5944  1.5517  1.5011
  365HK4    C1430608   5.366   1.805   9.171 -0.1595 -0.0162  0.7417
  365HK4     C930609   5.257   1.718   9.161  0.0964 -0.2822  0.2739
  365HK4     C830610   5.129   1.774   9.145  0.0370 -0.2748  0.7480
  365HK4    C1130611   5.110   1.911   9.135 -0.2249 -0.3524  0.1522
  365HK4     H430612   5.017   1.962   9.103 -0.0384  0.8577  1.4664
  365HK4    C1230613   5.218   1.994   9.161 -0.1445 -0.5363  0.4060
  365HK4     H530614   5.202   2.103   9.154 -0.1981 -0.4465  1.7678
  365HK4    C1330615   5.344   1.943   9.192  0.0602  0.0471  0.5524
  365HK4     H630616   5.412   1.998   9.259  2.6237  1.5342 -3.0938
  365HK4     C730617   5.017   1.684   9.110 -0.1626  0.2554  0.0213
  365HK4     O230618   4.908   1.730   9.077 -0.2481 -0.0884 -0.1707
  365HK4     C430619   5.034   1.537   9.106 -0.2242  0.2444  0.1806
  365HK4     C330620   4.925   1.458   9.076  0.2989 -0.2680 -0.3792
  365HK4     H330621   4.833   1.494   9.028 -0.2084 -0.1497  0.6525
  365HK4     C230622   4.934   1.319   9.084 -0.3233 -0.2598  0.5767
  365HK4     H230623   4.840   1.261   9.084 -1.3581  1.3860  0.7671
  365HK4     C130624   5.057   1.261   9.112 -0.0043 -0.1955 -0.6654
  365HK4     H130625   5.066   1.152   9.127 -0.5960 -0.3838 -1.6669
  365HK4     C630626   5.171   1.341   9.135 -0.4186 -0.0404  0.9140
  365HK4     C530627   5.159   1.480   9.141 -0.0625  0.0674 -0.6806
  365HK4    C1030628   5.269   1.571   9.183  0.0267 -0.3360 -0.0484
  365HK4     O130629   5.331   1.539   9.285  0.1701 -0.0644 -0.0490
  365HK4    C1630630   5.296   1.265   9.143 -0.0012  0.5501  0.0495
  365HK4    C1530631   5.418   1.328   9.110  0.1671  0.2917  0.1691
  365HK4     H730632   5.414   1.410   9.037 -2.0274 -0.4595 -0.6028
  365HK4    C2030633   5.541   1.291   9.163  0.0474  0.3322  0.4769
  365HK4     H930634   5.632   1.344   9.135  0.5878 -0.4786  0.6820
  365HK4    C1930635   5.553   1.181   9.248 -0.0369  0.1993  0.3149
  365HK4    C1830636   5.431   1.108   9.276 -0.0271 -0.1556 -0.5488
  365HK4    C1730637   5.310   1.155   9.226  0.0671  0.1410 -0.4966
  365HK4     H830638   5.219   1.102   9.256 -0.4377  0.7152 -0.9939
  365HK4     N130639   5.469   0.993   9.348  0.1712  0.1926 -0.0943
  365HK4    C2130640   5.610   0.985   9.353  0.1551  0.1444  0.3576
  365HK4    C2230641   5.667   1.107   9.299 -0.0144  0.1581  0.2072
  365HK4    C2630642   5.804   1.125   9.288  0.0280 -0.1349  0.2405
  365HK4    H1330643   5.845   1.204   9.225  1.6229 -0.6558  0.5798
  365HK4    C2530644   5.886   1.028   9.346  0.0551  0.2377  0.8286
  365HK4    H1230645   5.994   1.042   9.339  0.0122 -0.3205 -1.2695
  365HK4    C2430646   5.833   0.912   9.400  0.3321 -0.2769  0.0070
  365HK4    H1130647   5.894   0.829   9.439  0.2852 -1.0619 -1.5744
  365HK4    C2330648   5.696   0.889   9.403  0.2767  0.0254 -0.0771
  365HK4    H1030649   5.665   0.786   9.419  1.6157 -0.5675 -1.1610
  365HK4    C3930650   5.391   0.934   9.448  0.4873 -0.0537  0.0068
  365HK4    C4130651   5.407   0.800   9.490  0.6642  0.2937  1.0763
  365HK4    H2130652   5.423   0.731   9.406  0.0846  0.7719  0.5690
  365HK4    C4230653   5.347   0.751   9.605 -0.0651 -0.0363  0.5662
  365HK4    H2230654   5.378   0.651   9.639  1.6583  0.4608  0.5423
  365HK4    C4330655   5.264   0.824   9.689 -0.3138 -0.0435  0.3259
  365HK4    H2330656   5.199   0.778   9.764  2.2747 -2.3728  1.2458
  365HK4    C4430657   5.252   0.956   9.649 -0.2715 -0.4074 -0.9172
  365HK4    H2430658   5.203   1.025   9.721  3.1065  0.0133  1.1010
  365HK4    C4530659   5.313   1.010   9.537  0.4576  0.1964 -0.2366
  365HK4    H2530660   5.279   1.110   9.504 -0.1981 -0.2889 -1.0467
  366HK4    H2830661   6.552   0.465   1.126  0.7146 -2.8071  1.3178
  366HK4    C4830662   6.549   0.419   1.027 -0.1089  0.4139 -0.2205
  366HK4    C4730663   6.550   0.491   0.909 -0.4683 -0.0364 -0.5007
  366HK4    H2730664   6.540   0.601   0.911 -1.8558 -0.1345 -1.4543
  366HK4    C4630665   6.562   0.424   0.788  0.1034 -0.0302 -0.4488
  366HK4    H2630666   6.512   0.481   0.708 -2.9624  0.7669  1.9432
  366HK4    C4030667   6.581   0.285   0.778 -0.3770 -0.1271 -0.0299
  366HK4    C5030668   6.580   0.216   0.901 -0.2477  0.2829  0.2018
  366HK4    H3030669   6.578   0.106   0.894 -0.0714  0.2758  0.2574
  366HK4    C4930670   6.565   0.281   1.023 -0.3361  0.3766  0.1412
  366HK4    H2930671   6.566   0.217   1.113 -0.1890 -1.4082 -1.1152
  366HK4     N230672   6.574   0.211   0.659 -0.6260 -0.1175 -0.0207
  366HK4    C3030673   6.512   0.258   0.541 -0.7722 -0.3875 -0.0524
  366HK4    C2930674   6.412   0.354   0.530  0.1347  0.5252 -0.4231
  366HK4    H1530675   6.356   0.378   0.621  0.0015 -0.8606 -0.1265
  366HK4    C2830676   6.356   0.391   0.409 -0.0699 -0.0599 -0.5128
  366HK4    C2730677   6.406   0.328   0.293 -0.6899 -0.0629 -0.7803
  366HK4    H1430678   6.383   0.378   0.198 -0.9382  1.6095  0.1386
  366HK4    C3230679   6.500   0.225   0.300 -0.4049  0.2557  0.1715
  366HK4    H1630680   6.517   0.172   0.206 -1.7653  1.2371 -0.6692
  366HK4    C3130681   6.554   0.188   0.422  0.3328  0.3738 -0.1195
  366HK4    C3430682   6.649   0.091   0.474  0.0475  0.3016  0.2724
  366HK4    C3330683   6.664   0.111   0.616 -0.5970 -0.2841  0.4251
  366HK4    C3530684   6.763   0.039   0.681 -0.4527 -0.2937  0.1941
  366HK4    H1730685   6.767   0.046   0.790  1.1088  0.7051  0.0879
  366HK4    C3630686   6.858  11.206   0.619  0.3222  0.7109  0.0540
  366HK4    H1830687   6.946  11.172   0.676  0.3722 -1.2045 -1.1367
  366HK4    C3730688   6.844  11.195   0.481  0.2612  0.1803  0.0995
  366HK4    H1930689   6.915  11.133   0.426 -0.5535 -0.6383 -0.0387
  366HK4    C3830690   6.743   0.011   0.410 -0.2312 -0.1834  0.4632
  366HK4    H2030691   6.718  11.222   0.310 -0.2037 -0.6162  0.6174
  366HK4    C1430692   6.228   0.463   0.414 -0.1981 -0.3188 -0.1088
  366HK4     C930693   6.125   0.459   0.319 -0.1531  0.2006 -0.1825
  366HK4     C830694   6.037   0.567   0.300 -0.7021 -0.0929  0.6551
  366HK4    C1130695   6.054   0.681   0.377  0.3341  0.2115  0.0004
  366HK4     H430696   6.007   0.776   0.346 -1.5882 -0.9350 -0.7196
  366HK4    C1230697   6.145   0.682   0.482  0.0419  0.0973  0.2574
  366HK4     H530698   6.118   0.749   0.565 -0.4646 -0.9098  0.9091
  366HK4    C1330699   6.226   0.571   0.505  0.0046 -0.0682 -0.4012
  366HK4     H630700   6.285   0.574   0.597 -1.3455  0.0665  0.4787
  366HK4     C730701   5.936   0.571   0.192  0.0313 -0.4674 -0.0551
  366HK4     O230702   5.844   0.653   0.196  0.2227 -0.2465 -0.2036
  366HK4     C430703   5.937   0.457   0.097 -0.1356 -0.4661 -0.0592
  366HK4     C330704   5.847   0.460  11.240  0.0565 -0.1088 -0.2177
  366HK4     H330705   5.767   0.536  11.243  1.8961  1.7667  3.6275
  366HK4     C230706   5.840   0.356  11.147 -0.5268 -0.1411 -0.1449
  366HK4     H230707   5.772   0.378  11.063  0.0559  0.9336 -0.3551
  366HK4     C130708   5.922   0.245  11.158 -0.1058  0.1918  0.1013
  366HK4     H130709   5.939   0.183  11.069 -0.0851 -1.7379  1.4242
  366HK4     C630710   6.016   0.241   0.016  0.0666 -0.3446 -0.0685
  366HK4     C530711   6.021   0.345   0.110 -0.5286 -0.7116  0.3776
  366HK4    C1030712   6.103   0.338   0.234 -0.0403 -0.0188  0.1000
  366HK4     O130713   6.105   0.236   0.303  0.5876 -0.2227 -0.2201
  366HK4    C1630714   6.093   0.117   0.001  0.0403 -0.2833 -0.7163
  366HK4    C1530715   6.227   0.115   0.045 -0.3371  0.6348  0.4922
  366HK4     H730716   6.284   0.209   0.056 -0.3306  0.6992 -0.0679
  366HK4    C2030717   6.295  11.243   0.060 -0.9346  0.2392  0.0487
  366HK4     H930718   6.399  11.243   0.092 -0.4449  1.3319 -1.4696
  366HK4    C1930719   6.240  11.119   0.028 -0.3405 -0.0758  0.2445
  366HK4    C1830720   6.101  11.117  11.234 -0.1793  0.1728 -0.2973
  366HK4    C1730721   6.037  11.240  11.224 -0.6838 -0.0747 -0.1429
  366HK4     H830722   5.929  11.237  11.234 -0.7481  0.7855 -0.5766
  366HK4     N130723   6.068  10.987  11.191  0.3457 -0.1630  0.2955
  366HK4    C2130724   6.190  10.916  11.193  0.3124 -0.2194  0.2958
  366HK4    C2230725   6.301  10.990   0.001  0.2044  0.2525 -0.1109
  366HK4    C2630726   6.430  10.941  11.235  0.1549 -0.0470  0.4965
  366HK4    H1330727   6.514  11.001   0.025 -0.4021  0.8467  0.3329
  366HK4    C2530728   6.457  10.822  11.169  0.2844 -0.0368  0.5241
  366HK4    H1230729   6.559  10.784  11.168  1.8244  3.9145  0.1342
  366HK4    C2430730   6.351  10.749  11.116 -0.2420  0.1486  1.3098
  366HK4    H1130731   6.371  10.648  11.077 -2.3042 -0.3724  1.5634
  366HK4    C2330732   6.221  10.797  11.129 -0.5574 -0.3735  0.1444
  366HK4    H1030733   6.152  10.746  11.062  1.3314  0.2941 -2.4358
  366HK4    C3930734   5.945  10.920  11.184  0.5372 -0.5019  0.1946
  366HK4    C4130735   5.855  10.944   0.042 -0.5909  0.3524 -0.9413
  366HK4    H2130736   5.894  10.970   0.142  0.9112 -3.6784 -0.3801
  366HK4    C4230737   5.717  10.932   0.029 -0.5914 -0.4498 -0.2869
  366HK4    H2230738   5.654  10.941   0.118 -0.2922  0.3375 -0.1455
  366HK4    C4330739   5.660  10.894  11.156 -0.1957 -0.3857 -0.4924
  366HK4    H2330740   5.553  10.877  11.146 -0.2631 -0.3881  0.1782
  366HK4    C4430741   5.746  10.874  11.049  0.1591  0.5865 -0.3976
  366HK4    H2430742   5.705  10.853  10.949  1.0703 -1.3504 -0.3815
  366HK4    C4530743   5.884  10.886  11.062  0.1076  0.6945  0.0731
  366HK4    H2530744   5.954  10.847  10.987 -1.0220 -0.4515 -0.4024
  367HK4    H2830745   6.942   6.881   1.770  1.5183  1.3794 -2.2173
  367HK4    C4830746   6.954   6.777   1.740 -0.1165  0.4467  0.2197
  367HK4    C4730747   7.077   6.711   1.744 -0.2265  0.1518 -1.1337
  367HK4    H2730748   7.155   6.739   1.816  0.0629 -2.8287 -0.2152
  367HK4    C4630749   7.099   6.592   1.675 -0.2368 -0.4120 -0.1662
  367HK4    H2630750   7.201   6.551   1.669 -1.0366 -2.4537 -0.1263
  367HK4    C4030751   6.990   6.531   1.609 -0.5686 -0.9256  0.8455
  367HK4    C5030752   6.867   6.600   1.600  0.1428  0.2764  0.2310
  367HK4    H3030753   6.777   6.543   1.573  0.9233 -1.5957  1.4641
  367HK4    C4930754   6.849   6.717   1.672  0.0754  0.4700 -0.0984
  367HK4    H2930755   6.748   6.759   1.682 -0.0313 -0.3405  2.8074
  367HK4     N230756   7.009   6.421   1.525  0.0804 -0.1027 -0.0997
  367HK4    C3030757   7.127   6.395   1.452 -0.0756  0.1053 -0.4247
  367HK4    C2930758   7.227   6.481   1.409  0.1637 -0.1240 -0.3340
  367HK4    H1530759   7.197   6.581   1.376 -1.1723 -0.3793  0.0688
  367HK4    C2830760   7.349   6.427   1.370 -0.0449 -0.7082 -0.1815
  367HK4    C2730761   7.358   6.288   1.353  0.1325 -0.6809 -0.3243
  367HK4    H1430762   7.448   6.245   1.306  0.9391 -0.7358  1.2263
  367HK4    C3230763   7.247   6.206   1.372 -0.0511 -0.2318  0.5328
  367HK4    H1630764   7.232   6.107   1.330  0.3204 -0.2717  0.4865
  367HK4    C3130765   7.129   6.252   1.429  0.1605 -0.1044  0.8723
  367HK4    C3430766   7.003   6.190   1.466 -0.1472 -0.1186 -0.1976
  367HK4    C3330767   6.932   6.303   1.525  0.0082 -0.0544 -0.1329
  367HK4    C3530768   6.816   6.282   1.598  0.0898  0.1638  0.0558
  367HK4    H1730769   6.799   6.335   1.692 -1.4096 -1.9957  1.0489
  367HK4    C3630770   6.754   6.159   1.579 -0.1309  0.3430 -0.3814
  367HK4    H1830771   6.651   6.142   1.614  0.2817 -0.9365  0.2090
  367HK4    C3730772   6.816   6.054   1.513  0.1260  0.0020  0.3972
  367HK4    H1930773   6.770   5.957   1.498  1.7861 -0.8389  0.5704
  367HK4    C3830774   6.944   6.065   1.459  0.0259 -0.2182  0.1168
  367HK4    H2030775   6.982   5.990   1.389  0.7694 -0.8602  1.1973
  367HK4    C1430776   7.454   6.515   1.316 -0.4305 -0.2827 -0.2464
  367HK4     C930777   7.553   6.462   1.233 -0.1015 -0.3475  0.1828
  367HK4     C830778   7.687   6.468   1.276 -0.1807  0.4532  0.3084
  367HK4    C1130779   7.709   6.560   1.378  0.3323  0.7286 -0.0484
  367HK4     H430780   7.801   6.538   1.433  1.1804  2.4530 -0.7306
  367HK4    C1230781   7.618   6.646   1.440 -0.5847 -0.1843 -0.1221
  367HK4     H530782   7.638   6.727   1.511 -3.2485  1.1468 -0.8090
  367HK4    C1330783   7.486   6.617   1.408 -0.5244  0.0381 -0.5729
  367HK4     H630784   7.416   6.671   1.474  1.7191  1.1777  0.9554
  367HK4     C730785   7.790   6.386   1.208 -0.5167  0.5056 -0.2652
  367HK4     O230786   7.907   6.406   1.242 -0.4501 -0.4019  0.0408
  367HK4     C430787   7.752   6.305   1.090  0.3227 -0.1370 -0.0936
  367HK4     C330788   7.835   6.207   1.037  0.6454  0.3240 -0.4450
  367HK4     H330789   7.925   6.177   1.094  0.2440  0.1672  0.1058
  367HK4     C230790   7.806   6.148   0.915  0.3787  0.0068 -0.2278
  367HK4     H230791   7.877   6.079   0.866 -0.0897 -0.9081  0.3911
  367HK4     C130792   7.695   6.187   0.841 -0.0251  0.2020  0.4725
  367HK4     H130793   7.669   6.121   0.757 -2.9088  2.0459 -0.1398
  367HK4     C630794   7.622   6.299   0.883 -0.1100  0.1127  0.5660
  367HK4     C530795   7.639   6.343   1.015 -0.4249 -0.5390  0.8237
  367HK4    C1030796   7.532   6.408   1.096 -0.6106  0.0613  0.1012
  367HK4     O130797   7.424   6.436   1.044 -0.3642  0.0195 -0.4426
  367HK4    C1630798   7.548   6.363   0.773  0.1666 -0.1171  0.2486
  367HK4    C1530799   7.524   6.306   0.646 -0.3116  0.3811  0.1129
  367HK4     H730800   7.510   6.197   0.638  2.4662  0.0416 -0.6567
  367HK4    C2030801   7.492   6.369   0.527  0.3009  0.0075 -0.2476
  367HK4     H930802   7.517   6.322   0.431 -0.1787 -1.7362  0.4537
  367HK4    C1930803   7.463   6.504   0.535 -0.6224 -0.2049 -0.0078
  367HK4    C1830804   7.479   6.572   0.663 -0.0813  0.2196 -0.3015
  367HK4    C1730805   7.521   6.499   0.773 -0.5194 -0.2522 -0.4445
  367HK4     H830806   7.559   6.552   0.860 -1.7949 -0.5712  0.3314
  367HK4     N130807   7.431   6.704   0.669  0.2695  0.3444 -0.2426
  367HK4    C2130808   7.378   6.716   0.539  0.1596  0.2812 -0.2035
  367HK4    C2230809   7.395   6.601   0.452  0.2724  0.2778 -0.1757
  367HK4    C2630810   7.362   6.607   0.317  0.1332  0.4194 -0.1360
  367HK4    H1330811   7.383   6.528   0.244 -2.2918 -0.6895  0.3375
  367HK4    C2530812   7.306   6.725   0.269 -0.6513  0.0577 -0.1183
  367HK4    H1230813   7.267   6.715   0.168  0.2258  1.1304 -0.5710
  367HK4    C2430814   7.305   6.841   0.345 -0.3695  0.2272 -0.3705
  367HK4    H1130815   7.276   6.936   0.298 -0.2570 -0.0034 -0.9044
  367HK4    C2330816   7.336   6.835   0.480  0.5126  0.2237 -0.5738
  367HK4    H1030817   7.332   6.931   0.533 -1.6845  0.8446 -1.8275
  367HK4    C3930818   7.366   6.766   0.777  0.2884 -0.3373  0.1593
  367HK4    C4130819   7.363   6.906   0.790  1.0731 -0.3455  0.4256
  367HK4    H2130820   7.418   6.962   0.712 -1.2583  2.6777  0.8652
  367HK4    C4230821   7.302   6.970   0.897 -0.4084 -0.1534 -0.5154
  367HK4    H2230822   7.309   7.079   0.910  0.7343 -0.2442 -0.2971
  367HK4    C4330823   7.235   6.903   0.998 -0.5136  0.1654 -0.3704
  367HK4    H2330824   7.161   6.967   1.046  0.3506  0.3336  0.7562
  367HK4    C4430825   7.230   6.765   0.984  0.4641  0.0497  0.4116
  367HK4    H2430826   7.182   6.709   1.066  1.2765  1.0892  1.6048
  367HK4    C4530827   7.293   6.700   0.878 -0.0084 -0.0021  0.1632
  367HK4    H2530828   7.288   6.590   0.871  0.7768 -0.2783  3.3737
  368HK4    H2830829   1.693   3.278   4.933  0.2443  0.1160 -0.7117
  368HK4    C4830830   1.661   3.199   5.001 -0.3766  0.0931 -1.0192
  368HK4    C4730831   1.751   3.122   5.075 -0.7456  0.5424 -0.1026
  368HK4    H2730832   1.855   3.104   5.044 -0.9797  0.1710 -0.6938
  368HK4    C4630833   1.701   3.048   5.181 -0.2356  0.3675  0.0137
  368HK4    H2630834   1.773   2.994   5.246  0.6574 -0.3204 -1.5053
  368HK4    C4030835   1.567   3.050   5.223 -0.0064  0.2242  0.7653
  368HK4    C5030836   1.480   3.130   5.146 -0.1382 -0.8992 -0.2661
  368HK4    H3030837   1.374   3.124   5.172  0.1493 -0.1186  1.0933
  368HK4    C4930838   1.527   3.201   5.036 -0.0452 -0.0770  0.2960
  368HK4    H2930839   1.456   3.250   4.967 -0.1759 -0.0037  0.4853
  368HK4     N230840   1.513   2.933   5.280  0.2034 -0.0891  0.3240
  368HK4    C3030841   1.571   2.805   5.273  0.5957  0.0691  0.7174
  368HK4    C2930842   1.655   2.748   5.179 -0.3320 -0.1310  0.0056
  368HK4    H1530843   1.698   2.810   5.100  1.1193 -0.6944  0.3314
  368HK4    C2830844   1.699   2.616   5.182  0.4546  0.1136 -0.5425
  368HK4    C2730845   1.658   2.539   5.293 -0.2235  0.8332 -0.2944
  368HK4    H1430846   1.706   2.441   5.298 -0.3063  0.7968 -0.2123
  368HK4    C3230847   1.568   2.588   5.387  0.7325  0.4421  0.8283
  368HK4    H1630848   1.558   2.529   5.478 -0.8278 -0.9786 -0.2304
  368HK4    C3130849   1.517   2.717   5.375 -0.0956  0.0740  0.3561
  368HK4    C3430850   1.416   2.796   5.442 -0.3739 -0.1546  0.2078
  368HK4    C3330851   1.413   2.926   5.379  0.2985 -0.0313  0.4261
  368HK4    C3530852   1.329   3.023   5.432  0.2293  0.3711 -0.4082
  368HK4    H1730853   1.327   3.123   5.390  0.6998  0.2397 -0.7422
  368HK4    C3630854   1.248   2.992   5.541  0.0936  0.1440 -0.5700
  368HK4    H1830855   1.162   3.052   5.571  0.4281  0.8933 -1.1021
  368HK4    C3730856   1.256   2.868   5.604 -0.3136  0.2633 -0.2881
  368HK4    H1930857   1.189   2.845   5.687 -1.0639  0.4178 -0.8374
  368HK4    C3830858   1.344   2.771   5.559 -0.4278 -0.0660  0.1941
  368HK4    H2030859   1.332   2.668   5.592  0.2433  0.0191  0.7136
  368HK4    C1430860   1.751   2.547   5.063  0.4081 -0.3147 -0.3173
  368HK4     C930861   1.729   2.412   5.034  0.0629 -0.3441  0.0760
  368HK4     C830862   1.832   2.335   4.976  0.1358  0.0764 -0.3529
  368HK4    C1130863   1.954   2.396   4.947  0.1949  0.2083  0.1646
  368HK4     H430864   2.042   2.329   4.947 -1.3603 -1.9373 -2.2766
  368HK4    C1230865   1.961   2.535   4.949  0.9413  0.1651  0.7700
  368HK4     H530866   2.051   2.583   4.907 -0.1370  1.0714 -0.5744
  368HK4    C1330867   1.865   2.612   5.012  0.0808  0.1394 -0.4800
  368HK4     H630868   1.855   2.716   4.977 -0.4814  0.1825 -0.1962
  368HK4     C730869   1.818   2.189   4.956  0.0048 -0.0043  0.3087
  368HK4     O230870   1.918   2.118   4.960 -0.0544 -0.0867  0.3234
  368HK4     C430871   1.682   2.132   4.966  0.0028 -0.0933 -0.1779
  368HK4     C330872   1.656   1.995   4.956 -0.1235 -0.0481 -0.4705
  368HK4     H330873   1.733   1.922   4.926 -0.1460 -0.2756  0.0329
  368HK4     C230874   1.527   1.946   4.942 -0.1742  0.0096 -0.2028
  368HK4     H230875   1.521   1.838   4.927 -0.5322  0.1012 -0.7195
  368HK4     C130876   1.422   2.036   4.932 -0.1726  0.0526  0.1548
  368HK4     H130877   1.324   1.988   4.949 -0.0939 -0.6384 -1.2851
  368HK4     C630878   1.442   2.176   4.938 -0.3047  0.0544  0.5798
  368HK4     C530879   1.571   2.219   4.966 -0.0924 -0.2122  0.0280
  368HK4    C1030880   1.591   2.357   5.019  0.0100 -0.1203 -0.2516
  368HK4     O130881   1.498   2.431   5.049  0.6526  0.5942  0.0040
  368HK4    C1630882   1.327   2.260   4.899 -0.1407 -0.1406 -0.3513
  368HK4    C1530883   1.195   2.214   4.916 -0.1548  0.0865  0.1596
  368HK4     H730884   1.182   2.137   4.994 -2.7846  0.5475  0.2235
  368HK4    C2030885   1.084   2.282   4.867  0.2607  0.3678 -0.3929
  368HK4     H930886   0.989   2.237   4.898  0.9302 -0.3315  0.6966
  368HK4    C1930887   1.100   2.395   4.788  0.4993  0.1333 -0.6837
  368HK4    C1830888   1.236   2.443   4.771  0.5007  0.3020 -0.2123
  368HK4    C1730889   1.345   2.373   4.821  0.2399  0.1481  0.1485
  368HK4     H830890   1.441   2.405   4.780  0.3636 -0.8455 -0.3448
  368HK4     N130891   1.234   2.553   4.684 -0.1623 -0.0834 -0.6960
  368HK4    C2130892   1.103   2.563   4.633 -0.2965 -0.3465 -0.4016
  368HK4    C2230893   1.013   2.471   4.700 -0.3140 -0.1118 -0.1018
  368HK4    C2630894   0.892   2.446   4.637 -0.5245 -0.1634  0.3201
  368HK4    H1330895   0.814   2.387   4.685 -1.5987  0.4237 -0.6730
  368HK4    C2530896   0.859   2.495   4.511  0.0904  0.6508  0.4705
  368HK4    H1230897   0.781   2.451   4.450  0.1200 -0.1569  0.9986
  368HK4    C2430898   0.942   2.592   4.456  0.1567  0.3460  0.0341
  368HK4    H1130899   0.905   2.638   4.363 -0.4606 -1.3140 -0.5526
  368HK4    C2330900   1.060   2.630   4.519  0.4135  0.2006 -0.3539
  368HK4    H1030901   1.125   2.698   4.465  3.1427 -1.4260  0.7985
  368HK4    C3930902   1.326   2.658   4.696 -0.7637  0.3254  0.3477
  368HK4    C4130903   1.347   2.751   4.592 -0.2789  0.4211  0.5278
  368HK4    H2130904   1.329   2.710   4.492 -0.8185  1.8431  0.0270
  368HK4    C4230905   1.418   2.870   4.604  0.9263 -0.2762  0.2963
  368HK4    H2230906   1.427   2.950   4.530  0.4428 -1.2059 -0.7877
  368HK4    C4330907   1.480   2.891   4.726  0.4698 -0.3993  0.5519
  368HK4    H2330908   1.565   2.959   4.738 -0.0012  0.4113 -0.6969
  368HK4    C4430909   1.464   2.799   4.830 -0.2759  0.0696  0.8552
  368HK4    H2430910   1.516   2.813   4.926 -0.0333 -0.3187  0.7836
  368HK4    C4530911   1.388   2.684   4.820  0.1249 -0.1337  0.0100
  368HK4    H2530912   1.373   2.623   4.911  1.0495  2.3743  1.9137
  369HK4    H2830913   7.337   5.628  10.868  0.4226  1.0518 -2.2541
  369HK4    C4830914   7.303   5.729  10.888 -0.4873  0.2812  0.2939
  369HK4    C4730915   7.388   5.805  10.967 -0.2749 -0.1877  0.5197
  369HK4    H2730916   7.461   5.756  11.033 -1.6057 -1.0727  1.3569
  369HK4    C4630917   7.365   5.942  10.962 -0.0981 -0.1476  0.8267
  369HK4    H2630918   7.444   6.007  11.004  0.1456  0.1870 -0.1259
  369HK4    C4030919   7.266   6.009  10.888  0.0579  0.0626  0.8042
  369HK4    C5030920   7.182   5.924  10.813  0.6392  0.2183 -0.0335
  369HK4    H3030921   7.087   5.967  10.778  2.0108  2.9368 -0.5066
  369HK4    C4930922   7.199   5.786  10.815 -0.3310  0.0948 -0.0741
  369HK4    H2930923   7.146   5.719  10.746 -0.2288  0.0754 -0.1340
  369HK4     N230924   7.234   6.145  10.902 -0.2772  0.0953 -0.2329
  369HK4    C3030925   7.253   6.210  11.025 -0.1446  0.2591 -0.3389
  369HK4    C2930926   7.228   6.162  11.153  0.4402 -0.1315 -0.3701
  369HK4    H1530927   7.203   6.056  11.161  1.5581 -0.2782  1.6120
  369HK4    C2830928   7.232   6.249   0.013  0.2087 -0.4529 -0.0955
  369HK4    C2730929   7.258   6.386  11.237 -0.3382 -0.3410 -0.0318
  369HK4    H1430930   7.258   6.460   0.070  2.6102  1.2281 -1.3993
  369HK4    C3230931   7.283   6.439  11.111 -0.5333 -0.2521 -0.0348
  369HK4    H1630932   7.291   6.547  11.099 -0.5402 -0.1112  1.2415
  369HK4    C3130933   7.280   6.351  11.003  0.1176  0.1952 -0.4215
  369HK4    C3430934   7.267   6.372  10.860 -0.6781  0.3630 -0.3298
  369HK4    C3330935   7.242   6.242  10.800 -0.1485  0.1737 -0.1440
  369HK4    C3530936   7.253   6.228  10.662 -0.4234  0.0985 -0.1613
  369HK4    H1730937   7.246   6.125  10.627 -1.1875 -0.2342  0.9272
  369HK4    C3630938   7.297   6.334  10.584 -0.6324  0.2258 -0.1098
  369HK4    H1830939   7.318   6.304  10.480 -1.8025 -0.4778 -0.1478
  369HK4    C3730940   7.313   6.460  10.640 -0.3162  0.5179 -0.8550
  369HK4    H1930941   7.318   6.552  10.582 -1.6067  1.3626  0.3638
  369HK4    C3830942   7.300   6.479  10.777  0.3330 -0.2251 -0.6848
  369HK4    H2030943   7.300   6.581  10.814  0.7752 -0.9730  1.4565
  369HK4    C1430944   7.203   6.188   0.144 -0.4476 -0.5843 -0.3008
  369HK4     C930945   7.155   6.260   0.253  0.1008 -0.5974 -0.0479
  369HK4     C830946   7.196   6.225   0.384 -0.7695 -0.2554  0.3244
  369HK4    C1130947   7.277   6.113   0.400 -0.0595  0.1722 -0.2160
  369HK4     H430948   7.305   6.074   0.499  1.0512  1.9230  0.1825
  369HK4    C1230949   7.313   6.035   0.291 -0.2219 -0.5840  0.2670
  369HK4     H530950   7.368   5.940   0.303  0.4616 -0.2257  0.0411
  369HK4    C1330951   7.277   6.069   0.161  0.0778 -0.1724  0.2898
  369HK4     H630952   7.340   6.031   0.079 -2.5463  1.1317 -2.4119
  369HK4     C730953   7.153   6.306   0.500  0.2587  0.2861  0.3329
  369HK4     O230954   7.212   6.293   0.608 -0.2890 -0.0717  0.5908
  369HK4     C430955   7.042   6.402   0.490 -0.1346 -0.2462 -0.4480
  369HK4     C330956   6.999   6.481   0.597 -0.2926 -0.7045 -0.1738
  369HK4     H330957   7.072   6.502   0.676 -0.5256  1.0293 -0.4173
  369HK4     C230958   6.875   6.543   0.600  0.2379  0.3672 -0.3831
  369HK4     H230959   6.838   6.615   0.673 -2.5003 -0.8825 -0.4993
  369HK4     C130960   6.796   6.521   0.487  0.1814 -0.0855 -0.2536
  369HK4     H130961   6.689   6.541   0.498  0.2468  0.5553 -0.7561
  369HK4     C630962   6.839   6.453   0.371  0.5290  0.1494 -0.2627
  369HK4     C530963   6.966   6.394   0.371  0.2328 -0.4880 -0.6668
  369HK4    C1030964   7.033   6.346   0.247 -0.0381 -0.8379 -0.6785
  369HK4     O130965   7.010   6.403   0.141  0.6767  0.1615 -0.3068
  369HK4    C1630966   6.744   6.439   0.261 -0.1664  0.2706  0.3212
  369HK4    C1530967   6.645   6.539   0.251 -0.4152 -0.0518 -0.5234
  369HK4     H730968   6.673   6.644   0.268  0.4510 -0.5033  0.8868
  369HK4    C2030969   6.519   6.519   0.196 -0.7902 -0.3938  0.4431
  369HK4     H930970   6.440   6.594   0.202 -2.5351 -2.0791 -0.5948
  369HK4    C1930971   6.503   6.394   0.138  0.3074 -0.1464 -0.4014
  369HK4    C1830972   6.604   6.290   0.133  0.1844 -0.2739 -0.1934
  369HK4    C1730973   6.723   6.316   0.201 -0.0418  0.4377 -0.0672
  369HK4     H830974   6.805   6.245   0.205 -0.7466 -0.4257 -0.4597
  369HK4     N130975   6.572   6.184   0.045 -0.0867 -0.3383 -0.0168
  369HK4    C2130976   6.441   6.210   0.002 -0.1860 -0.4826  0.1916
  369HK4    C2230977   6.398   6.338   0.054  0.0652 -0.3300  0.0181
  369HK4    C2630978   6.274   6.393   0.023  0.1457  0.0736  0.4103
  369HK4    H1330979   6.241   6.495   0.045 -0.8284 -0.3869  1.1176
  369HK4    C2530980   6.190   6.318  11.190 -0.2102 -0.0688  0.9151
  369HK4    H1230981   6.086   6.351  11.190  0.5203  2.5322 -3.0822
  369HK4    C2430982   6.235   6.200  11.134 -0.0266  0.4452 -0.0238
  369HK4    H1130983   6.175   6.147  11.058 -0.2512  0.7827 -0.0812
  369HK4    C2330984   6.359   6.143  11.159 -0.2698 -0.0910 -0.0223
  369HK4    H1030985   6.386   6.045  11.121  1.0421 -0.5282  1.9683
  369HK4    C3930986   6.662   6.085   0.003  0.0530 -0.1956 -0.0543
  369HK4    C4130987   6.617   5.954  11.225 -0.1605  0.0248 -0.8085
  369HK4    H2130988   6.511   5.938   0.002 -0.2720  1.6362 -0.2269
  369HK4    C4230989   6.698   5.867  11.152  0.4153  0.1361 -0.3088
  369HK4    H2230990   6.671   5.762  11.131  4.4710 -1.3108  1.3146
  369HK4    C4330991   6.818   5.911  11.098  0.5021 -0.0718 -0.2882
  369HK4    H2330992   6.873   5.855  11.022 -0.7153 -1.0838 -0.4340
  369HK4    C4430993   6.865   6.038  11.127 -0.0000  0.0312  0.0877
  369HK4    H2430994   6.965   6.073  11.095  0.5087 -0.6189  0.9536
  369HK4    C4530995   6.784   6.128  11.195  0.0960  0.0268  0.2109
  369HK4    H2530996   6.830   6.227  11.212  0.7689  0.0567 -1.6304
  370HK4    H2830997   5.360   9.313   4.123  0.6454  0.7732  3.0404
  370HK4    C4830998   5.397   9.211   4.137 -0.0864  0.0242 -0.0625
  370HK4    C4730999   5.358   9.146   4.253 -0.2689 -0.0123 -0.1449
  370HK4    H2731000   5.254   9.163   4.284  0.1370  3.9000 -0.7706
  370HK4    C4631001   5.419   9.028   4.297 -0.1085  0.2006  0.2160
  370HK4    H2631002   5.375   8.971   4.380 -0.7135 -0.0316 -0.2621
  370HK4    C4031003   5.516   8.967   4.215 -0.7598 -0.0502 -0.3709
  370HK4    C5031004   5.557   9.034   4.097 -0.2560 -0.5349 -0.4722
  370HK4    H3031005   5.612   8.992   4.012  0.4690 -0.8551  0.1551
  370HK4    C4931006   5.492   9.149   4.056  0.2049 -0.0002  0.2955
  370HK4    H2931007   5.525   9.202   3.966  2.6385  1.5071  2.0095
  370HK4     N231008   5.553   8.834   4.233  0.1627  0.2506  0.0025
  370HK4    C3031009   5.464   8.737   4.284  0.2052  0.4855  0.5254
  370HK4    C2931010   5.326   8.724   4.272  0.2599  0.1090  0.2975
  370HK4    H1531011   5.266   8.798   4.220 -0.6406 -0.5288  0.4275
  370HK4    C2831012   5.257   8.620   4.334  0.1491  0.1678  0.2660
  370HK4    C2731013   5.338   8.527   4.401  0.1085 -0.4745 -0.5624
  370HK4    H1431014   5.293   8.432   4.433 -0.8324  0.0403 -0.3353
  370HK4    C3231015   5.476   8.530   4.417  0.0065  0.3839  0.1925
  370HK4    H1631016   5.529   8.456   4.478 -1.7127 -0.0472  1.1925
  370HK4    C3131017   5.541   8.631   4.347  0.1673  0.1025 -0.0647
  370HK4    C3431018   5.680   8.653   4.310  0.1664  0.1326 -0.0504
  370HK4    C3331019   5.684   8.783   4.248  0.0837 -0.1574 -0.6716
  370HK4    C3531020   5.808   8.830   4.207 -0.2143  0.0088 -1.4102
  370HK4    H1731021   5.807   8.931   4.168 -2.4923  0.2776 -0.6951
  370HK4    C3631022   5.926   8.756   4.207 -0.4119 -0.3204 -0.1025
  370HK4    H1831023   6.012   8.796   4.152 -0.7719 -0.9244 -1.1221
  370HK4    C3731024   5.920   8.634   4.275  0.3033 -0.1288  0.3132
  370HK4    H1931025   6.011   8.578   4.295  0.1152 -0.2003  0.9706
  370HK4    C3831026   5.800   8.585   4.326  0.1498  0.1720  0.2398
  370HK4    H2031027   5.791   8.492   4.381 -0.7010  0.8821  1.3278
  370HK4    C1431028   5.112   8.638   4.347  0.1324  0.4943 -0.3048
  370HK4     C931029   5.044   8.569   4.449 -0.3645  1.2794 -0.0987
  370HK4     C831030   4.932   8.486   4.424  0.4613  0.0615  0.2207
  370HK4    C1131031   4.877   8.483   4.297  0.3333 -0.3088  0.2845
  370HK4     H431032   4.781   8.432   4.280 -0.9925  1.0064  3.5254
  370HK4    C1231033   4.928   8.569   4.200  0.1720 -0.2303  0.2709
  370HK4     H531034   4.886   8.577   4.099 -1.4092 -1.2554  0.8252
  370HK4    C1331035   5.044   8.642   4.224 -0.0893  0.3368 -0.1883
  370HK4     H631036   5.060   8.731   4.162 -2.5189  0.7989 -0.2047
  370HK4     C731037   4.875   8.404   4.533  0.2134  0.4730  0.4003
  370HK4     O231038   4.796   8.313   4.507  0.4116  0.5396 -0.4302
  370HK4     C431039   4.941   8.405   4.666  0.5215 -0.4256  0.2555
  370HK4     C331040   4.879   8.335   4.769 -0.5204  0.0638 -0.0352
  370HK4     H331041   4.787   8.278   4.749 -1.3493  0.0354  3.5324
  370HK4     C231042   4.938   8.327   4.895 -0.0066 -0.2430 -0.2952
  370HK4     H231043   4.885   8.308   4.989  0.0892 -0.9307 -0.3797
  370HK4     C131044   5.066   8.379   4.907  0.0154 -0.2972 -0.3045
  370HK4     H131045   5.103   8.387   5.010 -1.8381  0.6002  0.3120
  370HK4     C631046   5.139   8.442   4.803  0.1425  0.1296  0.0377
  370HK4     C531047   5.069   8.461   4.684  0.2829  0.2116 -0.0308
  370HK4    C1031048   5.108   8.564   4.583  0.0850 -0.0283 -0.3559
  370HK4     O131049   5.148   8.672   4.625 -0.0455 -0.1082 -0.0286
  370HK4    C1631050   5.281   8.406   4.789 -0.0725 -0.3601 -0.8669
  370HK4    C1531051   5.326   8.278   4.829  0.0229  0.0750  0.4110
  370HK4     H731052   5.249   8.210   4.866  1.2972 -2.2884 -1.1485
  370HK4    C2031053   5.462   8.251   4.846  0.0670  0.0253 -0.0387
  370HK4     H931054   5.488   8.146   4.834 -2.0355 -0.7097  1.5400
  370HK4    C1931055   5.557   8.348   4.816  0.1723 -0.0198  0.1436
  370HK4    C1831056   5.510   8.480   4.779 -0.2149 -0.0446  0.5473
  370HK4    C1731057   5.374   8.506   4.766 -0.1915  0.0914  0.5605
  370HK4     H831058   5.340   8.610   4.766 -2.2360 -0.5663  0.8385
  370HK4     N131059   5.622   8.559   4.744 -0.2348 -0.2410  0.0441
  370HK4    C2131060   5.737   8.482   4.771 -0.0873 -0.1164 -0.2325
  370HK4    C2231061   5.702   8.350   4.819  0.1552  0.2282  0.9220
  370HK4    C2631062   5.803   8.263   4.856 -0.2411 -0.7073 -0.1250
  370HK4    H1331063   5.775   8.167   4.898 -0.0594 -1.3505 -1.4527
  370HK4    C2531064   5.936   8.302   4.845 -0.4835  0.2970  0.4365
  370HK4    H1231065   6.010   8.233   4.886 -0.4448 -0.4688 -0.9243
  370HK4    C2431066   5.972   8.427   4.795 -0.2049  0.1168  0.1847
  370HK4    H1131067   6.070   8.451   4.751  0.5430 -0.5225  1.4823
  370HK4    C2331068   5.871   8.517   4.762 -0.1269 -0.0043 -0.3981
  370HK4    H1031069   5.894   8.617   4.727 -0.0657  0.7720  1.7999
  370HK4    C3931070   5.621   8.699   4.749 -0.1045 -0.2204 -0.4217
  370HK4    C4131071   5.523   8.764   4.826  0.6631 -0.2194  0.5613
  370HK4    H2131072   5.479   8.714   4.914 -0.0455  0.9229  0.8767
  370HK4    C4231073   5.488   8.897   4.805  0.4087 -0.2842  0.5699
  370HK4    H2231074   5.404   8.940   4.862  1.1758  2.0088  0.0331
  370HK4    C4331075   5.561   8.973   4.715 -0.1769 -0.1417  0.2131
  370HK4    H2331076   5.553   9.081   4.727  1.0973 -0.2040  1.8298
  370HK4    C4431077   5.652   8.910   4.631 -0.1629  0.0563  0.0779
  370HK4    H2431078   5.693   8.971   4.549 -1.3950 -0.6792 -1.1089
  370HK4    C4531079   5.680   8.775   4.646  0.2272  0.1319  0.0292
  370HK4    H2531080   5.749   8.729   4.573  0.6174 -0.5014  0.7841
  371HK4    H2831081   4.335   1.081   0.684 -0.2145 -0.9661 -0.1877
  371HK4    C4831082   4.438   1.088   0.718 -0.3014 -0.0816 -0.0856
  371HK4    C4731083   4.468   1.131   0.847  0.2627  0.3172 -0.3489
  371HK4    H2731084   4.395   1.179   0.913 -0.5249 -0.9770 -0.2548
  371HK4    C4631085   4.596   1.117   0.899 -0.0794 -0.1457  0.3741
  371HK4    H2631086   4.616   1.129   1.006 -0.0356 -0.9489  0.4656
  371HK4    C4031087   4.698   1.078   0.809  0.1056  0.0668  0.4918
  371HK4    C5031088   4.667   1.048   0.675 -0.2374  0.6535  0.4353
  371HK4    H3031089   4.746   1.016   0.605 -2.7544 -1.1242 -1.7050
  371HK4    C4931090   4.537   1.052   0.627 -0.1050  0.1633  0.0290
  371HK4    H2931091   4.513   1.042   0.520 -0.7628  2.5090 -0.0590
  371HK4     N231092   4.832   1.085   0.847  0.2784 -0.4532 -0.0136
  371HK4    C3031093   4.881   1.169   0.949  0.3318 -0.3326 -0.1389
  371HK4    C2931094   4.841   1.299   0.979  0.7909 -0.0533 -0.7474
  371HK4    H1531095   4.754   1.343   0.930  0.1211 -1.3659 -0.7423
  371HK4    C2831096   4.923   1.384   1.052  0.2897 -0.1071 -0.1235
  371HK4    C2731097   5.045   1.333   1.104  0.4501  0.3851 -0.0166
  371HK4    H1431098   5.105   1.388   1.178 -2.0664  0.3549  2.1441
  371HK4    C3231099   5.091   1.206   1.074  0.2298  0.3073 -0.0260
  371HK4    H1631100   5.189   1.174   1.108  0.1574  2.2726  2.1526
  371HK4    C3131101   5.014   1.127   0.989  0.9030  0.6618 -0.9731
  371HK4    C3431102   5.040   1.005   0.916  0.0862 -0.0769 -0.0373
  371HK4    C3331103   4.928   0.983   0.828  0.5602 -0.0724 -0.6441
  371HK4    C3531104   4.929   0.870   0.747 -0.3607 -0.3590 -0.2606
  371HK4    H1731105   4.838   0.836   0.697  0.0680 -1.8365 -0.0704
  371HK4    C3631106   5.033   0.778   0.757  0.2977  0.4146  0.0652
  371HK4    H1831107   5.038   0.689   0.693  0.8923  1.5111 -1.4403
  371HK4    C3731108   5.135   0.797   0.850  0.0365 -0.8885  0.6379
  371HK4    H1931109   5.220   0.730   0.846  2.0138  1.5861 -1.0046
  371HK4    C3831110   5.143   0.911   0.929  0.0638 -0.1527 -0.4107
  371HK4    H2031111   5.221   0.928   1.003  0.4896 -0.3314 -0.8182
  371HK4    C1431112   4.893   1.527   1.065  0.0443 -0.1414 -0.3195
  371HK4     C931113   4.998   1.619   1.078  0.2968 -0.5792  0.8192
  371HK4     C831114   4.993   1.731   1.163  0.2829  0.0008  0.0637
  371HK4    C1131115   4.872   1.752   1.228  0.1241  0.0132 -0.2365
  371HK4     H431116   4.873   1.839   1.296  0.2982 -1.1827  1.2965
  371HK4    C1231117   4.762   1.670   1.208 -0.1447  0.4895 -0.7388
  371HK4     H531118   4.679   1.681   1.280 -0.6136  2.8079 -1.5716
  371HK4    C1331119   4.770   1.559   1.126  0.1324  0.1968 -0.3161
  371HK4     H631120   4.676   1.505   1.107 -0.6435  2.0533 -1.9622
  371HK4     C731121   5.112   1.809   1.202  0.0312  0.4222 -0.0157
  371HK4     O231122   5.106   1.899   1.286 -0.6001 -0.1487  0.5535
  371HK4     C431123   5.240   1.781   1.133  0.2775  0.1283  0.5523
  371HK4     C331124   5.358   1.849   1.161  0.1502  0.2949  0.6890
  371HK4     H331125   5.366   1.930   1.235  0.0022  0.0997  0.9205
  371HK4     C231126   5.479   1.816   1.100 -0.3289 -0.5229  0.1646
  371HK4     H231127   5.558   1.892   1.101 -0.6010 -0.2435  0.9274
  371HK4     C131128   5.485   1.708   1.013  0.2089 -0.4887  0.1559
  371HK4     H131129   5.573   1.693   0.950 -0.8511 -0.2578 -1.4157
  371HK4     C631130   5.367   1.637   0.982 -0.0469  0.0357 -0.0903
  371HK4     C531131   5.245   1.678   1.037  0.1935  0.6274  0.0047
  371HK4    C1031132   5.120   1.610   0.992  0.1218  0.4520  0.4665
  371HK4     O131133   5.098   1.609   0.871  0.6708  0.2248  0.3666
  371HK4    C1631134   5.393   1.493   0.965 -1.0637 -0.1410 -0.1470
  371HK4    C1531135   5.458   1.415   1.063 -0.3383  0.3033 -0.2716
  371HK4     H731136   5.472   1.452   1.165  0.3722 -3.4694  1.1009
  371HK4    C2031137   5.478   1.278   1.048  0.1044  0.3947 -0.5024
  371HK4     H931138   5.512   1.229   1.140  1.1196 -0.1320 -1.1463
  371HK4    C1931139   5.443   1.214   0.930 -0.1402 -0.2083 -0.1048
  371HK4    C1831140   5.381   1.300   0.830  0.3439 -0.0332 -0.2544
  371HK4    C1731141   5.364   1.437   0.841  0.3769 -0.0047 -0.5521
  371HK4     H831142   5.379   1.497   0.751  1.7356  2.5977  1.3516
  371HK4     N131143   5.363   1.233   0.708  0.0986  0.0845 -0.2819
  371HK4    C2131144   5.405   1.100   0.732  0.1018  0.0392 -0.5322
  371HK4    C2231145   5.460   1.086   0.865  0.1742  0.0619 -0.5598
  371HK4    C2631146   5.518   0.963   0.897 -0.1892  0.1851  0.6029
  371HK4    H1331147   5.549   0.943   1.000 -2.2353 -0.9962  1.0012
  371HK4    C2531148   5.526   0.856   0.809 -0.4796 -0.2916  1.1582
  371HK4    H1231149   5.556   0.756   0.841 -0.5840 -1.3233 -1.7688
  371HK4    C2431150   5.478   0.871   0.679 -0.0579  0.1120  1.0507
  371HK4    H1131151   5.484   0.790   0.605 -1.3609  2.5686 -1.8547
  371HK4    C2331152   5.412   0.989   0.648  0.0998 -0.1466 -0.2875
  371HK4    H1031153   5.356   0.988   0.555 -1.3526 -1.6509  0.5855
  371HK4    C3931154   5.261   1.271   0.619 -0.2906  0.2173  0.2220
  371HK4    C4131155   5.276   1.233   0.484  0.1613  0.3594  0.2308
  371HK4    H2131156   5.380   1.216   0.452  0.4830  1.8470  0.4470
  371HK4    C4231157   5.163   1.218   0.406 -0.0076 -0.7128  0.6748
  371HK4    H2231158   5.178   1.196   0.299 -0.3118  2.3626 -0.0558
  371HK4    C4331159   5.034   1.238   0.453 -0.2418 -0.2787 -0.1282
  371HK4    H2331160   4.944   1.239   0.391 -1.0613 -1.0124  1.0166
  371HK4    C4431161   5.018   1.277   0.586  0.0670  0.0091 -0.1766
  371HK4    H2431162   4.922   1.318   0.619  0.4077 -0.5108  1.5192
  371HK4    C4531163   5.131   1.301   0.664 -0.2341  0.7600  0.0315
  371HK4    H2531164   5.120   1.349   0.762  1.2387  1.4418 -0.1333
  372HK4    H2831165   5.431   9.912  10.138 -0.4152  0.6684  0.3037
  372HK4    C4831166   5.354   9.841  10.167 -0.2679  0.2047 -0.4118
  372HK4    C4731167   5.368   9.709  10.126 -0.2262  0.1676 -0.2856
  372HK4    H2731168   5.455   9.673  10.070 -0.3901 -1.6908  0.6261
  372HK4    C4631169   5.277   9.617  10.176  0.1107  0.1003  0.1927
  372HK4    H2631170   5.287   9.514  10.139 -0.1241  0.1824 -0.1031
  372HK4    C4031171   5.182   9.654  10.273 -0.0204  0.3015 -0.0127
  372HK4    C5031172   5.171   9.790  10.308 -0.2281  0.2851 -0.0056
  372HK4    H3031173   5.088   9.833  10.366 -0.7290 -0.1145 -0.4220
  372HK4    C4931174   5.254   9.888  10.252 -0.1705  0.1011 -0.2400
  372HK4    H2931175   5.266   9.986  10.300 -2.4872 -0.2144  1.0683
  372HK4     N231176   5.087   9.559  10.312 -0.2522  0.5860  0.1146
  372HK4    C3031177   5.046   9.442  10.243  0.6331  0.4299 -0.1492
  372HK4    C2931178   5.008   9.426  10.110 -0.0367 -0.0427  0.1000
  372HK4    H1531179   5.036   9.507  10.043 -2.5854 -0.3476 -1.3876
  372HK4    C2831180   4.950   9.310  10.061 -1.0942  0.3343  0.4520
  372HK4    C2731181   4.937   9.200  10.148  0.1665 -0.1498  0.0371
  372HK4    H1431182   4.899   9.110  10.099 -2.4987  1.0709 -0.1897
  372HK4    C3231183   4.980   9.207  10.280 -0.2408  0.0791  0.1566
  372HK4    H1631184   4.975   9.129  10.355 -2.8605  0.5088  0.4629
  372HK4    C3131185   5.028   9.328  10.330  0.7464  0.0249 -0.6541
  372HK4    C3431186   5.047   9.384  10.462 -0.4171 -0.1762 -0.3996
  372HK4    C3331187   5.086   9.523  10.448 -0.5999 -0.0886 -0.0609
  372HK4    C3531188   5.095   9.607  10.559 -0.6577  0.0759 -0.1795
  372HK4    H1731189   5.119   9.713  10.558 -1.4573  0.2706  0.6230
  372HK4    C3631190   5.070   9.547  10.681  0.4973 -0.1612 -0.0533
  372HK4    H1831191   5.106   9.605  10.767  1.1208  1.8617 -1.6687
  372HK4    C3731192   5.022   9.417  10.698  0.1325 -0.0474 -0.2139
  372HK4    H1931193   4.981   9.373  10.788 -0.7233  1.3807  0.1131
  372HK4    C3831194   5.016   9.332  10.588 -0.4052  0.0845 -0.2882
  372HK4    H2031195   4.974   9.235  10.610 -1.3971  0.9051  1.5580
  372HK4    C1431196   4.871   9.310   9.936  0.2939  0.1049 -0.4365
  372HK4     C931197   4.769   9.219   9.908  0.1500  0.0416  0.2917
  372HK4     C831198   4.767   9.151   9.785 -0.5351  0.4512  0.0677
  372HK4    C1131199   4.850   9.195   9.681  0.0951 -0.1650  0.3030
  372HK4     H431200   4.834   9.150   9.582 -1.1483  0.2483  0.3056
  372HK4    C1231201   4.942   9.297   9.703  0.4621 -0.3804 -0.2356
  372HK4     H531202   4.983   9.346   9.613 -0.2222  0.7689  0.0782
  372HK4    C1331203   4.954   9.352   9.830  0.3596  0.0455 -0.4089
  372HK4     H631204   5.052   9.400   9.845 -0.0189  1.4175 -2.1903
  372HK4     C731205   4.672   9.039   9.768  0.3549 -0.3373  0.2378
  372HK4     O231206   4.642   9.002   9.654  0.2799 -0.2716  0.2360
  372HK4     C431207   4.577   9.001   9.875 -0.4955 -0.0075 -0.3888
  372HK4     C331208   4.508   8.881   9.866 -0.7960  0.1792 -0.5350
  372HK4     H331209   4.553   8.798   9.809 -0.6181  0.4392 -0.7770
  372HK4     C231210   4.408   8.849   9.957  0.0270  0.1567  0.3608
  372HK4     H231211   4.344   8.760   9.945  2.5775 -1.5597 -1.2863
  372HK4     C131212   4.383   8.947  10.052  0.0221  0.2878  0.2231
  372HK4     H131213   4.320   8.905  10.132 -3.2434  2.3523 -1.1738
  372HK4     C631214   4.440   9.075  10.064  0.1119  0.2804 -0.1518
  372HK4     C531215   4.553   9.089   9.982 -0.3789  0.5195 -0.7935
  372HK4    C1031216   4.655   9.196  10.002 -0.1984  0.2194 -0.0847
  372HK4     O131217   4.664   9.237  10.117 -0.0350 -0.0026 -0.0184
  372HK4    C1631218   4.383   9.169  10.162 -0.1848 -0.0860  0.0288
  372HK4    C1531219   4.307   9.119  10.268  0.2211 -0.1041  0.3113
  372HK4     H731220   4.356   9.033  10.317  0.3575  0.1453  0.6166
  372HK4    C2031221   4.231   9.200  10.351  0.1882  0.3074 -0.1225
  372HK4     H931222   4.170   9.157  10.430 -0.1138 -1.6752 -1.4145
  372HK4    C1931223   4.232   9.339  10.339 -0.1605  0.3286  0.0700
  372HK4    C1831224   4.312   9.392  10.230 -0.0004 -0.1169 -0.0354
  372HK4    C1731225   4.377   9.307  10.142 -0.2284 -0.1197 -0.2012
  372HK4     H831226   4.439   9.347  10.062 -1.3937 -0.2005 -1.1588
  372HK4     N131227   4.324   9.533  10.236 -0.2474 -0.0983  0.0074
  372HK4    C2131228   4.251   9.570  10.351  0.1703  0.1478  0.1912
  372HK4    C2231229   4.195   9.454  10.419 -0.3146  0.2983  0.0409
  372HK4    C2631230   4.135   9.467  10.543  0.0718 -0.2764  0.2907
  372HK4    H1331231   4.072   9.386  10.579  1.4344 -0.4668  2.3538
  372HK4    C2531232   4.132   9.591  10.605 -0.1213 -0.0186 -0.2442
  372HK4    H1231233   4.105   9.594  10.710  0.3454 -0.5727 -0.1098
  372HK4    C2431234   4.176   9.705  10.538 -0.5497  0.1968 -0.1643
  372HK4    H1131235   4.154   9.808  10.570  1.0691  0.5354 -0.0694
  372HK4    C2331236   4.241   9.692  10.416 -0.7603  0.3285 -0.2878
  372HK4    H1031237   4.314   9.770  10.394 -0.4959 -0.2199 -1.4055
  372HK4    C3931238   4.437   9.605  10.196 -0.3520  0.1922  0.2349
  372HK4    C4131239   4.427   9.743  10.170 -0.1545  0.0819 -0.4276
  372HK4    H2131240   4.337   9.782  10.121 -0.3365 -0.8208 -0.8123
  372HK4    C4231241   4.537   9.828  10.178 -0.3896  0.2852  0.6987
  372HK4    H2231242   4.516   9.933  10.155 -1.2580 -0.6160 -2.8947
  372HK4    C4331243   4.657   9.775  10.225 -0.1438 -0.4114 -0.6884
  372HK4    H2331244   4.752   9.828  10.220 -0.6558  0.4261 -1.8786
  372HK4    C4431245   4.667   9.638  10.247 -0.2906 -0.3748 -0.3874
  372HK4    H2431246   4.755   9.605  10.303 -3.0850  0.0395  4.4909
  372HK4    C4531247   4.560   9.550  10.236 -0.3980 -0.2600 -0.2448
  372HK4    H2531248   4.579   9.446  10.267 -0.3603 -0.0579  0.4219
  373HK4    H2831249   8.495   6.729  11.015  0.5959  0.1173  0.6009
  373HK4    C4831250   8.428   6.797  11.067  0.2220  0.2023  0.0143
  373HK4    C4731251   8.473   6.869  11.177  0.2091 -0.3582  0.3847
  373HK4    H2731252   8.542   6.811  11.241 -1.2951  0.1729  2.5359
  373HK4    C4631253   8.389   6.963  11.235  0.2662  0.2095 -0.4532
  373HK4    H2631254   8.435   7.021   0.069  0.6083  1.0999 -1.2600
  373HK4    C4031255   8.259   6.986  11.187  0.0883  0.1414 -0.0079
  373HK4    C5031256   8.212   6.905  11.081  0.0581 -0.4167  0.4271
  373HK4    H3031257   8.106   6.910  11.053 -0.1145 -1.7501  0.8171
  373HK4    C4931258   8.297   6.811  11.023  0.4297  0.4915 -0.5168
  373HK4    H2931259   8.266   6.753  10.935  3.0021 -1.1617 -0.3885
  373HK4     N231260   8.194   7.104  11.224  0.1274  0.1979 -0.1180
  373HK4    C3031261   8.056   7.120  11.247  0.1397  0.3488 -0.1511
  373HK4    C2931262   7.960   7.024   0.027  0.0523  0.4709 -0.0228
  373HK4    H1531263   7.990   6.923   0.055  1.7699  1.1196  0.5147
  373HK4    C2831264   7.824   7.047   0.007 -0.0381  0.2490  0.3241
  373HK4    C2731265   7.787   7.180  11.226  0.0129  0.2410  0.2274
  373HK4    H1431266   7.682   7.212  11.232 -0.8663 -2.7645  1.7786
  373HK4    C3231267   7.875   7.284  11.198 -0.0090 -0.0375 -0.8853
  373HK4    H1631268   7.833   7.377  11.159  0.1194 -0.3780 -1.8439
  373HK4    C3131269   8.010   7.251  11.206  0.0618  0.6285  0.8201
  373HK4    C3431270   8.131   7.329  11.188 -0.0010  0.5144 -0.1553
  373HK4    C3331271   8.240   7.233  11.190 -0.1114  0.3918  0.2854
  373HK4    C3531272   8.364   7.275  11.142 -0.0425 -0.1038  0.0258
  373HK4    H1731273   8.437   7.198  11.117  0.0821  0.5824 -1.7696
  373HK4    C3631274   8.384   7.406  11.100 -0.2524  0.2578  1.0479
  373HK4    H1831275   8.481   7.450  11.072  0.2258 -0.6098  1.3306
  373HK4    C3731276   8.275   7.493  11.105 -0.4419  0.1318 -0.4964
  373HK4    H1931277   8.298   7.597  11.081 -2.4218  0.8345  0.5694
  373HK4    C3831278   8.145   7.458  11.140 -0.4519  0.6020 -0.0508
  373HK4    H2031279   8.059   7.523  11.128  1.1581  2.5049 -1.6425
  373HK4    C1431280   7.733   6.936  11.225  0.3637  0.0990 -0.3380
  373HK4     C931281   7.621   6.944  11.141  0.0342  0.1932  0.1122
  373HK4     C831282   7.507   6.863  11.158 -0.0117  0.2300 -0.0120
  373HK4    C1131283   7.509   6.769   0.013 -0.0614 -0.1153 -0.3260
  373HK4     H431284   7.420   6.704   0.023  0.8679 -1.3648 -0.0261
  373HK4    C1231285   7.621   6.749   0.093 -0.1330 -0.0275 -0.2024
  373HK4     H531286   7.621   6.674   0.173  0.9718  1.8970  1.6459
  373HK4    C1331287   7.728   6.835   0.074  0.0678 -0.4299 -0.8991
  373HK4     H631288   7.813   6.832   0.144  1.6253  0.4658 -2.6919
  373HK4     C731289   7.381   6.892  11.087 -0.1832  0.1763  0.2698
  373HK4     O231290   7.291   6.809  11.093 -0.1221  0.0811 -0.0848
  373HK4     C431291   7.370   7.019  11.012  0.4897  0.3590  0.4747
  373HK4     C331292   7.246   7.066  10.970  0.6012  0.3449  0.1296
  373HK4     H331293   7.158   7.000  10.971  1.3805 -0.6934  1.8483
  373HK4     C231294   7.229   7.195  10.921 -0.2061  0.2110  0.0492
  373HK4     H231295   7.132   7.247  10.925 -0.2229  0.3429 -1.7315
  373HK4     C131296   7.342   7.269  10.892 -0.0456  0.0656  0.3061
  373HK4     H131297   7.329   7.360  10.831  1.0243  1.2641  1.8242
  373HK4     C631298   7.472   7.226  10.928  0.0828  0.1214 -0.0799
  373HK4     C531299   7.483   7.097  10.981  0.4940 -0.1323 -0.7720
  373HK4    C1031300   7.613   7.044  11.030  0.2956  0.0827 -0.0071
  373HK4     O131301   7.711   7.039  10.955  0.1194  0.3386 -0.2559
  373HK4    C1631302   7.566   7.334  10.961 -0.1913  0.2116  0.4123
  373HK4    C1531303   7.527   7.455  11.020 -0.3599  0.6867 -0.6537
  373HK4     H731304   7.426   7.463  11.064 -1.0207  0.9019 -2.1780
  373HK4    C2031305   7.605   7.571  11.017 -0.2388  0.6486  0.4990
  373HK4     H931306   7.569   7.667  11.051  0.7120  1.3620 -0.4652
  373HK4    C1931307   7.732   7.570  10.961 -0.4512  0.3712  0.0126
  373HK4    C1831308   7.772   7.450  10.890 -0.6697  0.4661 -0.2695
  373HK4    C1731309   7.684   7.342  10.887 -0.0915 -0.0322  0.5440
  373HK4     H831310   7.712   7.261  10.820 -0.6512  0.3720 -0.1862
  373HK4     N131311   7.895   7.466  10.824  0.0051 -0.3380  0.7855
  373HK4    C2131312   7.927   7.601  10.843 -0.0044 -0.2120 -0.0528
  373HK4    C2231313   7.831   7.670  10.927 -0.0001 -0.1170 -0.1225
  373HK4    C2631314   7.842   7.806  10.952 -0.4161 -0.0479 -0.3045
  373HK4    H1331315   7.777   7.851  11.028  0.0631 -1.0084  0.6874
  373HK4    C2531316   7.947   7.876  10.894 -0.1925 -0.1988 -0.0862
  373HK4    H1231317   7.962   7.983  10.912  0.6354 -0.4781  0.9013
  373HK4    C2431318   8.039   7.812  10.812 -0.3999 -0.4815 -0.0955
  373HK4    H1131319   8.120   7.875  10.773 -0.5875 -0.1729  0.0121
  373HK4    C2331320   8.031   7.675  10.788  0.4936 -0.6126  0.3449
  373HK4    H1031321   8.123   7.619  10.769  0.2377 -0.7232 -0.6109
  373HK4    C3931322   7.980   7.362  10.783  0.2619  0.2202 -0.1161
  373HK4    C4131323   8.080   7.376  10.684 -0.0166  0.6694 -0.3382
  373HK4    H2131324   8.064   7.450  10.605  0.9197 -0.2994 -1.4543
  373HK4    C4231325   8.180   7.284  10.652 -0.3843 -0.0364  0.5019
  373HK4    H2231326   8.260   7.310  10.582 -1.4386 -0.9995 -1.0952
  373HK4    C4331327   8.183   7.165  10.724 -0.2954  0.0291  0.6022
  373HK4    H2331328   8.259   7.088  10.708 -0.3402 -1.0291  4.9419
  373HK4    C4431329   8.084   7.145  10.819 -0.5015 -1.0108  0.1687
  373HK4    H2431330   8.085   7.046  10.866  0.5039 -2.3273 -2.4927
  373HK4    C4531331   7.981   7.235  10.844  0.2000  0.0041 -0.5595
  373HK4    H2531332   7.915   7.215  10.930  3.0440 -1.8021  1.3219
  374HK4    H2831333   1.468   7.177   9.221  0.0384  1.4858  0.1404
  374HK4    C4831334   1.446   7.161   9.115  0.4088  0.1770  0.2442
  374HK4    C4731335   1.558   7.157   9.033  0.1157 -0.2636 -0.1302
  374HK4    H2731336   1.660   7.153   9.075 -1.8098 -1.0701  4.8244
  374HK4    C4631337   1.534   7.147   8.896  0.0630 -1.3399 -0.0534
  374HK4    H2631338   1.618   7.113   8.834  0.1871 -1.3444  0.1202
  374HK4    C4031339   1.404   7.151   8.842 -0.0633 -0.2852  0.3266
  374HK4    C5031340   1.292   7.161   8.928  0.0693 -0.4651  0.5187
  374HK4    H3031341   1.197   7.201   8.890  0.1444 -1.2091 -0.4686
  374HK4    C4931342   1.316   7.162   9.065  0.3199  0.6967  0.4746
  374HK4    H2931343   1.229   7.150   9.131  0.9134  0.3379  1.2004
  374HK4     N231344   1.391   7.170   8.704  0.0602  0.2097  0.3801
  374HK4    C3031345   1.468   7.236   8.606  0.0899 -0.0233  0.2441
  374HK4    C2931346   1.580   7.316   8.628  0.1769 -0.0217 -0.2051
  374HK4    H1531347   1.576   7.377   8.718 -0.3502  1.3593 -1.1490
  374HK4    C2831348   1.667   7.355   8.527 -0.2008  0.7512 -0.2347
  374HK4    C2731349   1.626   7.328   8.394 -0.1509  0.1128 -0.1262
  374HK4    H1431350   1.705   7.348   8.320  3.1084 -0.0303  3.1260
  374HK4    C3231351   1.503   7.271   8.367  0.1021 -0.5751  0.1462
  374HK4    H1631352   1.464   7.299   8.268 -1.6841  0.4627  1.1134
  374HK4    C3131353   1.425   7.217   8.469 -0.1398  0.0643  0.3071
  374HK4    C3431354   1.314   7.126   8.487  0.2014 -0.4383 -0.1493
  374HK4    C3331355   1.295   7.099   8.628  0.6275 -0.1245 -0.0265
  374HK4    C3531356   1.207   6.999   8.668  0.4107 -0.0624 -0.3567
  374HK4    H1731357   1.189   6.979   8.773  2.3124 -0.8677 -0.1607
  374HK4    C3631358   1.128   6.937   8.571 -0.1726 -0.0492  0.1136
  374HK4    H1831359   1.050   6.864   8.598  0.7444 -1.1486 -0.1598
  374HK4    C3731360   1.143   6.961   8.435  0.0119  0.4949  0.2253
  374HK4    H1931361   1.086   6.918   8.353 -0.1517  0.0015  0.5998
  374HK4    C3831362   1.237   7.055   8.395 -0.2822  0.4955 -0.4633
  374HK4    H2031363   1.250   7.082   8.290 -0.5326  1.4624 -0.2542
  374HK4    C1431364   1.797   7.413   8.565  0.1254 -0.1864  0.0971
  374HK4     C931365   1.868   7.483   8.467  0.3471  0.0134  0.4035
  374HK4     C831366   2.007   7.462   8.452  0.1766 -0.5654 -0.3804
  374HK4    C1131367   2.079   7.397   8.552  0.2745 -0.4216 -0.3571
  374HK4     H431368   2.189   7.395   8.552  0.4130  3.1474  1.3185
  374HK4    C1231369   2.012   7.340   8.659 -0.1416  0.7531  0.0163
  374HK4     H531370   2.063   7.281   8.736 -1.8083 -2.6785 -1.3953
  374HK4    C1331371   1.873   7.349   8.665 -0.1748  0.0361  0.4651
  374HK4     H631372   1.822   7.297   8.747 -1.0200 -0.8501 -0.6103
  374HK4     C731373   2.068   7.484   8.319  0.3149  0.0558 -0.2140
  374HK4     O231374   2.154   7.401   8.290  0.0121 -0.4867  0.4068
  374HK4     C431375   1.984   7.550   8.217 -0.4842 -0.5585  0.0387
  374HK4     C331376   2.034   7.556   8.087 -0.0387  0.6431  0.2649
  374HK4     H331377   2.126   7.504   8.057 -0.4505  0.7699 -1.2530
  374HK4     C231378   1.974   7.635   7.990 -0.0677 -0.1298 -0.3450
  374HK4     H231379   1.978   7.609   7.883 -0.4828 -0.1254 -0.3629
  374HK4     C131380   1.866   7.715   8.026  0.0636 -0.0209 -0.1980
  374HK4     H131381   1.816   7.761   7.940  0.1411  0.5529  0.0602
  374HK4     C631382   1.821   7.718   8.160 -0.4561  0.0463 -0.3738
  374HK4     C531383   1.872   7.627   8.253 -0.1911  0.1070 -0.4588
  374HK4    C1031384   1.807   7.590   8.382  0.5443 -0.3701 -0.2222
  374HK4     O131385   1.714   7.656   8.427  0.4884 -0.6799  0.1144
  374HK4    C1631386   1.710   7.813   8.177 -0.3784 -0.0510  0.6605
  374HK4    C1531387   1.603   7.814   8.085  0.0097  0.2082  0.2074
  374HK4     H731388   1.582   7.715   8.042  2.8443  1.2743 -3.9377
  374HK4    C2031389   1.529   7.924   8.045 -0.3876  0.0086  0.3936
  374HK4     H931390   1.463   7.917   7.958  0.6061  0.6963 -0.4192
  374HK4    C1931391   1.570   8.045   8.098  0.2150 -0.0273  0.0183
  374HK4    C1831392   1.680   8.055   8.192  0.4501 -0.0392 -0.2571
  374HK4    C1731393   1.740   7.937   8.233  0.1833  0.0019  0.2507
  374HK4     H831394   1.800   7.927   8.324 -0.1609  2.0745  0.7234
  374HK4     N131395   1.696   8.186   8.243  0.1485  0.0982 -0.5096
  374HK4    C2131396   1.609   8.270   8.171 -0.8698 -0.1132  0.4573
  374HK4    C2231397   1.535   8.185   8.080  0.0768 -0.1054 -0.3298
  374HK4    C2631398   1.427   8.246   8.018  0.0523  0.0530 -0.1274
  374HK4    H1331399   1.357   8.188   7.959 -1.7699  2.7747 -0.7573
  374HK4    C2531400   1.402   8.383   8.030  0.0563  0.0454 -0.0226
  374HK4    H1231401   1.333   8.430   7.960 -1.4057  0.1887  1.4664
  374HK4    C2431402   1.479   8.463   8.113 -0.4341 -0.1727  0.6490
  374HK4    H1131403   1.438   8.564   8.133 -0.4541  0.6010 -3.0463
  374HK4    C2331404   1.583   8.406   8.185 -0.0225  0.0777  0.2448
  374HK4    H1031405   1.661   8.468   8.228  2.0618 -2.0870 -0.2424
  374HK4    C3931406   1.802   8.229   8.324  0.0350  0.0825 -0.3537
  374HK4    C4131407   1.928   8.167   8.310  0.3063  0.5955 -0.1819
  374HK4    H2131408   1.949   8.103   8.224  2.6028 -0.5279  1.1756
  374HK4    C4231409   2.023   8.168   8.412 -0.0775 -0.5302  0.1845
  374HK4    H2231410   2.110   8.102   8.397 -1.7339 -2.3560 -1.8719
  374HK4    C4331411   2.000   8.243   8.526  0.2998 -0.7911  0.4401
  374HK4    H2331412   2.073   8.247   8.607  0.5897 -0.1193  0.1429
  374HK4    C4431413   1.880   8.312   8.541  0.4276 -0.5181  0.1962
  374HK4    H2431414   1.863   8.392   8.615 -0.5582  0.8497 -1.4540
  374HK4    C4531415   1.782   8.302   8.443  0.7610  0.0240 -0.1964
  374HK4    H2531416   1.681   8.340   8.461  1.6600  1.9070  0.9608
  375HK4    H2831417   4.971   1.621   1.681  0.5148  0.4575 -0.5001
  375HK4    C4831418   4.904   1.575   1.608  0.0203 -0.1430  0.3238
  375HK4    C4731419   4.787   1.524   1.662 -0.0148 -0.5047 -0.0997
  375HK4    H2731420   4.754   1.546   1.765  0.8220 -0.0095  0.0626
  375HK4    C4631421   4.708   1.432   1.593 -0.6221  0.0447 -0.1490
  375HK4    H2631422   4.608   1.404   1.629 -0.1947 -1.0772  0.2013
  375HK4    C4031423   4.750   1.382   1.468 -0.2840  0.2409 -0.1144
  375HK4    C5031424   4.871   1.435   1.418  0.1325 -0.6090 -0.0151
  375HK4    H3031425   4.909   1.403   1.320 -1.0685 -0.7449 -0.4324
  375HK4    C4931426   4.949   1.530   1.485 -0.5168 -0.1854  0.1437
  375HK4    H2931427   5.046   1.558   1.442 -1.0814  0.9315 -0.4350
  375HK4     N231428   4.664   1.316   1.379  0.3415  0.3864 -0.8391
  375HK4    C3031429   4.533   1.354   1.345 -0.0589  0.0296  0.2575
  375HK4    C2931430   4.473   1.476   1.372 -0.0339  0.0073  0.4118
  375HK4    H1531431   4.522   1.549   1.436 -0.3748 -0.8212  1.6368
  375HK4    C2831432   4.338   1.497   1.347  0.0500  0.2647  0.1640
  375HK4    C2731433   4.268   1.385   1.297  0.3064  0.0534  0.2794
  375HK4    H1431434   4.161   1.400   1.279  0.5857  0.2265 -1.2697
  375HK4    C3231435   4.325   1.262   1.265  0.2722  0.0251  0.3288
  375HK4    H1631436   4.265   1.179   1.228 -0.5040  1.7069 -2.3452
  375HK4    C3131437   4.461   1.244   1.283  0.2379 -0.2181  0.3525
  375HK4    C3431438   4.557   1.135   1.274  0.1694 -0.2621  0.1551
  375HK4    C3331439   4.680   1.183   1.334  0.2424  0.2120 -0.3714
  375HK4    C3531440   4.788   1.097   1.345 -0.0614 -0.0118  0.9421
  375HK4    H1731441   4.879   1.132   1.395  1.1694 -0.8639 -0.6363
  375HK4    C3631442   4.779   0.962   1.310 -0.2248  0.2105  0.1110
  375HK4    H1831443   4.865   0.898   1.331 -0.3140  0.9141  2.8436
  375HK4    C3731444   4.661   0.919   1.250  0.1154 -0.0625 -0.3652
  375HK4    H1931445   4.665   0.819   1.207  1.2675  0.5457 -1.6923
  375HK4    C3831446   4.550   1.002   1.236  0.0703 -0.1189 -0.3386
  375HK4    H2031447   4.454   0.962   1.205  0.1066  0.1435 -0.7990
  375HK4    C1431448   4.267   1.607   1.414 -0.0885  0.4070 -0.2166
  375HK4     C931449   4.139   1.590   1.468 -0.0911  0.2146 -0.2758
  375HK4     C831450   4.044   1.693   1.457 -0.2865  0.0455 -0.1597
  375HK4    C1131451   4.084   1.813   1.398 -0.6285  0.1219 -0.2416
  375HK4     H431452   4.001   1.876   1.364 -1.3521 -0.8508 -0.2983
  375HK4    C1231453   4.217   1.841   1.370 -0.3422 -0.0170  0.9355
  375HK4     H531454   4.251   1.940   1.337 -1.4782 -0.8236 -2.8628
  375HK4    C1331455   4.308   1.736   1.376  0.2886  0.5014  0.5150
  375HK4     H631456   4.410   1.759   1.342  0.3279 -1.1670 -0.5466
  375HK4     C731457   3.912   1.688   1.525 -0.1391  0.0763  0.1269
  375HK4     O231458   3.832   1.781   1.524  0.1672  0.3488  0.5430
  375HK4     C431459   3.885   1.563   1.600 -0.6531 -0.3976 -0.8463
  375HK4     C331460   3.757   1.552   1.654 -0.4945  0.0814 -0.3711
  375HK4     H331461   3.710   1.640   1.702  0.3118  0.0730  0.4467
  375HK4     C231462   3.692   1.433   1.682 -0.1284 -0.3653 -1.4190
  375HK4     H231463   3.583   1.428   1.694 -0.1247 -1.3218 -1.7038
  375HK4     C131464   3.767   1.318   1.660  0.4864 -0.3472  0.4881
  375HK4     H131465   3.708   1.225   1.666  0.0099 -0.3836 -3.4946
  375HK4     C631466   3.895   1.320   1.602  0.3636  0.0933  0.2317
  375HK4     C531467   3.957   1.444   1.580  0.3345  0.0615 -0.0342
  375HK4    C1031468   4.100   1.474   1.552  0.3079  0.4487  0.2354
  375HK4     O131469   4.179   1.442   1.641  0.5663  0.1501 -0.0966
  375HK4    C1631470   3.948   1.193   1.551  0.2730  0.1881 -0.0980
  375HK4    C1531471   3.860   1.084   1.535  0.1797  0.1275  0.7857
  375HK4     H731472   3.753   1.104   1.515  0.5273 -0.7690 -2.2610
  375HK4    C2031473   3.904   0.954   1.514 -0.0232  0.1563  0.1721
  375HK4     H931474   3.834   0.872   1.501  0.8770 -0.5045 -0.5321
  375HK4    C1931475   4.039   0.925   1.498 -0.0877  0.2062 -0.4839
  375HK4    C1831476   4.133   1.034   1.515  0.2311 -0.0307 -0.7265
  375HK4    C1731477   4.083   1.162   1.533  0.2577 -0.1678  0.3883
  375HK4     H831478   4.155   1.239   1.508 -1.4468  0.6137 -2.3108
  375HK4     N131479   4.263   0.985   1.541  0.2167  0.3659  0.1262
  375HK4    C2131480   4.248   0.845   1.544 -0.0889  0.4085  0.5582
  375HK4    C2231481   4.115   0.802   1.503 -0.0025  0.2947  0.3979
  375HK4    C2631482   4.071   0.673   1.528 -0.2528  0.3173  0.0765
  375HK4    H1331483   3.983   0.639   1.474  0.4727  0.3585 -1.1540
  375HK4    C2531484   4.151   0.592   1.609  0.2186 -0.1933 -0.8882
  375HK4    H1231485   4.103   0.513   1.665 -0.7500  0.6892 -0.4504
  375HK4    C2431486   4.277   0.628   1.655 -0.1933 -0.0878  0.1707
  375HK4    H1131487   4.327   0.573   1.737 -0.2950 -0.4235  0.0098
  375HK4    C2331488   4.322   0.753   1.617 -0.0945 -0.2533 -0.2603
  375HK4    H1031489   4.414   0.792   1.661 -0.4552  0.9161 -0.4980
  375HK4    C3931490   4.364   1.054   1.609  0.1600  0.0051  0.5784
  375HK4    C4131491   4.501   1.028   1.583 -0.0294 -0.0269 -0.4141
  375HK4    H2131492   4.523   0.952   1.507 -0.3193 -1.6238  1.0532
  375HK4    C4231493   4.600   1.082   1.663  0.0589 -0.0239 -0.5262
  375HK4    H2231494   4.704   1.054   1.639  0.4235  2.1318 -1.5975
  375HK4    C4331495   4.567   1.178   1.758  0.1360 -0.1299 -0.3918
  375HK4    H2331496   4.637   1.259   1.780  0.0634 -0.4840  1.1799
  375HK4    C4431497   4.433   1.197   1.787  0.2566  0.2233 -0.0658
  375HK4    H2431498   4.413   1.276   1.862  0.2750 -0.5383  0.7528
  375HK4    C4531499   4.329   1.137   1.717 -0.0509  0.6085  0.0535
  375HK4    H2531500   4.227   1.145   1.757  0.3796 -1.3294  1.6146
  376HK4    H2831501   8.002   7.930   1.069  0.3170 -3.7857  0.0625
  376HK4    C4831502   8.106   7.938   1.039 -0.1424  0.0616 -0.7309
  376HK4    C4731503   8.196   7.833   1.041 -0.1083  0.1036 -0.2230
  376HK4    H2731504   8.156   7.736   1.076 -0.6007  0.4818  0.2636
  376HK4    C4631505   8.329   7.837   1.001 -0.1526 -0.2184 -0.4117
  376HK4    H2631506   8.396   7.762   1.046 -0.3163  0.3022  0.7131
  376HK4    C4031507   8.373   7.956   0.940 -0.0024 -0.1014 -0.0722
  376HK4    C5031508   8.287   8.068   0.938 -0.1193 -0.2087 -0.9364
  376HK4    H3031509   8.332   8.167   0.921 -0.6863  0.5829  1.9661
  376HK4    C4931510   8.159   8.057   0.991  0.1058  0.1163 -0.3175
  376HK4    H2931511   8.102   8.148   1.014 -0.5336 -0.3737  0.0149
  376HK4     N231512   8.506   7.962   0.897  0.0255 -0.1458  0.0090
  376HK4    C3031513   8.617   7.888   0.945  0.4793  0.7453  0.3483
  376HK4    C2931514   8.640   7.839   1.073 -0.7265 -0.1937  0.2170
  376HK4    H1531515   8.570   7.864   1.153 -1.9125 -0.1390 -0.8257
  376HK4    C2831516   8.764   7.783   1.102 -0.2860  0.4748 -0.3393
  376HK4    C2731517   8.859   7.773   0.998  0.1209 -0.2736  0.0989
  376HK4    H1431518   8.944   7.704   1.008  0.0150 -0.9150 -2.8547
  376HK4    C3231519   8.846   7.825   0.870  0.0973 -0.2822  0.0983
  376HK4    H1631520   8.931   7.819   0.802  1.2341  2.9719  1.1159
  376HK4    C3131521   8.721   7.883   0.845  0.1787 -0.1122  0.0803
  376HK4    C3431522   8.684   7.972   0.737 -0.1236 -0.0381  0.2453
  376HK4    C3331523   8.558   8.027   0.783 -0.1697  0.0397  0.0260
  376HK4    C3531524   8.494   8.114   0.695 -0.7116 -0.6268 -0.2441
  376HK4    H1731525   8.391   8.142   0.716 -0.1973  0.0794  1.4817
  376HK4    C3631526   8.552   8.153   0.575  0.2603 -0.0322  0.4091
  376HK4    H1831527   8.490   8.221   0.515 -0.9060 -0.6881  0.8518
  376HK4    C3731528   8.670   8.095   0.532  0.3130  0.1011  0.3736
  376HK4    H1931529   8.728   8.148   0.456 -1.4717 -0.3298 -1.3344
  376HK4    C3831530   8.730   7.996   0.608  0.0764 -0.0938  0.3063
  376HK4    H2031531   8.819   7.950   0.564 -0.4843  0.5735 -1.5743
  376HK4    C1431532   8.808   7.757   1.239 -0.4538 -0.0657 -0.3879
  376HK4     C931533   8.939   7.768   1.287 -0.5106  0.3916 -0.3387
  376HK4     C831534   8.989   7.691   1.394 -0.0371  0.5515 -0.4407
  376HK4    C1131535   8.901   7.604   1.457 -0.3857  0.9819 -0.3184
  376HK4     H431536   8.931   7.530   1.534 -0.8250 -0.0754 -1.1438
  376HK4    C1231537   8.767   7.600   1.419 -0.5133 -0.3181  0.2226
  376HK4     H531538   8.700   7.532   1.473 -2.1337 -0.4433 -1.8718
  376HK4    C1331539   8.719   7.673   1.310  0.0606 -0.2946 -0.0154
  376HK4     H631540   8.615   7.663   1.278 -1.2138  0.6980  3.6072
  376HK4     C731541   9.131   7.695   1.434 -0.0027 -0.4185 -0.4749
  376HK4     O231542   9.158   7.652   1.546  0.4581  0.0308 -0.4135
  376HK4     C431543   9.229   7.764   1.347  0.3587  0.0614  0.3057
  376HK4     C331544   9.362   7.764   1.388  0.2666  0.5749  0.6168
  376HK4     H331545   9.410   7.676   1.434 -1.5401 -0.1206  1.2046
  376HK4     C231546   9.449   7.860   1.337  0.0864  0.0369 -0.7391
  376HK4     H231547   9.542   7.888   1.388 -1.5428 -1.0356  3.0002
  376HK4     C131548   9.407   7.935   1.228 -0.1591 -0.0645 -0.7150
  376HK4     H131549   9.484   7.991   1.174 -2.4220  0.4964 -3.4615
  376HK4     C631550   9.279   7.923   1.170 -0.4019  0.2377 -0.2462
  376HK4     C531551   9.186   7.848   1.242  0.2434 -0.1406  0.1910
  376HK4    C1031552   9.038   7.865   1.232  0.2502 -0.2223 -0.0483
  376HK4     O131553   8.997   7.981   1.236  0.3687 -0.1780 -0.1392
  376HK4    C1631554   9.271   7.944   1.024  0.4880  0.4318 -0.2692
  376HK4    C1531555   9.383   7.923   0.941  0.1727 -0.7488 -0.3973
  376HK4     H731556   9.469   7.877   0.991  0.4263  0.4110  0.2569
  376HK4    C2031557   9.394   7.962   0.808  0.4012 -0.4660 -0.2965
  376HK4     H931558   9.477   7.917   0.754  2.2718  0.8889  1.3578
  376HK4    C1931559   9.285   8.033   0.757  0.3362 -0.2648  0.1148
  376HK4    C1831560   9.170   8.061   0.841  0.8087  0.2138  0.6098
  376HK4    C1731561   9.162   8.012   0.971 -0.3895 -0.5568  0.2522
  376HK4     H831562   9.084   8.054   1.034  0.6699  1.6619  0.1343
  376HK4     N131563   9.071   8.140   0.780  0.8829  0.1493  0.4039
  376HK4    C2131564   9.114   8.156   0.646 -0.4107 -0.5557 -0.1024
  376HK4    C2231565   9.243   8.090   0.631  0.0209  0.1539  0.4086
  376HK4    C2631566   9.289   8.095   0.500 -0.3742 -0.5648  0.2363
  376HK4    H1331567   9.396   8.075   0.492  0.1804  1.4096  2.2499
  376HK4    C2531568   9.230   8.155   0.390 -0.1429 -0.3660  0.2209
  376HK4    H1231569   9.269   8.136   0.290 -1.2683  1.5811 -0.6287
  376HK4    C2431570   9.108   8.220   0.411  0.2023  0.4230 -0.1607
  376HK4    H1131571   9.060   8.292   0.343  0.3550 -0.3484 -1.1028
  376HK4    C2331572   9.054   8.221   0.539  0.2974  0.0788 -0.1175
  376HK4    H1031573   8.963   8.277   0.559 -0.1179  0.3811 -2.6791
  376HK4    C3931574   8.991   8.233   0.846  0.2897  0.3378 -0.5651
  376HK4    C4131575   9.031   8.287   0.970 -0.7619 -0.2010  0.0179
  376HK4    H2131576   9.136   8.275   1.002 -0.4874 -2.3261 -1.5710
  376HK4    C4231577   8.947   8.366   1.048  0.1020  0.2670  0.4815
  376HK4    H2231578   8.971   8.358   1.155  0.8686 -2.4806  0.1424
  376HK4    C4331579   8.817   8.391   1.004  0.1914 -0.2868 -0.1253
  376HK4    H2331580   8.746   8.457   1.054  0.6303  0.0165  0.1114
  376HK4    C4431581   8.778   8.344   0.880  0.0553  0.3925 -0.3450
  376HK4    H2431582   8.674   8.370   0.855 -0.1193  0.1318  0.1098
  376HK4    C4531583   8.861   8.265   0.801  0.0629  0.1204 -0.0684
  376HK4    H2531584   8.820   8.223   0.708 -0.8564 -1.0321  0.8353
  377HK4    H2831585   2.730   4.242   7.208  0.4482  0.8491  0.2493
  377HK4    C4831586   2.729   4.229   7.100  0.2361  0.2757  0.3157
  377HK4    C4731587   2.827   4.298   7.028 -0.1914  0.3345 -0.2100
  377HK4    H2731588   2.901   4.357   7.083  1.7339  0.1333 -2.4978
  377HK4    C4631589   2.817   4.306   6.889  0.1306 -0.8063 -0.3122
  377HK4    H2631590   2.895   4.361   6.834  0.4808 -0.2519  0.7225
  377HK4    C4031591   2.709   4.256   6.813 -0.1304 -0.5055 -0.1392
  377HK4    C5031592   2.628   4.170   6.890 -0.1165 -0.0073  0.4466
  377HK4    H3031593   2.539   4.119   6.850  1.7727 -2.0338 -1.4244
  377HK4    C4931594   2.636   4.156   7.028  0.4064 -0.0412  0.4167
  377HK4    H2931595   2.576   4.078   7.077 -0.3312 -0.4014 -1.0145
  377HK4     N231596   2.672   4.291   6.683  0.7772 -0.2469 -0.3282
  377HK4    C3031597   2.706   4.410   6.615  0.0583  0.1185 -0.0508
  377HK4    C2931598   2.746   4.535   6.660 -0.3947  0.2750 -0.0861
  377HK4    H1531599   2.738   4.563   6.765 -0.8191  0.2718 -0.1180
  377HK4    C2831600   2.776   4.642   6.576  0.6374  0.2167  0.2102
  377HK4    C2731601   2.762   4.618   6.438 -0.4105  0.0626  0.3389
  377HK4    H1431602   2.792   4.705   6.377  1.2691  0.0626  1.1534
  377HK4    C3231603   2.716   4.499   6.384 -0.2841  0.0375  0.2860
  377HK4    H1631604   2.671   4.500   6.285  1.7850 -2.0334 -0.7257
  377HK4    C3131605   2.693   4.393   6.472 -0.1972 -0.2108  0.0088
  377HK4    C3431606   2.660   4.253   6.452 -0.1246 -0.2181 -0.0714
  377HK4    C3331607   2.645   4.194   6.583  0.2215 -0.3407 -0.0867
  377HK4    C3531608   2.656   4.057   6.598  0.4366 -0.2600  0.5132
  377HK4    H1731609   2.613   4.011   6.687  1.7603 -1.3608  0.6064
  377HK4    C3631610   2.710   3.986   6.491 -0.2839 -0.2659  0.1551
  377HK4    H1831611   2.753   3.891   6.523  1.2184  0.8969  1.6679
  377HK4    C3731612   2.729   4.043   6.365 -0.5234 -0.3379  0.0875
  377HK4    H1931613   2.757   3.986   6.277  1.4810  2.1232 -0.9359
  377HK4    C3831614   2.704   4.178   6.344  0.6454 -0.1039  0.1583
  377HK4    H2031615   2.721   4.215   6.243 -2.0954 -1.3198 -0.8129
  377HK4    C1431616   2.810   4.770   6.641  0.2216  0.3292  0.2055
  377HK4     C931617   2.776   4.902   6.608 -0.5624  0.2967  0.8707
  377HK4     C831618   2.840   5.010   6.672  0.2605  0.1632  0.2698
  377HK4    C1131619   2.949   4.982   6.754 -0.2828 -0.3279  0.8256
  377HK4     H431620   3.012   5.066   6.786  0.8697 -1.0809  0.5642
  377HK4    C1231621   2.992   4.853   6.782 -0.1016 -0.4385  0.0208
  377HK4     H531622   3.068   4.850   6.861  1.5963  0.3534 -1.5309
  377HK4    C1331623   2.913   4.748   6.734  0.3867 -0.6991 -0.2155
  377HK4     H631624   2.945   4.645   6.756 -0.0906 -1.0322 -1.0728
  377HK4     C731625   2.785   5.147   6.666 -0.7254 -0.2269  0.4093
  377HK4     O231626   2.849   5.245   6.702 -0.5950  0.0303 -0.5116
  377HK4     C431627   2.646   5.166   6.617 -0.5393 -0.0821 -0.0671
  377HK4     C331628   2.588   5.292   6.631  0.2328  0.2708 -0.0026
  377HK4     H331629   2.641   5.388   6.630 -2.5159  1.8328 -0.4094
  377HK4     C231630   2.450   5.305   6.620  0.1055 -0.8696  0.1798
  377HK4     H231631   2.398   5.392   6.663 -0.4635 -1.2794  0.3350
  377HK4     C131632   2.379   5.199   6.565 -0.1332 -0.4720 -0.2806
  377HK4     H131633   2.271   5.207   6.549 -0.2666 -0.1695  0.7499
  377HK4     C631634   2.439   5.075   6.534 -0.1698 -0.5406 -0.0728
  377HK4     C531635   2.575   5.058   6.562 -0.0579 -0.2262 -0.4143
  377HK4    C1031636   2.647   4.930   6.538 -0.3197 -0.4726  0.1035
  377HK4     O131637   2.647   4.885   6.424  0.4876 -0.2014 -0.0099
  377HK4    C1631638   2.360   4.989   6.444 -0.6591 -0.3714  0.1915
  377HK4    C1531639   2.256   5.044   6.366  0.2113  0.4840 -0.3877
  377HK4     H731640   2.278   5.146   6.332  1.8767  0.4296  0.4865
  377HK4    C2031641   2.150   4.971   6.312  0.5422 -0.1582 -0.1698
  377HK4     H931642   2.075   5.029   6.259  0.7173  2.0740  1.9138
  377HK4    C1931643   2.139   4.834   6.331  0.1054 -0.0533  0.3366
  377HK4    C1831644   2.248   4.773   6.405  0.7891  0.2331 -0.4228
  377HK4    C1731645   2.349   4.852   6.460  0.6843 -0.4235  0.7274
  377HK4     H831646   2.428   4.795   6.508  0.1976 -2.4861 -0.8376
  377HK4     N131647   2.245   4.632   6.402 -0.1770  0.2297  0.1343
  377HK4    C2131648   2.134   4.602   6.320  0.2048  0.0949 -0.3403
  377HK4    C2231649   2.068   4.722   6.272  0.0848  0.1523 -0.0353
  377HK4    C2631650   1.960   4.702   6.187 -0.2121 -0.1935  0.4211
  377HK4    H1331651   1.913   4.794   6.152  2.7942  0.1691 -2.9843
  377HK4    C2531652   1.915   4.577   6.145 -0.0929 -0.1821  0.2560
  377HK4    H1231653   1.825   4.573   6.085 -0.4818 -0.7881  0.8672
  377HK4    C2431654   1.976   4.464   6.198 -0.2471 -0.3496  0.0751
  377HK4    H1131655   1.944   4.360   6.179  0.1691 -0.8444  1.9157
  377HK4    C2331656   2.084   4.478   6.285  0.1908  0.1585 -0.5450
  377HK4    H1031657   2.136   4.388   6.318 -0.7352 -1.1122 -2.4794
  377HK4    C3931658   2.310   4.546   6.491 -0.4109 -0.2043 -0.1165
  377HK4    C4131659   2.325   4.411   6.450 -0.1742 -0.3195  0.3536
  377HK4    H2131660   2.353   4.388   6.346 -0.5529 -0.0584  0.1942
  377HK4    C4231661   2.323   4.308   6.544  0.5215 -0.3121  0.3864
  377HK4    H2231662   2.329   4.204   6.508 -0.0743 -0.6229  1.1897
  377HK4    C4331663   2.316   4.336   6.680 -0.4269  0.2413  0.2370
  377HK4    H2331664   2.305   4.248   6.744 -1.0367 -1.0245 -1.5412
  377HK4    C4431665   2.326   4.467   6.725  0.0616  0.3786 -0.2587
  377HK4    H2431666   2.313   4.486   6.832 -0.0486  1.5282 -0.4690
  377HK4    C4531667   2.320   4.568   6.630  0.3255  0.3888 -0.2618
  377HK4    H2531668   2.348   4.669   6.663  1.6215  0.2018 -0.7473
  378HK4    H2831669   1.128  10.104   4.572 -0.1460 -0.4589 -0.5585
  378HK4    C4831670   1.208  10.044   4.615  0.2526  0.1801 -0.4082
  378HK4    C4731671   1.319  10.107   4.669  0.2677  0.0234 -0.2582
  378HK4    H2731672   1.311  10.215   4.683 -1.9563 -0.1377 -0.1244
  378HK4    C4631673   1.426  10.026   4.709  0.0883  0.0311  0.2336
  378HK4    H2631674   1.517  10.079   4.740  0.1388  1.6497 -2.5256
  378HK4    C4031675   1.425   9.885   4.709  0.0344  0.0295  0.1575
  378HK4    C5031676   1.308   9.825   4.658  0.2144 -0.2947  0.1239
  378HK4    H3031677   1.328   9.729   4.608 -0.8188 -1.0950  1.2177
  378HK4    C4931678   1.204   9.905   4.612  0.3131  0.1577  0.6756
  378HK4    H2931679   1.106   9.863   4.587  0.6905  0.4903 -1.4249
  378HK4     N231680   1.545   9.813   4.710 -0.0432 -0.1149 -0.4185
  378HK4    C3031681   1.673   9.859   4.671  0.0566 -0.0263  0.0069
  378HK4    C2931682   1.703   9.978   4.607 -0.2460  0.2929  0.4533
  378HK4    H1531683   1.625  10.022   4.544 -0.5293 -0.7920  0.0309
  378HK4    C2831684   1.836  10.003   4.575 -0.2101 -0.1924  0.2238
  378HK4    C2731685   1.937   9.906   4.592  0.1076  0.0810 -0.0893
  378HK4    H1431686   2.033   9.911   4.538  0.3422 -0.3113  0.2877
  378HK4    C3231687   1.911   9.792   4.668 -0.3693  0.2034 -0.0692
  378HK4    H1631688   1.991   9.730   4.706  0.2712  1.4007  0.5747
  378HK4    C3131689   1.780   9.769   4.709 -0.2302 -0.3498  0.0562
  378HK4    C3431690   1.710   9.653   4.761 -0.6910 -0.2604 -0.3523
  378HK4    C3331691   1.569   9.682   4.757 -0.6737 -0.1581 -0.2232
  378HK4    C3531692   1.479   9.578   4.775 -0.2047 -0.4994  0.1578
  378HK4    H1731693   1.374   9.587   4.746 -0.1578 -0.2515  0.0684
  378HK4    C3631694   1.521   9.450   4.810 -0.1911 -0.5560 -0.0796
  378HK4    H1831695   1.446   9.373   4.833 -1.3380  0.7733  0.7086
  378HK4    C3731696   1.658   9.430   4.821 -0.0729 -0.0398 -0.5780
  378HK4    H1931697   1.695   9.342   4.873  0.2705  0.3531 -0.1548
  378HK4    C3831698   1.755   9.525   4.793 -0.0107  0.0496 -0.0536
  378HK4    H2031699   1.861   9.505   4.805 -0.3105 -2.1209 -0.8689
  378HK4    C1431700   1.878  10.136   4.529  0.2574 -0.3776  0.1146
  378HK4     C931701   1.990  10.160   4.448 -0.2795  0.7535 -0.2957
  378HK4     C831702   2.072  10.270   4.477  0.6189  0.0601 -0.2025
  378HK4    C1131703   2.030  10.372   4.562 -0.1890 -0.2148 -0.2739
  378HK4     H431704   2.091  10.459   4.587 -0.0259 -0.7270  1.2070
  378HK4    C1231705   1.912  10.356   4.634  0.2560  0.2933  0.5757
  378HK4     H531706   1.878  10.425   4.713 -1.7839 -2.9277  2.6351
  378HK4    C1331707   1.837  10.240   4.615  0.5057  0.3242 -0.6142
  378HK4     H631708   1.753  10.225   4.684  1.6428 -1.8029  0.3332
  378HK4     C731709   2.201  10.280   4.405  0.9498 -0.0042  0.3783
  378HK4     O231710   2.263  10.385   4.420  0.5765  0.2561  0.1162
  378HK4     C431711   2.243  10.167   4.320  0.1885  0.1231 -0.1687
  378HK4     C331712   2.374  10.159   4.276  0.2582  0.9276 -0.1093
  378HK4     H331713   2.450  10.231   4.308 -0.2855  1.2493  0.4569
  378HK4     C231714   2.413  10.069   4.177 -0.8018 -0.2212  0.5109
  378HK4     H231715   2.519  10.068   4.150 -1.1503  0.7156 -0.9019
  378HK4     C131716   2.322   9.976   4.128 -0.5035 -0.1624 -0.1613
  378HK4     H131717   2.372   9.884   4.094 -0.2102 -0.5009  1.1374
  378HK4     C631718   2.187   9.985   4.166 -0.4549  0.2540 -0.0921
  378HK4     C531719   2.148  10.079   4.263 -0.0303  0.1156  0.2141
  378HK4    C1031720   2.012  10.079   4.324 -0.1922  0.5533 -0.1505
  378HK4     O131721   1.915  10.054   4.254 -0.0505 -0.0991 -0.1144
  378HK4    C1631722   2.102   9.893   4.090  0.2560 -0.3488 -0.1636
  378HK4    C1531723   2.135   9.858   3.957  0.7301 -0.4561 -0.0151
  378HK4     H731724   2.186   9.929   3.890  1.1737 -0.6592  0.1058
  378HK4    C2031725   2.089   9.745   3.892  0.4449 -0.3496 -0.0015
  378HK4     H931726   2.129   9.722   3.794  0.0553 -0.9468 -0.0230
  378HK4    C1931727   2.007   9.661   3.967 -0.0899 -0.0304 -0.2211
  378HK4    C1831728   1.959   9.699   4.098 -0.1310 -0.0132 -0.2413
  378HK4    C1731729   2.017   9.808   4.161 -0.0598 -0.0714 -0.2064
  378HK4     H831730   2.020   9.810   4.270 -2.0438 -0.4755 -0.1461
  378HK4     N131731   1.873   9.600   4.149  0.2261 -0.0695  0.2584
  378HK4    C2131732   1.860   9.496   4.055  0.2348 -0.0051  0.1855
  378HK4    C2231733   1.938   9.537   3.939  0.0191 -0.1425 -0.0056
  378HK4    C2631734   1.921   9.465   3.822 -0.1093  0.0142 -0.0815
  378HK4    H1331735   1.976   9.489   3.730 -1.2649  0.0578 -0.7698
  378HK4    C2531736   1.846   9.348   3.820  0.0683 -0.1048  0.1744
  378HK4    H1231737   1.841   9.289   3.728 -0.4538 -0.3041  0.3266
  378HK4    C2431738   1.772   9.311   3.932 -0.1642  0.1452  0.1045
  378HK4    H1131739   1.701   9.228   3.913 -0.4638  1.1183 -3.4550
  378HK4    C2331740   1.770   9.390   4.046  0.0722  0.1419  0.1127
  378HK4    H1031741   1.686   9.366   4.110 -1.4713 -0.9078 -2.2306
  378HK4    C3931742   1.791   9.620   4.261  0.3662  0.4611  0.2681
  378HK4    C4131743   1.743   9.506   4.329  0.1654  0.1026 -0.4794
  378HK4    H2131744   1.820   9.431   4.352  1.0866  1.3325  0.4594
  378HK4    C4231745   1.637   9.516   4.419  0.3791  0.2542 -0.2454
  378HK4    H2231746   1.622   9.441   4.498  1.9706  0.3328  0.1599
  378HK4    C4331747   1.562   9.632   4.430  0.0145 -0.0363  0.3404
  378HK4    H2331748   1.466   9.630   4.482 -0.1346  1.4295  0.1458
  378HK4    C4431749   1.602   9.744   4.357  0.0758 -0.2672  0.0194
  378HK4    H2431750   1.541   9.836   4.355 -1.1511 -0.9154  3.3574
  378HK4    C4531751   1.719   9.739   4.283  0.3759  0.4351  0.4411
  378HK4    H2531752   1.748   9.834   4.236 -1.0784  0.7674  0.2062
  379HK4    H2831753  10.053   9.838   4.595  0.8325 -0.1318 -1.6401
  379HK4    C4831754  10.150   9.802   4.629  0.2036 -0.3793 -0.0530
  379HK4    C4731755  10.227   9.727   4.541 -0.1741 -0.2444 -0.4991
  379HK4    H2731756  10.187   9.686   4.447 -1.5904  2.0048 -0.9040
  379HK4    C4631757  10.363   9.720   4.569 -0.3213 -0.1975  0.2446
  379HK4    H2631758  10.423   9.653   4.505 -1.2084 -1.3292  0.5914
  379HK4    C4031759  10.427   9.781   4.679  0.1057  0.1471 -0.1902
  379HK4    C5031760  10.343   9.850   4.769 -0.4803 -0.4104 -0.3042
  379HK4    H3031761  10.380   9.903   4.858 -0.3369 -2.4579  0.8795
  379HK4    C4931762  10.208   9.861   4.741 -0.6710 -0.5784  0.5134
  379HK4    H2931763  10.145   9.929   4.800  1.2929  1.8400 -0.0568
  379HK4     N231764  10.562   9.815   4.676  0.1489  0.0218  0.2955
  379HK4    C3031765  10.638   9.842   4.560 -0.1525 -0.5504 -0.0336
  379HK4    C2931766  10.601   9.899   4.439  0.4087  0.0986  0.0992
  379HK4    H1531767  10.497   9.924   4.418  0.6243  0.9644  0.0255
  379HK4    C2831768  10.694   9.934   4.341  0.2011 -0.2706 -0.2263
  379HK4    C2731769  10.828   9.912   4.378  0.3116 -0.2367 -0.6119
  379HK4    H1431770  10.910   9.951   4.315  0.7074 -0.1166 -0.0211
  379HK4    C3231771  10.874   9.867   4.501 -0.2078  0.1653 -0.2681
  379HK4    H1631772  10.975   9.876   4.540 -0.0966 -1.0540 -0.2497
  379HK4    C3131773  10.778   9.836   4.597 -0.0927  0.2942 -0.1158
  379HK4    C3431774  10.788   9.808   4.739  0.0704  0.8079 -0.0247
  379HK4    C3331775  10.651   9.787   4.782  0.2519  0.1852  0.2524
  379HK4    C3531776  10.622   9.763   4.916 -0.4590  0.3832  0.1386
  379HK4    H1731777  10.521   9.772   4.956 -0.7685 -0.1595 -0.5076
  379HK4    C3631778  10.730   9.750   5.003 -0.4242 -0.5132 -0.0389
  379HK4    H1831779  10.713   9.708   5.103 -1.1699 -0.1009  0.0101
  379HK4    C3731780  10.861   9.772   4.964 -0.5941  0.4650 -0.0931
  379HK4    H1931781  10.947   9.761   5.030 -2.5439 -0.5401  2.3705
  379HK4    C3831782  10.889   9.812   4.834  0.1528  0.0150 -0.0742
  379HK4    H2031783  10.994   9.837   4.815  0.8462 -0.3132  2.9756
  379HK4    C1431784  10.646   9.958   4.204 -0.6085 -0.0951  0.0863
  379HK4     C931785  10.724   9.917   4.095 -0.8073  0.0351 -0.1048
  379HK4     C831786  10.724   9.996   3.978 -0.0450  0.3134  0.0836
  379HK4    C1131787  10.626  10.094   3.964 -0.4948 -0.2362 -0.5618
  379HK4     H431788  10.606  10.142   3.867 -1.3857  0.4765 -0.0335
  379HK4    C1231789  10.538  10.124   4.067  0.3165 -0.1212  0.1004
  379HK4     H531790  10.441  10.173   4.047 -2.0569 -3.5075  2.7311
  379HK4    C1331791  10.553  10.064   4.191 -0.2523  0.2504  0.3543
  379HK4     H631792  10.481  10.084   4.272  0.4067  1.4297  0.6549
  379HK4     C731793  10.843   9.992   3.891 -0.5292 -0.2973 -0.5466
  379HK4     O231794  10.846  10.056   3.785  0.4256  0.9531  0.2245
  379HK4     C431795  10.947   9.891   3.917 -0.4757 -0.2135 -0.4331
  379HK4     C331796  11.072   9.914   3.861 -0.3643 -0.5752 -0.3360
  379HK4     H331797  11.094   9.996   3.792 -0.7775 -0.1429  0.0423
  379HK4     C231798  11.181   9.836   3.901 -0.0814 -0.3230 -0.6283
  379HK4     H231799   0.037   9.871   3.894 -0.2697  0.6703  1.2483
  379HK4     C131800  11.155   9.721   3.973  0.4464  0.1212  0.2806
  379HK4     H131801  11.241   9.656   3.998 -1.3602 -2.3019  0.3677
  379HK4     C631802  11.026   9.690   4.020  0.1553 -0.1086 -0.6599
  379HK4     C531803  10.923   9.783   4.005  0.2477  0.1236  0.1792
  379HK4    C1031804  10.805   9.792   4.096 -0.1081  0.4862 -0.3177
  379HK4     O131805  10.748   9.691   4.136  0.2647  0.5977  0.4929
  379HK4    C1631806  11.002   9.546   4.044 -0.5477  0.1691  0.3523
  379HK4    C1531807  11.098   9.456   4.092 -0.3755  0.1983  0.0565
  379HK4     H731808  11.181   9.495   4.153 -1.8009  2.8986  0.3002
  379HK4    C2031809  11.090   9.320   4.061 -0.0213  0.2370 -0.2253
  379HK4     H931810  11.167   9.253   4.099  0.3334 -0.2743 -1.8153
  379HK4    C1931811  10.978   9.268   3.997  0.2764 -0.0484 -0.5120
  379HK4    C1831812  10.875   9.358   3.948 -0.1045 -0.2214 -0.0276
  379HK4    C1731813  10.894   9.493   3.974 -0.4019 -0.2769  0.4671
  379HK4     H831814  10.830   9.563   3.920  1.3572  0.4141 -0.7541
  379HK4     N131815  10.767   9.287   3.892  0.2143 -0.2347 -0.6389
  379HK4    C2131816  10.798   9.153   3.922 -0.0071 -0.2110 -0.3073
  379HK4    C2231817  10.926   9.134   3.987 -0.3117  0.1067  0.3938
  379HK4    C2631818  10.962   9.007   4.031 -0.2746  0.1107  0.3810
  379HK4    H1331819  11.050   8.997   4.095 -0.5299 -1.4661  0.5195
  379HK4    C2531820  10.873   8.900   4.025 -0.2031  0.0752 -0.0315
  379HK4    H1231821  10.898   8.815   4.088  0.2484  1.5091  1.7782
  379HK4    C2431822  10.749   8.922   3.967 -0.1212  0.2197 -0.1527
  379HK4    H1131823  10.683   8.838   3.941 -1.0652  0.7152  0.6281
  379HK4    C2331824  10.708   9.047   3.922 -0.3619  0.0873 -0.3001
  379HK4    H1031825  10.609   9.062   3.878  0.4807 -0.1843 -2.3721
  379HK4    C3931826  10.698   9.314   3.773 -0.2392 -0.3818 -0.4100
  379HK4    C4131827  10.566   9.269   3.750 -0.3105 -0.3253 -0.1213
  379HK4    H2131828  10.503   9.229   3.831  1.2740  0.0363  1.3237
  379HK4    C4231829  10.508   9.292   3.626  0.0202 -0.3413 -0.2789
  379HK4    H2231830  10.403   9.265   3.612 -0.3638 -0.6892  2.9178
  379HK4    C4331831  10.568   9.367   3.525 -0.5147  0.2661 -0.1435
  379HK4    H2331832  10.515   9.394   3.434 -0.1488  0.7009 -0.2283
  379HK4    C4431833  10.697   9.413   3.549 -0.2350 -0.4468 -0.2576
  379HK4    H2431834  10.755   9.475   3.479 -2.8144 -1.0379 -3.0381
  379HK4    C4531835  10.760   9.388   3.670 -0.3836  0.2797 -0.0277
  379HK4    H2531836  10.864   9.417   3.690 -1.4400  1.8271  3.6651
  380HK4    H2831837  10.056   4.842  10.410  0.3243 -1.6457 -1.9083
  380HK4    C4831838  10.096   4.765  10.475  0.0065 -0.5086 -0.3098
  380HK4    C4731839  10.231   4.730  10.478  0.0984 -0.1420 -0.1726
  380HK4    H2731840  10.310   4.762  10.409  0.1619  1.8913  0.7996
  380HK4    C4631841  10.274   4.628  10.562  0.2758  0.3743  0.3717
  380HK4    H2631842  10.376   4.590  10.548  0.3970  0.8901 -0.1541
  380HK4    C4031843  10.190   4.559  10.652  0.0535 -0.3109 -0.3581
  380HK4    C5031844  10.053   4.585  10.632  0.0385 -0.2881 -0.2182
  380HK4    H3031845   9.983   4.529  10.696  0.2769 -0.2708  0.0540
  380HK4    C4931846  10.008   4.688  10.550 -0.0169  0.0311  0.2149
  380HK4    H2931847   9.900   4.701  10.530  0.5450  1.1824 -2.3368
  380HK4     N231848  10.226   4.449  10.730  0.2204 -0.1390 -0.1940
  380HK4    C3031849  10.336   4.364  10.709  0.4004 -0.1270  0.6806
  380HK4    C2931850  10.393   4.315  10.592  0.1926  0.7805  0.2016
  380HK4    H1531851  10.328   4.335  10.506  1.4982  1.1504 -0.7133
  380HK4    C2831852  10.484   4.210  10.592 -0.2607  0.3866  0.1269
  380HK4    C2731853  10.523   4.154  10.715  0.1571 -0.3987 -0.3608
  380HK4    H1431854  10.594   4.070  10.719 -0.8989 -1.2479  1.0174
  380HK4    C3231855  10.473   4.203  10.835 -0.1232 -0.6780 -0.3594
  380HK4    H1631856  10.505   4.166  10.932 -0.8362  2.3773  1.1067
  380HK4    C3131857  10.381   4.307  10.835  0.5266 -0.0887  0.6531
  380HK4    C3431858  10.302   4.370  10.939 -0.3857 -0.1698  0.0272
  380HK4    C3331859  10.201   4.446  10.869 -0.1354 -0.0994 -0.2558
  380HK4    C3531860  10.113   4.519  10.948 -0.0586 -0.7250  0.4135
  380HK4    H1731861  10.037   4.587  10.907  0.0014 -0.1828  1.2034
  380HK4    C3631862  10.121   4.523  11.086  0.2530  0.1298  0.3807
  380HK4    H1831863  10.035   4.552  11.149  0.7794 -1.1674  1.7312
  380HK4    C3731864  10.231   4.468  11.151  0.0755 -0.0514  0.5269
  380HK4    H1931865  10.246   4.491   0.008 -0.5491  0.7079  0.4495
  380HK4    C3831866  10.319   4.390  11.076 -0.3007  0.0469 -0.0133
  380HK4    H2031867  10.405   4.344  11.124  0.4862 -0.9053 -2.2576
  380HK4    C1431868  10.522   4.147  10.465 -0.1248  0.0667  0.3234
  380HK4     C931869  10.532   4.008  10.454 -0.1596  0.1133 -0.3281
  380HK4     C831870  10.624   3.965  10.356 -0.1428  0.0112 -0.2718
  380HK4    C1131871  10.697   4.051  10.275 -0.0399 -0.1247 -0.3244
  380HK4     H431872  10.776   4.013  10.209  1.3156 -0.1130  1.2647
  380HK4    C1231873  10.681   4.189  10.286  0.2094 -0.1463  0.3398
  380HK4     H531874  10.746   4.260  10.233 -0.1132  1.2126  1.7350
  380HK4    C1331875  10.586   4.236  10.376 -0.6679 -0.3340 -0.4711
  380HK4     H631876  10.537   4.333  10.358 -1.7343 -1.3436 -3.3535
  380HK4     C731877  10.641   3.819  10.337 -0.2043 -0.0281 -0.0089
  380HK4     O231878  10.755   3.778  10.318 -0.1576  0.0346  0.1178
  380HK4     C431879  10.535   3.727  10.385 -0.0902 -0.0847  0.1273
  380HK4     C331880  10.552   3.589  10.381  0.2531 -0.0496  0.3633
  380HK4     H331881  10.648   3.553  10.420  0.2153 -0.4127  0.1239
  380HK4     C231882  10.445   3.502  10.394 -0.0287  0.2149 -0.1539
  380HK4     H231883  10.467   3.394  10.398  0.1422  0.2977  1.4219
  380HK4     C131884  10.320   3.557  10.422 -0.2534 -0.2843 -0.1510
  380HK4     H131885  10.235   3.488  10.429 -1.9522  1.7230 -0.6311
  380HK4     C631886  10.297   3.695  10.436  0.1280 -0.2816  0.4632
  380HK4     C531887  10.409   3.779  10.421 -0.0419 -0.0866  0.3105
  380HK4    C1031888  10.422   3.912  10.486 -0.0590  0.0914 -0.0522
  380HK4     O131889  10.337   3.952  10.565 -0.3059 -0.2925 -0.1192
  380HK4    C1631890  10.161   3.730  10.479 -0.1135 -0.0636 -0.4595
  380HK4    C1531891  10.073   3.641  10.544 -0.2749  0.3469 -0.1066
  380HK4     H731892  10.108   3.556  10.604  0.4822  1.7202  1.4449
  380HK4    C2031893   9.935   3.651  10.529 -0.2858  0.3078 -0.0031
  380HK4     H931894   9.868   3.579  10.576  0.6881 -0.0679  0.8258
  380HK4    C1931895   9.879   3.755  10.455 -0.2628  0.3060 -0.0261
  380HK4    C1831896   9.967   3.849  10.388 -0.0911 -0.2587 -0.5936
  380HK4    C1731897  10.104   3.828  10.399 -0.0659  0.0225 -0.3875
  380HK4     H831898  10.171   3.893  10.343 -0.4495 -0.2078 -1.1232
  380HK4     N131899   9.893   3.950  10.323  0.1421  0.3466  0.0691
  380HK4    C2131900   9.758   3.919  10.349  0.0757 -0.3314 -1.0382
  380HK4    C2231901   9.743   3.800  10.431 -0.2103  0.6673  0.3633
  380HK4    C2631902   9.622   3.768  10.491 -0.2118 -0.1736 -0.0848
  380HK4    H1331903   9.609   3.675  10.545  1.2659  0.2284  0.9711
  380HK4    C2531904   9.515   3.855  10.474 -0.1486 -0.0776  0.0117
  380HK4    H1231905   9.418   3.837  10.519  0.1254 -1.5384  0.0156
  380HK4    C2431906   9.521   3.970  10.396  0.0213 -0.0574  0.0489
  380HK4    H1131907   9.440   4.044  10.381  0.5166  0.0251 -2.3894
  380HK4    C2331908   9.644   3.998  10.338 -0.1090 -0.5138 -0.4511
  380HK4    H1031909   9.654   4.088  10.278  0.3581  1.5832  2.6563
  380HK4    C3931910   9.944   4.079  10.312  0.2231  0.3065 -0.0342
  380HK4    C4131911   9.888   4.168  10.218 -0.2357 -0.0007 -0.0504
  380HK4    H2131912   9.826   4.136  10.133 -1.5934  0.8366  0.6027
  380HK4    C4231913   9.911   4.305  10.220  0.2374 -0.0857  0.4253
  380HK4    H2231914   9.882   4.360  10.129  2.0871  1.5705  0.7953
  380HK4    C4331915   9.994   4.366  10.314  0.4493  0.4063 -0.0747
  380HK4    H2331916   9.997   4.473  10.334 -1.3837  0.9489 -2.4096
  380HK4    C4431917  10.059   4.275  10.396  0.5856  0.0080 -0.6173
  380HK4    H2431918  10.124   4.318  10.474 -0.0625  0.4757 -0.3356
  380HK4    C4531919  10.037   4.138  10.401 -0.2277  0.1702  0.5321
  380HK4    H2531920  10.092   4.078  10.475 -0.2267  0.5946  0.8772
  381HK4    H2831921   6.224   8.091  10.483  0.4736  0.6052 -0.0275
  381HK4    C4831922   6.259   7.989  10.465  0.2822  0.5620 -0.1597
  381HK4    C4731923   6.397   7.970  10.464  0.1901 -0.0747 -0.7425
  381HK4    H2731924   6.477   8.045  10.466  0.4572 -0.3853  0.7111
  381HK4    C4631925   6.443   7.839  10.463 -0.0343 -0.1615  0.3837
  381HK4    H2631926   6.536   7.832  10.405 -0.2772 -0.3752  0.0210
  381HK4    C4031927   6.360   7.726  10.479 -0.5076  0.1196 -0.0800
  381HK4    C5031928   6.221   7.749  10.480 -0.4846  0.2877 -0.4547
  381HK4    H3031929   6.149   7.668  10.498  0.1422  0.1704  1.6807
  381HK4    C4931930   6.174   7.879  10.472  0.2613  0.5692 -0.2996
  381HK4    H2931931   6.066   7.895  10.491 -0.0307 -1.3885 -0.2833
  381HK4     N231932   6.410   7.596  10.460  0.3527  0.4677 -0.2237
  381HK4    C3031933   6.513   7.565  10.369  0.3842  0.4005 -0.1640
  381HK4    C2931934   6.513   7.604  10.236 -0.1500 -0.0317 -0.2944
  381HK4    H1531935   6.473   7.701  10.209  0.2892  0.2173 -0.0646
  381HK4    C2831936   6.579   7.532  10.136 -0.4258  0.0348 -0.5196
  381HK4    C2731937   6.656   7.421  10.176 -1.1652 -0.3578 -0.1788
  381HK4    H1431938   6.697   7.354  10.100  0.2953  0.6132 -0.2559
  381HK4    C3231939   6.661   7.383  10.310  0.5968  0.2984 -0.0486
  381HK4    H1631940   6.721   7.297  10.338 -1.2541 -0.8230  0.5000
  381HK4    C3131941   6.588   7.447  10.409  0.1395  0.1908 -0.3179
  381HK4    C3431942   6.528   7.405  10.534 -0.0417 -0.1134 -0.5075
  381HK4    C3331943   6.413   7.491  10.554  0.5316  0.5661 -0.1187
  381HK4    C3531944   6.335   7.480  10.669  0.5545  0.3920 -0.1213
  381HK4    H1731945   6.244   7.538  10.686  0.4861 -0.3356  2.0714
  381HK4    C3631946   6.371   7.386  10.764  0.3061  0.5416  0.1214
  381HK4    H1831947   6.306   7.358  10.848  0.1500  1.2876  0.2483
  381HK4    C3731948   6.489   7.312  10.754 -0.1905 -0.1618 -0.6378
  381HK4    H1931949   6.532   7.256  10.837  0.3464  0.4978 -0.4609
  381HK4    C3831950   6.566   7.322  10.639  0.4718  0.5842 -0.1363
  381HK4    H2031951   6.613   7.228  10.609 -0.8989 -0.2086  0.1507
  381HK4    C1431952   6.512   7.538  10.005 -0.0115  0.1775 -0.7283
  381HK4     C931953   6.467   7.426   9.934 -0.4942 -0.0183 -0.1276
  381HK4     C831954   6.465   7.426   9.793  0.0347 -0.0088 -0.1404
  381HK4    C1131955   6.509   7.539   9.724  0.1928 -0.0086 -0.0360
  381HK4     H431956   6.522   7.542   9.615  4.0824  0.6030  0.3659
  381HK4    C1231957   6.547   7.653   9.794  0.3739 -0.2213  0.2138
  381HK4     H531958   6.578   7.741   9.736  1.3622  1.1904  2.7827
  381HK4    C1331959   6.549   7.653   9.933 -0.2136  0.8453  0.2228
  381HK4     H631960   6.568   7.751   9.981  4.0543  0.1889  0.0815
  381HK4     C731961   6.402   7.313   9.720 -0.1278  0.1872 -0.3010
  381HK4     O231962   6.405   7.312   9.597 -0.4074 -0.5613 -0.3053
  381HK4     C431963   6.350   7.200   9.800 -0.3934  0.5425  0.0312
  381HK4     C331964   6.281   7.098   9.736  0.0813  0.3448 -0.1718
  381HK4     H331965   6.263   7.105   9.628  2.1049 -0.9213 -0.5991
  381HK4     C231966   6.241   6.980   9.797 -0.0591  0.4364 -0.0862
  381HK4     H231967   6.188   6.904   9.737  0.1902 -0.3068  0.6262
  381HK4     C131968   6.286   6.963   9.927 -0.2136  0.7449  0.0094
  381HK4     H131969   6.280   6.860   9.966 -2.4943  0.5237 -0.8853
  381HK4     C631970   6.369   7.056   9.994 -0.0903  0.2945  0.4868
  381HK4     C531971   6.385   7.182   9.935  0.8077 -0.2065 -0.3605
  381HK4    C1031972   6.420   7.307  10.009 -0.5568  0.0287 -0.0941
  381HK4     O131973   6.360   7.317  10.115 -0.2173 -0.4195  0.1453
  381HK4    C1631974   6.451   7.000  10.102  0.0655 -0.4405 -0.0019
  381HK4    C1531975   6.569   7.061  10.151 -0.1734  0.0108  0.0168
  381HK4     H731976   6.612   7.133  10.080  0.1215 -0.3941 -0.2158
  381HK4    C2031977   6.639   7.024  10.265  0.2224 -0.2115 -0.2883
  381HK4     H931978   6.742   7.058  10.281 -0.1014  0.6966 -0.0595
  381HK4    C1931979   6.581   6.922  10.340  0.2520  0.0014  0.0274
  381HK4    C1831980   6.454   6.863  10.301 -0.0798  0.6332  0.1454
  381HK4    C1731981   6.389   6.910  10.187 -0.5944  0.2881  0.2986
  381HK4     H831982   6.282   6.892  10.184 -0.7798  1.4813 -0.3921
  381HK4     N131983   6.432   6.752  10.385  0.1635  0.2348 -0.3160
  381HK4    C2131984   6.536   6.747  10.481 -0.2289  0.3442  0.1148
  381HK4    C2231985   6.635   6.849  10.453  0.1999 -0.1064 -0.0188
  381HK4    C2631986   6.746   6.852  10.537  0.1059  0.1553  0.0974
  381HK4    H1331987   6.826   6.924  10.521 -1.2901  1.2599 -2.1163
  381HK4    C2531988   6.763   6.760  10.639 -0.2438 -0.2613 -0.2161
  381HK4    H1231989   6.857   6.757  10.695  0.6189  2.1380 -1.4875
  381HK4    C2431990   6.665   6.665  10.667 -0.4540 -0.0205 -0.1278
  381HK4    H1131991   6.674   6.589  10.747 -1.4083 -2.0274 -1.8672
  381HK4    C2331992   6.555   6.656  10.584 -0.2804 -0.1869 -0.3405
  381HK4    H1031993   6.488   6.570  10.589 -2.2070  1.3645  1.7704
  381HK4    C3931994   6.345   6.651  10.343  0.2406  0.0978 -0.1378
  381HK4    C4131995   6.267   6.575  10.432 -0.2351  0.7066 -0.0334
  381HK4    H2131996   6.274   6.582  10.542 -3.3985 -0.8738  0.3366
  381HK4    C4231997   6.174   6.480  10.390  0.1097  0.4573 -0.2317
  381HK4    H2231998   6.116   6.429  10.468 -1.3679  1.3226 -0.7439
  381HK4    C4331999   6.162   6.460  10.253  0.2946  0.2822 -0.2236
  381HK4    H2332000   6.065   6.425  10.216  0.5766 -0.5350 -0.2147
  381HK4    C4432001   6.246   6.518  10.160  0.1867  0.2555 -0.3363
  381HK4    H2432002   6.258   6.474  10.060  3.4051 -1.0786  0.5796
  381HK4    C4532003   6.331   6.618  10.207  0.6257 -0.2316 -0.1002
  381HK4    H2532004   6.415   6.648  10.142  2.6849 -1.3147  1.9679
  382HK4    H2832005  10.943   7.231   6.949  0.5486  0.4739 -2.5882
  382HK4    C4832006  10.958   7.333   6.983  0.3462 -0.6553  1.1582
  382HK4    C4732007  10.846   7.413   7.004  0.1071 -0.5381 -0.5123
  382HK4    H2732008  10.750   7.361   7.024 -1.2341  2.4814  1.2549
  382HK4    C4632009  10.852   7.547   7.038 -0.2085 -0.6693  0.0665
  382HK4    H2632010  10.764   7.613   7.051  1.2559  1.1214  1.0853
  382HK4    C4032011  10.978   7.610   7.048 -0.5088 -0.0609  0.1029
  382HK4    C5032012  11.092   7.528   7.035  0.0070  0.7060 -0.1615
  382HK4    H3032013  11.195   7.568   7.031  0.6410 -0.4861  3.0471
  382HK4    C4932014  11.082   7.393   7.003 -0.1404  0.5091  0.7031
  382HK4    H2932015  11.170   7.330   6.986 -0.8856 -0.3115 -0.2069
  382HK4     N232016  10.981   7.748   7.030  0.5073 -0.0665  0.2435
  382HK4    C3032017  11.065   7.834   7.106  0.3245 -0.0130  0.3857
  382HK4    C2932018  11.128   7.811   7.228  0.3203  0.0533  0.3989
  382HK4    H1532019  11.092   7.725   7.285  0.2639 -0.3273 -0.2033
  382HK4    C2832020  11.216   7.896   7.293  0.1849  0.0482  0.5909
  382HK4    C2732021  11.225   8.019   7.225 -0.3713 -0.1148  0.2204
  382HK4    H1432022   0.052   8.089   7.265 -0.7584 -1.7361  4.0479
  382HK4    C3232023  11.157   8.058   7.110 -0.6672  0.1351  0.4789
  382HK4    H1632024  11.175   8.155   7.064  0.6447 -1.1578 -1.8381
  382HK4    C3132025  11.074   7.965   7.047  0.1840 -0.2240 -0.1098
  382HK4    C3432026  10.985   7.965   6.932  0.3890 -0.1434 -0.2714
  382HK4    C3332027  10.937   7.828   6.923  0.0531 -0.0712  0.4273
  382HK4    C3532028  10.846   7.799   6.822  0.6154 -0.0091 -0.1039
  382HK4    H1732029  10.835   7.694   6.793  1.4489 -0.5163  1.3555
  382HK4    C3632030  10.796   7.899   6.741 -0.1524  0.0583  0.4452
  382HK4    H1832031  10.708   7.880   6.678  2.1643 -2.5167 -2.1613
  382HK4    C3732032  10.841   8.030   6.752 -0.2247  0.0701  0.6133
  382HK4    H1932033  10.775   8.109   6.715 -0.7915 -0.2384  0.9596
  382HK4    C3832034  10.936   8.064   6.848  0.6750  0.0160 -0.2522
  382HK4    H2032035  10.943   8.168   6.879  1.0352 -0.7669  2.3851
  382HK4    C1432036   0.019   7.863   7.427  0.0409 -0.2364  0.5756
  382HK4     C932037   0.043   7.962   7.522 -0.4067  0.2026  0.2398
  382HK4     C832038   0.149   7.944   7.614 -0.5431  0.2980  0.4159
  382HK4    C1132039   0.212   7.820   7.623 -0.4299  0.2653 -0.7563
  382HK4     H432040   0.269   7.799   7.715 -1.3034  1.4998  0.0780
  382HK4    C1232041   0.184   7.717   7.534 -0.6103 -0.6741  0.3878
  382HK4     H532042   0.240   7.622   7.539  1.2536  0.2981 -1.4341
  382HK4    C1332043   0.088   7.740   7.437  0.4397 -0.1044 -0.5168
  382HK4     H632044   0.048   7.647   7.394 -3.5302  0.8540  0.8323
  382HK4     C732045   0.212   8.060   7.681  0.4696  0.0831 -0.1432
  382HK4     O232046   0.270   8.038   7.786 -0.0607 -0.4413  0.0425
  382HK4     C432047   0.167   8.193   7.633 -0.0983 -0.0353  0.0441
  382HK4     C332048   0.245   8.304   7.664 -0.2052  0.1011 -0.1801
  382HK4     H332049   0.340   8.287   7.717 -0.0601 -1.1900 -0.8315
  382HK4     C232050   0.198   8.433   7.643  0.2046  0.2192 -0.3689
  382HK4     H232051   0.257   8.523   7.667 -0.1935  0.3560  0.0915
  382HK4     C132052   0.070   8.451   7.593 -0.0589 -0.1822  0.1629
  382HK4     H132053   0.025   8.549   7.613  0.0353  0.1379 -1.1167
  382HK4     C632054  11.236   8.344   7.550 -0.2361 -0.0160  0.0771
  382HK4     C532055   0.038   8.216   7.582  0.1334 -0.0258 -0.5356
  382HK4    C1032056  11.219   8.091   7.537 -0.3916  0.3225 -0.7257
  382HK4     O132057  11.100   8.073   7.562 -0.2896  0.1865 -0.3368
  382HK4    C1632058  11.149   8.371   7.436 -0.1328  0.1886  0.0475
  382HK4    C1532059  11.191   8.464   7.339  0.0707 -0.2784 -0.3094
  382HK4     H732060   0.051   8.476   7.317  0.4117  0.5951  1.7005
  382HK4    C2032061  11.102   8.522   7.250  0.2034 -0.3343 -0.4760
  382HK4     H932062  11.134   8.589   7.170 -1.2510  0.1796 -0.6489
  382HK4    C1932063  10.966   8.504   7.272  0.1844  0.2673 -0.0886
  382HK4    C1832064  10.916   8.411   7.371  0.1147  0.3906 -0.0106
  382HK4    C1732065  11.012   8.348   7.449 -0.0674 -0.5291 -0.5325
  382HK4     H832066  10.980   8.304   7.543  2.1606  2.4163  1.7171
  382HK4     N132067  10.776   8.427   7.386  0.0685 -0.0236 -0.0141
  382HK4    C2132068  10.739   8.518   7.285 -0.1894  0.5705  0.6030
  382HK4    C2232069  10.852   8.566   7.208 -0.1552  0.1087  0.3613
  382HK4    C2632070  10.832   8.656   7.104 -0.2122 -0.3516 -0.0279
  382HK4    H1332071  10.912   8.689   7.037 -1.4748  0.7683 -1.0227
  382HK4    C2532072  10.703   8.698   7.076 -0.2461 -0.4610 -0.0370
  382HK4    H1232073  10.681   8.766   6.994  1.0615 -1.9438 -1.6612
  382HK4    C2432074  10.595   8.660   7.155 -0.3898  0.1145  0.0400
  382HK4    H1132075  10.494   8.681   7.116 -0.5476 -1.3196 -0.3655
  382HK4    C2332076  10.612   8.569   7.259 -0.2102  0.3009  0.1771
  382HK4    H1032077  10.530   8.541   7.324  0.3135  0.7205  1.0214
  382HK4    C3932078  10.698   8.343   7.466 -0.0947  0.2178  0.0837
  382HK4    C4132079  10.582   8.396   7.525  0.1991  0.6600  0.2581
  382HK4    H2132080  10.588   8.501   7.561 -0.2877  0.5831  0.5640
  382HK4    C4232081  10.480   8.318   7.578  0.5228  0.2377  0.2690
  382HK4    H2232082  10.387   8.357   7.623 -0.2826 -0.4498 -0.7803
  382HK4    C4332083  10.495   8.180   7.572 -0.2877  0.1564  0.0618
  382HK4    H2332084  10.414   8.117   7.607  1.5182 -1.3490  1.5835
  382HK4    C4432085  10.610   8.121   7.521 -0.0916  0.2141  0.4376
  382HK4    H2432086  10.615   8.012   7.515 -0.3714  0.1768  0.8803
  382HK4    C4532087  10.713   8.203   7.474 -0.4629  0.1457 -0.4995
  382HK4    H2532088  10.807   8.152   7.449 -0.2308  0.4334 -0.2126
  383HK4    H2832089   6.365   0.961   2.974 -1.4321  0.8683 -2.6346
  383HK4    C4832090   6.273   0.907   2.998  0.0909 -0.7997 -0.3126
  383HK4    C4732091   6.258   0.853   3.125 -0.0306 -0.1145 -0.0294
  383HK4    H2732092   6.346   0.860   3.191  2.5251  1.7895 -3.4384
  383HK4    C4632093   6.148   0.780   3.168  0.0180  0.0257  0.3315
  383HK4    H2632094   6.150   0.715   3.256 -1.8995  0.3849  0.6727
  383HK4    C4032095   6.041   0.765   3.077 -0.0031  0.4300  0.2864
  383HK4    C5032096   6.054   0.826   2.951  0.6766 -0.3891 -0.0473
  383HK4    H3032097   5.958   0.844   2.899  1.4610 -1.6259 -1.9588
  383HK4    C4932098   6.168   0.894   2.909  0.0858  0.3483 -0.4896
  383HK4    H2932099   6.177   0.921   2.803  0.6591 -2.0884 -1.0925
  383HK4     N232100   5.921   0.704   3.118  0.1899 -0.1664 -0.0339
  383HK4    C3032101   5.826   0.642   3.035 -0.2656 -0.0041  0.3679
  383HK4    C2932102   5.838   0.592   2.906 -0.1272 -0.2523  0.4787
  383HK4    H1532103   5.939   0.584   2.865  0.3812  0.5983  1.5494
  383HK4    C2832104   5.728   0.543   2.836 -0.0464 -0.0569  0.2161
  383HK4    C2732105   5.603   0.531   2.900 -0.2369 -0.5282 -0.2410
  383HK4    H1432106   5.517   0.504   2.836 -0.1166  0.1572 -0.7073
  383HK4    C3232107   5.589   0.574   3.032 -0.1598 -0.5184 -0.2355
  383HK4    H1632108   5.496   0.553   3.084 -0.4033 -1.3790 -1.0062
  383HK4    C3132109   5.698   0.626   3.101 -0.3586 -0.5027  0.0651
  383HK4    C3432110   5.723   0.679   3.234 -0.4341  0.1024 -0.1601
  383HK4    C3332111   5.862   0.719   3.245 -0.5944  0.7573 -0.5016
  383HK4    C3532112   5.891   0.782   3.365  0.0269 -0.0810 -0.2071
  383HK4    H1732113   5.988   0.830   3.380  0.0271  0.3656 -1.5155
  383HK4    C3632114   5.798   0.799   3.467 -0.2785  0.0464 -0.5075
  383HK4    H1832115   5.816   0.836   3.569 -2.1992  2.0101 -0.8361
  383HK4    C3732116   5.670   0.745   3.458 -0.2647 -0.1664  0.5891
  383HK4    H1932117   5.604   0.766   3.542 -1.1630 -0.6563  0.0099
  383HK4    C3832118   5.630   0.690   3.337  0.0724  0.2841  0.2734
  383HK4    H2032119   5.529   0.652   3.329  1.2663 -2.7746 -0.7262
  383HK4    C1432120   5.745   0.546   2.690 -0.2432 -0.0196  0.1947
  383HK4     C932121   5.656   0.619   2.610  0.2647  0.3437 -0.0420
  383HK4     C832122   5.618   0.557   2.488  0.0142 -0.1844  0.3024
  383HK4    C1132123   5.672   0.436   2.446  0.7223  0.4543 -0.6441
  383HK4     H432124   5.597   0.377   2.391 -0.6137 -0.1675  1.7696
  383HK4    C1232125   5.769   0.371   2.522 -0.1973  0.3227  0.4345
  383HK4     H532126   5.828   0.285   2.486  0.2946  0.7185  0.2923
  383HK4    C1332127   5.803   0.426   2.644  0.0504  0.0036  0.5097
  383HK4     H632128   5.883   0.377   2.702 -1.0274 -2.5947 -0.1723
  383HK4     C732129   5.561   0.645   2.383 -0.8504 -0.2571  0.7091
  383HK4     O232130   5.483   0.591   2.305 -0.9428  0.6537  0.1707
  383HK4     C432131   5.568   0.792   2.397  0.3106 -0.2239 -0.1730
  383HK4     C332132   5.535   0.861   2.281  0.2289  0.1812  0.0883
  383HK4     H332133   5.555   0.812   2.184 -1.8328 -0.2253 -0.1407
  383HK4     C232134   5.499   0.994   2.294  0.2458  0.1953 -0.0005
  383HK4     H232135   5.454   1.042   2.206 -1.0626  0.2426  0.6843
  383HK4     C132136   5.488   1.049   2.421 -0.7184 -0.1906  0.0823
  383HK4     H132137   5.463   1.156   2.419 -0.0079 -0.0141  0.4442
  383HK4     C632138   5.507   0.978   2.541  0.0283  0.2444  0.2248
  383HK4     C532139   5.561   0.850   2.526  0.4196  0.4928 -0.4868
  383HK4    C1032140   5.627   0.764   2.628  0.4199  0.4383 -0.5324
  383HK4     O132141   5.707   0.825   2.699  0.3766 -0.3009  0.1629
  383HK4    C1632142   5.423   1.016   2.656 -0.2922 -0.0606  0.0930
  383HK4    C1532143   5.294   1.065   2.629 -0.0979  0.2906 -0.2034
  383HK4     H732144   5.240   1.031   2.539  0.4312  0.6891 -0.6788
  383HK4    C2032145   5.233   1.149   2.722 -0.0119  0.5414 -0.3729
  383HK4     H932146   5.127   1.168   2.704 -0.0150  0.3142 -0.6027
  383HK4    C1932147   5.294   1.187   2.841 -0.0541  0.5147 -0.3430
  383HK4    C1832148   5.416   1.120   2.878  0.0796  0.8491 -0.1779
  383HK4    C1732149   5.479   1.043   2.780  0.2112  1.2552 -0.4145
  383HK4     H832150   5.572   1.001   2.818  0.4919  1.2503 -1.1046
  383HK4     N132151   5.460   1.152   3.008  0.2272  0.0463 -0.0275
  383HK4    C2132152   5.367   1.246   3.056  0.0685  0.0097 -0.2663
  383HK4    C2232153   5.262   1.266   2.958 -0.4662 -0.4561  0.2050
  383HK4    C2632154   5.172   1.373   2.962  1.3798  1.1726 -0.8966
  383HK4    H1332155   5.090   1.370   2.890 -0.9255 -0.7255  1.6931
  383HK4    C2532156   5.174   1.461   3.069 -0.1851  0.1427  0.0007
  383HK4    H1232157   5.093   1.533   3.079 -0.8980 -0.8616  1.8548
  383HK4    C2432158   5.272   1.439   3.165 -0.2842  0.2198  0.1200
  383HK4    H1132159   5.259   1.494   3.260 -1.8534 -0.9999  0.6308
  383HK4    C2332160   5.367   1.337   3.160 -0.7931 -0.2491 -0.0321
  383HK4    H1032161   5.449   1.341   3.232 -0.1174 -1.5432 -0.7231
  383HK4    C3932162   5.591   1.141   3.058  0.2595  0.8235  0.0657
  383HK4    C4132163   5.613   1.129   3.197  0.4373 -0.6461 -0.0774
  383HK4    H2132164   5.544   1.171   3.271 -0.2592  2.0711 -2.1653
  383HK4    C4232165   5.741   1.096   3.240  0.3583 -0.2537  0.4605
  383HK4    H2232166   5.759   1.091   3.348  1.6821 -0.8631  0.2244
  383HK4    C4332167   5.849   1.092   3.152  0.0486 -0.2999  0.0772
  383HK4    H2332168   5.944   1.057   3.193 -0.0648  1.0249  1.5418
  383HK4    C4432169   5.833   1.125   3.018 -0.1454  0.3035  0.2485
  383HK4    H2432170   5.916   1.178   2.969  1.7853  0.0548  3.0934
  383HK4    C4532171   5.703   1.143   2.973 -0.0342 -0.4326 -0.3551
  383HK4    H2532172   5.688   1.160   2.865  2.1192 -0.2421 -0.6451
  384HK4    H2832173   4.715   7.195   5.950 -2.1440 -0.4667  1.6651
  384HK4    C4832174   4.782   7.138   6.014 -0.5798 -0.2619  0.2264
  384HK4    C4732175   4.823   7.182   6.140  0.2872 -0.4147 -0.0009
  384HK4    H2732176   4.773   7.273   6.176  0.2986 -0.2359 -0.4378
  384HK4    C4632177   4.906   7.099   6.215 -0.3303 -0.5214  0.5636
  384HK4    H2632178   4.916   7.116   6.323 -2.3352 -0.1105  0.7138
  384HK4    C4032179   4.970   6.980   6.173  0.2882  0.0724 -0.1860
  384HK4    C5032180   4.931   6.942   6.044  0.4746 -0.0941 -0.1927
  384HK4    H3032181   4.971   6.855   5.989 -1.0822 -0.6760 -0.4467
  384HK4    C4932182   4.834   7.015   5.976 -0.1320 -0.1813  0.5655
  384HK4    H2932183   4.783   6.973   5.888 -2.0444  2.4987  0.3383
  384HK4     N232184   5.092   6.932   6.222 -0.0680 -0.1451  0.4988
  384HK4    C3032185   5.192   7.000   6.294 -0.1612 -0.0077  0.5002
  384HK4    C2932186   5.216   7.136   6.308  0.1813 -0.0458  0.3040
  384HK4    H1532187   5.142   7.206   6.268  0.5948 -0.9508 -2.1686
  384HK4    C2832188   5.319   7.189   6.383  0.1858  0.3819 -0.0016
  384HK4    C2732189   5.410   7.100   6.444  0.1324  0.2596 -0.1015
  384HK4    H1432190   5.498   7.146   6.493 -1.0117  2.1432  0.2516
  384HK4    C3232191   5.392   6.963   6.436 -0.4010  0.3154  0.1295
  384HK4    H1632192   5.470   6.897   6.476  0.9724  1.7603 -0.1271
  384HK4    C3132193   5.284   6.912   6.365 -0.3979 -0.2404  0.5172
  384HK4    C3432194   5.238   6.781   6.324 -0.0483 -0.3669  0.5289
  384HK4    C3332195   5.121   6.795   6.239  0.1139 -0.1266  0.3456
  384HK4    C3532196   5.045   6.685   6.202  0.3517 -0.0996 -0.2304
  384HK4    H1732197   4.956   6.697   6.141  0.6187 -0.2778 -0.6519
  384HK4    C3632198   5.084   6.558   6.243  0.0635 -0.1353 -0.0646
  384HK4    H1832199   5.047   6.465   6.197  0.9071 -0.5547  0.0818
  384HK4    C3732200   5.191   6.541   6.330 -0.3129  0.1193  0.4511
  384HK4    H1932201   5.241   6.445   6.317 -2.1879 -0.7824 -0.2161
  384HK4    C3832202   5.263   6.652   6.372 -0.1507 -0.2025  1.0306
  384HK4    H2032203   5.332   6.641   6.456  0.7640  0.8572  0.4321
  384HK4    C1432204   5.340   7.335   6.389  0.1413  0.3749  0.3745
  384HK4     C932205   5.469   7.390   6.394  0.3120  0.1070 -0.7880
  384HK4     C832206   5.482   7.515   6.458  0.0227 -0.2163 -0.0952
  384HK4    C1132207   5.371   7.579   6.513  0.1199 -0.3329  0.2403
  384HK4     H432208   5.381   7.663   6.582 -0.7952 -1.3424  1.6222
  384HK4    C1232209   5.242   7.535   6.489 -0.0015  0.0845  0.1199
  384HK4     H532210   5.152   7.588   6.524 -0.3631  1.2203 -2.4506
  384HK4    C1332211   5.228   7.409   6.430 -0.1344  0.0718  0.1756
  384HK4     H632212   5.131   7.360   6.444 -0.1593  0.1872  0.4324
  384HK4     C732213   5.615   7.579   6.476 -0.0661 -0.3029  0.9246
  384HK4     O232214   5.624   7.701   6.482 -0.1812 -0.2530  0.2002
  384HK4     C432215   5.736   7.501   6.441 -0.0821 -0.1187  0.4505
  384HK4     C332216   5.862   7.551   6.471 -0.0838  0.5726 -0.6851
  384HK4     H332217   5.876   7.640   6.533  0.9489  0.7670 -1.1841
  384HK4     C232218   5.979   7.486   6.430  0.0817  0.2864  0.2231
  384HK4     H232219   6.079   7.512   6.468  0.0719 -0.5525  0.8290
  384HK4     C132220   5.968   7.364   6.365  0.8210  0.3470 -0.0150
  384HK4     H132221   6.051   7.315   6.312  1.1198  3.0660 -2.1278
  384HK4     C632222   5.843   7.301   6.349  0.6980  0.5244  0.2539
  384HK4     C532223   5.728   7.377   6.374  0.3613  0.1123 -0.0366
  384HK4    C1032224   5.592   7.328   6.338  0.4735 -0.0104 -0.2977
  384HK4     O132225   5.576   7.267   6.233 -0.1092 -0.6914  0.1789
  384HK4    C1632226   5.838   7.157   6.377 -0.2099  0.3823 -0.6068
  384HK4    C1532227   5.920   7.112   6.482 -0.1547 -0.2117 -0.9027
  384HK4     H732228   5.969   7.189   6.544 -0.1963 -1.8540  1.2262
  384HK4    C2032229   5.957   6.979   6.502 -0.6611 -0.0989  0.9364
  384HK4     H932230   6.006   6.950   6.594  1.8370  1.3650  0.1122
  384HK4    C1932231   5.914   6.883   6.411  0.5404  0.2934 -0.0647
  384HK4    C1832232   5.835   6.926   6.298 -0.0743 -0.3417  0.1215
  384HK4    C1732233   5.806   7.061   6.282  1.2800 -0.1312 -0.6028
  384HK4     H832234   5.770   7.088   6.183  0.0893 -0.3742 -0.2489
  384HK4     N132235   5.800   6.815   6.218 -0.1103 -0.2885  0.0618
  384HK4    C2132236   5.851   6.701   6.283  0.6541 -0.3022 -0.5559
  384HK4    C2232237   5.924   6.738   6.402 -0.1028  0.2645 -0.2663
  384HK4    C2632238   5.984   6.638   6.477 -0.1837 -0.0345 -0.6001
  384HK4    H1332239   6.064   6.662   6.547 -0.9225  0.3383  0.1118
  384HK4    C2532240   5.962   6.504   6.449  0.0254 -0.1796 -0.0681
  384HK4    H1232241   6.011   6.426   6.508 -0.2918  1.0854  1.9107
  384HK4    C2432242   5.881   6.469   6.341 -0.5073  0.5425  0.0953
  384HK4    H1132243   5.835   6.370   6.330 -1.4878  0.9307  0.6356
  384HK4    C2332244   5.821   6.567   6.262 -0.9466 -0.0056 -0.2431
  384HK4    H1032245   5.779   6.528   6.169  0.7849 -2.0151 -0.2321
  384HK4    C3932246   5.693   6.818   6.128  0.1203 -0.1365 -0.2085
  384HK4    C4132247   5.680   6.717   6.030  0.2926 -0.2544 -0.1084
  384HK4    H2132248   5.768   6.658   6.000  0.1369 -0.6857  0.2770
  384HK4    C4232249   5.558   6.690   5.969  0.1751  0.0459 -0.0066
  384HK4    H2232250   5.540   6.603   5.904 -0.1078 -0.2509  0.4619
  384HK4    C4332251   5.446   6.769   5.994 -0.0070 -0.0288 -0.5898
  384HK4    H2332252   5.355   6.750   5.938  0.4830 -3.1735 -0.4141
  384HK4    C4432253   5.458   6.872   6.086  0.6597 -0.1593 -0.5231
  384HK4    H2432254   5.383   6.953   6.091 -2.2458 -2.5444 -2.9715
  384HK4    C4532255   5.577   6.893   6.155  0.4269  0.3617 -0.2785
  384HK4    H2532256   5.568   6.946   6.250 -1.0372 -1.0992  0.4166
  385HK4    H2832257   6.251  11.024   7.461 -1.6299 -0.2681  0.1080
  385HK4    C4832258   6.278  11.090   7.543  0.2178 -0.8155 -0.0288
  385HK4    C4732259   6.174  11.122   7.630  0.0520  0.3689 -0.6633
  385HK4    H2732260   6.078  11.069   7.621 -0.2315  0.8463 -0.5089
  385HK4    C4632261   6.209  11.213   7.729  0.4789 -0.3232 -0.1821
  385HK4    H2632262   6.131  11.233   7.805 -0.9002 -2.5986 -0.9436
  385HK4    C4032263   6.336   0.018   7.757  0.4572 -0.5485  0.3474
  385HK4    C5032264   6.436  11.212   7.674  0.2029 -0.4300 -0.0408
  385HK4    H3032265   6.539  11.213   7.713  0.2607  1.5070 -0.2107
  385HK4    C4932266   6.408  11.135   7.563  0.0943 -0.4833  0.0221
  385HK4    H2932267   6.477  11.120   7.478 -0.7290 -1.8198 -0.4325
  385HK4     N232268   6.367   0.113   7.855 -0.3188  0.1765 -0.0964
  385HK4    C3032269   6.284   0.152   7.962  0.4271  0.0277  0.5466
  385HK4    C2932270   6.214   0.064   8.045 -0.2004 -0.3966 -0.4234
  385HK4    H1532271   6.205  11.206   8.026 -1.3877  0.0864 -2.7629
  385HK4    C2832272   6.148   0.116   8.155  0.4210  0.0499 -0.2549
  385HK4    C2732273   6.147   0.256   8.177  0.1528 -0.0421  0.3412
  385HK4    H1432274   6.073   0.308   8.239 -0.0260  1.0075 -0.7326
  385HK4    C3232275   6.218   0.348   8.100 -0.0190 -0.1026  0.1082
  385HK4    H1632276   6.216   0.456   8.114 -1.4619 -0.1820  0.7045
  385HK4    C3132277   6.292   0.292   7.998  0.5365  0.0510  0.4281
  385HK4    C3432278   6.397   0.345   7.912 -0.0726  0.0106 -0.3425
  385HK4    C3332279   6.437   0.233   7.828  0.0385 -0.0531 -0.2032
  385HK4    C3532280   6.531   0.252   7.728 -0.0623  0.3082 -0.2295
  385HK4    H1732281   6.568   0.186   7.650  2.5453  0.4193  0.8946
  385HK4    C3632282   6.585   0.379   7.711  0.1803  0.1978 -0.2734
  385HK4    H1832283   6.655   0.402   7.629  0.0917 -0.4322 -0.5261
  385HK4    C3732284   6.551   0.487   7.792  0.2041  0.0488 -0.0637
  385HK4    H1932285   6.598   0.581   7.763  0.1548  0.0177 -0.2411
  385HK4    C3832286   6.457   0.468   7.892  0.2065 -0.0833 -0.0837
  385HK4    H2032287   6.429   0.548   7.961  0.9813  0.0654  0.0549
  385HK4    C1432288   6.038   0.036   8.211  0.0684  0.4715 -0.3468
  385HK4     C932289   5.909   0.086   8.237  0.1192  0.4936 -0.1366
  385HK4     C832290   5.835   0.023   8.339 -0.0851  0.2401 -0.4405
  385HK4    C1132291   5.892  11.173   8.420 -0.0297 -0.1137 -0.9061
  385HK4     H432292   5.834  11.145   8.509  1.2245 -0.2909 -0.1406
  385HK4    C1232293   6.018  11.123   8.392  0.0332 -0.2782 -0.3206
  385HK4     H532294   6.072  11.057   8.462 -1.0857 -2.4511 -1.4535
  385HK4    C1332295   6.087  11.174   8.283 -0.2877  0.4019 -0.2063
  385HK4     H632296   6.174  11.122   8.239 -1.5849 -0.2346 -2.0727
  385HK4     C732297   5.698   0.075   8.364 -0.4534 -0.6108 -0.6632
  385HK4     O232298   5.630   0.013   8.446 -0.5435  0.3811  0.0268
  385HK4     C432299   5.654   0.205   8.308  0.4427  0.1939  0.4633
  385HK4     C332300   5.537   0.267   8.352  0.1447  0.0576 -0.1345
  385HK4     H332301   5.475   0.217   8.428  0.3752  0.4660  0.3294
  385HK4     C232302   5.510   0.398   8.316 -0.1973 -0.0653 -0.3247
  385HK4     H232303   5.413   0.445   8.339  0.2376  1.9981 -2.4966
  385HK4     C132304   5.599   0.470   8.237  0.1011 -0.0057  0.0615
  385HK4     H132305   5.581   0.574   8.204  0.6774  0.1790  0.3209
  385HK4     C632306   5.713   0.405   8.186 -0.0714  0.1017 -0.4647
  385HK4     C532307   5.734   0.268   8.212 -0.5779  0.0126 -0.5183
  385HK4    C1032308   5.850   0.194   8.154 -0.3038  0.2020 -0.2124
  385HK4     O132309   5.847   0.172   8.033 -0.0480 -0.0263 -0.1780
  385HK4    C1632310   5.824   0.496   8.155 -0.4305  0.5821 -0.3440
  385HK4    C1532311   5.856   0.601   8.244  0.2434 -0.0741  0.1905
  385HK4     H732312   5.794   0.616   8.334 -0.1695  0.9233 -0.2573
  385HK4    C2032313   5.944   0.700   8.203  0.5821 -0.2860  0.4017
  385HK4     H932314   5.974   0.768   8.282 -2.9414  0.1960  1.4198
  385HK4    C1932315   5.997   0.704   8.074  0.0831 -0.4239  0.1878
  385HK4    C1832316   5.967   0.595   7.984 -0.5328  0.3419 -0.5363
  385HK4    C1732317   5.885   0.493   8.030  0.2511 -0.0455 -0.0025
  385HK4     H832318   5.897   0.397   7.981 -1.6638 -0.4617  0.2955
  385HK4     N132319   6.067   0.592   7.885 -0.1140  0.5418 -0.1223
  385HK4    C2132320   6.161   0.694   7.911 -0.0297  0.5388 -0.4124
  385HK4    C2232321   6.117   0.770   8.027 -0.0453 -0.2500  0.1007
  385HK4    C2632322   6.202   0.869   8.076 -0.0482 -0.2692  0.1405
  385HK4    H1332323   6.186   0.897   8.180  1.6635 -1.4333  0.7437
  385HK4    C2532324   6.315   0.906   8.005 -0.1913  0.0137  0.0551
  385HK4    H1232325   6.390   0.958   8.065  0.7787 -1.5546  0.2506
  385HK4    C2432326   6.352   0.841   7.887  0.1657  0.4913 -0.0959
  385HK4    H1132327   6.438   0.875   7.828  0.5399  0.4591  0.4303
  385HK4    C2332328   6.274   0.736   7.841 -0.0941  0.7991 -0.3622
  385HK4    H1032329   6.284   0.682   7.747  0.3914 -1.6069  1.0179
  385HK4    C3932330   6.044   0.524   7.764 -0.4950 -0.1544  0.3420
  385HK4    C4132331   5.916   0.487   7.717 -0.2570 -0.3575 -0.1459
  385HK4    H2132332   5.841   0.567   7.720  1.5908  1.3983  2.9639
  385HK4    C4232333   5.884   0.367   7.655 -0.1017 -0.4714 -0.0046
  385HK4    H2232334   5.784   0.322   7.652 -0.5195  0.2164  2.3769
  385HK4    C4332335   5.993   0.285   7.628 -0.1265 -0.4250 -0.2443
  385HK4    H2332336   5.974   0.191   7.577 -0.5388 -0.7827  0.5624
  385HK4    C4432337   6.124   0.321   7.657 -0.3549 -0.0053  0.2709
  385HK4    H2432338   6.200   0.264   7.602  1.0324  2.2155 -0.1592
  385HK4    C4532339   6.149   0.437   7.729 -0.3613  0.1139  0.0794
  385HK4    H2532340   6.254   0.464   7.748 -0.5927  1.1070 -0.0252
  386HK4    H2832341  10.237   8.794   9.504 -0.5962  0.7592  2.4163
  386HK4    C4832342  10.327   8.853   9.522  0.7174 -0.3854 -0.1842
  386HK4    C4732343  10.414   8.882   9.417 -0.5153  0.3833 -1.0023
  386HK4    H2732344  10.409   8.821   9.326 -0.7040 -1.8709  0.4715
  386HK4    C4632345  10.471   9.008   9.411 -0.5111  0.4702  0.5510
  386HK4    H2632346  10.516   9.046   9.318 -0.9932 -1.9383 -0.6926
  386HK4    C4032347  10.462   9.102   9.516 -0.0825  0.2539  0.7881
  386HK4    C5032348  10.388   9.062   9.629 -0.6277  0.3171  0.4535
  386HK4    H3032349  10.367   9.133   9.709  1.4305  0.7273  0.6536
  386HK4    C4932350  10.323   8.939   9.631 -0.0055 -0.0372 -0.4822
  386HK4    H2932351  10.259   8.909   9.715 -1.5089 -2.6429 -2.4584
  386HK4     N232352  10.546   9.214   9.515 -0.0569  0.2294  0.0439
  386HK4    C3032353  10.683   9.213   9.479 -0.1613 -0.1683 -0.3544
  386HK4    C2932354  10.764   9.114   9.424 -0.0519 -0.2421 -0.0496
  386HK4    H1532355  10.721   9.021   9.388  0.3510 -0.2683 -0.4518
  386HK4    C2832356  10.902   9.128   9.433 -0.1192  0.4381 -0.0019
  386HK4    C2732357  10.952   9.254   9.470 -0.0018  0.3265  0.2179
  386HK4    H1432358  11.060   9.273   9.486 -0.1562  0.2947  1.3797
  386HK4    C3232359  10.873   9.362   9.508 -0.1778  0.2433  0.0749
  386HK4    H1632360  10.905   9.466   9.504  2.2817 -0.4851 -0.2750
  386HK4    C3132361  10.736   9.341   9.521 -0.2124 -0.0269 -0.7110
  386HK4    C3432362  10.634   9.419   9.587  0.2202 -0.2426  0.2286
  386HK4    C3332363  10.513   9.341   9.565 -0.0310  0.0947  0.4119
  386HK4    C3532364  10.391   9.406   9.578 -0.2284 -0.2705  0.3552
  386HK4    H1732365  10.300   9.353   9.550  0.8684 -1.2426 -1.4378
  386HK4    C3632366  10.383   9.544   9.587  0.3898 -0.2291  0.2609
  386HK4    H1832367  10.287   9.595   9.569  0.9595  1.1028  0.9018
  386HK4    C3732368  10.500   9.620   9.597 -0.1718  0.6713  0.0757
  386HK4    H1932369  10.502   9.727   9.577 -3.0843  0.4943 -1.5014
  386HK4    C3832370  10.624   9.557   9.600 -0.6414 -0.2789  0.0432
  386HK4    H2032371  10.708   9.624   9.620 -0.6399 -0.4439  0.5965
  386HK4    C1432372  10.991   9.011   9.444 -0.2702  0.2560 -0.6772
  386HK4     C932373  11.105   9.003   9.524 -0.6501  0.3356 -0.1181
  386HK4     C832374  11.212   8.919   9.483 -0.5580  0.0757  0.6423
  386HK4    C1132375  11.196   8.837   9.372  0.7926  0.5194  0.1128
  386HK4     H432376   0.031   8.767   9.354 -0.4693 -0.7534 -0.7985
  386HK4    C1232377  11.083   8.835   9.292  0.7917 -0.0392  0.1267
  386HK4     H532378  11.072   8.745   9.230 -1.5609  2.1306 -2.8112
  386HK4    C1332379  10.982   8.920   9.337  0.2801 -0.5634 -0.0285
  386HK4     H632380  10.889   8.918   9.279  0.9722  1.9318 -1.2847
  386HK4     C732381   0.094   8.930   9.553 -0.2391 -0.0275  0.0672
  386HK4     O232382   0.185   8.861   9.510 -0.3680 -0.2415  0.1412
  386HK4     C432383   0.108   9.021   9.669 -0.0852  0.3080 -0.2073
  386HK4     C332384   0.228   9.021   9.739 -0.1826  0.0869 -0.0394
  386HK4     H332385   0.308   8.961   9.693  0.1361 -0.5802  1.3729
  386HK4     C232386   0.250   9.109   9.844  0.0527  0.1459 -0.1388
  386HK4     H232387   0.354   9.115   9.881  0.1153 -1.8513  0.0630
  386HK4     C132388   0.142   9.183   9.891 -0.1033  0.0206 -0.2992
  386HK4     H132389   0.139   9.243   9.983 -1.9267  1.0270 -0.9856
  386HK4     C632390   0.019   9.188   9.823 -0.2026  0.0516 -0.1194
  386HK4     C532391   0.001   9.101   9.714 -0.3729 -0.2914  0.1815
  386HK4    C1032392  11.115   9.076   9.653 -0.3459  0.3710 -0.1620
  386HK4     O132393  11.022   9.062   9.732 -0.0568 -0.7928 -0.0157
  386HK4    C1632394  11.210   9.323   9.824  0.2971  0.2651 -0.2730
  386HK4    C1532395   0.038   9.441   9.843  0.0002  0.2662  1.0175
  386HK4     H732396   0.145   9.438   9.819  0.0228  0.0946  1.1439
  386HK4    C2032397  11.228   9.566   9.861 -0.5949  0.2147 -0.4227
  386HK4     H932398   0.044   9.652   9.883  1.1869 -1.5402  1.5274
  386HK4    C1932399  11.090   9.578   9.856 -0.6354 -0.2528 -0.3797
  386HK4    C1832400  11.006   9.459   9.858 -0.0571 -0.6457  0.6262
  386HK4    C1732401  11.073   9.338   9.841  0.2092 -0.3530 -0.4394
  386HK4     H832402  11.016   9.253   9.879  0.1271  0.0088  0.2451
  386HK4     N132403  10.873   9.494   9.888 -0.1393  0.1972 -0.6862
  386HK4    C2132404  10.863   9.635   9.893 -0.1601  0.1709  0.0674
  386HK4    C2232405  10.995   9.687   9.864 -0.1556  0.1334  0.0234
  386HK4    C2632406  11.009   9.817   9.816  0.0483 -0.1045 -0.5720
  386HK4    H1332407  11.102   9.840   9.765  0.9835  1.5123  1.7413
  386HK4    C2532408  10.897   9.898   9.799 -0.1594 -0.2539  0.0691
  386HK4    H1232409  10.904  10.006   9.790  2.4613 -0.5497 -1.7891
  386HK4    C2432410  10.771   9.849   9.834 -0.4006  0.5094  0.2986
  386HK4    H1132411  10.680   9.901   9.803 -2.2797 -1.7811  1.7826
  386HK4    C2332412  10.754   9.720   9.884  0.0983  0.5645  0.6212
  386HK4    H1032413  10.650   9.687   9.891  0.1037  0.1164 -1.1696
  386HK4    C3932414  10.772   9.402   9.919 -0.1978  0.3758 -0.3514
  386HK4    C4132415  10.657   9.436   9.993 -0.1235  0.1540 -0.1385
  386HK4    H2132416  10.663   9.522  10.062  1.2078 -1.2602  1.5638
  386HK4    C4232417  10.548   9.349   9.998  0.1740 -0.1657  0.9673
  386HK4    H2232418  10.478   9.353  10.082  0.3060 -0.1469  1.0769
  386HK4    C4332419  10.548   9.227   9.931 -0.2585  0.6301 -0.5098
  386HK4    H2332420  10.459   9.165   9.943  0.1206 -0.6263 -3.6378
  386HK4    C4432421  10.657   9.193   9.851 -0.1182  0.1879 -0.1381
  386HK4    H2432422  10.658   9.102   9.789  1.3360  0.8835 -1.1651
  386HK4    C4532423  10.763   9.283   9.845  0.1282 -0.0732  0.3181
  386HK4    H2532424  10.830   9.265   9.760  0.9017 -1.7941  1.2669
  387HK4    H2832425   0.337   3.997   6.435  0.9933 -1.1215 -0.2899
  387HK4    C4832426   0.266   3.916   6.451 -0.1388  0.0051  0.5000
  387HK4    C4732427   0.177   3.870   6.353 -0.1422  0.4716  0.2854
  387HK4    H2732428   0.190   3.906   6.250  0.5463 -0.3151  0.0913
  387HK4    C4632429   0.083   3.773   6.384  0.6074 -0.4916 -0.4179
  387HK4    H2632430   0.007   3.753   6.308  0.5362 -0.6430 -0.3076
  387HK4    C4032431   0.081   3.705   6.508 -0.0904  0.3835  0.0626
  387HK4    C5032432   0.165   3.764   6.604 -0.0064  0.6801 -0.1908
  387HK4    H3032433   0.165   3.716   6.704  0.2562  0.3469 -0.3497
  387HK4    C4932434   0.256   3.866   6.580  0.2354  0.7014  0.8000
  387HK4    H2932435   0.346   3.887   6.639 -0.2786  2.4629  0.9717
  387HK4     N232436  11.248   3.595   6.538 -0.2115  0.4170 -0.1382
  387HK4    C3032437  11.123   3.564   6.479  0.0470 -0.4985 -0.2048
  387HK4    C2932438  11.026   3.643   6.420 -0.5139 -0.8412  0.2512
  387HK4    H1532439  11.062   3.743   6.396 -2.6823  0.7225  3.2591
  387HK4    C2832440  10.897   3.603   6.388 -0.6418 -0.1572 -0.1077
  387HK4    C2732441  10.867   3.470   6.425 -0.3741 -0.0436  0.5170
  387HK4    H1432442  10.765   3.429   6.415 -0.8810  1.3577 -0.1245
  387HK4    C3232443  10.959   3.384   6.483 -0.4068 -0.0681  0.5309
  387HK4    H1632444  10.928   3.281   6.500  1.1170 -0.1517  2.9619
  387HK4    C3132445  11.088   3.427   6.513  0.1137 -0.6597 -0.7802
  387HK4    C3432446  11.192   3.377   6.600 -0.3234  0.3649  0.3464
  387HK4    C3332447   0.044   3.482   6.610 -0.0678  0.2148 -0.5389
  387HK4    C3532448   0.168   3.450   6.664 -0.4216  0.2095  0.2824
  387HK4    H1732449   0.250   3.518   6.643 -0.7672 -0.1862 -2.6105
  387HK4    C3632450   0.191   3.323   6.715 -0.7717  0.3484  0.7915
  387HK4    H1832451   0.287   3.313   6.768 -1.0129 -1.3032  0.9691
  387HK4    C3732452   0.100   3.218   6.706  0.1620 -0.4188  0.2864
  387HK4    H1932453   0.128   3.118   6.741 -0.7699 -0.9945 -0.5649
  387HK4    C3832454  11.226   3.251   6.649  0.5785  0.4198 -0.1246
  387HK4    H2032455  11.151   3.173   6.651 -0.9744  1.8739  0.0696
  387HK4    C1432456  10.788   3.695   6.355 -0.2748  0.5035  0.5255
  387HK4     C932457  10.658   3.680   6.405 -0.3463 -0.2249  0.1245
  387HK4     C832458  10.554   3.744   6.335 -0.0532 -0.0066 -0.1108
  387HK4    C1132459  10.586   3.829   6.229  0.4144  0.1391  0.1468
  387HK4     H432460  10.506   3.867   6.164  0.7218  1.8295  0.7322
  387HK4    C1232461  10.716   3.854   6.186  0.4766 -0.1649  0.1632
  387HK4     H532462  10.744   3.919   6.102 -0.8054  1.0258  0.6382
  387HK4    C1332463  10.819   3.787   6.253  0.4929 -0.0371  0.2671
  387HK4     H632464  10.915   3.835   6.229  0.2783  0.4117  0.2955
  387HK4     C732465  10.414   3.710   6.369 -0.1708  0.4382 -0.1372
  387HK4     O232466  10.323   3.767   6.308 -0.3018 -0.4587 -0.7834
  387HK4     C432467  10.392   3.622   6.486 -0.1145  0.6179  0.0083
  387HK4     C332468  10.263   3.576   6.510  0.0798  0.1909  0.2435
  387HK4     H332469  10.180   3.616   6.451  0.8657  1.6314  0.0890
  387HK4     C232470  10.231   3.485   6.610  0.1893  0.2661  0.3474
  387HK4     H232471  10.126   3.480   6.642  0.2115 -1.0113  0.2463
  387HK4     C132472  10.332   3.424   6.685  0.2946  0.1023  0.0718
  387HK4     H132473  10.307   3.368   6.776  0.1866  2.1453  1.3279
  387HK4     C632474  10.464   3.470   6.670  0.2964  0.0873  0.0594
  387HK4     C532475  10.489   3.567   6.572 -0.2704 -0.0698 -0.2480
  387HK4    C1032476  10.627   3.609   6.532 -0.1735  0.2765  0.4468
  387HK4     O132477  10.690   3.649   6.630  0.3145  0.4371  0.0633
  387HK4    C1632478  10.570   3.375   6.709 -0.3894 -0.5257  0.4439
  387HK4    C1532479  10.572   3.243   6.660 -0.2771 -0.4454  0.2299
  387HK4     H732480  10.489   3.214   6.594  0.2341  0.2474 -0.7260
  387HK4    C2032481  10.674   3.151   6.683  0.0664 -0.2162 -0.3992
  387HK4     H932482  10.676   3.048   6.647 -0.3224 -0.5810  0.6278
  387HK4    C1932483  10.783   3.195   6.758 -0.3793  0.3558 -0.0866
  387HK4    C1832484  10.776   3.323   6.827 -0.4337 -0.2083  0.9516
  387HK4    C1732485  10.666   3.404   6.804  0.0292  0.1205 -0.1707
  387HK4     H832486  10.656   3.500   6.855  1.2919  1.6887 -2.8059
  387HK4     N132487  10.897   3.342   6.898  0.1438 -0.1105 -0.0483
  387HK4    C2132488  10.978   3.229   6.876 -0.5390 -0.6423  0.1729
  387HK4    C2232489  10.908   3.132   6.793 -0.7904 -0.3748  0.0719
  387HK4    C2632490  10.957   3.002   6.786 -0.1527 -0.1143 -0.3311
  387HK4    H1332491  10.915   2.934   6.713 -0.5696  1.7087 -1.8334
  387HK4    C2532492  11.074   2.965   6.852 -0.1628 -0.1871 -0.3471
  387HK4    H1232493  11.107   2.862   6.867  3.4527  0.5944 -2.3864
  387HK4    C2432494  11.137   3.055   6.938 -0.0966 -0.3529 -0.2248
  387HK4    H1132495  11.191   3.010   7.022 -0.8829  1.6675  1.3756
  387HK4    C2332496  11.089   3.185   6.946 -0.0218 -0.3109 -0.4356
  387HK4    H1032497  11.138   3.235   7.031 -2.1082  0.2512  0.4640
  387HK4    C3932498  10.953   3.466   6.929  0.0258 -0.1706  0.4117
  387HK4    C4132499  11.057   3.480   7.023  0.4426 -0.3625 -0.0174
  387HK4    H2132500  11.046   3.418   7.113  0.1010 -0.9642 -0.4692
  387HK4    C4232501  11.161   3.572   7.022  0.5541 -0.4817  0.3210
  387HK4    H2232502  11.235   3.569   7.103  2.1850 -1.5513 -1.1586
  387HK4    C4332503  11.158   3.661   6.915  0.5474 -1.0803 -0.1805
  387HK4    H2332504  11.227   3.744   6.900  0.5343 -0.6726  1.9332
  387HK4    C4432505  11.056   3.658   6.820 -0.3123 -0.0060  0.6960
  387HK4    H2432506  11.067   3.722   6.732  0.8916  1.4679  1.8923
  387HK4    C4532507  10.954   3.564   6.826  0.1495 -0.5497  0.0514
  387HK4    H2532508  10.901   3.542   6.733 -0.3140  0.2743  0.1241
  388HK4    H2832509   6.630   3.282  11.035 -2.4357 -1.4117 -1.4560
  388HK4    C4832510   6.622   3.349  10.949  0.2242  0.3381 -0.3898
  388HK4    C4732511   6.656   3.483  10.963  0.2709  0.2928 -0.0711
  388HK4    H2732512   6.691   3.517  11.062  1.7862 -0.1882 -0.4211
  388HK4    C4632513   6.632   3.564  10.853  0.6323  0.2276 -0.2020
  388HK4    H2632514   6.663   3.669  10.856 -1.6338  0.9940 -2.0624
  388HK4    C4032515   6.568   3.520  10.735  0.2898 -0.0530  0.0868
  388HK4    C5032516   6.541   3.382  10.722  0.1701 -0.0030 -0.1889
  388HK4    H3032517   6.513   3.341  10.623 -1.6194  0.3339  0.1626
  388HK4    C4932518   6.570   3.299  10.830 -0.2143  0.0254 -0.0664
  388HK4    H2932519   6.567   3.192  10.808 -1.7050  0.5245 -2.5111
  388HK4     N232520   6.496   3.611  10.657  0.5165  0.1153  0.0777
  388HK4    C3032521   6.456   3.739  10.702 -0.4689 -0.0004 -0.4436
  388HK4    C2932522   6.424   3.776  10.832 -0.5632 -0.1385 -0.4276
  388HK4    H1532523   6.415   3.696  10.906  2.4234 -1.0289 -0.9413
  388HK4    C2832524   6.378   3.905  10.859 -0.1303 -0.1023  0.1501
  388HK4    C2732525   6.362   3.990  10.748  0.5921 -0.0786  0.0664
  388HK4    H1432526   6.352   4.097  10.771  1.3036  0.2443 -1.0574
  388HK4    C3232527   6.383   3.954  10.616  0.1603  0.1555 -0.0684
  388HK4    H1632528   6.355   4.015  10.530  0.6893 -0.1294 -0.4446
  388HK4    C3132529   6.436   3.828  10.590 -0.1485  0.0997 -0.4246
  388HK4    C3432530   6.501   3.763  10.478 -0.2526 -0.4963 -0.1408
  388HK4    C3332531   6.515   3.624  10.518  0.6530 -0.3552  0.0502
  388HK4    C3532532   6.557   3.534  10.421 -0.1636 -0.2247 -0.4326
  388HK4    H1732533   6.592   3.434  10.448 -1.9980 -0.6368  0.4571
  388HK4    C3632534   6.588   3.577  10.292  0.2321 -0.2110 -0.3356
  388HK4    H1832535   6.662   3.518  10.237 -1.4009 -0.9704 -1.7890
  388HK4    C3732536   6.565   3.710  10.257 -0.1030 -0.1385  0.1457
  388HK4    H1932537   6.600   3.742  10.159 -1.4720  1.2947  0.1153
  388HK4    C3832538   6.519   3.805  10.347  0.2525  0.0706  0.1077
  388HK4    H2032539   6.509   3.912  10.326 -0.6058 -0.4966 -2.5915
  388HK4    C1432540   6.327   3.934  10.994  0.1178 -0.3198  0.2944
  388HK4     C932541   6.236   4.038  11.011  0.3354 -0.0321 -0.2725
  388HK4     C832542   6.255   4.135  11.112 -0.4879  0.1341 -0.2674
  388HK4    C1132543   6.354   4.108  11.206 -0.4895  0.0440 -0.2933
  388HK4     H432544   6.401   4.192   0.012 -0.0261 -0.3375 -0.0963
  388HK4    C1232545   6.434   3.994  11.199 -0.4141  0.0519  0.4602
  388HK4     H532546   6.506   3.976   0.032 -0.7020 -0.9770  0.4889
  388HK4    C1332547   6.423   3.905  11.093  0.5244  0.3538  0.1014
  388HK4     H632548   6.478   3.810  11.090  1.9064  1.1486  0.0276
  388HK4     C732549   6.178   4.262  11.112  0.1817  0.5435 -0.5060
  388HK4     O232550   6.197   4.338  11.206  0.0020 -0.5469  0.4294
  388HK4     C432551   6.071   4.280  11.012 -0.4644 -0.1112  0.0686
  388HK4     C332552   6.022   4.409  10.997  0.1086  0.0668 -0.2421
  388HK4     H332553   6.069   4.501  11.036  1.9097 -0.6214 -0.7497
  388HK4     C232554   5.904   4.430  10.928 -0.0801 -0.1265  0.0221
  388HK4     H232555   5.862   4.529  10.901 -3.5720 -1.1231  1.4743
  388HK4     C132556   5.840   4.316  10.881  0.4948 -0.2001 -0.5696
  388HK4     H132557   5.744   4.328  10.829  0.6285 -1.5869 -1.1646
  388HK4     C632558   5.886   4.183  10.895  0.3944 -0.2270 -0.4969
  388HK4     C532559   6.008   4.164  10.960  0.1824 -0.3694 -0.1382
  388HK4    C1032560   6.102   4.049  10.947  0.0669 -0.5025  0.2087
  388HK4     O132561   6.063   3.951  10.883 -0.0558 -0.1405 -0.2781
  388HK4    C1632562   5.799   4.081  10.835  0.0791 -0.0125 -0.4076
  388HK4    C1532563   5.717   4.097  10.721 -0.5074 -0.1606 -0.0058
  388HK4     H732564   5.748   4.171  10.646 -1.5819  0.4729  0.1639
  388HK4    C2032565   5.613   4.013  10.685 -0.2340 -0.2713 -0.5483
  388HK4     H932566   5.545   4.057  10.613 -2.2591  0.6041  1.7951
  388HK4    C1932567   5.578   3.906  10.767 -0.3156  0.1230 -0.0702
  388HK4    C1832568   5.646   3.896  10.895  0.3314 -0.4216 -0.4524
  388HK4    C1732569   5.753   3.981  10.920 -0.3039  0.3173 -0.2222
  388HK4     H832570   5.791   3.974  11.022  1.3678  0.9462 -0.7762
  388HK4     N132571   5.597   3.789  10.972  0.3326 -0.4974 -0.5603
  388HK4    C2132572   5.486   3.742  10.899  0.0016 -0.4942 -0.0555
  388HK4    C2232573   5.479   3.800  10.767 -0.2778  0.0832  0.2115
  388HK4    C2632574   5.368   3.774  10.686  0.1190  0.1293 -0.3528
  388HK4    H1332575   5.376   3.782  10.578  1.1035 -0.2998 -0.3223
  388HK4    C2532576   5.253   3.717  10.739 -0.0048  0.4755 -0.2467
  388HK4    H1232577   5.165   3.693  10.678  0.8664 -2.5170 -0.4359
  388HK4    C2432578   5.252   3.672  10.870 -0.0919  0.4485 -0.2535
  388HK4    H1132579   5.156   3.630  10.905  0.3517 -1.0883 -0.8747
  388HK4    C2332580   5.371   3.677  10.942  0.0150 -0.7151 -0.3525
  388HK4    H1032581   5.364   3.652  11.048 -1.4838  0.8668 -0.0553
  388HK4    C3932582   5.677   3.695  11.038  0.0986 -0.0730  0.3302
  388HK4    C4132583   5.613   3.611  11.132 -0.6672  0.1571  0.0227
  388HK4    H2132584   5.519   3.647  11.177 -3.1184 -4.1486 -1.3709
  388HK4    C4232585   5.678   3.497  11.178  0.2224  0.2604 -0.9469
  388HK4    H2232586   5.624   3.423  11.239  0.4010  1.3296  0.5458
  388HK4    C4332587   5.805   3.461  11.135  0.6166  0.7366 -0.1955
  388HK4    H2332588   5.841   3.359  11.150  1.1701  1.1570  1.4371
  388HK4    C4432589   5.862   3.549  11.044  0.4119  0.2011 -0.8432
  388HK4    H2432590   5.967   3.530  11.018  0.2492 -0.2275 -1.2016
  388HK4    C4532591   5.803   3.661  10.986 -0.0935  0.2073 -0.3249
  388HK4    H2532592   5.842   3.711  10.896 -0.5532  2.1615  0.5412
  389HK4    H2832593   6.458   1.964   6.483  0.5189 -0.3331  1.4147
  389HK4    C4832594   6.515   1.883   6.437 -0.2694  0.1775 -0.5396
  389HK4    C4732595   6.650   1.904   6.410 -0.1792  0.2034 -0.0793
  389HK4    H2732596   6.702   1.992   6.451  1.9770 -1.4660  0.8935
  389HK4    C4632597   6.722   1.810   6.337 -0.0030  0.2511  0.0348
  389HK4    H2632598   6.825   1.838   6.311 -0.1734 -1.0702 -2.1099
  389HK4    C4032599   6.662   1.693   6.288  0.3925  0.0539  0.0184
  389HK4    C5032600   6.527   1.674   6.323  0.4211 -0.0197  0.0890
  389HK4    H3032601   6.499   1.567   6.325 -1.6860  0.4809 -1.2557
  389HK4    C4932602   6.454   1.765   6.398 -0.0020 -0.0465 -0.2870
  389HK4    H2932603   6.348   1.746   6.421  0.5972 -1.6998  1.1303
  389HK4     N232604   6.713   1.633   6.172  0.3950 -0.1586  0.1295
  389HK4    C3032605   6.807   1.688   6.083  0.3229 -0.1538  0.0555
  389HK4    C2932606   6.847   1.818   6.053 -0.6832  0.0008 -0.6593
  389HK4    H1532607   6.788   1.888   6.113  0.7424  1.5396 -1.0274
  389HK4    C2832608   6.943   1.857   5.960 -0.1173 -0.0720 -0.1085
  389HK4    C2732609   7.008   1.752   5.892  0.5240  0.2469  0.0140
  389HK4    H1432610   7.075   1.773   5.807 -0.2951 -0.7335 -0.8759
  389HK4    C3232611   6.980   1.620   5.922  0.1657  0.3474  0.1192
  389HK4    H1632612   7.047   1.544   5.883  1.2376  1.3901 -0.0756
  389HK4    C3132613   6.879   1.585   6.011 -0.1009 -0.1550 -0.3697
  389HK4    C3432614   6.816   1.461   6.053 -0.0925 -0.0572 -0.0682
  389HK4    C3332615   6.715   1.493   6.153  0.1186 -0.1714  0.1833
  389HK4    C3532616   6.654   1.388   6.219 -0.0275 -0.2730 -0.1122
  389HK4    H1732617   6.576   1.393   6.295  1.1282 -1.2440  1.1694
  389HK4    C3632618   6.692   1.256   6.199 -0.2955 -0.3558 -0.0820
  389HK4    H1832619   6.636   1.178   6.253  0.1990 -0.5236  0.1954
  389HK4    C3732620   6.798   1.227   6.113 -0.4779 -0.1106 -0.3869
  389HK4    H1932621   6.834   1.125   6.105  2.0712  0.5569  2.0304
  389HK4    C3832622   6.856   1.329   6.038 -0.3226 -0.1051 -0.2588
  389HK4    H2032623   6.939   1.308   5.971 -0.6145  1.2010 -1.0402
  389HK4    C1432624   6.966   1.999   5.934 -0.1784  0.0285  0.3651
  389HK4     C932625   7.003   2.043   5.806  0.1849 -0.9475  0.1365
  389HK4     C832626   7.090   2.153   5.795 -0.7174 -0.2582 -0.0707
  389HK4    C1132627   7.137   2.216   5.910  0.0768 -0.8154 -0.0876
  389HK4     H432628   7.212   2.296   5.899 -0.7325  0.0693  0.7435
  389HK4    C1232629   7.086   2.182   6.034  0.1592  0.2534  0.2468
  389HK4     H532630   7.094   2.261   6.110 -0.3132  0.0705  0.4905
  389HK4    C1332631   6.994   2.078   6.047 -0.4180  0.7240 -0.0538
  389HK4     H632632   6.938   2.061   6.140  0.0758  0.5680  0.2173
  389HK4     C732633   7.135   2.200   5.662 -0.2476 -0.7930 -0.0989
  389HK4     O232634   7.227   2.280   5.644 -0.4497 -0.4825  0.2469
  389HK4     C432635   7.064   2.141   5.546 -0.6770 -0.3234 -0.0755
  389HK4     C332636   7.115   2.164   5.419  0.0975 -0.9758  0.1110
  389HK4     H332637   7.219   2.199   5.404  0.1382  0.5004  3.4792
  389HK4     C232638   7.035   2.165   5.305  0.0819  0.4957  0.1162
  389HK4     H232639   7.061   2.223   5.215  0.6735 -0.6216 -0.4555
  389HK4     C132640   6.902   2.131   5.328  0.1892 -0.0637 -0.0612
  389HK4     H132641   6.831   2.153   5.248 -1.3718  0.4145  1.4371
  389HK4     C632642   6.847   2.094   5.453 -0.3444 -0.2919 -0.3647
  389HK4     C532643   6.933   2.093   5.563 -0.6294 -0.4763 -0.1456
  389HK4    C1032644   6.915   2.015   5.689 -0.1453 -0.0651  0.1788
  389HK4     O132645   6.838   1.919   5.687 -0.0415 -0.1349 -0.3137
  389HK4    C1632646   6.705   2.056   5.454 -0.6124  0.7022 -0.0976
  389HK4    C1532647   6.630   2.022   5.340 -0.4240  0.2363 -0.0843
  389HK4     H732648   6.697   2.000   5.255 -1.6351  0.5468 -1.1449
  389HK4    C2032649   6.491   2.019   5.328 -0.4119 -0.3777 -0.0953
  389HK4     H932650   6.449   1.996   5.230 -0.6814  0.9275 -0.3005
  389HK4    C1932651   6.417   2.057   5.440  0.0752 -0.1613  0.1560
  389HK4    C1832652   6.490   2.098   5.558 -0.3143 -0.0098  0.3436
  389HK4    C1732653   6.629   2.093   5.564 -0.3072  0.1352  0.3053
  389HK4     H832654   6.678   2.126   5.656  1.1635 -1.7102  0.2069
  389HK4     N132655   6.399   2.111   5.665 -0.3246 -0.0905  0.3454
  389HK4    C2132656   6.272   2.084   5.611 -0.2667 -0.0029  0.1689
  389HK4    C2232657   6.276   2.049   5.470  0.1128 -0.3842  0.2738
  389HK4    C2632658   6.158   2.058   5.397  0.4557 -0.1115 -0.2462
  389HK4    H1332659   6.165   2.022   5.294 -1.7236  1.1912 -0.8854
  389HK4    C2532660   6.037   2.092   5.456  0.4652  0.1345 -0.3689
  389HK4    H1232661   5.946   2.092   5.396  0.1731 -0.0193  0.0792
  389HK4    C2432662   6.036   2.124   5.591  0.3695  0.2084 -0.3868
  389HK4    H1132663   5.943   2.167   5.632  1.3443  2.3597 -0.3537
  389HK4    C2332664   6.151   2.120   5.669 -0.0041  0.8242  0.2116
  389HK4    H1032665   6.138   2.145   5.774 -1.2650 -0.4194  0.3657
  389HK4    C3932666   6.438   2.090   5.798 -0.1046  0.3437  0.3527
  389HK4    C4132667   6.370   2.156   5.903  0.1100  0.7913  0.2097
  389HK4    H2132668   6.312   2.248   5.889  0.0922  0.8152  0.4421
  389HK4    C4232669   6.367   2.100   6.030 -0.2525 -0.3722 -0.3057
  389HK4    H2232670   6.305   2.144   6.109 -0.7392 -0.1898 -0.7823
  389HK4    C4332671   6.441   1.987   6.064 -0.2437 -0.2012  0.2336
  389HK4    H2332672   6.451   1.963   6.170 -0.0412 -1.0566  0.0220
  389HK4    C4432673   6.512   1.926   5.962 -0.1938  0.7643 -0.3102
  389HK4    H2432674   6.565   1.833   5.987 -1.5807  0.0387  0.0019
  389HK4    C4532675   6.509   1.973   5.831 -0.3879 -0.1044 -0.6169
  389HK4    H2532676   6.585   1.933   5.761 -2.0622 -0.5373 -2.2482
  390HK4    H2832677   3.245   0.811   3.597 -0.9147  1.2571  0.4561
  390HK4    C4832678   3.176   0.735   3.632  0.0875  0.0741 -0.0987
  390HK4    C4732679   3.230   0.627   3.701 -0.1755  0.1903  0.2899
  390HK4    H2732680   3.339   0.629   3.714  0.0540 -0.3689 -1.3709
  390HK4    C4632681   3.151   0.548   3.783  0.1935 -0.3060  0.1704
  390HK4    H2632682   3.202   0.482   3.854  1.6011  0.3225 -0.2463
  390HK4    C4032683   3.012   0.571   3.794  0.1761 -0.0771 -0.5054
  390HK4    C5032684   2.957   0.668   3.708 -0.3371  0.2733  0.2115
  390HK4    H3032685   2.850   0.687   3.695 -0.5400 -1.7174 -1.1898
  390HK4    C4932686   3.038   0.749   3.628  0.0838  0.2427  0.5994
  390HK4    H2932687   2.989   0.814   3.553 -0.7713  0.1213  1.0425
  390HK4     N232688   2.932   0.494   3.879  0.8256  0.0481  0.2328
  390HK4    C3032689   2.970   0.365   3.922  0.7671  0.1620  0.6272
  390HK4    C2932690   3.046   0.266   3.861 -0.2178 -0.2378  0.0205
  390HK4    H1532691   3.080   0.286   3.759 -0.8758 -0.6881 -0.2860
  390HK4    C2832692   3.063   0.141   3.918 -0.1474 -0.1928  0.0981
  390HK4    C2732693   3.011   0.125   4.048 -0.5205 -0.7185 -0.1152
  390HK4    H1432694   3.013   0.023   4.090  1.6031 -0.7538 -0.2431
  390HK4    C3232695   2.925   0.215   4.109  0.3076 -0.1297  0.1799
  390HK4    H1632696   2.917   0.209   4.218  2.3543  0.6743  0.4059
  390HK4    C3132697   2.900   0.336   4.045 -0.3534 -0.4318 -0.1335
  390HK4    C3432698   2.815   0.451   4.074  0.4361  0.1657 -0.1738
  390HK4    C3332699   2.834   0.546   3.966  0.1933 -0.0526 -0.4092
  390HK4    C3532700   2.744   0.649   3.947  0.0416 -0.0720  0.1844
  390HK4    H1732701   2.778   0.739   3.894  0.5672 -0.2501  0.2206
  390HK4    C3632702   2.628   0.656   4.023 -0.3235 -0.3989 -0.3423
  390HK4    H1832703   2.543   0.721   3.995  1.2601  1.7718 -0.2066
  390HK4    C3732704   2.607   0.568   4.129  0.2717 -0.2765 -0.1236
  390HK4    H1932705   2.509   0.557   4.174  0.6366 -0.6606  0.5821
  390HK4    C3832706   2.703   0.471   4.153  0.4627 -0.0770 -0.0756
  390HK4    H2032707   2.692   0.409   4.242 -1.1472 -1.8230 -1.4436
  390HK4    C1432708   3.111   0.027   3.838 -0.1745  0.0321 -0.2373
  390HK4     C932709   3.105  11.141   3.879 -0.5414 -0.0927 -0.6909
  390HK4     C832710   3.201  11.051   3.829 -0.3054 -0.2192 -0.0063
  390HK4    C1132711   3.293  11.086   3.731 -0.2850 -0.4216 -0.0594
  390HK4     H432712   3.363  11.019   3.678 -1.0687 -1.5004  0.2660
  390HK4    C1232713   3.295  11.216   3.682 -0.3037 -0.3967  0.0007
  390HK4     H532714   3.375  11.242   3.610 -1.9467  1.8054 -1.0894
  390HK4    C1332715   3.206   0.059   3.739 -0.1133 -0.0748 -0.2121
  390HK4     H632716   3.219   0.164   3.708 -0.0856 -0.0962 -0.2740
  390HK4     C732717   3.221  10.916   3.887  0.1740 -0.1502 -0.0048
  390HK4     O232718   3.297  10.834   3.837 -0.0288  0.1081 -0.7418
  390HK4     C432719   3.116  10.865   3.978  0.2968  0.1591  0.3128
  390HK4     C332720   3.130  10.736   4.028 -0.1371 -0.0161 -0.0113
  390HK4     H332721   3.188  10.667   3.964  0.5754  0.8117 -0.2656
  390HK4     C232722   3.052  10.684   4.130  0.3760  0.4282  0.6098
  390HK4     H232723   3.081  10.592   4.184  2.3080 -0.1332 -1.3209
  390HK4     C132724   2.954  10.768   4.181 -0.0151  0.7372 -0.6503
  390HK4     H132725   2.875  10.725   4.243  2.0891  0.2826  1.7957
  390HK4     C632726   2.934  10.899   4.132 -0.3354  0.8414 -0.2436
  390HK4     C532727   3.009  10.945   4.023  0.3652  0.3991  0.0495
  390HK4    C1032728   2.996  11.078   3.958 -0.3676  0.2002 -0.2158
  390HK4     O132729   2.886  11.110   3.913 -0.5304  0.3219  0.2695
  390HK4    C1632730   2.889  10.986   4.242 -0.0346  0.8227 -0.1044
  390HK4    C1532731   2.931  10.971   4.376  0.1387  0.0427 -0.2473
  390HK4     H732732   3.026  10.915   4.383  0.7734  0.4194 -4.3229
  390HK4    C2032733   2.881  11.023   4.494  0.7082 -0.0489  0.0362
  390HK4     H932734   2.916  11.000   4.595 -1.6222 -0.1619  0.8454
  390HK4    C1932735   2.766  11.098   4.473  1.1370  0.5667 -0.1255
  390HK4    C1832736   2.715  11.123   4.339 -0.6601 -0.6841  0.3100
  390HK4    C1732737   2.777  11.066   4.228 -1.0299 -0.5294  0.0258
  390HK4     H832738   2.721  11.054   4.136 -0.8294  0.7113 -0.2708
  390HK4     N132739   2.609  11.216   4.340 -0.0301  0.0390  0.2921
  390HK4    C2132740   2.591  11.246   4.476 -0.2073 -0.0203  0.2821
  390HK4    C2232741   2.688  11.181   4.562 -0.0178 -0.4018 -0.2202
  390HK4    C2632742   2.698  11.207   4.698 -0.0700  0.4358 -0.3699
  390HK4    H1332743   2.781  11.176   4.762  0.3663 -0.4193 -1.3492
  390HK4    C2532744   2.601   0.042   4.754 -0.0099  0.1804  0.1164
  390HK4    H1232745   2.576   0.032   4.860  1.1227  0.6710  0.4396
  390HK4    C2432746   2.513   0.111   4.672  0.4155  0.1725 -0.3539
  390HK4    H1132747   2.442   0.177   4.725  0.7182 -0.6020  1.0534
  390HK4    C2332748   2.503   0.088   4.535 -0.2140  0.3875 -0.3455
  390HK4    H1032749   2.414   0.121   4.482  0.0094 -0.4140 -1.2154
  390HK4    C3932750   2.556   0.032   4.228  0.0652  0.2206  0.3504
  390HK4    C4132751   2.426   0.087   4.231 -0.0642 -0.0624  0.0012
  390HK4    H2132752   2.350   0.046   4.300  0.5553  1.4146  1.6228
  390HK4    C4232753   2.389   0.193   4.149 -0.4693 -0.1650  0.0479
  390HK4    H2232754   2.288   0.235   4.157 -0.2628  0.2288  0.6583
  390HK4    C4332755   2.476   0.233   4.049 -0.5781 -0.7650 -0.2847
  390HK4    H2332756   2.455   0.326   3.996  2.1503 -0.5788 -1.1603
  390HK4    C4432757   2.599   0.171   4.029  0.0195  0.2319  0.2737
  390HK4    H2432758   2.673   0.213   3.959 -1.2100  0.7238 -0.7502
  390HK4    C4532759   2.638   0.074   4.121 -0.2608 -0.2087 -0.0688
  390HK4    H2532760   2.744   0.046   4.128 -0.6930 -2.3249 -1.6117
  391HK4    H2832761   8.027   1.688   7.241  0.3917 -1.3349  1.0287
  391HK4    C4832762   7.921   1.687   7.215  0.6167  0.3430 -0.0120
  391HK4    C4732763   7.834   1.706   7.321  0.0738 -0.0808 -0.3832
  391HK4    H2732764   7.862   1.763   7.411  0.1339  0.0467 -0.4836
  391HK4    C4632765   7.705   1.658   7.302 -0.2161  0.4009  0.3373
  391HK4    H2632766   7.637   1.654   7.389  1.7688  0.3936  1.9232
  391HK4    C4032767   7.656   1.613   7.177  0.1941  0.1677  0.2597
  391HK4    C5032768   7.748   1.606   7.070 -0.3113  0.5710 -0.2033
  391HK4    H3032769   7.717   1.571   6.971  3.0670  0.7768 -1.3892
  391HK4    C4932770   7.881   1.638   7.091 -0.1994 -0.3427  0.5157
  391HK4    H2932771   7.949   1.604   7.012 -0.8388  0.8892 -0.5912
  391HK4     N232772   7.545   1.529   7.167 -0.2028  0.7558 -0.2914
  391HK4    C3032773   7.475   1.468   7.273  0.1654  0.0734 -0.4369
  391HK4    C2932774   7.514   1.430   7.401 -0.2282 -0.3374 -0.4434
  391HK4    H1532775   7.619   1.440   7.428 -0.3069 -0.6727  0.0089
  391HK4    C2832776   7.427   1.382   7.498  0.2431  0.2454  0.2680
  391HK4    C2732777   7.292   1.377   7.458  0.3755 -0.0706 -0.1429
  391HK4    H1432778   7.224   1.355   7.541  0.9444 -1.9328 -0.1490
  391HK4    C3232779   7.248   1.408   7.330  0.0867  0.4758  0.0849
  391HK4    H1632780   7.142   1.398   7.306  0.0404  1.8831 -0.3456
  391HK4    C3132781   7.338   1.446   7.231  0.0967 -0.0914 -0.1272
  391HK4    C3432782   7.325   1.486   7.093 -0.5258 -0.0859 -0.0675
  391HK4    C3332783   7.453   1.547   7.062 -0.5670 -0.0200 -0.1047
  391HK4    C3532784   7.463   1.617   6.942 -0.0166 -0.2179 -0.1744
  391HK4    H1732785   7.543   1.691   6.936  2.3077 -2.6566 -0.4265
  391HK4    C3632786   7.362   1.613   6.847  0.2362 -0.3518 -0.4424
  391HK4    H1832787   7.367   1.653   6.745 -0.8091  0.3121 -0.2397
  391HK4    C3732788   7.241   1.552   6.880  0.4146 -0.4990 -0.0581
  391HK4    H1932789   7.191   1.510   6.793 -0.1651 -1.8762  0.9097
  391HK4    C3832790   7.218   1.495   7.005 -0.5280 -0.1451 -0.0688
  391HK4    H2032791   7.119   1.455   7.029 -0.0305 -2.2397 -1.3685
  391HK4    C1432792   7.478   1.298   7.608  0.2016  0.1583  0.2230
  391HK4     C932793   7.412   1.191   7.669  0.4219  0.0231  0.2258
  391HK4     C832794   7.423   1.175   7.809 -0.7287 -0.2946  0.2872
  391HK4    C1132795   7.501   1.258   7.888 -0.2948 -0.1870 -0.2540
  391HK4     H432796   7.508   1.260   7.998 -2.5010  0.5460 -0.0960
  391HK4    C1232797   7.576   1.355   7.822 -0.2153  0.1225  0.2865
  391HK4     H532798   7.648   1.411   7.883 -1.1201  2.0528 -0.3882
  391HK4    C1332799   7.571   1.372   7.684  0.7780 -0.5017  0.1659
  391HK4     H632800   7.649   1.425   7.628  0.1249 -0.5860 -0.8373
  391HK4     C732801   7.371   1.053   7.873 -0.8801 -0.2151  0.3160
  391HK4     O232802   7.313   1.056   7.982  0.4040 -0.2305  0.9984
  391HK4     C432803   7.333   0.939   7.785  0.1985 -0.3861  0.0670
  391HK4     C332804   7.330   0.811   7.839  0.7178 -0.5745 -0.3476
  391HK4     H332805   7.391   0.791   7.928  0.2698 -1.1037 -0.1583
  391HK4     C232806   7.267   0.708   7.771 -0.0442 -0.2242 -0.1885
  391HK4     H232807   7.239   0.613   7.818  0.1664 -0.3001 -0.2145
  391HK4     C132808   7.202   0.735   7.651 -0.1585  0.0181 -0.0737
  391HK4     H132809   7.121   0.665   7.626 -0.8863  1.2330 -1.1639
  391HK4     C632810   7.210   0.863   7.593  1.1171 -0.1569 -0.3172
  391HK4     C532811   7.286   0.962   7.654  0.8206 -0.0614 -0.1004
  391HK4    C1032812   7.346   1.083   7.591  0.7327  0.0197 -0.0294
  391HK4     O132813   7.379   1.075   7.473 -0.1460 -0.0612 -0.2756
  391HK4    C1632814   7.124   0.886   7.475  0.2125  0.1074  0.3890
  391HK4    C1532815   7.075   1.014   7.440 -0.3696 -0.3266 -0.3932
  391HK4     H732816   7.077   1.093   7.517  2.8464 -0.6016 -0.1247
  391HK4    C2032817   7.005   1.039   7.323 -0.0953 -0.0441 -0.4968
  391HK4     H932818   6.983   1.142   7.296 -1.4128 -0.5346 -1.3487
  391HK4    C1932819   6.966   0.932   7.243  0.1312 -0.2642 -0.3159
  391HK4    C1832820   7.033   0.806   7.268  1.1476  0.2127 -0.6035
  391HK4    C1732821   7.103   0.782   7.386  0.1428  0.4099  0.0525
  391HK4     H832822   7.162   0.691   7.396 -0.1999  0.0618 -0.9650
  391HK4     N132823   6.998   0.710   7.171 -0.2197 -0.5150  0.5809
  391HK4    C2132824   6.901   0.774   7.091 -0.1877 -0.6184  0.4594
  391HK4    C2232825   6.875   0.911   7.132  0.0319 -0.3683 -0.2161
  391HK4    C2632826   6.776   0.987   7.072 -0.3372 -0.4349  0.3033
  391HK4    H1332827   6.761   1.092   7.099 -2.1845 -0.4645 -0.4896
  391HK4    C2532828   6.705   0.928   6.967 -0.5868  0.0373  0.2046
  391HK4    H1232829   6.617   0.977   6.927 -0.4963  1.0534  1.2054
  391HK4    C2432830   6.737   0.802   6.919  0.0835  0.2814  0.0008
  391HK4    H1132831   6.692   0.771   6.824 -0.2363  0.9600 -0.0677
  391HK4    C2332832   6.837   0.725   6.978  0.2567  0.3427 -0.2177
  391HK4    H1032833   6.873   0.628   6.942  1.4189  1.4833 -2.2775
  391HK4    C3932834   7.083   0.605   7.136  0.1480  0.2788 -0.9376
  391HK4    C4132835   7.031   0.479   7.098 -0.0724 -0.0931  0.5983
  391HK4    H2132836   6.924   0.457   7.109  0.6000 -2.8185  2.2764
  391HK4    C4232837   7.110   0.381   7.040 -0.0636  0.2293  0.0688
  391HK4    H2232838   7.064   0.295   6.990 -0.1951 -0.0095  0.5977
  391HK4    C4332839   7.246   0.404   7.022 -0.1784  0.4022 -0.6075
  391HK4    H2332840   7.315   0.323   6.996 -1.5705 -0.2317 -2.4127
  391HK4    C4432841   7.298   0.529   7.053  0.6823 -0.1367  0.1684
  391HK4    H2432842   7.397   0.565   7.022 -0.0190  0.7365 -1.1017
  391HK4    C4532843   7.220   0.628   7.111  0.3751 -0.1964 -0.1433
  391HK4    H2532844   7.271   0.721   7.139  1.0849 -0.8504  0.7512
  392HK4    H2832845   3.897   6.845   3.475  0.6204  0.0134  0.6754
  392HK4    C4832846   3.820   6.818   3.547  0.4009  0.4676  0.6128
  392HK4    C4732847   3.860   6.734   3.651  0.2416 -0.2649  0.0909
  392HK4    H2732848   3.965   6.703   3.660  0.5375  1.0459  1.6187
  392HK4    C4632849   3.767   6.699   3.748  0.4591 -0.0446  0.3825
  392HK4    H2632850   3.806   6.645   3.836  0.8821  3.8248  2.6963
  392HK4    C4032851   3.632   6.738   3.742  0.6157  0.4541  0.1549
  392HK4    C5032852   3.603   6.825   3.634 -0.1757  0.1648  0.1264
  392HK4    H3032853   3.506   6.875   3.626 -1.2287 -1.7785  0.3894
  392HK4    C4932854   3.693   6.873   3.540  0.3047  0.2512  0.6279
  392HK4    H2932855   3.677   6.958   3.471  1.6153  1.0560  1.2871
  392HK4     N232856   3.537   6.658   3.807  0.5696  0.1458 -0.2875
  392HK4    C3032857   3.552   6.528   3.858 -0.4162  0.0284 -0.3036
  392HK4    C2932858   3.625   6.425   3.800  0.2544  0.1215  0.3708
  392HK4    H1532859   3.664   6.447   3.701  1.0215 -0.4245  0.5507
  392HK4    C2832860   3.615   6.294   3.846 -0.1678 -0.0074 -0.0830
  392HK4    C2732861   3.544   6.268   3.965  0.1567 -0.2735  0.0534
  392HK4    H1432862   3.575   6.181   4.024  1.6109  0.2841  0.1384
  392HK4    C3232863   3.467   6.369   4.022 -0.0650 -0.1898 -0.3918
  392HK4    H1632864   3.417   6.355   4.117  0.6360 -0.9017 -0.1230
  392HK4    C3132865   3.461   6.497   3.966 -0.5968 -0.2810 -0.5410
  392HK4    C3432866   3.375   6.614   3.973 -0.5228 -0.2278 -0.5104
  392HK4    C3332867   3.428   6.710   3.879  0.6124 -0.2663  0.0778
  392HK4    C3532868   3.362   6.833   3.872  0.2731 -0.4257  0.4597
  392HK4    H1732869   3.401   6.908   3.804 -1.4932  0.4347  0.3685
  392HK4    C3632870   3.239   6.854   3.933  0.1650  0.4770 -0.0626
  392HK4    H1832871   3.181   6.947   3.927 -1.4365 -0.3650  1.6288
  392HK4    C3732872   3.194   6.760   4.025  0.4588  0.5469  0.1546
  392HK4    H1932873   3.117   6.792   4.095  0.4646  1.4210 -0.2360
  392HK4    C3832874   3.261   6.640   4.049 -0.3434  0.0020 -0.3195
  392HK4    H2032875   3.229   6.577   4.132  1.2846  0.5501  0.7515
  392HK4    C1432876   3.672   6.185   3.765 -0.3317 -0.0231 -0.1763
  392HK4     C932877   3.635   6.051   3.783  0.0468 -0.1355 -0.2249
  392HK4     C832878   3.734   5.950   3.774  0.0451 -0.1899  0.3828
  392HK4    C1132879   3.863   5.989   3.742 -0.1108  0.2475  0.2859
  392HK4     H432880   3.938   5.910   3.729  0.8182  0.9370  1.3505
  392HK4    C1232881   3.900   6.119   3.708 -0.1053  0.0976 -0.2852
  392HK4     H532882   3.990   6.145   3.650 -0.8001 -0.6358 -1.7341
  392HK4    C1332883   3.803   6.217   3.726  0.0428  0.0050  1.0643
  392HK4     H632884   3.832   6.323   3.715 -2.4771  0.4836 -1.5556
  392HK4     C732885   3.701   5.806   3.773  0.1141 -0.2074  0.5679
  392HK4     O232886   3.777   5.728   3.830  0.0769 -0.5105  0.1995
  392HK4     C432887   3.562   5.766   3.743  0.2630 -0.1601 -0.1795
  392HK4     C332888   3.534   5.631   3.726  0.5077 -0.1925 -0.3328
  392HK4     H332889   3.614   5.560   3.751 -0.2720 -0.6156  1.0255
  392HK4     C232890   3.414   5.590   3.668 -0.1455  0.8610  0.2622
  392HK4     H232891   3.378   5.488   3.653  0.1035  1.0440 -1.6767
  392HK4     C132892   3.326   5.689   3.625 -0.6021  0.1413 -0.4596
  392HK4     H132893   3.230   5.660   3.580 -0.1776  0.4858 -1.6008
  392HK4     C632894   3.353   5.827   3.637  0.0916 -0.0312  0.0197
  392HK4     C532895   3.464   5.863   3.714 -0.0269 -0.2989  0.3221
  392HK4    C1032896   3.497   6.002   3.756 -0.0235 -0.3816  0.5865
  392HK4     O132897   3.399   6.061   3.803 -0.0638 -0.1639  0.2317
  392HK4    C1632898   3.243   5.916   3.597 -0.0145  0.0217  0.4289
  392HK4    C1532899   3.112   5.866   3.583  0.3126 -0.7583  0.1259
  392HK4     H732900   3.071   5.810   3.669  1.4523 -2.2175 -0.2705
  392HK4    C2032901   3.028   5.906   3.480  0.5196 -0.0639  0.2240
  392HK4     H932902   2.927   5.864   3.475 -0.0159  1.1902  0.3314
  392HK4    C1932903   3.075   6.001   3.390 -0.1200  0.1518  0.1153
  392HK4    C1832904   3.201   6.068   3.413  0.2408 -0.4493 -0.1264
  392HK4    C1732905   3.279   6.025   3.520  0.1623 -0.3670 -0.0358
  392HK4     H832906   3.378   6.068   3.534  0.5253 -0.9765 -0.7042
  392HK4     N132907   3.205   6.190   3.343  0.3273 -0.3383  0.0719
  392HK4    C2132908   3.090   6.190   3.261 -0.1033  0.2359  0.6666
  392HK4    C2232909   3.014   6.068   3.277 -0.2114  0.2424  0.2181
  392HK4    C2632910   2.887   6.053   3.222  0.1872 -0.3547 -0.5545
  392HK4    H1332911   2.826   5.965   3.240 -0.4070 -0.0383 -1.0099
  392HK4    C2532912   2.834   6.160   3.151  0.0387 -0.4533 -0.5922
  392HK4    H1232913   2.733   6.142   3.115  0.5378  0.3044 -2.4454
  392HK4    C2432914   2.902   6.280   3.137 -0.2504 -0.2046  0.1594
  392HK4    H1132915   2.866   6.363   3.074 -0.6649  0.1546  0.8633
  392HK4    C2332916   3.026   6.297   3.198 -0.0564 -0.2504 -0.2224
  392HK4    H1032917   3.077   6.392   3.187  0.2869 -0.3071  0.8112
  392HK4    C3932918   3.272   6.304   3.390  0.3759 -0.3115 -0.0632
  392HK4    C4132919   3.307   6.412   3.306  0.0170  0.0727  0.2780
  392HK4    H2132920   3.285   6.403   3.199  3.1133 -1.1890 -0.2829
  392HK4    C4232921   3.349   6.537   3.350 -0.0864  0.1846  0.0524
  392HK4    H2232922   3.390   6.612   3.281  0.8397 -0.2284  0.1499
  392HK4    C4332923   3.338   6.567   3.485 -0.6918  0.5367 -0.0731
  392HK4    H2332924   3.357   6.665   3.528  1.1918  0.3684 -0.4783
  392HK4    C4432925   3.307   6.462   3.571 -1.3275  0.5294 -0.3047
  392HK4    H2432926   3.343   6.462   3.676  1.6824  0.6942 -1.2688
  392HK4    C4532927   3.277   6.334   3.528  0.1238  0.1244 -0.1461
  392HK4    H2532928   3.242   6.255   3.596  1.5156  0.6699  1.2250
  393HK4    H2832929   8.964   9.034   4.058  0.4364 -0.6590  0.2850
  393HK4    C4832930   9.062   9.056   4.100  0.3526  0.4109 -0.0556
  393HK4    C4732931   9.169   8.985   4.047  0.0487  0.2222 -0.4330
  393HK4    H2732932   9.154   8.904   3.975  2.0979 -0.5719 -0.0312
  393HK4    C4632933   9.297   9.015   4.095 -0.0992  0.0562  0.0680
  393HK4    H2632934   9.381   8.947   4.074 -0.2189  0.1057 -0.5791
  393HK4    C4032935   9.324   9.134   4.166  0.0544  0.0112  0.0826
  393HK4    C5032936   9.214   9.210   4.208 -0.5021 -0.7539  0.0291
  393HK4    H3032937   9.235   9.301   4.267 -2.7330  0.5328 -1.0644
  393HK4    C4932938   9.085   9.169   4.177 -0.9560  1.0243 -0.5447
  393HK4    H2932939   8.993   9.212   4.220 -1.2610  0.5614 -0.7247
  393HK4     N232940   9.446   9.202   4.156 -0.0468  0.1860  0.0634
  393HK4    C3032941   9.545   9.180   4.058 -0.2231  0.0487 -0.0828
  393HK4    C2932942   9.523   9.150   3.924 -0.2185 -0.0492 -0.0617
  393HK4    H1532943   9.418   9.141   3.895  0.2484  1.2504 -2.2482
  393HK4    C2832944   9.630   9.133   3.838 -0.4120  0.4178 -0.3939
  393HK4    C2732945   9.760   9.148   3.892 -0.5562  0.0254  0.0645
  393HK4    H1432946   9.842   9.115   3.827 -1.7112  0.7204 -1.7824
  393HK4    C3232947   9.782   9.194   4.021 -0.7346  0.6431 -0.1239
  393HK4    H1632948   9.883   9.206   4.061 -1.2322 -0.6103  1.5333
  393HK4    C3132949   9.677   9.210   4.110 -0.4947  0.9610  0.1006
  393HK4    C3432950   9.656   9.268   4.242 -0.3881  0.7844  0.1962
  393HK4    C3332951   9.515   9.251   4.269 -0.2678 -0.0742  0.3097
  393HK4    C3532952   9.463   9.262   4.398 -0.2638 -0.1941  0.3209
  393HK4    H1732953   9.367   9.308   4.420  0.3410  0.3476  1.8417
  393HK4    C3632954   9.551   9.278   4.504  0.1016  0.4518 -0.0785
  393HK4    H1832955   9.516   9.298   4.606  0.3329  0.9062 -0.0849
  393HK4    C3732956   9.687   9.295   4.481  0.2554 -0.3722  0.2147
  393HK4    H1932957   9.759   9.284   4.562 -0.1442 -0.4629  0.5549
  393HK4    C3832958   9.737   9.296   4.351  0.0056 -0.0372  0.1225
  393HK4    H2032959   9.838   9.327   4.324 -0.3067  0.3346 -0.6354
  393HK4    C1432960   9.617   9.089   3.698 -0.0723  0.1648 -0.3466
  393HK4     C932961   9.711   9.023   3.619 -0.5851 -1.0078  0.0143
  393HK4     C832962   9.727   9.062   3.485 -0.3876 -0.2915  0.2454
  393HK4    C1132963   9.636   9.149   3.427 -0.6845 -0.4892  0.4204
  393HK4     H432964   9.655   9.191   3.327 -1.6376  1.1982  0.9208
  393HK4    C1232965   9.532   9.208   3.499  0.0247  0.7053  0.4868
  393HK4     H532966   9.441   9.249   3.452  0.4520  1.5493  0.4010
  393HK4    C1332967   9.523   9.172   3.633 -0.6892 -0.0745  0.2374
  393HK4     H632968   9.430   9.199   3.685  0.1827 -0.0754  1.8427
  393HK4     C732969   9.853   9.021   3.417 -0.4511  0.0978 -0.1124
  393HK4     O232970   9.854   9.040   3.296  0.2218  0.4302 -0.0554
  393HK4     C432971   9.951   8.932   3.484 -0.1026  0.4505 -0.1491
  393HK4     C332972  10.071   8.910   3.419  0.0419  0.1817  0.2140
  393HK4     H332973  10.099   8.968   3.329 -0.0731  0.1498  0.1588
  393HK4     C232974  10.169   8.827   3.472  0.0303  0.2776  0.3861
  393HK4     H232975  10.275   8.847   3.448 -0.0387  1.5610  1.0996
  393HK4     C132976  10.125   8.751   3.580 -0.3789 -0.8465 -0.5675
  393HK4     H132977  10.187   8.662   3.600 -0.6142 -1.0897 -0.9221
  393HK4     C632978  10.010   8.778   3.656  0.2717 -0.2734  0.2257
  393HK4     C532979   9.919   8.873   3.608  0.4559 -0.4183 -0.4156
  393HK4    C1032980   9.791   8.909   3.674  0.1630 -0.8536 -0.7453
  393HK4     O132981   9.719   8.830   3.735 -0.0486 -0.0956 -0.0025
  393HK4    C1632982  10.000   8.702   3.781 -0.2561 -0.2414  0.2059
  393HK4    C1532983  10.044   8.568   3.786 -0.6267 -0.3672  0.1403
  393HK4     H732984  10.026   8.510   3.694 -0.2792  0.9590 -0.7778
  393HK4    C2032985  10.070   8.500   3.905 -0.5340 -0.0149  0.3197
  393HK4     H932986  10.108   8.398   3.897 -0.9563 -0.2563  1.4022
  393HK4    C1932987  10.052   8.564   4.027 -0.3049 -0.0229  0.3572
  393HK4    C1832988  10.005   8.701   4.025  0.2796  0.1738 -0.0780
  393HK4    C1732989   9.984   8.766   3.904  0.2148  0.2862 -0.0064
  393HK4     H832990   9.948   8.869   3.900  1.3683  0.6983 -0.0903
  393HK4     N132991  10.006   8.752   4.157 -0.7495 -0.3387  0.1345
  393HK4    C2132992  10.058   8.650   4.239 -0.3320 -0.0512  0.2276
  393HK4    C2232993  10.092   8.532   4.162  0.8324  0.3438  0.1116
  393HK4    C2632994  10.131   8.412   4.220 -0.5141 -0.2052 -0.0976
  393HK4    H1332995  10.145   8.318   4.166  1.3367 -0.0005  0.0049
  393HK4    C2532996  10.137   8.411   4.359  0.5452 -0.0735 -0.1384
  393HK4    H1232997  10.154   8.315   4.407 -0.2139  0.9999  2.3917
  393HK4    C2432998  10.089   8.516   4.437 -0.2780 -0.3567 -0.2519
  393HK4    H1132999  10.088   8.505   4.547 -0.5215 -0.4716 -0.2669
  393HK4    C2333000  10.057   8.637   4.377 -0.0059 -0.0419  0.2300
  393HK4    H1033001  10.044   8.723   4.443  1.9615  1.2989 -1.0919
  393HK4    C3933002   9.913   8.847   4.199  0.0045  0.3815  0.1930
  393HK4    C4133003   9.940   8.921   4.316  0.5593 -0.2446  0.4646
  393HK4    H2133004  10.039   8.952   4.354  0.0397 -0.1614  1.7949
  393HK4    C4233005   9.837   8.982   4.386  0.4917 -0.4027  0.4988
  393HK4    H2233006   9.861   9.036   4.479  1.1931  1.1637 -0.5751
  393HK4    C4333007   9.706   8.975   4.341  0.6535 -0.8883  0.1090
  393HK4    H2333008   9.630   9.021   4.404  0.9137  0.1955 -0.3633
  393HK4    C4433009   9.677   8.906   4.224  1.0655 -0.3598 -0.3127
  393HK4    H2433010   9.571   8.889   4.200 -0.1857  1.7505  3.3708
  393HK4    C4533011   9.780   8.844   4.154  0.5328 -0.0934 -1.3364
  393HK4    H2533012   9.763   8.783   4.063 -1.3031 -1.5455 -0.0610
  394HK4    H2833013   3.998   6.546   3.152  2.0352  1.1728 -0.3383
  394HK4    C4833014   3.999   6.509   3.050  0.1128  0.0548  0.0251
  394HK4    C4733015   4.092   6.413   3.012  0.0953 -0.0261  0.1868
  394HK4    H2733016   4.173   6.374   3.075 -1.9272 -1.7664  1.7638
  394HK4    C4633017   4.082   6.374   2.879  0.0477 -0.1656  0.2327
  394HK4    H2633018   4.143   6.287   2.851  0.9194  0.0872  1.3361
  394HK4    C4033019   3.987   6.425   2.787  0.1385 -0.2482  0.0929
  394HK4    C5033020   3.901   6.528   2.829  0.3960 -0.1197  0.3061
  394HK4    H3033021   3.849   6.591   2.756 -1.8059  0.9826  2.7306
  394HK4    C4933022   3.903   6.562   2.964 -0.1060  0.0526  0.2696
  394HK4    H2933023   3.811   6.614   2.996 -0.9285 -1.7769  0.9770
  394HK4     N233024   3.995   6.397   2.650  0.1107  0.9144 -0.1510
  394HK4    C3033025   4.103   6.333   2.585 -0.4803  0.0730 -0.3197
  394HK4    C2933026   4.240   6.346   2.604 -0.4586 -0.2412 -0.2647
  394HK4    H1533027   4.276   6.389   2.698 -0.7390  1.7698 -1.0626
  394HK4    C2833028   4.333   6.285   2.521 -0.0057 -0.0769  0.1181
  394HK4    C2733029   4.286   6.205   2.415 -0.2330 -0.0862  0.2255
  394HK4    H1433030   4.368   6.155   2.361  0.9167  3.3437 -1.3621
  394HK4    C3233031   4.153   6.206   2.377 -0.1428 -0.6880 -0.1182
  394HK4    H1633032   4.117   6.178   2.278  1.5688  0.0709 -0.9725
  394HK4    C3133033   4.062   6.268   2.463  0.0060 -0.0204 -0.4347
  394HK4    C3433034   3.920   6.294   2.451  0.0391  0.2457 -0.2492
  394HK4    C3333035   3.886   6.379   2.564  0.0728 -0.2274  0.1224
  394HK4    C3533036   3.760   6.439   2.567  0.3092  0.2636  0.1746
  394HK4    H1733037   3.722   6.494   2.653  1.3559 -0.5755  1.1963
  394HK4    C3633038   3.669   6.408   2.468  0.2640 -0.2097  0.3639
  394HK4    H1833039   3.574   6.462   2.454 -0.2779 -1.1576  0.3726
  394HK4    C3733040   3.701   6.326   2.360  0.1616  0.2225  0.0021
  394HK4    H1933041   3.624   6.305   2.286 -3.3323 -1.1850  3.8421
  394HK4    C3833042   3.825   6.265   2.354 -0.1851 -0.5031  0.1863
  394HK4    H2033043   3.848   6.193   2.275 -0.3309 -0.4690  0.1139
  394HK4    C1433044   4.478   6.307   2.536 -0.0958  0.9412 -0.4862
  394HK4     C933045   4.571   6.325   2.432  0.4147  0.2448 -0.1577
  394HK4     C833046   4.698   6.265   2.447 -0.0970 -0.7828  0.1191
  394HK4    C1133047   4.738   6.207   2.567  0.2842 -0.4129  0.1730
  394HK4     H433048   4.842   6.174   2.584  0.3642 -0.4331 -0.3380
  394HK4    C1233049   4.649   6.200   2.673 -0.0807 -0.0424 -0.1086
  394HK4     H533050   4.688   6.149   2.763 -0.8135  0.5034  0.5211
  394HK4    C1333051   4.521   6.252   2.658 -0.1183 -0.4113 -1.0783
  394HK4     H633052   4.453   6.215   2.736  0.9387 -0.1130 -0.0097
  394HK4     C733053   4.804   6.290   2.347  0.1597  0.0666  0.5973
  394HK4     O233054   4.883   6.197   2.330  0.3769  0.2684  0.5018
  394HK4     C433055   4.785   6.396   2.246  0.2076 -0.0513  0.4635
  394HK4     C333056   4.900   6.438   2.181 -0.3002  0.4122 -0.1452
  394HK4     H333057   4.981   6.364   2.171  0.2886  1.1937 -1.2753
  394HK4     C233058   4.910   6.559   2.112 -0.1147  0.4173 -0.1115
  394HK4     H233059   4.995   6.599   2.056  1.3766 -2.1644  0.2051
  394HK4     C133060   4.791   6.630   2.103 -0.5236 -0.1791  0.4415
  394HK4     H133061   4.791   6.716   2.033  0.4889  0.6197  1.4115
  394HK4     C633062   4.670   6.592   2.164 -0.5958 -0.1103  0.3407
  394HK4     C533063   4.666   6.472   2.236  0.1204 -0.2217  0.1949
  394HK4    C1033064   4.555   6.423   2.321 -0.3141  0.0808 -0.1971
  394HK4     O133065   4.444   6.426   2.268  0.0736  0.8211 -0.9668
  394HK4    C1633066   4.554   6.657   2.100 -0.5586 -0.4346 -0.0611
  394HK4    C1533067   4.553   6.717   1.973 -0.2232 -0.1389  0.0736
  394HK4     H733068   4.603   6.663   1.891  0.9874 -0.1462  0.8150
  394HK4    C2033069   4.471   6.821   1.929  0.2731  0.1785 -0.1085
  394HK4     H933070   4.508   6.874   1.841 -2.2335  1.9100 -0.1569
  394HK4    C1933071   4.365   6.859   2.010  0.2473  0.3190 -0.2073
  394HK4    C1833072   4.355   6.797   2.140  0.3453  0.2327 -0.2417
  394HK4    C1733073   4.455   6.710   2.182 -0.3265 -0.3464  0.1651
  394HK4     H833074   4.458   6.680   2.287  1.6221  0.0766  0.2500
  394HK4     N133075   4.247   6.846   2.217  0.5214 -0.2016  0.2891
  394HK4    C2133076   4.187   6.941   2.131  0.6934 -0.1722  0.2030
  394HK4    C2233077   4.251   6.948   2.001 -0.4894 -0.6383 -0.4037
  394HK4    C2633078   4.219   7.052   1.915  0.6852  0.5315  0.5668
  394HK4    H1333079   4.267   7.053   1.816 -0.7595  1.1511 -0.1479
  394HK4    C2533080   4.127   7.150   1.950  0.0527  0.0993  0.1189
  394HK4    H1233081   4.103   7.227   1.875 -0.3103  1.2470  1.3925
  394HK4    C2433082   4.067   7.144   2.075  0.3475  0.1912  0.2656
  394HK4    H1133083   3.983   7.212   2.093 -0.8715 -0.6923 -1.9023
  394HK4    C2333084   4.099   7.043   2.164  0.6074 -0.1212 -0.1799
  394HK4    H1033085   4.062   7.060   2.265  0.0218  0.6926 -0.5254
  394HK4    C3933086   4.176   6.767   2.308 -0.4460 -0.1280 -0.4043
  394HK4    C4133087   4.092   6.825   2.405  0.7843 -0.0236  0.6093
  394HK4    H2133088   4.118   6.923   2.449 -2.9110  2.0893 -1.5969
  394HK4    C4233089   3.971   6.766   2.440  0.1589  0.5510 -0.5489
  394HK4    H2233090   3.898   6.827   2.496  1.8075  1.8427  0.2346
  394HK4    C4333091   3.932   6.647   2.380  0.0120  0.6164 -0.5823
  394HK4    H2333092   3.828   6.614   2.375  0.4056 -0.5652 -1.1105
  394HK4    C4433093   4.017   6.585   2.289  0.3554 -0.3681  0.3963
  394HK4    H2433094   3.990   6.485   2.252  1.1980 -0.3837 -0.1942
  394HK4    C4533095   4.141   6.640   2.258  0.2082 -0.3844 -0.2153
  394HK4    H2533096   4.214   6.590   2.192  0.4930  1.3580 -1.2542
  395HK4    H2833097   7.305   7.513   5.597 -0.7317  0.3591 -1.7096
  395HK4    C4833098   7.247   7.422   5.595  0.1341 -0.2350 -0.4442
  395HK4    C4733099   7.145   7.404   5.502 -0.7458 -0.5520  0.5629
  395HK4    H2733100   7.121   7.494   5.443  1.0471 -0.4417 -0.0158
  395HK4    C4633101   7.088   7.280   5.480 -0.3506 -0.5315 -0.5987
  395HK4    H2633102   6.985   7.278   5.440 -0.4402 -0.0982 -0.3917
  395HK4    C4033103   7.124   7.169   5.558  0.0179 -0.1345 -0.2082
  395HK4    C5033104   7.227   7.191   5.652 -0.2189  0.1472 -0.0173
  395HK4    H3033105   7.268   7.111   5.715  1.4526  1.1005  0.1254
  395HK4    C4933106   7.293   7.313   5.668  0.0250  0.0135 -0.0071
  395HK4    H2933107   7.380   7.331   5.732  1.0667 -2.6664 -0.6015
  395HK4     N233108   7.085   7.038   5.526 -0.5426 -0.0416  0.1078
  395HK4    C3033109   7.042   6.983   5.404 -0.6961 -0.0776  0.1762
  395HK4    C2933110   7.019   7.035   5.277  0.0070  0.1600  0.1401
  395HK4    H1533111   7.003   7.143   5.268 -0.1346 -0.0559 -2.4527
  395HK4    C2833112   6.982   6.969   5.160  0.7955 -0.1757  0.0799
  395HK4    C2733113   6.953   6.833   5.183 -0.7060  0.1426  0.1128
  395HK4    H1433114   6.915   6.770   5.101  1.8718  1.0992 -1.8875
  395HK4    C3233115   6.981   6.771   5.304 -0.7455 -0.0517  0.0227
  395HK4    H1633116   6.984   6.662   5.314 -0.7026 -0.1231 -0.7802
  395HK4    C3133117   7.016   6.842   5.419 -0.3559 -0.1625 -0.0280
  395HK4    C3433118   7.031   6.813   5.560  0.0224 -0.5317 -0.1419
  395HK4    C3333119   7.073   6.936   5.623  0.3714 -0.5610 -0.3208
  395HK4    C3533120   7.071   6.935   5.762 -0.2742 -0.4182 -0.3252
  395HK4    H1733121   7.094   7.020   5.827 -1.0434 -0.0061 -0.5997
  395HK4    C3633122   7.044   6.819   5.834 -0.3411 -0.4129 -0.3420
  395HK4    H1833123   7.063   6.832   5.942  1.6488 -1.8913 -0.4848
  395HK4    C3733124   6.999   6.704   5.770 -0.3575 -0.8459  0.4391
  395HK4    H1933125   6.936   6.641   5.833 -1.3056  0.9943  1.3642
  395HK4    C3833126   6.996   6.699   5.631  0.2425 -0.2652  0.3998
  395HK4    H2033127   6.972   6.601   5.590  1.0516 -0.2559 -0.1184
  395HK4    C1433128   6.933   7.044   5.044  0.3860 -0.3296  0.1503
  395HK4     C933129   6.824   7.006   4.965  0.2389 -0.1538  0.2691
  395HK4     C833130   6.831   7.035   4.827 -0.0514 -0.0940  0.2687
  395HK4    C1133131   6.932   7.115   4.774 -0.6546  0.2923 -0.3048
  395HK4     H433132   6.954   7.100   4.667  1.3927 -2.7166  0.4626
  395HK4    C1233133   7.025   7.177   4.856 -0.1266 -0.8657 -0.0161
  395HK4     H533134   7.096   7.255   4.825 -1.8646  0.9795  0.5742
  395HK4    C1333135   7.021   7.141   4.990  0.5126 -0.4620  0.1148
  395HK4     H633136   7.075   7.206   5.060 -0.7049 -0.5668  1.1743
  395HK4     C733137   6.711   7.003   4.746  0.1205  0.0780 -0.0516
  395HK4     O233138   6.715   7.013   4.623 -0.1787 -0.2973 -0.0934
  395HK4     C433139   6.595   6.946   4.818  0.2255  0.1029  0.1388
  395HK4     C333140   6.478   6.921   4.747  0.2348 -0.3363  0.2751
  395HK4     H333141   6.478   6.945   4.640  0.0642  0.0486  0.3631
  395HK4     C233142   6.372   6.856   4.810  0.1098 -0.0150  0.3985
  395HK4     H233143   6.282   6.840   4.750  1.4225 -1.1854 -1.3319
  395HK4     C133144   6.380   6.794   4.934 -0.4929 -0.1113  0.3893
  395HK4     H133145   6.311   6.712   4.957  0.5963 -1.1807 -0.1566
  395HK4     C633146   6.496   6.821   5.010 -0.0296 -0.7163 -0.0984
  395HK4     C533147   6.598   6.896   4.950 -0.2775 -0.3060 -0.0067
  395HK4    C1033148   6.706   6.950   5.036 -0.1298 -0.1184 -0.3109
  395HK4     O133149   6.676   7.005   5.142  0.1329 -0.3241 -0.1290
  395HK4    C1633150   6.500   6.738   5.131  0.0128 -0.5724  0.0011
  395HK4    C1533151   6.628   6.705   5.181 -0.0464 -0.8319 -0.0145
  395HK4     H733152   6.711   6.712   5.110  1.9146 -3.1917  1.9667
  395HK4    C2033153   6.637   6.653   5.310 -0.1064  0.0839  0.3614
  395HK4     H933154   6.728   6.643   5.369  0.5805 -3.2469 -1.1984
  395HK4    C1933155   6.525   6.630   5.389 -0.3500 -0.4426 -0.1354
  395HK4    C1833156   6.398   6.682   5.342 -0.2092  0.1948  0.1921
  395HK4    C1733157   6.386   6.717   5.208 -0.0071 -0.1723  0.0772
  395HK4     H833158   6.285   6.732   5.172  1.3800  0.6988 -3.6427
  395HK4     N133159   6.300   6.680   5.444 -0.3010 -0.0750  0.0976
  395HK4    C2133160   6.364   6.625   5.557 -0.1432 -0.2429 -0.0712
  395HK4    C2233161   6.506   6.607   5.531 -0.0371  0.3846  0.0469
  395HK4    C2633162   6.589   6.538   5.619 -0.0772 -0.0384 -0.2428
  395HK4    H1333163   6.696   6.527   5.605 -0.4638 -1.6924 -2.0414
  395HK4    C2533164   6.530   6.492   5.736  0.3950 -0.3061 -0.1093
  395HK4    H1233165   6.592   6.446   5.813 -0.6097 -1.0453  0.2613
  395HK4    C2433166   6.395   6.509   5.763  0.3540 -0.3209 -0.2990
  395HK4    H1133167   6.361   6.457   5.854 -0.4479 -0.6192 -0.7619
  395HK4    C2333168   6.310   6.574   5.674  0.1109 -0.0168  0.1466
  395HK4    H1033169   6.203   6.583   5.690  0.4333 -0.3402  2.6229
  395HK4    C3933170   6.191   6.768   5.446 -0.0993  0.1629  0.5475
  395HK4    C4133171   6.076   6.729   5.518 -0.3517 -0.2647 -0.0898
  395HK4    H2133172   6.053   6.622   5.525 -0.1113 -0.2877  0.3316
  395HK4    C4233173   5.993   6.821   5.580  0.4268 -0.0100  0.5759
  395HK4    H2233174   5.900   6.783   5.624 -2.1264  0.6424 -4.0230
  395HK4    C4333175   6.019   6.957   5.578 -0.2444  0.1130  0.0625
  395HK4    H2333176   5.949   7.034   5.609 -1.0864  0.0268 -1.5849
  395HK4    C4433177   6.132   6.998   5.507 -0.1175 -0.8008 -0.2669
  395HK4    H2433178   6.132   7.104   5.478  0.6515 -0.9714 -0.8970
  395HK4    C4533179   6.214   6.907   5.441  0.7018  0.0031 -0.3537
  395HK4    H2533180   6.288   6.955   5.374  0.5592 -0.4378 -0.8313
  396HK4    H2833181   2.906   3.407   2.072 -2.3232 -0.5773  0.7316
  396HK4    C4833182   2.853   3.474   2.004 -0.1973  0.2174 -0.1968
  396HK4    C4733183   2.871   3.468   1.867  0.7060 -0.6031 -0.0523
  396HK4    H2733184   2.952   3.404   1.829  0.4098  0.2154 -2.1672
  396HK4    C4633185   2.776   3.522   1.781  0.2501  0.2311  0.9671
  396HK4    H2633186   2.786   3.492   1.676 -1.2776  0.9056  0.6076
  396HK4    C4033187   2.658   3.582   1.831 -0.0399  0.3456  0.1614
  396HK4    C5033188   2.647   3.590   1.971 -0.4651  0.4473  0.1236
  396HK4    H3033189   2.557   3.639   2.012 -1.0295 -0.4030 -0.0932
  396HK4    C4933190   2.746   3.545   2.058  0.0721  0.7347 -0.3355
  396HK4    H2933191   2.758   3.592   2.157 -2.5534 -1.6355  1.1926
  396HK4     N233192   2.566   3.648   1.749 -0.0802 -0.1287 -0.1753
  396HK4    C3033193   2.591   3.722   1.632 -0.2544  0.0509 -0.0984
  396HK4    C2933194   2.712   3.776   1.592  0.1401 -0.7237  0.0561
  396HK4    H1533195   2.801   3.769   1.655 -0.6844 -1.1564  1.1761
  396HK4    C2833196   2.720   3.865   1.485  0.4969 -0.0197  0.6697
  396HK4    C2733197   2.602   3.908   1.422  0.4822 -0.5929  0.3082
  396HK4    H1433198   2.614   3.965   1.328 -2.8541 -0.2487  0.0420
  396HK4    C3233199   2.478   3.862   1.463  0.0160  0.5053  0.1565
  396HK4    H1633200   2.397   3.876   1.392  0.8661 -1.0474 -1.1577
  396HK4    C3133201   2.471   3.783   1.578 -0.2236  0.0494 -0.1677
  396HK4    C3433202   2.370   3.747   1.675  0.0082 -0.1438  0.0016
  396HK4    C3333203   2.427   3.659   1.775 -0.0481 -0.1667  0.0145
  396HK4    C3533204   2.342   3.569   1.838  0.1219 -0.2349  0.1459
  396HK4    H1733205   2.373   3.525   1.933 -0.1488  0.7328  0.6880
  396HK4    C3633206   2.207   3.560   1.807  0.0571  0.4712  0.2084
  396HK4    H1833207   2.139   3.505   1.874 -1.1565  1.9355  0.1942
  396HK4    C3733208   2.151   3.650   1.717 -0.0545  0.3334  0.1395
  396HK4    H1933209   2.044   3.649   1.699 -0.3112 -0.8163  1.5845
  396HK4    C3833210   2.232   3.743   1.653  0.0839 -0.1967 -0.4641
  396HK4    H2033211   2.192   3.822   1.590 -0.1321  0.2199  0.1854
  396HK4    C1433212   2.841   3.947   1.468  0.2489  0.2753  0.3281
  396HK4     C933213   2.843   4.083   1.435  0.0577  0.2671  0.2801
  396HK4     C833214   2.950   4.136   1.359  0.0559  0.3517  0.3371
  396HK4    C1133215   3.062   4.056   1.340 -0.0863  0.2931 -0.2784
  396HK4     H433216   3.129   4.094   1.262 -1.8850 -0.2868 -2.1365
  396HK4    C1233217   3.066   3.923   1.382  0.4491  0.3791 -0.0574
  396HK4     H533218   3.166   3.879   1.394  0.3147 -0.0869 -0.6502
  396HK4    C1333219   2.956   3.868   1.446  0.3112  0.5053 -0.1856
  396HK4     H633220   2.954   3.759   1.463 -1.3850  0.7440  1.2806
  396HK4     C733221   2.936   4.264   1.287 -0.6138  0.2568  0.2928
  396HK4     O233222   3.024   4.322   1.223 -0.2790 -0.6005 -0.0241
  396HK4     C433223   2.803   4.330   1.291 -0.5752  0.3743 -0.2819
  396HK4     C333224   2.783   4.439   1.207 -0.1870 -0.0191 -0.8870
  396HK4     H333225   2.844   4.453   1.117  1.0941 -2.2648 -0.4195
  396HK4     C233226   2.677   4.525   1.231  0.1366  0.0091  0.5073
  396HK4     H233227   2.690   4.632   1.208 -2.0513  0.3775  0.8759
  396HK4     C133228   2.577   4.485   1.318 -0.3838 -0.3315 -0.2408
  396HK4     H133229   2.500   4.559   1.345  1.0347  1.0213  0.1587
  396HK4     C633230   2.590   4.371   1.401 -0.2006  0.3012  0.6058
  396HK4     C533231   2.708   4.297   1.391 -0.4012  0.0903 -0.2104
  396HK4    C1033232   2.735   4.177   1.476  0.2350  0.5103  0.1846
  396HK4     O133233   2.721   4.181   1.598 -0.2361  0.2829  0.1344
  396HK4    C1633234   2.465   4.316   1.454 -0.1924  0.5844  0.9239
  396HK4    C1533235   2.349   4.320   1.373  0.2885  0.3039  0.2138
  396HK4     H733236   2.355   4.343   1.266 -0.7266  0.2878  0.1468
  396HK4    C2033237   2.224   4.284   1.421  0.2902 -0.0458 -0.0413
  396HK4     H933238   2.152   4.258   1.343 -1.4734  0.6539  1.3227
  396HK4    C1933239   2.207   4.254   1.556  0.1175  0.0129 -0.0491
  396HK4    C1833240   2.321   4.256   1.645  0.1550 -0.1271 -0.0931
  396HK4    C1733241   2.444   4.288   1.588  0.5977  0.0045  0.9286
  396HK4     H833242   2.523   4.308   1.661  1.6071 -0.2926 -0.0771
  396HK4     N133243   2.290   4.192   1.767  0.2505  0.5083  0.2682
  396HK4    C2133244   2.164   4.132   1.748  0.7109 -0.3060 -0.2419
  396HK4    C2233245   2.104   4.179   1.624 -0.0565  0.7775  0.5308
  396HK4    C2633246   1.981   4.129   1.582  0.1812 -0.0124  0.7582
  396HK4    H1333247   1.934   4.166   1.491  2.8724 -1.0447 -1.0837
  396HK4    C2533248   1.913   4.032   1.655  0.1867 -0.3247  0.3465
  396HK4    H1233249   1.819   3.989   1.619  0.6326 -0.4145 -0.7203
  396HK4    C2433250   1.972   3.986   1.771 -0.1637  0.5155  0.8712
  396HK4    H1133251   1.913   3.908   1.822  0.0303 -0.8864 -0.9872
  396HK4    C2333252   2.096   4.031   1.816  0.2331  0.2250  0.0757
  396HK4    H1033253   2.135   3.995   1.911 -1.6619 -3.1156 -0.3709
  396HK4    C3933254   2.378   4.172   1.874 -0.3047 -0.2716  0.5790
  396HK4    C4133255   2.330   4.158   2.005  0.5380  0.1197  0.9312
  396HK4    H2133256   2.234   4.210   2.024  1.2632  1.4326  1.0507
  396HK4    C4233257   2.389   4.075   2.099  0.8605 -0.3858  0.2846
  396HK4    H2233258   2.369   4.085   2.207  1.8322  0.6340  0.3867
  396HK4    C4333259   2.504   4.004   2.064  1.0912  0.1406 -0.0154
  396HK4    H2333260   2.545   3.927   2.129  1.7795  0.0122 -0.5935
  396HK4    C4433261   2.562   4.017   1.938 -0.1692  0.4223 -0.5757
  396HK4    H2433262   2.661   3.979   1.909  0.1951  1.9967 -1.4145
  396HK4    C4533263   2.492   4.094   1.846  0.1776  0.8065 -0.5205
  396HK4    H2533264   2.535   4.113   1.747  0.4384  0.3764 -0.4901
  397HK4    H2833265   0.764   0.231   3.368  0.2950  2.4660  1.4799
  397HK4    C4833266   0.869   0.218   3.392  0.3821 -0.1688 -0.1011
  397HK4    C4733267   0.900   0.133   3.498 -0.3349 -0.1152  0.1576
  397HK4    H2733268   0.820   0.096   3.563 -1.1464  0.6256 -0.4148
  397HK4    C4633269   1.034   0.105   3.526 -0.1600  0.4384 -0.1034
  397HK4    H2633270   1.050   0.075   3.631 -0.9990  0.4086  0.0201
  397HK4    C4033271   1.140   0.150   3.445 -0.0124  0.1321 -0.0826
  397HK4    C5033272   1.103   0.233   3.337  0.1914  0.7643  0.3295
  397HK4    H3033273   1.180   0.287   3.279  0.7587  0.3982  0.7309
  397HK4    C4933274   0.971   0.271   3.315  0.0883  0.0167 -0.3617
  397HK4    H2933275   0.949   0.347   3.238 -0.0888  1.7371  1.3566
  397HK4     N233276   1.274   0.130   3.479  0.0424  0.0720 -0.3341
  397HK4    C3033277   1.322   0.107   3.610 -0.5970 -0.3747 -0.1750
  397HK4    C2933278   1.277   0.143   3.736 -0.5480 -0.4296 -0.1423
  397HK4    H1533279   1.207   0.225   3.748  0.2785  0.3461 -0.5227
  397HK4    C2833280   1.349   0.107   3.849 -0.2348 -0.0254 -0.2116
  397HK4    C2733281   1.456   0.016   3.835  0.1155  0.2839  0.3999
  397HK4    H1433282   1.520  11.233   3.920 -0.6291 -0.1216  0.8198
  397HK4    C3233283   1.503  11.219   3.712 -0.0384  0.4785  0.2710
  397HK4    H1633284   1.604  11.179   3.709 -0.9658 -2.4480  3.8257
  397HK4    C3133285   1.437   0.019   3.599 -0.4718 -0.2556  0.2030
  397HK4    C3433286   1.469   0.006   3.458  0.3325  0.1934  0.3413
  397HK4    C3333287   1.368   0.080   3.386  0.0459 -0.5378 -0.0085
  397HK4    C3533288   1.388   0.109   3.252 -0.0111  0.0989  0.1191
  397HK4    H1733289   1.303   0.133   3.188  0.9510  2.0102 -0.4952
  397HK4    C3633290   1.510   0.084   3.189 -0.3961 -0.0744 -0.5696
  397HK4    H1833291   1.540   0.111   3.087 -2.4509 -1.1204 -1.4780
  397HK4    C3733292   1.612   0.030   3.266 -0.4563  0.2219 -0.2808
  397HK4    H1933293   1.711   0.015   3.223  0.7904 -0.7060  2.7797
  397HK4    C3833294   1.591  11.232   3.395  0.0443  0.1784 -0.2138
  397HK4    H2033295   1.670  11.182   3.452  1.1274 -0.1396 -1.9696
  397HK4    C1433296   1.359   0.209   3.955 -0.1105  0.0745 -0.3195
  397HK4     C933297   1.482   0.252   4.007 -0.1661  0.2003 -0.2936
  397HK4     C833298   1.494   0.267   4.147  0.1598 -0.8441 -0.2031
  397HK4    C1133299   1.380   0.275   4.226  0.1297 -0.1503 -0.3150
  397HK4     H433300   1.387   0.310   4.331 -1.0545 -0.1210 -0.2370
  397HK4    C1233301   1.254   0.251   4.173 -0.1318  0.2664  0.1127
  397HK4     H533302   1.162   0.271   4.231  0.3884  2.1766  0.3094
  397HK4    C1333303   1.246   0.222   4.037  0.2151  0.1217  0.1224
  397HK4     H633304   1.147   0.228   3.990  0.6774 -1.0041 -1.0127
  397HK4     C733305   1.629   0.261   4.206  0.1413 -0.5554 -0.1287
  397HK4     O233306   1.645   0.295   4.323  0.5263  0.3741 -0.4455
  397HK4     C433307   1.742   0.238   4.113  0.1914  0.0277 -0.2162
  397HK4     C333308   1.864   0.195   4.166  0.1718  0.1503 -0.0704
  397HK4     H333309   1.861   0.164   4.271 -2.0136 -3.7390 -1.1730
  397HK4     C233310   1.977   0.172   4.089 -0.0624 -0.5723 -0.2053
  397HK4     H233311   2.075   0.150   4.135 -0.3830 -0.5373  0.4941
  397HK4     C133312   1.964   0.195   3.952  0.3467 -0.1168 -0.1702
  397HK4     H133313   2.057   0.229   3.904  0.1586  3.3525  1.7866
  397HK4     C633314   1.844   0.237   3.892  0.1633 -0.2354  0.1094
  397HK4     C533315   1.734   0.263   3.975 -0.1516 -0.3616 -0.2666
  397HK4    C1033316   1.597   0.284   3.919 -0.0929  0.4323 -0.1140
  397HK4     O133317   1.573   0.359   3.824 -0.2495  0.3822 -0.1133
  397HK4    C1633318   1.842   0.196   3.750 -0.0226  0.0754  0.0230
  397HK4    C1533319   1.919   0.089   3.701  0.0304  0.3927 -0.5841
  397HK4     H733320   1.949   0.010   3.771 -1.3254 -0.6403 -1.1615
  397HK4    C2033321   1.961   0.071   3.569  0.6108 -0.3086 -0.3088
  397HK4     H933322   2.030  11.237   3.552  1.6672  0.5232 -0.1350
  397HK4    C1933323   1.926   0.165   3.473  0.1578  0.1599  0.3068
  397HK4    C1833324   1.837   0.270   3.518 -0.1554  0.3031 -0.6375
  397HK4    C1733325   1.797   0.282   3.651  0.1949 -0.3830 -0.4704
  397HK4     H833326   1.738   0.367   3.685  2.7619  0.3269  2.3597
  397HK4     N133327   1.808   0.363   3.416 -0.4625  0.3610 -0.5002
  397HK4    C2133328   1.877   0.311   3.304  0.0991 -0.1295  0.0679
  397HK4    C2233329   1.952   0.190   3.333  0.1417 -0.0566  0.2641
  397HK4    C2633330   2.002   0.105   3.235 -0.5777  0.2281 -0.3604
  397HK4    H1333331   2.051   0.011   3.257 -1.4176  0.0127  0.6131
  397HK4    C2533332   1.990   0.136   3.100 -0.0338  0.3835 -0.3756
  397HK4    H1233333   2.012   0.062   3.023 -1.2930 -3.2880  2.6338
  397HK4    C2433334   1.920   0.253   3.073  0.2515  0.6435  0.0055
  397HK4    H1133335   1.914   0.283   2.968  0.0361 -0.1533 -0.2114
  397HK4    C2333336   1.869   0.341   3.168 -0.3665  0.1299  0.1521
  397HK4    H1033337   1.830   0.437   3.136 -0.7857 -0.1263 -0.1099
  397HK4    C3933338   1.697   0.447   3.401 -0.5265  0.4771  0.5750
  397HK4    C4133339   1.733   0.574   3.351  0.2124  0.0708  0.0591
  397HK4    H2133340   1.813   0.631   3.401 -1.5959  1.2716  1.6475
  397HK4    C4233341   1.651   0.635   3.257 -0.3656 -0.6810  0.0622
  397HK4    H2233342   1.676   0.737   3.222  1.3272 -0.8950  0.5842
  397HK4    C4333343   1.536   0.574   3.210 -0.4128 -0.2884 -0.3406
  397HK4    H2333344   1.470   0.629   3.144 -1.8912 -1.2626  0.3048
  397HK4    C4433345   1.489   0.454   3.262 -0.0923 -0.3205 -0.1268
  397HK4    H2433346   1.389   0.414   3.239 -0.8855  0.6502  1.5373
  397HK4    C4533347   1.578   0.391   3.349 -0.0772 -0.0245  0.0724
  397HK4    H2533348   1.551   0.288   3.377  0.6262 -0.9558 -2.4999
  398HK4    H2833349   5.419   4.915   4.894 -1.6852  0.5095  1.7606
  398HK4    C4833350   5.404   4.810   4.919  0.0082  0.0513  0.9260
  398HK4    C4733351   5.508   4.725   4.955 -0.1872 -0.6189 -0.0757
  398HK4    H2733352   5.609   4.765   4.971 -1.0188  0.3985  3.2246
  398HK4    C4633353   5.473   4.598   5.000  0.3231 -0.6720  0.1848
  398HK4    H2633354   5.552   4.523   5.013  0.2423 -0.5199  1.6414
  398HK4    C4033355   5.342   4.547   5.016 -0.0329  0.2842  0.4260
  398HK4    C5033356   5.243   4.636   4.970  0.3351  0.4186 -0.1080
  398HK4    H3033357   5.140   4.597   4.971  0.7784 -0.9660 -2.6220
  398HK4    C4933358   5.273   4.763   4.924 -0.2040  0.5342 -0.1403
  398HK4    H2933359   5.193   4.837   4.910 -2.2246 -1.7222 -0.8195
  398HK4     N233360   5.318   4.409   5.015  0.4705  0.1922  0.7853
  398HK4    C3033361   5.401   4.309   4.960  0.5085  0.3932  0.4732
  398HK4    C2933362   5.498   4.304   4.860  0.3129  0.1037  0.2979
  398HK4    H1533363   5.512   4.395   4.802 -1.5823 -1.2129 -2.3088
  398HK4    C2833364   5.548   4.190   4.797 -0.2164 -0.0630  0.1788
  398HK4    C2733365   5.512   4.066   4.853 -0.2365  0.1292  0.5915
  398HK4    H1433366   5.587   3.986   4.842 -0.3858 -0.0668  0.9722
  398HK4    C3233367   5.422   4.062   4.959 -0.9952 -0.1923 -0.0644
  398HK4    H1633368   5.401   3.968   5.010  2.0023 -1.7372 -1.5035
  398HK4    C3133369   5.363   4.177   5.008  0.2830  0.3558  0.1963
  398HK4    C3433370   5.248   4.200   5.093 -0.1308 -0.3629 -0.1665
  398HK4    C3333371   5.222   4.343   5.095 -0.0686 -0.3490 -0.2936
  398HK4    C3533372   5.094   4.380   5.133  0.0627  0.4651 -0.6316
  398HK4    H1733373   5.078   4.487   5.148 -0.4596  0.3645 -0.4676
  398HK4    C3633374   4.994   4.292   5.171  0.6959  0.0187  0.0090
  398HK4    H1833375   4.889   4.317   5.190  0.3092 -0.6272 -1.2316
  398HK4    C3733376   5.025   4.157   5.182 -0.3680 -0.2231  0.1268
  398HK4    H1933377   4.983   4.107   5.270 -1.7791  2.9190  1.3063
  398HK4    C3833378   5.149   4.113   5.137 -0.3793 -0.0407 -0.0818
  398HK4    H2033379   5.158   4.007   5.114 -0.7538 -0.1827  0.4102
  398HK4    C1433380   5.614   4.186   4.666  0.0406 -0.1748  0.3117
  398HK4     C933381   5.630   4.075   4.582  0.0332  0.0961 -0.0500
  398HK4     C833382   5.742   4.059   4.497  0.0594 -0.3581  0.0694
  398HK4    C1133383   5.832   4.165   4.495 -0.2385 -0.1052 -0.0619
  398HK4     H433384   5.923   4.150   4.435  0.3885 -1.6149  1.2212
  398HK4    C1233385   5.819   4.284   4.567 -0.3177 -0.3077  0.2621
  398HK4     H533386   5.897   4.361   4.575  0.9353 -1.6274  0.9735
  398HK4    C1333387   5.707   4.291   4.649 -0.6082  0.3262 -0.1844
  398HK4     H633388   5.686   4.385   4.701 -1.0986  0.5909 -0.8549
  398HK4     C733389   5.754   3.941   4.409 -0.2104 -0.2692 -0.0866
  398HK4     O233390   5.858   3.930   4.345 -0.0784 -0.0989  0.0984
  398HK4     C433391   5.646   3.840   4.406  0.0370 -0.5377  0.0976
  398HK4     C333392   5.650   3.730   4.321  0.2781 -0.0980 -0.4571
  398HK4     H333393   5.734   3.726   4.250  0.7111  0.9232 -0.0146
  398HK4     C233394   5.566   3.620   4.333 -0.0406  0.1936  0.0133
  398HK4     H233395   5.589   3.534   4.267 -1.1430  0.6630 -1.0059
  398HK4     C133396   5.466   3.626   4.429 -0.1716 -0.4460 -0.0822
  398HK4     H133397   5.418   3.530   4.455  0.3411 -0.5003  0.6809
  398HK4     C633398   5.447   3.741   4.509 -0.2932 -0.0771 -0.6426
  398HK4     C533399   5.534   3.849   4.491 -0.0247 -0.1892 -0.0227
  398HK4    C1033400   5.516   3.982   4.557  0.1371  0.1145 -0.5924
  398HK4     O133401   5.402   4.027   4.559  0.1742  0.1892 -0.1120
  398HK4    C1633402   5.345   3.717   4.612  0.2223 -0.5115 -0.2265
  398HK4    C1533403   5.359   3.776   4.739 -0.6061  0.1447 -0.4357
  398HK4     H733404   5.437   3.849   4.763  0.1054 -0.3007 -1.3976
  398HK4    C2033405   5.264   3.763   4.840  0.1625 -0.2427  0.2392
  398HK4     H933406   5.293   3.780   4.944  3.6013  1.5960 -0.9496
  398HK4    C1933407   5.146   3.695   4.811 -0.1747  0.6874 -0.5555
  398HK4    C1833408   5.124   3.643   4.677 -0.1927 -0.0023 -0.2833
  398HK4    C1733409   5.223   3.660   4.580  0.1671 -0.5136 -0.0116
  398HK4     H833410   5.213   3.604   4.487 -3.1568  0.8373 -0.5710
  398HK4     N133411   5.000   3.577   4.669 -0.0835 -0.2202 -0.1827
  398HK4    C2133412   4.944   3.583   4.798  0.3348 -0.0595 -0.0056
  398HK4    C2233413   5.030   3.656   4.888  0.5668 -0.3742  0.0285
  398HK4    C2633414   4.991   3.673   5.021  0.0312 -0.0711 -0.1666
  398HK4    H1333415   5.058   3.731   5.084 -0.6379 -0.9145  1.3505
  398HK4    C2533416   4.871   3.621   5.068  0.0581 -0.2248 -0.2642
  398HK4    H1233417   4.837   3.636   5.171 -0.1666  2.0324 -0.6473
  398HK4    C2433418   4.784   3.560   4.978 -0.7019 -0.0518  0.3455
  398HK4    H1133419   4.678   3.557   5.009 -0.5849  1.8948  0.9995
  398HK4    C2333420   4.818   3.546   4.844  0.4707  0.2421  0.6081
  398HK4    H1033421   4.746   3.511   4.770 -0.6241  1.6011  1.0278
  398HK4    C3933422   4.922   3.562   4.553  0.2291 -0.5765 -0.3522
  398HK4    C4133423   4.829   3.457   4.547 -0.3199 -0.1048 -0.1165
  398HK4    H2133424   4.857   3.367   4.603  0.8686  0.6454  0.4860
  398HK4    C4233425   4.726   3.455   4.453 -0.1242  0.2341 -0.3424
  398HK4    H2233426   4.637   3.392   4.466 -1.0558  1.9199  1.9300
  398HK4    C4333427   4.719   3.566   4.369  0.5659  0.0554 -0.6416
  398HK4    H2333428   4.633   3.568   4.302  0.3507  0.2491 -0.3650
  398HK4    C4433429   4.805   3.674   4.373  0.4785  0.1261 -0.6921
  398HK4    H2433430   4.778   3.768   4.321 -1.9328  0.8061  1.6466
  398HK4    C4533431   4.914   3.667   4.459  0.0541 -0.4493 -0.1977
  398HK4    H2533432   4.986   3.750   4.459  0.2062 -0.5680  1.1330
  399HK4    H2833433   0.858   4.306   6.666  0.0253 -2.0041  1.5247
  399HK4    C4833434   0.848   4.355   6.763 -0.4571 -0.2451  0.6095
  399HK4    C4733435   0.743   4.443   6.786 -0.5441 -0.1324 -0.2167
  399HK4    H2733436   0.674   4.470   6.705 -1.3357  0.7462  0.7291
  399HK4    C4633437   0.715   4.492   6.913  0.1977 -0.0646 -0.0756
  399HK4    H2633438   0.632   4.563   6.922  1.7583  1.7915 -0.1228
  399HK4    C4033439   0.795   4.454   7.023  0.5281  0.5550 -0.1063
  399HK4    C5033440   0.904   4.369   6.995  0.0246 -0.1491  0.0560
  399HK4    H3033441   0.975   4.339   7.074  0.7525  0.0744 -0.5052
  399HK4    C4933442   0.932   4.319   6.868 -0.0145 -0.4781  0.1786
  399HK4    H2933443   1.010   4.245   6.849  1.4462  1.2244 -0.5708
  399HK4     N233444   0.779   4.502   7.154 -0.4887 -0.2835  0.0887
  399HK4    C3033445   0.723   4.628   7.183  0.7622  0.1852  0.5369
  399HK4    C2933446   0.757   4.749   7.123  0.6013  0.1131  0.2992
  399HK4    H1533447   0.806   4.743   7.026  1.5791  0.4231  0.7648
  399HK4    C2833448   0.728   4.872   7.180 -0.1970  0.1656 -0.2152
  399HK4    C2733449   0.660   4.870   7.304 -0.3748 -0.1457 -0.3189
  399HK4    H1433450   0.639   4.969   7.346  0.4685 -0.1594  0.1447
  399HK4    C3233451   0.632   4.752   7.371 -0.7169  0.0995 -0.0325
  399HK4    H1633452   0.592   4.753   7.473 -2.7522 -2.0940 -0.7521
  399HK4    C3133453   0.666   4.629   7.316 -0.3029  0.1590  0.0893
  399HK4    C3433454   0.697   4.498   7.370 -0.6381  0.0347 -0.0162
  399HK4    C3333455   0.771   4.423   7.270 -0.3609 -0.0528  0.2541
  399HK4    C3533456   0.827   4.303   7.312  0.2037  0.1181  0.0038
  399HK4    H1733457   0.879   4.241   7.238 -0.8988 -0.0283 -0.6615
  399HK4    C3633458   0.798   4.251   7.437 -0.7322 -0.0811 -0.2916
  399HK4    H1833459   0.838   4.151   7.461 -0.8606 -0.3089 -1.0196
  399HK4    C3733460   0.731   4.323   7.536  0.3230  0.3556  0.1051
  399HK4    H1933461   0.761   4.294   7.637  1.9736  0.3458 -0.3698
  399HK4    C3833462   0.678   4.445   7.497  0.2339  0.3650  0.2545
  399HK4    H2033463   0.616   4.501   7.567 -1.2760  0.5110 -1.1848
  399HK4    C1433464   0.815   4.987   7.153  0.7977 -0.5311  0.0110
  399HK4     C933465   0.854   5.087   7.244 -0.3980  0.1690 -0.2356
  399HK4     C833466   0.885   5.216   7.198 -0.2588  0.1020 -0.3304
  399HK4    C1133467   0.886   5.250   7.063  0.2868  0.0428 -0.3413
  399HK4     H433468   0.919   5.352   7.038  1.1040  0.6643  3.0078
  399HK4    C1233469   0.853   5.151   6.970 -0.1895  0.0788 -0.2094
  399HK4     H533470   0.834   5.178   6.865 -1.9145 -0.2957 -0.0031
  399HK4    C1333471   0.823   5.024   7.018  0.4848  0.0553  0.1472
  399HK4     H633472   0.820   4.950   6.936  1.1370  0.4605 -0.2493
  399HK4     C733473   0.891   5.321   7.302 -0.6349 -0.0709 -0.1371
  399HK4     O233474   0.940   5.431   7.275 -0.4274 -0.1217  0.0294
  399HK4     C433475   0.865   5.292   7.445 -0.0837  0.0585 -0.0053
  399HK4     C333476   0.836   5.396   7.531  0.4494  0.0004  0.2433
  399HK4     H333477   0.804   5.493   7.490  0.7010 -0.3834 -0.8654
  399HK4     C233478   0.800   5.375   7.664  0.6532  0.4055  0.3662
  399HK4     H233479   0.796   5.468   7.723  0.1504  1.2204 -0.9308
  399HK4     C133480   0.793   5.243   7.706 -0.1824  0.0817 -0.7785
  399HK4     H133481   0.745   5.229   7.804 -2.4835 -0.6946 -1.9753
  399HK4     C633482   0.819   5.129   7.627 -0.2179 -0.3248 -0.2065
  399HK4     C533483   0.857   5.160   7.496  0.6091  0.0674  0.1213
  399HK4    C1033484   0.870   5.057   7.389  0.4928  0.4555 -0.2711
  399HK4     O133485   0.938   4.956   7.407 -0.1052  0.1826  0.4716
  399HK4    C1633486   0.760   4.998   7.660 -0.1222 -0.2228  0.3727
  399HK4    C1533487   0.626   4.990   7.702 -0.1571 -0.6294  0.1780
  399HK4     H733488   0.566   5.082   7.700 -1.2982 -1.3137  1.8934
  399HK4    C2033489   0.575   4.869   7.749 -0.4199 -0.4056  0.4658
  399HK4     H933490   0.472   4.852   7.782 -0.2237  0.8411  1.7632
  399HK4    C1933491   0.656   4.759   7.769  0.2940  0.0273 -0.0284
  399HK4    C1833492   0.796   4.770   7.733  0.3786 -0.0167  0.2879
  399HK4    C1733493   0.845   4.891   7.684  0.1887 -0.0722 -0.0422
  399HK4     H833494   0.950   4.899   7.657  0.6731 -3.6643  0.5167
  399HK4     N133495   0.866   4.653   7.770  0.4148  0.0331  0.3771
  399HK4    C2133496   0.773   4.572   7.837 -0.0145 -0.0402 -0.2977
  399HK4    C2233497   0.639   4.629   7.832  0.0655  0.2091  0.2941
  399HK4    C2633498   0.527   4.565   7.882 -0.1767 -0.0968 -0.6232
  399HK4    H1333499   0.430   4.592   7.840 -1.6451 -0.6300  2.2759
  399HK4    C2533500   0.536   4.441   7.944 -0.0521  0.1984 -0.0375
  399HK4    H1233501   0.446   4.389   7.978  0.3390 -0.6242 -0.2464
  399HK4    C2433502   0.663   4.387   7.957 -0.0634  0.1761 -0.0221
  399HK4    H1133503   0.681   4.300   8.023 -1.3011  1.2539  1.7731
  399HK4    C2333504   0.773   4.446   7.896 -0.0826 -0.0169 -0.2437
  399HK4    H1033505   0.865   4.388   7.890  0.1075  0.1189  1.1078
  399HK4    C3933506   0.973   4.605   7.693  0.2123  0.4243 -0.1524
  399HK4    C4133507   1.068   4.523   7.757  0.0792  0.3363 -0.0649
  399HK4    H2133508   1.094   4.549   7.861 -1.9583  0.7511  0.3533
  399HK4    C4233509   1.140   4.425   7.688 -0.6353 -0.4089  0.2515
  399HK4    H2233510   1.222   4.372   7.738  1.0302  2.9634  1.2799
  399HK4    C4333511   1.118   4.401   7.553  0.1644 -0.2941  0.1046
  399HK4    H2333512   1.174   4.323   7.501  2.0830  0.0809  1.5279
  399HK4    C4433513   1.025   4.484   7.492  0.4694  0.2388  0.3566
  399HK4    H2433514   0.990   4.460   7.390  0.7028 -0.6790  0.4805
  399HK4    C4533515   0.953   4.584   7.555 -1.1260 -0.7849  0.2046
  399HK4    H2533516   0.901   4.663   7.498  1.5338 -0.6724 -2.2047
  400HK4    H2833517   8.226   9.740  10.571  0.0659 -0.8164 -0.9756
  400HK4    C4833518   8.273   9.835  10.545 -0.5314 -0.0966  0.5314
  400HK4    C4733519   8.309   9.847  10.412 -0.5350  0.4257  0.5753
  400HK4    H2733520   8.289   9.766  10.339 -2.0036  0.8713  0.4710
  400HK4    C4633521   8.372   9.962  10.367  0.5806 -0.1509  0.6286
  400HK4    H2633522   8.387   9.977  10.259 -1.4958 -3.1650 -0.1424
  400HK4    C4033523   8.409  10.063  10.459 -0.3597  0.5076  0.2946
  400HK4    C5033524   8.361  10.055  10.592 -0.6056  0.2619  0.1942
  400HK4    H3033525   8.395  10.130  10.665  2.0344 -0.1440 -0.5619
  400HK4    C4933526   8.298   9.939  10.635  0.2690 -0.1469  0.3651
  400HK4    H2933527   8.279   9.924  10.742 -0.5229  1.0396  0.3940
  400HK4     N233528   8.505  10.153  10.414  0.5398 -0.3904  0.3970
  400HK4    C3033529   8.592  10.139  10.303 -0.2042  0.0347 -0.2494
  400HK4    C2933530   8.679  10.033  10.279 -0.1732  0.0351 -0.1467
  400HK4    H1533531   8.646   9.932  10.305  0.2769 -0.2900 -0.8252
  400HK4    C2833532   8.793  10.040  10.200 -0.0451 -0.2685  0.0107
  400HK4    C2733533   8.813  10.162  10.133 -0.2384 -0.1370  0.1867
  400HK4    H1433534   8.897  10.194  10.068  0.6698  2.2966  2.4825
  400HK4    C3233535   8.727  10.268  10.155 -0.0771 -0.0962  0.5907
  400HK4    H1633536   8.736  10.366  10.109 -2.4275  0.5665  1.4495
  400HK4    C3133537   8.617  10.268  10.241 -0.3812  0.2923  0.2092
  400HK4    C3433538   8.544  10.366  10.319 -0.5739  0.1904  0.1593
  400HK4    C3333539   8.489  10.292  10.431  0.1654 -0.4012  0.1385
  400HK4    C3533540   8.444  10.363  10.542 -0.1250 -0.2723 -0.0613
  400HK4    H1733541   8.439  10.320  10.642 -1.5317 -0.6110 -0.2707
  400HK4    C3633542   8.439  10.501  10.533  0.0075 -0.2792 -0.2241
  400HK4    H1833543   8.427  10.562  10.623  2.7292 -0.8436  0.5682
  400HK4    C3733544   8.475  10.570  10.417 -0.3602  0.1218 -0.1008
  400HK4    H1933545   8.459  10.678  10.408 -2.7870 -0.2978 -1.2813
  400HK4    C3833546   8.533  10.504  10.310  0.4911  0.2868  0.2552
  400HK4    H2033547   8.566  10.549  10.216  1.4723 -2.1290 -0.6011
  400HK4    C1433548   8.902   9.943  10.220  0.3656  0.0826 -0.5417
  400HK4     C933549   9.038   9.976  10.221  0.4104 -0.0958  0.2031
  400HK4     C833550   9.133   9.882  10.177  0.1340  0.0604 -0.7445
  400HK4    C1133551   9.087   9.759  10.132 -0.1197  0.0354 -0.4149
  400HK4     H433552   9.155   9.682  10.093 -0.2900 -0.2803 -0.0956
  400HK4    C1233553   8.954   9.720  10.143 -0.0903 -0.0676 -0.4037
  400HK4     H533554   8.921   9.618  10.117 -0.7829  0.0431  0.0165
  400HK4    C1333555   8.861   9.812  10.190  0.1380  0.0928 -0.2799
  400HK4     H633556   8.757   9.780  10.205  0.9242 -1.6685  1.8009
  400HK4     C733557   9.273   9.922  10.149  0.2597 -0.1355 -0.4085
  400HK4     O233558   9.357   9.832  10.155  0.5579  0.1388 -0.4503
  400HK4     C433559   9.316  10.063  10.163  0.1628 -0.1378 -0.1230
  400HK4     C333560   9.444  10.094  10.119  0.5986 -0.0725  1.1706
  400HK4     H333561   9.516  10.018  10.085 -1.0341 -1.6894  1.2514
  400HK4     C233562   9.483  10.227  10.110 -0.1502  0.0647 -0.0950
  400HK4     H233563   9.579  10.258  10.065 -0.0389 -1.7815 -1.2020
  400HK4     C133564   9.389  10.322  10.146  0.3833  0.5168  0.1055
  400HK4     H133565   9.417  10.428  10.138 -1.3369  0.9320 -0.5942
  400HK4     C633566   9.259  10.292  10.193  0.4109  0.1012 -0.0767
  400HK4     C533567   9.224  10.158  10.211  0.7792  0.0987  0.6267
  400HK4    C1033568   9.090  10.111  10.257  0.7088 -0.1928  0.1379
  400HK4     O133569   9.053  10.154  10.367  0.0406 -0.1479 -0.1011
  400HK4    C1633570   9.158  10.390  10.151 -0.0036 -0.2213  0.1787
  400HK4    C1533571   9.151  10.446  10.022 -0.0932 -0.0266  0.2665
  400HK4     H733572   9.203  10.405   9.934 -0.0832 -1.5466  0.9723
  400HK4    C2033573   9.059  10.547   9.996 -0.2531 -0.3248 -0.3551
  400HK4     H933574   9.043  10.593   9.899  1.0297  1.7560  0.3859
  400HK4    C1933575   8.971  10.593  10.093 -0.0579 -0.5875 -0.0548
  400HK4    C1833576   8.984  10.539  10.227  0.6739  0.3024  0.2388
  400HK4    C1733577   9.077  10.439  10.253  0.0187 -0.3066  0.2362
  400HK4     H833578   9.111  10.421  10.354  1.6460 -1.2359 -0.4506
  400HK4     N133579   8.888  10.595  10.314 -0.4394 -0.7481 -0.3009
  400HK4    C2133580   8.813  10.690  10.242 -0.2895 -0.7122 -0.4117
  400HK4    C2233581   8.861  10.687  10.106 -0.2930 -0.8143 -0.4094
  400HK4    C2633582   8.804  10.769  10.009  0.0933  0.2436  0.2520
  400HK4    H1333583   8.843  10.761   9.908 -0.4120 -1.1794  0.1617
  400HK4    C2533584   8.695  10.848  10.044 -0.0983  0.1413 -0.1078
  400HK4    H1233585   8.646  10.910   9.969  0.2676 -0.1089 -0.5587
  400HK4    C2433586   8.647  10.855  10.175 -0.0119 -0.4637 -0.0445
  400HK4    H1133587   8.569  10.927  10.203  1.6181  1.6080 -0.6695
  400HK4    C2333588   8.708  10.777  10.272  0.3593 -0.0715  0.0374
  400HK4    H1033589   8.688  10.785  10.379  1.4230  0.3936  0.2051
  400HK4    C3933590   8.848  10.535  10.434  0.3557 -0.1456  0.2832
  400HK4    C4133591   8.800  10.616  10.539  0.2611  0.5286 -0.2821
  400HK4    H2133592   8.798  10.726  10.531 -0.2830  0.5032 -0.4975
  400HK4    C4233593   8.763  10.557  10.659  0.4083  0.0533 -0.4682
  400HK4    H2233594   8.713  10.610  10.742  0.3773  1.2725 -1.2551
  400HK4    C4333595   8.771  10.420  10.678 -0.3496  0.1687  0.7417
  400HK4    H2333596   8.721  10.382  10.767 -2.3889  0.9249 -0.0477
  400HK4    C4433597   8.812  10.333  10.577  0.4939  0.8798  0.4713
  400HK4    H2433598   8.824  10.224  10.583 -1.1459  0.7873  2.9790
  400HK4    C4533599   8.847  10.396  10.458 -0.6144 -0.2813 -0.4833
  400HK4    H2533600   8.887  10.325  10.385  1.6623 -1.4501  1.7906
  401HK4    H2833601   6.284   8.904  10.808 -1.0774  0.4942 -0.5376
  401HK4    C4833602   6.380   8.949  10.782 -0.4462 -0.7681 -0.3984
  401HK4    C4733603   6.495   8.883  10.821 -0.2155 -0.3619 -0.3938
  401HK4    H2733604   6.479   8.790  10.879  0.1186  0.2827  0.7590
  401HK4    C4633605   6.622   8.934  10.795 -0.2273 -0.3005 -0.3236
  401HK4    H2633606   6.698   8.889  10.860 -0.3778  0.5257  0.4394
  401HK4    C4033607   6.634   9.058  10.729 -0.0482  0.1477  0.5466
  401HK4    C5033608   6.515   9.122  10.689 -0.0051 -0.3448 -0.3872
  401HK4    H3033609   6.523   9.208  10.621 -1.1701  0.7757  0.8713
  401HK4    C4933610   6.389   9.067  10.710  0.1289 -0.4023  0.2740
  401HK4    H2933611   6.291   9.109  10.681 -1.0141 -2.5405  0.9825
  401HK4     N233612   6.758   9.103  10.682 -0.2794  0.0111 -0.2001
  401HK4    C3033613   6.787   9.236  10.644  0.4714 -0.0999 -0.0323
  401HK4    C2933614   6.726   9.355  10.682  0.6748 -0.1111  0.3270
  401HK4    H1533615   6.647   9.345  10.756  0.2291 -1.0370 -0.2744
  401HK4    C2833616   6.763   9.478  10.629  0.0637 -0.0664 -0.0065
  401HK4    C2733617   6.867   9.482  10.533 -0.1167  0.0659 -0.1943
  401HK4    H1433618   6.875   9.583  10.489 -0.7051 -0.7267 -2.1516
  401HK4    C3233619   6.935   9.366  10.498  0.2978  0.3201 -0.2347
  401HK4    H1633620   7.010   9.374  10.420 -1.5354 -0.3355 -2.1218
  401HK4    C3133621   6.897   9.243  10.550  0.9175  0.4513  0.5290
  401HK4    C3433622   6.929   9.106  10.514  0.2608  0.3088  0.4820
  401HK4    C3333623   6.846   9.026  10.602 -0.2875  0.0684 -0.2593
  401HK4    C3533624   6.866   8.889  10.602  0.4222  0.1703  0.0119
  401HK4    H1733625   6.794   8.837  10.665  0.1731 -0.7755 -1.0333
  401HK4    C3633626   6.959   8.830  10.517  0.8024  0.2096  0.4035
  401HK4    H1833627   6.980   8.722  10.523  0.2553  0.0450 -0.6907
  401HK4    C3733628   7.039   8.907  10.434  0.3701  0.5963  0.3447
  401HK4    H1933629   7.104   8.846  10.372  0.1095  0.2597  0.4038
  401HK4    C3833630   7.022   9.045  10.431  0.4650  0.6094  0.4865
  401HK4    H2033631   7.060   9.093  10.340  1.3173 -0.7503  0.1130
  401HK4    C1433632   6.660   9.583  10.625  0.3011  0.1563 -0.3806
  401HK4     C933633   6.624   9.656  10.511  0.1098 -0.1857 -0.5424
  401HK4     C833634   6.571   9.787  10.520  0.1206 -0.1971 -0.2608
  401HK4    C1133635   6.532   9.839  10.643  0.5767 -0.7929  0.1384
  401HK4     H433636   6.464   9.925  10.641  1.2642 -0.1968  2.0392
  401HK4    C1233637   6.570   9.766  10.755 -0.3315 -0.5703  0.5844
  401HK4     H533638   6.523   9.799  10.849 -1.3575  0.4055 -0.2585
  401HK4    C1333639   6.640   9.646  10.750 -0.3978 -0.5817 -0.1130
  401HK4     H633640   6.637   9.584  10.840 -1.6303 -0.6633 -0.2071
  401HK4     C733641   6.552   9.865  10.395 -0.9621 -0.2846 -0.1509
  401HK4     O233642   6.498   9.975  10.392 -0.9555 -0.2898 -0.4610
  401HK4     C433643   6.602   9.814  10.265 -0.0541 -0.1684  0.1450
  401HK4     C333644   6.611   9.893  10.151  0.1702 -0.0970  0.2118
  401HK4     H333645   6.574   9.996  10.153  2.1015  0.7122 -2.4998
  401HK4     C233646   6.666   9.854  10.029  0.0239  0.3192  0.0095
  401HK4     H233647   6.665   9.918   9.940 -2.1942 -1.2971 -1.1723
  401HK4     C133648   6.702   9.720  10.026 -0.2715  0.2325  0.1418
  401HK4     H133649   6.749   9.683   9.933  0.4605  4.6635 -1.3823
  401HK4     C633650   6.691   9.630  10.134  0.5927  0.1643  0.1711
  401HK4     C533651   6.638   9.679  10.253  0.2587 -0.0828  0.1250
  401HK4    C1033652   6.631   9.594  10.376  0.3557 -0.7017 -0.2938
  401HK4     O133653   6.561   9.496  10.354 -0.0869 -0.4921  0.1865
  401HK4    C1633654   6.784   9.516  10.134  0.6340  0.1960  0.6526
  401HK4    C1533655   6.917   9.534  10.092  0.1458  0.4211 -0.8385
  401HK4     H733656   6.967   9.630  10.072  0.3464  0.5775  0.4058
  401HK4    C2033657   7.006   9.428  10.076 -0.2821 -0.0423 -0.1538
  401HK4     H933658   7.113   9.448  10.079 -0.3682  0.4263 -0.1813
  401HK4    C1933659   6.965   9.298  10.101  0.4117 -0.2205  0.0660
  401HK4    C1833660   6.823   9.270  10.114  0.2571  0.1294 -0.8336
  401HK4    C1733661   6.744   9.383  10.135  0.3996  0.2432 -0.9105
  401HK4     H833662   6.640   9.363  10.162  0.5757 -1.3554 -1.3326
  401HK4     N133663   6.792   9.135  10.091  0.2482 -0.0539  0.2280
  401HK4    C2133664   6.919   9.079  10.062  0.2675  0.1706 -0.1178
  401HK4    C2233665   7.029   9.174  10.061  0.5742 -0.1852  0.2144
  401HK4    C2633666   7.160   9.131  10.042  0.5655 -0.1371  0.0524
  401HK4    H1333667   7.243   9.200  10.039  1.3339 -1.0318  0.4841
  401HK4    C2533668   7.181   8.997  10.010 -0.2174 -0.0949 -0.6648
  401HK4    H1233669   7.277   8.972   9.964  1.4023  0.7002  2.1942
  401HK4    C2433670   7.078   8.905   9.998 -0.3273  0.0046 -0.4835
  401HK4    H1133671   7.088   8.799   9.970  0.1245  0.6182 -2.7506
  401HK4    C2333672   6.949   8.948  10.030 -0.1139 -0.0732  0.4944
  401HK4    H1033673   6.879   8.874  10.068  0.6266 -1.6460 -1.1320
  401HK4    C3933674   6.688   9.058  10.145  0.1383  0.1528  0.3095
  401HK4    C4133675   6.637   8.941  10.084 -0.2564  0.4659  0.0334
  401HK4    H2133676   6.670   8.915   9.983 -2.5520  0.1542 -0.6576
  401HK4    C4233677   6.532   8.869  10.141 -0.0719 -0.4441 -0.7663
  401HK4    H2233678   6.493   8.785  10.082 -0.7787  0.8129 -2.1071
  401HK4    C4333679   6.478   8.907  10.264 -0.2344 -0.2690 -0.8943
  401HK4    H2333680   6.403   8.842  10.307  0.2572 -0.6049 -0.5458
  401HK4    C4433681   6.523   9.022  10.327 -0.9750 -0.1385 -0.5934
  401HK4    H2433682   6.471   9.076  10.407  0.1362 -1.9120  1.3793
  401HK4    C4533683   6.631   9.089  10.270 -0.2747 -0.5076  0.2871
  401HK4    H2533684   6.659   9.186  10.312 -0.6302  0.5890 -1.9065
  402HK4    H2833685   3.656   4.307  11.158  0.5150 -1.8640  1.3617
  402HK4    C4833686   3.715   4.287  11.069 -0.8907  0.0773 -0.0671
  402HK4    C4733687   3.789   4.169  11.058 -0.5030  0.3525 -0.4361
  402HK4    H2733688   3.776   4.086  11.129  0.1420 -0.1595 -0.9185
  402HK4    C4633689   3.888   4.150  10.963 -0.0531  0.6483 -0.0332
  402HK4    H2633690   3.947   4.057  10.968  1.2872  1.5751  2.2915
  402HK4    C4033691   3.919   4.251  10.870 -0.1721  0.6140 -0.1092
  402HK4    C5033692   3.844   4.370  10.884  0.0979  0.7276  0.3732
  402HK4    H3033693   3.881   4.460  10.833  0.2575  0.9580  0.8864
  402HK4    C4933694   3.740   4.386  10.975 -0.1108  0.1755  0.2358
  402HK4    H2933695   3.680   4.478  10.981  1.3877  1.1728  0.1313
  402HK4     N233696   4.032   4.254  10.788  0.0451  0.9840  0.2008
  402HK4    C3033697   4.032   4.303  10.655  0.3603  0.3450 -0.0402
  402HK4    C2933698   3.928   4.343  10.572  0.0228 -0.4534 -0.0087
  402HK4    H1533699   3.835   4.372  10.623  0.7011  2.6445 -0.4101
  402HK4    C2833700   3.942   4.368  10.436  0.2904  0.2382  0.1395
  402HK4    C2733701   4.072   4.367  10.382  0.1708  0.6558 -0.1524
  402HK4    H1433702   4.089   4.383  10.275  0.8326 -1.7664 -0.4346
  402HK4    C3233703   4.183   4.330  10.457  0.1725  0.1463 -0.4061
  402HK4    H1633704   4.277   4.320  10.403 -0.6038 -1.0951 -1.5246
  402HK4    C3133705   4.161   4.297  10.591  0.2875  0.7946 -0.2248
  402HK4    C3433706   4.248   4.246  10.695 -0.0626 -0.6683 -0.6498
  402HK4    C3333707   4.168   4.231  10.816  0.0826  0.4726 -0.4081
  402HK4    C3533708   4.221   4.207  10.942 -0.2999 -0.0861 -0.3512
  402HK4    H1733709   4.155   4.207  11.029 -0.9327  0.3486 -0.8309
  402HK4    C3633710   4.359   4.200  10.955 -0.2869  0.3114 -0.2743
  402HK4    H1833711   4.415   4.177  11.047 -0.5843  0.1365 -0.1393
  402HK4    C3733712   4.440   4.215  10.843  0.0086 -0.6684 -0.1929
  402HK4    H1933713   4.548   4.195  10.843  0.1722 -0.0480 -3.3564
  402HK4    C3833714   4.384   4.239  10.718 -0.1294  0.1202  0.0112
  402HK4    H2033715   4.448   4.249  10.630  0.2278 -2.7921 -0.1166
  402HK4    C1433716   3.830   4.331  10.349  0.2576  0.3103  0.1565
  402HK4     C933717   3.831   4.272  10.223  0.6155  0.0585  0.2728
  402HK4     C833718   3.725   4.301  10.135 -0.1748 -0.5094  1.0376
  402HK4    C1133719   3.627   4.392  10.174  0.4624  0.5833  0.1184
  402HK4     H433720   3.550   4.421  10.102  0.5680 -0.3125 -0.3617
  402HK4    C1233721   3.620   4.445  10.303 -0.2210  0.4725  0.1299
  402HK4     H533722   3.528   4.496  10.335 -1.2327 -1.2969  0.1302
  402HK4    C1333723   3.722   4.412  10.392 -0.1697 -0.1047 -0.1351
  402HK4     H633724   3.722   4.457  10.492 -2.4454 -0.0481 -0.1318
  402HK4     C733725   3.703   4.205  10.024 -0.1053  0.3466  0.2689
  402HK4     O233726   3.590   4.192   9.976  0.1422 -0.2972 -0.1493
  402HK4     C433727   3.804   4.101   9.991 -0.4951  0.0078  0.1329
  402HK4     C333728   3.782   4.014   9.886  0.2392  0.3535 -0.3114
  402HK4     H333729   3.681   4.010   9.842  0.7238  2.4346 -1.7025
  402HK4     C233730   3.882   3.924   9.853 -0.2608 -0.3273  0.0205
  402HK4     H233731   3.860   3.836   9.790 -0.3000 -0.7425  0.6056
  402HK4     C133732   4.007   3.931   9.914 -0.4678 -0.6317  0.4829
  402HK4     H133733   4.080   3.857   9.878 -0.9796 -1.8823  1.9693
  402HK4     C633734   4.040   4.030  10.008 -0.1336 -0.0284 -0.2599
  402HK4     C533735   3.929   4.100  10.057 -0.3198 -0.3601 -0.2090
  402HK4    C1033736   3.935   4.171  10.187  0.0881 -0.3019 -0.2549
  402HK4     O133737   3.987   4.102  10.275  0.4078 -0.4174 -0.5382
  402HK4    C1633738   4.170   4.095   9.989 -0.5191  0.8476  0.0509
  402HK4    C1533739   4.217   4.087   9.856  0.3895 -0.6224  0.4459
  402HK4     H733740   4.150   4.077   9.770 -1.1779 -0.3078  1.6165
  402HK4    C2033741   4.353   4.094   9.828  0.2613  0.1152 -0.0024
  402HK4     H933742   4.387   4.079   9.725  0.9870  0.8564  0.1227
  402HK4    C1933743   4.446   4.096   9.931  0.0727 -0.5315  0.1822
  402HK4    C1833744   4.397   4.110  10.067  0.0728 -0.1538  0.1472
  402HK4    C1733745   4.261   4.113  10.093  0.0005 -0.1098 -0.2334
  402HK4     H833746   4.230   4.154  10.190  0.1113 -0.0110 -0.2383
  402HK4     N133747   4.508   4.116  10.154  0.0856  0.3521  0.0956
  402HK4    C2133748   4.626   4.120  10.077  0.1831 -0.2818  0.2086
  402HK4    C2233749   4.589   4.117   9.937  0.0141 -0.1429  0.2512
  402HK4    C2633750   4.682   4.143   9.837 -0.1809 -0.0193  0.0995
  402HK4    H1333751   4.649   4.149   9.733 -0.9735  1.6643  0.4258
  402HK4    C2533752   4.816   4.161   9.871 -0.0645 -0.1995 -0.2688
  402HK4    H1233753   4.892   4.175   9.794  0.1190  0.1153 -0.0329
  402HK4    C2433754   4.852   4.168  10.005 -0.2624  0.0941 -0.2285
  402HK4    H1133755   4.950   4.214  10.024 -0.7335  1.5791 -1.2936
  402HK4    C2333756   4.759   4.147  10.106  0.1204  0.1298  0.1265
  402HK4    H1033757   4.792   4.115  10.205 -1.2950 -2.0466 -0.0642
  402HK4    C3933758   4.505   4.099  10.293  0.1244 -0.1948  0.0301
  402HK4    C4133759   4.597   4.154  10.385  0.5780 -0.3700 -0.3114
  402HK4    H2133760   4.636   4.252  10.356  0.3012  0.2264  1.2881
  402HK4    C4233761   4.620   4.104  10.513  0.0058  0.0600 -0.0389
  402HK4    H2233762   4.685   4.170  10.572 -0.6076  2.1485 -1.6190
  402HK4    C4333763   4.548   3.992  10.554  0.4179 -0.1542  0.1021
  402HK4    H2333764   4.554   3.972  10.661 -1.2799 -2.6118 -0.2285
  402HK4    C4433765   4.449   3.941  10.471  0.0888  0.3958  0.1537
  402HK4    H2433766   4.387   3.856  10.505  0.9517 -1.1550 -2.1097
  402HK4    C4533767   4.425   3.996  10.346  0.0312 -0.1836 -0.0925
  402HK4    H2533768   4.339   3.957  10.290  0.6373 -0.2288 -1.0030
  403HK4    H2833769   8.353   8.441   8.376 -0.3033 -0.1442 -0.9810
  403HK4    C4833770   8.307   8.342   8.382 -0.3762 -0.0702 -0.3677
  403HK4    C4733771   8.172   8.335   8.417 -0.1379 -0.0282  0.6004
  403HK4    H2733772   8.117   8.429   8.430 -0.2680  0.1783 -1.2809
  403HK4    C4633773   8.102   8.215   8.424  0.2169 -0.2310  0.7244
  403HK4    H2633774   7.999   8.216   8.462 -0.7818  0.4388 -1.8789
  403HK4    C4033775   8.168   8.092   8.403 -0.0543 -0.2610  0.0524
  403HK4    C5033776   8.306   8.099   8.372 -0.1958  0.1138 -0.5154
  403HK4    H3033777   8.368   8.009   8.359  0.2060  0.2964  0.1234
  403HK4    C4933778   8.371   8.221   8.360  0.0154  0.0601  0.0593
  403HK4    H2933779   8.475   8.215   8.324 -0.6944  0.1961 -2.0659
  403HK4     N233780   8.113   7.971   8.445  0.1308 -0.3057  0.1725
  403HK4    C3033781   8.017   7.952   8.547 -0.3584  0.2241 -0.1895
  403HK4    C2933782   7.968   8.032   8.650 -0.0682  0.1870 -0.0240
  403HK4    H1533783   8.027   8.121   8.675 -0.2839 -0.1447  1.7231
  403HK4    C2833784   7.878   7.997   8.749 -0.2130 -0.0285 -0.2281
  403HK4    C2733785   7.831   7.864   8.747 -0.5480  0.0913 -0.3651
  403HK4    H1433786   7.732   7.846   8.791 -0.1436  1.4466  1.1244
  403HK4    C3233787   7.872   7.777   8.646  0.5926  0.2066 -0.0091
  403HK4    H1633788   7.837   7.675   8.658 -0.0869  0.7134  2.7963
  403HK4    C3133789   7.956   7.821   8.545 -0.4751  0.2880 -0.8703
  403HK4    C3433790   8.015   7.761   8.426  0.4960 -0.5233  0.0111
  403HK4    C3333791   8.110   7.853   8.368  0.3962 -0.3158  0.1774
  403HK4    C3533792   8.153   7.837   8.236  0.3270 -0.0748  0.1221
  403HK4    H1733793   8.233   7.902   8.202  0.2002 -1.1789 -2.3280
  403HK4    C3633794   8.095   7.737   8.160 -0.0669  0.1642  0.1088
  403HK4    H1833795   8.148   7.724   8.064  0.8191  1.2416  0.4512
  403HK4    C3733796   8.000   7.647   8.207  0.1441 -0.1552 -0.0728
  403HK4    H1933797   7.971   7.561   8.147  0.5460 -0.4831  0.1985
  403HK4    C3833798   7.965   7.663   8.341 -0.5281  0.2530 -0.2928
  403HK4    H2033799   7.891   7.593   8.378 -0.0129  0.5479  1.3390
  403HK4    C1433800   7.840   8.085   8.861  0.3637 -0.3093  0.1903
  403HK4     C933801   7.824   8.040   8.993 -0.0696  0.1278  0.2857
  403HK4     C833802   7.739   8.104   9.086 -0.6199 -0.0775 -0.0703
  403HK4    C1133803   7.679   8.222   9.045 -0.5072  0.2225  0.6119
  403HK4     H433804   7.630   8.291   9.115 -1.7384 -0.8936  0.8589
  403HK4    C1233805   7.699   8.276   8.918  0.0947 -0.5299  0.3797
  403HK4     H533806   7.642   8.367   8.894 -0.7610 -0.7870  1.3945
  403HK4    C1333807   7.779   8.208   8.828  0.0066 -0.4664  0.2529
  403HK4     H633808   7.795   8.253   8.729  1.4465  0.2425  0.7925
  403HK4     C733809   7.681   8.033   9.203 -0.3951 -0.4330 -0.1755
  403HK4     O233810   7.651   8.100   9.301  0.5547  0.3563 -0.4115
  403HK4     C433811   7.700   7.886   9.205  0.2226 -0.3505  0.4490
  403HK4     C333812   7.621   7.810   9.291 -0.4163 -0.1728  0.0309
  403HK4     H333813   7.526   7.859   9.314  0.4603  1.0991  1.0435
  403HK4     C233814   7.630   7.672   9.293 -0.2001 -0.1545  0.2827
  403HK4     H233815   7.562   7.618   9.361  0.4853  1.8549  2.6049
  403HK4     C133816   7.720   7.611   9.205 -0.4007  0.0719 -0.0775
  403HK4     H133817   7.712   7.502   9.190 -0.8798  0.0304  0.4406
  403HK4     C633818   7.800   7.684   9.115  0.2765 -0.2745  0.2432
  403HK4     C533819   7.797   7.824   9.124  0.1950 -0.2826  0.3655
  403HK4    C1033820   7.879   7.908   9.032 -0.3872 -0.0804  0.0271
  403HK4     O133821   8.001   7.897   9.031 -0.3961 -0.1676 -0.2938
  403HK4    C1633822   7.845   7.613   8.995  0.4702  0.0453  0.1255
  403HK4    C1533823   7.759   7.524   8.928 -0.3563  0.6360  0.4037
  403HK4     H733824   7.652   7.549   8.932 -0.2861  0.8212  1.2975
  403HK4    C2033825   7.806   7.424   8.844 -0.0781  0.4747  0.7488
  403HK4     H933826   7.733   7.350   8.812  0.8941  0.3851 -1.3560
  403HK4    C1933827   7.941   7.417   8.812 -0.2312 -0.1893  0.2405
  403HK4    C1833828   8.029   7.517   8.870  0.1231 -0.0638 -0.5041
  403HK4    C1733829   7.981   7.606   8.965  0.4197 -0.4553  0.0135
  403HK4     H833830   8.053   7.649   9.035  0.6455 -1.7499  0.5943
  403HK4     N133831   8.164   7.493   8.839  0.2047 -0.5040  0.1807
  403HK4    C2133832   8.162   7.376   8.760  0.1560 -0.1293 -0.3737
  403HK4    C2233833   8.027   7.327   8.737  0.0128 -0.1056  0.4177
  403HK4    C2633834   8.001   7.207   8.673  0.0305 -0.0073  0.2290
  403HK4    H1333835   7.900   7.173   8.652 -0.0057  0.6632 -0.7741
  403HK4    C2533836   8.112   7.132   8.635  0.1622  0.0456  0.5128
  403HK4    H1233837   8.099   7.028   8.606 -0.2569 -0.1030  1.2238
  403HK4    C2433838   8.243   7.174   8.652  0.3834 -0.1997 -0.4936
  403HK4    H1133839   8.331   7.116   8.621  1.7447  2.0828 -1.0689
  403HK4    C2333840   8.266   7.297   8.714  0.1186 -0.4327  0.0656
  403HK4    H1033841   8.370   7.315   8.740 -0.4358  2.3761  0.4240
  403HK4    C3933842   8.257   7.597   8.827  0.1378 -0.3871  0.6773
  403HK4    C4133843   8.395   7.570   8.819  0.1361 -0.2469  0.0442
  403HK4    H2133844   8.440   7.472   8.839  1.7472  0.4120 -0.2261
  403HK4    C4233845   8.484   7.666   8.773 -0.0336  0.0694  0.3631
  403HK4    H2233846   8.579   7.631   8.728 -0.7778 -0.3670 -0.8749
  403HK4    C4333847   8.443   7.796   8.748  0.0990  0.0643  0.1084
  403HK4    H2333848   8.513   7.873   8.715 -1.4513  1.8044  0.7607
  403HK4    C4433849   8.310   7.829   8.771 -0.0360 -0.4100  0.0063
  403HK4    H2433850   8.278   7.934   8.770 -0.3264 -0.4984 -0.3288
  403HK4    C4533851   8.217   7.729   8.798  0.1336 -0.3923  0.6584
  403HK4    H2533852   8.112   7.747   8.770 -0.3486 -0.4876  2.3565
  404HK4    H2833853   1.330   6.428   3.768 -3.6603 -0.0428 -0.5494
  404HK4    C4833854   1.319   6.324   3.798 -0.1081 -0.3314  0.0602
  404HK4    C4733855   1.228   6.289   3.897  0.0898 -0.5373  0.1692
  404HK4    H2733856   1.175   6.365   3.957  0.4844 -0.9675  1.0833
  404HK4    C4633857   1.208   6.156   3.933  0.2249 -0.5814  0.0789
  404HK4    H2633858   1.138   6.132   4.014  0.5596 -0.8670  0.2815
  404HK4    C4033859   1.282   6.050   3.877  0.0946 -0.5391 -0.1746
  404HK4    C5033860   1.368   6.087   3.772 -0.1359 -0.0680 -0.1959
  404HK4    H3033861   1.429   6.011   3.723 -1.3222 -1.4827  0.4840
  404HK4    C4933862   1.382   6.220   3.732  0.0053 -0.0893 -0.2171
  404HK4    H2933863   1.444   6.239   3.644  1.6570  1.8345  1.3239
  404HK4     N233864   1.308   5.935   3.954  0.0145 -0.4444 -0.0048
  404HK4    C3033865   1.333   5.933   4.092 -0.1393 -0.1335  0.0273
  404HK4    C2933866   1.376   6.038   4.173 -0.5515  0.0273  0.0442
  404HK4    H1533867   1.391   6.132   4.121  0.3584  0.1448  0.4939
  404HK4    C2833868   1.440   6.010   4.294  0.2247  0.0363 -0.3616
  404HK4    C2733869   1.431   5.882   4.352 -0.4513  0.3595  0.2678
  404HK4    H1433870   1.435   5.879   4.461  1.6846 -1.3872  0.1967
  404HK4    C3233871   1.404   5.775   4.266 -0.0643  0.5156 -0.0501
  404HK4    H1633872   1.410   5.673   4.303 -1.1249  0.1907 -0.7572
  404HK4    C3133873   1.371   5.800   4.134  0.1491 -0.1285 -0.2242
  404HK4    C3433874   1.371   5.720   4.012  0.2082 -0.2832 -0.1242
  404HK4    C3333875   1.332   5.806   3.902  0.3529 -0.3072 -0.1935
  404HK4    C3533876   1.355   5.763   3.772  0.1027  0.0761 -0.3641
  404HK4    H1733877   1.315   5.817   3.686  1.5326  2.0014  0.1443
  404HK4    C3633878   1.417   5.641   3.752  0.0111 -0.0788  0.3104
  404HK4    H1833879   1.463   5.619   3.655  1.0693 -0.1672  0.8148
  404HK4    C3733880   1.461   5.560   3.857  0.3604 -0.0281  0.2055
  404HK4    H1933881   1.536   5.485   3.834  2.5627  1.3883  2.5053
  404HK4    C3833882   1.437   5.601   3.988 -0.2730 -0.6353  0.2829
  404HK4    H2033883   1.462   5.527   4.064  2.8101 -0.2435 -0.2796
  404HK4    C1433884   1.523   6.116   4.354 -0.0376 -0.0449  0.1462
  404HK4     C933885   1.621   6.086   4.449 -0.4223 -0.1464  0.5128
  404HK4     C833886   1.639   6.177   4.555 -0.1828  0.2400  0.1414
  404HK4    C1133887   1.570   6.298   4.556  0.4253  0.6046 -0.6997
  404HK4     H433888   1.555   6.347   4.653  1.3375  2.9016 -1.6869
  404HK4    C1233889   1.487   6.338   4.452  0.3633  0.3607 -0.7467
  404HK4     H533890   1.443   6.439   4.453 -0.6227 -0.0683  0.8208
  404HK4    C1333891   1.463   6.243   4.354  0.4626  0.1957 -0.6128
  404HK4     H633892   1.414   6.280   4.262 -2.2285 -0.5890  0.4776
  404HK4     C733893   1.728   6.139   4.667 -0.8365 -0.4362  0.4305
  404HK4     O233894   1.759   6.226   4.747 -0.5510 -0.1740  0.0337
  404HK4     C433895   1.778   6.000   4.680  0.2952 -0.1046 -0.3440
  404HK4     C333896   1.827   5.955   4.802 -0.0920 -0.5807 -0.3621
  404HK4     H333897   1.863   6.020   4.883 -1.9317 -3.0528  2.5293
  404HK4     C233898   1.881   5.827   4.812 -0.1672 -0.5383  0.6033
  404HK4     H233899   1.926   5.790   4.906  0.3142 -2.3098 -0.2990
  404HK4     C133900   1.882   5.745   4.700 -0.1869  0.1163  0.1198
  404HK4     H133901   1.933   5.647   4.707  2.3454  1.4064  0.1669
  404HK4     C633902   1.832   5.790   4.576  0.4045 -0.0609 -0.1896
  404HK4     C533903   1.780   5.919   4.564 -0.4138 -0.3833 -0.1652
  404HK4    C1033904   1.711   5.967   4.441 -0.2170  0.0447 -0.1093
  404HK4     O133905   1.754   5.943   4.329 -0.2235 -0.2700 -0.0444
  404HK4    C1633906   1.791   5.681   4.487  0.0974 -0.3256  0.2720
  404HK4    C1533907   1.746   5.559   4.543  0.0994 -0.3130  0.3000
  404HK4     H733908   1.703   5.558   4.644  0.7555  1.2266  0.6122
  404HK4    C2033909   1.731   5.446   4.464  0.6497 -0.0953 -0.1212
  404HK4     H933910   1.709   5.352   4.516 -1.2741  1.0642  1.2405
  404HK4    C1933911   1.754   5.449   4.327 -0.0696  0.5282 -0.2332
  404HK4    C1833912   1.821   5.564   4.270  0.2521  0.5216  0.1271
  404HK4    C1733913   1.831   5.674   4.354 -0.0354  0.5012  0.1879
  404HK4     H833914   1.900   5.751   4.318 -2.2122  1.7321 -1.5192
  404HK4     N133915   1.862   5.548   4.136  0.3324  0.0897  0.2018
  404HK4    C2133916   1.839   5.411   4.112 -0.1882  0.2318 -0.1113
  404HK4    C2233917   1.770   5.349   4.224  0.0256  0.2626  0.0375
  404HK4    C2633918   1.750   5.211   4.224  0.3150  0.2178 -0.5267
  404HK4    H1333919   1.674   5.167   4.288  0.0055  2.2371  0.5440
  404HK4    C2533920   1.808   5.130   4.127 -0.1739 -0.7643 -0.0052
  404HK4    H1233921   1.786   5.024   4.118  1.0925 -0.9864 -0.5908
  404HK4    C2433922   1.884   5.190   4.027 -0.4488 -0.3626  0.0271
  404HK4    H1133923   1.939   5.126   3.958 -1.2755  0.2323 -1.2045
  404HK4    C2333924   1.897   5.328   4.017 -0.0571 -0.3663  0.4844
  404HK4    H1033925   1.963   5.368   3.939  0.3399 -1.2901  0.3407
  404HK4    C3933926   1.858   5.656   4.047  0.5510  0.2710  0.4101
  404HK4    C4133927   1.922   5.642   3.922 -0.7083 -0.6004 -0.1484
  404HK4    H2133928   2.026   5.608   3.916 -0.3877  0.4126 -0.3401
  404HK4    C4233929   1.860   5.706   3.816  0.4289  0.5069 -0.1477
  404HK4    H2233930   1.922   5.696   3.725  1.4259  0.2418  0.5558
  404HK4    C4333931   1.742   5.779   3.820  0.1915  0.1232 -0.0809
  404HK4    H2333932   1.682   5.801   3.731 -1.8349 -1.3009  0.9059
  404HK4    C4433933   1.684   5.809   3.942  0.6069  0.7013 -0.0205
  404HK4    H2433934   1.621   5.898   3.954  1.0844  0.8651  1.3732
  404HK4    C4533935   1.746   5.741   4.047  0.0500 -0.3809 -0.3821
  404HK4    H2533936   1.706   5.761   4.147 -0.1743  1.8827 -0.8908
  405HK4    H2833937   3.856  10.485   1.870  0.6044 -2.7862 -0.1969
  405HK4    C4833938   3.755  10.475   1.909  0.3880  0.4844  0.2297
  405HK4    C4733939   3.664  10.463   1.806  0.6435  0.1607  0.0414
  405HK4    H2733940   3.676  10.503   1.704  0.3069 -0.9232 -0.4396
  405HK4    C4633941   3.560  10.371   1.815  0.4369  0.4078  0.2022
  405HK4    H2633942   3.476  10.390   1.747  0.2594  0.2984  0.3937
  405HK4    C4033943   3.541  10.287   1.927  0.5987 -0.1303 -0.1671
  405HK4    C5033944   3.637  10.306   2.028  0.2940  0.4111  0.0282
  405HK4    H3033945   3.644  10.228   2.105  0.5429  0.8242  0.4202
  405HK4    C4933946   3.738  10.402   2.026  0.6472  0.0412 -0.0081
  405HK4    H2933947   3.778  10.449   2.117 -0.5183  1.3630 -0.1596
  405HK4     N233948   3.465  10.170   1.918  0.1421  0.1438  0.0822
  405HK4    C3033949   3.435  10.104   1.798 -0.5185  0.7106 -0.0641
  405HK4    C2933950   3.520  10.097   1.688 -0.3533 -0.3186  0.1237
  405HK4    H1533951   3.606  10.163   1.683  1.4672 -2.3592  2.7190
  405HK4    C2833952   3.493  10.009   1.584 -0.1604  0.1651 -0.3336
  405HK4    C2733953   3.373   9.936   1.588 -0.1076  0.1113  0.1874
  405HK4    H1433954   3.342   9.869   1.507 -0.3689 -1.8823  1.8816
  405HK4    C3233955   3.291   9.937   1.701 -0.2140 -0.0894  0.1125
  405HK4    H1633956   3.215   9.859   1.709  1.1617 -1.3087  1.8632
  405HK4    C3133957   3.315  10.023   1.808 -0.0041 -0.0489  0.0322
  405HK4    C3433958   3.280  10.027   1.948 -0.1641 -0.7109  0.0159
  405HK4    C3333959   3.382  10.106   2.014 -0.1113 -0.3730 -0.4779
  405HK4    C3533960   3.373  10.125   2.151  0.1470  0.5011 -0.5727
  405HK4    H1733961   3.448  10.191   2.193  0.9035 -0.4893 -0.3333
  405HK4    C3633962   3.268  10.066   2.221  0.8975 -0.0780  0.0713
  405HK4    H1833963   3.254  10.093   2.326  0.5018  0.7642 -0.1948
  405HK4    C3733964   3.174   9.979   2.167  0.3704  0.3752  0.2658
  405HK4    H1933965   3.101   9.919   2.222 -0.9629  1.1894 -0.5658
  405HK4    C3833966   3.182   9.969   2.028 -0.0134 -0.5652  0.3079
  405HK4    H2033967   3.098   9.920   1.981 -0.5416  0.6652 -0.0479
  405HK4    C1433968   3.572  10.011   1.459 -0.4784  0.4084 -0.5314
  405HK4     C933969   3.526   9.978   1.331  0.2431  0.3220 -0.7711
  405HK4     C833970   3.611   9.905   1.246  0.1214 -0.4816 -0.2071
  405HK4    C1133971   3.747   9.893   1.272  0.1672  0.5063  0.0297
  405HK4     H433972   3.823   9.867   1.196 -0.5155 -1.1570 -0.1103
  405HK4    C1233973   3.798   9.948   1.389 -0.2429  0.0601  0.4178
  405HK4     H533974   3.906   9.965   1.400 -0.5428  1.7969  0.8488
  405HK4    C1333975   3.710   9.997   1.485 -0.6037  0.1764  0.0285
  405HK4     H633976   3.755  10.032   1.579 -0.6365 -0.3981  0.2579
  405HK4     C733977   3.551   9.846   1.124 -0.1979  0.3908 -0.4737
  405HK4     O233978   3.627   9.817   1.032  0.5430 -0.1426  0.2977
  405HK4     C433979   3.405   9.846   1.105 -0.3191 -0.7672  0.4462
  405HK4     C333980   3.348   9.761   1.010 -0.2952  0.3465 -0.5802
  405HK4     H333981   3.413   9.711   0.938 -0.8434 -1.3460  0.0676
  405HK4     C233982   3.215   9.720   1.016 -0.2171  0.1625 -0.0200
  405HK4     H233983   3.159   9.681   0.930 -0.3183 -1.9556  0.9748
  405HK4     C133984   3.141   9.774   1.120  0.3876 -0.3027  0.6538
  405HK4     H133985   3.033   9.758   1.127  0.4828 -1.1566  0.2033
  405HK4     C633986   3.185   9.869   1.215  0.1156  0.3572  0.1183
  405HK4     C533987   3.318   9.908   1.197 -0.0168  0.6678 -0.2180
  405HK4    C1033988   3.385  10.004   1.289 -0.0798  0.2557  0.2607
  405HK4     O133989   3.356  10.123   1.276 -0.1788  0.1587 -0.4581
  405HK4    C1633990   3.108   9.885   1.339 -0.0365  0.4184  0.0154
  405HK4    C1533991   3.033   9.785   1.404 -0.3009  0.5005 -0.1588
  405HK4     H733992   3.065   9.682   1.383 -1.9566 -0.1650  0.5194
  405HK4    C2033993   2.970   9.812   1.525  0.2912 -0.1929  0.3167
  405HK4     H933994   2.916   9.735   1.579  0.1973 -0.5133 -0.2356
  405HK4    C1933995   2.966   9.940   1.579 -0.1179 -0.0337 -0.0825
  405HK4    C1833996   3.028  10.049   1.506 -0.2560 -0.1437 -0.3626
  405HK4    C1733997   3.093  10.015   1.388  0.8220  0.5109  0.0360
  405HK4     H833998   3.109  10.102   1.324 -0.6024  0.5198 -0.3180
  405HK4     N133999   3.031  10.166   1.585  0.8112 -0.3920 -0.0187
  405HK4    C2134000   2.972  10.137   1.709 -0.0168  0.1559 -0.2771
  405HK4    C2234001   2.920  10.002   1.702  0.3766 -0.0180  0.0910
  405HK4    C2634002   2.833   9.963   1.803 -0.4769  0.0278 -0.6179
  405HK4    H1334003   2.799   9.859   1.805 -0.2909 -0.0376 -0.8705
  405HK4    C2534004   2.800  10.049   1.907 -0.3570 -0.1073 -0.4658
  405HK4    H1234005   2.702  10.044   1.954 -0.3101 -1.6892 -0.5141
  405HK4    C2434006   2.859  10.175   1.917 -0.5617 -0.0145 -0.4125
  405HK4    H1134007   2.833  10.238   2.003 -3.6551 -2.3855  0.4688
  405HK4    C2334008   2.947  10.218   1.819  0.2489 -0.3562  0.1633
  405HK4    H1034009   2.996  10.316   1.830  1.1898 -0.6969 -0.8985
  405HK4    C3934010   3.093  10.285   1.545  0.0069 -0.0345 -0.2188
  405HK4    C4134011   3.046  10.407   1.598  0.1039 -0.1658  0.1643
  405HK4    H2134012   2.950  10.404   1.653  1.7036 -0.8018  3.0332
  405HK4    C4234013   3.112  10.528   1.589 -0.4874  0.0893 -0.8612
  405HK4    H2234014   3.060  10.624   1.607 -0.7492 -0.0688 -0.7803
  405HK4    C4334015   3.242  10.522   1.541 -0.1033 -0.2381  0.2064
  405HK4    H2334016   3.306  10.609   1.558 -0.9058  0.3295  0.3245
  405HK4    C4434017   3.298  10.406   1.488  0.0840  0.1807 -0.5230
  405HK4    H2434018   3.404  10.410   1.460  0.4889  2.2922  1.1717
  405HK4    C4534019   3.225  10.288   1.496  0.2501  0.1366  0.4429
  405HK4    H2534020   3.294  10.205   1.518  0.0169 -0.7989 -2.2398
  406HK4    H2834021   1.331   3.889   3.840  1.1675 -1.0861  3.3527
  406HK4    C4834022   1.425   3.891   3.785 -0.6900 -0.2174  0.0444
  406HK4    C4734023   1.521   3.990   3.800  0.0857 -0.9745  0.0835
  406HK4    H2734024   1.501   4.069   3.873  1.6509  0.7764 -1.3194
  406HK4    C4634025   1.641   3.991   3.729  0.0460  0.4736  0.0342
  406HK4    H2634026   1.715   4.067   3.760  1.8307 -0.4998 -1.7441
  406HK4    C4034027   1.674   3.886   3.641  0.4180  0.0771  0.6384
  406HK4    C5034028   1.578   3.783   3.629  0.0988  0.4162  0.2234
  406HK4    H3034029   1.617   3.685   3.596  0.2470  0.3282  0.6517
  406HK4    C4934030   1.459   3.786   3.700 -0.2441  0.2462 -0.3496
  406HK4    H2934031   1.405   3.690   3.700  0.1144  0.0414  0.7403
  406HK4     N234032   1.775   3.896   3.545 -0.3456 -0.1376 -0.1968
  406HK4    C3034033   1.832   4.009   3.483  0.3278 -0.0667  0.5448
  406HK4    C2934034   1.810   4.145   3.502  0.3425  0.0194 -0.0521
  406HK4    H1534035   1.720   4.182   3.552  2.4563  1.1791  3.0778
  406HK4    C2834036   1.877   4.250   3.441 -0.3299  0.2800 -0.3529
  406HK4    C2734037   1.978   4.212   3.350 -0.0390 -0.2850  0.2016
  406HK4    H1434038   2.056   4.281   3.316  0.0808 -0.9515 -0.9141
  406HK4    C3234039   2.005   4.077   3.329 -0.0116 -0.3154  0.4267
  406HK4    H1634040   2.077   4.042   3.255 -1.3728 -1.6344 -0.2974
  406HK4    C3134041   1.942   3.973   3.395 -0.0841 -0.4309  0.1784
  406HK4    C3434042   1.963   3.830   3.408  0.2896 -0.3759  0.1726
  406HK4    C3334043   1.858   3.791   3.501  0.1387  0.0797  0.1943
  406HK4    C3534044   1.871   3.659   3.542 -0.5194 -0.2211 -0.5617
  406HK4    H1734045   1.838   3.635   3.643  1.8497 -0.1254  0.2610
  406HK4    C3634046   1.971   3.575   3.495  0.2672  0.3794  0.0250
  406HK4    H1834047   1.984   3.479   3.547 -3.7532  1.2868  2.9025
  406HK4    C3734048   2.058   3.613   3.393  0.2135 -0.7300 -0.4457
  406HK4    H1934049   2.142   3.552   3.359 -0.3096 -0.8134 -1.6319
  406HK4    C3834050   2.055   3.745   3.348  0.0408 -0.5631  0.0550
  406HK4    H2034051   2.140   3.776   3.287  0.0377 -1.3590 -0.3521
  406HK4    C1434052   1.855   4.390   3.483  0.5131  0.2386  0.2469
  406HK4     C934053   1.879   4.501   3.401 -0.4214  0.0505 -0.2991
  406HK4     C834054   1.929   4.618   3.461 -0.3309 -0.0227 -0.2304
  406HK4    C1134055   1.948   4.618   3.598 -0.1710 -0.2499 -0.2521
  406HK4     H434056   2.006   4.702   3.640 -0.1778 -0.1394 -0.4640
  406HK4    C1234057   1.913   4.513   3.683  0.6377 -0.4619 -0.1780
  406HK4     H534058   1.947   4.514   3.787  1.3020 -1.2316 -0.3766
  406HK4    C1334059   1.860   4.399   3.624  0.2365 -0.5324  0.3105
  406HK4     H634060   1.819   4.320   3.688  1.2454 -0.4176  1.1137
  406HK4     C734061   1.940   4.746   3.386  0.7729 -0.0178 -0.0669
  406HK4     O234062   1.972   4.850   3.444  0.2533  0.0417  0.1155
  406HK4     C434063   1.899   4.750   3.244  0.3465 -0.1522  0.0521
  406HK4     C334064   1.893   4.872   3.178 -0.2073 -0.2093 -0.0024
  406HK4     H334065   1.899   4.960   3.244  1.0850 -1.6410  1.8368
  406HK4     C234066   1.854   4.882   3.045  0.2212  0.2427 -0.0936
  406HK4     H234067   1.859   4.982   3.000  2.3721  1.5374  2.8267
  406HK4     C134068   1.832   4.763   2.977  0.2287  0.0593  0.2262
  406HK4     H134069   1.799   4.771   2.872  1.3620  1.2410 -0.0492
  406HK4     C634070   1.843   4.636   3.039 -0.2859 -0.1749 -0.1600
  406HK4     C534071   1.869   4.630   3.176  0.5112  0.0086 -0.3040
  406HK4    C1034072   1.831   4.514   3.261 -0.3258  0.2746 -0.3101
  406HK4     O134073   1.717   4.470   3.248 -0.2613  0.0763 -0.2076
  406HK4    C1634074   1.828   4.516   2.956  0.2929 -0.0307 -0.4772
  406HK4    C1534075   1.891   4.394   2.987 -0.2687 -0.2131 -0.0379
  406HK4     H734076   1.972   4.392   3.061  0.1343 -1.4062 -0.4940
  406HK4    C2034077   1.873   4.275   2.916  0.6925  0.0170 -0.6784
  406HK4     H934078   1.894   4.184   2.972 -0.6580  0.6405  0.8877
  406HK4    C1934079   1.790   4.274   2.805  0.0111  0.3490 -0.1761
  406HK4    C1834080   1.714   4.393   2.773  0.1224  0.3877 -0.2938
  406HK4    C1734081   1.735   4.505   2.853 -0.1398  0.3228 -0.1301
  406HK4     H834082   1.689   4.597   2.819  2.4019  1.4575 -0.6431
  406HK4     N134083   1.650   4.390   2.647 -0.2960  0.1285 -0.0766
  406HK4    C2134084   1.684   4.263   2.596  0.0452  0.1810  0.0191
  406HK4    C2234085   1.769   4.191   2.688  0.2387  0.2214 -0.1269
  406HK4    C2634086   1.822   4.070   2.644  0.0485  0.1738 -0.2246
  406HK4    H1334087   1.872   4.002   2.713 -2.2760  0.6923  2.0143
  406HK4    C2534088   1.796   4.024   2.515  0.7949  0.4407 -0.4776
  406HK4    H1234089   1.824   3.919   2.505 -0.4275  0.2950 -2.8685
  406HK4    C2434090   1.721   4.096   2.423 -0.3464 -0.1962 -0.0581
  406HK4    H1134091   1.723   4.063   2.318  2.5436 -2.0923  0.5450
  406HK4    C2334092   1.660   4.212   2.469  0.8573  0.5188 -0.2690
  406HK4    H1034093   1.590   4.264   2.404 -0.5752  0.8081  1.4698
  406HK4    C3934094   1.534   4.459   2.610  0.0035  0.9470  0.4843
  406HK4    C4134095   1.480   4.465   2.480 -0.3258  0.3370  0.5912
  406HK4    H2134096   1.545   4.450   2.393  1.3962  1.4132  1.6679
  406HK4    C4234097   1.349   4.509   2.458 -0.2947  0.0801 -0.1296
  406HK4    H2234098   1.311   4.481   2.359  2.2363 -0.7609 -0.9065
  406HK4    C4334099   1.272   4.556   2.564 -0.1762  0.6968 -0.3131
  406HK4    H2334100   1.169   4.589   2.552 -0.1711  0.4489 -1.0777
  406HK4    C4434101   1.322   4.551   2.694 -0.1548  0.2042 -0.3375
  406HK4    H2434102   1.258   4.577   2.779 -0.9186  0.1793 -0.8937
  406HK4    C4534103   1.454   4.512   2.713 -0.2838  0.2340  0.6255
  406HK4    H2534104   1.472   4.482   2.817 -0.7178  0.7865  0.8596
  407HK4    H2834105   0.012   7.667   1.953  1.9728  3.4086 -1.4784
  407HK4    C4834106  11.176   7.724   1.992 -0.0869 -0.4676  0.0270
  407HK4    C4734107  11.052   7.717   1.930  0.1448  0.2423 -0.5172
  407HK4    H2734108  11.035   7.647   1.848  1.3287 -1.2817  0.5059
  407HK4    C4634109  10.951   7.802   1.976  0.3532  0.6010 -0.7196
  407HK4    H2634110  10.851   7.798   1.930  0.9062 -0.0430 -1.9000
  407HK4    C4034111  10.968   7.892   2.083 -0.1668 -0.1812  0.0167
  407HK4    C5034112  11.094   7.890   2.147 -0.2015 -0.3312  0.0825
  407HK4    H3034113  11.114   7.964   2.226  1.7786  0.2380 -0.9158
  407HK4    C4934114  11.196   7.808   2.101 -0.2249 -0.2543 -0.1117
  407HK4    H2934115   0.044   7.813   2.155 -1.4112 -0.2256  2.0526
  407HK4     N234116  10.877   7.999   2.090 -0.0730 -0.0581 -0.6673
  407HK4    C3034117  10.794   8.053   1.990 -0.3306  0.4837 -0.1605
  407HK4    C2934118  10.793   8.045   1.851  0.4315  0.5144 -0.1680
  407HK4    H1534119  10.876   7.992   1.805 -0.4430 -0.3314 -0.7856
  407HK4    C2834120  10.700   8.100   1.765 -0.0752  0.4081  0.3088
  407HK4    C2734121  10.602   8.182   1.826 -0.4279  0.1027  0.1593
  407HK4    H1434122  10.535   8.228   1.752 -0.1704 -1.8595 -1.3457
  407HK4    C3234123  10.599   8.202   1.963 -0.0561  0.6291  0.0918
  407HK4    H1634124  10.514   8.259   2.001 -0.3603  1.1608 -1.3603
  407HK4    C3134125  10.684   8.130   2.046 -0.3792  0.2340  0.0801
  407HK4    C3434126  10.711   8.136   2.188  0.2453  0.3052 -0.0425
  407HK4    C3334127  10.830   8.055   2.210 -0.0367 -0.2554 -0.5612
  407HK4    C3534128  10.872   8.045   2.342 -0.6792 -0.1720 -0.3481
  407HK4    H1734129  10.947   7.970   2.369  0.9402  2.1495  1.8524
  407HK4    C3634130  10.806   8.109   2.446 -0.1997 -0.6710  0.2703
  407HK4    H1834131  10.861   8.114   2.541  0.1950 -0.8282  0.0502
  407HK4    C3734132  10.691   8.184   2.425  0.4172  0.0144 -0.6826
  407HK4    H1934133  10.646   8.232   2.512  0.3235 -1.4489  0.0943
  407HK4    C3834134  10.648   8.200   2.293 -0.1458  0.5586 -0.4348
  407HK4    H2034135  10.549   8.245   2.283 -0.2615 -0.2231 -3.1805
  407HK4    C1434136  10.736   8.110   1.623 -0.3917  0.0467  0.2031
  407HK4     C934137  10.724   8.220   1.538  0.0382 -0.1425 -0.1108
  407HK4     C834138  10.714   8.196   1.399 -0.6375  0.2279 -0.1298
  407HK4    C1134139  10.733   8.068   1.348  0.1620  0.3036 -0.0319
  407HK4     H434140  10.749   8.053   1.240 -0.3503  0.2786 -0.1068
  407HK4    C1234141  10.745   7.955   1.428  0.3416  0.1068 -0.3355
  407HK4     H534142  10.779   7.858   1.390  1.7293  0.2281  0.5618
  407HK4    C1334143  10.747   7.981   1.565  0.1387  0.3518 -0.3790
  407HK4     H634144  10.767   7.891   1.624  0.8065  0.6828 -0.1020
  407HK4     C734145  10.659   8.300   1.309 -0.4233  0.1842 -0.3115
  407HK4     O234146  10.678   8.303   1.188 -0.0676 -0.4998 -0.2734
  407HK4     C434147  10.615   8.426   1.373 -0.0161  0.0800  0.1798
  407HK4     C334148  10.528   8.507   1.303 -0.1646 -0.1048  0.1514
  407HK4     H334149  10.469   8.465   1.219  0.1451 -0.5050  0.1399
  407HK4     C234150  10.514   8.640   1.341 -0.1944 -0.1733  0.3818
  407HK4     H234151  10.448   8.700   1.277  1.2182  0.1399 -0.8156
  407HK4     C134152  10.598   8.686   1.442  0.3937  0.2796 -0.3076
  407HK4     H134153  10.576   8.789   1.476  0.6949  0.6012 -1.0723
  407HK4     C634154  10.691   8.609   1.514 -0.3937 -0.0919  0.3198
  407HK4     C534155  10.693   8.473   1.481 -0.4081 -0.1514  0.5625
  407HK4    C1034156  10.738   8.364   1.573 -0.2193 -0.2376  0.3734
  407HK4     O134157  10.798   8.391   1.677  0.2983 -0.3618  0.1094
  407HK4    C1634158  10.764   8.673   1.624 -0.1284 -0.2585  0.2429
  407HK4    C1534159  10.703   8.781   1.692 -0.3426  0.0636 -0.4584
  407HK4     H734160  10.595   8.796   1.706 -0.6723 -1.8315 -0.8614
  407HK4    C2034161  10.782   8.865   1.769 -0.1202 -0.7003  0.1514
  407HK4     H934162  10.742   8.946   1.831 -0.3300 -0.8220  0.1770
  407HK4    C1934163  10.921   8.859   1.769 -0.1081 -0.3961 -0.2818
  407HK4    C1834164  10.981   8.763   1.677  0.1832 -0.4266 -0.0604
  407HK4    C1734165  10.902   8.666   1.617 -0.1467  0.0425 -0.3931
  407HK4     H834166  10.953   8.585   1.564  1.1525  0.9831 -0.6127
  407HK4     N134167  11.122   8.768   1.678  0.1668  0.0871  0.1723
  407HK4    C2134168  11.151   8.870   1.772 -0.3358 -0.3661  0.8260
  407HK4    C2234169  11.032   8.925   1.834 -0.5598  0.0993 -0.0097
  407HK4    C2634170  11.046   9.025   1.929 -0.2380  0.1885 -0.1482
  407HK4    H1334171  10.958   9.076   1.968  0.8690  0.9044  1.5138
  407HK4    C2534172  11.174   9.065   1.966 -0.0648 -0.8436  0.3976
  407HK4    H1234173  11.174   9.146   2.038 -1.1522  0.3041 -0.8537
  407HK4    C2434174   0.044   9.006   1.922  0.1180 -0.4414  0.3506
  407HK4    H1134175   0.139   9.061   1.917  0.4347 -1.1487 -2.1300
  407HK4    C2334176   0.025   8.906   1.827 -0.0291 -0.0353 -0.0557
  407HK4    H1034177   0.113   8.873   1.771  1.0638  0.0115  1.6033
  407HK4    C3934178  11.198   8.742   1.564  0.0488  0.1985  0.0690
  407HK4    C4134179   0.086   8.709   1.579  0.1316  0.4872 -0.0588
  407HK4    H2134180   0.112   8.657   1.672 -2.6702  0.6765  0.8738
  407HK4    C4234181   0.177   8.722   1.474 -0.0053  0.1271 -0.2215
  407HK4    H2234182   0.283   8.693   1.487 -0.9602 -3.1918  0.8055
  407HK4    C4334183   0.138   8.781   1.355 -0.1755 -0.0417 -0.2505
  407HK4    H2334184   0.207   8.825   1.283 -2.0004  1.7204 -0.9723
  407HK4    C4434185   0.005   8.819   1.341 -0.0238  0.6547  0.1581
  407HK4    H2434186  11.228   8.880   1.253  2.0247  2.7578  0.9968
  407HK4    C4534187  11.157   8.791   1.438 -0.0064 -0.2000 -0.0669
  407HK4    H2534188  11.049   8.795   1.416 -0.4442  0.5297  2.1421
  408HK4    H2834189   5.966   6.020   9.512  1.9601  1.4640 -0.4575
  408HK4    C4834190   5.905   6.100   9.554 -0.1895 -0.2213 -0.3026
  408HK4    C4734191   5.803   6.087   9.647  0.1154  0.3489  0.1213
  408HK4    H2734192   5.782   5.985   9.685  1.1104 -0.0113 -0.2801
  408HK4    C4634193   5.732   6.191   9.706 -0.5437  0.2860 -0.5472
  408HK4    H2634194   5.641   6.168   9.764  0.9225 -0.8223  1.4012
  408HK4    C4034195   5.771   6.322   9.674  0.0729  0.1623 -0.3167
  408HK4    C5034196   5.871   6.336   9.575  0.0008 -0.5968 -0.5011
  408HK4    H3034197   5.905   6.439   9.560  0.1584 -0.3062  1.6464
  408HK4    C4934198   5.941   6.230   9.519  0.4945 -0.3996 -0.2573
  408HK4    H2934199   6.020   6.258   9.448  2.2618 -0.4707  1.6429
  408HK4     N234200   5.683   6.428   9.697  0.1642  0.2636 -0.4306
  408HK4    C3034201   5.542   6.431   9.696  0.1378 -0.5946  0.3686
  408HK4    C2934202   5.446   6.352   9.633 -0.3273  0.2914 -0.0487
  408HK4    H1534203   5.488   6.286   9.557  0.7140  0.5508  0.2929
  408HK4    C2834204   5.310   6.377   9.624 -0.2939  0.2958 -0.5761
  408HK4    C2734205   5.272   6.504   9.675  0.0169 -0.2400  1.0316
  408HK4    H1434206   5.166   6.532   9.670  0.4026  1.1617  0.6291
  408HK4    C3234207   5.356   6.584   9.750  0.0890  0.2394  0.4425
  408HK4    H1634208   5.329   6.681   9.793 -1.0571  0.2706 -0.3387
  408HK4    C3134209   5.492   6.553   9.756 -0.0484 -0.4524 -0.0723
  408HK4    C3434210   5.609   6.632   9.788 -0.2217 -0.1281 -0.2300
  408HK4    C3334211   5.724   6.550   9.754  0.0062 -0.0194  0.2866
  408HK4    C3534212   5.846   6.617   9.759  0.3538 -0.6503  0.1956
  408HK4    H1734213   5.942   6.578   9.725  1.1272  1.4474 -0.0850
  408HK4    C3634214   5.854   6.751   9.793  0.1845 -0.5113 -0.3197
  408HK4    H1834215   5.950   6.806   9.795  0.9971 -1.9753  2.4112
  408HK4    C3734216   5.745   6.826   9.836  0.4428 -0.1173 -0.3475
  408HK4    H1934217   5.758   6.933   9.851  0.7371 -0.3185  0.8782
  408HK4    C3834218   5.622   6.761   9.837  0.3690  0.0196 -0.7717
  408HK4    H2034219   5.533   6.824   9.843  0.0689 -0.4817 -0.0400
  408HK4    C1434220   5.230   6.293   9.534 -0.6349 -0.3528  0.3248
  408HK4     C934221   5.120   6.342   9.463  0.1917  0.4579 -0.3998
  408HK4     C834222   5.012   6.260   9.427 -0.1523  0.4284  0.6823
  408HK4    C1134223   5.020   6.123   9.450 -0.1813  0.3877  0.4574
  408HK4     H434224   4.939   6.057   9.414  0.2275  0.7368 -1.1212
  408HK4    C1234225   5.134   6.068   9.506 -0.0999  0.0636 -0.0303
  408HK4     H534226   5.134   5.961   9.530 -0.6758  0.5805  2.3598
  408HK4    C1334227   5.238   6.153   9.545  0.1688 -0.3280  0.1161
  408HK4     H634228   5.324   6.119   9.605  0.7842  0.6339 -0.2266
  408HK4     C734229   4.882   6.312   9.378  0.2265  0.0777 -0.7179
  408HK4     O234230   4.795   6.241   9.327 -0.5008  0.6586 -0.2983
  408HK4     C434231   4.864   6.459   9.384  0.0129  0.0033  0.4626
  408HK4     C334232   4.736   6.510   9.367  0.1903  0.2931 -0.0240
  408HK4     H334233   4.653   6.439   9.351  0.0032  0.8762 -1.6590
  408HK4     C234234   4.717   6.647   9.360  0.0439  0.2445 -0.5774
  408HK4     H234235   4.629   6.684   9.305 -1.3612  1.2375  2.1828
  408HK4     C134236   4.823   6.734   9.384 -0.1428  0.4009 -0.2923
  408HK4     H134237   4.819   6.843   9.371  0.5942  0.3186 -1.2956
  408HK4     C634238   4.952   6.686   9.415 -0.1776  0.5316  0.0576
  408HK4     C534239   4.971   6.547   9.404 -0.3114  0.5253 -0.1008
  408HK4    C1034240   5.105   6.486   9.428 -0.3402  0.5046  0.0157
  408HK4     O134241   5.197   6.525   9.356 -0.0922  0.1486  0.1435
  408HK4    C1634242   5.033   6.776   9.498 -0.0009  1.0673 -0.6903
  408HK4    C1534243   4.972   6.862   9.591 -0.4245  0.0225  0.0143
  408HK4     H734244   4.867   6.847   9.622 -0.7849 -0.3133 -1.3179
  408HK4    C2034245   5.042   6.963   9.655  0.3335 -0.6323  0.2169
  408HK4     H934246   4.993   7.050   9.698  1.5074  1.6062 -2.8024
  408HK4    C1934247   5.176   6.983   9.621  0.1915 -0.3976 -0.2096
  408HK4    C1834248   5.242   6.897   9.525  0.3156 -0.1244 -0.3666
  408HK4    C1734249   5.166   6.797   9.466  0.1538  0.1763 -0.6692
  408HK4     H834250   5.193   6.762   9.366 -1.5260  2.8785 -2.1135
  408HK4     N134251   5.370   6.942   9.488  0.3097  0.0123 -0.2213
  408HK4    C2134252   5.389   7.064   9.557 -0.0151 -0.0776  0.0319
  408HK4    C2234253   5.269   7.094   9.631  0.2073 -0.4803  0.5520
  408HK4    C2634254   5.276   7.200   9.721  0.0477 -0.4402  0.5185
  408HK4    H1334255   5.190   7.221   9.784 -0.0604  0.6873 -0.0018
  408HK4    C2534256   5.388   7.279   9.745  0.1344 -0.3280 -0.2459
  408HK4    H1234257   5.398   7.334   9.839 -2.1029  0.1252 -0.2564
  408HK4    C2434258   5.499   7.250   9.666  0.3930 -0.6365  0.2288
  408HK4    H1134259   5.587   7.314   9.681 -0.6385  0.6781  0.7653
  408HK4    C2334260   5.500   7.147   9.572 -0.1112  0.1905 -0.6891
  408HK4    H1034261   5.592   7.144   9.515 -0.4649 -1.5701 -1.1952
  408HK4    C3934262   5.475   6.871   9.428 -0.5013 -0.7997 -0.6917
  408HK4    C4134263   5.566   6.938   9.343  0.1258  0.1676  0.7099
  408HK4    H2134264   5.538   7.033   9.295 -0.1521 -0.7037 -0.8888
  408HK4    C4234265   5.690   6.878   9.319 -0.0969 -0.1811  0.4309
  408HK4    H2234266   5.754   6.927   9.244 -1.3504 -0.9108 -1.1709
  408HK4    C4334267   5.738   6.758   9.368  0.3136 -0.2448 -0.1290
  408HK4    H2334268   5.843   6.727   9.371 -0.1714 -1.9563 -0.4460
  408HK4    C4434269   5.640   6.692   9.441  0.4929  0.1329  0.4483
  408HK4    H2434270   5.660   6.586   9.464 -1.3032 -0.2878  0.1721
  408HK4    C4534271   5.514   6.742   9.470  0.0004 -0.5788 -0.4645
  408HK4    H2534272   5.442   6.673   9.517 -1.3432  0.2210 -1.2999
  409HK4    H2834273   4.282   4.850   5.152 -2.3730  1.1677 -2.8855
  409HK4    C4834274   4.233   4.753   5.155  0.1429 -0.0812  0.6060
  409HK4    C4734275   4.240   4.648   5.064  0.0725 -0.0149  0.5263
  409HK4    H2734276   4.309   4.643   4.979 -0.5728  1.4306 -0.1112
  409HK4    C4634277   4.162   4.535   5.084 -0.2113  0.0868  0.0198
  409HK4    H2634278   4.158   4.460   5.003 -1.4558  1.3108 -1.0641
  409HK4    C4034279   4.076   4.515   5.194 -0.1607  0.0103  0.0446
  409HK4    C5034280   4.071   4.623   5.284 -0.0658  0.0227  0.0337
  409HK4    H3034281   3.985   4.628   5.352 -0.6605 -0.5418 -0.6719
  409HK4    C4934282   4.148   4.737   5.264 -0.3530  0.2588  0.2691
  409HK4    H2934283   4.143   4.822   5.334  0.7446  0.2967  0.3003
  409HK4     N234284   3.977   4.416   5.204 -0.0894 -0.0584  0.0706
  409HK4    C3034285   3.917   4.341   5.100  0.2828 -0.1695 -0.0661
  409HK4    C2934286   3.912   4.363   4.963  0.4924 -0.0516 -0.0563
  409HK4    H1534287   3.916   4.462   4.917 -3.2730 -0.5967 -1.7476
  409HK4    C2834288   3.866   4.261   4.880  0.5934  0.0668 -0.2582
  409HK4    C2734289   3.821   4.140   4.936  0.3737  0.2742  0.0165
  409HK4    H1434290   3.811   4.056   4.865  0.3800  1.6507 -1.6274
  409HK4    C3234291   3.816   4.114   5.073 -0.1367 -0.0578 -0.0640
  409HK4    H1634292   3.762   4.025   5.106  1.0139 -1.3015 -1.4633
  409HK4    C3134293   3.867   4.215   5.152 -0.4325  0.1074 -0.0850
  409HK4    C3434294   3.892   4.220   5.295  0.6521 -0.4793 -0.2477
  409HK4    C3334295   3.965   4.342   5.323 -0.2935  0.0135  0.0939
  409HK4    C3534296   3.988   4.371   5.457  0.6938  0.2417 -0.1267
  409HK4    H1734297   4.056   4.452   5.483  1.4011 -1.3717  3.2708
  409HK4    C3634298   3.944   4.291   5.561  0.0428 -0.0985 -0.6603
  409HK4    H1834299   3.978   4.305   5.665 -0.8343  0.2683 -0.4159
  409HK4    C3734300   3.871   4.175   5.537 -0.3762  0.0912 -0.3044
  409HK4    H1934301   3.836   4.111   5.619  0.8506  1.7482  1.5741
  409HK4    C3834302   3.845   4.146   5.404 -0.4396  0.1301 -0.3004
  409HK4    H2034303   3.777   4.064   5.381 -1.1759  0.4096  0.8553
  409HK4    C1434304   3.866   4.281   4.735  0.2067  0.2505 -0.2333
  409HK4     C934305   3.781   4.217   4.643  0.0614  0.0476  0.0449
  409HK4     C834306   3.828   4.210   4.511  0.2657  0.1155  0.1119
  409HK4    C1134307   3.952   4.260   4.473  0.0670  0.1928 -0.4438
  409HK4     H434308   3.981   4.263   4.367 -0.6187  2.4204 -0.5843
  409HK4    C1234309   4.034   4.328   4.562  0.2255  0.1006 -0.5193
  409HK4     H534310   4.107   4.405   4.533  0.0824  0.1030 -0.8804
  409HK4    C1334311   3.989   4.335   4.694  0.3976 -0.3300 -0.4377
  409HK4     H634312   4.060   4.374   4.768 -1.1373 -2.7987  2.4000
  409HK4     C734313   3.743   4.156   4.402  0.4194  0.0792  0.0098
  409HK4     O234314   3.797   4.112   4.300  0.0773 -0.3589  0.0184
  409HK4     C434315   3.599   4.131   4.426  0.4500  0.0629  0.1791
  409HK4     C334316   3.509   4.118   4.321  0.1209 -0.2010  0.4919
  409HK4     H334317   3.545   4.123   4.217  0.9687 -3.5196  0.5673
  409HK4     C234318   3.377   4.083   4.345 -0.1064  0.4567  0.2245
  409HK4     H234319   3.299   4.092   4.268 -0.8549  0.9111  1.0255
  409HK4     C134320   3.349   4.046   4.476 -0.2960 -0.1427  0.0169
  409HK4     H134321   3.246   4.026   4.509  0.3278 -0.5371  1.7550
  409HK4     C634322   3.443   4.032   4.580  0.0281  0.2350 -0.2252
  409HK4     C534323   3.562   4.102   4.559 -0.3515  1.0095  0.1683
  409HK4    C1034324   3.642   4.169   4.666  0.3478 -0.5299  0.6237
  409HK4     O134325   3.583   4.216   4.763  0.1382  0.2582  0.1303
  409HK4    C1634326   3.435   3.906   4.655  0.1106  0.3358 -0.0459
  409HK4    C1534327   3.375   3.795   4.592  0.4124 -0.0789  0.3944
  409HK4     H734328   3.358   3.796   4.483 -0.1217 -0.4976  0.4726
  409HK4    C2034329   3.361   3.675   4.661  0.0653 -0.0950  0.2956
  409HK4     H934330   3.337   3.586   4.604 -1.6706  0.4026  0.1927
  409HK4    C1934331   3.389   3.665   4.797  0.5867  0.0417  0.1970
  409HK4    C1834332   3.454   3.779   4.861  1.1457 -0.0218 -0.2534
  409HK4    C1734333   3.478   3.894   4.786  0.5342  0.1414 -0.2012
  409HK4     H834334   3.541   3.975   4.822  1.4901  0.1913 -1.9774
  409HK4     N134335   3.506   3.752   4.989 -0.0980 -0.0414  0.2558
  409HK4    C2134336   3.480   3.614   5.004  0.3150 -0.1765 -0.2711
  409HK4    C2234337   3.396   3.562   4.898 -0.6730  0.1108  0.3641
  409HK4    C2634338   3.342   3.434   4.905 -0.4760  0.0420  0.6454
  409HK4    H1334339   3.294   3.391   4.817 -1.3676  0.4758  0.9092
  409HK4    C2534340   3.375   3.355   5.015  0.1216 -0.7844 -0.1245
  409HK4    H1234341   3.366   3.247   4.998 -0.2542 -0.9514  1.0872
  409HK4    C2434342   3.450   3.401   5.122 -0.5656  0.4833 -0.1767
  409HK4    H1134343   3.470   3.329   5.202  1.8254  0.5382 -0.6696
  409HK4    C2334344   3.496   3.532   5.115  0.2078  0.2270  0.0435
  409HK4    H1034345   3.564   3.565   5.194 -1.4612  1.0952  1.1541
  409HK4    C3934346   3.525   3.856   5.082  0.3244  0.0760  0.0385
  409HK4    C4134347   3.617   3.834   5.186 -0.2334  0.2981  0.5843
  409HK4    H2134348   3.711   3.780   5.165 -0.3704  0.7801 -1.4185
  409HK4    C4234349   3.602   3.888   5.313 -0.0464  0.3672  0.5751
  409HK4    H2234350   3.685   3.880   5.385  0.5225 -0.5973 -0.1753
  409HK4    C4334351   3.498   3.975   5.340 -0.4784  0.1288 -0.3035
  409HK4    H2334352   3.515   4.040   5.426  0.3156 -1.0685  0.4396
  409HK4    C4434353   3.403   3.999   5.241 -0.5776  0.4831 -0.1245
  409HK4    H2434354   3.310   4.055   5.259  0.2950  2.1065 -0.6539
  409HK4    C4534355   3.419   3.942   5.115  0.3206  0.0104  0.1951
  409HK4    H2534356   3.362   3.984   5.030  1.2602  2.2395  0.6369
  410HK4    H2834357   0.997   3.880   3.166  1.1520 -1.1276  3.5493
  410HK4    C4834358   0.905   3.821   3.161  0.6979 -0.2318  0.1907
  410HK4    C4734359   0.883   3.741   3.050 -0.3644  0.1201  0.1486
  410HK4    H2734360   0.961   3.740   2.973  0.7202  1.3461  1.2128
  410HK4    C4634361   0.754   3.690   3.034 -0.1881 -0.2663 -0.0567
  410HK4    H2634362   0.739   3.618   2.953 -1.6575 -0.2929  0.2252
  410HK4    C4034363   0.651   3.715   3.127 -0.3259 -0.0480 -0.2675
  410HK4    C5034364   0.680   3.789   3.243  0.7834 -0.7764 -0.0780
  410HK4    H3034365   0.615   3.797   3.331  2.4044  0.1218  1.0598
  410HK4    C4934366   0.807   3.844   3.257  0.5139 -0.1691 -0.0125
  410HK4    H2934367   0.816   3.925   3.330 -2.2885  0.6527 -0.5143
  410HK4     N234368   0.531   3.642   3.118 -0.4328  0.1533 -0.4967
  410HK4    C3034369   0.407   3.695   3.157 -0.4728  0.0770 -0.5203
  410HK4    C2934370   0.370   3.826   3.186 -0.2480 -0.0538  0.3674
  410HK4    H1534371   0.454   3.889   3.214 -0.8279  1.9049 -2.1598
  410HK4    C2834372   0.237   3.861   3.208 -0.3353  0.0117 -0.2592
  410HK4    C2734373   0.139   3.760   3.211  0.2187 -0.4948  0.7537
  410HK4    H1434374   0.032   3.782   3.222 -0.1359 -1.8376  0.1429
  410HK4    C3234375   0.171   3.625   3.199 -0.2978 -0.5390 -0.1614
  410HK4    H1634376   0.097   3.545   3.198  1.4239 -2.1704 -0.9990
  410HK4    C3134377   0.305   3.594   3.175 -0.3102 -0.1309 -0.7658
  410HK4    C3434378   0.375   3.469   3.152  0.0366  0.0275 -0.5606
  410HK4    C3334379   0.514   3.502   3.123  0.2611  0.0935  0.5407
  410HK4    C3534380   0.606   3.398   3.121 -0.1181 -0.2427  0.2942
  410HK4    H1734381   0.713   3.422   3.125  0.0741 -0.5727 -1.9411
  410HK4    C3634382   0.571   3.267   3.149  0.0538 -0.3573 -0.0241
  410HK4    H1834383   0.643   3.187   3.128 -0.5459 -0.9388  0.0883
  410HK4    C3734384   0.435   3.240   3.166 -0.0961  0.2802 -0.1851
  410HK4    H1934385   0.400   3.137   3.159  1.0997 -0.3501  2.5540
  410HK4    C3834386   0.336   3.337   3.164 -0.2689  0.0974 -0.7875
  410HK4    H2034387   0.229   3.318   3.152 -0.8764  1.5859  1.8470
  410HK4    C1434388   0.206   3.991   3.270  0.4204  0.0800 -0.0205
  410HK4     C934389   0.093   4.014   3.349 -0.2371 -0.4160 -0.8084
  410HK4     C834390   0.032   4.141   3.350  0.2912 -0.1660 -0.3037
  410HK4    C1134391   0.092   4.243   3.278  0.1451 -0.0578 -0.2724
  410HK4     H434392   0.064   4.345   3.311  0.0265  0.7933 -2.8682
  410HK4    C1234393   0.205   4.220   3.200  0.1569  0.3335 -0.3742
  410HK4     H534394   0.255   4.309   3.158  1.1922  0.3485  0.8472
  410HK4    C1334395   0.270   4.097   3.203 -0.0659  0.2169 -0.2726
  410HK4     H634396   0.351   4.086   3.129 -0.0015 -0.0978 -0.1554
  410HK4     C734397  11.147   4.155   3.414  0.4248  0.0903 -0.0821
  410HK4     O234398  11.111   4.265   3.458  0.4090  0.2838 -0.5838
  410HK4     C434399  11.081   4.033   3.464 -0.2034  0.3889 -0.1866
  410HK4     C334400  10.948   4.042   3.505 -0.3285 -0.8684 -0.2870
  410HK4     H334401  10.897   4.138   3.488  0.6035 -0.5912 -1.6061
  410HK4     C234402  10.871   3.936   3.551 -0.4025 -0.7136 -0.0625
  410HK4     H234403  10.767   3.953   3.585 -0.5781  0.6256 -1.2306
  410HK4     C134404  10.930   3.810   3.551  0.0296 -0.5111  0.0552
  410HK4     H134405  10.866   3.723   3.572  2.0397 -1.6257  1.8435
  410HK4     C634406  11.067   3.799   3.518  0.0055 -0.0526 -0.1936
  410HK4     C534407  11.146   3.910   3.483 -0.4776  0.1949 -0.5152
  410HK4    C1034408   0.040   3.908   3.440 -0.3190  0.2979 -0.0114
  410HK4     O134409   0.124   3.855   3.514 -0.1831  0.3933 -0.0967
  410HK4    C1634410  11.099   3.665   3.468 -0.5430 -0.3782  0.3278
  410HK4    C1534411  11.020   3.597   3.372 -0.2079 -0.2639 -0.0288
  410HK4     H734412  10.957   3.658   3.307  2.2570  0.7560 -1.5459
  410HK4    C2034413  11.047   3.465   3.341  0.7971  0.1359 -0.8815
  410HK4     H934414  10.972   3.407   3.286  0.4376 -0.5844  0.3495
  410HK4    C1934415  11.151   3.396   3.401 -0.0061 -0.0614  0.2970
  410HK4    C1834416  11.225   3.454   3.512 -0.0346  0.0695  0.2472
  410HK4    C1734417  11.193   3.588   3.534  0.0837  0.1318  0.0382
  410HK4     H834418  11.247   3.630   3.619 -1.1979 -0.0516  0.9427
  410HK4     N134419   0.082   3.372   3.556 -0.5523 -0.7200  0.0215
  410HK4    C2134420   0.090   3.266   3.463  0.1372 -0.2180 -0.4962
  410HK4    C2234421  11.229   3.278   3.368  0.1987  0.2982 -0.5030
  410HK4    C2634422  11.233   3.191   3.259  0.0554 -0.0501 -0.2308
  410HK4    H1334423  11.155   3.210   3.186  0.1252 -3.2332 -1.2020
  410HK4    C2534424   0.089   3.102   3.237  0.4356  0.4702 -0.5496
  410HK4    H1234425   0.092   3.058   3.137  0.6066 -1.2835  0.2140
  410HK4    C2434426   0.184   3.081   3.337  0.1766 -0.0417 -0.4112
  410HK4    H1134427   0.268   3.012   3.321 -0.4694 -0.6034 -1.5164
  410HK4    C2334428   0.183   3.164   3.448  0.0811 -0.3115 -0.2091
  410HK4    H1034429   0.259   3.153   3.526  0.3206  1.8973 -0.1052
  410HK4    C3934430   0.129   3.360   3.688  0.0524 -0.0693 -0.1325
  410HK4    C4134431   0.043   3.397   3.793 -0.2081 -1.0246 -0.0088
  410HK4    H2134432  11.197   3.445   3.763  2.1000  0.9074 -4.4848
  410HK4    C4234433   0.067   3.357   3.925  0.0879  0.1975  0.3129
  410HK4    H2234434  11.238   3.372   4.002  0.0389  1.8694 -0.0311
  410HK4    C4334435   0.182   3.283   3.950 -0.3265 -0.6825 -0.3478
  410HK4    H2334436   0.200   3.255   4.053  0.5976  1.1648  0.0104
  410HK4    C4434437   0.276   3.254   3.852 -0.3314 -0.6561 -0.3600
  410HK4    H2434438   0.356   3.177   3.858  0.0815 -0.1507  0.7790
  410HK4    C4534439   0.252   3.302   3.724  0.1523  0.1223 -0.1633
  410HK4    H2534440   0.330   3.296   3.646  0.9304  2.2385  0.4318
  411HK4    H2834441   2.763   7.651   0.854 -0.3476  0.4501  1.5075
  411HK4    C4834442   2.716   7.572   0.913 -0.7507 -0.5123 -0.0561
  411HK4    C4734443   2.605   7.600   0.992  0.2096  0.5102  0.9460
  411HK4    H2734444   2.559   7.698   0.975 -1.7277 -0.6684 -0.7998
  411HK4    C4634445   2.555   7.503   1.078 -0.1087 -0.0599  0.1259
  411HK4    H2634446   2.501   7.534   1.169  0.8140 -0.2685  0.7544
  411HK4    C4034447   2.607   7.372   1.082  0.0546  0.0025 -0.0091
  411HK4    C5034448   2.706   7.345   0.985  0.4563  0.2046  0.3436
  411HK4    H3034449   2.736   7.242   0.960 -1.6148  0.0197 -1.5584
  411HK4    C4934450   2.765   7.443   0.905  0.2057 -0.1368 -0.2600
  411HK4    H2934451   2.849   7.413   0.840 -0.2133 -1.1535 -0.3462
  411HK4     N234452   2.566   7.265   1.163  0.2726 -0.0224  0.0693
  411HK4    C3034453   2.640   7.157   1.214  0.3830 -0.1261 -0.3154
  411HK4    C2934454   2.778   7.146   1.232  0.2458 -0.3267  0.6095
  411HK4    H1534455   2.848   7.189   1.161 -0.4090  0.2007  0.2722
  411HK4    C2834456   2.826   7.051   1.321 -0.0415 -0.4824  0.6014
  411HK4    C2734457   2.740   6.963   1.390  0.3142 -1.2668  0.0638
  411HK4    H1434458   2.778   6.895   1.468 -2.3364 -1.7185  1.0070
  411HK4    C3234459   2.602   6.974   1.375  0.4844 -0.2636 -0.8280
  411HK4    H1634460   2.534   6.906   1.426  2.4964 -1.6339  0.0907
  411HK4    C3134461   2.552   7.077   1.296  0.3072  0.3233  0.0420
  411HK4    C3434462   2.418   7.132   1.286  0.4493  0.7226  0.3349
  411HK4    C3334463   2.432   7.250   1.203  0.0501  0.0871 -0.6384
  411HK4    C3534464   2.324   7.338   1.198  0.6562  0.8521 -0.2491
  411HK4    H1734465   2.316   7.405   1.113  2.1357  1.9706  0.4637
  411HK4    C3634466   2.212   7.305   1.274  0.8512  0.4699 -0.1246
  411HK4    H1834467   2.124   7.370   1.271 -1.7497 -2.8747  0.4282
  411HK4    C3734468   2.195   7.191   1.352  0.6507  0.6239  0.0581
  411HK4    H1934469   2.105   7.177   1.412  2.1834 -2.0099  1.8277
  411HK4    C3834470   2.301   7.102   1.355 -0.0022 -0.1861 -0.8142
  411HK4    H2034471   2.292   7.014   1.419 -0.9079  0.3614 -0.1924
  411HK4    C1434472   2.971   7.030   1.335  0.0799 -0.0693  0.0095
  411HK4     C934473   3.025   6.912   1.387 -0.3142 -0.1502  0.2381
  411HK4     C834474   3.133   6.921   1.477 -0.0860  0.0667 -0.0575
  411HK4    C1134475   3.198   7.043   1.493  0.2351 -0.0876 -0.1812
  411HK4     H434476   3.292   7.047   1.550  0.0325  1.5523  0.0581
  411HK4    C1234477   3.159   7.161   1.431  0.0878  0.2293  0.5086
  411HK4     H534478   3.218   7.253   1.446  1.1960 -0.5135  0.7936
  411HK4    C1334479   3.048   7.148   1.349  0.1315 -0.1605  0.5125
  411HK4     H634480   3.018   7.247   1.313 -0.0201 -0.5993 -0.5826
  411HK4     C734481   3.180   6.807   1.559  0.0352  0.1351 -0.0330
  411HK4     O234482   3.277   6.818   1.634 -0.1649 -0.5931  0.3295
  411HK4     C434483   3.111   6.678   1.538 -0.1392  0.2266 -0.0291
  411HK4     C334484   3.149   6.571   1.616 -0.6394  0.4399  0.5097
  411HK4     H334485   3.244   6.572   1.673  1.1560 -1.5880 -2.2932
  411HK4     C234486   3.086   6.447   1.616 -0.3527  0.2948  0.0313
  411HK4     H234487   3.125   6.360   1.671 -1.9463 -0.1080  0.5580
  411HK4     C134488   2.970   6.443   1.540 -0.0332  0.3304 -0.4611
  411HK4     H134489   2.916   6.348   1.530  0.1218  0.4608 -2.8226
  411HK4     C634490   2.930   6.546   1.452 -0.5043  0.4951 -0.0483
  411HK4     C534491   3.009   6.660   1.441  0.6465 -0.3646 -0.7533
  411HK4    C1034492   2.980   6.775   1.350 -0.8315  0.0285  0.2024
  411HK4     O134493   2.968   6.752   1.230 -0.3530  0.3430  0.0940
  411HK4    C1634494   2.787   6.546   1.418 -0.5006  1.0789 -0.0740
  411HK4    C1534495   2.697   6.484   1.508  0.1832  0.4765  0.1985
  411HK4     H734496   2.721   6.480   1.615 -1.2630  0.5710  0.5293
  411HK4    C2034497   2.574   6.434   1.468  0.2663  0.5057 -0.0973
  411HK4     H934498   2.515   6.382   1.544 -2.7274  1.0849 -1.9364
  411HK4    C1934499   2.535   6.445   1.335 -0.2511  0.2369  0.0301
  411HK4    C1834500   2.621   6.512   1.239  0.3639 -0.8991 -0.2247
  411HK4    C1734501   2.746   6.550   1.285  0.1961 -0.2011 -0.3324
  411HK4     H834502   2.831   6.546   1.218 -0.2572 -0.4411 -0.8937
  411HK4     N134503   2.564   6.531   1.111  0.3492 -0.0180 -0.0903
  411HK4    C2134504   2.444   6.458   1.124  0.4033 -0.0740  0.1027
  411HK4    C2234505   2.417   6.410   1.258 -0.1807  0.0203  0.0206
  411HK4    C2634506   2.322   6.309   1.269  0.4291 -0.5477  0.1630
  411HK4    H1334507   2.297   6.277   1.371 -0.2291 -0.3868  0.0580
  411HK4    C2534508   2.243   6.259   1.166  0.3304  0.0339 -0.0439
  411HK4    H1234509   2.183   6.169   1.180  0.4582 -0.0622 -0.1155
  411HK4    C2434510   2.262   6.314   1.040  0.5928 -0.4866 -0.2287
  411HK4    H1134511   2.207   6.289   0.947 -0.6151 -1.6973  0.7800
  411HK4    C2334512   2.361   6.409   1.024 -0.1602  0.3985  0.3337
  411HK4    H1034513   2.374   6.453   0.925 -2.2916  1.5950  0.5671
  411HK4    C3934514   2.593   6.640   1.028 -0.0682 -0.2003 -0.4748
  411HK4    C4134515   2.563   6.625   0.891  0.4228 -0.1207 -0.5903
  411HK4    H2134516   2.588   6.538   0.829  0.1727  0.3986 -1.4205
  411HK4    C4234517   2.538   6.735   0.810 -0.0703  0.1622 -0.0579
  411HK4    H2234518   2.513   6.720   0.704 -0.5156  2.0866 -0.2288
  411HK4    C4334519   2.559   6.863   0.859 -0.3778  0.0635  0.3350
  411HK4    H2334520   2.545   6.949   0.793 -0.5267 -1.6906 -1.9832
  411HK4    C4434521   2.593   6.877   0.993  0.2081 -0.1535  0.2097
  411HK4    H2434522   2.612   6.981   1.025  3.4300 -0.8168  0.6442
  411HK4    C4534523   2.607   6.770   1.080 -0.4497 -0.3679  0.0520
  411HK4    H2534524   2.603   6.778   1.190 -1.6065  0.4547 -0.0371
  412HK4    H2834525   1.434   1.284   4.818  0.5879 -1.6442  0.1318
  412HK4    C4834526   1.533   1.316   4.789 -0.1105  0.1927 -0.2603
  412HK4    C4734527   1.565   1.352   4.658 -0.8055  0.4607 -0.3596
  412HK4    H2734528   1.484   1.334   4.586 -1.8326  0.5986  0.7502
  412HK4    C4634529   1.683   1.418   4.626 -0.2662 -0.2802  0.0971
  412HK4    H2634530   1.706   1.433   4.519  1.7761 -0.4430  0.4919
  412HK4    C4034531   1.778   1.439   4.728 -0.2396 -0.1009  0.0362
  412HK4    C5034532   1.741   1.405   4.860 -0.4476 -0.1827 -0.0432
  412HK4    H3034533   1.808   1.426   4.945  0.6580 -1.4844 -0.5695
  412HK4    C4934534   1.621   1.343   4.893 -0.7103  0.4416  0.1857
  412HK4    H2934535   1.604   1.321   4.999 -0.7308 -0.5328 -0.0183
  412HK4     N234536   1.907   1.484   4.696 -0.1489 -0.0016  0.5338
  412HK4    C3034537   1.976   1.455   4.576 -0.3823  0.0397  0.3889
  412HK4    C2934538   1.964   1.340   4.500  0.6451 -0.2719  0.6888
  412HK4    H1534539   1.882   1.270   4.520 -1.1179  1.2566 -0.9801
  412HK4    C2834540   2.051   1.316   4.394  0.2884 -0.2885  0.3968
  412HK4    C2734541   2.141   1.419   4.361  0.3666 -0.3629  0.3800
  412HK4    H1434542   2.196   1.406   4.266  0.4512 -2.0968  0.6388
  412HK4    C3234543   2.160   1.532   4.439 -0.4431  0.2595 -0.3141
  412HK4    H1634544   2.216   1.621   4.409  0.5103 -0.6038 -1.1314
  412HK4    C3134545   2.089   1.545   4.557 -0.1673 -0.3303 -0.0845
  412HK4    C3434546   2.098   1.623   4.679  0.0225  0.3001 -0.5002
  412HK4    C3334547   1.977   1.591   4.754  0.1806  0.2233 -0.2792
  412HK4    C3534548   1.938   1.675   4.857  0.5180  0.2662 -0.1839
  412HK4    H1734549   1.854   1.635   4.914 -0.4466  0.4531 -1.4714
  412HK4    C3634550   2.012   1.787   4.893  0.0630  0.3968  0.3508
  412HK4    H1834551   1.982   1.839   4.986  1.4412 -0.2049  1.1463
  412HK4    C3734552   2.126   1.818   4.821 -0.2407  0.3365 -0.1562
  412HK4    H1934553   2.194   1.897   4.853  0.5137 -0.2470 -0.2966
  412HK4    C3834554   2.168   1.737   4.716  0.0661  0.0521  0.1870
  412HK4    H2034555   2.247   1.776   4.652 -0.3918 -1.5001 -1.3671
  412HK4    C1434556   2.065   1.182   4.334 -0.3035 -0.2631  0.1984
  412HK4     C934557   2.174   1.137   4.260  0.0613 -0.0803  0.6213
  412HK4     C834558   2.159   1.043   4.155  0.6685 -0.3789  0.7984
  412HK4    C1134559   2.038   0.976   4.150  0.2071  0.4674  0.5750
  412HK4     H434560   2.003   0.919   4.063  2.8185  0.3883 -0.4536
  412HK4    C1234561   1.930   1.002   4.234 -0.2835 -0.7697  0.3268
  412HK4     H534562   1.844   0.932   4.229 -1.3362  0.4936  0.5599
  412HK4    C1334563   1.944   1.111   4.318 -0.3212 -0.0656 -0.5645
  412HK4     H634564   1.861   1.138   4.385  0.4370  1.9141 -0.4079
  412HK4     C734565   2.272   1.006   4.067 -0.0531  0.3497 -0.4504
  412HK4     O234566   2.245   0.942   3.966 -0.4374  0.4595 -0.4155
  412HK4     C434567   2.410   1.051   4.097  0.0304 -0.0886 -0.1724
  412HK4     C334568   2.509   1.005   4.011  0.5231 -0.0281  0.3590
  412HK4     H334569   2.485   0.947   3.921  0.7041 -0.9123  0.8714
  412HK4     C234570   2.637   1.061   4.014  0.6117 -0.1820 -0.3835
  412HK4     H234571   2.726   1.018   3.967  1.1894 -1.8282  2.0997
  412HK4     C134572   2.652   1.162   4.108  0.3352 -0.5926  0.1097
  412HK4     H134573   2.749   1.214   4.109 -0.1350  0.3025  0.5553
  412HK4     C634574   2.553   1.210   4.196  0.1237  0.2109 -0.5572
  412HK4     C534575   2.429   1.145   4.201  0.2867 -0.0802 -0.2280
  412HK4    C1034576   2.315   1.172   4.293  0.2318  0.1805 -0.3732
  412HK4     O134577   2.348   1.159   4.410  0.2620 -0.1871 -0.4222
  412HK4    C1634578   2.602   1.316   4.285 -0.0949  0.1226 -0.3319
  412HK4    C1534579   2.513   1.408   4.345  0.0300 -0.2268  0.3986
  412HK4     H734580   2.423   1.426   4.284  0.5318 -0.9623 -0.5761
  412HK4    C2034581   2.540   1.479   4.461 -0.2860  0.0626  0.2951
  412HK4     H934582   2.469   1.550   4.503 -1.9788 -1.9916  0.9567
  412HK4    C1934583   2.667   1.470   4.518 -0.2937  0.5004  0.3856
  412HK4    C1834584   2.769   1.395   4.449 -0.5615  0.3371  0.1635
  412HK4    C1734585   2.731   1.323   4.337 -0.1785  0.6746 -0.1841
  412HK4     H834586   2.808   1.279   4.272 -2.1037 -0.6344 -1.6404
  412HK4     N134587   2.902   1.420   4.491 -0.3573 -0.4043 -0.0233
  412HK4    C2134588   2.880   1.519   4.590  0.1472 -0.4563  0.1417
  412HK4    C2234589   2.741   1.557   4.607  0.3091  0.0505  0.3236
  412HK4    C2634590   2.703   1.652   4.701 -0.3256  0.3043 -0.1863
  412HK4    H1334591   2.595   1.664   4.715 -0.3161 -1.0751  1.2982
  412HK4    C2534592   2.803   1.708   4.779  0.0380 -0.3209 -0.1982
  412HK4    H1234593   2.770   1.776   4.857 -0.5421  0.5078 -1.1467
  412HK4    C2434594   2.936   1.668   4.771  0.1142 -0.0922 -0.0879
  412HK4    H1134595   3.017   1.725   4.819 -2.1868  3.0452  0.2735
  412HK4    C2334596   2.973   1.570   4.680  0.2579  0.1833 -0.3301
  412HK4    H1034597   3.075   1.532   4.683  0.1713  0.0506  0.9089
  412HK4    C3934598   3.018   1.347   4.465  0.1016  0.2560  0.1373
  412HK4    C4134599   3.145   1.407   4.463  0.2155 -0.0127 -0.9313
  412HK4    H2134600   3.158   1.516   4.464  1.7172 -0.0971  4.1094
  412HK4    C4234601   3.259   1.333   4.430  0.2973 -0.1438 -0.3566
  412HK4    H2234602   3.354   1.380   4.461 -0.8394  1.4655  0.8205
  412HK4    C4334603   3.249   1.201   4.388 -0.1967 -0.1012 -0.3816
  412HK4    H2334604   3.338   1.138   4.381  0.1627  0.2643  0.6842
  412HK4    C4434605   3.122   1.145   4.385  0.0670 -0.7357  0.0691
  412HK4    H2434606   3.109   1.043   4.346 -2.0452 -1.0882  1.5902
  412HK4    C4534607   3.007   1.211   4.426  0.6157  0.2392  0.0502
  412HK4    H2534608   2.909   1.161   4.422  0.9306 -0.2567 -2.5014
  413HK4    H2834609   6.131   2.780   4.507  0.3749  0.0700  0.4532
  413HK4    C4834610   6.025   2.758   4.524  0.3101 -0.0387 -0.0880
  413HK4    C4734611   5.987   2.698   4.643  0.5219 -0.1304 -0.0648
  413HK4    H2734612   6.062   2.684   4.722  2.0897  1.0292 -1.3251
  413HK4    C4634613   5.856   2.653   4.659  0.4753  0.1614  0.3746
  413HK4    H2634614   5.828   2.610   4.756  2.0481 -0.5329  0.5296
  413HK4    C4034615   5.756   2.669   4.560  0.0844  0.1779  0.7700
  413HK4    C5034616   5.802   2.723   4.438  0.2650  0.0216  0.7691
  413HK4    H3034617   5.726   2.724   4.358  1.2229 -1.7151 -0.1884
  413HK4    C4934618   5.929   2.776   4.425  0.1710  0.0852  0.0687
  413HK4    H2934619   5.968   2.812   4.328  1.8861 -2.5289 -0.2548
  413HK4     N234620   5.620   2.673   4.589 -0.1667  0.1883 -0.3805
  413HK4    C3034621   5.517   2.626   4.504 -0.3139  0.3593 -0.2969
  413HK4    C2934622   5.511   2.529   4.405 -0.0034  0.1881 -0.1528
  413HK4    H1534623   5.602   2.495   4.356  1.5045  1.3550  1.7576
  413HK4    C2834624   5.390   2.481   4.356 -0.1271  0.1010  0.2374
  413HK4    C2734625   5.268   2.526   4.410 -0.8251  0.0950 -1.3004
  413HK4    H1434626   5.179   2.464   4.391 -1.4355  1.0584 -1.6197
  413HK4    C3234627   5.273   2.632   4.500  0.4906 -1.1015  0.0740
  413HK4    H1634628   5.179   2.661   4.546 -0.1493 -1.8509 -0.7406
  413HK4    C3134629   5.392   2.684   4.549 -0.1578  0.4059  0.0789
  413HK4    C3434630   5.423   2.779   4.654  0.4636  0.2243  0.0622
  413HK4    C3334631   5.563   2.756   4.687  0.2568 -0.4948  0.4576
  413HK4    C3534632   5.616   2.838   4.786  0.0396  0.6414 -0.3577
  413HK4    H1734633   5.716   2.806   4.815 -0.7530 -1.1784  0.4354
  413HK4    C3634634   5.547   2.941   4.849  0.5594  0.8080 -0.0624
  413HK4    H1834635   5.596   2.992   4.934  2.7293  0.4378 -1.0577
  413HK4    C3734636   5.420   2.969   4.802  0.3565  0.1440  0.0884
  413HK4    H1934637   5.367   3.055   4.843  0.1371 -0.0512  0.2130
  413HK4    C3834638   5.357   2.888   4.708  0.3507  0.1387  0.0947
  413HK4    H2034639   5.249   2.898   4.695  0.4772 -0.2537 -1.4449
  413HK4    C1434640   5.392   2.430   4.218 -0.4096 -0.0932  0.3042
  413HK4     C934641   5.296   2.463   4.122 -0.2123 -0.2522  0.0485
  413HK4     C834642   5.260   2.376   4.017  0.0189  0.4518 -0.6210
  413HK4    C1134643   5.335   2.260   4.001 -0.7866 -0.1321 -0.1982
  413HK4     H434644   5.316   2.197   3.913 -0.2246  0.0701 -0.4621
  413HK4    C1234645   5.432   2.223   4.094 -0.6433  0.0673 -0.2709
  413HK4     H534646   5.496   2.137   4.068 -0.2877  0.4616 -0.6921
  413HK4    C1334647   5.464   2.310   4.197 -0.4686 -0.0329 -0.2397
  413HK4     H634648   5.558   2.293   4.251 -0.9434 -0.0375  0.6026
  413HK4     C734649   5.131   2.384   3.944 -0.2551 -0.2829 -0.2332
  413HK4     O234650   5.118   2.322   3.839  0.3070 -0.5739 -0.1344
  413HK4     C434651   5.033   2.483   3.994  0.1604  0.0318 -0.0396
  413HK4     C334652   4.901   2.463   3.959  0.0915  0.6458 -0.1472
  413HK4     H334653   4.863   2.386   3.889 -1.6210  0.9503  0.4119
  413HK4     C234654   4.810   2.552   4.015  0.0129  0.3591  0.1842
  413HK4     H234655   4.702   2.547   3.995  0.0499 -3.8537  0.4851
  413HK4     C134656   4.848   2.652   4.103  0.7327  0.6241 -0.4188
  413HK4     H134657   4.770   2.696   4.167 -1.0315 -2.3111 -0.4747
  413HK4     C634658   4.983   2.673   4.140  0.6909  0.4360 -0.1553
  413HK4     C534659   5.076   2.588   4.079  0.3427  0.0527 -0.1577
  413HK4    C1034660   5.217   2.589   4.128  0.2639  0.0459  0.0682
  413HK4     O134661   5.290   2.687   4.122  0.1993  0.1507  0.8746
  413HK4    C1634662   5.004   2.734   4.272 -0.1812  0.1147  0.1367
  413HK4    C1534663   4.910   2.720   4.376  0.4251 -0.1302  0.6489
  413HK4     H734664   4.857   2.625   4.392 -0.9564  0.1462 -2.1407
  413HK4    C2034665   4.893   2.818   4.473 -0.1901  0.1991  0.2045
  413HK4     H934666   4.814   2.813   4.547  0.4048  0.5602  0.8714
  413HK4    C1934667   4.970   2.934   4.474 -0.0796  0.1249  0.2741
  413HK4    C1834668   5.074   2.946   4.374  0.1764 -0.3762  0.4749
  413HK4    C1734669   5.079   2.851   4.273 -0.1481  0.0949  0.0133
  413HK4     H834670   5.140   2.875   4.185  0.3637  0.1531  0.3823
  413HK4     N134671   5.153   3.060   4.402 -0.1164  0.0026 -0.2117
  413HK4    C2134672   5.095   3.125   4.513  0.3459 -0.1947  0.1466
  413HK4    C2234673   4.984   3.047   4.564  0.3452 -0.0285  0.3994
  413HK4    C2634674   4.924   3.069   4.687 -0.1348  0.4672  0.0780
  413HK4    H1334675   4.842   3.004   4.718  0.9686 -0.4786  1.0682
  413HK4    C2534676   4.980   3.165   4.771 -0.1601  0.5307  0.0222
  413HK4    H1234677   4.936   3.176   4.870  0.1202  1.5037  0.0419
  413HK4    C2434678   5.092   3.235   4.729  0.1451  0.1192  0.1468
  413HK4    H1134679   5.151   3.300   4.796 -0.4697  0.6480  0.1845
  413HK4    C2334680   5.142   3.222   4.600 -0.7419  0.7090 -0.2616
  413HK4    H1034681   5.220   3.289   4.562 -1.7468  0.5091 -2.7105
  413HK4    C3934682   5.284   3.085   4.360 -0.1004 -0.1580 -0.2592
  413HK4    C4134683   5.325   3.220   4.357 -0.3590 -0.0751 -0.0913
  413HK4    H2134684   5.252   3.302   4.346 -1.5862 -1.2178 -0.5679
  413HK4    C4234685   5.456   3.261   4.377 -0.3628 -0.0890 -0.0451
  413HK4    H2234686   5.478   3.367   4.355 -0.0920 -0.1669 -0.1533
  413HK4    C4334687   5.558   3.169   4.398 -0.0114  0.2909 -0.0626
  413HK4    H2334688   5.658   3.210   4.410 -0.4729  1.3657  0.1365
  413HK4    C4434689   5.516   3.036   4.407  0.2482  0.1996 -0.2175
  413HK4    H2434690   5.591   2.961   4.437  1.0032  0.0984 -2.2189
  413HK4    C4534691   5.386   2.992   4.387  0.1865  0.2522  0.0701
  413HK4    H2534692   5.353   2.887   4.382 -1.7907  0.8925 -0.9701
  414HK4    H2834693   8.915   8.809   1.382  2.1203 -0.3270 -2.1193
  414HK4    C4834694   8.930   8.708   1.421 -0.1100  0.0294 -0.1917
  414HK4    C4734695   9.027   8.685   1.517 -0.3655 -0.3817 -0.0321
  414HK4    H2734696   9.080   8.772   1.557  3.4323 -2.0537 -1.1608
  414HK4    C4634697   9.034   8.556   1.570  0.1107 -0.2397  0.2516
  414HK4    H2634698   9.080   8.544   1.670 -2.2064  1.2533  1.5379
  414HK4    C4034699   8.957   8.448   1.524 -0.2758  0.2994 -0.3653
  414HK4    C5034700   8.865   8.478   1.421 -0.1962 -0.0223 -0.5324
  414HK4    H3034701   8.812   8.408   1.356  3.3532 -2.2051 -1.2100
  414HK4    C4934702   8.852   8.606   1.368 -0.4468  0.1800  0.0118
  414HK4    H2934703   8.765   8.632   1.306  0.7282 -2.9963 -3.1011
  414HK4     N234704   8.998   8.319   1.560 -0.4985  0.1632 -0.5890
  414HK4    C3034705   8.906   8.212   1.566  0.0342 -0.2478  0.3620
  414HK4    C2934706   8.770   8.196   1.547  0.0593  0.1699 -0.1510
  414HK4    H1534707   8.701   8.277   1.571 -1.8145 -0.7887 -2.0941
  414HK4    C2834708   8.712   8.074   1.512  0.2189 -0.0031  0.1920
  414HK4    C2734709   8.792   7.960   1.531 -0.0816 -0.2524 -0.0346
  414HK4    H1434710   8.761   7.857   1.508  0.6912 -0.2637 -1.1282
  414HK4    C3234711   8.928   7.972   1.559 -0.0032 -0.0205 -0.5088
  414HK4    H1634712   8.979   7.879   1.583  0.0880  0.0964 -0.2515
  414HK4    C3134713   8.992   8.095   1.570  0.1708 -0.1583  0.0051
  414HK4    C3434714   9.133   8.125   1.561  0.1216  0.2320  0.5120
  414HK4    C3334715   9.130   8.270   1.559 -0.4849  0.2103 -0.8569
  414HK4    C3534716   9.253   8.335   1.551 -0.3602  0.0892  0.0626
  414HK4    H1734717   9.260   8.444   1.555  1.8550  0.0362 -1.6271
  414HK4    C3634718   9.368   8.262   1.526 -0.2998  0.3919 -0.5428
  414HK4    H1834719   9.460   8.317   1.502 -0.3855  0.8356  0.1349
  414HK4    C3734720   9.371   8.124   1.541  0.0880  0.4781  0.1466
  414HK4    H1934721   9.467   8.073   1.554  0.1209  0.9967  2.1727
  414HK4    C3834722   9.253   8.055   1.566  0.2108  0.3802  0.4607
  414HK4    H2034723   9.258   7.950   1.595 -2.6046 -0.4739 -1.8935
  414HK4    C1434724   8.570   8.057   1.478  0.2685  0.0740 -0.0439
  414HK4     C934725   8.503   7.938   1.510  0.5649 -0.1140 -0.1141
  414HK4     C834726   8.399   7.892   1.427  0.4404  0.2409 -0.1576
  414HK4    C1134727   8.342   7.978   1.334  0.0925  0.3888  0.1910
  414HK4     H434728   8.246   7.943   1.294 -0.3575  0.6712  0.9926
  414HK4    C1234729   8.394   8.106   1.317  0.2146  0.2522 -0.4545
  414HK4     H534730   8.351   8.166   1.236 -0.0955  0.4610 -0.1326
  414HK4    C1334731   8.512   8.141   1.381 -0.2407  0.2286  0.3926
  414HK4     H634732   8.576   8.226   1.352  0.0155  0.5717  1.9088
  414HK4     C734733   8.359   7.749   1.434  0.4256  0.2300 -0.4929
  414HK4     O234734   8.293   7.701   1.342  0.3520  0.1985 -0.4237
  414HK4     C434735   8.419   7.663   1.538 -0.5819  0.4487  0.2805
  414HK4     C334736   8.405   7.527   1.517 -0.2632  0.3917  0.4305
  414HK4     H334737   8.355   7.486   1.428  0.0063  2.6635 -0.7944
  414HK4     C234738   8.459   7.441   1.612 -0.2053 -0.0527  0.0021
  414HK4     H234739   8.473   7.333   1.595 -1.8608 -0.3232  0.2717
  414HK4     C134740   8.524   7.500   1.720  0.3884  0.0462 -0.4119
  414HK4     H134741   8.543   7.432   1.805  0.4823 -0.3478 -0.7466
  414HK4     C634742   8.534   7.637   1.749 -0.6873  0.0120  0.1191
  414HK4     C534743   8.483   7.721   1.650 -0.4347  0.3321  0.2577
  414HK4    C1034744   8.524   7.864   1.637  0.4477  0.0606  0.0064
  414HK4     O134745   8.553   7.930   1.737  0.2685 -0.0524  0.1345
  414HK4    C1634746   8.610   7.667   1.872 -0.2413  0.2672 -0.2179
  414HK4    C1534747   8.734   7.605   1.896 -0.0104  0.8018 -0.0208
  414HK4     H734748   8.797   7.607   1.806  0.8067  0.0479  0.5231
  414HK4    C2034749   8.790   7.591   2.023 -0.4517  0.1251  0.1030
  414HK4     H934750   8.890   7.555   2.045 -0.3485  0.9018  0.9407
  414HK4    C1934751   8.715   7.633   2.132 -0.1096  0.6379  0.1419
  414HK4    C1834752   8.582   7.688   2.113 -0.0726  0.6402 -0.1103
  414HK4    C1734753   8.536   7.705   1.983 -0.1836  0.1472 -0.1381
  414HK4     H834754   8.438   7.752   1.971  0.1749  1.1060  0.6526
  414HK4     N134755   8.514   7.700   2.236  0.3761  0.6209  0.1433
  414HK4    C2134756   8.602   7.657   2.337  0.3379  0.5074  0.1321
  414HK4    C2234757   8.726   7.613   2.275 -0.0818 -0.4894 -0.0107
  414HK4    C2634758   8.818   7.546   2.354 -0.2358 -0.4066  0.2397
  414HK4    H1334759   8.906   7.502   2.307 -0.3165 -1.3153  0.9235
  414HK4    C2534760   8.793   7.516   2.488  0.1151  0.4266  0.4981
  414HK4    H1234761   8.850   7.435   2.534  1.2556 -1.3028 -3.7177
  414HK4    C2434762   8.675   7.557   2.548 -0.1420 -0.1324  0.3772
  414HK4    H1134763   8.658   7.530   2.654  2.1385  1.0853  1.0968
  414HK4    C2334764   8.585   7.632   2.473  0.1007 -0.2603 -0.0394
  414HK4    H1034765   8.519   7.691   2.537 -0.2492 -1.0653  0.3554
  414HK4    C3934766   8.402   7.780   2.261 -0.2393 -0.1519 -0.1320
  414HK4    C4134767   8.315   7.728   2.359 -0.3850  0.2838 -0.0306
  414HK4    H2134768   8.327   7.622   2.386 -0.7185  0.5937  1.3743
  414HK4    C4234769   8.224   7.811   2.423 -0.1733 -0.1768  0.8700
  414HK4    H2234770   8.157   7.768   2.499 -1.3257  2.1815  1.2452
  414HK4    C4334771   8.221   7.943   2.380  0.4296 -0.3027  0.4338
  414HK4    H2334772   8.174   8.016   2.446  1.8638  1.7535 -0.7521
  414HK4    C4434773   8.292   7.992   2.271 -1.1025 -0.3266 -0.6058
  414HK4    H2434774   8.265   8.092   2.234  1.1385  0.3989 -0.3685
  414HK4    C4534775   8.388   7.911   2.211 -0.3641 -0.0472  0.1723
  414HK4    H2534776   8.456   7.935   2.127 -0.9536 -0.7777 -0.5293
  415HK4    H2834777   3.717   3.957  10.415  1.2201  0.3229  1.0698
  415HK4    C4834778   3.646   4.013  10.476 -0.2541 -0.2362 -0.0768
  415HK4    C4734779   3.511   3.983  10.480 -0.1875 -0.4637  0.5243
  415HK4    H2734780   3.476   3.905  10.410  1.3356  1.4115 -2.4579
  415HK4    C4634781   3.421   4.052  10.560  0.0531 -0.1795  0.5492
  415HK4    H2634782   3.318   4.016  10.546 -0.3062  1.4968 -1.3537
  415HK4    C4034783   3.464   4.158  10.643  0.6081  0.3837 -0.4437
  415HK4    C5034784   3.603   4.183  10.644  0.6856 -0.0530 -0.4031
  415HK4    H3034785   3.640   4.274  10.694 -4.1435  2.1661 -0.5909
  415HK4    C4934786   3.691   4.112  10.563  0.6313 -0.9576  0.3068
  415HK4    H2934787   3.799   4.120  10.581  0.8030  0.2787 -1.1281
  415HK4     N234788   3.381   4.228  10.732  0.3501 -0.4833  0.0080
  415HK4    C3034789   3.401   4.361  10.773 -0.4653 -0.2691 -0.2724
  415HK4    C2934790   3.460   4.469  10.707 -0.7314 -0.3105 -0.5745
  415HK4    H1534791   3.514   4.452  10.614  0.8726  3.4216 -0.4266
  415HK4    C2834792   3.442   4.599  10.750  0.2784 -0.2437 -0.3310
  415HK4    C2734793   3.375   4.619  10.873 -0.3954 -0.0127 -0.7347
  415HK4    H1434794   3.330   4.718  10.894  1.6642  0.6468  0.7074
  415HK4    C3234795   3.321   4.514  10.946 -0.1260 -0.0391 -0.5715
  415HK4    H1634796   3.286   4.535  11.047  1.4150 -2.0631  0.3995
  415HK4    C3134797   3.329   4.385  10.897  0.4208 -0.3245  0.2586
  415HK4    C3434798   3.250   4.266  10.924  0.7077 -0.5782 -0.0064
  415HK4    C3334799   3.284   4.174  10.818 -0.0564 -0.4074 -0.4010
  415HK4    C3534800   3.233   4.044  10.827 -0.7530 -0.1041  0.0891
  415HK4    H1734801   3.277   3.962  10.771  0.5765  0.3299  0.4855
  415HK4    C3634802   3.152   4.004  10.932 -0.4499 -0.4210  0.1980
  415HK4    H1834803   3.124   3.898  10.928  0.3002 -0.5963 -0.5819
  415HK4    C3734804   3.123   4.098  11.030  0.2677  0.2200 -0.1947
  415HK4    H1934805   3.081   4.065  11.125 -0.2492  2.6172  0.4571
  415HK4    C3834806   3.166   4.231  11.029 -0.1834  0.3661 -0.3888
  415HK4    H2034807   3.131   4.309  11.096  1.4972  0.5696  0.2746
  415HK4    C1434808   3.494   4.725  10.695 -0.1723  0.1468  0.1248
  415HK4     C934809   3.518   4.845  10.764  0.2811  0.2860 -0.2746
  415HK4     C834810   3.472   4.967  10.712 -0.2322  0.0495 -0.3893
  415HK4    C1134811   3.409   4.968  10.588 -0.4759  0.0101 -0.2638
  415HK4     H434812   3.363   5.059  10.547 -0.0999  0.3086 -0.0225
  415HK4    C1234813   3.397   4.853  10.510 -0.2800  0.0178 -0.3083
  415HK4     H534814   3.358   4.857  10.407 -2.0367  3.5399  0.4226
  415HK4    C1334815   3.442   4.733  10.564 -0.7401  0.1324  0.3447
  415HK4     H634816   3.427   4.646  10.499 -0.5451  0.4767 -0.1657
  415HK4     C734817   3.500   5.094  10.782  0.2087 -0.2516 -0.0207
  415HK4     O234818   3.460   5.201  10.737  0.2993 -0.0562  0.3520
  415HK4     C434819   3.593   5.093  10.898 -0.0241 -0.5317  0.1620
  415HK4     C334820   3.632   5.211  10.959  0.0199 -0.5051  0.0847
  415HK4     H334821   3.587   5.302  10.915  1.1508 -0.8559 -1.8537
  415HK4     C234822   3.715   5.222  11.070 -0.2247  0.5092  0.1809
  415HK4     H234823   3.732   5.318  11.120 -0.9251  0.6014  0.2363
  415HK4     C134824   3.766   5.104  11.124  0.6096  0.5114 -0.5839
  415HK4     H134825   3.858   5.109  11.183 -0.4631 -0.0353  1.1699
  415HK4     C634826   3.722   4.980  11.073  0.1340  0.1952  0.5736
  415HK4     C534827   3.640   4.975  10.959  0.0014 -0.2500  0.6871
  415HK4    C1034828   3.600   4.850  10.888  0.3276  0.1979 -0.3032
  415HK4     O134829   3.651   4.742  10.916  0.4250  0.2895 -0.1188
  415HK4    C1634830   3.755   4.861  11.152  0.0915 -0.3028 -0.1431
  415HK4    C1534831   3.884   4.852  11.207  0.2598  0.1677 -0.4581
  415HK4     H734832   3.968   4.897  11.152 -0.0880  0.1905 -0.9649
  415HK4    C2034833   3.907   4.786   0.080  0.5222 -0.3410 -0.7822
  415HK4     H934834   4.005   4.768   0.124  0.9648  1.9284 -0.7470
  415HK4    C1934835   3.802   4.733   0.153  0.4292  0.2490 -0.4842
  415HK4    C1834836   3.673   4.722   0.087  0.0175  0.4972  0.2660
  415HK4    C1734837   3.652   4.792  11.216  0.0725 -0.4014 -0.2813
  415HK4     H834838   3.549   4.798  11.182 -0.5179 -1.4727  1.2654
  415HK4     N134839   3.580   4.661   0.173 -0.1011  0.0228 -0.1934
  415HK4    C2134840   3.648   4.641   0.295 -0.1841 -0.2701 -0.1947
  415HK4    C2234841   3.787   4.683   0.288 -0.1111 -0.6114 -0.8581
  415HK4    C2634842   3.868   4.667   0.400  0.0679  0.2134 -0.8725
  415HK4    H1334843   3.964   4.720   0.396  1.2972 -1.8563  0.6375
  415HK4    C2534844   3.819   4.606   0.515  0.0690  0.4467 -0.7467
  415HK4    H1234845   3.888   4.573   0.593 -0.6559  0.7278  0.0174
  415HK4    C2434846   3.686   4.568   0.521  0.1269  0.3849  0.2253
  415HK4    H1134847   3.643   4.537   0.618  1.9386  3.1857  1.9919
  415HK4    C2334848   3.601   4.583   0.412  0.0868  0.4166  0.2606
  415HK4    H1034849   3.515   4.517   0.404  1.1410 -0.7817 -2.0844
  415HK4    C3934850   3.468   4.591   0.127  0.0749 -0.4508  0.1014
  415HK4    C4134851   3.367   4.573   0.224  0.1036  0.0227  0.2177
  415HK4    H2134852   3.361   4.643   0.308  0.0303 -1.6658  1.6314
  415HK4    C4234853   3.291   4.457   0.225 -0.2866  0.2743  0.3575
  415HK4    H2234854   3.216   4.441   0.303 -0.5812 -1.5716 -0.2804
  415HK4    C4334855   3.309   4.364   0.123  0.3139  0.2181  0.5143
  415HK4    H2334856   3.265   4.264   0.126 -0.1816  0.4427  0.6488
  415HK4    C4434857   3.402   4.381   0.020  0.1830  0.2944  0.4087
  415HK4    H2434858   3.403   4.320  11.177 -1.2488  0.4547  0.2736
  415HK4    C4534859   3.478   4.498   0.021  0.4612  0.1227 -0.3710
  415HK4    H2534860   3.523   4.529  11.174 -1.3872  0.6774 -1.0989
  416HK4    H2834861   8.954   9.050   1.019 -0.2424  0.1170 -3.1614
  416HK4    C4834862   8.865   8.987   1.023 -0.3262  0.3162 -0.0586
  416HK4    C4734863   8.869   8.870   0.948  0.1344 -0.0398  0.5185
  416HK4    H2734864   8.947   8.858   0.871 -1.2577  0.1907 -0.9501
  416HK4    C4634865   8.785   8.767   0.987 -0.0784  0.0091  0.1899
  416HK4    H2634866   8.811   8.667   0.949 -2.3127 -1.2446  1.8730
  416HK4    C4034867   8.684   8.775   1.085 -0.0513 -0.1519  0.2331
  416HK4    C5034868   8.675   8.902   1.145 -0.2186 -0.0121 -0.0847
  416HK4    H3034869   8.619   8.908   1.240  0.4208 -1.4137  0.3924
  416HK4    C4934870   8.770   9.001   1.123 -0.4084  0.1617 -0.1150
  416HK4    H2934871   8.776   9.095   1.180  1.4515 -0.2172  0.3193
  416HK4     N234872   8.571   8.697   1.061  0.2694 -0.5391 -0.0202
  416HK4    C3034873   8.522   8.664   0.933  0.0488 -0.2320 -0.0144
  416HK4    C2934874   8.580   8.675   0.807  0.3409 -0.3054  0.1151
  416HK4    H1534875   8.644   8.761   0.785 -3.4421  2.5368 -0.2652
  416HK4    C2834876   8.550   8.593   0.700 -0.1253  0.1459 -0.1011
  416HK4    C2734877   8.446   8.499   0.715 -0.3798  0.3523 -0.5330
  416HK4    H1434878   8.440   8.419   0.640  1.0170 -0.2690 -0.0059
  416HK4    C3234879   8.376   8.493   0.834 -0.2204 -0.3409 -0.4697
  416HK4    H1634880   8.291   8.428   0.855 -0.4408  0.9397  3.1542
  416HK4    C3134881   8.413   8.569   0.945  0.0885 -0.3510 -0.5679
  416HK4    C3434882   8.394   8.547   1.087  0.1857 -0.0803 -0.5136
  416HK4    C3334883   8.491   8.629   1.156  0.0298 -0.2848 -0.0418
  416HK4    C3534884   8.498   8.632   1.295 -0.1963  0.5249 -0.0407
  416HK4    H1734885   8.532   8.721   1.347 -0.3325 -0.4965  1.8380
  416HK4    C3634886   8.421   8.544   1.371  0.2413  0.3131  0.1579
  416HK4    H1834887   8.452   8.529   1.476  1.3279  0.0440 -0.1880
  416HK4    C3734888   8.328   8.467   1.303 -0.1195  0.7917  0.1069
  416HK4    H1934889   8.269   8.396   1.361 -1.5486 -1.4257 -3.8256
  416HK4    C3834890   8.316   8.462   1.165  0.4313  0.2274  0.0743
  416HK4    H2034891   8.240   8.400   1.117 -1.5559  0.9724  2.1913
  416HK4    C1434892   8.626   8.598   0.574 -0.3164 -0.2261 -0.2318
  416HK4     C934893   8.591   8.530   0.457 -0.2865  0.3437 -0.5719
  416HK4     C834894   8.691   8.480   0.372  0.0907  0.0534  0.0528
  416HK4    C1134895   8.824   8.515   0.395  0.0947 -0.0711  0.2308
  416HK4     H434896   8.897   8.472   0.325 -0.6530 -1.2458  0.1705
  416HK4    C1234897   8.864   8.588   0.507  0.1796 -0.2982  0.3491
  416HK4     H534898   8.969   8.614   0.525  0.2447 -0.4319  0.1681
  416HK4    C1334899   8.761   8.638   0.586 -0.3393 -0.0785 -0.4583
  416HK4     H634900   8.783   8.729   0.643 -0.8822  0.1932 -0.6745
  416HK4     C734901   8.650   8.381   0.270  0.3089  0.1356 -0.1146
  416HK4     O234902   8.740   8.307   0.231  0.3814  0.3035 -0.2664
  416HK4     C434903   8.507   8.354   0.244  0.2893 -0.1343  0.2683
  416HK4     C334904   8.469   8.258   0.151 -0.1455  0.0446  0.2645
  416HK4     H334905   8.529   8.238   0.061 -0.5711  0.5245 -0.1332
  416HK4     C234906   8.334   8.225   0.136 -0.1459  0.1908 -0.0670
  416HK4     H234907   8.317   8.136   0.074 -3.1580 -0.2993  1.4033
  416HK4     C134908   8.237   8.283   0.217 -0.2392 -0.5699  0.3733
  416HK4     H134909   8.130   8.265   0.199 -0.3274  2.3610 -2.4560
  416HK4     C634910   8.275   8.377   0.315  0.1029  0.2868 -0.5674
  416HK4     C534911   8.409   8.418   0.321  0.1867 -0.0722  0.0883
  416HK4    C1034912   8.447   8.525   0.417 -0.5789 -0.1914  0.5308
  416HK4     O134913   8.386   8.631   0.405 -0.2477 -0.0398  0.1778
  416HK4    C1634914   8.189   8.374   0.435  0.2064  0.1723 -0.4963
  416HK4    C1534915   8.179   8.262   0.519 -0.3952  0.0738 -0.6980
  416HK4     H734916   8.244   8.176   0.496 -1.6370 -0.9393 -0.4751
  416HK4    C2034917   8.088   8.258   0.625 -0.0804 -0.4947 -0.4471
  416HK4     H934918   8.063   8.161   0.669  1.0391 -1.0026 -0.9019
  416HK4    C1934919   7.999   8.361   0.650  0.0271 -0.4925 -0.0668
  416HK4    C1834920   8.011   8.478   0.565  0.5261  0.0674  0.7754
  416HK4    C1734921   8.102   8.479   0.460 -0.1257 -0.2679  0.2074
  416HK4     H834922   8.096   8.557   0.384 -0.6507 -2.7771 -2.4476
  416HK4     N134923   7.920   8.578   0.607  0.2156 -0.0728  0.4346
  416HK4    C2134924   7.837   8.513   0.700 -0.5488 -0.6090 -0.6058
  416HK4    C2234925   7.883   8.380   0.736  0.3043 -0.0976  0.2181
  416HK4    C2634926   7.806   8.291   0.808 -0.3242  0.2137 -0.0662
  416HK4    H1334927   7.838   8.188   0.825 -0.7752  0.1212  0.2447
  416HK4    C2534928   7.675   8.324   0.842 -0.1722  0.1399  0.6031
  416HK4    H1234929   7.613   8.253   0.896 -0.9870  0.0130 -0.4788
  416HK4    C2434930   7.624   8.449   0.808 -0.2749 -0.1057 -0.1645
  416HK4    H1134931   7.520   8.480   0.826 -0.3324  1.1326 -2.4980
  416HK4    C2334932   7.707   8.539   0.743 -0.2169 -0.0064  0.0442
  416HK4    H1034933   7.683   8.643   0.766 -0.0119 -0.5510  2.8230
  416HK4    C3934934   7.958   8.712   0.621 -0.2279  0.1314 -0.2460
  416HK4    C4134935   7.855   8.805   0.643  0.2540  0.7184 -0.4856
  416HK4    H2134936   7.769   8.786   0.577  0.4267 -1.8458  0.0122
  416HK4    C4234937   7.871   8.919   0.721 -0.2123  0.3167  0.1970
  416HK4    H2234938   7.789   8.993   0.724 -0.2204  0.2825  0.9297
  416HK4    C4334939   7.994   8.935   0.784  0.0498 -0.1746 -0.1907
  416HK4    H2334940   8.002   8.996   0.874 -1.0882  0.8478 -0.7788
  416HK4    C4434941   8.104   8.857   0.750  0.0958 -0.0906 -0.2378
  416HK4    H2434942   8.199   8.890   0.793  0.9388  1.0125 -2.8919
  416HK4    C4534943   8.087   8.745   0.669 -0.1635  0.0251 -0.3415
  416HK4    H2534944   8.174   8.684   0.643  0.7004  1.5924 -1.2007
  417HK4    H2834945   0.207   3.765   4.478 -1.9685  0.9710  1.3677
  417HK4    C4834946   0.262   3.734   4.567 -0.1307  0.0496 -0.0280
  417HK4    C4734947   0.393   3.768   4.597 -0.0078 -0.1831 -0.3092
  417HK4    H2734948   0.457   3.801   4.514  1.4305 -1.1331  0.4024
  417HK4    C4634949   0.452   3.751   4.722 -0.3475  1.0146  0.0148
  417HK4    H2634950   0.560   3.763   4.736  0.1648  0.6647 -3.2421
  417HK4    C4034951   0.378   3.703   4.832  0.3204  0.2008  0.1124
  417HK4    C5034952   0.247   3.661   4.798  0.5627 -0.3801 -0.1076
  417HK4    H3034953   0.183   3.611   4.872  0.3242 -0.4094 -0.3368
  417HK4    C4934954   0.189   3.682   4.674  0.1274  0.1072  0.1750
  417HK4    H2934955   0.080   3.694   4.670  0.1032 -0.2779 -0.4980
  417HK4     N234956   0.434   3.652   4.950 -0.1894 -0.3507  0.1218
  417HK4    C3034957   0.560   3.593   4.969 -0.1428 -0.3218 -0.0880
  417HK4    C2934958   0.647   3.538   4.876  0.0901  0.7932 -0.5413
  417HK4    H1534959   0.627   3.548   4.770 -0.1560  1.9879 -0.3912
  417HK4    C2834960   0.763   3.471   4.916 -0.3632  0.2211 -0.1621
  417HK4    C2734961   0.790   3.455   5.053 -0.3124  0.4073 -0.1498
  417HK4    H1434962   0.870   3.390   5.092 -0.2858  0.4112 -0.1971
  417HK4    C3234963   0.706   3.508   5.149 -0.1357 -0.5159  0.5183
  417HK4    H1634964   0.731   3.496   5.255  2.9522  2.8520  0.2279
  417HK4    C3134965   0.592   3.577   5.110  0.5294  0.1876 -0.1788
  417HK4    C3434966   0.472   3.622   5.179  0.5952  0.0205  0.0440
  417HK4    C3334967   0.382   3.675   5.079  0.4140  0.1535  0.2781
  417HK4    C3534968   0.290   3.773   5.114 -0.1320 -0.1758 -0.2228
  417HK4    H1734969   0.261   3.849   5.041 -0.3215  2.0108  2.0696
  417HK4    C3634970   0.263   3.792   5.249 -0.1352  0.0512 -0.2551
  417HK4    H1834971   0.175   3.855   5.269 -0.3781 -0.1364 -0.7286
  417HK4    C3734972   0.349   3.739   5.345 -0.2889  0.3447  0.0422
  417HK4    H1934973   0.337   3.781   5.445  3.1938 -0.1818  0.7323
  417HK4    C3834974   0.457   3.659   5.312 -0.8223 -0.3549 -0.0079
  417HK4    H2034975   0.513   3.607   5.390  2.0686 -2.1586 -3.1389
  417HK4    C1434976   0.840   3.401   4.812  0.0613  0.2405  0.1394
  417HK4     C934977   0.923   3.294   4.846  0.4413  0.5386  0.1578
  417HK4     C834978   1.048   3.283   4.781  0.0671 -0.0070 -0.4757
  417HK4    C1134979   1.085   3.369   4.678  0.4202  0.4018 -0.0076
  417HK4     H434980   1.172   3.342   4.616  0.8226 -0.3902  0.8882
  417HK4    C1234981   0.992   3.463   4.635  0.0790  0.0482 -0.0468
  417HK4     H534982   0.992   3.507   4.534 -3.5542  3.4109  1.2836
  417HK4    C1334983   0.872   3.485   4.703 -0.4732 -0.7222 -0.7663
  417HK4     H634984   0.798   3.551   4.656  0.6058  1.4821  0.5529
  417HK4     C734985   1.141   3.176   4.822  0.0294 -0.0351 -0.4630
  417HK4     O234986   1.258   3.189   4.785  0.2065 -0.7551 -0.1586
  417HK4     C434987   1.099   3.085   4.931 -0.0884 -0.4837 -0.8807
  417HK4     C334988   1.196   3.009   4.994  0.1335  0.4055 -0.1249
  417HK4     H334989   1.297   3.010   4.949  0.4948  0.5992  0.6867
  417HK4     C234990   1.157   2.902   5.074  0.8769  0.1669 -0.0759
  417HK4     H234991   1.225   2.863   5.152 -0.7380 -0.4198  1.0557
  417HK4     C134992   1.023   2.866   5.077  0.7744  0.5353 -0.1704
  417HK4     H134993   0.993   2.788   5.149 -0.0755  0.4664 -0.5968
  417HK4     C634994   0.926   2.937   5.005  0.4544 -0.1801 -0.4479
  417HK4     C534995   0.961   3.061   4.950 -0.1073  0.0410 -0.3213
  417HK4    C1034996   0.871   3.176   4.922  0.0688  0.0534 -0.8370
  417HK4     O134997   0.750   3.165   4.940  0.1272  0.0836 -0.4297
  417HK4    C1634998   0.802   2.868   4.967  0.2992 -0.0222 -0.2312
  417HK4    C1534999   0.761   2.764   5.053  0.4056 -0.1637 -0.3490
  417HK4     H735000   0.797   2.756   5.157  0.4142  0.0347 -0.3372
  417HK4    C2035001   0.689   2.652   5.013 -0.0140  0.0034 -0.0687
  417HK4     H935002   0.664   2.571   5.081 -1.6206  1.3222  0.9440
  417HK4    C1935003   0.648   2.650   4.880  0.4477 -0.3912 -0.2058
  417HK4    C1835004   0.697   2.750   4.788 -0.0211 -0.1312 -0.1729
  417HK4    C1735005   0.768   2.861   4.832 -0.2276 -0.0302 -0.0979
  417HK4     H835006   0.791   2.949   4.772 -1.6900  0.7140  0.3837
  417HK4     N135007   0.635   2.724   4.664  0.5258 -0.6184 -0.3467
  417HK4    C2135008   0.567   2.601   4.677 -0.4974 -0.0405 -0.2174
  417HK4    C2235009   0.562   2.555   4.814  0.1968 -0.1490 -0.2265
  417HK4    C2635010   0.534   2.425   4.855 -0.7397  0.0365 -0.2521
  417HK4    H1335011   0.556   2.389   4.956  1.5952  1.1318 -0.3277
  417HK4    C2535012   0.502   2.335   4.754 -0.2260 -0.1565 -0.2437
  417HK4    H1235013   0.498   2.230   4.783  0.7751 -0.3851 -0.9129
  417HK4    C2435014   0.512   2.377   4.622 -0.3214 -0.1173 -0.2401
  417HK4    H1135015   0.494   2.304   4.542 -0.5705 -1.0178  0.6300
  417HK4    C2335016   0.540   2.506   4.579 -0.6540 -0.0271 -0.1867
  417HK4    H1035017   0.510   2.538   4.479 -1.1545 -0.3569 -0.1419
  417HK4    C3935018   0.603   2.822   4.569 -0.0724 -0.1753  0.3152
  417HK4    C4135019   0.598   2.786   4.433  0.0653  0.3809  0.1582
  417HK4    H2135020   0.663   2.710   4.385 -0.6773  0.7929 -1.4960
  417HK4    C4235021   0.511   2.852   4.349 -0.0373  0.0553  0.0087
  417HK4    H2235022   0.506   2.822   4.243  2.5220  0.1435 -0.1697
  417HK4    C4335023   0.429   2.955   4.394 -0.4353 -0.2324 -0.0494
  417HK4    H2335024   0.367   3.012   4.325 -0.3926 -0.2663 -0.1165
  417HK4    C4435025   0.436   2.990   4.528  0.1366 -0.3326 -0.0488
  417HK4    H2435026   0.370   3.071   4.565 -0.9656 -1.1273 -0.2544
  417HK4    C4535027   0.523   2.928   4.617  0.6756  0.5261  0.0255
  417HK4    H2535028   0.511   2.946   4.725 -0.2548 -0.7181  0.1341
  418HK4    H2835029   1.984   9.699   3.067  1.5113  2.4229  0.5341
  418HK4    C4835030   1.910   9.746   3.002  0.2850 -0.0675  0.0519
  418HK4    C4735031   1.802   9.809   3.063 -0.2766 -0.7213 -0.2579
  418HK4    H2735032   1.817   9.844   3.166 -1.3118 -1.6740  0.2207
  418HK4    C4635033   1.687   9.832   2.988 -0.6162 -0.6031  0.2986
  418HK4    H2635034   1.617   9.905   3.029 -1.8734 -1.7015  0.1283
  418HK4    C4035035   1.673   9.794   2.853  0.0113 -0.7399  0.2671
  418HK4    C5035036   1.794   9.755   2.792  0.3350  0.2270  0.2846
  418HK4    H3035037   1.791   9.705   2.694  2.0735 -0.7419  0.7024
  418HK4    C4935038   1.909   9.726   2.864  0.3394 -0.2691  0.0800
  418HK4    H2935039   1.992   9.676   2.813  1.4830 -0.1531  1.7714
  418HK4     N235040   1.547   9.765   2.799 -0.2011  0.2150  0.2387
  418HK4    C3035041   1.433   9.719   2.867 -0.2527 -0.4212 -0.2732
  418HK4    C2935042   1.419   9.654   2.990  0.1424 -0.2383 -0.1320
  418HK4    H1535043   1.508   9.649   3.053 -1.0027 -1.2291  1.4249
  418HK4    C2835044   1.300   9.597   3.034  0.3334 -0.1934  0.4424
  418HK4    C2735045   1.187   9.613   2.952  0.1451 -0.0162  0.7335
  418HK4    H1435046   1.093   9.563   2.978  0.2272 -0.8818 -0.5241
  418HK4    C3235047   1.191   9.673   2.826 -0.0047 -0.3192  0.5817
  418HK4    H1635048   1.097   9.698   2.779  0.4135  0.5220  0.1726
  418HK4    C3135049   1.316   9.716   2.782 -0.3418 -0.1109 -0.1595
  418HK4    C3435050   1.363   9.766   2.654  0.1874 -0.2323 -0.0099
  418HK4    C3335051   1.505   9.794   2.668  0.0855  0.2058  0.1445
  418HK4    C3535052   1.568   9.873   2.573 -0.0672  0.1743  0.0175
  418HK4    H1735053   1.677   9.882   2.578  0.0119 -0.2784 -0.7316
  418HK4    C3635054   1.500   9.920   2.461  0.0534  0.1475 -0.0679
  418HK4    H1835055   1.561   9.976   2.389 -2.0210  0.7125 -1.4353
  418HK4    C3735056   1.364   9.898   2.444  0.0513  0.3700 -0.3475
  418HK4    H1935057   1.309   9.957   2.370 -0.9806 -1.7946 -1.3817
  418HK4    C3835058   1.303   9.817   2.540  0.5883  0.5021  0.1045
  418HK4    H2035059   1.208   9.767   2.520  0.0476  1.6613 -0.2397
  418HK4    C1435060   1.297   9.488   3.133  0.4203 -0.3027  0.3251
  418HK4     C935061   1.222   9.369   3.130 -0.2825  0.1362  0.2233
  418HK4     C835062   1.175   9.305   3.246 -0.0270 -0.0768  0.2078
  418HK4    C1135063   1.220   9.350   3.369 -0.4898  0.0679  0.3241
  418HK4     H435064   1.196   9.294   3.461  1.7423 -0.1749  0.7846
  418HK4    C1235065   1.300   9.463   3.379 -0.5410  0.1113  0.2443
  418HK4     H535066   1.338   9.491   3.479  0.3363  2.3447 -0.6644
  418HK4    C1335067   1.336   9.529   3.262  0.2972 -0.1922  0.3278
  418HK4     H635068   1.392   9.623   3.269  1.0183 -0.5972  0.1343
  418HK4     C735069   1.084   9.188   3.238 -0.0865 -0.0252  0.0755
  418HK4     O235070   1.048   9.135   3.343 -0.1277 -0.6217 -0.2368
  418HK4     C435071   1.037   9.139   3.106  0.3720 -0.1745 -0.0345
  418HK4     C335072   0.946   9.035   3.096 -0.3493  0.4492  0.0359
  418HK4     H335073   0.967   8.953   3.166  0.8892  0.0216 -0.8135
  418HK4     C235074   0.867   9.002   2.986  0.0899  0.3202 -0.2422
  418HK4     H235075   0.783   8.932   2.996 -0.0222  0.4439 -0.3040
  418HK4     C135076   0.896   9.083   2.877 -0.3274  0.9925  0.1436
  418HK4     H135077   0.823   9.080   2.795 -1.5800 -0.4434  1.2746
  418HK4     C635078   1.001   9.178   2.875  0.1840  0.4349  0.1887
  418HK4     C535079   1.078   9.206   2.989 -0.0115  0.6082  0.2780
  418HK4    C1035080   1.184   9.310   2.999  0.2658  0.3609 -0.0407
  418HK4     O135081   1.268   9.306   2.910 -0.3406  0.3661 -0.6218
  418HK4    C1635082   0.999   9.269   2.760 -0.0553  0.2876  0.0745
  418HK4    C1535083   0.880   9.312   2.698  0.1690  0.5777 -0.1597
  418HK4     H735084   0.785   9.313   2.754 -1.6995 -1.4716 -3.1793
  418HK4    C2035085   0.867   9.370   2.573 -0.0458 -0.3398 -0.5659
  418HK4     H935086   0.765   9.381   2.535 -1.5235 -1.5750  2.8915
  418HK4    C1935087   0.983   9.397   2.500 -0.0012 -0.2191 -0.4501
  418HK4    C1835088   1.107   9.344   2.552  0.4466  1.0206 -0.2443
  418HK4    C1735089   1.108   9.280   2.675 -0.6733 -0.0548 -0.7748
  418HK4     H835090   1.196   9.218   2.692 -0.3444  0.6188  0.0227
  418HK4     N135091   1.206   9.364   2.454  0.4582  0.0506 -0.4363
  418HK4    C2135092   1.151   9.438   2.347  0.6964  0.8610 -0.0024
  418HK4    C2235093   1.009   9.453   2.369  0.6009  0.1969 -0.1543
  418HK4    C2635094   0.945   9.557   2.302  0.4697  0.5040  0.4444
  418HK4    H1335095   0.837   9.571   2.314 -0.0863 -2.0346 -1.0372
  418HK4    C2535096   1.013   9.646   2.220 -0.2435  0.3113 -0.3732
  418HK4    H1235097   0.965   9.722   2.160  0.6323 -0.4898 -2.1225
  418HK4    C2435098   1.151   9.635   2.202 -0.2664  0.0005 -0.3580
  418HK4    H1135099   1.202   9.717   2.150  0.5329  0.2147  0.7456
  418HK4    C2335100   1.217   9.532   2.269  0.7234  0.9127  0.0802
  418HK4    H1035101   1.321   9.513   2.241  0.1136  1.1165 -2.4702
  418HK4    C3935102   1.343   9.357   2.485  0.4326  0.5018 -0.2181
  418HK4    C4135103   1.439   9.323   2.388  0.0427 -0.0730 -0.4044
  418HK4    H2135104   1.398   9.247   2.319  0.9104  0.6851 -1.7816
  418HK4    C4235105   1.569   9.370   2.398  0.0509 -0.1723 -0.0271
  418HK4    H2235106   1.643   9.343   2.320 -0.1304 -0.3712 -0.1316
  418HK4    C4335107   1.615   9.438   2.510 -0.3414 -0.3201  0.2213
  418HK4    H2335108   1.699   9.506   2.496 -2.0277  1.7798  0.1332
  418HK4    C4435109   1.523   9.463   2.611 -0.4265 -0.3536  0.1520
  418HK4    H2435110   1.561   9.476   2.713 -1.3670 -0.2211  0.4920
  418HK4    C4535111   1.389   9.428   2.598 -0.4840 -0.3422  0.7016
  418HK4    H2535112   1.320   9.454   2.680 -3.6934 -0.2208 -1.9194
  419HK4    H2835113  11.040   9.275   6.034  2.5892  0.4561  1.1867
  419HK4    C4835114  11.015   9.224   6.128 -0.8051 -0.0728  0.0780
  419HK4    C4735115  11.075   9.262   6.248  0.4070 -0.7639 -0.2911
  419HK4    H2735116  11.125   9.360   6.249 -1.7134  0.3286  1.6859
  419HK4    C4635117  11.046   9.197   6.367 -0.7200  0.1315 -0.0715
  419HK4    H2635118  11.090   9.243   6.456 -0.1662  0.8902 -0.7282
  419HK4    C4035119  10.973   9.077   6.362 -0.3272 -0.1089 -0.0425
  419HK4    C5035120  10.929   9.023   6.239 -0.3160 -0.7133  0.2143
  419HK4    H3035121  10.872   8.929   6.237  0.8898 -1.4809  0.9576
  419HK4    C4935122  10.956   9.099   6.126 -0.6210 -0.1678  0.5050
  419HK4    H2935123  10.910   9.059   6.034 -2.6686  2.0838  0.5081
  419HK4     N235124  10.992   8.978   6.460 -0.1423 -0.3264 -0.2968
  419HK4    C3035125  11.107   8.957   6.539  0.0909 -0.1918 -0.5990
  419HK4    C2935126  11.239   8.990   6.508  0.2725 -0.5723 -0.2426
  419HK4    H1535127   0.007   9.066   6.431  0.7044 -1.3321 -0.9017
  419HK4    C2835128   0.101   8.937   6.574  0.2924  0.2952  0.4391
  419HK4    C2735129   0.072   8.852   6.683  0.1036 -0.2317 -0.0169
  419HK4    H1435130   0.153   8.833   6.755  0.3816  0.8869 -0.0235
  419HK4    C3235131  11.192   8.811   6.718  0.0435 -0.1378 -0.1231
  419HK4    H1635132  11.180   8.717   6.773 -0.3994 -1.0253 -1.6999
  419HK4    C3135133  11.085   8.865   6.649  0.2886  0.2168 -0.2231
  419HK4    C3435134  10.943   8.840   6.643  0.4092 -0.4460 -0.3107
  419HK4    C3335135  10.891   8.904   6.524 -0.0247 -0.2298 -0.0056
  419HK4    C3535136  10.757   8.886   6.493 -0.1604  0.6335  0.0451
  419HK4    H1735137  10.718   8.926   6.399 -0.6422 -0.1400 -0.0848
  419HK4    C3635138  10.669   8.818   6.576 -0.1496  0.0633 -0.4100
  419HK4    H1835139  10.566   8.792   6.547 -0.6141  0.8611  0.4889
  419HK4    C3735140  10.714   8.770   6.698  0.3975 -0.0119 -0.6421
  419HK4    H1935141  10.642   8.724   6.766  1.0335 -1.2104 -0.7596
  419HK4    C3835142  10.850   8.777   6.726  0.2818  0.0237 -0.0928
  419HK4    H2035143  10.881   8.754   6.828 -4.6436  0.4149  1.6114
  419HK4    C1435144   0.234   8.947   6.513  0.3200 -0.1781  0.4196
  419HK4     C935145   0.326   8.841   6.502  0.2904 -0.1500 -0.1136
  419HK4     C835146   0.461   8.873   6.477  0.1753 -0.1701 -0.7600
  419HK4    C1135147   0.503   9.004   6.462  0.1511 -0.1230 -0.4161
  419HK4     H435148   0.603   9.030   6.422 -1.0604  1.3466 -2.5721
  419HK4    C1235149   0.413   9.109   6.474  0.0252 -0.2991  0.1842
  419HK4     H535150   0.444   9.213   6.455  0.3131 -0.1173  1.5656
  419HK4    C1335151   0.280   9.080   6.503  0.0284 -0.0766  0.4210
  419HK4     H635152   0.202   9.157   6.505  1.1141  1.1248 -1.7872
  419HK4     C735153   0.558   8.761   6.477  0.2476 -0.1107  0.0333
  419HK4     O235154   0.678   8.789   6.471  0.0745  0.6475  0.0218
  419HK4     C435155   0.513   8.620   6.473  0.1319 -0.0672 -0.1718
  419HK4     C335156   0.606   8.518   6.487 -0.0325 -0.2918 -0.6893
  419HK4     H335157   0.714   8.536   6.476  0.1832  1.1285  2.8951
  419HK4     C235158   0.562   8.387   6.472  0.3827 -0.4999 -0.1273
  419HK4     H235159   0.629   8.301   6.487  0.6674 -0.4170 -0.9057
  419HK4     C135160   0.437   8.360   6.418  0.1858  0.2104 -0.0189
  419HK4     H135161   0.430   8.266   6.362  0.1974 -1.1894  2.2633
  419HK4     C635162   0.346   8.465   6.392  0.1550  0.0979 -0.3480
  419HK4     C535163   0.380   8.593   6.436  0.0625 -0.0063  0.0347
  419HK4    C1035164   0.284   8.701   6.472 -0.0463 -0.0476 -0.1275
  419HK4     O135165   0.168   8.665   6.491 -0.0293  0.1454  0.3748
  419HK4    C1635166   0.217   8.433   6.327 -0.0257 -0.4359  0.2699
  419HK4    C1535167   0.170   8.300   6.327  0.7013 -0.7021  0.1327
  419HK4     H735168   0.212   8.226   6.396  0.1944 -1.1129 -0.0005
  419HK4    C2035169   0.076   8.257   6.234 -0.0654  0.7748  0.2015
  419HK4     H935170   0.030   8.162   6.258  1.4575  0.7040  3.1279
  419HK4    C1935171   0.023   8.349   6.144  0.4465  0.4030 -0.4870
  419HK4    C1835172   0.070   8.486   6.144  0.1675  0.5002  0.0749
  419HK4    C1735173   0.176   8.521   6.228  0.5216 -0.4480  0.0323
  419HK4     H835174   0.241   8.600   6.191 -1.3464  0.4116 -1.5371
  419HK4     N135175   0.009   8.569   6.048  0.0441  0.2538 -0.0596
  419HK4    C2135176  11.155   8.486   5.997  0.0553  0.2417 -0.0615
  419HK4    C2235177  11.161   8.352   6.050 -0.1024  0.3137  0.1438
  419HK4    C2635178  11.074   8.251   6.008  0.3697 -0.0340 -0.0080
  419HK4    H1335179  11.075   8.156   6.060  0.8009  0.7014  1.3577
  419HK4    C2535180  10.972   8.280   5.918 -0.1880  0.2352  0.7057
  419HK4    H1235181  10.921   8.205   5.857 -0.0215  0.2005  0.6084
  419HK4    C2435182  10.965   8.410   5.867 -0.0506 -0.0936 -0.1610
  419HK4    H1135183  10.886   8.438   5.796 -1.6322 -0.7510  1.2774
  419HK4    C2335184  11.050   8.512   5.908  0.1101 -0.1901 -0.2501
  419HK4    H1035185  11.029   8.611   5.868  0.1548  0.0746  0.3689
  419HK4    C3935186   0.039   8.704   6.027  0.0988  0.3002  0.2883
  419HK4    C4135187   0.024   8.765   5.900 -0.2342  0.0428  0.2021
  419HK4    H2135188  11.231   8.708   5.816 -2.2953 -0.4452  1.4918
  419HK4    C4235189   0.035   8.904   5.895  0.5786 -0.0069  0.5209
  419HK4    H2235190   0.042   8.946   5.793  2.6308 -1.6690 -0.0763
  419HK4    C4335191   0.045   8.986   6.006  0.0335  0.6640  0.0786
  419HK4    H2335192   0.056   9.094   5.998 -2.0635  0.8431 -0.6013
  419HK4    C4435193   0.050   8.927   6.132 -0.6958  0.0670 -0.1711
  419HK4    H2435194   0.064   8.995   6.217  0.6257 -1.7920  1.1457
  419HK4    C4535195   0.045   8.788   6.139  0.1510  0.0648  0.4615
  419HK4    H2535196   0.059   8.738   6.236  1.9360 -1.8568 -0.7305
  420HK4    H2835197   6.114   7.199  11.070  1.3558  0.5559 -0.3153
  420HK4    C4835198   6.065   7.274  11.008 -0.3771 -0.2563  0.0272
  420HK4    C4735199   6.069   7.406  11.052  0.0064 -0.4108  0.4620
  420HK4    H2735200   6.137   7.438  11.132  0.4660  1.4190 -0.6273
  420HK4    C4635201   5.994   7.499  10.980  0.0556 -0.6135  0.1515
  420HK4    H2635202   6.008   7.602  11.017 -2.0282 -0.0230 -0.6676
  420HK4    C4035203   5.915   7.462  10.870  0.6472 -0.0044 -0.4844
  420HK4    C5035204   5.914   7.324  10.839  0.1600  0.0176 -0.5756
  420HK4    H3035205   5.841   7.289  10.765  1.6137  0.1552 -2.1115
  420HK4    C4935206   5.990   7.226  10.902 -0.2796 -0.0400 -0.1402
  420HK4    H2935207   5.981   7.119  10.879  1.2351 -0.1462 -0.2497
  420HK4     N235208   5.874   7.558  10.777  0.1178  0.0858 -0.1570
  420HK4    C3035209   5.937   7.683  10.758  0.3080  0.0034 -0.0619
  420HK4    C2935210   6.069   7.714  10.791  0.1670 -0.1556  0.6575
  420HK4    H1535211   6.130   7.630  10.824 -0.2909  0.2468  2.5915
  420HK4    C2835212   6.118   7.843  10.806  0.2019 -0.0864 -0.0404
  420HK4    C2735213   6.019   7.942  10.788 -0.0665 -0.3182  0.1580
  420HK4    H1435214   6.043   8.046  10.816 -1.6133  0.2953 -0.7020
  420HK4    C3235215   5.886   7.921  10.755 -0.0349  0.1206 -0.2538
  420HK4    H1635216   5.826   8.011  10.742 -0.3771  0.3189  2.5715
  420HK4    C3135217   5.841   7.790  10.741  0.1062 -0.0401  0.7785
  420HK4    C3435218   5.714   7.722  10.723  0.1441  0.1140 -0.1289
  420HK4    C3335219   5.738   7.582  10.749 -0.0738  0.2587  0.8886
  420HK4    C3535220   5.646   7.492  10.695  0.3080  0.7363 -0.5891
  420HK4    H1735221   5.660   7.384  10.704  0.6591  0.7246 -1.2542
  420HK4    C3635222   5.531   7.535  10.630 -0.4960 -0.4360  0.0280
  420HK4    H1835223   5.467   7.457  10.587  0.2662 -1.0918  0.0671
  420HK4    C3735224   5.515   7.672  10.608  0.4065 -0.2446  0.5455
  420HK4    H1935225   5.436   7.700  10.539 -2.5504 -4.4369  1.9897
  420HK4    C3835226   5.603   7.769  10.655 -0.3457  0.3114  0.8014
  420HK4    H2035227   5.572   7.873  10.643 -1.9773 -0.5098 -2.7927
  420HK4    C1435228   6.239   7.872  10.883 -0.0014 -0.0103  0.2551
  420HK4     C935229   6.244   7.973  10.980  0.1598 -0.1469  0.3904
  420HK4     C835230   6.360   8.053  10.989 -0.2471  0.4567  0.3706
  420HK4    C1135231   6.475   8.027  10.915 -0.2093  0.1362  0.5364
  420HK4     H435232   6.575   8.060  10.946  0.1808  0.8312 -1.3736
  420HK4    C1235233   6.470   7.919  10.828  0.0384  0.6167 -0.0802
  420HK4     H535234   6.553   7.915  10.756  0.2370  2.0734  0.0540
  420HK4    C1335235   6.358   7.838  10.815 -0.0543  0.7659 -0.2354
  420HK4     H635236   6.355   7.745  10.756 -1.6412  1.5413 -1.4131
  420HK4     C735237   6.367   8.158  11.092  0.5255  0.1738  0.6151
  420HK4     O235238   6.465   8.231  11.106  0.5369  0.3189 -0.1900
  420HK4     C435239   6.262   8.157  11.197  0.3200 -0.2133  0.4085
  420HK4     C335240   6.279   8.229   0.067  0.3303 -0.2132  0.4061
  420HK4     H335241   6.379   8.239   0.112 -0.1402  1.9550  1.0235
  420HK4     C235242   6.173   8.251   0.154  0.1544 -0.5790  0.2842
  420HK4     H235243   6.195   8.293   0.253  1.3778  0.8992 -0.5735
  420HK4     C135244   6.049   8.198   0.121 -0.1306  0.2087  0.0857
  420HK4     H135245   5.967   8.208   0.194 -1.1066 -1.9535 -0.6874
  420HK4     C635246   6.023   8.120   0.007  0.2248  0.5947 -0.2648
  420HK4     C535247   6.139   8.091  11.182  0.5434 -0.7063  0.7387
  420HK4    C1035248   6.143   7.974  11.089 -0.4298 -0.0397 -0.1480
  420HK4     O135249   6.128   7.866  11.147  0.2040 -0.0075  0.0754
  420HK4    C1635250   5.886   8.127  11.201  0.0142  0.1016  0.2008
  420HK4    C1535251   5.808   8.242  11.226 -0.3089 -0.0618 -0.0528
  420HK4     H735252   5.866   8.335  11.219 -0.2744 -0.0187  0.7301
  420HK4    C2035253   5.671   8.243  11.207 -0.2110  0.1792 -0.7471
  420HK4     H935254   5.628   8.341  11.227 -0.1524 -0.0093  0.2995
  420HK4    C1935255   5.610   8.132  11.151 -0.3808  0.0744 -0.3504
  420HK4    C1835256   5.684   8.011  11.120 -0.0755  0.2801 -0.4150
  420HK4    C1735257   5.820   8.015  11.152 -0.2521  0.1862  0.3592
  420HK4     H835258   5.871   7.920  11.136  0.8049  1.1067 -1.9148
  420HK4     N135259   5.606   7.909  11.064  0.0806 -0.1113  0.0711
  420HK4    C2135260   5.479   7.966  11.043  0.0140 -0.1845  0.2809
  420HK4    C2235261   5.478   8.100  11.098 -0.6739 -0.3264  0.6245
  420HK4    C2635262   5.361   8.175  11.095 -0.1068  0.5270 -0.0734
  420HK4    H1335263   5.360   8.280  11.125 -1.2712  0.5916 -0.3184
  420HK4    C2535264   5.244   8.128  11.038  0.1943  0.4324 -0.6190
  420HK4    H1235265   5.147   8.177  11.047  0.4808  1.3327 -2.2587
  420HK4    C2435266   5.247   8.000  10.984  0.2123 -0.1797  0.7991
  420HK4    H1135267   5.156   7.952  10.944  0.1374 -0.1794  0.9699
  420HK4    C2335268   5.360   7.919  10.988  0.1944 -0.2540 -0.0514
  420HK4    H1035269   5.352   7.815  10.955 -1.2450  0.0962 -0.8474
  420HK4    C3935270   5.627   7.774  11.095 -0.5626 -0.2043  0.1091
  420HK4    C4135271   5.580   7.672  11.010  0.0231 -0.1331 -0.3026
  420HK4    H2135272   5.518   7.696  10.923  1.4657 -0.7044 -1.5084
  420HK4    C4235273   5.573   7.539  11.051 -0.7914 -0.0962 -0.3107
  420HK4    H2235274   5.567   7.467  10.969  2.9531 -0.7595 -0.0817
  420HK4    C4335275   5.612   7.501  11.179  0.6399  0.1040 -0.6790
  420HK4    H2335276   5.582   7.406  11.223  0.8988  0.7851  1.0042
  420HK4    C4435277   5.645   7.601   0.022  0.1128 -0.0650 -0.2953
  420HK4    H2435278   5.681   7.576   0.122 -2.2244  0.2526  0.6557
  420HK4    C4535279   5.653   7.733  11.228 -0.0800  0.0729  0.1010
  420HK4    H2535280   5.662   7.811   0.058 -0.1507 -0.7984  0.9856
  421HK4    H2835281   3.989  10.711  11.186 -0.2932  0.3481 -0.1101
  421HK4    C4835282   3.920  10.671  11.111  0.0857 -0.1215 -0.2083
  421HK4    C4735283   3.976  10.597  11.007 -0.2886  0.0897 -0.5630
  421HK4    H2735284   4.084  10.582  10.996  0.0694  1.2043  1.1506
  421HK4    C4635285   3.899  10.547  10.903 -0.0271 -0.6472 -0.4004
  421HK4    H2635286   3.953  10.513  10.814 -0.1331 -2.0032  0.0378
  421HK4    C4035287   3.758  10.555  10.913  0.0520  0.0778  0.1289
  421HK4    C5035288   3.702  10.630  11.019  0.0604  0.0171  0.1780
  421HK4    H3035289   3.593  10.629  11.031 -0.1732  1.1004 -1.6471
  421HK4    C4935290   3.782  10.682  11.120  0.1337  0.4038 -0.0819
  421HK4    H2935291   3.745  10.707  11.220 -1.0952  0.8012 -0.6182
  421HK4     N235292   3.675  10.479  10.830  0.1080  0.4354 -0.2544
  421HK4    C3035293   3.728  10.418  10.714 -0.0290  0.2236 -0.2057
  421HK4    C2935294   3.791  10.477  10.605  0.3128 -0.3477 -0.3168
  421HK4    H1535295   3.826  10.578  10.624  1.6227 -1.1362  1.6828
  421HK4    C2835296   3.808  10.415  10.482  0.6375 -0.5083 -0.1925
  421HK4    C2735297   3.759  10.283  10.475  0.2272 -0.3614 -0.1057
  421HK4    H1435298   3.794  10.220  10.391 -1.4386 -1.8511  0.2897
  421HK4    C3235299   3.694  10.216  10.578  0.4429 -0.0162  0.2574
  421HK4    H1635300   3.682  10.108  10.573 -4.3888  0.2765  2.5859
  421HK4    C3135301   3.670  10.286  10.695  0.0259  0.1611  0.0684
  421HK4    C3435302   3.570  10.269  10.799 -0.1930 -0.3615 -0.2272
  421HK4    C3335303   3.577  10.390  10.878  0.0883  0.0852 -0.9298
  421HK4    C3535304   3.475  10.408  10.970  0.5218 -0.3129 -0.3693
  421HK4    H1735305   3.471  10.498  11.032  1.4962 -0.1654 -0.5077
  421HK4    C3635306   3.371  10.317  10.983  0.2111  0.1048  0.1594
  421HK4    H1835307   3.279  10.338  11.038  0.0210 -1.4179  0.4447
  421HK4    C3735308   3.363  10.198  10.910 -0.1562  0.1559  0.1146
  421HK4    H1935309   3.294  10.116  10.925 -0.4710  0.8240  2.4971
  421HK4    C3835310   3.466  10.179  10.819 -0.4053 -0.0958 -0.1142
  421HK4    H2035311   3.469  10.080  10.771  0.1680  0.1229 -0.5401
  421HK4    C1435312   3.824  10.500  10.363  0.3254 -0.1252  0.0385
  421HK4     C935313   3.776  10.449  10.242 -0.2302 -0.3133  0.3409
  421HK4     C835314   3.847  10.456  10.121 -0.0834 -0.1140  0.4387
  421HK4    C1135315   3.952  10.546  10.123  0.1203 -0.3282 -0.5523
  421HK4     H435316   3.994  10.576  10.025  0.0589  0.0288 -0.4695
  421HK4    C1235317   4.002  10.607  10.237 -0.5821 -0.4719 -0.1698
  421HK4     H535318   4.084  10.679  10.225 -0.2499 -0.8997 -0.5053
  421HK4    C1335319   3.938  10.583  10.358  0.4773 -0.3085  0.4287
  421HK4     H635320   3.972  10.651  10.439  2.3015 -1.5555  0.7255
  421HK4     C735321   3.812  10.361  10.013  0.6822 -0.7004  0.7066
  421HK4     O235322   3.870  10.370   9.905 -0.3325 -0.2628  0.1978
  421HK4     C435323   3.701  10.264  10.031  0.2120 -0.3308 -0.1726
  421HK4     C335324   3.682  10.161   9.941 -0.2083 -0.1092 -0.3435
  421HK4     H335325   3.752  10.148   9.857  1.0958  3.7186  0.0569
  421HK4     C235326   3.566  10.084   9.946  0.1094 -0.5581  0.1372
  421HK4     H235327   3.553   9.992   9.887 -2.7537 -1.0827  1.5318
  421HK4     C135328   3.475  10.108  10.048  0.1108  0.1562 -0.0216
  421HK4     H135329   3.373  10.069  10.037  0.0352 -0.5929  2.8510
  421HK4     C635330   3.497  10.199  10.154 -0.1662  0.1574  0.0301
  421HK4     C535331   3.610  10.280  10.138  0.3349 -0.5396 -0.0389
  421HK4    C1035332   3.642  10.383  10.241 -0.1221 -0.5278  0.0909
  421HK4     O135333   3.555  10.455  10.288 -0.0602 -0.4582  0.0995
  421HK4    C1635334   3.457  10.150  10.286 -0.7327  0.0746 -0.1738
  421HK4    C1535335   3.457  10.013  10.322 -0.1151  0.1171  0.0005
  421HK4     H735336   3.544   9.954  10.289 -0.0315  0.4031 -0.3027
  421HK4    C2035337   3.378   9.967  10.426 -0.1628 -0.1722 -0.1633
  421HK4     H935338   3.368   9.864  10.462 -2.0009 -0.9144 -2.7378
  421HK4    C1935339   3.297  10.050  10.502 -0.1012 -0.0537 -0.2269
  421HK4    C1835340   3.291  10.190  10.466  0.1744  0.0465  0.1110
  421HK4    C1735341   3.366  10.229  10.356 -0.3646  0.4489 -0.1219
  421HK4     H835342   3.359  10.328  10.309 -0.8440  0.5551  0.1715
  421HK4     N135343   3.181  10.258  10.523 -0.2217 -0.0536 -0.5207
  421HK4    C2135344   3.113  10.155  10.591 -0.0009 -0.2107 -0.5386
  421HK4    C2235345   3.183  10.028  10.589 -0.1363 -0.2889 -0.3305
  421HK4    C2635346   3.147   9.924  10.674  0.1511  0.0406  0.2014
  421HK4    H1335347   3.188   9.825  10.658  0.8205  0.5146 -1.0876
  421HK4    C2535348   3.046   9.940  10.768 -0.0761 -0.9228  0.1234
  421HK4    H1235349   3.028   9.864  10.845 -0.9512  0.6253  1.4618
  421HK4    C2435350   2.984  10.064  10.772  0.5521 -0.6082  0.1049
  421HK4    H1135351   2.921  10.096  10.856  0.2897  0.0779 -0.3461
  421HK4    C2335352   3.011  10.169  10.684  0.3421 -0.7106 -0.0852
  421HK4    H1035353   2.931  10.241  10.669  1.0913 -0.2136 -1.6923
  421HK4    C3935354   3.177  10.390  10.570  0.0165 -0.2991  0.1934
  421HK4    C4135355   3.058  10.458  10.603  0.1192  0.1029 -0.2758
  421HK4    H2135356   2.967  10.419  10.556  0.0156 -0.1897  0.1649
  421HK4    C4235357   3.051  10.571  10.685 -0.2663  0.0707 -0.2611
  421HK4    H2235358   2.964  10.593  10.747  2.0239  1.2048  2.6630
  421HK4    C4335359   3.171  10.630  10.721 -0.3438 -0.2978  0.5990
  421HK4    H2335360   3.163  10.715  10.790 -1.3088 -0.5187  0.7575
  421HK4    C4435361   3.292  10.576  10.679 -0.2071  0.4183  0.0639
  421HK4    H2435362   3.383  10.619  10.721 -0.7269  1.1033  0.4910
  421HK4    C4535363   3.295  10.458  10.606 -0.3563  0.4842 -0.0513
  421HK4    H2535364   3.391  10.406  10.590 -1.8162 -2.0737 -0.7462
  422HK4    H2835365   8.660   7.755   0.315 -1.1886  1.7000 -0.9755
  422HK4    C4835366   8.564   7.704   0.316 -0.1763 -0.2249  0.3292
  422HK4    C4735367   8.502   7.689   0.193  0.0646 -0.0814  0.1891
  422HK4    H2735368   8.547   7.730   0.101  1.9050 -1.7808  0.3133
  422HK4    C4635369   8.376   7.630   0.188  0.1063 -0.1604  0.1436
  422HK4    H2635370   8.332   7.628   0.087  0.3272 -3.1852  0.0628
  422HK4    C4035371   8.310   7.592   0.306 -0.2293 -0.0960 -0.0235
  422HK4    C5035372   8.381   7.600   0.427 -0.3629  0.0000  0.0509
  422HK4    H3035373   8.328   7.562   0.515 -3.2479 -0.4508 -1.8127
  422HK4    C4935374   8.505   7.663   0.435 -0.1443 -0.4520  0.2686
  422HK4    H2935375   8.566   7.663   0.526  0.8278 -2.7202 -0.3726
  422HK4     N235376   8.174   7.560   0.317 -0.1894 -0.3294 -0.1874
  422HK4    C3035377   8.070   7.602   0.231 -0.6881 -0.0125  0.5627
  422HK4    C2935378   8.064   7.724   0.164  0.1791 -0.4780 -0.3891
  422HK4    H1535379   8.149   7.789   0.184  0.1827 -0.8779  0.9887
  422HK4    C2835380   7.959   7.759   0.081 -0.0404  0.0159  0.0947
  422HK4    C2735381   7.858   7.661   0.070  0.2681 -0.2433 -0.4383
  422HK4    H1435382   7.774   7.678   0.001  0.1081  0.7893  0.0091
  422HK4    C3235383   7.854   7.540   0.138 -0.2783 -0.0221 -0.0685
  422HK4    H1635384   7.767   7.475   0.143 -0.0925 -0.1440  2.0887
  422HK4    C3135385   7.962   7.506   0.220  0.0128 -0.6810 -0.7149
  422HK4    C3435386   8.002   7.398   0.307 -0.0980  0.1774  0.4151
  422HK4    C3335387   8.128   7.437   0.368 -0.0618 -0.0886  0.5056
  422HK4    C3535388   8.184   7.356   0.466 -0.0895 -0.6112  0.0932
  422HK4    H1735389   8.288   7.369   0.495 -0.2173  0.5330  0.0528
  422HK4    C3635390   8.126   7.234   0.497 -0.4762 -0.3049  0.5776
  422HK4    H1835391   8.186   7.164   0.558 -0.5436 -1.4828 -0.6702
  422HK4    C3735392   8.007   7.194   0.437  0.3169 -0.5333 -0.8733
  422HK4    H1935393   7.947   7.111   0.474 -2.1597  0.4960 -2.4510
  422HK4    C3835394   7.946   7.276   0.343 -0.2274  0.1281  0.0427
  422HK4    H2035395   7.863   7.236   0.284 -0.7868  1.7712 -0.3166
  422HK4    C1435396   7.922   7.898   0.051 -0.1670  0.0341  0.3330
  422HK4     C935397   7.793   7.950   0.035 -0.0921  0.2289  0.3597
  422HK4     C835398   7.778   8.077  11.224  0.3942  0.1394  0.0381
  422HK4    C1135399   7.893   8.150  11.194 -0.0479  0.5783 -0.5929
  422HK4     H435400   7.882   8.251  11.152  1.2447  0.5601 -0.9906
  422HK4    C1235401   8.022   8.106  11.220 -0.3155  0.1806  0.0744
  422HK4     H535402   8.107   8.163  11.181 -0.4964 -0.2832 -1.0288
  422HK4    C1335403   8.035   7.977   0.023 -0.3311  0.1848  0.0917
  422HK4     H635404   8.136   7.938   0.001 -0.4826  0.8669 -2.0188
  422HK4     C735405   7.648   8.144  11.201  0.4091  0.3017  0.4187
  422HK4     O235406   7.639   8.236  11.120 -0.8676 -0.0484  0.1515
  422HK4     C435407   7.529   8.071   0.002  0.1720  0.4251  0.0259
  422HK4     C335408   7.404   8.127  11.226  0.0838  0.2094 -0.0164
  422HK4     H335409   7.397   8.226  11.179  0.7087  0.6226  0.7384
  422HK4     C235410   7.285   8.071   0.025  0.2749 -0.0674  0.1406
  422HK4     H235411   7.191   8.126   0.010  1.7909  2.4589 -0.3776
  422HK4     C135412   7.300   7.952   0.094  0.2160  0.3921  0.9506
  422HK4     H135413   7.214   7.894   0.132  0.0164  1.1034  1.5739
  422HK4     C635414   7.419   7.877   0.103  0.0405 -0.0389 -0.2423
  422HK4     C535415   7.536   7.946   0.068 -0.1388  0.1826 -0.3985
  422HK4    C1035416   7.671   7.892   0.098 -0.2108  0.3677  0.2550
  422HK4     O135417   7.684   7.843   0.211  0.4455 -0.5437 -0.2080
  422HK4    C1635418   7.397   7.732   0.103 -0.0848 -0.0197 -0.1419
  422HK4    C1535419   7.294   7.676   0.024  0.2515 -0.4150 -0.2999
  422HK4     H735420   7.221   7.741  11.223  0.2452  2.0911  2.8614
  422HK4    C2035421   7.264   7.540   0.029 -0.7740 -0.1787  0.0008
  422HK4     H935422   7.190   7.494  11.211  2.0105 -0.9165 -2.7421
  422HK4    C1935423   7.332   7.461   0.121  0.1364  0.0430 -0.4762
  422HK4    C1835424   7.424   7.519   0.216  0.2429 -0.1319 -0.4715
  422HK4    C1735425   7.455   7.654   0.202 -0.4231  0.0884  0.1425
  422HK4     H835426   7.529   7.693   0.272 -2.5379  1.3339  1.7645
  422HK4     N135427   7.488   7.421   0.295 -0.4354 -0.0120  0.2388
  422HK4    C2135428   7.446   7.298   0.240  0.4020  0.0787 -0.6239
  422HK4    C2235429   7.340   7.318   0.143  0.3224  0.0419 -0.5454
  422HK4    C2635430   7.283   7.213   0.071 -0.0149 -0.3762  0.3214
  422HK4    H1335431   7.208   7.236  11.244  0.5819  0.6395  0.0178
  422HK4    C2535432   7.331   7.084   0.089  0.2155 -0.4305 -0.6318
  422HK4    H1235433   7.276   6.994   0.060 -1.8823 -0.3267  2.7452
  422HK4    C2435434   7.436   7.063   0.178 -0.0112  0.0003 -0.2638
  422HK4    H1135435   7.480   6.965   0.200  0.6936  0.2826 -0.4087
  422HK4    C2335436   7.488   7.166   0.256 -0.3980 -0.0979  0.1309
  422HK4    H1035437   7.575   7.155   0.321 -0.6720 -2.1552  0.1572
  422HK4    C3935438   7.510   7.437   0.432 -0.6401 -0.8301  0.3706
  422HK4    C4135439   7.603   7.356   0.500  0.3476 -0.3975 -0.4444
  422HK4    H2135440   7.690   7.309   0.450  0.3401 -0.2848 -0.5585
  422HK4    C4235441   7.582   7.320   0.633  0.0343  0.1624 -0.3441
  422HK4    H2235442   7.659   7.264   0.687 -1.4507  0.6834  2.3872
  422HK4    C4335443   7.466   7.359   0.699  0.2709  0.3486 -0.0366
  422HK4    H2335444   7.449   7.316   0.797  1.0409 -1.1919 -0.5607
  422HK4    C4435445   7.381   7.452   0.640 -0.1901  0.0540  0.1679
  422HK4    H2435446   7.300   7.505   0.692 -0.2606 -0.7946  0.9442
  422HK4    C4535447   7.403   7.488   0.507 -0.4095  0.0207  0.1216
  422HK4    H2535448   7.337   7.559   0.454 -0.1871  0.0445 -0.1252
  423HK4    H2835449   5.534   7.730   3.487 -1.5508  2.9864 -2.0777
  423HK4    C4835450   5.524   7.792   3.576 -0.1383  0.6739 -0.2563
  423HK4    C4735451   5.534   7.930   3.569 -0.0956  0.6550 -0.5696
  423HK4    H2735452   5.520   7.976   3.470 -0.2194 -0.6833 -1.1897
  423HK4    C4635453   5.512   8.015   3.677  0.1309 -0.2709  0.2086
  423HK4    H2635454   5.536   8.121   3.662 -0.0984 -0.5589 -2.6008
  423HK4    C4035455   5.480   7.964   3.804  0.1387 -0.1273  0.2676
  423HK4    C5035456   5.456   7.825   3.806  0.0180 -0.1071  0.4024
  423HK4    H3035457   5.416   7.775   3.895 -1.2672 -2.2427 -1.3489
  423HK4    C4935458   5.483   7.740   3.699  0.3171  0.6402 -0.1208
  423HK4    H2935459   5.493   7.633   3.721  0.1083  0.6105 -0.1776
  423HK4     N235460   5.491   8.043   3.920  0.1000 -0.1072  0.2563
  423HK4    C3035461   5.581   8.150   3.938 -0.1277  0.1323 -0.0195
  423HK4    C2935462   5.695   8.192   3.870 -0.1660  0.6365  0.2238
  423HK4    H1535463   5.738   8.132   3.789 -1.2027  0.5587 -0.2773
  423HK4    C2835464   5.768   8.301   3.916  0.2152  0.2757  0.4805
  423HK4    C2735465   5.710   8.387   4.010 -0.0600 -0.1350  0.6884
  423HK4    H1435466   5.766   8.480   4.034 -1.1205  0.7383 -0.2085
  423HK4    C3235467   5.583   8.362   4.060 -0.3840  0.3910  0.1312
  423HK4    H1635468   5.529   8.446   4.104  1.2867  1.0477  0.9489
  423HK4    C3135469   5.519   8.242   4.031  0.3322 -0.0845  0.5057
  423HK4    C3435470   5.397   8.179   4.077  0.2613 -0.1020  0.2929
  423HK4    C3335471   5.380   8.054   4.006 -0.3272  0.3333 -0.3454
  423HK4    C3535472   5.279   7.964   4.039 -0.0802  0.0910 -0.2438
  423HK4    H1735473   5.262   7.877   3.977 -1.7777  0.1368  0.1399
  423HK4    C3635474   5.199   7.999   4.148  0.5332 -0.1620  0.2875
  423HK4    H1835475   5.131   7.927   4.196  0.0590 -0.7848 -1.2795
  423HK4    C3735476   5.214   8.121   4.213  0.1182 -0.1412  0.3399
  423HK4    H1935477   5.160   8.120   4.308  0.9414  1.5254  0.8425
  423HK4    C3835478   5.313   8.213   4.183  0.1493 -0.2079  0.2389
  423HK4    H2035479   5.328   8.306   4.237 -1.4445 -0.9915  2.0683
  423HK4    C1435480   5.914   8.289   3.900  0.1563 -0.0273  0.1556
  423HK4     C935481   6.000   8.315   4.007 -0.1576  0.4841  0.2791
  423HK4     C835482   6.116   8.390   3.978  0.2230 -0.2869 -0.1906
  423HK4    C1135483   6.146   8.422   3.846  0.1069  0.0080 -0.1455
  423HK4     H435484   6.249   8.453   3.825 -0.6597  2.6118 -0.2136
  423HK4    C1235485   6.062   8.391   3.740 -0.6140 -0.1723  0.4688
  423HK4     H535486   6.066   8.459   3.653  0.9192  1.2839  1.6583
  423HK4    C1335487   5.943   8.326   3.767 -0.8801  0.1021 -0.0367
  423HK4     H635488   5.869   8.294   3.691 -1.6531  0.1993  0.6639
  423HK4     C735489   6.214   8.418   4.085 -0.1518  0.3556 -0.0148
  423HK4     O235490   6.315   8.484   4.060  0.0194 -0.1089 -0.5451
  423HK4     C435491   6.179   8.380   4.224  0.3713  0.2174  0.0810
  423HK4     C335492   6.269   8.407   4.326  0.6348 -0.3634 -0.0000
  423HK4     H335493   6.339   8.490   4.309 -1.6737  1.8799  1.0611
  423HK4     C235494   6.247   8.363   4.456 -0.6209 -0.3740 -0.2150
  423HK4     H235495   6.329   8.365   4.529  1.5796 -0.1099 -2.6404
  423HK4     C135496   6.127   8.302   4.492 -0.6184  0.0735  0.5536
  423HK4     H135497   6.107   8.273   4.597 -0.0999  1.9507  1.1875
  423HK4     C635498   6.031   8.281   4.391 -0.0267  0.1314 -0.0207
  423HK4     C535499   6.065   8.304   4.257  0.6150 -0.1386  0.0939
  423HK4    C1035500   5.982   8.256   4.142 -0.1161  0.5710  0.3228
  423HK4     O135501   5.947   8.139   4.151 -0.0599  0.5500  0.2760
  423HK4    C1635502   5.906   8.222   4.440  0.0533 -0.1565 -0.1621
  423HK4    C1535503   5.780   8.244   4.380 -0.0449  0.2483  0.1896
  423HK4     H735504   5.774   8.315   4.296  0.3819  1.2092  0.9590
  423HK4    C2035505   5.666   8.177   4.424 -0.1237  0.2680  0.0115
  423HK4     H935506   5.572   8.204   4.375 -0.3624 -1.1788 -0.3456
  423HK4    C1935507   5.670   8.082   4.525 -0.1237 -0.2506 -0.4741
  423HK4    C1835508   5.797   8.044   4.582 -0.3373 -0.0273  0.1480
  423HK4    C1735509   5.903   8.121   4.535 -0.4264  0.0042 -0.0027
  423HK4     H835510   6.001   8.094   4.575 -0.5198 -0.6642 -0.2220
  423HK4     N135511   5.776   7.974   4.703 -0.3682 -0.2976 -0.0130
  423HK4    C2135512   5.638   7.958   4.724 -0.3597  0.2313  0.4684
  423HK4    C2235513   5.571   8.019   4.611  0.1981 -0.3407 -0.1709
  423HK4    C2635514   5.439   7.986   4.584 -0.0889  0.5560  0.1301
  423HK4    H1335515   5.386   8.035   4.502 -0.6216  0.3792  0.3611
  423HK4    C2535516   5.379   7.886   4.661 -0.1819  0.7427  0.2984
  423HK4    H1235517   5.273   7.861   4.654 -0.0162 -1.2392  3.5215
  423HK4    C2435518   5.442   7.827   4.770 -0.0847 -0.7107 -0.5314
  423HK4    H1135519   5.380   7.764   4.835  1.2755 -1.5910 -0.0506
  423HK4    C2335520   5.570   7.868   4.806 -0.1227 -0.7286 -0.3744
  423HK4    H1035521   5.605   7.852   4.908  1.9870  0.2547 -0.9074
  423HK4    C3935522   5.875   7.906   4.774 -0.3059 -0.5029 -0.2950
  423HK4    C4135523   6.001   7.867   4.724 -0.0806  0.1276 -0.2307
  423HK4    H2135524   5.989   7.842   4.617 -2.6779 -1.2547  0.3366
  423HK4    C4235525   6.112   7.834   4.800 -0.6356 -0.9617  0.1303
  423HK4    H2235526   6.197   7.794   4.744 -1.9669 -2.4959 -0.8246
  423HK4    C4335527   6.106   7.852   4.938 -0.0356 -0.3515  0.0763
  423HK4    H2335528   6.195   7.848   5.001  1.3458 -2.3362 -1.9153
  423HK4    C4435529   5.988   7.895   4.996 -0.2211 -0.4766 -0.2075
  423HK4    H2435530   5.999   7.946   5.093 -0.5086 -1.1136  0.1665
  423HK4    C4535531   5.877   7.915   4.915 -0.0030  0.2104 -0.3414
  423HK4    H2535532   5.781   7.927   4.968 -0.7489  1.0787 -1.8685
  424HK4    H2835533   7.557   5.138   8.615  1.8669  0.7034  0.4075
  424HK4    C4835534   7.574   5.154   8.508 -0.1891  0.4970  0.0349
  424HK4    C4735535   7.674   5.089   8.438  0.0781  0.3395  0.5643
  424HK4    H2735536   7.735   5.016   8.493 -1.2006 -1.2864 -0.1163
  424HK4    C4635537   7.702   5.112   8.304 -0.2450  0.1648  0.4641
  424HK4    H2635538   7.786   5.054   8.262  0.9016  1.6425  0.7102
  424HK4    C4035539   7.627   5.206   8.231  0.0889 -0.1178 -0.2483
  424HK4    C5035540   7.526   5.271   8.305  0.1225 -0.4254  0.0659
  424HK4    H3035541   7.475   5.359   8.263  0.2648  0.0167  0.8240
  424HK4    C4935542   7.495   5.244   8.437 -0.2696  0.5383  0.1772
  424HK4    H2935543   7.405   5.279   8.490  1.1857  2.6876  1.2724
  424HK4     N235544   7.674   5.257   8.109  0.0343  0.2860 -0.1022
  424HK4    C3035545   7.808   5.265   8.066  0.1335 -0.2920  0.0974
  424HK4    C2935546   7.927   5.265   8.136 -0.0013  0.7563  0.3304
  424HK4    H1535547   7.928   5.226   8.238 -2.4307  0.7782  0.3953
  424HK4    C2835548   8.051   5.303   8.086  0.1825 -0.1501  0.0962
  424HK4    C2735549   8.053   5.331   7.948  0.3706 -0.1205  0.1030
  424HK4    H1435550   8.149   5.356   7.899 -0.0259 -0.7549 -1.0200
  424HK4    C3235551   7.942   5.323   7.865  0.1468  0.1854  0.3722
  424HK4    H1635552   7.953   5.319   7.757  1.2683  1.3805  0.4319
  424HK4    C3135553   7.819   5.296   7.924  0.0070  0.6257  0.2847
  424HK4    C3435554   7.683   5.306   7.873 -0.0579  0.4504  0.4224
  424HK4    C3335555   7.602   5.273   7.989 -0.3436 -0.0742  0.0738
  424HK4    C3535556   7.469   5.244   7.960 -0.4991  0.7680 -0.0552
  424HK4    H1735557   7.398   5.255   8.042 -0.6882 -3.3618  0.4200
  424HK4    C3635558   7.414   5.241   7.833 -0.6285  0.1502  0.0156
  424HK4    H1835559   7.310   5.210   7.816 -0.7502 -0.5250  1.8909
  424HK4    C3735560   7.493   5.281   7.725  0.2676 -0.0824  0.5819
  424HK4    H1935561   7.451   5.299   7.627 -1.2186 -2.5900  0.7206
  424HK4    C3835562   7.623   5.323   7.749  0.1740  0.3698  0.2977
  424HK4    H2035563   7.678   5.372   7.668  1.0661 -0.5426  0.3384
  424HK4    C1435564   8.160   5.344   8.175 -0.2632  0.5551  0.3221
  424HK4     C935565   8.254   5.440   8.135 -0.0897  0.4505  0.4764
  424HK4     C835566   8.387   5.427   8.180  0.0096  0.2030  0.1159
  424HK4    C1135567   8.422   5.326   8.269  0.0486 -0.0544 -0.1885
  424HK4     H435568   8.527   5.296   8.279  0.1615 -0.0747 -1.4091
  424HK4    C1235569   8.329   5.238   8.325 -0.0690 -0.0123 -0.3113
  424HK4     H535570   8.346   5.156   8.395 -2.5456  0.3468  0.7712
  424HK4    C1335571   8.200   5.250   8.273 -0.0009 -0.2255 -0.5218
  424HK4     H635572   8.128   5.179   8.315 -0.9664  0.5044 -0.9385
  424HK4     C735573   8.488   5.533   8.157  0.2239 -0.0264  0.0068
  424HK4     O235574   8.606   5.504   8.140  0.0971 -0.5975  0.0688
  424HK4     C435575   8.433   5.665   8.118  0.0621  0.1147  0.7136
  424HK4     C335576   8.516   5.775   8.136  0.3588  0.0654 -0.3655
  424HK4     H335577   8.615   5.759   8.180  0.8635  0.2571 -1.4131
  424HK4     C235578   8.483   5.897   8.077  1.0424  0.1338 -0.6083
  424HK4     H235579   8.540   5.988   8.101  0.5960  0.6814 -1.5890
  424HK4     C135580   8.377   5.901   7.987  0.1668 -0.4459  0.3826
  424HK4     H135581   8.382   5.989   7.921  2.4933 -1.4053 -0.7899
  424HK4     C635582   8.299   5.787   7.959  0.2372 -0.2815 -0.5067
  424HK4     C535583   8.320   5.671   8.035  0.7663 -0.0337 -0.2700
  424HK4    C1035584   8.217   5.570   8.074  0.4474  0.4396  0.1230
  424HK4     O135585   8.104   5.617   8.086  0.0167 -0.3501 -0.7700
  424HK4    C1635586   8.205   5.801   7.847 -0.0493 -0.1849 -0.2551
  424HK4    C1535587   8.174   5.687   7.770 -0.7280 -0.4939  0.4751
  424HK4     H735588   8.241   5.600   7.776  0.8506  0.7059  0.4316
  424HK4    C2035589   8.075   5.693   7.672 -0.2506 -0.2901  0.0018
  424HK4     H935590   8.045   5.603   7.617 -2.8849  1.1491 -1.0025
  424HK4    C1935591   8.004   5.810   7.649 -0.3285 -0.1454  0.9489
  424HK4    C1835592   8.039   5.929   7.723  0.4857  0.1865  0.0408
  424HK4    C1735593   8.133   5.918   7.825 -0.0635 -0.0458  0.5268
  424HK4     H835594   8.149   5.998   7.897  0.1417 -0.7386  1.2627
  424HK4     N135595   7.939   6.028   7.710 -0.0238 -0.3737 -0.2825
  424HK4    C2135596   7.844   5.976   7.620 -0.2797  0.2156 -0.3565
  424HK4    C2235597   7.880   5.841   7.580 -0.2552 -0.1353  0.8221
  424HK4    C2635598   7.799   5.775   7.489  0.2243 -0.3766  0.5682
  424HK4    H1335599   7.824   5.679   7.443 -1.5693  0.0583 -1.3723
  424HK4    C2535600   7.682   5.836   7.445  0.5688  0.1577  0.3972
  424HK4    H1235601   7.608   5.768   7.403  0.6749 -0.8315  1.7743
  424HK4    C2435602   7.645   5.962   7.491  0.2154  0.2427 -0.1228
  424HK4    H1135603   7.546   5.996   7.456 -0.5093 -0.5484  1.1488
  424HK4    C2335604   7.725   6.034   7.578 -0.0018  0.7728 -0.3597
  424HK4    H1035605   7.703   6.137   7.607  0.0062  0.7180 -0.1563
  424HK4    C3935606   7.963   6.163   7.737 -0.3666 -0.3048 -0.3199
  424HK4    C4135607   8.094   6.215   7.738 -0.4628 -0.0644 -0.3692
  424HK4    H2135608   8.175   6.151   7.701 -0.2964  1.3924 -2.6322
  424HK4    C4235609   8.120   6.342   7.788 -0.0554 -0.2779 -0.0410
  424HK4    H2235610   8.214   6.395   7.768 -0.5274  0.7298  0.3643
  424HK4    C4335611   8.013   6.416   7.837  0.5407 -0.0888  0.9926
  424HK4    H2335612   8.031   6.510   7.888  4.0977  1.2422 -2.4908
  424HK4    C4435613   7.881   6.372   7.836  0.5011  0.0499  0.1122
  424HK4    H2435614   7.796   6.426   7.879 -0.3623 -0.0333 -1.4332
  424HK4    C4535615   7.858   6.244   7.787  0.1201  0.1968 -0.1052
  424HK4    H2535616   7.761   6.200   7.812  0.2826 -1.8337 -2.7709
  425HK4    H2835617   8.898   8.504   3.523 -0.7599  0.0204 -0.1993
  425HK4    C4835618   8.956   8.495   3.615 -0.6503 -0.5521 -0.3280
  425HK4    C4735619   8.892   8.430   3.720 -0.5444 -0.4620 -0.2105
  425HK4    H2735620   8.801   8.371   3.702 -1.2880  0.8705 -0.8801
  425HK4    C4635621   8.948   8.426   3.848 -0.2477 -0.1216 -0.3270
  425HK4    H2635622   8.898   8.366   3.926  1.6270 -2.4410 -0.8437
  425HK4    C4035623   9.072   8.487   3.875 -0.0763 -0.6395  0.0518
  425HK4    C5035624   9.137   8.551   3.768 -0.5105 -0.1438  0.0792
  425HK4    H3035625   9.244   8.578   3.773 -0.6554  0.2263  1.4452
  425HK4    C4935626   9.077   8.556   3.643 -0.8676 -0.3697  0.2409
  425HK4    H2935627   9.122   8.611   3.559 -1.2651 -0.3907  0.0184
  425HK4     N235628   9.106   8.521   4.007 -0.1716 -0.1456 -0.0518
  425HK4    C3035629   9.238   8.558   4.038 -0.2308 -0.0864  0.1252
  425HK4    C2935630   9.356   8.495   4.000  0.1478  0.2786  0.6720
  425HK4    H1535631   9.341   8.418   3.924 -0.5659 -0.8698  1.9353
  425HK4    C2835632   9.480   8.520   4.057  0.4831  0.2881 -0.0523
  425HK4    C2735633   9.476   8.621   4.155 -0.0749 -0.4467  0.6938
  425HK4    H1435634   9.575   8.652   4.192  0.2548  0.5952 -0.9987
  425HK4    C3235635   9.361   8.690   4.193  0.1097  0.2790 -0.0476
  425HK4    H1635636   9.371   8.753   4.281 -0.1918  0.5599 -0.2159
  425HK4    C3135637   9.236   8.661   4.140  0.0894 -0.2097  0.2574
  425HK4    C3435638   9.098   8.663   4.185  0.2262 -0.1690  0.6756
  425HK4    C3335639   9.019   8.573   4.104  0.0946  0.8557 -0.3455
  425HK4    C3535640   8.885   8.555   4.138  0.4268 -0.1467  0.4499
  425HK4    H1735641   8.824   8.512   4.059  1.1658  2.4235 -1.5679
  425HK4    C3635642   8.829   8.619   4.248 -0.3540 -0.4072  0.2044
  425HK4    H1835643   8.720   8.621   4.266 -0.8211  0.3268 -2.5291
  425HK4    C3735644   8.904   8.708   4.323 -0.0169 -0.5263  0.0082
  425HK4    H1935645   8.856   8.743   4.415  0.1139 -1.6671  0.5151
  425HK4    C3835646   9.038   8.729   4.292  0.0665 -0.1753  0.5921
  425HK4    H2035647   9.092   8.797   4.357  0.1825  0.4541 -0.1575
  425HK4    C1435648   9.580   8.414   4.040 -0.0094 -0.1234 -0.4051
  425HK4     C935649   9.665   8.357   4.137  0.2978  0.7188 -0.1829
  425HK4     C835650   9.782   8.291   4.096  0.1860  0.5379 -0.2184
  425HK4    C1135651   9.827   8.289   3.965  0.0176 -0.4879 -0.2637
  425HK4     H435652   9.908   8.222   3.932  0.6435  1.0739 -1.9762
  425HK4    C1235653   9.749   8.352   3.869  0.3746  0.1190 -0.1576
  425HK4     H535654   9.797   8.388   3.777  0.6785 -1.3456 -0.5839
  425HK4    C1335655   9.629   8.411   3.908 -0.0366 -0.5510 -0.4076
  425HK4     H635656   9.578   8.475   3.835  2.9554  0.7927 -1.3867
  425HK4     C735657   9.859   8.209   4.192 -0.5235  0.1009 -0.0251
  425HK4     O235658   9.950   8.133   4.157 -0.5785  0.2001 -0.3881
  425HK4     C435659   9.814   8.202   4.333 -0.5155  0.4463 -0.0038
  425HK4     C335660   9.857   8.105   4.423 -0.2700  0.3645 -0.2123
  425HK4     H335661   9.910   8.015   4.390  0.2287 -0.6156  3.0460
  425HK4     C235662   9.845   8.125   4.560  0.9174  0.1885 -0.0787
  425HK4     H235663   9.876   8.045   4.629 -2.1102 -0.3840  0.7068
  425HK4     C135664   9.777   8.240   4.599  0.4735 -0.1437  0.1331
  425HK4     H135665   9.768   8.263   4.706  0.1121  0.2073  0.0297
  425HK4     C635666   9.731   8.342   4.514  0.0848 -0.1200  0.3684
  425HK4     C535667   9.735   8.310   4.377 -0.6318  0.2544  0.2581
  425HK4    C1035668   9.638   8.371   4.283 -0.0309  0.4735 -0.2221
  425HK4     O135669   9.521   8.354   4.318  0.0405 -0.0709 -0.2356
  425HK4    C1635670   9.691   8.469   4.576 -0.2003 -0.0574  0.0491
  425HK4    C1535671   9.715   8.591   4.509 -0.3770  0.0150  0.1138
  425HK4     H735672   9.741   8.600   4.403 -0.9804  4.8299  0.2855
  425HK4    C2035673   9.701   8.710   4.578  0.8281  0.0094  0.3767
  425HK4     H935674   9.711   8.810   4.535  1.2688 -0.7651 -1.3283
  425HK4    C1935675   9.653   8.704   4.709  0.3068  0.5015  0.2114
  425HK4    C1835676   9.607   8.582   4.773  0.0977  0.3215 -0.2678
  425HK4    C1735677   9.634   8.466   4.703 -0.4195  0.0623 -0.0450
  425HK4     H835678   9.587   8.374   4.738 -1.9862  1.7866  2.5037
  425HK4     N135679   9.550   8.601   4.901 -0.5107 -0.2172 -0.4571
  425HK4    C2135680   9.575   8.738   4.925 -0.0154 -0.3948  0.0506
  425HK4    C2235681   9.630   8.806   4.809  0.6880  0.1295  0.6801
  425HK4    C2635682   9.683   8.934   4.812  0.0275  0.4139  0.2795
  425HK4    H1335683   9.741   8.963   4.724 -2.9709  0.9650 -1.5952
  425HK4    C2535684   9.669   9.012   4.926 -0.3713  0.4511  0.2059
  425HK4    H1235685   9.663   9.120   4.910 -0.1746  0.2834 -1.0460
  425HK4    C2435686   9.617   8.948   5.038 -0.0630 -0.4833 -0.1783
  425HK4    H1135687   9.606   9.013   5.126 -1.6016 -0.2150 -0.5471
  425HK4    C2335688   9.586   8.813   5.042 -0.6131 -0.3511  0.0793
  425HK4    H1035689   9.561   8.762   5.135  2.2109  0.7903  1.5017
  425HK4    C3935690   9.440   8.532   4.952 -0.4416  0.1648  0.2226
  425HK4    C4135691   9.409   8.533   5.090  0.3935 -0.8592  0.4256
  425HK4    H2135692   9.487   8.552   5.164 -1.3361  2.7841  1.4185
  425HK4    C4235693   9.287   8.487   5.138 -0.1091  0.1790  0.1745
  425HK4    H2235694   9.268   8.488   5.247  2.7999 -0.4987  0.7314
  425HK4    C4335695   9.190   8.438   5.051  0.0796 -0.5718  0.3877
  425HK4    H2335696   9.093   8.409   5.092 -0.4993 -0.1246 -0.6496
  425HK4    C4435697   9.221   8.425   4.917 -0.3917 -0.0152  0.2233
  425HK4    H2435698   9.163   8.371   4.841 -0.1426  1.3248 -0.9478
  425HK4    C4535699   9.343   8.471   4.869 -0.1778 -0.4423  0.3593
  425HK4    H2535700   9.361   8.478   4.761 -4.8060  3.0414 -0.3285
  426HK4    H2835701   9.184   9.742   9.131 -1.7203 -0.2017  0.2150
  426HK4    C4835702   9.211   9.821   9.201 -0.3997 -0.1694 -0.3260
  426HK4    C4735703   9.114   9.903   9.257  0.4772  0.6545 -0.0026
  426HK4    H2735704   9.013   9.912   9.214  0.0470 -2.0413  0.3717
  426HK4    C4635705   9.153   9.991   9.357 -0.0367  0.2586  0.5495
  426HK4    H2635706   9.075  10.054   9.402  0.6845  1.1947  0.5261
  426HK4    C4035707   9.284  10.008   9.406  0.0491  0.1757  0.3463
  426HK4    C5035708   9.379   9.932   9.334 -0.6148  0.1868 -0.5379
  426HK4    H3035709   9.476   9.910   9.381 -1.1041 -0.6397  0.0800
  426HK4    C4935710   9.344   9.835   9.241 -0.4204 -0.1529 -0.2639
  426HK4    H2935711   9.418   9.757   9.219 -1.4892 -1.1080 -0.5267
  426HK4     N235712   9.301  10.051   9.538 -0.1865  0.8250  0.1665
  426HK4    C3035713   9.199  10.040   9.634  0.0566  0.2659  0.3563
  426HK4    C2935714   9.099   9.945   9.649 -0.3656  0.5022 -0.8961
  426HK4    H1535715   9.094   9.863   9.577 -0.7556  0.9338 -1.3614
  426HK4    C2835716   9.024   9.929   9.765  0.6664 -0.3998 -0.3475
  426HK4    C2735717   9.050  10.022   9.868  0.5807 -0.0191 -0.6732
  426HK4    H1435718   8.991  10.012   9.960  2.5312 -0.9966  0.5003
  426HK4    C3235719   9.146  10.123   9.859  0.2867  0.3612  0.4746
  426HK4    H1635720   9.175  10.183   9.945  2.4283 -1.8213  1.3552
  426HK4    C3135721   9.223  10.132   9.744  0.1079  0.2637  0.3479
  426HK4    C3435722   9.347  10.199   9.712 -0.3111  0.7000 -0.3618
  426HK4    C3335723   9.397  10.142   9.588  0.6162 -0.1345  0.3910
  426HK4    C3535724   9.520  10.183   9.540  0.3023 -0.0500 -0.3411
  426HK4    H1735725   9.572  10.112   9.477 -0.2357 -0.3233 -0.4738
  426HK4    C3635726   9.595  10.276   9.612  0.0090 -0.4920  0.5521
  426HK4    H1835727   9.684  10.322   9.565  0.1564 -1.0761  0.2599
  426HK4    C3735728   9.550  10.325   9.733  0.1688  0.0977  0.3751
  426HK4    H1935729   9.611  10.392   9.794  1.8872 -0.9090 -0.2267
  426HK4    C3835730   9.422  10.294   9.780  0.1662 -0.1000  0.2323
  426HK4    H2035731   9.372  10.353   9.857 -1.4050 -0.6945 -0.3147
  426HK4    C1435732   8.891   9.867   9.762  0.4878 -0.0490  0.3322
  426HK4     C935733   8.774   9.923   9.817  0.0163 -0.0204 -0.6781
  426HK4     C835734   8.679   9.836   9.874 -0.0886  0.4515 -0.1228
  426HK4    C1135735   8.693   9.698   9.864  0.4959  0.4684  0.4208
  426HK4     H435736   8.619   9.624   9.899  1.4769 -0.4422  0.6033
  426HK4    C1235737   8.803   9.644   9.799 -0.2713 -0.0834 -0.4447
  426HK4     H535738   8.818   9.535   9.807 -2.4694 -0.5762 -2.4329
  426HK4    C1335739   8.901   9.728   9.747  0.0959 -0.0700  0.2629
  426HK4     H635740   8.994   9.689   9.702 -0.6550 -0.9043 -0.5898
  426HK4     C735741   8.553   9.889   9.931 -0.4904 -0.2956 -0.2967
  426HK4     O235742   8.487   9.825  10.013 -0.0999 -0.0229  0.2308
  426HK4     C435743   8.511  10.028   9.901  0.0665  0.0014  0.2892
  426HK4     C335744   8.381  10.057   9.942 -0.2106 -0.2810 -0.3731
  426HK4     H335745   8.323  10.013  10.024 -1.3431  1.7248 -0.0632
  426HK4     C235746   8.321  10.165   9.879 -0.2050  0.2834  0.5765
  426HK4     H235747   8.227  10.199   9.925 -0.9496 -0.6377 -0.2514
  426HK4     C135748   8.385  10.230   9.774  0.1203  0.2104  0.7291
  426HK4     H135749   8.341  10.317   9.722  2.9657  0.5309 -1.2357
  426HK4     C635750   8.513  10.194   9.729 -0.0374  0.4121  0.0940
  426HK4     C535751   8.581  10.093   9.798 -0.5602 -0.1905 -0.2645
  426HK4    C1035752   8.723  10.054   9.770 -0.3703  0.1505  0.2166
  426HK4     O135753   8.801  10.140   9.730 -0.1915 -0.2671 -0.3398
  426HK4    C1635754   8.553  10.259   9.603  0.2318  0.0028 -0.0327
  426HK4    C1535755   8.527  10.396   9.580 -0.0037 -0.0462 -0.0597
  426HK4     H735756   8.496  10.457   9.666 -0.4363 -3.1476  2.0814
  426HK4    C2035757   8.558  10.448   9.455  0.4271 -0.2803 -0.0534
  426HK4     H935758   8.513  10.544   9.429  0.5113 -0.7389 -1.9447
  426HK4    C1935759   8.598  10.370   9.348 -0.7776 -0.3539 -0.4545
  426HK4    C1835760   8.625  10.229   9.372 -0.2728 -0.1414  0.2148
  426HK4    C1735761   8.601  10.180   9.499 -0.2055 -0.4498  0.1072
  426HK4     H835762   8.574  10.074   9.503  1.6085 -0.8973  0.7477
  426HK4     N135763   8.654  10.161   9.252  0.3243  0.0652  0.2411
  426HK4    C2135764   8.659  10.261   9.153  0.1663 -0.3957 -0.2314
  426HK4    C2235765   8.612  10.388   9.205 -0.1923 -0.4538 -0.4142
  426HK4    C2635766   8.608  10.500   9.123  0.0504 -0.0408  0.1429
  426HK4    H1335767   8.560  10.592   9.157  1.5105  1.3931 -1.5361
  426HK4    C2535768   8.651  10.492   8.991  0.2710 -0.1981  0.2237
  426HK4    H1235769   8.651  10.587   8.937  0.8365 -1.0010 -1.2026
  426HK4    C2435770   8.684  10.368   8.938  0.3408 -0.0523 -0.0797
  426HK4    H1135771   8.691  10.353   8.830 -0.1628  0.8237 -0.2374
  426HK4    C2335772   8.695  10.255   9.018 -0.1457 -0.2654 -0.3226
  426HK4    H1035773   8.702  10.153   8.980 -1.8982  1.1263 -4.5582
  426HK4    C3935774   8.704  10.031   9.240 -0.5494 -0.2573  0.0913
  426HK4    C4135775   8.651   9.950   9.137  0.4428  0.3007 -0.8642
  426HK4    H2135776   8.584   9.991   9.060  1.1330 -1.5816 -2.5151
  426HK4    C4235777   8.664   9.813   9.154  0.8821  0.4387 -0.0773
  426HK4    H2235778   8.647   9.742   9.072  1.0645 -1.2054  1.2677
  426HK4    C4335779   8.730   9.753   9.261 -0.0365 -0.3523  0.0525
  426HK4    H2335780   8.743   9.645   9.261  0.4647 -0.3099  1.4251
  426HK4    C4435781   8.787   9.836   9.358 -0.7101  0.0421  0.1201
  426HK4    H2435782   8.837   9.788   9.443  3.5044  1.3712 -1.4752
  426HK4    C4535783   8.781   9.974   9.343  0.1880  0.0437 -0.2874
  426HK4    H2535784   8.812  10.040   9.425 -0.1573  0.4104 -0.4461
  427HK4    H2835785   0.809   7.976   3.421 -0.9751 -0.0974 -0.6776
  427HK4    C4835786   0.763   8.050   3.487 -0.1189 -0.2019  0.0438
  427HK4    C4735787   0.780   8.186   3.464  0.0097 -0.2172  0.0386
  427HK4    H2735788   0.816   8.218   3.365 -1.2746  0.7022 -0.1378
  427HK4    C4635789   0.730   8.282   3.551  0.4769 -0.1214  0.2003
  427HK4    H2635790   0.773   8.382   3.538 -0.8654  0.5228  0.6482
  427HK4    C4035791   0.658   8.243   3.666 -0.1936 -0.2202 -0.2526
  427HK4    C5035792   0.639   8.105   3.689  0.0286 -0.2274 -0.1078
  427HK4    H3035793   0.575   8.063   3.768 -1.2187  1.7300 -0.0474
  427HK4    C4935794   0.691   8.012   3.600 -0.2742 -0.3875 -0.1178
  427HK4    H2935795   0.706   7.910   3.638  0.0031  0.4509  2.1008
  427HK4     N235796   0.632   8.331   3.772  0.5340 -0.4897  0.1491
  427HK4    C3035797   0.710   8.442   3.810  0.3457 -0.4276  0.3604
  427HK4    C2935798   0.842   8.468   3.778  0.0702 -0.1188 -0.5224
  427HK4    H1535799   0.891   8.403   3.705  1.2322  1.1302 -0.8769
  427HK4    C2835800   0.915   8.572   3.834 -0.2240 -0.3149  0.2270
  427HK4    C2735801   0.837   8.654   3.919 -0.0796  0.1840 -0.1128
  427HK4    H1435802   0.901   8.729   3.967  1.0312 -1.4288  0.9939
  427HK4    C3235803   0.710   8.628   3.968 -0.1700  0.1021 -0.3903
  427HK4    H1635804   0.668   8.677   4.056  1.3802  0.8737 -0.0713
  427HK4    C3135805   0.640   8.524   3.908 -0.0361 -0.1104 -0.1721
  427HK4    C3435806   0.507   8.469   3.922  0.1319 -0.3834  0.4025
  427HK4    C3335807   0.507   8.354   3.833  0.4825  0.0396 -0.1493
  427HK4    C3535808   0.382   8.316   3.786  0.1532 -0.4559  1.0848
  427HK4    H1735809   0.364   8.218   3.741 -0.0857  0.4508 -0.8776
  427HK4    C3635810   0.266   8.385   3.821  0.4173  0.3929  0.3124
  427HK4    H1835811   0.171   8.367   3.770  1.3236  1.2389 -1.7466
  427HK4    C3735812   0.274   8.489   3.913 -0.2053  0.4751  0.2745
  427HK4    H1935813   0.177   8.529   3.944 -0.2830  1.2127 -0.8947
  427HK4    C3835814   0.393   8.536   3.966  0.1835  0.2351 -0.3927
  427HK4    H2035815   0.407   8.618   4.036 -1.4952  2.7678 -2.9006
  427HK4    C1435816   1.061   8.581   3.826 -0.2959  0.4660 -0.3315
  427HK4     C935817   1.140   8.648   3.920  0.0493 -0.7332  0.2510
  427HK4     C835818   1.254   8.718   3.876 -0.3965 -0.1087  0.0960
  427HK4    C1135819   1.296   8.706   3.744  0.0968  0.1821  0.2234
  427HK4     H435820   1.394   8.747   3.716  0.0985 -0.6162 -0.9743
  427HK4    C1235821   1.230   8.625   3.652  0.4545  0.3191 -0.1528
  427HK4     H535822   1.273   8.617   3.551  0.7352  0.9462 -0.0846
  427HK4    C1335823   1.111   8.567   3.695  0.5650  0.2184  0.0163
  427HK4     H635824   1.065   8.488   3.633 -1.5389  1.0479  0.4731
  427HK4     C735825   1.324   8.805   3.973 -0.1894  0.3232 -0.4273
  427HK4     O235826   1.422   8.870   3.937  0.4015 -0.1339  0.3405
  427HK4     C435827   1.285   8.798   4.116  0.1709 -0.2634 -0.3535
  427HK4     C335828   1.347   8.884   4.205  0.2405 -0.1005 -0.5605
  427HK4     H335829   1.433   8.944   4.170  0.6812 -0.6522 -0.4242
  427HK4     C235830   1.317   8.883   4.341 -0.1130 -0.4181 -0.6414
  427HK4     H235831   1.367   8.950   4.412  1.7913 -2.2488 -0.1942
  427HK4     C135832   1.214   8.800   4.384 -0.1132 -0.2492 -0.3128
  427HK4     H135833   1.206   8.787   4.493  3.6834 -1.2100 -0.0976
  427HK4     C635834   1.137   8.718   4.299 -0.3529  0.0537 -0.3907
  427HK4     C535835   1.186   8.712   4.168  0.3271 -0.3000 -0.1249
  427HK4    C1035836   1.120   8.626   4.066 -0.7530  0.0546  0.2668
  427HK4     O135837   1.127   8.506   4.095 -0.3915  0.1221  0.4599
  427HK4    C1635838   0.994   8.707   4.331 -0.5183  0.3416 -1.0218
  427HK4    C1535839   0.937   8.807   4.414 -0.3334 -0.1456 -0.3116
  427HK4     H735840   0.998   8.885   4.463  2.5682 -2.3180 -0.2552
  427HK4    C2035841   0.803   8.799   4.447 -0.1280 -0.1296  0.5511
  427HK4     H935842   0.747   8.879   4.496  1.3722  1.3331 -0.0973
  427HK4    C1935843   0.724   8.692   4.405  0.1014  0.0843 -0.4228
  427HK4    C1835844   0.786   8.582   4.334 -0.1394  0.2590 -0.9056
  427HK4    C1735845   0.921   8.593   4.300  0.1842 -0.4399  0.1462
  427HK4     H835846   0.963   8.501   4.262  0.6450  0.1206 -0.7153
  427HK4     N135847   0.705   8.468   4.323 -0.0165  0.0676  0.1144
  427HK4    C2135848   0.579   8.515   4.365 -0.1369  0.1375 -0.3174
  427HK4    C2235849   0.590   8.643   4.431  0.0220  0.2391 -0.5377
  427HK4    C2635850   0.470   8.708   4.458 -0.0907 -0.3543  0.4209
  427HK4    H1335851   0.483   8.797   4.520  0.3064 -1.2759  1.6981
  427HK4    C2535852   0.343   8.670   4.419  0.1623 -0.2183 -0.5314
  427HK4    H1235853   0.255   8.730   4.443  0.5049 -0.2522  0.8274
  427HK4    C2435854   0.337   8.553   4.343  0.1263 -0.0439 -0.8018
  427HK4    H1135855   0.252   8.533   4.275 -0.4063  0.5131 -0.3086
  427HK4    C2335856   0.452   8.478   4.322 -0.0107 -0.4207 -0.2175
  427HK4    H1035857   0.448   8.397   4.249  1.8817  0.1325 -0.9726
  427HK4    C3935858   0.729   8.343   4.265 -0.7943 -0.0955  0.1359
  427HK4    C4135859   0.650   8.228   4.289 -0.8792 -0.1573 -0.4126
  427HK4    H2135860   0.594   8.232   4.384  0.9748  5.4127  0.6582
  427HK4    C4235861   0.655   8.119   4.204 -0.4187 -0.0487 -0.5250
  427HK4    H2235862   0.580   8.039   4.213  0.0792 -0.2869  1.7444
  427HK4    C4335863   0.731   8.123   4.087  0.4804 -0.5938  0.0386
  427HK4    H2335864   0.713   8.046   4.012 -0.3649 -1.9674  1.6237
  427HK4    C4435865   0.810   8.234   4.062 -0.5582  0.2417  0.4130
  427HK4    H2435866   0.876   8.248   3.975  0.5311  2.8382  1.6084
  427HK4    C4535867   0.809   8.343   4.148 -0.6580  0.3872  0.2289
  427HK4    H2535868   0.837   8.433   4.092  0.7330 -0.4361 -0.4129
  428HK4    H2835869   3.776   0.801   5.975  0.7559  0.1645  1.7377
  428HK4    C4835870   3.718   0.887   6.008 -0.0879  0.2832  0.0356
  428HK4    C4735871   3.579   0.892   6.002 -0.0942  0.0774  0.0046
  428HK4    H2735872   3.523   0.824   5.935 -1.1163 -0.4696  1.3956
  428HK4    C4635873   3.523   1.013   6.042 -0.0436  0.0879  0.0420
  428HK4    H2635874   3.414   1.008   6.059  0.1029  0.8683  1.2986
  428HK4    C4035875   3.592   1.121   6.100 -0.1370  0.6159 -0.8269
  428HK4    C5035876   3.733   1.108   6.099 -0.1564  0.2842 -0.1259
  428HK4    H3035877   3.794   1.199   6.107  1.9139 -1.3137  3.0455
  428HK4    C4935878   3.796   0.994   6.051 -0.0606  0.1838  0.2398
  428HK4    H2935879   3.903   0.981   6.068 -0.0019  1.0278  0.5288
  428HK4     N235880   3.530   1.246   6.113 -0.3845  0.3628  0.4514
  428HK4    C3035881   3.428   1.298   6.031 -0.0281  0.1761 -0.1134
  428HK4    C2935882   3.379   1.254   5.909  0.0270  0.2238 -0.1519
  428HK4    H1535883   3.430   1.170   5.861 -0.0665 -0.3422  0.7241
  428HK4    C2835884   3.270   1.312   5.845 -0.3777 -0.4295 -0.0638
  428HK4    C2735885   3.214   1.429   5.902  0.7558  0.3067 -0.4454
  428HK4    H1435886   3.144   1.489   5.842  3.4877  1.0408 -2.9978
  428HK4    C3235887   3.260   1.471   6.026  0.0700  0.3270 -0.1954
  428HK4    H1635888   3.228   1.569   6.063  2.8045  1.3929 -0.5401
  428HK4    C3135889   3.369   1.416   6.091 -0.2171  0.0142  0.0201
  428HK4    C3435890   3.448   1.446   6.209  0.6198  0.2242 -0.5921
  428HK4    C3335891   3.552   1.344   6.212  0.6013  0.2276  0.3756
  428HK4    C3535892   3.626   1.326   6.328  0.5515  0.0114  0.3724
  428HK4    H1735893   3.720   1.272   6.319 -0.7010 -2.3113  0.8474
  428HK4    C3635894   3.605   1.400   6.444 -0.0493 -0.0455  0.3030
  428HK4    H1835895   3.653   1.376   6.540  1.7175  1.1142 -0.2565
  428HK4    C3735896   3.513   1.504   6.436 -0.1906 -0.2112 -0.2830
  428HK4    H1935897   3.510   1.576   6.518  1.8822 -0.2658 -0.1292
  428HK4    C3835898   3.437   1.527   6.322 -0.1718 -0.2759 -0.3081
  428HK4    H2035899   3.377   1.617   6.315  0.4552  0.0900 -1.1770
  428HK4    C1435900   3.218   1.259   5.719  0.1564  0.2089 -0.5552
  428HK4     C935901   3.136   1.330   5.630  0.0374  0.1805 -0.4686
  428HK4     C835902   3.023   1.274   5.567 -0.0316 -0.0459 -0.1466
  428HK4    C1135903   3.009   1.137   5.582  1.0419 -0.2282 -0.7542
  428HK4     H435904   2.934   1.099   5.510 -1.6449  1.9841  0.7833
  428HK4    C1235905   3.099   1.056   5.650 -0.0029 -0.2995  0.5683
  428HK4     H535906   3.104   0.949   5.624 -1.6477 -0.2689  0.0848
  428HK4    C1335907   3.204   1.119   5.717  0.3854  0.1846 -0.4757
  428HK4     H635908   3.283   1.055   5.759  1.5100  1.1727 -1.0933
  428HK4     C735909   2.922   1.357   5.497  0.1011 -0.0669 -0.3641
  428HK4     O235910   2.822   1.310   5.443 -0.3478  0.0805  0.3255
  428HK4     C435911   2.949   1.502   5.496  0.0697 -0.0519  0.5591
  428HK4     C335912   2.847   1.595   5.476  0.2059 -0.1398 -0.5847
  428HK4     H335913   2.743   1.560   5.473 -0.0531  0.6992 -1.6674
  428HK4     C235914   2.871   1.731   5.458 -0.1559  0.0082  0.0567
  428HK4     H235915   2.793   1.809   5.453 -0.1758 -0.0089  0.0984
  428HK4     C135916   3.005   1.767   5.449 -0.1758 -0.1063 -0.6928
  428HK4     H135917   3.025   1.874   5.440  2.3394 -0.3185  1.8180
  428HK4     C635918   3.112   1.675   5.447 -0.0185  0.0697 -0.2779
  428HK4     C535919   3.083   1.547   5.494  0.1044 -0.2040 -0.9530
  428HK4    C1035920   3.174   1.465   5.579 -0.1524  0.3659 -0.1243
  428HK4     O135921   3.276   1.517   5.625 -0.1308  0.2125  0.0018
  428HK4    C1635922   3.236   1.720   5.382  0.3203 -0.2878  0.1217
  428HK4    C1535923   3.261   1.855   5.350  0.1803 -0.3252 -0.1477
  428HK4     H735924   3.206   1.934   5.405  1.4082  0.5159 -0.1105
  428HK4    C2035925   3.365   1.903   5.272  0.1451  0.1793  0.1093
  428HK4     H935926   3.381   2.009   5.254  3.5523 -0.5150 -1.3804
  428HK4    C1935927   3.459   1.808   5.233 -0.4891 -0.2084 -0.4812
  428HK4    C1835928   3.441   1.669   5.268  0.4542 -0.1496  0.2577
  428HK4    C1735929   3.325   1.626   5.332  0.1492 -0.2119 -0.3263
  428HK4     H835930   3.295   1.522   5.331 -0.4222 -0.0475 -2.1788
  428HK4     N135931   3.538   1.589   5.204  0.1385 -0.1464 -0.2264
  428HK4    C2135932   3.611   1.672   5.115 -0.1160  0.2532 -0.0678
  428HK4    C2235933   3.563   1.807   5.132 -0.4907  0.1698 -0.4883
  428HK4    C2635934   3.599   1.906   5.041  0.4491  0.3599  0.0881
  428HK4    H1335935   3.570   2.010   5.053  0.0998  0.0956  1.5437
  428HK4    C2535936   3.677   1.869   4.932  0.4314 -0.0488  0.2117
  428HK4    H1235937   3.710   1.947   4.864  0.3290 -0.8059 -0.7235
  428HK4    C2435938   3.723   1.739   4.915 -0.3908 -0.2692 -0.3512
  428HK4    H1135939   3.740   1.709   4.810  1.5920  0.2410 -0.1803
  428HK4    C2335940   3.696   1.641   5.010  0.1228  0.0940  0.1705
  428HK4    H1035941   3.733   1.538   5.004 -1.0945 -0.4259  1.2536
  428HK4    C3935942   3.614   1.496   5.275  0.4647  0.2787 -0.0138
  428HK4    C4135943   3.694   1.393   5.221 -0.1957 -0.2876  0.0697
  428HK4    H2135944   3.676   1.364   5.116 -0.0976 -0.2649  0.0473
  428HK4    C4235945   3.799   1.341   5.295  0.1647  0.8796  0.3986
  428HK4    H2235946   3.887   1.304   5.241 -0.6526 -0.3351 -0.1335
  428HK4    C4335947   3.821   1.366   5.430  0.0399 -0.5472  0.6947
  428HK4    H2335948   3.894   1.309   5.488  1.0046 -0.4590 -0.4073
  428HK4    C4435949   3.739   1.460   5.491  0.3228  0.0023  0.2297
  428HK4    H2435950   3.741   1.470   5.601 -0.9415  0.3009  0.2319
  428HK4    C4535951   3.644   1.521   5.411  0.4114 -0.0738  0.0659
  428HK4    H2535952   3.597   1.615   5.445 -0.3384  0.7234 -2.9682
  429HK4    H2835953   4.300   5.573   3.500  1.2388 -0.5330 -0.8986
  429HK4    C4835954   4.230   5.579   3.417 -0.0211 -0.0545  0.1728
  429HK4    C4735955   4.232   5.465   3.338 -0.1442 -0.2026  0.3861
  429HK4    H2735956   4.274   5.370   3.375 -1.3749 -0.3975  1.2875
  429HK4    C4635957   4.148   5.463   3.227  0.4320 -0.1119 -0.0596
  429HK4    H2635958   4.125   5.369   3.175 -0.8891  0.0345  0.2493
  429HK4    C4035959   4.076   5.573   3.179  0.2810 -0.2288 -0.1030
  429HK4    C5035960   4.085   5.691   3.256 -0.1852 -0.4048  0.2228
  429HK4    H3035961   4.047   5.786   3.215 -4.1409 -1.3838  1.3608
  429HK4    C4935962   4.155   5.689   3.375 -0.2080 -0.1554  0.2415
  429HK4    H2935963   4.143   5.771   3.447 -0.3057  0.7452 -0.8021
  429HK4     N235964   4.040   5.592   3.044  0.1209 -0.3986 -0.0847
  429HK4    C3035965   4.091   5.531   2.928 -0.0138  0.0014 -0.3544
  429HK4    C2935966   4.206   5.456   2.904 -0.1541 -0.2175 -0.3418
  429HK4    H1535967   4.279   5.448   2.985 -0.2398  0.3156 -0.2080
  429HK4    C2835968   4.247   5.406   2.781  0.2973 -0.0621 -0.2552
  429HK4    C2735969   4.167   5.440   2.671 -0.3231 -0.5974  0.0303
  429HK4    H1435970   4.186   5.394   2.573 -2.0163  1.6417 -1.4126
  429HK4    C3235971   4.054   5.519   2.686  0.1394  0.0511  0.1032
  429HK4    H1635972   4.005   5.559   2.597  1.3003  0.3145 -0.4192
  429HK4    C3135973   4.011   5.563   2.811 -0.5092 -0.1368 -0.0516
  429HK4    C3435974   3.911   5.654   2.862  0.0153  0.3806  0.0636
  429HK4    C3335975   3.920   5.655   3.007 -0.0143 -0.5587  0.0783
  429HK4    C3535976   3.816   5.716   3.077  0.2130  0.5317 -0.5133
  429HK4    H1735977   3.820   5.725   3.186 -3.5522  0.9293 -0.3586
  429HK4    C3635978   3.714   5.780   3.009 -0.4220  0.1495  0.0684
  429HK4    H1835979   3.648   5.846   3.068 -0.3123  1.4518 -1.2294
  429HK4    C3735980   3.703   5.779   2.870 -0.4410 -0.7806  0.0790
  429HK4    H1935981   3.616   5.810   2.812  0.1425  0.0662 -0.3423
  429HK4    C3835982   3.801   5.711   2.799 -0.0418  0.0319 -0.1509
  429HK4    H2035983   3.797   5.716   2.690  1.4242 -4.5145 -0.5378
  429HK4    C1435984   4.364   5.317   2.774  0.4517  0.1089  0.0858
  429HK4     C935985   4.434   5.297   2.654  0.2870 -0.6085  0.1082
  429HK4     C835986   4.462   5.167   2.606  0.2266 -0.4771 -0.2809
  429HK4    C1135987   4.436   5.060   2.690 -0.2823 -0.1440 -0.0146
  429HK4     H435988   4.429   4.961   2.643  0.5715  0.0795 -0.6269
  429HK4    C1235989   4.385   5.081   2.818 -0.2727 -0.4397  0.0385
  429HK4     H535990   4.378   4.999   2.890  0.1195 -0.5687 -0.0682
  429HK4    C1335991   4.347   5.207   2.861  0.5788 -0.1074 -0.1627
  429HK4     H635992   4.293   5.213   2.957 -0.9181  0.2723 -1.0092
  429HK4     C735993   4.522   5.154   2.471 -0.0672 -0.2309 -0.4377
  429HK4     O235994   4.481   5.065   2.397 -0.0243 -0.2085 -0.4893
  429HK4     C435995   4.596   5.268   2.413  0.5991 -0.2436  0.3659
  429HK4     C335996   4.684   5.247   2.307 -0.3970 -0.0833 -0.5055
  429HK4     H335997   4.696   5.141   2.277 -0.0678  0.5408 -2.6482
  429HK4     C235998   4.771   5.341   2.253  0.2138  0.0704  0.7113
  429HK4     H235999   4.818   5.318   2.156 -2.6293 -1.9030 -0.2635
  429HK4     C136000   4.771   5.463   2.320  0.5011  0.4835 -0.0356
  429HK4     H136001   4.840   5.543   2.289  0.5873  1.7960  3.3792
  429HK4     C636002   4.699   5.487   2.438 -0.1400 -0.4042 -0.2423
  429HK4     C536003   4.607   5.391   2.481 -0.4937  0.0484  0.0282
  429HK4    C1036004   4.502   5.409   2.585  0.1352 -0.1522  0.7017
  429HK4     O136005   4.451   5.521   2.586  0.7273  0.1354 -0.4365
  429HK4    C1636006   4.744   5.598   2.523 -0.0402 -0.3599 -0.3522
  429HK4    C1536007   4.814   5.707   2.468  0.1327 -0.1011  0.3728
  429HK4     H736008   4.775   5.738   2.370 -1.0275  1.0790  1.1938
  429HK4    C2036009   4.874   5.807   2.544  0.6005 -0.4931  0.5257
  429HK4     H936010   4.940   5.882   2.500  0.5357 -0.9029 -0.2981
  429HK4    C1936011   4.870   5.806   2.683 -0.4934 -0.2622  0.5017
  429HK4    C1836012   4.790   5.700   2.741  0.0939 -0.5556  0.7795
  429HK4    C1736013   4.740   5.598   2.662  1.0827 -0.2129 -0.3127
  429HK4     H836014   4.709   5.508   2.716  2.3257  0.1679  1.0634
  429HK4     N136015   4.776   5.718   2.880 -0.2576  0.1447  0.6587
  429HK4    C2136016   4.854   5.832   2.908 -0.3705  0.3377  0.1828
  429HK4    C2236017   4.911   5.895   2.790 -0.2175  0.0740  0.1181
  429HK4    C2636018   4.991   6.009   2.793  0.2264 -0.2321  0.1249
  429HK4    H1336019   5.013   6.048   2.694 -1.2873  2.2418  0.7233
  429HK4    C2536020   5.021   6.064   2.916  0.4223 -0.0586 -0.0018
  429HK4    H1236021   5.086   6.150   2.934  0.5313 -0.4981  1.7682
  429HK4    C2436022   4.970   6.006   3.031 -0.0359 -0.2146 -0.2866
  429HK4    H1136023   5.001   6.049   3.128 -1.9618  1.4334 -0.3667
  429HK4    C2336024   4.886   5.895   3.027 -0.2668 -0.0655  0.3699
  429HK4    H1036025   4.821   5.878   3.114 -1.4579 -0.7614 -0.6358
  429HK4    C3936026   4.655   5.687   2.942 -0.6340  0.5407  0.1288
  429HK4    C4136027   4.662   5.665   3.082 -0.5432 -0.7155 -0.0624
  429HK4    H2136028   4.752   5.620   3.124  1.1292  0.6647 -2.0629
  429HK4    C4236029   4.548   5.671   3.162 -0.1455  0.8605  0.4158
  429HK4    H2236030   4.560   5.641   3.267  0.0171  0.1804  0.2051
  429HK4    C4336031   4.426   5.693   3.099 -0.0729  0.4491  0.1265
  429HK4    H2336032   4.344   5.714   3.168 -0.8479 -0.5961 -0.4609
  429HK4    C4436033   4.412   5.724   2.965 -0.1505  0.3080  0.1012
  429HK4    H2436034   4.314   5.750   2.922  0.3258 -0.9142 -1.7771
  429HK4    C4536035   4.529   5.724   2.890 -0.4996  0.1827 -0.4466
  429HK4    H2536036   4.523   5.736   2.781  1.1974 -1.3115 -0.7348
  430HK4    H2836037   7.076  10.619   4.801 -0.5259  0.2063 -1.9426
  430HK4    C4836038   7.088  10.728   4.797 -0.1967  0.2280 -0.5918
  430HK4    C4736039   6.975  10.808   4.805 -0.1796  0.1335  0.6260
  430HK4    H2736040   6.875  10.774   4.836 -0.3842 -0.2921 -0.4868
  430HK4    C4636041   6.981  10.941   4.765 -0.0347 -0.1043 -0.1408
  430HK4    H2636042   6.883  10.991   4.756 -0.1564 -0.3067  0.0569
  430HK4    C4036043   7.103  10.999   4.728 -0.4200  0.3385 -0.7301
  430HK4    C5036044   7.217  10.916   4.719 -0.3793  0.2915  0.1880
  430HK4    H3036045   7.300  10.948   4.654 -0.2266  1.6831  1.0337
  430HK4    C4936046   7.210  10.784   4.761  0.0174  0.2656  0.1850
  430HK4    H2936047   7.299  10.722   4.743 -0.6892 -0.6864 -0.0711
  430HK4     N236048   7.100  11.128   4.673  0.2682  0.5869 -0.2028
  430HK4    C3036049   6.987  11.191   4.617  0.0969  0.1871 -0.3070
  430HK4    C2936050   6.893  11.133   4.533 -0.2957 -0.3594  0.5060
  430HK4    H1536051   6.923  11.041   4.481  0.9481  0.1893  0.2364
  430HK4    C2836052   6.794  11.207   4.470  0.3077 -0.0667 -0.1032
  430HK4    C2736053   6.799   0.098   4.493  0.5149 -0.0538 -0.2168
  430HK4    H1436054   6.716   0.161   4.457 -0.8932 -0.5569  2.0303
  430HK4    C3236055   6.894   0.160   4.573  0.0015  0.3271  0.1031
  430HK4    H1636056   6.899   0.269   4.581 -1.7734  0.3528  1.1092
  430HK4    C3136057   6.993   0.086   4.638 -0.3186  0.1134  0.3513
  430HK4    C3436058   7.124   0.115   4.693  0.1409  0.0972 -0.7205
  430HK4    C3336059   7.182  11.233   4.719 -0.1483  0.3331  1.1278
  430HK4    C3536060   7.310  11.233   4.772  0.3208 -0.0112  0.0059
  430HK4    H1736061   7.361  11.137   4.783  2.0606  0.6754 -1.7476
  430HK4    C3636062   7.382   0.103   4.786  0.4050 -0.0492 -0.1248
  430HK4    H1836063   7.484   0.097   4.828  0.8243 -1.3601 -1.2947
  430HK4    C3736064   7.333   0.227   4.746  0.1427 -0.2183 -0.3276
  430HK4    H1936065   7.384   0.324   4.745 -1.4308  0.6106 -2.3258
  430HK4    C3836066   7.199   0.231   4.710  0.1560  0.0336 -0.3568
  430HK4    H2036067   7.163   0.327   4.675  1.7581 -0.0381 -2.3051
  430HK4    C1436068   6.724  11.142   4.358 -1.0071  0.6848  0.2732
  430HK4     C936069   6.694  11.191   4.231  0.0082 -0.5054 -0.4371
  430HK4     C836070   6.600  11.132   4.144 -0.3472 -0.1566 -0.2889
  430HK4    C1136071   6.530  11.022   4.192  0.4348 -0.5637 -0.0696
  430HK4     H436072   6.442  10.981   4.140 -1.0650  1.0881  1.1229
  430HK4    C1236073   6.551  10.972   4.320  0.6973 -0.2577  0.0101
  430HK4     H536074   6.491  10.886   4.355  0.6127 -0.3696 -0.4010
  430HK4    C1336075   6.654  11.025   4.396  0.1689  0.0554  0.5115
  430HK4     H636076   6.699  10.969   4.480  2.2464 -2.6187 -2.2753
  430HK4     C736077   6.542  11.212   4.034 -0.0511  0.3645 -0.0684
  430HK4     O236078   6.502  11.146   3.938 -0.2926  0.0212  0.2680
  430HK4     C436079   6.564   0.110   4.027  0.1465  0.3193 -0.3952
  430HK4     C336080   6.484   0.182   3.939 -0.1222 -0.4651 -0.7997
  430HK4     H336081   6.421   0.130   3.865  0.0531 -0.0465 -1.2444
  430HK4     C236082   6.487   0.321   3.940  0.1703 -0.4737 -0.4089
  430HK4     H236083   6.427   0.386   3.875 -0.1425 -0.8107 -0.4549
  430HK4     C136084   6.580   0.377   4.027 -0.3694 -0.3204  0.0746
  430HK4     H136085   6.580   0.487   4.027 -0.8529 -0.3046 -2.0525
  430HK4     C636086   6.677   0.310   4.105 -0.0269  0.0310 -0.0460
  430HK4     C536087   6.667   0.170   4.102 -0.0859  0.0319  0.1518
  430HK4    C1036088   6.743   0.078   4.191 -0.2481 -0.2942 -0.0449
  430HK4     O136089   6.865   0.093   4.192 -0.2441 -0.2916 -0.4874
  430HK4    C1636090   6.719   0.385   4.224  0.0497  0.5668 -0.4084
  430HK4    C1536091   6.625   0.464   4.294 -0.2323  0.0102 -0.1547
  430HK4     H736092   6.519   0.445   4.274 -0.2690  0.2700 -0.2126
  430HK4    C2036093   6.659   0.557   4.391 -0.0867  0.1992 -0.3877
  430HK4     H936094   6.588   0.610   4.455 -0.3678 -1.7204  0.9352
  430HK4    C1936095   6.793   0.574   4.427 -0.0769  0.5737 -0.5926
  430HK4    C1836096   6.891   0.495   4.355 -0.2589 -0.1549 -0.0462
  430HK4    C1736097   6.852   0.402   4.259  0.0241 -0.5894  0.2576
  430HK4     H836098   6.924   0.350   4.196  1.0194  0.6970  0.3095
  430HK4     N136099   7.019   0.531   4.401 -0.2791 -0.1570  0.0119
  430HK4    C2136100   7.009   0.631   4.500  0.0989 -0.1203  0.0146
  430HK4    C2236101   6.868   0.656   4.520  0.0658 -0.4999  0.2511
  430HK4    C2636102   6.830   0.762   4.601 -0.1765 -0.0265 -0.4751
  430HK4    H1336103   6.723   0.777   4.616 -0.2965 -1.3622  0.1096
  430HK4    C2536104   6.923   0.844   4.664 -0.5722  0.1993 -0.1789
  430HK4    H1236105   6.891   0.935   4.714  0.9742  0.2777  0.7193
  430HK4    C2436106   7.058   0.813   4.654 -0.5535  0.2446 -0.0514
  430HK4    H1136107   7.128   0.880   4.707 -0.1704  0.3043 -0.6315
  430HK4    C2336108   7.099   0.711   4.569 -0.2888 -0.3583  0.7937
  430HK4    H1036109   7.202   0.678   4.560 -0.0513  0.4500  0.5311
  430HK4    C3936110   7.136   0.459   4.376 -0.0596  0.2898 -0.2691
  430HK4    C4136111   7.259   0.527   4.386 -0.0797  0.1452  1.1980
  430HK4    H2136112   7.267   0.628   4.343  0.5955 -0.4386 -0.0903
  430HK4    C4236113   7.376   0.453   4.402 -0.2098 -0.1895  0.6224
  430HK4    H2236114   7.474   0.501   4.408 -1.1365  1.9875 -0.9795
  430HK4    C4336115   7.373   0.315   4.389 -0.4457 -0.1331  0.0588
  430HK4    H2336116   7.466   0.261   4.409  0.7362  1.9363  0.3139
  430HK4    C4436117   7.257   0.242   4.368 -0.2993 -0.2399 -0.3880
  430HK4    H2436118   7.257   0.132   4.357 -0.1254 -0.2424 -0.3636
  430HK4    C4536119   7.140   0.318   4.369  0.0607  0.3301 -1.0611
  430HK4    H2536120   7.044   0.264   4.372  1.1406 -1.5499  1.8479
  431HK4    H2836121   4.657   3.609   5.294  1.7586 -0.0295  0.6067
  431HK4    C4836122   4.627   3.525   5.357 -0.3870  0.1833 -0.0861
  431HK4    C4736123   4.643   3.524   5.495 -0.3784  0.1320 -0.0890
  431HK4    H2736124   4.684   3.612   5.547  1.0094 -0.1500 -0.6712
  431HK4    C4636125   4.602   3.409   5.562  0.5355 -0.0947  0.0857
  431HK4    H2636126   4.609   3.415   5.671  0.4056  1.7556  0.0063
  431HK4    C4036127   4.561   3.290   5.499  0.3311  0.1592 -0.2658
  431HK4    C5036128   4.549   3.294   5.358  0.8667 -0.8286 -0.3499
  431HK4    H3036129   4.509   3.209   5.302  0.6833 -1.1860  0.3093
  431HK4    C4936130   4.579   3.412   5.291  0.3077 -0.3284  0.2757
  431HK4    H2936131   4.571   3.417   5.182 -2.8766  0.4317  0.4866
  431HK4     N236132   4.590   3.160   5.542  0.1851  0.0800 -0.4106
  431HK4    C3036133   4.688   3.126   5.638 -0.3095  0.0609  0.0978
  431HK4    C2936134   4.795   3.202   5.684  0.3874 -0.5406 -0.5076
  431HK4    H1536135   4.826   3.292   5.630  0.2058 -0.1309  0.0614
  431HK4    C2836136   4.880   3.157   5.784  0.8107 -0.2408 -0.7318
  431HK4    C2736137   4.855   3.030   5.838 -0.2191  0.0747 -0.4661
  431HK4    H1436138   4.894   3.008   5.938 -1.9526  1.3636  0.5297
  431HK4    C3236139   4.755   2.948   5.787 -0.4173 -0.0366  0.0908
  431HK4    H1636140   4.736   2.843   5.809  1.8530 -0.6714 -0.8247
  431HK4    C3136141   4.665   2.993   5.691 -0.1794 -0.0598 -0.1435
  431HK4    C3436142   4.546   2.939   5.627 -0.2997 -0.1370  0.1430
  431HK4    C3336143   4.501   3.050   5.545  0.2311  0.0554  0.1107
  431HK4    C3536144   4.369   3.039   5.502  0.4082 -0.4337 -0.3150
  431HK4    H1736145   4.318   3.114   5.443  0.1539  0.0245  0.4779
  431HK4    C3636146   4.282   2.936   5.536  0.0262  0.0096  0.0551
  431HK4    H1836147   4.176   2.929   5.505  0.0296 -2.4895  0.5106
  431HK4    C3736148   4.327   2.833   5.617  0.2820 -0.2480 -0.4144
  431HK4    H1936149   4.265   2.751   5.654  1.0373 -1.9802 -2.8664
  431HK4    C3836150   4.461   2.834   5.656  0.1706 -0.5680 -0.0292
  431HK4    H2036151   4.497   2.746   5.711 -0.8294 -0.6426  0.5228
  431HK4    C1436152   5.012   3.222   5.791  0.6172  0.0888 -0.1861
  431HK4     C936153   5.131   3.150   5.780  0.0329 -0.9282  0.0882
  431HK4     C836154   5.251   3.190   5.843 -0.1370 -0.1258 -0.0902
  431HK4    C1136155   5.248   3.312   5.909  0.0114 -0.5185  0.6515
  431HK4     H436156   5.342   3.353   5.950  0.1718 -0.6554  0.4252
  431HK4    C1236157   5.131   3.388   5.910  0.2297 -0.1559 -0.5234
  431HK4     H536158   5.146   3.495   5.932  1.9898 -0.6022  0.5744
  431HK4    C1336159   5.009   3.345   5.860 -0.0824 -0.1674  0.2482
  431HK4     H636160   4.930   3.422   5.854  1.1730  1.3252  2.0832
  431HK4     C736161   5.361   3.093   5.862 -0.0561  0.0117  0.1557
  431HK4     O236162   5.473   3.137   5.886 -0.0699 -0.1895  0.5895
  431HK4     C436163   5.333   2.954   5.820 -0.0692  0.0003  0.2048
  431HK4     C336164   5.420   2.855   5.864 -0.2178  0.0699  0.6495
  431HK4     H336165   5.497   2.886   5.936 -0.4631  0.3859  0.7782
  431HK4     C236166   5.403   2.723   5.823 -0.1846  0.2747 -0.0133
  431HK4     H236167   5.477   2.645   5.845  0.8056  0.8837 -1.0696
  431HK4     C136168   5.298   2.686   5.740 -0.1444 -0.1928  0.1406
  431HK4     H136169   5.302   2.583   5.704 -1.4444 -0.1059 -0.2889
  431HK4     C636170   5.207   2.783   5.692 -0.3334 -0.3617  0.1547
  431HK4     C536171   5.229   2.916   5.732  0.5722 -0.3418 -0.4094
  431HK4    C1036172   5.133   3.025   5.700  0.3322 -0.5712 -0.4677
  431HK4     O136173   5.117   3.047   5.580  0.2205  0.3494 -0.2859
  431HK4    C1636174   5.083   2.722   5.642  0.0389 -0.7401 -0.3065
  431HK4    C1536175   5.031   2.599   5.688  0.4461 -0.6518  0.4026
  431HK4     H736176   5.066   2.558   5.784  2.3930 -0.1942 -0.0898
  431HK4    C2036177   4.926   2.530   5.630 -0.3463  0.4969  0.4516
  431HK4     H936178   4.905   2.429   5.667 -0.8529  0.3642 -0.1767
  431HK4    C1936179   4.870   2.583   5.514  0.2682 -0.6823 -0.3946
  431HK4    C1836180   4.917   2.708   5.457 -0.0655 -0.3378  0.0829
  431HK4    C1736181   5.025   2.764   5.523 -0.3534  0.1110  0.1803
  431HK4     H836182   5.091   2.829   5.466 -1.8802 -0.0403 -1.8057
  431HK4     N136183   4.850   2.740   5.336  0.1137 -0.0313  0.0641
  431HK4    C2136184   4.764   2.631   5.312  0.1346  0.0250 -0.2717
  431HK4    C2236185   4.783   2.528   5.413 -0.2312 -0.0686 -0.2993
  431HK4    C2636186   4.701   2.415   5.407  0.1169 -0.3063 -0.5852
  431HK4    H1336187   4.700   2.357   5.499 -0.1297 -0.9071 -0.9682
  431HK4    C2536188   4.605   2.394   5.309  0.2501 -0.3618 -0.7053
  431HK4    H1236189   4.526   2.320   5.323  1.8708 -1.9840  0.0580
  431HK4    C2436190   4.591   2.494   5.214 -0.5183  0.4435  0.2451
  431HK4    H1136191   4.533   2.471   5.123  0.4052 -2.2264  0.3038
  431HK4    C2336192   4.666   2.611   5.216 -0.2160  0.2544  0.0382
  431HK4    H1036193   4.636   2.705   5.168 -0.5998  1.8470  3.2654
  431HK4    C3936194   4.843   2.870   5.286  0.4104  0.0563  0.2494
  431HK4    C4136195   4.816   2.894   5.150 -0.5201 -0.1646  0.3859
  431HK4    H2136196   4.792   2.818   5.074  0.6641 -0.0071 -0.1615
  431HK4    C4236197   4.838   3.021   5.098 -0.5208 -0.4020 -0.2045
  431HK4    H2236198   4.826   3.040   4.991 -0.7934 -1.6613 -0.4064
  431HK4    C4336199   4.882   3.123   5.182  0.1470 -0.4486 -0.4952
  431HK4    H2336200   4.886   3.226   5.145 -0.5073 -0.2281  0.0330
  431HK4    C4436201   4.909   3.099   5.316  0.1396  0.1589 -0.3829
  431HK4    H2436202   4.958   3.179   5.373 -0.6391  0.2634  0.1441
  431HK4    C4536203   4.881   2.975   5.372  0.1033  0.3519  0.0235
  431HK4    H2536204   4.847   2.978   5.477 -0.4751 -0.6580 -0.1300
  432HK4    H2836205  11.031   2.230   1.621 -1.1653 -0.9118  0.6252
  432HK4    C4836206  10.967   2.317   1.609  0.1370 -0.0882 -0.4619
  432HK4    C4736207  10.968   2.434   1.684  0.0886 -0.2333 -0.2352
  432HK4    H2736208  11.039   2.437   1.768 -1.5430  0.0212  1.1597
  432HK4    C4636209  10.899   2.551   1.658 -0.3177 -0.2521  0.7262
  432HK4    H2636210  10.916   2.639   1.722  1.5244  1.0202 -1.4127
  432HK4    C4036211  10.810   2.547   1.548  0.0222  0.2986  0.4258
  432HK4    C5036212  10.801   2.427   1.475  0.4736  0.2563  0.4353
  432HK4    H3036213  10.727   2.420   1.393 -0.3573 -0.0272  1.1976
  432HK4    C4936214  10.874   2.313   1.506 -0.1939 -0.3358 -0.1536
  432HK4    H2936215  10.877   2.228   1.436  2.2010  0.7636 -1.4365
  432HK4     N236216  10.704   2.636   1.535  0.1059  0.3883  0.3644
  432HK4    C3036217  10.635   2.704   1.638 -0.2521  0.3148  0.1763
  432HK4    C2936218  10.627   2.688   1.776 -0.4554 -0.1187  0.1156
  432HK4    H1536219  10.674   2.597   1.812 -0.2353 -0.2427 -0.4902
  432HK4    C2836220  10.548   2.758   1.866  0.0522  0.4744  0.1032
  432HK4    C2736221  10.477   2.866   1.809 -0.7093 -0.0765 -0.0052
  432HK4    H1436222  10.451   2.947   1.878  3.3233  0.1389  1.4368
  432HK4    C3236223  10.479   2.892   1.672 -0.4058  0.1725  0.0446
  432HK4    H1636224  10.428   2.981   1.636 -0.7105 -0.3729 -0.8981
  432HK4    C3136225  10.552   2.811   1.586  0.0926  0.5516  0.1121
  432HK4    C3436226  10.578   2.816   1.443 -0.0406  0.3869  0.0823
  432HK4    C3336227  10.668   2.706   1.417 -0.2458  0.1577  0.3343
  432HK4    C3536228  10.710   2.676   1.288 -0.5622 -0.1054  0.2917
  432HK4    H1736229  10.764   2.584   1.266  3.3662  2.4743 -1.5361
  432HK4    C3636230  10.661   2.751   1.182  0.3331 -0.4855 -0.3939
  432HK4    H1836231  10.699   2.738   1.079 -1.5111 -1.0748 -1.0202
  432HK4    C3736232  10.568   2.851   1.207  0.2628 -0.5941 -0.2225
  432HK4    H1936233  10.521   2.902   1.123 -0.4935 -0.9211  0.0006
  432HK4    C3836234  10.529   2.888   1.335 -0.0402 -0.3272 -0.3908
  432HK4    H2036235  10.440   2.948   1.353  1.5727  1.5082  1.6035
  432HK4    C1436236  10.520   2.721   2.006 -0.0558  0.5284  0.0961
  432HK4     C936237  10.400   2.744   2.075 -0.2870 -0.0576 -0.1153
  432HK4     C836238  10.409   2.751   2.215  0.2215 -0.0938 -0.1423
  432HK4    C1136239  10.532   2.728   2.275  0.2723  0.0574 -0.1910
  432HK4     H436240  10.532   2.736   2.384 -0.3542 -0.5551 -0.1477
  432HK4    C1236241  10.647   2.686   2.210  0.2738 -0.5592  0.2067
  432HK4     H536242  10.740   2.670   2.267 -0.1776 -0.3170  1.0096
  432HK4    C1336243  10.642   2.692   2.071 -0.4446 -0.8337  0.2228
  432HK4     H636244  10.738   2.683   2.018 -0.7752 -2.3458 -0.1504
  432HK4     C736245  10.290   2.767   2.302  0.2324 -0.2809 -0.0922
  432HK4     O236246  10.301   2.812   2.415  0.2244  0.6486 -0.4613
  432HK4     C436247  10.158   2.769   2.234  0.2019 -0.5529 -0.0379
  432HK4     C336248  10.042   2.770   2.310 -0.0333 -0.3018 -0.3898
  432HK4     H336249  10.051   2.758   2.419 -0.2275 -0.3832 -0.3834
  432HK4     C236250   9.914   2.787   2.260 -0.0067  0.7090 -0.1153
  432HK4     H236251   9.819   2.778   2.316 -0.4424 -3.1455 -1.3868
  432HK4     C136252   9.909   2.819   2.125 -0.5214  0.0452 -0.2549
  432HK4     H136253   9.805   2.808   2.092 -1.0466 -0.5941  1.5427
  432HK4     C636254  10.025   2.838   2.047 -0.1420 -0.1254  0.2666
  432HK4     C536255  10.150   2.799   2.096  0.0060  0.1775  0.1300
  432HK4    C1036256  10.267   2.761   2.011 -0.2622 -0.0081 -0.1546
  432HK4     O136257  10.243   2.703   1.906  0.0347  0.3285 -0.4067
  432HK4    C1636258  10.004   2.903   1.917 -0.0416 -0.8982 -0.1322
  432HK4    C1536259  10.097   2.986   1.851 -0.2018 -0.7174 -0.1314
  432HK4     H736260  10.168   3.044   1.911 -1.9240  0.6625  0.5974
  432HK4    C2036261  10.104   3.004   1.713  1.0144 -0.5801 -0.0586
  432HK4     H936262  10.185   3.053   1.659  1.2233 -1.0834 -0.2061
  432HK4    C1936263  10.003   2.948   1.636  0.8709  0.0762 -0.3480
  432HK4    C1836264   9.907   2.856   1.693  0.9202  0.0702 -0.2761
  432HK4    C1736265   9.909   2.846   1.832 -0.2769 -0.2939 -0.2772
  432HK4     H836266   9.826   2.795   1.879 -0.7415  1.6066  1.0072
  432HK4     N136267   9.813   2.809   1.599  0.6270 -0.4094  0.2511
  432HK4    C2136268   9.842   2.884   1.483 -0.5183  0.1997  0.3604
  432HK4    C2236269   9.964   2.960   1.497 -0.2312 -0.1851 -0.0685
  432HK4    C2636270  10.007   3.039   1.390 -0.2467  0.0402  0.0905
  432HK4    H1336271  10.084   3.112   1.414  2.0464 -1.5683 -2.0779
  432HK4    C2536272   9.947   3.034   1.265  0.4582 -0.2471 -0.2396
  432HK4    H1236273   9.993   3.084   1.180  2.8318  0.9674  1.7155
  432HK4    C2436274   9.835   2.954   1.247  0.3258 -0.1391  0.0905
  432HK4    H1136275   9.782   2.954   1.150  1.8485  0.6498 -0.7602
  432HK4    C2336276   9.783   2.886   1.357  0.2934 -0.3078 -0.0276
  432HK4    H1036277   9.692   2.829   1.345 -0.3369  0.2401  1.9261
  432HK4    C3936278   9.776   2.675   1.610 -0.4200 -0.1100  0.4557
  432HK4    C4136279   9.659   2.635   1.543 -0.4157  0.1780  0.2774
  432HK4    H2136280   9.605   2.705   1.477 -1.0148  0.7877  1.4068
  432HK4    C4236281   9.631   2.499   1.539  0.3726  0.0248 -0.1410
  432HK4    H2236282   9.539   2.465   1.489 -0.9677 -0.1844  2.4080
  432HK4    C4336283   9.714   2.406   1.601 -0.2901  0.3429  1.2512
  432HK4    H2336284   9.694   2.299   1.602  0.7423  0.1030 -0.3539
  432HK4    C4436285   9.831   2.444   1.667  0.3948  0.2456  0.1163
  432HK4    H2436286   9.902   2.370   1.705  0.3408 -0.9009 -1.9225
  432HK4    C4536287   9.861   2.580   1.670  0.3622  0.2583 -0.0556
  432HK4    H2536288   9.962   2.613   1.700  0.6148  0.6981 -1.4013
  433HK4    H2836289   3.688   4.631   4.228  0.8449 -0.9142  0.3848
  433HK4    C4836290   3.589   4.598   4.198  0.5958  0.1054  0.0920
  433HK4    C4736291   3.516   4.674   4.107  0.2978 -0.2606  0.0242
  433HK4    H2736292   3.557   4.765   4.060 -1.1452  0.9179  0.9867
  433HK4    C4636293   3.396   4.626   4.055 -0.0761  0.1896  0.4570
  433HK4    H2636294   3.333   4.696   3.998  0.1983  0.6827  0.7561
  433HK4    C4036295   3.342   4.503   4.096  0.2030 -0.0637  0.0730
  433HK4    C5036296   3.415   4.434   4.195 -0.5217  0.0149  0.6689
  433HK4    H3036297   3.377   4.340   4.238  0.0606 -1.2689 -1.5476
  433HK4    C4936298   3.537   4.478   4.245 -0.5429  0.6235  0.1932
  433HK4    H2936299   3.594   4.413   4.314 -1.2878  0.8127  0.9901
  433HK4     N236300   3.262   4.433   4.004 -0.2859  0.6297 -0.0318
  433HK4    C3036301   3.259   4.437   3.863 -0.2394 -0.1885 -0.0569
  433HK4    C2936302   3.363   4.450   3.772 -0.2454  0.6114  0.0494
  433HK4    H1536303   3.458   4.484   3.813  0.0405 -0.3058  0.1458
  433HK4    C2836304   3.358   4.414   3.638 -0.0103 -0.1630  0.2474
  433HK4    C2736305   3.229   4.386   3.589 -0.0758  0.0119  0.3185
  433HK4    H1436306   3.210   4.362   3.483  0.1076  1.3217 -0.0128
  433HK4    C3236307   3.119   4.373   3.673 -0.3019 -0.3071 -0.0227
  433HK4    H1636308   3.028   4.325   3.637  0.8841 -0.3277 -3.1398
  433HK4    C3136309   3.134   4.388   3.810 -0.3047 -0.0269 -0.0519
  433HK4    C3436310   3.059   4.339   3.924 -0.4012  0.2277 -0.0053
  433HK4    C3336311   3.141   4.370   4.039  0.1538 -0.3442 -0.2411
  433HK4    C3536312   3.116   4.293   4.152 -0.3028  0.3722  0.1492
  433HK4    H1736313   3.183   4.300   4.239 -1.9055 -0.5656  1.4851
  433HK4    C3636314   3.015   4.199   4.149 -0.4709  0.5495  0.1872
  433HK4    H1836315   3.024   4.122   4.227  2.3468 -1.4145 -1.9890
  433HK4    C3736316   2.921   4.183   4.047 -0.3978 -0.6226  0.2889
  433HK4    H1936317   2.837   4.114   4.054 -1.4221  0.7674  2.2056
  433HK4    C3836318   2.949   4.253   3.930  0.1587 -0.4548  0.5223
  433HK4    H2036319   2.875   4.259   3.851  0.2342 -0.4632  0.4519
  433HK4    C1436320   3.476   4.406   3.551  0.0477  0.2330  0.2928
  433HK4     C936321   3.468   4.413   3.412  0.0352 -0.1243  0.2755
  433HK4     C836322   3.552   4.324   3.343 -0.3042 -0.3553  0.1568
  433HK4    C1136323   3.646   4.247   3.411 -0.2898 -0.2129  0.2987
  433HK4     H436324   3.691   4.162   3.359 -0.7375 -0.2551 -0.0183
  433HK4    C1236325   3.666   4.255   3.549 -0.6221 -0.4031  0.3587
  433HK4     H536326   3.749   4.203   3.598  0.2869  0.8337  0.1743
  433HK4    C1336327   3.584   4.344   3.618  0.5866  0.9359  0.0866
  433HK4     H636328   3.611   4.364   3.723 -0.0283 -1.5820  0.7435
  433HK4     C736329   3.549   4.326   3.195 -0.2718  0.1299  0.1617
  433HK4     O236330   3.539   4.215   3.144  0.1490 -0.0604  0.4857
  433HK4     C436331   3.496   4.449   3.132 -0.3496 -0.1119 -0.2428
  433HK4     C336332   3.527   4.460   2.997  0.1842  0.3701 -0.0815
  433HK4     H336333   3.602   4.392   2.953  0.7443  0.2246  1.0617
  433HK4     C236334   3.483   4.569   2.923 -0.0706  0.1039 -0.3196
  433HK4     H236335   3.515   4.578   2.819 -2.1168 -3.4067 -1.3483
  433HK4     C136336   3.401   4.662   2.987 -0.2834 -0.4370  0.2036
  433HK4     H136337   3.340   4.725   2.920 -0.8424 -2.5186 -1.3111
  433HK4     C636338   3.361   4.650   3.121 -0.2427  0.1579  0.2689
  433HK4     C536339   3.414   4.544   3.197  0.5049  0.4025  0.1003
  433HK4    C1036340   3.399   4.527   3.344  0.4093 -0.0372  0.0422
  433HK4     O136341   3.364   4.621   3.415 -0.2220 -0.2346 -0.0072
  433HK4    C1636342   3.234   4.713   3.161 -0.3422  0.0727  0.0821
  433HK4    C1536343   3.130   4.701   3.067 -0.1547 -0.2743 -0.0857
  433HK4     H736344   3.122   4.600   3.024 -1.2795  0.4367 -1.6131
  433HK4    C2036345   3.038   4.804   3.052  0.5375  0.2569 -0.6992
  433HK4     H936346   2.981   4.813   2.960 -0.7710  0.6588  0.1360
  433HK4    C1936347   3.046   4.919   3.131  0.1869 -0.1875 -0.0110
  433HK4    C1836348   3.147   4.925   3.235  0.0407  0.1684  0.1078
  433HK4    C1736349   3.244   4.826   3.240 -0.2725 -0.1278  0.3606
  433HK4     H836350   3.335   4.845   3.296 -1.0955 -0.6428  1.9007
  433HK4     N136351   3.135   5.043   3.313  0.7562  0.5081 -0.2939
  433HK4    C2136352   3.038   5.121   3.247 -0.0814 -0.2164  0.0807
  433HK4    C2236353   2.973   5.044   3.142  0.2297 -0.1493 -0.1592
  433HK4    C2636354   2.874   5.098   3.061 -0.2428 -0.1841  0.3931
  433HK4    H1336355   2.832   5.041   2.978 -0.0156  0.2901 -0.0438
  433HK4    C2536356   2.836   5.228   3.088 -0.3677 -0.1766  0.1906
  433HK4    H1236357   2.772   5.274   3.013  0.9329 -1.2620 -1.6045
  433HK4    C2436358   2.893   5.307   3.188  0.0248 -0.1737 -0.0352
  433HK4    H1136359   2.851   5.407   3.205  0.1106 -0.5994  2.9835
  433HK4    C2336360   2.989   5.249   3.270 -0.3523 -0.3544  0.2797
  433HK4    H1036361   3.030   5.308   3.352  0.1151 -0.5007  0.1549
  433HK4    C3936362   3.174   5.056   3.446  0.2391 -0.0285 -0.0865
  433HK4    C4136363   3.201   5.179   3.510 -0.1304  0.2086 -0.3781
  433HK4    H2136364   3.201   5.271   3.449 -0.8912  0.3580 -0.1542
  433HK4    C4236365   3.252   5.182   3.640 -0.2574 -0.2017 -0.3189
  433HK4    H2236366   3.301   5.277   3.664 -0.8318 -0.4547  1.9399
  433HK4    C4336367   3.272   5.062   3.707 -0.0898  0.0986  0.1638
  433HK4    H2336368   3.339   5.071   3.792 -1.3111 -0.2015  1.1818
  433HK4    C4436369   3.256   4.939   3.644 -0.2565  0.4487 -0.4725
  433HK4    H2436370   3.304   4.851   3.687 -0.8118 -0.5785 -1.9010
  433HK4    C4536371   3.202   4.937   3.516  0.3164 -0.3665 -0.7013
  433HK4    H2536372   3.163   4.839   3.482  3.0595 -0.9025 -2.4761
  434HK4    H2836373   6.088   6.754   3.797  1.4530 -1.2137  0.6545
  434HK4    C4836374   6.171   6.822   3.779 -0.0590  0.2950 -0.6929
  434HK4    C4736375   6.272   6.858   3.867 -0.4533  0.2644 -0.2235
  434HK4    H2736376   6.262   6.823   3.971 -0.0942  1.6589  0.2882
  434HK4    C4636377   6.384   6.935   3.835 -0.5464  0.6170  0.3081
  434HK4    H2636378   6.464   6.964   3.905 -2.7287  3.0100  1.9216
  434HK4    C4036379   6.395   6.982   3.703  0.0772 -0.0590  0.1173
  434HK4    C5036380   6.295   6.939   3.614  0.1455  0.0427 -0.0097
  434HK4    H3036381   6.305   6.955   3.506  1.8821  0.3749  0.1871
  434HK4    C4936382   6.180   6.868   3.648 -0.1651  0.1971 -0.7339
  434HK4    H2936383   6.107   6.837   3.572 -0.2351 -0.3957 -0.4252
  434HK4     N236384   6.444   7.111   3.681 -0.0771 -0.0255 -0.0305
  434HK4    C3036385   6.461   7.217   3.774 -0.3321  0.5660 -0.6519
  434HK4    C2936386   6.418   7.229   3.905 -0.5077  0.5132 -0.7052
  434HK4    H1536387   6.352   7.151   3.944 -1.0020  0.9440 -0.6744
  434HK4    C2836388   6.449   7.342   3.980  0.5622 -0.1604 -0.1309
  434HK4    C2736389   6.512   7.455   3.924  0.1156  0.3401  0.3731
  434HK4    H1436390   6.566   7.522   3.992  0.6010 -0.2387  0.5573
  434HK4    C3236391   6.551   7.441   3.791  0.3405 -0.1424  0.4868
  434HK4    H1636392   6.604   7.520   3.738  2.3325 -1.9982 -0.3629
  434HK4    C3136393   6.534   7.326   3.715  0.2118  0.3955 -0.2980
  434HK4    C3436394   6.564   7.287   3.578  0.1732  0.2212 -0.2554
  434HK4    C3336395   6.512   7.152   3.565  0.8416 -0.1172  0.4663
  434HK4    C3536396   6.550   7.085   3.449  0.2990  0.1378  0.1328
  434HK4    H1736397   6.532   6.978   3.439 -0.4794  0.0850  1.8649
  434HK4    C3636398   6.639   7.143   3.359  0.1155  0.1137 -0.0630
  434HK4    H1836399   6.658   7.100   3.260  0.3292  1.3904 -0.5747
  434HK4    C3736400   6.695   7.269   3.378  0.6128 -0.0801 -0.2555
  434HK4    H1936401   6.765   7.312   3.306 -0.5657  0.4659 -1.0785
  434HK4    C3836402   6.650   7.344   3.485  0.1718 -0.0774 -0.4421
  434HK4    H2036403   6.672   7.451   3.487 -2.4879  0.4847  0.5017
  434HK4    C1436404   6.407   7.340   4.121  0.1842 -0.0747 -0.2423
  434HK4     C936405   6.379   7.458   4.191  0.6727  0.2005 -0.5021
  434HK4     C836406   6.402   7.459   4.330  0.7919  0.1416 -0.5211
  434HK4    C1136407   6.454   7.344   4.389  0.6128  0.3468  0.0377
  434HK4     H436408   6.480   7.344   4.496 -0.6874  1.6646  0.3872
  434HK4    C1236409   6.478   7.225   4.321 -0.9250 -0.0668  0.2052
  434HK4     H536410   6.541   7.150   4.370 -0.7732 -1.0813 -1.5011
  434HK4    C1336411   6.447   7.222   4.186  0.1455  0.0225 -0.0397
  434HK4     H636412   6.434   7.122   4.141 -0.0992 -0.7331  1.6692
  434HK4     C736413   6.379   7.579   4.413  0.3083 -0.1727 -0.1967
  434HK4     O236414   6.435   7.588   4.523  0.2794 -0.1668 -0.1824
  434HK4     C436415   6.311   7.694   4.349 -0.3930 -0.5640 -0.1580
  434HK4     C336416   6.250   7.791   4.428 -0.6669 -0.6060 -0.3195
  434HK4     H336417   6.232   7.771   4.535 -0.7371  0.3582 -0.1473
  434HK4     C236418   6.196   7.903   4.368 -0.3223 -0.3425 -0.1384
  434HK4     H236419   6.148   7.988   4.419 -0.4048  0.1303 -0.9898
  434HK4     C136420   6.218   7.922   4.232 -0.5518  0.1913 -0.1047
  434HK4     H136421   6.175   8.009   4.180  2.9481  1.2767 -1.3344
  434HK4     C636422   6.288   7.830   4.150 -0.0163  0.3119  0.2133
  434HK4     C536423   6.316   7.706   4.209  0.7764  0.3701 -0.0466
  434HK4    C1036424   6.317   7.579   4.131 -0.0667  0.1915  0.2331
  434HK4     O136425   6.226   7.559   4.050  0.0835 -0.8636  0.3206
  434HK4    C1636426   6.366   7.895   4.044  0.2155 -0.0341  0.1704
  434HK4    C1536427   6.393   8.033   4.050 -0.1601  0.0575 -0.2777
  434HK4     H736428   6.382   8.085   4.147 -1.1475  0.4872 -0.6120
  434HK4    C2036429   6.437   8.110   3.943  0.6036 -0.0472 -0.0445
  434HK4     H936430   6.469   8.214   3.957 -2.9945  1.1322 -0.0167
  434HK4    C1936431   6.466   8.044   3.824 -0.7129 -0.1131 -0.3351
  434HK4    C1836432   6.435   7.904   3.809 -0.5576 -0.1662 -0.1763
  434HK4    C1736433   6.393   7.835   3.922  0.0942 -0.0413  0.1478
  434HK4     H836434   6.419   7.730   3.930 -1.6671 -0.3663  2.0193
  434HK4     N136435   6.483   7.852   3.687 -0.0942  0.1935 -0.1478
  434HK4    C2136436   6.545   7.961   3.622  0.5424 -0.1007 -0.0355
  434HK4    C2236437   6.532   8.082   3.700  0.2471 -0.2425  0.1347
  434HK4    C2636438   6.586   8.201   3.651 -0.3827 -0.2996 -0.7026
  434HK4    H1336439   6.570   8.294   3.706  1.9349  0.3155 -1.0062
  434HK4    C2536440   6.656   8.205   3.531  1.0398  0.1942  0.1407
  434HK4    H1236441   6.712   8.292   3.496 -0.8149  0.2379 -2.8291
  434HK4    C2436442   6.674   8.089   3.457  0.3756  0.2976 -0.1830
  434HK4    H1136443   6.731   8.083   3.363  2.2818  1.6049  0.8542
  434HK4    C2336444   6.621   7.971   3.506  0.7975  0.2474  0.1596
  434HK4    H1036445   6.637   7.889   3.436 -0.3340  0.2546 -0.1152
  434HK4    C3936446   6.430   7.737   3.627  0.2909 -0.3180  0.4849
  434HK4    C4136447   6.489   7.677   3.514  0.0583 -0.2238  0.3142
  434HK4    H2136448   6.598   7.673   3.504 -0.0180 -0.7096 -0.3964
  434HK4    C4236449   6.415   7.585   3.440 -0.2899  0.4922 -0.2334
  434HK4    H2236450   6.480   7.511   3.390 -2.3964 -2.2816  1.0379
  434HK4    C4336451   6.287   7.543   3.473  0.3272 -0.6878  0.6709
  434HK4    H2336452   6.246   7.461   3.414 -2.4005  1.2210 -0.1861
  434HK4    C4436453   6.230   7.602   3.586  0.2685 -0.0566  0.3130
  434HK4    H2436454   6.140   7.560   3.632 -0.1159  1.6119  1.0953
  434HK4    C4536455   6.297   7.701   3.656  0.1116  0.1167  0.2212
  434HK4    H2536456   6.253   7.740   3.749  1.0191  3.2598 -0.6060
  435HK4    H2836457   4.516   0.580   9.633  0.7483 -0.3518 -2.5155
  435HK4    C4836458   4.488   0.475   9.646  0.1028  0.1576  0.4122
  435HK4    C4736459   4.375   0.426   9.583  0.7747 -0.2803 -0.4675
  435HK4    H2736460   4.295   0.495   9.553  1.0070  0.5527  0.7834
  435HK4    C4636461   4.360   0.288   9.571 -0.1403 -0.2469  0.1417
  435HK4    H2636462   4.274   0.245   9.517 -3.0138  3.2720  1.6985
  435HK4    C4036463   4.450   0.192   9.622 -0.1739 -0.0362  0.5952
  435HK4    C5036464   4.561   0.247   9.689  0.2680 -0.1838 -0.0160
  435HK4    H3036465   4.629   0.181   9.745 -0.8202 -0.2920  1.1817
  435HK4    C4936466   4.575   0.384   9.705 -0.2407 -0.1796  0.3979
  435HK4    H2936467   4.666   0.433   9.744  0.0151 -1.6863  1.7679
  435HK4     N236468   4.403   0.064   9.654 -0.0380 -0.1023  0.5275
  435HK4    C3036469   4.271   0.023   9.680 -0.0271  0.0541  0.8288
  435HK4    C2936470   4.161   0.101   9.714 -0.1267  0.4877 -0.4599
  435HK4    H1536471   4.175   0.199   9.759  0.6723  0.0490  0.2601
  435HK4    C2836472   4.032   0.049   9.721  0.0080  0.1515 -0.4523
  435HK4    C2736473   4.022  11.164   9.677  0.4282 -0.1135  0.2527
  435HK4    H1436474   3.925  11.113   9.671 -0.4198  0.8313  4.4054
  435HK4    C3236475   4.128  11.080   9.644 -0.0857 -0.4234 -0.6294
  435HK4    H1636476   4.119  10.973   9.626 -1.6724 -0.4805  0.4341
  435HK4    C3136477   4.257  11.130   9.652 -0.3805  0.2810 -0.1927
  435HK4    C3436478   4.389  11.079   9.619 -0.4582 -0.1903  0.2167
  435HK4    C3336479   4.477  11.192   9.642 -0.2806 -0.1341 -0.7364
  435HK4    C3536480   4.608  11.161   9.678 -0.2636  0.0100 -0.6743
  435HK4    H1736481   4.681  11.240   9.660 -1.7467  1.6745  0.4148
  435HK4    C3636482   4.656  11.032   9.694 -0.2009  0.0667 -0.4049
  435HK4    H1836483   4.752  11.011   9.743  0.3320 -1.1046 -1.8935
  435HK4    C3736484   4.571  10.928   9.656 -0.0219 -0.1827 -0.1300
  435HK4    H1936485   4.606  10.826   9.640  2.7513  0.7906 -0.5704
  435HK4    C3836486   4.438  10.949   9.624  0.0213 -0.0305 -0.2156
  435HK4    H2036487   4.364  10.870   9.607 -0.9283  1.0925 -1.4484
  435HK4    C1436488   3.941   0.097   9.826  0.4880  0.0133  0.0270
  435HK4     C936489   3.858   0.015   9.903  0.2649 -0.0225 -0.2486
  435HK4     C836490   3.730   0.063   9.938  0.0802 -0.4491 -0.3464
  435HK4    C1136491   3.689   0.192   9.908  0.2387 -0.2016  0.4992
  435HK4     H436492   3.583   0.216   9.895 -0.1431 -2.3026 -0.3755
  435HK4    C1236493   3.777   0.281   9.847  0.2067 -0.4986  0.0170
  435HK4     H536494   3.755   0.389   9.854  0.0462 -0.5601  0.5426
  435HK4    C1336495   3.898   0.229   9.802  0.5576  0.0816  0.2826
  435HK4     H636496   3.977   0.290   9.756  2.5407  0.3422  3.8308
  435HK4     C736497   3.633  11.214   9.995  0.2609 -0.1559  0.4580
  435HK4     O236498   3.523   0.006  10.034  0.4576  0.3344  0.5124
  435HK4     C436499   3.670  11.074  10.027 -0.0076 -0.2494  0.3693
  435HK4     C336500   3.576  10.986  10.078 -0.3284 -0.0630  0.1007
  435HK4     H336501   3.484  11.031  10.118 -0.4224 -0.0305 -0.1469
  435HK4     C236502   3.601  10.849  10.074 -0.1541 -0.0258 -0.1140
  435HK4     H236503   3.525  10.785  10.120 -1.2057  2.2575  1.4474
  435HK4     C136504   3.724  10.804  10.029 -0.3212 -0.4435 -0.1551
  435HK4     H136505   3.748  10.697  10.029  0.0718 -0.3748 -1.7098
  435HK4     C636506   3.830  10.890   9.990 -0.5010 -0.2881 -0.3037
  435HK4     C536507   3.796  11.026   9.987 -0.0937 -0.1830  0.0071
  435HK4    C1036508   3.898  11.128   9.951 -0.2051 -0.1701 -0.2703
  435HK4     O136509   4.007  11.118  10.006 -0.2057  0.7406 -0.0947
  435HK4    C1636510   3.933  10.829   9.905  0.2810  0.5195  0.0586
  435HK4    C1536511   3.894  10.743   9.800  0.9105  0.6125 -0.2534
  435HK4     H736512   3.795  10.761   9.756 -0.2276 -0.9127  1.6557
  435HK4    C2036513   3.977  10.649   9.740 -0.0722 -0.3576 -0.0941
  435HK4     H936514   3.948  10.574   9.666 -0.8372  0.8183 -1.0016
  435HK4    C1936515   4.109  10.644   9.785  0.1016 -0.1973 -0.5944
  435HK4    C1836516   4.151  10.740   9.885  0.1784 -0.0361 -0.7771
  435HK4    C1736517   4.063  10.822   9.954  0.4638  0.0352 -0.4874
  435HK4     H836518   4.086  10.870  10.049  0.7327 -1.6603  0.3109
  435HK4     N136519   4.291  10.736   9.905  0.1178 -0.1423 -0.3700
  435HK4    C2136520   4.340  10.628   9.828  0.1006 -0.2042 -0.2921
  435HK4    C2236521   4.230  10.570   9.754  0.2771  0.2022 -0.8712
  435HK4    C2636522   4.243  10.448   9.688  0.2972  0.1673 -0.8121
  435HK4    H1336523   4.164  10.407   9.626 -0.2874 -0.1603  0.1513
  435HK4    C2536524   4.370  10.390   9.684  0.2829  0.0684  0.1245
  435HK4    H1236525   4.391  10.295   9.636 -0.4683  0.6627 -1.4227
  435HK4    C2436526   4.479  10.448   9.748  0.6499 -0.1891 -0.2780
  435HK4    H1136527   4.581  10.407   9.738  0.2282 -0.9603 -1.5703
  435HK4    C2336528   4.461  10.560   9.829  0.1864 -0.0543 -0.5637
  435HK4    H1036529   4.548  10.590   9.888 -0.6520  1.7105 -0.2130
  435HK4    C3936530   4.366  10.839   9.961 -0.2768 -0.0581  0.0013
  435HK4    C4136531   4.486  10.810  10.031 -0.3090  0.4615  0.2743
  435HK4    H2136532   4.520  10.708  10.050 -0.1909  0.3563 -0.4713
  435HK4    C4236533   4.570  10.912  10.074 -0.1706  0.0922  0.8803
  435HK4    H2236534   4.678  10.893  10.072 -0.1601  0.1875  0.4851
  435HK4    C4336535   4.532  11.045  10.054 -0.5217 -0.1052  0.1837
  435HK4    H2336536   4.590  11.132  10.085  0.7948 -0.4162 -1.3876
  435HK4    C4436537   4.415  11.077   9.988 -0.2940  0.2116 -0.0640
  435HK4    H2436538   4.389  11.184   9.997  3.8412  1.3141 -0.4357
  435HK4    C4536539   4.335  10.975   9.939  0.0382 -0.0037 -0.1497
  435HK4    H2536540   4.235  11.001   9.899  1.2870 -0.2756 -3.5736
  436HK4    H2836541  10.012   5.776   0.029 -0.7828 -0.2022  0.0172
  436HK4    C4836542  10.007   5.877   0.070 -0.6747 -0.0968 -0.2301
  436HK4    C4736543   9.923   5.912   0.175 -0.2877 -0.0252  0.0559
  436HK4    H2736544   9.846   5.839   0.202  0.1601 -1.1031 -1.5187
  436HK4    C4636545   9.928   6.033   0.243  0.1447  0.1772 -0.3331
  436HK4    H2636546   9.841   6.070   0.299 -1.6152 -1.7999 -1.6990
  436HK4    C4036547  10.026   6.126   0.203 -0.2239  0.4872 -0.5189
  436HK4    C5036548  10.114   6.091   0.098 -0.0119 -0.0700 -0.1566
  436HK4    H3036549  10.193   6.158   0.061 -0.7828  0.8994 -0.0645
  436HK4    C4936550  10.105   5.969   0.033 -0.5321 -0.1351  0.0339
  436HK4    H2936551  10.164   5.955  11.189 -0.8978 -1.0297 -0.0801
  436HK4     N236552  10.058   6.231   0.290  0.0775 -0.1150  0.1028
  436HK4    C3036553  10.056   6.234   0.431  0.1354  0.2501  0.0956
  436HK4    C2936554  10.079   6.131   0.521  0.2350  0.0466 -0.1633
  436HK4    H1536555  10.113   6.031   0.495 -1.0076 -0.3738 -0.2191
  436HK4    C2836556  10.063   6.157   0.657  0.1959  0.0458 -0.1679
  436HK4    C2736557  10.025   6.286   0.698  0.3658  0.0164  0.0851
  436HK4    H1436558   9.987   6.297   0.800 -0.3300 -0.9652 -0.0658
  436HK4    C3236559  10.016   6.395   0.611 -0.1104  0.0830  0.2145
  436HK4    H1636560   9.980   6.493   0.641  1.1022  0.5523  0.1722
  436HK4    C3136561  10.039   6.371   0.476 -0.5067  0.1597  0.1329
  436HK4    C3436562  10.045   6.457   0.360 -1.2358 -0.1059 -0.0987
  436HK4    C3336563  10.050   6.365   0.247  0.5002 -0.1271 -0.0162
  436HK4    C3536564  10.053   6.419   0.119 -0.0688  0.2295  0.1176
  436HK4    H1736565  10.044   6.362   0.027  2.2562  2.9085 -1.8741
  436HK4    C3636566  10.061   6.557   0.100 -0.2272  0.2070 -0.1027
  436HK4    H1836567  10.061   6.591  11.243  1.6561  1.4649  0.2768
  436HK4    C3736568  10.058   6.643   0.209 -0.6289 -0.5257  0.4727
  436HK4    H1936569  10.065   6.751   0.192 -0.8364 -0.8855 -2.1053
  436HK4    C3836570  10.056   6.594   0.339  0.4995 -0.1147  0.6556
  436HK4    H2036571  10.054   6.670   0.417  1.1925 -0.7064  1.2498
  436HK4    C1436572  10.048   6.056   0.763 -0.1278  0.5378  0.2604
  436HK4     C936573   9.969   6.064   0.878 -0.2290  0.0371  0.2273
  436HK4     C836574  10.016   6.029   1.007 -0.1092 -0.5499  0.0283
  436HK4    C1136575  10.137   5.961   1.016  0.1841 -0.0104  0.1581
  436HK4     H436576  10.171   5.928   1.115  1.6845  1.2182  0.0707
  436HK4    C1236577  10.198   5.918   0.899 -0.6023 -0.5151 -0.0718
  436HK4     H536578  10.254   5.823   0.898 -0.7420 -0.6026 -2.7799
  436HK4    C1336579  10.157   5.966   0.776 -0.4518  0.1256  0.1296
  436HK4     H636580  10.218   5.940   0.688  0.1150  0.5097  0.4040
  436HK4     C736581   9.935   6.056   1.128 -0.1220 -0.2809 -0.0391
  436HK4     O236582   9.988   6.062   1.239 -0.4067 -0.4657  0.1058
  436HK4     C436583   9.790   6.073   1.108  0.0268  0.6717 -0.3320
  436HK4     C336584   9.704   6.099   1.214  0.2202  1.1895 -0.2988
  436HK4     H336585   9.751   6.087   1.313  0.6164  2.8242 -0.2859
  436HK4     C236586   9.573   6.145   1.203 -0.2969 -0.0968  0.3226
  436HK4     H236587   9.528   6.209   1.281 -1.3421 -1.3982  0.8072
  436HK4     C136588   9.518   6.138   1.076  0.0130 -0.5991  0.2172
  436HK4     H136589   9.427   6.198   1.064 -0.7615 -1.6995  0.4609
  436HK4     C636590   9.592   6.087   0.966 -0.1238  0.3942 -0.3345
  436HK4     C536591   9.730   6.070   0.980 -0.1659  0.1353 -0.2322
  436HK4    C1036592   9.822   6.080   0.863 -0.2275 -0.4307 -0.3324
  436HK4     O136593   9.776   6.120   0.757 -0.1526 -0.2145 -0.2843
  436HK4    C1636594   9.515   6.052   0.846  0.0725 -0.2012 -0.2864
  436HK4    C1536595   9.391   6.113   0.819 -0.0541 -0.2332  0.2247
  436HK4     H736596   9.375   6.219   0.843  0.6608 -0.7815  3.2851
  436HK4    C2036597   9.294   6.044   0.746  0.3457  0.1800 -0.7045
  436HK4     H936598   9.191   6.080   0.747  0.0694 -0.4983 -2.6852
  436HK4    C1936599   9.325   5.923   0.686  0.3449 -0.3596  0.3763
  436HK4    C1836600   9.457   5.865   0.705  0.5798  0.0896  0.1197
  436HK4    C1736601   9.545   5.928   0.792  0.2056 -0.7982  1.1472
  436HK4     H836602   9.636   5.872   0.812  0.7539 -0.3445 -0.0497
  436HK4     N136603   9.482   5.762   0.612  0.2302 -0.2535  0.4019
  436HK4    C2136604   9.358   5.736   0.551  0.1106  0.2778  0.4141
  436HK4    C2236605   9.263   5.840   0.584 -0.3139 -0.1764  0.6258
  436HK4    C2636606   9.136   5.841   0.527 -0.0489 -0.6509  0.0257
  436HK4    H1336607   9.080   5.934   0.534  0.9289  0.0166 -0.7589
  436HK4    C2536608   9.099   5.737   0.443 -0.0956 -0.9947  0.4672
  436HK4    H1236609   8.999   5.737   0.400  0.8716  0.3748 -1.9425
  436HK4    C2436610   9.194   5.643   0.405  0.2908 -0.2925 -0.3322
  436HK4    H1136611   9.161   5.550   0.355 -1.0434  1.0100 -1.9370
  436HK4    C2336612   9.325   5.646   0.450 -0.0419  0.1080  0.6140
  436HK4    H1036613   9.401   5.588   0.398 -1.6050 -0.7309 -0.7711
  436HK4    C3936614   9.611   5.728   0.569  0.2563  0.0733  0.2246
  436HK4    C4136615   9.647   5.604   0.513  0.2011  0.0189  0.3111
  436HK4    H2136616   9.572   5.523   0.514  0.9389 -0.6695  0.7997
  436HK4    C4236617   9.765   5.588   0.442  0.0167 -0.1531  0.0367
  436HK4    H2236618   9.793   5.489   0.403  1.5659  0.7265 -1.1352
  436HK4    C4336619   9.859   5.689   0.431 -0.0037 -0.1162  0.2073
  436HK4    H2336620   9.945   5.669   0.366 -0.3345 -1.0185  0.0465
  436HK4    C4436621   9.826   5.811   0.490 -0.2601 -0.1437  0.1200
  436HK4    H2436622   9.906   5.887   0.488 -0.1180 -0.2896  0.3406
  436HK4    C4536623   9.705   5.833   0.555  0.1315  0.2526  0.7286
  436HK4    H2536624   9.674   5.938   0.545 -2.3407 -0.5423 -0.5798
  437HK4    H2836625  11.064  10.045   7.022 -2.8966 -0.2352 -2.8481
  437HK4    C4836626  11.041  10.147   7.051  0.4634 -0.1937  0.0058
  437HK4    C4736627  11.074  10.251   6.964  0.6524  0.0783  0.4020
  437HK4    H2736628  11.145  10.238   6.881  0.2769 -1.5361  0.3238
  437HK4    C4636629  11.053  10.383   7.002  0.0575 -0.2374  1.2047
  437HK4    H2636630  11.079  10.471   6.941  0.7910 -0.9490  0.4795
  437HK4    C4036631  11.020  10.409   7.136  0.3611  0.2727  1.1825
  437HK4    C5036632  10.990  10.304   7.226 -0.5186 -0.0415  0.5222
  437HK4    H3036633  10.967  10.324   7.332 -2.6712  0.3786 -0.0039
  437HK4    C4936634  11.001  10.173   7.182  0.7597  0.2251  0.0169
  437HK4    H2936635  10.973  10.093   7.252  0.0033  0.5877  0.1359
  437HK4     N236636  11.004  10.542   7.177  0.3209  0.5552  0.2567
  437HK4    C3036637  11.056  10.598   7.296  0.0402  0.2722  0.5127
  437HK4    C2936638  11.161  10.550   7.373  0.3327  0.6931  0.3719
  437HK4    H1536639  11.194  10.447   7.362  1.6911  1.3454 -2.2202
  437HK4    C2836640  11.207  10.626   7.480 -0.0844  0.4657  0.7094
  437HK4    C2736641  11.127  10.737   7.514 -0.2519  0.4655  0.3244
  437HK4    H1436642  11.166  10.812   7.585 -0.1315 -1.2803  2.1375
  437HK4    C3236643  11.018  10.785   7.442  0.0023  0.6439  0.0568
  437HK4    H1636644  10.970  10.878   7.473  0.2357  0.5295  0.7706
  437HK4    C3136645  10.985  10.721   7.323 -0.0090  0.3045  0.2412
  437HK4    C3436646  10.902  10.753   7.208  0.1481  0.1224  0.0759
  437HK4    C3336647  10.911  10.634   7.125 -0.1036  0.0638  0.1285
  437HK4    C3536648  10.841  10.639   7.005  0.6292  0.4706 -0.2885
  437HK4    H1736649  10.848  10.556   6.935  0.8347  0.3698 -0.1486
  437HK4    C3636650  10.771  10.754   6.974  0.3273  0.2407 -0.4457
  437HK4    H1836651  10.717  10.766   6.878  1.6887 -1.4236 -1.4311
  437HK4    C3736652  10.762  10.868   7.054  0.0461  0.4920 -0.8276
  437HK4    H1936653  10.704  10.955   7.026  1.7068  2.0051  0.3623
  437HK4    C3836654  10.823  10.864   7.179  0.0667 -0.1833 -0.8543
  437HK4    H2036655  10.808  10.941   7.254  1.1985 -0.2458 -0.5552
  437HK4    C1436656   0.082  10.593   7.553  0.2469  0.0373 -0.0356
  437HK4     C936657   0.095  10.620   7.689  0.0658 -1.1261  0.2202
  437HK4     C836658   0.222  10.663   7.735 -0.1876 -0.0431 -0.0870
  437HK4    C1136659   0.335  10.657   7.654 -0.0861  0.7891 -0.0131
  437HK4     H436660   0.428  10.703   7.690  0.6857  0.3627 -1.4216
  437HK4    C1236661   0.325  10.622   7.520 -0.1726  0.1685  0.1526
  437HK4     H536662   0.408  10.645   7.453  1.2872 -1.0974  1.4781
  437HK4    C1336663   0.198  10.591   7.473  0.0302  0.1092 -0.3507
  437HK4     H636664   0.189  10.543   7.374 -1.8085  2.0928 -1.2000
  437HK4     C736665   0.234  10.709   7.875  0.0424  0.3541 -0.2375
  437HK4     O236666   0.306  10.806   7.898  0.3964 -0.0312  0.3034
  437HK4     C436667   0.125  10.683   7.971  0.2703 -0.4409 -0.1944
  437HK4     C336668   0.147  10.704   8.107  0.2017  0.1431 -0.2763
  437HK4     H336669   0.240  10.743   8.151  0.1347 -0.2923  0.2514
  437HK4     C236670   0.038  10.723   8.191  0.0848 -0.0643 -0.3821
  437HK4     H236671   0.054  10.719   8.299  0.8622 -0.0705 -0.4973
  437HK4     C136672  11.161  10.737   8.131 -0.1637 -0.0129  0.1525
  437HK4     H136673  11.076  10.740   8.202  0.5821 -1.2615  1.1172
  437HK4     C636674  11.132  10.719   7.994  0.2761  0.2440  0.0268
  437HK4     C536675  11.242  10.677   7.918  0.2287  0.5523 -0.2130
  437HK4    C1036676  11.230  10.610   7.785 -0.0263 -0.2478  0.2053
  437HK4     O136677  11.152  10.516   7.773 -0.1296 -0.0867 -0.4016
  437HK4    C1636678  11.024  10.802   7.940  0.0284 -0.2290 -0.2094
  437HK4    C1536679  10.981  10.914   8.015  0.0991 -0.1800 -0.2429
  437HK4     H736680  11.064  10.971   8.058 -0.3196 -0.3111  0.7390
  437HK4    C2036681  10.859  10.976   7.992 -0.0407 -0.2813  0.2269
  437HK4     H936682  10.820  11.045   8.067  0.8294  0.1856  0.2567
  437HK4    C1936683  10.778  10.931   7.888 -0.4425 -0.0257  0.4272
  437HK4    C1836684  10.821  10.819   7.807 -0.3965  0.3342 -0.0439
  437HK4    C1736685  10.943  10.759   7.836 -0.5499  0.0891  0.1076
  437HK4     H836686  10.963  10.660   7.794  0.2269 -1.4577  3.8817
  437HK4     N136687  10.732  10.798   7.700 -0.6376  0.1496  0.1950
  437HK4    C2136688  10.629  10.892   7.719 -0.2153  0.5878  0.3058
  437HK4    C2236689  10.659  10.985   7.826 -0.5101  0.1925  0.7395
  437HK4    C2636690  10.573  11.090   7.854 -0.3896  0.4708  0.0734
  437HK4    H1336691  10.615  11.179   7.902 -0.5290 -0.8250  2.6537
  437HK4    C2536692  10.451  11.097   7.787 -0.6544 -0.1703  0.4915
  437HK4    H1236693  10.399  11.193   7.784  0.5834  0.4836 -0.6294
  437HK4    C2436694  10.412  11.001   7.695 -0.4073  0.1266  0.0734
  437HK4    H1136695  10.318  11.004   7.637  0.2627 -1.8901 -1.1981
  437HK4    C2336696  10.505  10.904   7.657 -0.3302  0.0618  0.4270
  437HK4    H1036697  10.480  10.838   7.575  0.6409  1.0079 -0.6377
  437HK4    C3936698  10.733  10.689   7.612  0.3146 -0.0844  0.4918
  437HK4    C4136699  10.664  10.697   7.489  0.1017 -0.4496  0.5845
  437HK4    H2136700  10.659  10.799   7.449 -1.2874  0.6892  3.4997
  437HK4    C4236701  10.636  10.589   7.407 -0.1530  0.5223 -0.6192
  437HK4    H2236702  10.571  10.600   7.318 -0.1485 -0.6945 -0.7893
  437HK4    C4336703  10.670  10.463   7.455  0.4832  0.8658 -0.1668
  437HK4    H2336704  10.659  10.377   7.389  0.6737 -0.5095  1.5329
  437HK4    C4436705  10.724  10.444   7.582 -0.8263 -0.1052  0.2567
  437HK4    H2436706  10.710  10.348   7.633 -0.0317  0.3369  1.3264
  437HK4    C4536707  10.762  10.557   7.654  0.7012 -0.2536 -0.2936
  437HK4    H2536708  10.830  10.544   7.739  1.1029  0.2254 -0.5397
  438HK4    H2836709   9.118  11.034   7.631 -0.0584 -0.5286  1.4302
  438HK4    C4836710   9.148  10.929   7.626  0.1237 -0.4056 -0.6438
  438HK4    C4736711   9.145  10.851   7.741 -0.3280 -0.1738 -0.5001
  438HK4    H2736712   9.128  10.892   7.842  1.9066  1.0030 -0.5759
  438HK4    C4636713   9.195  10.722   7.726  0.0488 -0.1039  0.1641
  438HK4    H2636714   9.185  10.664   7.818 -0.3339  0.2556  0.3512
  438HK4    C4036715   9.254  10.664   7.612  0.4903  0.2447  0.2125
  438HK4    C5036716   9.250  10.754   7.503 -0.4534  0.2308  0.2299
  438HK4    H3036717   9.261  10.710   7.403  1.4326 -0.0867  0.5586
  438HK4    C4936718   9.204  10.884   7.507  0.1695  0.4965 -0.9644
  438HK4    H2936719   9.225  10.960   7.429  1.0275  1.2450 -0.0083
  438HK4     N236720   9.351  10.563   7.624 -0.1468 -0.3963 -0.0424
  438HK4    C3036721   9.417  10.529   7.744 -0.3393 -0.2072  0.1182
  438HK4    C2936722   9.450  10.609   7.853  0.2501 -0.5381  0.1811
  438HK4    H1536723   9.406  10.708   7.863  1.8095  0.3307 -1.2760
  438HK4    C2836724   9.541  10.564   7.949 -0.0763 -0.1605  0.6657
  438HK4    C2736725   9.584  10.431   7.934 -0.3508 -0.1659 -0.1141
  438HK4    H1436726   9.594  10.372   8.026  0.0569 -1.8491 -1.2028
  438HK4    C3236727   9.564  10.351   7.822  0.5505 -0.1845 -0.2747
  438HK4    H1636728   9.625  10.261   7.814  0.7380 -0.3897  2.8886
  438HK4    C3136729   9.489  10.406   7.719 -0.4548 -0.3280  0.3641
  438HK4    C3436730   9.481  10.369   7.579  0.0562 -0.3049  0.3268
  438HK4    C3336731   9.383  10.464   7.529  0.5071 -0.0818 -0.1492
  438HK4    C3536732   9.345  10.458   7.396 -0.3256 -0.2997  0.0941
  438HK4    H1736733   9.257  10.510   7.359 -1.3903 -1.6446  0.7234
  438HK4    C3636734   9.399  10.360   7.313  0.3402  0.2126 -0.0805
  438HK4    H1836735   9.348  10.338   7.218  1.1720 -0.0390 -0.4742
  438HK4    C3736736   9.498  10.274   7.358 -0.3001 -0.6738 -0.3642
  438HK4    H1936737   9.527  10.187   7.299  1.8121 -0.0072 -0.3769
  438HK4    C3836738   9.539  10.278   7.491  0.3516  0.7777 -0.6011
  438HK4    H2036739   9.624  10.218   7.522 -0.5066 -0.5748 -0.8347
  438HK4    C1436740   9.614  10.657   8.036 -0.0680  0.2005  0.2731
  438HK4     C936741   9.742  10.628   8.082  0.2446  0.6652 -0.2865
  438HK4     C836742   9.788  10.650   8.214  0.2368  0.0244 -0.1758
  438HK4    C1136743   9.698  10.717   8.297 -0.1325 -0.5554 -0.1017
  438HK4     H436744   9.725  10.756   8.396 -0.2987 -0.7223  0.0094
  438HK4    C1236745   9.573  10.758   8.253  0.2717  0.2374 -0.5301
  438HK4     H536746   9.506  10.814   8.321  0.5283  0.1647 -0.2237
  438HK4    C1336747   9.532  10.731   8.123 -0.5259  0.3919 -0.3163
  438HK4     H636748   9.432  10.765   8.090 -1.5208 -1.4419  0.7264
  438HK4     C736749   9.904  10.574   8.264 -0.0785 -0.2415  0.1697
  438HK4     O236750   9.955  10.615   8.368  0.7149 -0.4152 -0.1425
  438HK4     C436751   9.970  10.471   8.181  0.1418  0.0898 -0.0654
  438HK4     C336752  10.071  10.392   8.235 -0.6269 -0.5051  0.5018
  438HK4     H336753  10.078  10.385   8.345 -1.1056  0.4528  0.5969
  438HK4     C236754  10.145  10.304   8.157  0.3976  0.7791  0.0074
  438HK4     H236755  10.233  10.257   8.203  1.3501  2.8757  0.4042
  438HK4     C136756  10.117  10.298   8.021  0.9142  0.7892 -0.1017
  438HK4     H136757  10.180  10.236   7.957 -0.4725 -0.7015 -0.0462
  438HK4     C636758  10.012  10.372   7.964  0.5714  0.1786 -0.2607
  438HK4     C536759   9.940  10.462   8.043  0.4657 -0.0158 -0.1270
  438HK4    C1036760   9.839  10.559   7.992  0.0591 -0.2623  0.2109
  438HK4     O136761   9.857  10.621   7.887  0.3313 -0.3021  0.2355
  438HK4    C1636762   9.936  10.312   7.853 -0.4112  0.3975  0.2877
  438HK4    C1536763   9.936  10.171   7.845 -0.7121  0.4161 -0.0176
  438HK4     H736764   9.914  10.117   7.938 -2.3638  1.3987  0.1826
  438HK4    C2036765   9.913  10.102   7.726  0.1669 -0.1503  0.1323
  438HK4     H936766   9.946   9.999   7.712  0.5886 -0.0947  0.6802
  438HK4    C1936767   9.882  10.175   7.612  0.2143  0.0734  0.2616
  438HK4    C1836768   9.892  10.320   7.613  0.3012  0.0690 -0.0842
  438HK4    C1736769   9.926  10.381   7.733 -0.1692  0.0449  0.0600
  438HK4     H836770   9.946  10.488   7.730  0.1970  0.0016  0.8961
  438HK4     N136771   9.884  10.371   7.482 -0.2868 -0.2056 -0.1575
  438HK4    C2136772   9.881  10.260   7.395  0.0915 -0.2380 -0.1317
  438HK4    C2236773   9.876  10.138   7.473 -0.6263  0.0660  0.2994
  438HK4    C2636774   9.896  10.017   7.407 -0.9701  0.1528  0.0294
  438HK4    H1336775   9.883   9.925   7.463 -2.1465 -0.5109 -1.2841
  438HK4    C2536776   9.931  10.001   7.273  0.1303  0.4028  0.2860
  438HK4    H1236777   9.938   9.902   7.228  2.2395  1.0902 -0.9576
  438HK4    C2436778   9.952  10.118   7.200  0.2723  0.1145 -0.1363
  438HK4    H1136779   9.990  10.123   7.097  0.3335 -1.4704 -0.2032
  438HK4    C2336780   9.920  10.238   7.263 -0.6829  0.0104 -0.4074
  438HK4    H1036781   9.936  10.329   7.207 -1.2432 -0.7892 -1.8890
  438HK4    C3936782   9.819  10.492   7.452  0.7140  0.5583  0.7190
  438HK4    C4136783   9.837  10.556   7.328  0.0900  0.1194  0.4019
  438HK4    H2136784   9.922  10.520   7.269 -1.0532 -3.1509  0.6332
  438HK4    C4236785   9.755  10.661   7.289  0.0495  0.0038  0.1830
  438HK4    H2236786   9.770  10.699   7.187  0.5596 -0.6337  0.0134
  438HK4    C4336787   9.659  10.718   7.372  0.1908  0.1991  0.2145
  438HK4    H2336788   9.597  10.803   7.341 -1.0258 -1.0688 -0.9217
  438HK4    C4436789   9.648  10.668   7.501  0.2993  0.0999  0.1843
  438HK4    H2436790   9.582  10.720   7.572 -1.7097 -0.5806 -1.1452
  438HK4    C4536791   9.723  10.555   7.533 -0.0105 -0.0582  0.3523
  438HK4    H2536792   9.725  10.532   7.641 -0.2790  0.8820  0.5720
  439HK4    H2836793   8.461   5.801   9.367  0.1105 -0.1630 -0.6302
  439HK4    C4836794   8.521   5.891   9.388  0.1926 -0.2879 -0.3344
  439HK4    C4736795   8.613   5.890   9.491 -0.5357 -0.1711  0.3230
  439HK4    H2736796   8.595   5.810   9.565  2.1270 -1.8627 -0.7791
  439HK4    C4636797   8.717   5.982   9.502 -0.4849 -0.1658 -0.2408
  439HK4    H2636798   8.790   5.966   9.582 -0.0778 -2.7113 -1.0659
  439HK4    C4036799   8.729   6.089   9.410  0.3057 -0.3461 -0.3526
  439HK4    C5036800   8.635   6.088   9.305 -0.3537  0.1576  0.2317
  439HK4    H3036801   8.627   6.180   9.245 -1.1640  0.5199  0.8837
  439HK4    C4936802   8.536   5.991   9.293 -0.0073 -0.1459 -0.2159
  439HK4    H2936803   8.459   6.006   9.216  0.2274  0.5460 -0.3147
  439HK4     N236804   8.809   6.203   9.421  0.3694 -0.4241 -0.0400
  439HK4    C3036805   8.862   6.254   9.542  0.2088 -0.0337 -0.1326
  439HK4    C2936806   8.826   6.217   9.671  0.0005  0.5414 -0.0215
  439HK4    H1536807   8.723   6.187   9.688  1.3520 -2.9142  2.8840
  439HK4    C2836808   8.915   6.248   9.773  0.2833 -0.8938  0.1781
  439HK4    C2736809   9.032   6.323   9.749 -0.2158 -0.1326  0.1288
  439HK4    H1436810   9.122   6.307   9.810  0.3796 -1.4625 -1.0545
  439HK4    C3236811   9.059   6.378   9.624  0.3702 -0.8770 -0.0760
  439HK4    H1636812   9.145   6.443   9.608 -0.3661  0.3895  1.1002
  439HK4    C3136813   8.974   6.343   9.520 -0.0342  0.2736 -0.1304
  439HK4    C3436814   8.987   6.353   9.376  0.0066 -0.6133 -0.1942
  439HK4    C3336815   8.888   6.263   9.321  0.0892 -0.6011 -0.3649
  439HK4    C3536816   8.888   6.240   9.184 -0.7313  0.0586 -0.4814
  439HK4    H1736817   8.808   6.183   9.138  0.1309 -0.1058 -1.8361
  439HK4    C3636818   8.983   6.298   9.100  0.0035 -0.4031  0.0334
  439HK4    H1836819   8.997   6.263   8.997  0.5795  1.0449 -0.3922
  439HK4    C3736820   9.082   6.379   9.156 -0.0133 -0.3274 -0.0477
  439HK4    H1936821   9.180   6.390   9.108  0.5995  2.6756  1.7811
  439HK4    C3836822   9.080   6.412   9.291 -0.1258 -0.2274 -0.0751
  439HK4    H2036823   9.156   6.474   9.337 -0.9994 -0.4862  1.7377
  439HK4    C1436824   8.856   6.239   9.907 -0.3103 -0.2539 -0.0433
  439HK4     C936825   8.910   6.304  10.020 -1.2600  0.5545 -0.0427
  439HK4     C836826   8.933   6.241  10.144  0.4228  0.4063 -0.4220
  439HK4    C1136827   8.877   6.114  10.159  0.3549  0.4953  0.0849
  439HK4     H436828   8.903   6.047  10.242  2.4374  0.8265 -0.2574
  439HK4    C1236829   8.812   6.048  10.056  0.5122  0.3355  0.0873
  439HK4     H536830   8.775   5.945  10.065 -1.2016  1.1480  3.1488
  439HK4    C1336831   8.803   6.111   9.932  0.0973 -0.4732 -0.2999
  439HK4     H636832   8.749   6.059   9.853 -1.6292 -0.6515  0.9780
  439HK4     C736833   9.015   6.309  10.247  0.1148 -0.2058  0.2330
  439HK4     O236834   9.052   6.242  10.343 -0.0224 -0.1747  0.3080
  439HK4     C436835   9.067   6.445  10.220 -0.5422  0.0186  0.0845
  439HK4     C336836   9.128   6.512  10.326  0.1089 -0.0358 -0.2562
  439HK4     H336837   9.173   6.456  10.409 -1.8410 -2.3614 -0.7153
  439HK4     C236838   9.158   6.647  10.318 -0.0484  0.0092 -0.0706
  439HK4     H236839   9.201   6.700  10.404 -0.5497 -0.4612  0.4721
  439HK4     C136840   9.139   6.706  10.194 -0.2007 -0.1380 -0.1180
  439HK4     H136841   9.161   6.814  10.202  2.9354 -0.6413 -1.2642
  439HK4     C636842   9.091   6.643  10.077  0.2786 -0.1309 -0.3208
  439HK4     C536843   9.040   6.515  10.101 -1.1337  0.5729  0.5379
  439HK4    C1036844   8.940   6.449  10.011 -0.1841  0.3159 -0.3331
  439HK4     O136845   8.844   6.519   9.982 -0.1516  0.2430 -0.6186
  439HK4    C1636846   9.148   6.691   9.951  0.4052  0.0247 -0.2026
  439HK4    C1536847   9.250   6.788   9.950 -0.2652  0.7406 -0.0344
  439HK4     H736848   9.322   6.779  10.033  0.8979 -0.7749 -1.1761
  439HK4    C2036849   9.284   6.868   9.841  0.3523  0.1545 -0.2749
  439HK4     H936850   9.356   6.949   9.853 -0.0370  0.2093  1.8064
  439HK4    C1936851   9.207   6.863   9.725 -0.0204 -0.3913 -0.0038
  439HK4    C1836852   9.096   6.770   9.724 -0.2386 -0.1349  0.1378
  439HK4    C1736853   9.074   6.687   9.834  0.2558 -0.5685 -0.0889
  439HK4     H836854   9.005   6.604   9.819  2.7225 -2.2087 -3.1422
  439HK4     N136855   9.034   6.763   9.598 -0.1781  0.1183  0.0905
  439HK4    C2136856   9.118   6.833   9.510 -0.1928  0.1962  0.1421
  439HK4    C2236857   9.217   6.906   9.587  0.2402 -0.2852  0.0469
  439HK4    C2636858   9.309   6.986   9.520  0.1900 -0.3085 -0.0496
  439HK4    H1336859   9.390   7.034   9.575 -2.0366  3.2332  0.2894
  439HK4    C2536860   9.303   7.001   9.382 -0.8642  0.5646  0.0815
  439HK4    H1236861   9.376   7.062   9.329  0.2006 -1.5056 -0.9301
  439HK4    C2436862   9.205   6.936   9.307 -0.1669  0.0668 -0.4102
  439HK4    H1136863   9.220   6.932   9.198  0.7132 -0.6937 -0.2708
  439HK4    C2336864   9.116   6.852   9.372  0.7013 -0.5356  0.0185
  439HK4    H1036865   9.064   6.776   9.313 -2.2476  1.4165 -0.0271
  439HK4    C3936866   8.897   6.741   9.574 -0.1343  0.0750 -0.1210
  439HK4    C4136867   8.812   6.769   9.682 -0.0956  0.3813 -0.1714
  439HK4    H2136868   8.830   6.845   9.760 -0.8798 -0.8197  1.1918
  439HK4    C4236869   8.686   6.711   9.673 -0.0519  0.1990  0.3794
  439HK4    H2236870   8.620   6.724   9.761  0.3562  0.1468  0.6905
  439HK4    C4336871   8.640   6.647   9.559  0.4511 -0.4602  0.5412
  439HK4    H2336872   8.533   6.657   9.537  0.7483 -0.7803 -1.1207
  439HK4    C4436873   8.729   6.620   9.456  0.0540 -0.4024  0.1793
  439HK4    H2436874   8.696   6.535   9.394  1.6972  1.2944 -3.1451
  439HK4    C4536875   8.861   6.663   9.462 -0.1514  0.3038 -0.2753
  439HK4    H2536876   8.933   6.641   9.382  0.3041  0.7926  0.0001
  440HK4    H2836877   6.446   0.332   4.512  0.7767 -0.7031 -0.7477
  440HK4    C4836878   6.385   0.257   4.462 -0.0092  0.0762 -0.9732
  440HK4    C4736879   6.264   0.297   4.407 -0.5242 -0.2210 -0.0770
  440HK4    H2736880   6.237   0.403   4.406  0.9275  0.1926  1.8604
  440HK4    C4636881   6.176   0.207   4.349 -0.4073 -0.0351 -0.5441
  440HK4    H2636882   6.084   0.250   4.306  0.2315 -0.5173 -2.4618
  440HK4    C4036883   6.213   0.072   4.333  0.0508  0.0478 -0.1642
  440HK4    C5036884   6.342   0.034   4.375 -0.2545 -0.2049  0.5555
  440HK4    H3036885   6.360  11.173   4.379 -0.0513 -0.2782 -1.5022
  440HK4    C4936886   6.418   0.122   4.451  0.0639  0.0068 -0.0053
  440HK4    H2936887   6.515   0.091   4.493  0.9588  1.7804 -0.6807
  440HK4     N236888   6.136  11.234   4.253  0.9761 -0.5199 -0.4507
  440HK4    C3036889   6.043   0.026   4.156  0.5452  0.0834  0.2111
  440HK4    C2936890   6.052   0.137   4.072 -0.1582 -0.0141 -0.0021
  440HK4    H1536891   6.126   0.211   4.102 -3.1655  2.0080  2.7227
  440HK4    C2836892   5.973   0.162   3.961 -0.2962  0.2553  0.1572
  440HK4    C2736893   5.871   0.064   3.956  0.0317 -0.0747 -0.1328
  440HK4    H1436894   5.796   0.080   3.876  1.4786 -0.7815 -1.6421
  440HK4    C3236895   5.847  11.198   4.030  0.0099  0.2340  0.3328
  440HK4    H1636896   5.762  11.131   4.017  0.4747 -1.0224  3.1260
  440HK4    C3136897   5.942  11.173   4.129  0.4374  0.2645 -0.0654
  440HK4    C3436898   5.979  11.059   4.211  0.1418  0.2760  0.0861
  440HK4    C3336899   6.088  11.108   4.294  0.1683  0.0012  0.2108
  440HK4    C3536900   6.149  11.010   4.372  0.3685 -0.2189 -0.2199
  440HK4    H1736901   6.226  11.041   4.442  2.1435  1.1051 -2.6781
  440HK4    C3636902   6.116  10.875   4.370 -0.2721 -0.0854  0.8988
  440HK4    H1836903   6.179  10.801   4.421  0.4025 -2.2104 -2.8282
  440HK4    C3736904   6.006  10.832   4.296 -0.3605  0.5221  0.6667
  440HK4    H1936905   6.002  10.728   4.264  1.8415  0.8229 -0.6696
  440HK4    C3836906   5.940  10.926   4.219  0.5902  0.0957 -0.6892
  440HK4    H2036907   5.838  10.909   4.183  0.1429 -0.0797  0.6313
  440HK4    C1436908   5.975   0.284   3.880 -0.4089  0.3940  0.3614
  440HK4     C936909   5.870   0.329   3.798 -0.1108 -1.0957 -0.8643
  440HK4     C836910   5.904   0.389   3.675 -0.2000  1.1043  0.1616
  440HK4    C1136911   6.033   0.428   3.641 -0.0076  0.1747 -0.2067
  440HK4     H436912   6.044   0.486   3.548 -3.3805  0.6179 -0.4131
  440HK4    C1236913   6.136   0.403   3.730 -0.1290 -0.3616 -0.2164
  440HK4     H536914   6.236   0.430   3.692  0.2712  0.5714  1.4707
  440HK4    C1336915   6.103   0.329   3.842 -0.3542 -0.2020 -0.1773
  440HK4     H636916   6.177   0.294   3.916 -0.9602  1.3064  1.1783
  440HK4     C736917   5.799   0.401   3.571 -0.0888 -0.6521 -0.1744
  440HK4     O236918   5.828   0.434   3.457 -0.4629  0.1005 -0.0543
  440HK4     C436919   5.662   0.359   3.607 -0.2059 -0.1302 -0.0065
  440HK4     C336920   5.565   0.340   3.509 -0.0654  0.1374 -0.1984
  440HK4     H336921   5.588   0.343   3.401  1.1017  4.2187  0.0999
  440HK4     C236922   5.434   0.300   3.531 -0.0398  0.2278  0.1142
  440HK4     H236923   5.356   0.276   3.458 -0.9265 -2.1630  1.7750
  440HK4     C136924   5.397   0.288   3.665 -0.3952 -0.1142 -0.0143
  440HK4     H136925   5.299   0.248   3.693 -1.2020  1.8449  0.0286
  440HK4     C636926   5.490   0.298   3.771 -0.2531  0.4797 -0.1951
  440HK4     C536927   5.622   0.330   3.739 -0.0093 -0.3124  0.0131
  440HK4    C1036928   5.728   0.324   3.844  0.1102 -0.7622 -0.1342
  440HK4     O136929   5.706   0.363   3.958  0.5366 -0.0631 -0.2842
  440HK4    C1636930   5.434   0.282   3.906 -0.1247  0.4987 -0.1392
  440HK4    C1536931   5.307   0.334   3.939 -0.4561 -0.2424 -0.2357
  440HK4     H736932   5.271   0.411   3.869 -0.6548 -1.8490 -1.9546
  440HK4    C2036933   5.237   0.293   4.051  0.3936  0.5137  0.5713
  440HK4     H936934   5.131   0.321   4.051  0.1041 -0.5683  1.1378
  440HK4    C1936935   5.285   0.202   4.145  0.0999 -0.0398  0.1846
  440HK4    C1836936   5.418   0.150   4.119 -0.1500 -0.0981 -1.0346
  440HK4    C1736937   5.480   0.194   4.003  0.6950  0.7952 -0.2550
  440HK4     H836938   5.581   0.154   3.995  0.8658  0.2113  3.8748
  440HK4     N136939   5.456   0.056   4.217 -0.0193  0.8233 -0.1956
  440HK4    C2136940   5.341   0.044   4.298  0.0723 -0.6118 -0.2692
  440HK4    C2236941   5.229   0.125   4.254  0.1430 -0.3844 -0.0376
  440HK4    C2636942   5.115   0.136   4.332  0.0101  0.4590 -0.3448
  440HK4    H1336943   5.038   0.205   4.298 -1.3039  0.2117  2.0328
  440HK4    C2536944   5.104   0.072   4.456  0.5017  0.0820 -0.4950
  440HK4    H1236945   5.001   0.051   4.484  0.6735 -0.5521 -0.3324
  440HK4    C2436946   5.211  11.241   4.497  0.0990 -0.2366 -0.0618
  440HK4    H1136947   5.194  11.175   4.584  0.7097  0.0474  0.2729
  440HK4    C2336948   5.329  11.235   4.424  0.3451  0.4892  0.2685
  440HK4    H1036949   5.412  11.184   4.473 -0.7364  0.2610  1.8897
  440HK4    C3936950   5.587   0.039   4.263  0.0269  0.1304 -0.5861
  440HK4    C4136951   5.627  11.178   4.344 -0.0265  0.5226 -0.0302
  440HK4    H2136952   5.562  11.090   4.334  0.6177 -0.0004  0.3618
  440HK4    C4236953   5.742  11.179   4.422 -0.0191 -0.3147 -0.0322
  440HK4    H2236954   5.759  11.098   4.495  1.3826  0.0269  0.0381
  440HK4    C4336955   5.818   0.047   4.419 -0.1619 -0.2226 -0.1326
  440HK4    H2336956   5.924   0.031   4.436 -0.4691 -1.2530  0.8364
  440HK4    C4436957   5.776   0.161   4.350  0.5044 -0.0805 -0.3077
  440HK4    H2436958   5.822   0.255   4.384 -0.7506  0.2665  0.4525
  440HK4    C4536959   5.662   0.158   4.272  0.1635 -0.0100  0.1844
  440HK4    H2536960   5.645   0.244   4.206 -0.6878 -0.2004  0.1461
  441HK4    H2836961   7.820   4.627   7.594  0.2887  0.7206  0.4109
  441HK4    C4836962   7.722   4.587   7.619  0.2528  0.3294 -0.3306
  441HK4    C4736963   7.648   4.498   7.542 -0.2498  0.1219  0.3869
  441HK4    H2736964   7.699   4.459   7.453  1.6349  1.8047  0.6995
  441HK4    C4636965   7.513   4.471   7.561 -0.1813 -0.2827  0.3079
  441HK4    H2636966   7.464   4.385   7.512 -1.8070  0.8301 -0.0775
  441HK4    C4036967   7.443   4.544   7.659 -0.2926 -0.0669  0.0716
  441HK4    C5036968   7.517   4.639   7.733  0.0482 -0.2524 -0.0278
  441HK4    H3036969   7.482   4.672   7.832 -0.3331  1.1837 -0.6241
  441HK4    C4936970   7.652   4.665   7.710 -0.0196 -0.0498 -0.2170
  441HK4    H2936971   7.708   4.735   7.774 -1.6757  0.2380  0.9620
  441HK4     N236972   7.308   4.525   7.692 -0.3286 -0.1333 -0.1212
  441HK4    C3036973   7.239   4.405   7.668 -0.4218 -0.1108  0.0392
  441HK4    C2936974   7.278   4.271   7.667 -0.1398 -0.0240 -0.5360
  441HK4    H1536975   7.378   4.241   7.698 -0.1617  0.9464  0.5223
  441HK4    C2836976   7.181   4.174   7.646 -0.3849 -0.0387  0.6262
  441HK4    C2736977   7.051   4.210   7.605 -0.2079 -0.2994 -0.1810
  441HK4    H1436978   6.979   4.135   7.569 -2.8730  1.3131  1.6225
  441HK4    C3236979   7.007   4.342   7.609 -0.5387 -0.4240  0.2720
  441HK4    H1636980   6.904   4.371   7.588  0.0589  2.3087  0.9865
  441HK4    C3136981   7.099   4.439   7.646 -0.3966 -0.2976 -0.4098
  441HK4    C3436982   7.079   4.582   7.655  0.1478 -0.1746 -1.1074
  441HK4    C3336983   7.211   4.626   7.696 -0.1200  0.0859 -0.5232
  441HK4    C3536984   7.225   4.763   7.716 -0.4266 -0.0409  0.5795
  441HK4    H1736985   7.318   4.815   7.695  0.1728 -0.8386  1.2271
  441HK4    C3636986   7.116   4.849   7.714  0.0327  0.5267 -0.9416
  441HK4    H1836987   7.135   4.951   7.752  0.0432 -0.2517  1.2293
  441HK4    C3736988   6.987   4.802   7.690  0.2733 -0.2110 -0.7943
  441HK4    H1936989   6.914   4.882   7.675  0.4922 -0.2283 -1.9851
  441HK4    C3836990   6.970   4.668   7.658  0.0887 -0.2659 -0.4659
  441HK4    H2036991   6.887   4.653   7.588 -0.2087  0.1945 -0.2103
  441HK4    C1436992   7.216   4.031   7.634 -0.2665  0.0253  0.1803
  441HK4     C936993   7.148   3.934   7.560  0.0143 -0.1013  0.0897
  441HK4     C836994   7.117   3.803   7.600  0.0190 -0.0304  0.3309
  441HK4    C1136995   7.158   3.770   7.728  0.1851  0.0824  0.3049
  441HK4     H436996   7.123   3.675   7.772  0.6862 -0.3559 -0.2337
  441HK4    C1236997   7.229   3.859   7.808  0.2131  0.4064 -0.0792
  441HK4     H536998   7.264   3.828   7.907 -0.5116 -0.0910  0.0266
  441HK4    C1336999   7.263   3.984   7.758  0.2172  0.5083  0.1806
  441HK4     H637000   7.336   4.043   7.817 -0.4841  0.7591  0.8044
  441HK4     C737001   7.030   3.711   7.522 -0.1335  0.0726  0.3768
  441HK4     O237002   7.041   3.590   7.541  0.5922  0.0275 -0.3337
  441HK4     C437003   6.961   3.777   7.409  0.0172 -0.4002  0.0090
  441HK4     C337004   6.859   3.707   7.347 -0.5745  0.4280  0.0391
  441HK4     H337005   6.870   3.597   7.352 -0.1295  0.4626 -0.2098
  441HK4     C237006   6.773   3.767   7.256 -0.1854 -0.0900 -0.6725
  441HK4     H237007   6.725   3.708   7.177 -0.0945 -1.9140  0.6112
  441HK4     C137008   6.790   3.903   7.233 -0.0066 -0.0106 -0.0810
  441HK4     H137009   6.707   3.956   7.184  0.4516  0.2615 -0.5654
  441HK4     C637010   6.895   3.980   7.286 -0.1809 -0.1532  0.4777
  441HK4     C537011   6.984   3.910   7.368 -0.3899 -0.0997  0.7518
  441HK4    C1037012   7.104   3.978   7.424 -0.2731  0.1088  0.2511
  441HK4     O137013   7.182   4.014   7.336 -0.2712 -0.3620  0.0605
  441HK4    C1637014   6.873   4.125   7.295 -0.1603 -0.0710 -0.7731
  441HK4    C1537015   6.750   4.177   7.341  0.4159  0.1639  0.5262
  441HK4     H737016   6.668   4.107   7.362  0.2637  0.1367 -0.1328
  441HK4    C2037017   6.721   4.313   7.352  0.1042  0.1143  0.3186
  441HK4     H937018   6.621   4.352   7.371  0.6173  1.0533  1.0746
  441HK4    C1937019   6.822   4.402   7.317  0.4516 -0.1286  0.7024
  441HK4    C1837020   6.949   4.354   7.265  0.3728  0.5213 -0.0894
  441HK4    C1737021   6.968   4.217   7.253  0.2281  0.3923  1.0920
  441HK4     H837022   7.061   4.178   7.211 -1.0073 -0.9748 -0.4410
  441HK4     N137023   7.040   4.459   7.241 -0.0060  0.6928 -0.7915
  441HK4    C2137024   6.970   4.574   7.282  0.4073  0.4728  0.5324
  441HK4    C2237025   6.835   4.546   7.326  0.3130 -0.0646 -0.1002
  441HK4    C2637026   6.733   4.640   7.327  0.2494 -0.1401  0.1994
  441HK4    H1337027   6.635   4.611   7.365  0.1383  0.4747  0.3887
  441HK4    C2537028   6.762   4.768   7.281  0.1485 -0.0595  0.3527
  441HK4    H1237029   6.686   4.846   7.276  0.4383  0.4069  2.9320
  441HK4    C2437030   6.885   4.789   7.220  0.1303 -0.2112  0.2634
  441HK4    H1137031   6.900   4.886   7.171  0.5361 -0.1186  0.5723
  441HK4    C2337032   6.990   4.698   7.224  0.1653 -0.2439 -1.1059
  441HK4    H1037033   7.091   4.731   7.200  0.1578 -0.8246 -1.9712
  441HK4    C3937034   7.177   4.433   7.221 -0.1690 -0.2184 -0.7640
  441HK4    C4137035   7.258   4.517   7.142  0.4284  0.3956  0.4752
  441HK4    H2137036   7.215   4.606   7.094 -2.3994 -0.8334  0.6152
  441HK4    C4237037   7.394   4.493   7.133  0.2571 -0.3054 -0.3584
  441HK4    H2237038   7.462   4.576   7.108 -0.4536 -0.1306 -1.7634
  441HK4    C4337039   7.455   4.380   7.187  0.2467 -0.2719 -0.2799
  441HK4    H2337040   7.562   4.370   7.175 -0.0238 -1.3040 -1.8935
  441HK4    C4437041   7.375   4.296   7.263  0.4526  0.3666  0.6620
  441HK4    H2437042   7.419   4.204   7.305  1.3386 -0.0175 -1.0798
  441HK4    C4537043   7.242   4.328   7.289  0.2257  0.2750 -0.3722
  441HK4    H2537044   7.195   4.291   7.381  0.3890  1.4519  0.1959
  442HK4    H2837045   7.171   4.572   3.674 -0.1787  0.2036  0.1483
  442HK4    C4837046   7.247   4.649   3.687  0.3994 -0.3097 -0.2078
  442HK4    C4737047   7.355   4.621   3.770  0.4812  0.3771 -0.0813
  442HK4    H2737048   7.350   4.543   3.847 -0.7658  0.0759 -0.4534
  442HK4    C4637049   7.479   4.676   3.740  0.6763 -0.0283 -0.0370
  442HK4    H2637050   7.569   4.633   3.787  0.9253  0.3924 -0.1159
  442HK4    C4037051   7.502   4.762   3.630  0.0491  0.1364 -0.0391
  442HK4    C5037052   7.388   4.793   3.553  0.2537  0.0732 -0.3699
  442HK4    H3037053   7.393   4.865   3.471 -0.3997 -0.8311 -1.2136
  442HK4    C4937054   7.263   4.740   3.584  0.3101  0.3588  0.3667
  442HK4    H2937055   7.173   4.783   3.536  0.5292 -1.7105 -2.0400
  442HK4     N237056   7.609   4.852   3.631  0.0165  0.1753 -0.0761
  442HK4    C3037057   7.661   4.924   3.740  0.3556 -0.0013 -0.1209
  442HK4    C2937058   7.611   4.958   3.866  0.2619  0.0287 -0.1662
  442HK4    H1537059   7.521   4.906   3.899  1.4684 -3.2222 -1.7357
  442HK4    C2837060   7.678   5.044   3.952  0.3824 -0.3942  0.1650
  442HK4    C2737061   7.795   5.104   3.902 -0.1466  0.6486  0.1613
  442HK4    H1437062   7.853   5.168   3.971 -1.4749  3.7061 -1.4855
  442HK4    C3237063   7.847   5.083   3.775 -0.6219  0.8108 -0.0582
  442HK4    H1637064   7.952   5.101   3.753 -0.4674  0.0298  0.0321
  442HK4    C3137065   7.784   4.987   3.697  0.9249 -0.6739  0.5123
  442HK4    C3437066   7.805   4.949   3.559 -0.2022  0.4852  0.0250
  442HK4    C3337067   7.690   4.871   3.517  0.3166 -0.2985  0.0596
  442HK4    C3537068   7.671   4.846   3.382 -0.1594  0.0097  0.0702
  442HK4    H1737069   7.587   4.781   3.356 -0.3996  0.8252 -1.2344
  442HK4    C3637070   7.761   4.890   3.287 -0.6529  0.4594 -0.1920
  442HK4    H1837071   7.747   4.865   3.181 -2.0388 -0.5728  0.2305
  442HK4    C3737072   7.875   4.959   3.329 -0.4114  0.1783 -0.3809
  442HK4    H1937073   7.941   4.999   3.252 -0.0354 -0.2707 -0.2966
  442HK4    C3837074   7.895   4.992   3.462 -0.2353 -0.2037 -0.3114
  442HK4    H2037075   7.987   5.043   3.492  0.2995 -2.1091  1.3750
  442HK4    C1437076   7.600   5.102   4.062 -0.0847  0.2779 -0.5144
  442HK4     C937077   7.612   5.234   4.108  0.0080  0.1374 -0.1306
  442HK4     C837078   7.591   5.274   4.241 -0.1152  0.1850 -0.1647
  442HK4    C1137079   7.546   5.178   4.331  0.6567 -0.2314 -0.2161
  442HK4     H437080   7.492   5.209   4.422  1.2336  0.6768 -0.1763
  442HK4    C1237081   7.535   5.045   4.294  0.1312 -0.3452  0.3310
  442HK4     H537082   7.488   4.972   4.362 -1.1778  0.3274  0.1577
  442HK4    C1337083   7.558   5.011   4.161  0.6238  0.6722  0.1499
  442HK4     H637084   7.523   4.909   4.136 -0.0175  0.6077  1.2773
  442HK4     C737085   7.634   5.403   4.300  0.0081  0.0098  0.1323
  442HK4     O237086   7.570   5.463   4.386  0.2055  0.1569  0.1765
  442HK4     C437087   7.722   5.483   4.212  0.0650 -0.0681  0.1178
  442HK4     C337088   7.788   5.589   4.272  0.3472 -0.2897  0.1985
  442HK4     H337089   7.787   5.598   4.382  2.8297  3.3308  0.0164
  442HK4     C237090   7.854   5.680   4.191 -0.7444  0.1718 -0.1832
  442HK4     H237091   7.933   5.747   4.229 -2.0785  1.7447 -0.1025
  442HK4     C137092   7.846   5.662   4.053  0.2732  0.1313 -0.2416
  442HK4     H137093   7.895   5.741   3.993 -0.2961  0.6807  0.0075
  442HK4     C637094   7.780   5.558   3.985 -0.1317  0.1288  0.1503
  442HK4     C537095   7.721   5.466   4.072 -0.4846  0.2776  0.0736
  442HK4    C1037096   7.648   5.348   4.019  0.2603 -0.0406 -0.2558
  442HK4     O137097   7.575   5.351   3.919 -0.1917 -0.0174  0.0726
  442HK4    C1637098   7.824   5.541   3.845 -0.2658  0.1222  0.1088
  442HK4    C1537099   7.949   5.586   3.798 -0.3415  0.3687  0.1426
  442HK4     H737100   8.032   5.584   3.869 -2.2765  1.9184  2.5213
  442HK4    C2037101   7.974   5.624   3.667 -0.2702 -0.3401 -0.0560
  442HK4     H937102   8.070   5.670   3.646 -1.6302  3.4493  1.5289
  442HK4    C1937103   7.880   5.609   3.565 -0.2019  0.2403 -0.2106
  442HK4    C1837104   7.753   5.559   3.615  0.1043  0.0416  0.3747
  442HK4    C1737105   7.724   5.534   3.749 -0.4709  0.3249  0.3029
  442HK4     H837106   7.619   5.534   3.780  0.2104  0.8734  2.6953
  442HK4     N137107   7.659   5.545   3.511  0.3915 -0.0713  0.1269
  442HK4    C2137108   7.719   5.616   3.405 -0.1526 -0.0786 -0.1870
  442HK4    C2237109   7.856   5.656   3.431 -0.1786  0.0657 -0.2763
  442HK4    C2637110   7.924   5.732   3.336  0.1161 -0.8217 -0.7806
  442HK4    H1337111   8.018   5.782   3.358  1.6885 -3.1829 -1.9037
  442HK4    C2537112   7.861   5.775   3.220  0.3476 -0.2013 -0.6785
  442HK4    H1237113   7.914   5.829   3.142  0.4034  0.0198 -0.4882
  442HK4    C2437114   7.731   5.735   3.190 -0.0622  0.5202  0.1268
  442HK4    H1137115   7.668   5.783   3.114  3.2376  1.6505 -1.9906
  442HK4    C2337116   7.665   5.656   3.284 -0.0446  0.1775 -0.1519
  442HK4    H1037117   7.562   5.628   3.260  0.0317 -0.0876 -0.1713
  442HK4    C3937118   7.567   5.441   3.497  0.0406  0.2417  0.0746
  442HK4    C4137119   7.455   5.456   3.413  0.3724 -0.3420 -0.4822
  442HK4    H2137120   7.428   5.559   3.385  1.8593  1.1786  3.3228
  442HK4    C4237121   7.372   5.347   3.386  0.0531 -0.3221  0.4066
  442HK4    H2237122   7.295   5.355   3.308  0.7561 -1.4664 -0.4220
  442HK4    C4337123   7.415   5.220   3.423 -0.2624 -0.6825 -0.4506
  442HK4    H2337124   7.356   5.136   3.388 -1.9273  0.6925 -1.0055
  442HK4    C4437125   7.531   5.204   3.498 -0.4078  0.0701 -0.0620
  442HK4    H2437126   7.575   5.105   3.514  0.0740  0.5589  1.8245
  442HK4    C4537127   7.607   5.313   3.541 -0.4807  0.0732  0.0613
  442HK4    H2537128   7.712   5.295   3.567 -0.7042 -0.7621  0.4186
  443HK4    H2837129   3.984  10.222   5.625 -0.2261 -0.1799 -1.3572
  443HK4    C4837130   4.086  10.182   5.620 -0.0186  0.1631 -0.0512
  443HK4    C4737131   4.158  10.161   5.737 -0.0929  0.1364 -0.0108
  443HK4    H2737132   4.092  10.139   5.822 -2.0086  1.9233 -0.9791
  443HK4    C4637133   4.291  10.121   5.737 -0.1406 -0.0284  0.0234
  443HK4    H2637134   4.333  10.093   5.834  0.0728 -1.2927 -0.4223
  443HK4    C4037135   4.365  10.108   5.617 -0.1831 -0.6180  0.0602
  443HK4    C5037136   4.292  10.138   5.500  0.1395  0.5716  0.1566
  443HK4    H3037137   4.342  10.158   5.404  0.4978 -0.2774  0.1609
  443HK4    C4937138   4.158  10.174   5.502 -0.2785 -0.9316 -0.1429
  443HK4    H2937139   4.129  10.233   5.413  0.2795  1.0350  0.9491
  443HK4     N237140   4.502  10.082   5.623  0.0019  0.2492 -0.2447
  443HK4    C3037141   4.591  10.111   5.728 -0.1499  0.1157 -0.0756
  443HK4    C2937142   4.600  10.227   5.804  0.2210  0.0918 -0.0771
  443HK4    H1537143   4.508  10.286   5.808  0.1195 -0.1388  1.1190
  443HK4    C2837144   4.709  10.272   5.878 -0.1178  0.1106  0.4178
  443HK4    C2737145   4.818  10.183   5.886  0.0646  0.2581 -0.3833
  443HK4    H1437146   4.911  10.221   5.930 -0.3839 -0.0126  0.8209
  443HK4    C3237147   4.820  10.070   5.805 -0.5177 -0.2006  0.2423
  443HK4    H1637148   4.917  10.020   5.796  0.3518  1.6761 -1.1856
  443HK4    C3137149   4.714  10.034   5.724 -0.5465 -0.5503  0.4306
  443HK4    C3437150   4.700   9.954   5.604 -0.0682  0.2799 -0.1816
  443HK4    C3337151   4.571   9.987   5.545 -0.1184  0.1012 -0.1716
  443HK4    C3537152   4.520   9.911   5.441  0.1386 -0.3248  0.0129
  443HK4    H1737153   4.412   9.920   5.425  0.2389 -0.9042 -1.0388
  443HK4    C3637154   4.588   9.802   5.387  0.2228  0.0216 -0.5772
  443HK4    H1837155   4.543   9.734   5.313 -0.1951  1.1988 -1.4192
  443HK4    C3737156   4.715   9.779   5.438  0.1278 -0.3512 -0.5060
  443HK4    H1937157   4.788   9.732   5.373  0.2455 -2.0414  0.8249
  443HK4    C3837158   4.769   9.848   5.546 -0.5639  0.0919 -0.4386
  443HK4    H2037159   4.873   9.824   5.569 -0.5847 -1.1718 -1.5878
  443HK4    C1437160   4.730  10.416   5.895  0.3647  0.0889  0.0340
  443HK4     C937161   4.854  10.471   5.861  0.4231 -0.2827 -0.3512
  443HK4     C837162   4.883  10.597   5.918 -0.0316 -0.2604 -0.1611
  443HK4    C1137163   4.791  10.666   5.995  0.3817 -0.6543  0.6947
  443HK4     H437164   4.828  10.758   6.043  2.0056 -1.0187  0.1549
  443HK4    C1237165   4.661  10.620   6.016  0.1492 -0.2363  0.1953
  443HK4     H537166   4.578  10.666   6.071 -1.1418  2.3687 -3.7061
  443HK4    C1337167   4.634  10.494   5.964  0.3719 -0.5026  0.7170
  443HK4     H637168   4.542  10.441   5.993 -0.4750  0.8186  0.4747
  443HK4     C737169   5.021  10.649   5.910 -0.0513 -0.1777  0.0798
  443HK4     O237170   5.056  10.750   5.973 -0.5468  0.2551 -0.3323
  443HK4     C437171   5.113  10.589   5.811  0.1915  0.2499  0.0469
  443HK4     C337172   5.238  10.648   5.795 -0.0979  0.7808 -0.3050
  443HK4     H337173   5.243  10.755   5.821  2.0233  0.3084  1.3109
  443HK4     C237174   5.337  10.590   5.716 -0.3105 -0.0958  0.0668
  443HK4     H237175   5.439  10.630   5.712  0.1875 -1.5210 -2.6390
  443HK4     C137176   5.308  10.467   5.658  0.4058 -0.3947  0.3391
  443HK4     H137177   5.373  10.441   5.573 -0.8831  1.1439 -1.1562
  443HK4     C637178   5.186  10.399   5.678  0.2515  0.0372  0.8835
  443HK4     C537179   5.085  10.467   5.747 -0.1314  0.3315  0.0341
  443HK4    C1037180   4.946  10.414   5.758  0.2997 -0.8403 -0.1509
  443HK4     O137181   4.896  10.370   5.655 -0.1365  0.1719 -0.3721
  443HK4    C1637182   5.173  10.273   5.603 -0.3584  0.3760  0.4102
  443HK4    C1537183   5.233  10.267   5.476  0.0146 -0.2589  0.6154
  443HK4     H737184   5.248  10.364   5.427 -0.0674  0.6317  2.3443
  443HK4    C2037185   5.264  10.150   5.406  0.6580  0.2598  0.0313
  443HK4     H937186   5.325  10.166   5.317 -2.6654  0.8250 -2.2418
  443HK4    C1937187   5.227  10.029   5.462 -0.6421  0.1267 -1.0940
  443HK4    C1837188   5.178  10.030   5.599 -0.1290 -0.2994 -0.9042
  443HK4    C1737189   5.151  10.150   5.663  0.7230 -0.2963 -0.5434
  443HK4     H837190   5.112  10.145   5.765  0.5030  0.1185 -0.6070
  443HK4     N137191   5.147   9.898   5.638  0.3575 -0.0856  0.2080
  443HK4    C2137192   5.171   9.816   5.526 -0.5229  0.0206 -0.0628
  443HK4    C2237193   5.214   9.893   5.411 -0.2250 -0.2726 -0.1475
  443HK4    C2637194   5.219   9.838   5.284 -0.5628  0.1551 -0.3493
  443HK4    H1337195   5.233   9.907   5.201  0.8351  0.2912 -0.0186
  443HK4    C2537196   5.182   9.705   5.265  0.0107 -0.0251 -0.2058
  443HK4    H1237197   5.203   9.662   5.167  0.5849 -0.7961  0.2486
  443HK4    C2437198   5.146   9.631   5.377  0.3805  0.1017 -0.0022
  443HK4    H1137199   5.138   9.522   5.370  0.5506  0.0480  0.6310
  443HK4    C2337200   5.136   9.684   5.505 -1.1080  0.1892 -0.1523
  443HK4    H1037201   5.118   9.617   5.589  0.3336  0.7882  0.6525
  443HK4    C3937202   5.137   9.868   5.775  0.1523 -0.2403  0.1590
  443HK4    C4137203   5.051   9.760   5.806  0.0606 -0.2842 -0.2356
  443HK4    H2137204   4.977   9.721   5.735  0.8730 -2.9677  0.3221
  443HK4    C4237205   5.067   9.683   5.921 -0.3194 -0.2328 -0.1491
  443HK4    H2237206   5.001   9.596   5.928 -0.5140 -0.1747 -1.1010
  443HK4    C4337207   5.167   9.720   6.011 -0.1148 -0.5318 -0.2554
  443HK4    H2337208   5.188   9.656   6.096 -4.6598 -0.4084  1.0902
  443HK4    C4437209   5.253   9.825   5.983 -0.0462 -0.6228 -0.4004
  443HK4    H2437210   5.335   9.858   6.049  0.7003  0.4595 -1.8333
  443HK4    C4537211   5.233   9.905   5.871 -0.3848  0.4577  0.4267
  443HK4    H2537212   5.281  10.004   5.859 -0.3702  0.3627 -0.3225
  444HK4    H2837213   7.261   3.660   5.617 -2.2681 -1.1768 -1.6933
  444HK4    C4837214   7.200   3.743   5.653 -0.4658 -0.2213 -0.7518
  444HK4    C4737215   7.241   3.871   5.616 -0.5932  0.1059  0.2385
  444HK4    H2737216   7.307   3.884   5.529  2.0309 -1.8181  1.8649
  444HK4    C4637217   7.205   3.979   5.696 -0.3566  0.4554 -0.1280
  444HK4    H2637218   7.260   4.073   5.686 -0.7686  0.5784 -1.4329
  444HK4    C4037219   7.113   3.971   5.803  0.2271 -0.0574  0.3387
  444HK4    C5037220   7.076   3.840   5.836  0.3416 -0.0482  0.5040
  444HK4    H3037221   7.035   3.823   5.937  1.5138  3.6434  1.6617
  444HK4    C4937222   7.118   3.729   5.764 -0.1073  0.3755 -0.4072
  444HK4    H2937223   7.067   3.632   5.773  1.0076 -0.1573  0.2490
  444HK4     N237224   7.027   4.075   5.840 -0.0561 -0.1349 -0.1057
  444HK4    C3037225   6.975   4.110   5.966  0.0038  0.3563 -0.2145
  444HK4    C2937226   7.011   4.054   6.088 -0.8105  0.1496 -0.0686
  444HK4    H1537227   7.103   3.996   6.090 -0.6488  0.3647 -1.2499
  444HK4    C2837228   6.941   4.081   6.205 -0.6984 -0.4073  0.1244
  444HK4    C2737229   6.835   4.172   6.192 -0.1407  0.2261  0.0043
  444HK4    H1437230   6.779   4.188   6.286  0.3762 -0.9040  0.5125
  444HK4    C3237231   6.801   4.236   6.074  0.0586  0.5311  0.1110
  444HK4    H1637232   6.700   4.277   6.071  1.1562  3.4997  2.1107
  444HK4    C3137233   6.866   4.205   5.954 -0.2970  0.0430  0.0470
  444HK4    C3437234   6.841   4.221   5.812  0.6924  0.6129 -0.0613
  444HK4    C3337235   6.948   4.147   5.748  0.2268  0.0580 -0.1989
  444HK4    C3537236   6.942   4.142   5.609 -0.2254  0.4640 -0.1967
  444HK4    H1737237   6.999   4.063   5.560 -1.8661  0.3056 -1.9481
  444HK4    C3637238   6.838   4.209   5.545 -0.0253  0.5514 -0.4284
  444HK4    H1837239   6.856   4.223   5.437  1.0693 -0.5760 -0.4054
  444HK4    C3737240   6.738   4.283   5.607  0.1966  0.3703  0.1522
  444HK4    H1937241   6.664   4.337   5.548 -0.2024  0.5208  0.7931
  444HK4    C3837242   6.736   4.283   5.746  0.3881  0.3285  0.1550
  444HK4    H2037243   6.650   4.319   5.803  0.8030 -2.6419  2.7796
  444HK4    C1437244   6.959   3.998   6.325 -0.1641 -0.1856  0.1985
  444HK4     C937245   6.865   3.956   6.420  0.1813 -0.7122  0.3116
  444HK4     C837246   6.901   3.901   6.545  0.1941 -0.3362  0.4719
  444HK4    C1137247   7.036   3.874   6.564  0.0712 -0.7329  0.7940
  444HK4     H437248   7.072   3.830   6.658 -0.5485 -0.4941  1.1506
  444HK4    C1237249   7.133   3.902   6.468 -0.5489  0.2310  0.4394
  444HK4     H537250   7.236   3.870   6.487 -1.7816 -3.7001  1.0547
  444HK4    C1337251   7.094   3.966   6.351 -0.0812  0.2320  0.2840
  444HK4     H637252   7.178   4.004   6.291 -0.3473  0.5734  0.1274
  444HK4     C737253   6.801   3.876   6.651 -0.2981 -0.2759  0.0276
  444HK4     O237254   6.832   3.818   6.755  0.2442 -0.1531 -0.0638
  444HK4     C437255   6.661   3.910   6.617 -0.1282  0.4205  0.0032
  444HK4     C337256   6.566   3.909   6.718  0.1076  0.0132  0.2281
  444HK4     H337257   6.598   3.870   6.816  1.2255  0.7289  0.1489
  444HK4     C237258   6.431   3.939   6.699  0.1631  0.2447  0.1934
  444HK4     H237259   6.358   3.924   6.780 -0.7164  0.9801 -0.4476
  444HK4     C137260   6.390   3.962   6.568 -0.1260 -0.2675  0.1918
  444HK4     H137261   6.284   3.979   6.542  0.6450  1.2419 -2.1534
  444HK4     C637262   6.480   3.966   6.460 -0.1312  0.5371  0.2084
  444HK4     C537263   6.613   3.933   6.487 -0.2784 -0.3012 -0.0725
  444HK4    C1037264   6.720   3.949   6.384  0.1239  0.0230  0.3957
  444HK4     O137265   6.700   3.891   6.278 -0.3771  0.4937  0.2290
  444HK4    C1637266   6.438   4.057   6.352 -0.2005  0.3380  0.0680
  444HK4    C1537267   6.364   4.174   6.378 -0.2388  0.3488 -0.0853
  444HK4     H737268   6.370   4.224   6.476  0.1251  1.1968 -0.5298
  444HK4    C2037269   6.292   4.241   6.279 -0.4168 -0.0729 -0.2408
  444HK4     H937270   6.265   4.344   6.304  1.4211  0.4513 -0.3500
  444HK4    C1937271   6.289   4.196   6.148  0.2383  0.1822 -0.3458
  444HK4    C1837272   6.366   4.077   6.118 -0.2766 -0.2509  0.0320
  444HK4    C1737273   6.433   4.012   6.221 -0.6038 -0.2155  0.2680
  444HK4     H837274   6.469   3.913   6.193  1.3385  0.3708  0.6284
  444HK4     N137275   6.343   4.039   5.984  0.2488 -0.0012 -0.1299
  444HK4    C2137276   6.242   4.124   5.934  0.2919  0.1624  0.0629
  444HK4    C2237277   6.204   4.223   6.034 -0.7541 -0.4267  0.2485
  444HK4    C2637278   6.118   4.327   6.000  0.3008  0.3525 -0.0581
  444HK4    H1337279   6.089   4.404   6.072 -1.0101 -0.7614  0.6325
  444HK4    C2537280   6.075   4.343   5.869 -0.4827 -0.3818  0.1019
  444HK4    H1237281   6.023   4.435   5.841  1.9791  0.3362 -2.2910
  444HK4    C2437282   6.111   4.254   5.769 -0.2123 -0.0234 -0.1222
  444HK4    H1137283   6.063   4.262   5.670 -0.1990  1.1823 -0.0336
  444HK4    C2337284   6.190   4.146   5.807  0.4766  0.5388  0.0507
  444HK4    H1037285   6.201   4.068   5.732  0.5183 -0.8218  1.4342
  444HK4    C3937286   6.436   3.963   5.911 -0.1141 -0.5154 -0.0565
  444HK4    C4137287   6.404   3.891   5.795 -0.2353 -0.1845 -0.2310
  444HK4    H2137288   6.300   3.885   5.762 -0.8738 -0.0607  1.7228
  444HK4    C4237289   6.504   3.827   5.722 -0.1689 -0.3264 -0.0127
  444HK4    H2237290   6.470   3.747   5.655  2.4630 -0.0817 -1.7189
  444HK4    C4337291   6.637   3.828   5.764 -0.1583  0.2541 -0.0626
  444HK4    H2337292   6.699   3.750   5.720 -1.9117  0.0206 -2.2134
  444HK4    C4437293   6.673   3.895   5.880  0.4302  0.8894 -0.6062
  444HK4    H2437294   6.774   3.877   5.919  0.4512 -1.3395 -1.6406
  444HK4    C4537295   6.572   3.959   5.950  0.0197  0.0828 -0.4573
  444HK4    H2537296   6.594   4.029   6.032 -1.3273 -1.8498  1.5944
  445HK4    H2837297   0.224   3.438   7.290 -0.9774  0.6400 -0.7211
  445HK4    C4837298   0.146   3.440   7.367 -0.2741 -0.0767  0.0076
  445HK4    C4737299   0.097   3.565   7.401 -0.2614 -0.1074  0.1384
  445HK4    H2737300   0.123   3.657   7.346  0.8606 -0.9589 -0.7915
  445HK4    C4637301   0.013   3.574   7.511  0.0609 -0.2690  0.3967
  445HK4    H2637302  11.225   3.676   7.532 -0.4430  0.4743 -3.8098
  445HK4    C4037303  11.227   3.461   7.589 -0.4236 -0.2544  0.2025
  445HK4    C5037304   0.032   3.336   7.552 -0.3625 -0.0763 -0.3258
  445HK4    H3037305   0.020   3.245   7.613  0.5586  0.2536  0.3549
  445HK4    C4937306   0.117   3.327   7.443  0.8108  0.0199  0.5745
  445HK4    H2937307   0.174   3.237   7.415 -1.1236 -0.9829 -0.2206
  445HK4     N237308  11.189   3.473   7.723 -0.4304  0.1033  0.1707
  445HK4    C3037309  11.208   3.584   7.807 -0.0918  0.5172 -0.4525
  445HK4    C2937310   0.048   3.691   7.797 -0.1082  0.5494 -0.2661
  445HK4    H1537311   0.137   3.685   7.733 -1.3019 -2.1214 -1.7664
  445HK4    C2837312   0.041   3.795   7.888  0.2582  0.0743  0.3051
  445HK4    C2737313  11.188   3.792   7.987 -0.3599  0.2692 -0.3202
  445HK4    H1437314  11.171   3.880   8.050 -1.4724  0.8075 -1.3523
  445HK4    C3237315  11.100   3.687   8.007  0.2513 -0.1971 -0.0441
  445HK4    H1637316  11.023   3.698   8.084  0.9518 -1.5537  0.8595
  445HK4    C3137317  11.113   3.582   7.916 -0.0900  0.1160 -0.4589
  445HK4    C3437318  11.048   3.452   7.912 -0.0179  0.0550  0.2267
  445HK4    C3337319  11.095   3.391   7.789 -0.1865 -0.1196  0.2491
  445HK4    C3537320  11.026   3.281   7.739  0.0496 -0.2058  0.1153
  445HK4    H1737321  11.058   3.239   7.643 -0.9012  0.3158 -0.4406
  445HK4    C3637322  10.915   3.235   7.809 -0.2515  0.3019 -0.0299
  445HK4    H1837323  10.859   3.145   7.779  0.9630 -0.0774 -1.2233
  445HK4    C3737324  10.865   3.293   7.924  0.7060 -0.4153  0.7520
  445HK4    H1937325  10.801   3.228   7.984 -0.8870 -1.8301 -2.4230
  445HK4    C3837326  10.932   3.406   7.972  0.2253 -0.0676  0.6057
  445HK4    H2037327  10.882   3.450   8.058 -0.7268 -1.0538  0.5700
  445HK4    C1437328   0.166   3.868   7.916  0.2576  0.2136 -0.0527
  445HK4     C937329   0.191   3.918   8.044 -0.2564 -0.2137  0.2210
  445HK4     C837330   0.267   4.037   8.057 -0.0250 -0.3366  0.0160
  445HK4    C1137331   0.333   4.089   7.947  0.5460  0.3791  0.6896
  445HK4     H437332   0.400   4.176   7.949  1.4730 -0.3182  0.3616
  445HK4    C1237333   0.322   4.028   7.823 -1.1630  1.0103  0.5050
  445HK4     H537334   0.378   4.059   7.733  0.7144 -1.6047  0.6982
  445HK4    C1337335   0.235   3.921   7.805 -0.5289  0.6227 -0.3447
  445HK4     H637336   0.207   3.887   7.704 -2.0863 -1.6367  0.7867
  445HK4     C737337   0.264   4.106   8.188 -0.1147 -0.1540 -0.0818
  445HK4     O237338   0.315   4.217   8.196  0.0713 -0.2454  0.0120
  445HK4     C437339   0.183   4.046   8.298  0.0295 -0.1343  0.0303
  445HK4     C337340   0.169   4.119   8.416  0.4660 -0.0920  0.0601
  445HK4     H337341   0.214   4.219   8.415  1.1664 -0.3978  0.2249
  445HK4     C237342   0.108   4.075   8.533  0.4442 -0.0563  0.0629
  445HK4     H237343   0.073   4.137   8.617  1.1719 -1.0620  1.1297
  445HK4     C137344   0.075   3.940   8.533 -0.6847  0.2112 -0.1934
  445HK4     H137345   0.058   3.891   8.630  0.1974 -0.3364 -0.3038
  445HK4     C637346   0.082   3.864   8.415 -0.0942 -0.1326  0.0610
  445HK4     C537347   0.139   3.913   8.296 -0.0335 -0.1154  0.0959
  445HK4    C1037348   0.158   3.841   8.167 -0.6288 -0.2662  0.0879
  445HK4     O137349   0.201   3.726   8.171 -0.4192 -0.1897  0.0817
  445HK4    C1637350  11.220   3.768   8.409 -0.3676  0.1852 -0.0423
  445HK4    C1537351  11.088   3.813   8.428 -0.3807  0.4335 -0.6901
  445HK4     H737352  11.072   3.913   8.471  1.1692 -0.2920  1.7178
  445HK4    C2037353  10.978   3.728   8.423 -0.3700  0.3509  0.2619
  445HK4     H937354  10.876   3.767   8.419 -0.0320  1.2319  0.0227
  445HK4    C1937355  11.004   3.595   8.393 -0.1437  0.4579 -0.0229
  445HK4    C1837356  11.135   3.543   8.358 -0.2790 -0.2123  0.4434
  445HK4    C1737357  11.238   3.634   8.376 -0.5289  0.1905 -0.1561
  445HK4     H837358   0.093   3.600   8.363 -0.2449  1.7588 -2.3164
  445HK4     N137359  11.142   3.407   8.318 -0.1328  0.1671 -0.8660
  445HK4    C2137360  11.008   3.365   8.332 -0.1106  0.4054  0.1740
  445HK4    C2237361  10.926   3.473   8.386 -0.1288  0.4432  0.0698
  445HK4    C2637362  10.795   3.448   8.425 -0.1504 -0.1449 -0.3648
  445HK4    H1337363  10.726   3.530   8.440 -1.8950 -1.8612  1.2672
  445HK4    C2537364  10.748   3.318   8.408 -0.1696 -0.1851 -0.0048
  445HK4    H1237365  10.665   3.282   8.468 -0.0038 -1.5102 -0.5555
  445HK4    C2437366  10.822   3.217   8.348  0.2870  0.2157 -0.1220
  445HK4    H1137367  10.783   3.115   8.331 -1.0458  0.7912 -0.5348
  445HK4    C2337368  10.957   3.236   8.323  0.5206  0.1005  0.9928
  445HK4    H1037369  11.033   3.158   8.327  1.5322  1.0372  0.5037
  445HK4    C3937370   0.003   3.339   8.264  0.7290  0.4336  0.5207
  445HK4    C4137371   0.025   3.201   8.282 -0.6167  0.1228 -0.2154
  445HK4    H2137372   0.000   3.146   8.374  0.3281 -0.3390 -0.2317
  445HK4    C4237373   0.096   3.122   8.192  0.0168  0.2492  0.1763
  445HK4    H2237374   0.085   3.013   8.199 -0.7823  0.2952 -0.2863
  445HK4    C4337375   0.146   3.178   8.075  0.0736 -0.2378 -0.0343
  445HK4    H2337376   0.224   3.130   8.016 -0.6364  0.7208 -1.7698
  445HK4    C4437377   0.115   3.312   8.056  0.2279 -0.1920  0.0339
  445HK4    H2437378   0.127   3.350   7.953 -3.1831 -1.2033 -0.7932
  445HK4    C4537379   0.056   3.399   8.148  0.3175 -0.1380  0.0390
  445HK4    H2537380   0.090   3.503   8.155 -1.3000  0.3624  0.6473
  446HK4    H2837381   0.969   1.392   4.597  1.1031  1.0273 -0.0057
  446HK4    C4837382   0.990   1.403   4.703  0.5678  0.1986  0.1932
  446HK4    C4737383   0.901   1.467   4.788 -0.2448 -0.0795 -0.4495
  446HK4    H2737384   0.817   1.530   4.755  0.0434  1.4609  1.6915
  446HK4    C4637385   0.928   1.465   4.924  0.2304 -0.3377 -0.5496
  446HK4    H2637386   0.868   1.530   4.990 -0.2455 -0.2781 -1.0418
  446HK4    C4037387   1.044   1.410   4.983  0.3918  0.3642 -0.2041
  446HK4    C5037388   1.134   1.350   4.892  0.6444 -0.1646  0.3843
  446HK4    H3037389   1.221   1.293   4.927  0.4405 -0.3395  0.6008
  446HK4    C4937390   1.103   1.341   4.757  0.3137 -0.0377  0.4529
  446HK4    H2937391   1.176   1.295   4.690 -1.6847 -2.6308 -0.0312
  446HK4     N237392   1.041   1.358   5.113 -0.1878  0.1467 -0.3039
  446HK4    C3037393   1.158   1.350   5.191 -0.3669  0.5549  0.0048
  446HK4    C2937394   1.285   1.402   5.167 -0.2419  0.3521  0.2338
  446HK4    H1537395   1.303   1.458   5.075  2.0043 -0.2217  0.2867
  446HK4    C2837396   1.379   1.406   5.269  0.0502  0.1831 -0.0264
  446HK4    C2737397   1.345   1.356   5.397 -0.7158  0.9044  0.0559
  446HK4    H1437398   1.405   1.388   5.483  0.2116  0.2817 -0.3500
  446HK4    C3237399   1.223   1.291   5.412  0.0364 -0.6497 -0.4297
  446HK4    H1637400   1.208   1.229   5.500 -1.3748 -0.4897 -0.5477
  446HK4    C3137401   1.122   1.287   5.316 -0.0955 -0.2298 -0.3084
  446HK4    C3437402   0.983   1.246   5.308 -0.2222  0.0750  0.3360
  446HK4    C3337403   0.936   1.291   5.179  0.1081  0.2503  0.2744
  446HK4    C3537404   0.813   1.238   5.139  0.2456  0.1207  0.0209
  446HK4    H1737405   0.777   1.249   5.037 -1.5076 -1.1519  0.5001
  446HK4    C3637406   0.739   1.158   5.225  0.0399  0.4352  0.1393
  446HK4    H1837407   0.633   1.143   5.200  0.2968  0.7447 -1.1774
  446HK4    C3737408   0.791   1.110   5.345 -0.0930  0.4326  0.1967
  446HK4    H1937409   0.732   1.041   5.404 -0.5132 -0.7793 -1.6046
  446HK4    C3837410   0.913   1.159   5.391  0.1844 -0.3181  0.2696
  446HK4    H2037411   0.956   1.129   5.486  1.4672  0.8753  0.0817
  446HK4    C1437412   1.517   1.423   5.222  0.2036  0.4426  0.5133
  446HK4     C937413   1.632   1.361   5.274  0.2544 -0.1151 -0.2560
  446HK4     C837414   1.758   1.423   5.264 -0.1108  0.8502  0.9684
  446HK4    C1137415   1.772   1.541   5.193  0.1700 -0.1775 -0.7090
  446HK4     H437416   1.869   1.586   5.167  0.2817 -0.4051 -0.6928
  446HK4    C1237417   1.662   1.599   5.132  0.1454  0.1924 -0.3131
  446HK4     H537418   1.673   1.696   5.081 -1.8551  1.6790  1.9675
  446HK4    C1337419   1.537   1.540   5.146  0.1898  0.2059  0.1446
  446HK4     H637420   1.456   1.607   5.114 -0.8144 -0.0592  2.0703
  446HK4     C737421   1.878   1.367   5.330  0.0028 -0.2145 -0.1290
  446HK4     O237422   1.983   1.367   5.266 -0.0039  0.2034 -0.1360
  446HK4     C437423   1.856   1.267   5.437  0.0079  0.0749  0.1437
  446HK4     C337424   1.962   1.234   5.520  0.1250  0.1878  0.0392
  446HK4     H337425   2.062   1.273   5.497  1.1776 -3.2131 -1.4464
  446HK4     C237426   1.942   1.148   5.628 -0.1337 -0.4578 -0.5213
  446HK4     H237427   2.026   1.132   5.696  0.4807  1.4319 -0.8148
  446HK4     C137428   1.816   1.093   5.651 -0.0635 -0.4695 -0.1721
  446HK4     H137429   1.799   1.028   5.738 -0.0041  1.9267  1.6876
  446HK4     C637430   1.712   1.118   5.560  0.0755 -0.1371 -0.2390
  446HK4     C537431   1.731   1.203   5.450 -0.0745  0.2080  0.0015
  446HK4    C1037432   1.624   1.233   5.350 -0.2770  0.1921  0.2114
  446HK4     O137433   1.579   1.140   5.284  0.6544  0.0807 -0.2813
  446HK4    C1637434   1.577   1.094   5.614  0.1290 -0.1013 -0.0884
  446HK4    C1537435   1.539   1.132   5.744  0.0858 -0.8254  0.1109
  446HK4     H737436   1.599   1.204   5.801 -0.6175 -0.3368  0.2441
  446HK4    C2037437   1.412   1.102   5.793 -0.0322 -0.2656  0.1566
  446HK4     H937438   1.376   1.148   5.884 -0.6588  1.5064 -0.9593
  446HK4    C1937439   1.324   1.018   5.725  0.3105 -0.3718 -0.1600
  446HK4    C1837440   1.368   0.975   5.594 -0.2795 -0.5916 -0.2875
  446HK4    C1737441   1.493   1.008   5.544 -0.2241 -0.0165  0.2306
  446HK4     H837442   1.534   0.958   5.457  0.8332 -2.0021  1.8141
  446HK4     N137443   1.267   0.912   5.518 -0.3369 -0.3615 -0.4028
  446HK4    C2137444   1.158   0.908   5.607 -0.0580  1.0155  0.0104
  446HK4    C2237445   1.189   0.966   5.737 -0.0299  0.5793  0.2006
  446HK4    C2637446   1.085   0.991   5.826 -0.3911 -0.2926  0.0276
  446HK4    H1337447   1.106   1.054   5.912 -0.6643  0.1221 -0.2108
  446HK4    C2537448   0.953   0.960   5.797 -0.6171  0.5610  0.1535
  446HK4    H1237449   0.890   0.946   5.886  2.2783  1.9107  2.5136
  446HK4    C2437450   0.920   0.907   5.673  0.2087 -0.4264  0.3502
  446HK4    H1137451   0.816   0.894   5.641  0.7585  0.2144 -1.8201
  446HK4    C2337452   1.023   0.882   5.583  0.1185 -0.0183  0.1301
  446HK4    H1037453   1.003   0.826   5.492  0.6703 -0.2381  0.1410
  446HK4    C3937454   1.263   0.881   5.382 -0.4245  0.1863 -0.5240
  446HK4    C4137455   1.182   0.778   5.330  0.2725 -0.5959 -0.0751
  446HK4    H2137456   1.161   0.692   5.395  0.7387  0.3185  1.3000
  446HK4    C4237457   1.141   0.780   5.197  0.3926  0.0613 -0.1062
  446HK4    H2237458   1.092   0.688   5.160 -0.7094 -0.9808  3.7218
  446HK4    C4337459   1.178   0.886   5.114 -0.2341 -0.1248 -0.6300
  446HK4    H2337460   1.154   0.893   5.008 -0.0268 -1.6512 -0.7848
  446HK4    C4437461   1.262   0.987   5.160 -0.5872 -0.1973  0.1881
  446HK4    H2437462   1.295   1.070   5.096 -0.4102 -1.4986 -1.4384
  446HK4    C4537463   1.297   0.987   5.295  0.5379  0.2348 -0.0987
  446HK4    H2537464   1.336   1.082   5.332 -1.2222  1.7423 -1.9569
  447HK4    H2837465   8.189   3.304   9.720 -0.8423 -0.0041 -0.3584
  447HK4    C4837466   8.243   3.394   9.693 -0.4017 -0.3331 -0.5658
  447HK4    C4737467   8.378   3.376   9.661 -0.0377 -0.0741  0.7611
  447HK4    H2737468   8.404   3.272   9.640 -1.1860  0.1384 -1.9737
  447HK4    C4637469   8.445   3.485   9.606 -0.3989 -0.0028  0.4588
  447HK4    H2637470   8.540   3.458   9.559 -2.2073 -0.3050 -3.1849
  447HK4    C4037471   8.380   3.608   9.580 -0.1050 -0.0404 -0.4659
  447HK4    C5037472   8.245   3.622   9.616 -0.0427 -0.1096 -0.2034
  447HK4    H3037473   8.187   3.713   9.592  0.6821  0.7071  1.0918
  447HK4    C4937474   8.179   3.516   9.677  0.3636  0.2768  0.9164
  447HK4    H2937475   8.095   3.548   9.741 -0.0332  0.8933  0.0995
  447HK4     N237476   8.453   3.720   9.539 -0.3748  0.3639  0.1364
  447HK4    C3037477   8.589   3.753   9.560 -0.2646  0.0864 -0.1204
  447HK4    C2937478   8.678   3.714   9.659  0.2153 -0.2208 -0.6718
  447HK4    H1537479   8.640   3.672   9.752  0.7314 -0.1256 -0.4169
  447HK4    C2837480   8.810   3.757   9.670  0.1197 -0.0540 -0.1172
  447HK4    C2737481   8.849   3.852   9.573  0.0320  0.0795 -0.0235
  447HK4    H1437482   8.956   3.873   9.559 -0.8018  2.7765 -2.8613
  447HK4    C3237483   8.766   3.894   9.469 -0.0283  0.2093  0.0781
  447HK4    H1637484   8.808   3.951   9.386  0.0644  1.9990  1.3025
  447HK4    C3137485   8.634   3.852   9.465  0.0067  0.1082  0.0331
  447HK4    C3437486   8.517   3.886   9.385  0.4978 -0.8686 -1.1115
  447HK4    C3337487   8.414   3.793   9.425  0.2053 -0.2725 -0.4759
  447HK4    C3537488   8.293   3.803   9.357 -0.1444 -0.1904  0.1533
  447HK4    H1737489   8.211   3.739   9.391  0.1885 -0.1522  1.0387
  447HK4    C3637490   8.271   3.898   9.258  0.0291 -0.4453 -0.1320
  447HK4    H1837491   8.184   3.888   9.192  0.9072 -1.8429 -1.0966
  447HK4    C3737492   8.368   3.992   9.225 -0.3680  0.0047 -0.0344
  447HK4    H1937493   8.352   4.063   9.144 -0.1996  3.8348  3.1617
  447HK4    C3837494   8.491   3.983   9.290 -0.2305 -0.2989 -0.3330
  447HK4    H2037495   8.561   4.067   9.284 -0.1648 -0.1904  1.8355
  447HK4    C1437496   8.891   3.724   9.788 -0.2312 -0.1764  0.0891
  447HK4     C937497   8.975   3.813   9.856  0.0565 -0.3166 -0.0814
  447HK4     C837498   9.082   3.759   9.931  0.6149 -0.1320 -0.7362
  447HK4    C1137499   9.101   3.621   9.938  0.3333 -0.1579 -0.4363
  447HK4     H437500   9.189   3.583   9.993  0.8783  0.5966 -0.7647
  447HK4    C1237501   9.011   3.538   9.873 -0.3507  0.0852  0.1997
  447HK4     H537502   9.051   3.436   9.862  1.0960  0.7063 -0.4373
  447HK4    C1337503   8.900   3.585   9.804 -0.3191 -0.1962 -0.0397
  447HK4     H637504   8.824   3.519   9.759  0.4326 -1.5468  0.6172
  447HK4     C737505   9.165   3.852  10.010 -0.3775  0.2418 -0.1092
  447HK4     O237506   9.264   3.807  10.068 -0.4029  0.3926  0.0471
  447HK4     C437507   9.144   3.998  10.003  0.1455  0.3122 -0.2365
  447HK4     C337508   9.207   4.080  10.096 -0.3346  0.3705  0.0334
  447HK4     H337509   9.246   4.028  10.184  0.7253  0.8144 -0.1740
  447HK4     C237510   9.190   4.218  10.090  0.0296  0.4441  0.6578
  447HK4     H237511   9.243   4.279  10.165  1.6753  1.6552 -1.4480
  447HK4     C137512   9.127   4.272   9.978  0.4641  0.1825  0.2867
  447HK4     H137513   9.137   4.378   9.951 -1.2035 -0.1078 -1.5738
  447HK4     C637514   9.064   4.190   9.881 -0.3808  0.4929  0.5669
  447HK4     C537515   9.062   4.052   9.902  0.3247  0.3383 -0.3677
  447HK4    C1037516   8.958   3.961   9.847  0.4530 -0.2441  0.3478
  447HK4     O137517   8.842   4.002   9.859  0.4449 -0.1644  0.0191
  447HK4    C1637518   9.035   4.260   9.755 -0.6700  0.0368  0.3805
  447HK4    C1537519   9.028   4.182   9.638  0.0229  0.2536  0.1895
  447HK4     H737520   9.058   4.076   9.634 -1.1821 -0.0682 -0.9072
  447HK4    C2037521   8.985   4.235   9.517 -0.2234 -0.2363  0.0610
  447HK4     H937522   8.966   4.167   9.434  0.9096 -1.1042  0.4956
  447HK4    C1937523   8.959   4.371   9.508 -0.5673 -0.3022  0.0316
  447HK4    C1837524   8.977   4.457   9.623  0.3746  0.2308 -0.5065
  447HK4    C1737525   9.001   4.394   9.745 -0.0538  0.1365 -0.4725
  447HK4     H837526   8.982   4.463   9.827  1.1621  0.4149 -0.4227
  447HK4     N137527   8.964   4.595   9.597  0.6180  0.3142 -0.2155
  447HK4    C2137528   8.940   4.595   9.458  0.0368 -0.2395 -0.1231
  447HK4    C2237529   8.933   4.463   9.399 -0.6135 -0.2853  0.0578
  447HK4    C2637530   8.888   4.444   9.269 -0.4051  0.3099 -0.1047
  447HK4    H1337531   8.895   4.346   9.220 -2.7201 -1.0870  2.2229
  447HK4    C2537532   8.847   4.545   9.184 -0.0593  0.4322 -0.1183
  447HK4    H1237533   8.816   4.529   9.080  0.1368 -0.7537  0.0049
  447HK4    C2437534   8.850   4.669   9.247 -0.5920  0.3168  0.1275
  447HK4    H1137535   8.835   4.756   9.180 -0.9630 -0.1545 -0.4043
  447HK4    C2337536   8.895   4.697   9.375  0.5705 -0.0558 -0.1902
  447HK4    H1037537   8.908   4.802   9.404  1.0286  0.1776 -1.2101
  447HK4    C3937538   9.032   4.696   9.665  0.4641  0.4807 -0.3076
  447HK4    C4137539   9.153   4.667   9.732 -0.0659  0.0181  0.4552
  447HK4    H2137540   9.216   4.578   9.719  1.1492  0.9432 -0.1247
  447HK4    C4237541   9.205   4.752   9.829  0.4916  0.2726 -0.0607
  447HK4    H2237542   9.289   4.720   9.892  1.7167 -0.1013 -1.8553
  447HK4    C4337543   9.131   4.865   9.861 -0.2104 -0.2696  0.2654
  447HK4    H2337544   9.167   4.935   9.937  0.1838 -1.9687  1.6758
  447HK4    C4437545   9.010   4.893   9.799  0.2333  0.4490 -0.2934
  447HK4    H2437546   8.941   4.970   9.837  0.4538  0.9155 -0.8304
  447HK4    C4537547   8.964   4.816   9.693 -0.3119 -0.1134  0.3512
  447HK4    H2537548   8.873   4.846   9.638  0.1352  0.7623  0.0957
  448HK4    H2837549  10.923   4.601   9.296  0.6261  1.8676  1.2532
  448HK4    C4837550  10.888   4.683   9.233 -0.6261  0.3381 -0.0593
  448HK4    C4737551  10.889   4.692   9.094 -0.4503 -0.1327 -0.0914
  448HK4    H2737552  10.920   4.603   9.037  1.6835  1.2835 -1.2171
  448HK4    C4637553  10.865   4.810   9.024  0.0629 -0.0917 -0.2029
  448HK4    H2637554  10.849   4.812   8.915 -3.3179  0.3093  0.2392
  448HK4    C4037555  10.842   4.930   9.095  0.2936 -0.0006 -0.2864
  448HK4    C5037556  10.828   4.919   9.234 -0.3375 -0.0699 -0.3509
  448HK4    H3037557  10.837   5.016   9.286  1.4530  0.8132 -2.2463
  448HK4    C4937558  10.857   4.800   9.300 -0.0848  0.3116  0.2306
  448HK4    H2937559  10.889   4.791   9.405 -1.1836 -2.3378  0.3743
  448HK4     N237560  10.873   5.056   9.043  0.4108  0.3113  0.5494
  448HK4    C3037561  10.967   5.087   8.943  0.0552  0.3063  0.2169
  448HK4    C2937562  11.077   5.018   8.892  0.1085  0.3435  0.2827
  448HK4    H1537563  11.107   4.936   8.956 -0.0826 -1.1535 -1.4931
  448HK4    C2837564  11.160   5.067   8.792  0.0023  0.0303  0.0387
  448HK4    C2737565  11.135   5.198   8.747  0.4283  0.0480 -0.1490
  448HK4    H1437566  11.211   5.251   8.686 -0.0078  2.4368  1.3074
  448HK4    C3237567  11.026   5.272   8.792 -0.1552 -0.3981 -0.8141
  448HK4    H1637568  11.028   5.379   8.775  0.9515 -0.0814  1.1715
  448HK4    C3137569  10.944   5.221   8.892 -0.2452 -0.1005 -0.7366
  448HK4    C3437570  10.839   5.277   8.975  0.0295 -0.2847 -0.2643
  448HK4    C3337571  10.803   5.175   9.071 -0.0978  0.1142  0.1169
  448HK4    C3537572  10.691   5.195   9.153 -0.1188 -0.4536  0.2226
  448HK4    H1737573  10.654   5.127   9.230 -0.0183  1.8922  2.3938
  448HK4    C3637574  10.616   5.311   9.143  0.6894  0.0984  0.5203
  448HK4    H1837575  10.524   5.332   9.200  1.3808  1.6907  1.0916
  448HK4    C3737576  10.657   5.404   9.049 -0.0259 -0.2911 -0.1799
  448HK4    H1937577  10.579   5.475   9.020 -0.6124 -0.4606  0.9425
  448HK4    C3837578  10.767   5.396   8.964  0.2957 -0.0791  0.2156
  448HK4    H2037579  10.789   5.474   8.892 -0.2650  1.9413  2.1682
  448HK4    C1437580   0.034   4.993   8.756  0.0896  0.1361  0.1174
  448HK4     C937581   0.154   5.048   8.709 -0.1406  0.3276 -0.2465
  448HK4     C837582   0.229   4.982   8.610 -0.4476  0.1852 -0.3865
  448HK4    C1137583   0.197   4.849   8.586 -0.3488  0.0317  0.3170
  448HK4     H437584   0.253   4.793   8.510 -1.4482 -0.0289 -0.4643
  448HK4    C1237585   0.087   4.779   8.635 -0.2655 -0.1646  0.2242
  448HK4     H537586   0.075   4.672   8.616 -0.3184 -0.2044  0.4803
  448HK4    C1337587   0.008   4.860   8.716 -0.3422  0.3746 -0.3887
  448HK4     H637588  11.187   4.809   8.785  0.8949  1.0581  1.3868
  448HK4     C737589   0.351   5.040   8.550  0.1639 -0.4909  0.2024
  448HK4     O237590   0.417   4.982   8.464  0.1144 -0.0872 -0.1070
  448HK4     C437591   0.410   5.161   8.612  0.2978 -0.4463 -0.0155
  448HK4     C337592   0.519   5.228   8.559  0.5536 -0.7608  0.1146
  448HK4     H337593   0.576   5.180   8.477  0.2884  2.8630 -2.3284
  448HK4     C237594   0.573   5.340   8.620 -0.4266 -0.3188  0.1803
  448HK4     H237595   0.658   5.383   8.565  1.3632 -1.4581  1.9745
  448HK4     C137596   0.531   5.375   8.748 -0.2163  0.0878  0.1381
  448HK4     H137597   0.550   5.479   8.780 -0.7228  0.5183 -0.9245
  448HK4     C637598   0.443   5.287   8.814 -0.4670  0.1508 -0.1115
  448HK4     C537599   0.363   5.199   8.740  0.0487 -0.2881 -0.1495
  448HK4    C1037600   0.224   5.161   8.777  0.1003 -0.1064  0.2306
  448HK4     O137601   0.169   5.225   8.866 -0.4098 -0.3268  0.0733
  448HK4    C1637602   0.465   5.261   8.957  0.0384  0.0872 -0.1983
  448HK4    C1537603   0.557   5.338   9.031 -0.3293  0.4036 -0.0693
  448HK4     H737604   0.599   5.428   8.985 -0.1026  0.6887  0.6829
  448HK4    C2037605   0.602   5.303   9.158  0.1066 -0.0386 -0.3403
  448HK4     H937606   0.698   5.340   9.194  0.8668 -1.9082 -0.4031
  448HK4    C1937607   0.553   5.186   9.215  0.0280  0.0840 -0.1539
  448HK4    C1837608   0.453   5.106   9.147  0.1345 -0.0768 -0.1171
  448HK4    C1737609   0.423   5.143   9.017  0.2435  0.0604 -0.1064
  448HK4     H837610   0.385   5.056   8.963 -0.1574  0.8852 -1.1707
  448HK4     N137611   0.402   5.002   9.228  0.1103 -0.2551 -0.3606
  448HK4    C2137612   0.490   5.004   9.339  0.0730 -0.1110 -0.3348
  448HK4    C2237613   0.582   5.116   9.340 -0.1369  0.0600 -0.1284
  448HK4    C2637614   0.660   5.144   9.451 -0.6970  0.6584  0.1197
  448HK4    H1337615   0.702   5.244   9.462  0.0211  0.7124 -2.7357
  448HK4    C2537616   0.664   5.057   9.559  0.1278 -0.0203 -0.4524
  448HK4    H1237617   0.722   5.077   9.649 -1.0041  0.3399  0.2117
  448HK4    C2437618   0.590   4.939   9.553 -0.0560  0.1129 -0.8206
  448HK4    H1137619   0.574   4.885   9.647  0.9807  1.9003  0.4036
  448HK4    C2337620   0.508   4.914   9.443 -0.5161 -0.2915 -0.3880
  448HK4    H1037621   0.458   4.817   9.444  1.2227 -1.2157 -1.2734
  448HK4    C3937622   0.269   4.958   9.229  0.0125  0.0383  0.1287
  448HK4    C4137623   0.236   4.824   9.259  0.1337  0.0507  0.3172
  448HK4    H2137624   0.320   4.757   9.234  0.2038  0.6153 -1.0450
  448HK4    C4237625   0.105   4.779   9.266  0.1250  0.0403  0.1008
  448HK4    H2237626   0.080   4.673   9.252 -1.3053  0.5966 -1.6989
  448HK4    C4337627   0.005   4.874   9.253  0.1675  0.1556  0.5800
  448HK4    H2337628  11.150   4.848   9.278  0.8020 -1.0959  1.9801
  448HK4    C4437629   0.029   5.009   9.229  0.3112  0.0919  0.3630
  448HK4    H2437630  11.197   5.085   9.226 -0.1656 -0.2898  2.4572
  448HK4    C4537631   0.162   5.048   9.217  0.2190  0.2483 -0.1706
  448HK4    H2537632   0.189   5.154   9.231 -2.9258  1.3880 -2.0504
  449HK4    H2837633   4.253   6.783   0.982 -0.4684  2.2582 -1.7454
  449HK4    C4837634   4.152   6.792   1.020 -0.1090 -0.1614 -0.0865
  449HK4    C4737635   4.087   6.709   1.112 -0.2079 -0.4867 -0.4491
  449HK4    H2737636   4.152   6.631   1.155  2.6018  1.7307 -0.4802
  449HK4    C4637637   3.954   6.726   1.146  0.0704  0.1388  0.3437
  449HK4    H2637638   3.893   6.648   1.194 -1.0900  0.5407 -0.4728
  449HK4    C4037639   3.886   6.839   1.097 -0.2957 -0.4136 -0.4334
  449HK4    C5037640   3.951   6.925   1.005  0.2964 -0.0780  0.2910
  449HK4    H3037641   3.901   7.011   0.958 -0.9946 -1.4075 -0.8087
  449HK4    C4937642   4.084   6.903   0.972  0.2373  0.0638 -0.0525
  449HK4    H2937643   4.145   6.972   0.911  1.6506 -1.0777  0.0474
  449HK4     N237644   3.766   6.885   1.153 -0.4110 -1.2224 -0.0160
  449HK4    C3037645   3.721   6.855   1.283 -0.2767 -0.2013  0.2712
  449HK4    C2937646   3.796   6.834   1.398 -0.5287  0.7053  0.6073
  449HK4    H1537647   3.903   6.854   1.398 -0.1066 -1.4115  0.7166
  449HK4    C2837648   3.729   6.804   1.515 -0.4078  0.1362  0.5313
  449HK4    C2737649   3.591   6.774   1.516 -0.4392  0.2699  0.2644
  449HK4    H1437650   3.534   6.762   1.610  1.8888 -5.2699  1.1847
  449HK4    C3237651   3.520   6.796   1.399 -0.5985  0.9019  0.4770
  449HK4    H1637652   3.418   6.759   1.394 -0.2972 -0.2534  2.3623
  449HK4    C3137653   3.576   6.843   1.281 -0.2885 -0.0582  0.2364
  449HK4    C3437654   3.530   6.892   1.153 -0.0034 -0.3902  0.0053
  449HK4    C3337655   3.651   6.916   1.077 -0.0970 -0.1651 -0.0737
  449HK4    C3537656   3.643   6.940   0.941 -0.3053  0.1324 -0.0083
  449HK4    H1737657   3.735   6.937   0.882  0.1583  1.6497  0.6340
  449HK4    C3637658   3.518   6.941   0.880 -0.3190 -0.3430  0.0052
  449HK4    H1837659   3.505   6.995   0.785  0.7854  0.5768  0.3663
  449HK4    C3737660   3.400   6.918   0.951 -0.4609  0.1665 -0.0591
  449HK4    H1937661   3.307   6.921   0.895 -1.2282 -0.6564  1.1396
  449HK4    C3837662   3.407   6.896   1.088  0.0471  0.3633 -0.0502
  449HK4    H2037663   3.314   6.859   1.133 -0.3821 -1.9669 -2.7381
  449HK4    C1437664   3.804   6.777   1.639  0.1903  0.1271  0.1645
  449HK4     C937665   3.771   6.683   1.737 -0.4264  0.4271  0.2431
  449HK4     C837666   3.797   6.708   1.873  0.8836 -0.2118  0.1202
  449HK4    C1137667   3.869   6.822   1.908  0.7753 -0.0826 -0.0765
  449HK4     H437668   3.912   6.832   2.008 -1.7387  1.4424  0.8859
  449HK4    C1237669   3.912   6.911   1.810 -0.0617  0.1802 -0.2101
  449HK4     H537670   3.997   6.976   1.836  1.8970 -1.8707 -1.3467
  449HK4    C1337671   3.880   6.889   1.677  0.9036 -0.1668 -0.3873
  449HK4     H637672   3.936   6.943   1.599  0.4097 -1.7325 -1.8491
  449HK4     C737673   3.783   6.608   1.981  0.2661 -0.3126 -0.0527
  449HK4     O237674   3.756   6.646   2.095 -0.4662 -0.1340 -0.2803
  449HK4     C437675   3.762   6.469   1.935 -0.7326 -0.4648  0.8228
  449HK4     C337676   3.802   6.366   2.019  0.3390 -0.6036  0.1537
  449HK4     H337677   3.850   6.382   2.117 -0.1898 -0.2250  0.3558
  449HK4     C237678   3.768   6.235   1.985  0.0403 -0.5429  0.2091
  449HK4     H237679   3.774   6.148   2.052  1.3183 -0.5537  0.0996
  449HK4     C137680   3.693   6.223   1.868  0.4390  0.3105 -0.1450
  449HK4     H137681   3.701   6.118   1.835 -0.7551 -0.5771  2.2023
  449HK4     C637682   3.637   6.326   1.791  0.3141  0.3033 -0.0653
  449HK4     C537683   3.691   6.453   1.814 -0.2404  0.4559  0.4073
  449HK4    C1037684   3.709   6.551   1.704  0.1236  0.1740  0.2174
  449HK4     O137685   3.724   6.508   1.589  0.1279  0.0940  0.2485
  449HK4    C1637686   3.507   6.301   1.728  0.2678  0.2639  0.0465
  449HK4    C1537687   3.437   6.185   1.768 -0.1576  0.4521 -0.1499
  449HK4     H737688   3.438   6.160   1.875 -2.3573 -1.8460 -0.6000
  449HK4    C2037689   3.353   6.105   1.690  0.0588 -0.0684  0.1523
  449HK4     H937690   3.326   6.007   1.729 -0.3482 -0.3838 -0.9033
  449HK4    C1937691   3.310   6.152   1.567  0.1582  0.5095  0.3397
  449HK4    C1837692   3.370   6.277   1.524 -0.0969  0.4142 -0.2969
  449HK4    C1737693   3.460   6.345   1.605 -0.2158  0.0440  0.1494
  449HK4     H837694   3.479   6.448   1.575  0.9048 -0.1798  0.0924
  449HK4     N137695   3.315   6.321   1.402 -0.2852  0.0541 -0.3437
  449HK4    C2137696   3.218   6.225   1.367 -0.0852 -0.2656 -0.0202
  449HK4    C2237697   3.221   6.114   1.460  0.6226 -0.0927  0.1713
  449HK4    C2637698   3.140   6.002   1.439 -0.1044  0.5192 -0.3526
  449HK4    H1337699   3.144   5.912   1.501  0.8725  0.0339 -1.1081
  449HK4    C2537700   3.056   5.993   1.330  0.0736 -0.5850 -0.4030
  449HK4    H1237701   3.004   5.901   1.301 -3.5141  0.9550  0.9346
  449HK4    C2437702   3.044   6.100   1.243 -0.2070 -0.1659  0.1481
  449HK4    H1137703   3.002   6.083   1.142 -1.0221 -0.4116  0.5301
  449HK4    C2337704   3.128   6.210   1.262  0.0996 -0.3426 -0.1702
  449HK4    H1037705   3.140   6.291   1.191 -1.1224 -1.1828 -1.3699
  449HK4    C3937706   3.367   6.420   1.317  0.4132  0.1434  0.1804
  449HK4    C4137707   3.284   6.493   1.229 -0.2578 -0.1581  0.5633
  449HK4    H2137708   3.177   6.496   1.255 -0.9263  0.3391 -2.1427
  449HK4    C4237709   3.333   6.559   1.118  0.1562 -0.9864  0.2459
  449HK4    H2237710   3.266   6.611   1.047  1.0564 -2.1501 -1.5038
  449HK4    C4337711   3.468   6.549   1.087  0.2628  0.0977  0.3449
  449HK4    H2337712   3.501   6.605   0.999 -2.9205  3.6109  1.2583
  449HK4    C4437713   3.552   6.477   1.171  0.7014  0.3159  0.0979
  449HK4    H2437714   3.659   6.499   1.159  0.5754  0.8548 -0.0454
  449HK4    C4537715   3.504   6.412   1.284  0.3007 -0.0094 -0.2591
  449HK4    H2537716   3.574   6.366   1.356 -0.0652 -0.3917 -0.1460
  450HK4    H2837717   3.909   2.370   7.752  0.7759 -0.2393 -0.6953
  450HK4    C4837718   3.980   2.363   7.834  0.5376  0.0304 -0.4669
  450HK4    C4737719   4.040   2.240   7.858  0.0496 -0.0987  0.0883
  450HK4    H2737720   4.025   2.155   7.791  0.5516  0.2730 -0.4977
  450HK4    C4637721   4.149   2.234   7.944 -0.2498  0.2589  0.4979
  450HK4    H2637722   4.193   2.137   7.973 -0.8208 -0.9898 -2.6527
  450HK4    C4037723   4.208   2.344   8.010 -0.8142  0.3629  0.8280
  450HK4    C5037724   4.135   2.463   7.988  0.0871  0.7534 -0.0820
  450HK4    H3037725   4.163   2.548   8.051  1.0359  1.6445 -1.6874
  450HK4    C4937726   4.025   2.475   7.903  0.1111  0.0487 -0.2177
  450HK4    H2937727   3.964   2.565   7.891 -0.9491 -0.2929  2.3249
  450HK4     N237728   4.298   2.324   8.115 -0.3188  0.2060  0.3767
  450HK4    C3037729   4.310   2.206   8.192 -0.3948  0.0264  0.1123
  450HK4    C2937730   4.222   2.118   8.252 -0.3868  0.0673  0.1836
  450HK4    H1537731   4.115   2.141   8.245 -0.2816  0.0303 -1.8421
  450HK4    C2837732   4.264   2.012   8.332 -0.4415 -0.3442 -0.3294
  450HK4    C2737733   4.402   1.993   8.348 -0.4015  0.1381 -0.0541
  450HK4    H1437734   4.430   1.890   8.375 -1.4709  0.2962  1.7331
  450HK4    C3237735   4.496   2.085   8.303  0.0707 -0.6606 -0.7190
  450HK4    H1637736   4.601   2.069   8.327 -0.3531 -0.4322  1.4559
  450HK4    C3137737   4.449   2.194   8.231 -0.4372 -0.2831  0.1699
  450HK4    C3437738   4.520   2.312   8.185 -0.6345 -0.2504 -0.0509
  450HK4    C3337739   4.420   2.394   8.120 -0.1526 -0.0149 -0.4980
  450HK4    C3537740   4.463   2.510   8.056 -0.4678  0.2195 -0.2830
  450HK4    H1737741   4.390   2.585   8.025 -0.4606  0.0447 -0.7127
  450HK4    C3637742   4.597   2.544   8.047 -0.2483 -0.5389  0.1095
  450HK4    H1837743   4.633   2.639   8.006 -1.9314  1.0038  2.1251
  450HK4    C3737744   4.693   2.458   8.101  0.1340 -0.5265 -0.5476
  450HK4    H1937745   4.799   2.477   8.085  0.2444  0.7373  1.6105
  450HK4    C3837746   4.655   2.340   8.164 -0.6993 -0.1427 -0.3226
  450HK4    H2037747   4.733   2.288   8.219 -0.4733 -0.0023 -0.5085
  450HK4    C1437748   4.172   1.943   8.425 -0.2656 -0.1789 -0.0344
  450HK4     C937749   4.219   1.888   8.544  0.9298  0.0560 -0.3874
  450HK4     C837750   4.159   1.768   8.588  0.5378  0.3124 -0.2213
  450HK4    C1137751   4.049   1.714   8.522  0.1954  0.5859  0.1271
  450HK4     H437752   3.988   1.631   8.561 -0.6346  0.6632 -0.9920
  450HK4    C1237753   3.999   1.769   8.405 -0.2264  0.2179  0.1358
  450HK4     H537754   3.919   1.716   8.351  0.4530  0.9282 -1.5981
  450HK4    C1337755   4.068   1.879   8.356 -0.5660  0.3412 -0.0671
  450HK4     H637756   4.048   1.909   8.252  0.2846 -1.5961 -0.8116
  450HK4     C737757   4.225   1.696   8.699 -0.2508  0.1628  0.1479
  450HK4     O237758   4.155   1.621   8.767  0.1352 -0.1129  0.2394
  450HK4     C437759   4.352   1.743   8.757 -0.5622  0.6571  0.4324
  450HK4     C337760   4.427   1.663   8.843 -0.0790  0.2935 -0.3183
  450HK4     H337761   4.388   1.561   8.858 -0.5752  0.4259 -0.6800
  450HK4     C237762   4.549   1.702   8.896 -0.3793  0.0753  0.5430
  450HK4     H237763   4.612   1.650   8.970  1.5606  2.9327  0.9569
  450HK4     C137764   4.606   1.816   8.842  0.1527 -0.4401  0.0030
  450HK4     H137765   4.706   1.840   8.882 -0.1760  2.0732 -0.5642
  450HK4     C637766   4.539   1.900   8.750  0.3215  0.2883  0.5398
  450HK4     C537767   4.407   1.866   8.715  0.3152  0.3073  0.5485
  450HK4    C1037768   4.327   1.953   8.624  0.7032  0.0284 -0.0584
  450HK4     O137769   4.305   2.071   8.651 -0.5855 -0.1853 -0.1667
  450HK4    C1637770   4.628   1.970   8.657 -0.4367  0.3629 -0.1349
  450HK4    C1537771   4.749   1.913   8.610 -0.8519 -0.3678 -0.3316
  450HK4     H737772   4.755   1.806   8.586 -0.5966 -0.4238 -0.0242
  450HK4    C2037773   4.853   1.990   8.560 -0.9258  0.4986  0.8142
  450HK4     H937774   4.934   1.935   8.511 -2.1689 -1.5092  0.9534
  450HK4    C1937775   4.839   2.127   8.544  0.3492  0.5640  0.1442
  450HK4    C1837776   4.721   2.193   8.597 -0.0974  0.3125 -0.5424
  450HK4    C1737777   4.619   2.107   8.637 -0.0855  0.3426 -0.4427
  450HK4     H837778   4.532   2.160   8.677  0.1737  0.9935 -0.7352
  450HK4     N137779   4.707   2.326   8.553  0.3406  0.5837  0.1516
  450HK4    C2137780   4.824   2.347   8.477  0.3842  0.3106  0.1468
  450HK4    C2237781   4.908   2.229   8.468  0.0813  0.1476 -0.6655
  450HK4    C2637782   5.030   2.245   8.403  0.2546 -0.0831 -0.4024
  450HK4    H1337783   5.097   2.160   8.416 -1.3598 -1.8723 -3.2781
  450HK4    C2537784   5.064   2.365   8.342  0.0493  0.4561  0.5480
  450HK4    H1237785   5.161   2.382   8.297  0.2047  1.5138  1.2304
  450HK4    C2437786   4.982   2.478   8.344 -0.0314  0.4060 -0.0854
  450HK4    H1137787   4.997   2.567   8.281 -1.2523 -1.4735 -3.1859
  450HK4    C2337788   4.863   2.464   8.414 -0.3021  0.1436 -0.5935
  450HK4    H1037789   4.827   2.554   8.465 -1.7381  0.6981 -2.4973
  450HK4    C3937790   4.629   2.421   8.622 -0.3298  0.1465 -0.0017
  450HK4    C4137791   4.604   2.409   8.760 -0.0679  0.4251  0.0700
  450HK4    H2137792   4.666   2.346   8.826  0.5473  0.0822 -0.8280
  450HK4    C4237793   4.511   2.497   8.814 -0.1206  0.0495  0.5916
  450HK4    H2237794   4.468   2.464   8.910 -1.0721  0.6345  0.3753
  450HK4    C4337795   4.452   2.600   8.742  0.6305  0.2507  0.2696
  450HK4    H2337796   4.387   2.675   8.786 -0.0762  1.0732 -2.0933
  450HK4    C4437797   4.487   2.617   8.608 -0.2930  0.4112  0.0490
  450HK4    H2437798   4.474   2.708   8.549 -0.1953  0.0789 -0.4927
  450HK4    C4537799   4.568   2.522   8.546 -0.0382  0.5041  0.2389
  450HK4    H2537800   4.582   2.526   8.437  3.2189  2.1586  0.6608
  451HK4    H2837801   7.042   5.869   6.424 -0.1879 -0.2227  0.4434
  451HK4    C4837802   6.971   5.948   6.449  0.1502  0.2585 -0.1030
  451HK4    C4737803   6.964   5.984   6.583 -0.3554  0.1776 -0.1061
  451HK4    H2737804   7.022   5.929   6.658 -2.4895 -0.4230  1.1554
  451HK4    C4637805   6.887   6.095   6.616  0.3152  0.6075  0.0216
  451HK4    H2637806   6.872   6.114   6.723  1.6503  0.6025  0.2078
  451HK4    C4037807   6.816   6.176   6.525 -0.1942 -0.1957 -0.3029
  451HK4    C5037808   6.830   6.138   6.389 -0.9928 -0.4225 -0.3256
  451HK4    H3037809   6.786   6.202   6.312 -1.5756 -0.9738 -0.4475
  451HK4    C4937810   6.900   6.023   6.355  0.3969  0.3719 -0.1966
  451HK4    H2937811   6.893   5.981   6.254 -2.5840  1.6197 -0.5522
  451HK4     N237812   6.761   6.301   6.554 -0.1076 -0.1613 -0.2904
  451HK4    C3037813   6.637   6.347   6.507  0.0558  0.3530 -0.2313
  451HK4    C2937814   6.519   6.279   6.479 -0.0362  0.1231  0.6944
  451HK4    H1537815   6.521   6.175   6.444  3.6521 -0.3614  2.1222
  451HK4    C2837816   6.398   6.343   6.457  0.2777  0.5481  0.1821
  451HK4    C2737817   6.395   6.484   6.464  0.3135  0.5513  0.1212
  451HK4    H1437818   6.299   6.538   6.461 -0.7299 -1.2366  0.2278
  451HK4    C3237819   6.510   6.558   6.485  0.1289  0.8755 -0.0055
  451HK4    H1637820   6.510   6.667   6.496 -0.9267  0.6462  2.5277
  451HK4    C3137821   6.631   6.492   6.504 -0.1547  0.3480 -0.0338
  451HK4    C3437822   6.761   6.537   6.549  0.0127 -0.1303 -0.0316
  451HK4    C3337823   6.833   6.418   6.590 -0.3203 -0.2118  0.3133
  451HK4    C3537824   6.971   6.428   6.601 -0.2425 -0.2263 -0.5586
  451HK4    H1737825   7.033   6.345   6.635  0.3835  0.0763 -0.9542
  451HK4    C3637826   7.041   6.544   6.571  0.1895 -0.1820  0.5837
  451HK4    H1837827   7.146   6.553   6.603  1.2427 -0.2605 -2.6552
  451HK4    C3737828   6.975   6.659   6.529  0.0889 -0.1668  0.7798
  451HK4    H1937829   7.032   6.738   6.480 -0.3595 -0.2074  0.1826
  451HK4    C3837830   6.836   6.652   6.523  0.0985 -0.0759  0.4406
  451HK4    H2037831   6.781   6.744   6.503 -2.1961 -1.8362 -1.6273
  451HK4    C1437832   6.300   6.268   6.379  0.0934  0.3810  0.5709
  451HK4     C937833   6.213   6.309   6.277 -0.0956 -0.1636  0.5114
  451HK4     C837834   6.093   6.242   6.246  0.3291 -0.5541 -0.3177
  451HK4    C1137835   6.068   6.121   6.310  0.0986 -0.4147 -0.1474
  451HK4     H437836   5.981   6.059   6.283  1.0394 -1.9862  0.3711
  451HK4    C1237837   6.149   6.072   6.412  0.2452 -0.0831 -0.1025
  451HK4     H537838   6.123   5.982   6.469 -0.4656 -0.1368 -0.5034
  451HK4    C1337839   6.262   6.147   6.443  0.2730 -0.0855 -0.1989
  451HK4     H637840   6.317   6.108   6.530 -1.5061 -0.0176  0.9749
  451HK4     C737841   6.000   6.289   6.141 -0.1165  0.2770  0.4497
  451HK4     O237842   5.897   6.228   6.113  0.0506  0.2328 -0.0857
  451HK4     C437843   6.036   6.407   6.059 -0.1354 -0.0157  0.0199
  451HK4     C337844   5.962   6.452   5.949 -0.0639 -0.5182 -0.2326
  451HK4     H337845   5.900   6.378   5.897  0.4781 -1.2224  0.1128
  451HK4     C237846   5.985   6.575   5.889  0.5072 -0.1872  0.6529
  451HK4     H237847   5.938   6.619   5.800  2.1442 -2.2748 -1.2975
  451HK4     C137848   6.088   6.655   5.936  0.3859  0.1068  0.4135
  451HK4     H137849   6.105   6.758   5.899 -0.6539 -0.8095 -2.7043
  451HK4     C637850   6.152   6.621   6.057 -0.4842 -0.1121  0.8144
  451HK4     C537851   6.138   6.491   6.107  0.2034 -0.4707  0.0910
  451HK4    C1037852   6.238   6.435   6.202 -0.0508 -0.1468  0.5531
  451HK4     O137853   6.357   6.452   6.176 -0.2557 -0.2050 -0.4385
  451HK4    C1637854   6.243   6.721   6.115 -0.4292  0.2341  0.1362
  451HK4    C1537855   6.270   6.747   6.251  0.2274 -0.0190  0.0547
  451HK4     H737856   6.202   6.721   6.333 -0.2157  0.9500  0.0086
  451HK4    C2037857   6.386   6.812   6.293  0.3124 -0.0662 -0.1015
  451HK4     H937858   6.392   6.846   6.396  0.1611 -2.2415  0.6501
  451HK4    C1937859   6.477   6.862   6.201  0.0523  0.5624 -0.0226
  451HK4    C1837860   6.453   6.838   6.060 -0.1079  0.2218  0.0607
  451HK4    C1737861   6.340   6.765   6.026 -0.3423  0.4550  0.3384
  451HK4     H837862   6.334   6.734   5.922 -2.2634  2.7603 -0.2659
  451HK4     N137863   6.567   6.871   5.984 -0.2373  0.0914 -0.1878
  451HK4    C2137864   6.662   6.915   6.078 -0.0235  0.1633 -0.4348
  451HK4    C2237865   6.614   6.909   6.215  0.0070  0.8062 -0.3925
  451HK4    C2637866   6.685   6.965   6.320  0.1905 -0.2666  0.0629
  451HK4    H1337867   6.635   6.981   6.416  0.7699 -0.9700  0.4877
  451HK4    C2537868   6.813   7.013   6.295  0.3891 -0.8930 -0.1322
  451HK4    H1237869   6.865   7.068   6.374  0.9469  0.4168 -1.3883
  451HK4    C2437870   6.861   7.018   6.165  0.0442  0.0350 -0.2307
  451HK4    H1137871   6.957   7.068   6.148  0.4589 -0.5012  0.5157
  451HK4    C2337872   6.789   6.966   6.057  0.2556 -0.4138 -0.1587
  451HK4    H1037873   6.833   6.973   5.957  2.0888 -0.7982  0.5943
  451HK4    C3937874   6.552   6.905   5.849  0.1090 -0.0325 -0.2593
  451HK4    C4137875   6.435   6.952   5.786 -0.2013 -0.7865 -0.2575
  451HK4    H2137876   6.348   6.973   5.850  1.1912 -1.2308  1.8371
  451HK4    C4237877   6.429   6.984   5.651  0.2990  0.0753 -0.0813
  451HK4    H2237878   6.347   7.051   5.619  1.1005  1.6573  1.1330
  451HK4    C4337879   6.545   6.981   5.575  0.2857  0.6177 -0.1293
  451HK4    H2337880   6.540   6.993   5.467 -1.3901 -1.1934 -0.2942
  451HK4    C4437881   6.663   6.931   5.630 -0.0596  0.3900  0.4033
  451HK4    H2437882   6.750   6.906   5.569 -0.8636 -0.2845 -0.4780
  451HK4    C4537883   6.665   6.896   5.765  0.5150 -0.0462  0.2835
  451HK4    H2537884   6.756   6.844   5.796  0.2771 -1.1526 -0.8314
  452HK4    H2837885   2.123   4.085   6.635 -1.8089  0.7462  2.5938
  452HK4    C4837886   2.148   3.984   6.669  0.1780  0.3828  0.2010
  452HK4    C4737887   2.273   3.927   6.648 -0.0902 -0.2386  0.3120
  452HK4    H2737888   2.354   3.993   6.615  0.1677 -1.7406 -2.2198
  452HK4    C4637889   2.299   3.790   6.654  0.1587 -0.1792  0.5831
  452HK4    H2637890   2.400   3.751   6.634  0.5565 -0.8438  3.6100
  452HK4    C4037891   2.195   3.705   6.694  0.0054 -0.0761  0.4029
  452HK4    C5037892   2.072   3.763   6.731 -0.0180  0.1220  0.0130
  452HK4    H3037893   1.997   3.695   6.774  0.8647  1.0654  3.1450
  452HK4    C4937894   2.050   3.900   6.719  0.3022  0.1817  0.1062
  452HK4    H2937895   1.972   3.933   6.790  0.1655 -0.9593  0.4952
  452HK4     N237896   2.197   3.569   6.659 -0.3508  0.2005 -0.6935
  452HK4    C3037897   2.265   3.512   6.550 -0.2127  0.1674 -0.5895
  452HK4    C2937898   2.308   3.575   6.433  0.1870  0.8943 -0.0508
  452HK4    H1537899   2.275   3.677   6.417 -0.9480  0.9902  2.5887
  452HK4    C2837900   2.356   3.502   6.325 -0.0909  0.4251  0.1409
  452HK4    C2737901   2.360   3.362   6.344 -0.2007  0.4263  0.1802
  452HK4    H1437902   2.403   3.297   6.266 -1.1797 -1.8260  1.4589
  452HK4    C3237903   2.320   3.297   6.460  0.3916  0.2487  0.2841
  452HK4    H1637904   2.329   3.188   6.468 -1.7212  0.0889  0.5588
  452HK4    C3137905   2.272   3.368   6.569 -0.1902  0.2490  0.0296
  452HK4    C3437906   2.200   3.340   6.691 -0.4734 -0.0295 -0.2020
  452HK4    C3337907   2.149   3.466   6.742 -0.1562  0.2349 -0.5417
  452HK4    C3537908   2.099   3.471   6.871  0.4838 -0.0026 -0.2797
  452HK4    H1737909   2.034   3.554   6.899  0.0566 -0.1253 -0.9113
  452HK4    C3637910   2.098   3.357   6.952 -0.2293  0.2260  0.0315
  452HK4    H1837911   2.073   3.360   7.059  0.5172  0.4908  0.1978
  452HK4    C3737912   2.145   3.236   6.904  0.0701  0.4552 -0.2554
  452HK4    H1937913   2.116   3.145   6.957 -0.4981 -0.7572 -2.5822
  452HK4    C3837914   2.191   3.228   6.773  0.0923 -0.0854 -0.2168
  452HK4    H2037915   2.267   3.154   6.750 -1.2501 -1.8376  0.8576
  452HK4    C1437916   2.365   3.573   6.196  0.0371 -0.0564 -0.1172
  452HK4     C937917   2.355   3.503   6.076 -0.4591 -0.0323 -0.0922
  452HK4     C837918   2.441   3.535   5.969 -0.4077 -0.0754 -0.0626
  452HK4    C1137919   2.524   3.647   5.977 -0.2292 -0.2270  0.2026
  452HK4     H437920   2.569   3.680   5.883 -0.2107 -1.1164 -0.1069
  452HK4    C1237921   2.521   3.724   6.093 -0.3309  0.3718 -0.1979
  452HK4     H537922   2.572   3.821   6.097 -0.3995  0.4392 -0.9189
  452HK4    C1337923   2.441   3.691   6.202  0.2783 -0.2214  0.0748
  452HK4     H637924   2.416   3.769   6.275 -2.6312 -0.3661 -0.7041
  452HK4     C737925   2.435   3.467   5.837  0.1348  0.1075 -0.1845
  452HK4     O237926   2.534   3.469   5.764  0.7373 -0.4706  0.6025
  452HK4     C437927   2.322   3.373   5.819  0.3292 -0.1549 -0.0306
  452HK4     C337928   2.285   3.340   5.689  0.2574 -0.0150 -0.0464
  452HK4     H337929   2.328   3.392   5.602 -0.1457  1.5280  0.6459
  452HK4     C237930   2.192   3.240   5.662 -0.0777  0.2383  0.1635
  452HK4     H237931   2.159   3.223   5.558  0.9246 -0.6954 -0.0113
  452HK4     C137932   2.142   3.175   5.773 -0.2311  0.0630 -0.0064
  452HK4     H137933   2.065   3.100   5.749  0.0726  0.1035 -1.1182
  452HK4     C637934   2.182   3.197   5.906  0.6720 -0.1730 -0.2413
  452HK4     C537935   2.262   3.310   5.930  0.4499 -0.0823  0.0760
  452HK4    C1037936   2.253   3.397   6.050 -0.0902 -0.4931  0.3355
  452HK4     O137937   2.142   3.414   6.101 -0.1037  0.2411  0.0762
  452HK4    C1637938   2.169   3.087   6.003  0.2990 -0.3795 -0.5264
  452HK4    C1537939   2.200   3.095   6.140  0.1401 -0.1222 -0.5032
  452HK4     H737940   2.249   3.188   6.173 -0.3453  0.9506 -2.7615
  452HK4    C2037941   2.159   3.006   6.239  0.5130  0.3381  0.0655
  452HK4     H937942   2.180   3.025   6.345  0.5346 -1.5319  0.4027
  452HK4    C1937943   2.089   2.893   6.202  0.1704  0.5083  0.1886
  452HK4    C1837944   2.067   2.871   6.060 -0.6630  0.0673  0.3850
  452HK4    C1737945   2.105   2.969   5.969 -0.2701 -0.2739  0.1779
  452HK4     H837946   2.102   2.939   5.865  0.0940 -0.2558  0.1612
  452HK4     N137947   2.001   2.751   6.023 -0.3914 -0.0183  0.1821
  452HK4    C2137948   1.991   2.688   6.149  1.4036 -0.3456  0.1737
  452HK4    C2237949   2.037   2.770   6.259 -0.1929  0.6293  0.1180
  452HK4    C2637950   2.035   2.723   6.390  0.3672  0.1171 -0.0532
  452HK4    H1337951   2.085   2.773   6.473 -0.4436 -2.3392  1.9734
  452HK4    C2537952   1.988   2.594   6.408 -0.1579  0.2218 -0.6485
  452HK4    H1237953   1.998   2.553   6.508 -1.5039 -1.2029 -1.0767
  452HK4    C2437954   1.937   2.511   6.308  0.2377 -0.3695 -0.3663
  452HK4    H1137955   1.899   2.411   6.333  0.3150 -0.4111 -0.4195
  452HK4    C2337956   1.945   2.560   6.179  0.3051 -0.0445 -0.2403
  452HK4    H1037957   1.933   2.482   6.103 -0.5713  1.2392 -1.4462
  452HK4    C3937958   1.898   2.740   5.930 -0.0623 -0.1327 -0.1710
  452HK4    C4137959   1.881   2.616   5.865  0.0186 -0.2775  0.0814
  452HK4    H2137960   1.969   2.551   5.858  0.4264 -0.0599  2.8450
  452HK4    C4237961   1.772   2.595   5.781 -0.0432  0.4397 -0.0175
  452HK4    H2237962   1.770   2.507   5.715  0.1323 -0.4927  1.2103
  452HK4    C4337963   1.679   2.696   5.761 -0.6092  0.0526  0.6480
  452HK4    H2337964   1.583   2.675   5.713 -0.7161 -0.1913  0.9690
  452HK4    C4437965   1.697   2.818   5.825 -0.6613  0.5360 -0.2413
  452HK4    H2437966   1.633   2.901   5.793  0.4541  1.5892  0.2079
  452HK4    C4537967   1.801   2.841   5.915  0.2652  0.0412 -1.1649
  452HK4    H2537968   1.801   2.925   5.987  1.8720  0.8562 -2.0997
  453HK4    H2837969   0.073   1.728   7.707 -0.6463 -0.4595 -2.0946
  453HK4    C4837970   0.035   1.641   7.760  0.1190  0.5457  0.2247
  453HK4    C4737971   0.102   1.590   7.870 -0.3998  0.0422  0.3129
  453HK4    H2737972   0.184   1.646   7.917  2.3337 -1.1163 -2.8628
  453HK4    C4637973   0.056   1.473   7.929 -0.3919 -0.0320  0.1740
  453HK4    H2637974   0.109   1.420   8.010 -2.7251 -0.6821  1.3319
  453HK4    C4037975  11.191   1.405   7.879 -0.3261 -0.2420  0.3102
  453HK4    C5037976  11.133   1.460   7.763  0.8592  0.2324 -0.0664
  453HK4    H3037977  11.044   1.412   7.719  0.1905  1.7996 -0.4308
  453HK4    C4937978  11.170   1.581   7.705  0.1988  0.5131  0.0976
  453HK4    H2937979  11.098   1.631   7.638 -0.3622 -0.7472 -0.2615
  453HK4     N237980  11.169   1.270   7.911  0.2573 -0.4252 -0.0486
  453HK4    C3037981   0.018   1.174   7.946 -0.2047 -0.9276 -0.1414
  453HK4    C2937982   0.157   1.182   7.952 -0.2793  0.2268  0.2435
  453HK4    H1537983   0.199   1.247   7.876 -1.1550 -0.0583 -0.4958
  453HK4    C2837984   0.230   1.093   8.030 -0.0431 -0.8548 -1.1890
  453HK4    C2737985   0.159   0.987   8.091  0.4295 -0.3858  0.1946
  453HK4    H1437986   0.217   0.894   8.101 -0.0529 -0.8235 -0.9764
  453HK4    C3237987   0.020   0.975   8.087  0.3480  0.3599  0.6328
  453HK4    H1637988  11.226   0.901   8.156  1.9604 -1.6037 -0.4261
  453HK4    C3137989  11.195   1.066   8.012 -0.3687 -0.7661 -0.0532
  453HK4    C3437990  11.054   1.098   8.017 -0.0378  0.6200  0.5457
  453HK4    C3337991  11.041   1.224   7.947 -0.0114  0.2329 -0.1575
  453HK4    C3537992  10.916   1.285   7.950  0.1073  0.4497  0.5407
  453HK4    H1737993  10.896   1.378   7.896 -0.0508 -0.1441 -0.4339
  453HK4    C3637994  10.808   1.218   8.005 -0.0878  0.2246 -0.1112
  453HK4    H1837995  10.701   1.242   7.994 -0.2671  0.3462  1.7249
  453HK4    C3737996  10.821   1.092   8.064  0.0994  0.2987  0.0056
  453HK4    H1937997  10.734   1.032   8.089  0.3194 -0.0038  0.0304
  453HK4    C3837998  10.946   1.033   8.076 -0.0353 -0.0257 -0.1520
  453HK4    H2037999  10.956   0.927   8.096 -1.7795 -0.1823 -0.0453
  453HK4    C1438000   0.376   1.091   8.037 -0.0455  0.0539 -0.9045
  453HK4     C938001   0.458   0.983   8.070 -0.8298 -0.1062  0.5605
  453HK4     C838002   0.571   1.007   8.151 -0.4352 -0.2437  0.0550
  453HK4    C1138003   0.614   1.137   8.173 -0.6341 -0.2573  0.5302
  453HK4     H438004   0.708   1.151   8.228 -0.2600 -0.0677 -0.1547
  453HK4    C1238005   0.545   1.248   8.126 -0.1515 -0.0733  0.2566
  453HK4     H538006   0.587   1.349   8.140 -0.7713  0.0729  1.1041
  453HK4    C1338007   0.426   1.221   8.058  0.1025 -0.1195 -0.1722
  453HK4     H638008   0.378   1.308   8.011 -1.5010 -0.2011  1.2551
  453HK4     C738009   0.666   0.896   8.178 -0.0757  0.0963  0.1921
  453HK4     O238010   0.737   0.901   8.279  0.4652  0.2067 -0.1942
  453HK4     C438011   0.652   0.766   8.109 -0.1019  0.0217  0.3377
  453HK4     C338012   0.755   0.674   8.117 -0.2155 -0.1775 -0.4739
  453HK4     H338013   0.853   0.713   8.146 -0.3178  0.5671 -1.1306
  453HK4     C238014   0.740   0.541   8.077  0.0140 -0.3884  0.1402
  453HK4     H238015   0.802   0.468   8.131 -0.4881 -0.7253  0.2606
  453HK4     C138016   0.617   0.512   8.020 -0.1398 -0.0076  0.2733
  453HK4     H138017   0.612   0.421   7.959  1.2343  0.1471 -0.0964
  453HK4     C638018   0.505   0.597   8.012 -0.1330 -0.0286 -0.0829
  453HK4     C538019   0.530   0.730   8.048  0.0252 -0.1262  0.1688
  453HK4    C1038020   0.448   0.848   8.008  0.1669 -0.0203  0.1899
  453HK4     O138021   0.400   0.843   7.895 -0.0662 -0.5261  0.3068
  453HK4    C1638022   0.384   0.515   8.026  0.0500 -0.1910  0.5546
  453HK4    C1538023   0.374   0.377   8.056 -0.5356 -0.1344  0.6301
  453HK4     H738024   0.466   0.319   8.071  0.2771  0.2535 -2.5463
  453HK4    C2038025   0.258   0.303   8.073 -0.4221 -0.6027 -0.5818
  453HK4     H938026   0.271   0.201   8.108  1.2497 -0.4205 -0.6583
  453HK4    C1938027   0.136   0.368   8.054  0.0284  0.5033  0.2426
  453HK4    C1838028   0.133   0.509   8.019  0.1177  0.3371 -0.4518
  453HK4    C1738029   0.257   0.571   8.014  0.2319  0.1897  0.4118
  453HK4     H838030   0.256   0.678   7.995  1.8935  0.6595  2.7821
  453HK4     N138031   0.002   0.557   7.998 -0.1557 -0.0067  0.4331
  453HK4    C2138032  11.172   0.443   8.023  0.1005 -0.3086 -0.1384
  453HK4    C2238033  11.246   0.329   8.073  0.1956 -0.0161  0.3908
  453HK4    C2638034  11.199   0.203   8.110  0.1193  0.2040  1.0570
  453HK4    H1338035   0.015   0.127   8.153 -1.6570 -0.1762  3.0927
  453HK4    C2538036  11.063   0.185   8.086  0.3646 -0.2386 -0.0247
  453HK4    H1238037  11.022   0.087   8.114  2.2861 -0.8278  0.7845
  453HK4    C2438038  10.989   0.289   8.031  0.0634 -0.6861 -0.4801
  453HK4    H1138039  10.883   0.267   8.015 -0.0758 -1.6203  1.6007
  453HK4    C2338040  11.036   0.418   8.009  0.0795 -0.5369  0.4015
  453HK4    H1038041  10.959   0.494   7.990 -2.0964 -2.7940 -0.1243
  453HK4    C3938042  11.220   0.671   7.922 -0.3336 -0.4593 -0.1776
  453HK4    C4138043  11.097   0.738   7.941 -0.1726 -0.0255 -0.6688
  453HK4    H2138044  11.034   0.704   8.024 -2.1362 -0.0714 -2.1261
  453HK4    C4238045  11.042   0.810   7.835  0.1548  0.3768 -0.5673
  453HK4    H2238046  10.949   0.868   7.845 -0.5206 -0.6155 -1.0038
  453HK4    C4338047  11.107   0.827   7.714  0.6915  0.5334 -0.2585
  453HK4    H2338048  11.066   0.892   7.636 -0.8897 -0.5272 -0.3312
  453HK4    C4438049  11.233   0.771   7.697  0.1871 -0.5679 -0.4388
  453HK4    H2438050   0.044   0.791   7.606  0.7115  1.6111  0.3397
  453HK4    C4538051   0.041   0.699   7.802  0.3126  0.8590  0.4896
  453HK4    H2538052   0.142   0.658   7.792 -0.1397 -0.2308  0.3009
  454HK4    H2838053   2.844   4.764   9.363 -0.1837  0.0754 -0.6035
  454HK4    C4838054   2.948   4.770   9.394 -0.3181  0.3481 -0.2020
  454HK4    C4738055   2.976   4.800   9.527  0.4144 -0.4437 -0.1753
  454HK4    H2738056   2.895   4.774   9.597 -0.0255  0.4698 -0.3425
  454HK4    C4638057   3.106   4.837   9.559  0.0591  0.4755  0.2305
  454HK4    H2638058   3.131   4.853   9.665  0.7162 -0.0445  0.1603
  454HK4    C4038059   3.206   4.827   9.459  0.1139  0.0521  0.3224
  454HK4    C5038060   3.173   4.789   9.328 -0.2318 -0.5739  0.5895
  454HK4    H3038061   3.247   4.796   9.247 -0.2416  0.9999  0.7078
  454HK4    C4938062   3.043   4.753   9.294 -0.3062  0.4346 -0.2065
  454HK4    H2938063   3.016   4.703   9.200  1.1921 -0.1166 -0.3497
  454HK4     N238064   3.335   4.873   9.487  0.1378  0.0325  0.2429
  454HK4    C3038065   3.374   4.963   9.588 -0.2984  0.6311 -0.1195
  454HK4    C2938066   3.327   5.090   9.621 -0.2655  0.5637  0.1918
  454HK4    H1538067   3.236   5.118   9.567 -1.7184 -1.5308  1.4711
  454HK4    C2838068   3.398   5.185   9.693  0.1028  0.1667  0.3477
  454HK4    C2738069   3.522   5.145   9.747  0.2097  0.5402  0.3798
  454HK4    H1438070   3.567   5.206   9.827 -2.4815  3.8412 -0.5326
  454HK4    C3238071   3.572   5.016   9.725 -0.3034  0.4691 -0.3875
  454HK4    H1638072   3.658   4.971   9.773  0.1562 -1.5050 -2.9812
  454HK4    C3138073   3.503   4.927   9.644 -0.2864  0.3818 -0.3060
  454HK4    C3438074   3.554   4.820   9.561 -0.1898 -0.2331  0.5285
  454HK4    C3338075   3.447   4.789   9.469 -0.0738 -0.2874  0.4134
  454HK4    C3538076   3.469   4.677   9.389  0.3869 -0.0034  0.1376
  454HK4    H1738077   3.379   4.638   9.340  0.1666  0.8666 -0.1550
  454HK4    C3638078   3.589   4.608   9.384  0.3928  0.0250 -0.1079
  454HK4    H1838079   3.609   4.531   9.308  0.6350  0.0901 -0.1122
  454HK4    C3738080   3.698   4.654   9.458  0.4262 -0.2205 -0.0043
  454HK4    H1938081   3.792   4.599   9.451  0.7976  0.7806 -3.9520
  454HK4    C3838082   3.677   4.756   9.550 -0.1645 -0.0579 -0.3159
  454HK4    H2038083   3.760   4.788   9.613  0.0461  1.0598 -1.1607
  454HK4    C1438084   3.372   5.329   9.691  0.0307  0.1523  0.1199
  454HK4     C938085   3.470   5.427   9.674 -0.0426  0.1570 -0.2791
  454HK4     C838086   3.454   5.556   9.728  0.0776  0.0447  0.0275
  454HK4    C1138087   3.336   5.590   9.795  0.0442 -0.5500  0.2702
  454HK4     H438088   3.313   5.694   9.820  1.8807 -0.2155  0.6573
  454HK4    C1238089   3.232   5.498   9.795 -0.3702 -0.0769  0.5268
  454HK4     H538090   3.133   5.535   9.826 -0.3477  1.6744 -1.3545
  454HK4    C1338091   3.250   5.368   9.750  0.0413  0.0963  0.1766
  454HK4     H638092   3.160   5.304   9.753  1.1231 -1.5493 -1.6877
  454HK4     C738093   3.571   5.647   9.726  0.1802 -0.0852  0.1419
  454HK4     O238094   3.545   5.767   9.715  0.4468  0.0175  0.6195
  454HK4     C438095   3.702   5.597   9.681  0.1829 -0.3274  0.4148
  454HK4     C338096   3.814   5.677   9.705 -0.1567  0.2506  0.0790
  454HK4     H338097   3.802   5.772   9.759  0.1796  1.4769 -1.9247
  454HK4     C238098   3.940   5.640   9.659 -0.0913  0.1616  0.3308
  454HK4     H238099   4.016   5.720   9.661 -1.2006  1.2480 -0.2044
  454HK4     C138100   3.958   5.512   9.608  0.1037 -0.0032  0.8183
  454HK4     H138101   4.056   5.463   9.599  0.0263 -0.1465  0.7606
  454HK4     C638102   3.847   5.427   9.589  0.2399  0.0318 -0.1080
  454HK4     C538103   3.718   5.476   9.611  0.2457  0.3099 -0.6847
  454HK4    C1038104   3.591   5.401   9.591 -0.0550  0.7667 -0.4879
  454HK4     O138105   3.567   5.357   9.479 -0.4237  0.3124 -0.2314
  454HK4    C1638106   3.875   5.283   9.585 -0.2847 -0.0626 -0.4270
  454HK4    C1538107   3.972   5.227   9.671 -0.6248  0.1919  0.1153
  454HK4     H738108   4.005   5.286   9.758  0.0416 -1.0668  0.7365
  454HK4    C2038109   4.040   5.111   9.636 -0.9492  0.0283  0.0292
  454HK4     H938110   4.107   5.077   9.715 -0.4895 -1.9310 -1.1823
  454HK4    C1938111   4.022   5.049   9.513  0.3572  0.0030 -0.1600
  454HK4    C1838112   3.919   5.104   9.426  0.2206  0.2074  0.1275
  454HK4    C1738113   3.849   5.217   9.465 -0.2843  0.1231 -0.5328
  454HK4     H838114   3.788   5.274   9.395  2.5409  3.3922 -0.4492
  454HK4     N138115   3.892   5.008   9.326 -0.5710 -0.0506  0.5837
  454HK4    C2138116   3.963   4.891   9.359 -0.7640 -0.0964  0.8419
  454HK4    C2238117   4.044   4.910   9.478  0.2522 -0.0972  0.1615
  454HK4    C2638118   4.107   4.803   9.540 -0.4292 -0.1797  0.7080
  454HK4    H1338119   4.163   4.818   9.632 -1.2619 -0.1544  1.2189
  454HK4    C2538120   4.098   4.681   9.472 -0.0378  0.0831  0.1842
  454HK4    H1238121   4.142   4.592   9.517 -0.5432  0.2660  1.0461
  454HK4    C2438122   4.026   4.666   9.354 -0.2398  0.0648  0.3093
  454HK4    H1138123   4.039   4.573   9.298  1.0108  0.8111 -0.6693
  454HK4    C2338124   3.946   4.766   9.301  0.0826  0.1649  0.0115
  454HK4    H1038125   3.848   4.740   9.258  0.6737 -0.1514 -1.1788
  454HK4    C3938126   3.778   5.015   9.245 -0.2099 -0.6764  0.0167
  454HK4    C4138127   3.784   4.976   9.110 -0.6471  0.0292 -0.2134
  454HK4    H2138128   3.876   4.993   9.052 -0.8591 -0.7167 -0.7786
  454HK4    C4238129   3.665   4.950   9.043 -0.4298 -0.2384 -0.4934
  454HK4    H2238130   3.672   4.943   8.933  1.9067  1.4576 -0.4893
  454HK4    C4338131   3.541   4.957   9.105 -0.2468  0.7190 -0.2359
  454HK4    H2338132   3.452   4.948   9.043 -0.2500 -1.2627  0.0310
  454HK4    C4438133   3.533   4.997   9.238  0.3043 -0.7442  0.2484
  454HK4    H2438134   3.438   5.028   9.282 -0.5225 -1.4310 -1.0131
  454HK4    C4538135   3.651   5.027   9.305 -0.0105  0.7117  0.1731
  454HK4    H2538136   3.644   5.061   9.410  0.4165 -0.0061  0.4357
  455HK4    H2838137   9.263   4.357  11.155  1.5931 -0.0675 -2.1427
  455HK4    C4838138   9.187   4.422  11.113  0.5541  0.2962  0.2248
  455HK4    C4738139   9.063   4.423  11.177  0.4419 -0.6177  0.0222
  455HK4    H2738140   9.046   4.348   0.008 -2.7175  0.0570  0.0353
  455HK4    C4638141   8.952   4.464  11.105  0.4484  0.0994  0.4098
  455HK4    H2638142   8.853   4.465  11.153 -1.3270  0.2160 -3.0888
  455HK4    C4038143   8.958   4.503  10.969 -0.0038 -0.1545  0.3159
  455HK4    C5038144   9.087   4.505  10.911 -0.0065 -0.1437  0.3120
  455HK4    H3038145   9.102   4.541  10.808  1.3734 -0.8596  0.2608
  455HK4    C4938146   9.200   4.468  10.982  0.1718 -0.1390  0.0297
  455HK4    H2938147   9.295   4.470  10.928  0.4870 -1.4056  0.5208
  455HK4     N238148   8.849   4.537  10.888  0.0147  0.3404  0.4870
  455HK4    C3038149   8.719   4.489  10.916  0.3614 -0.6208  0.4755
  455HK4    C2938150   8.669   4.372  10.972 -0.4705 -0.2801  0.4329
  455HK4    H1538151   8.729   4.281  10.966  2.5082  1.5145  1.9291
  455HK4    C2838152   8.533   4.344  10.988 -0.4774 -0.1867  0.5613
  455HK4    C2738153   8.441   4.443  10.947  0.3435  0.0727 -0.7039
  455HK4    H1438154   8.337   4.408  10.936  0.8964 -2.8423  2.4104
  455HK4    C3238155   8.484   4.564  10.894  0.1827  0.5605  0.2727
  455HK4    H1638156   8.409   4.624  10.843 -0.1941 -0.6871 -0.6762
  455HK4    C3138157   8.620   4.584  10.871  0.3980 -0.5583  0.5320
  455HK4    C3438158   8.694   4.690  10.806 -0.0192 -0.2763  0.5151
  455HK4    C3338159   8.835   4.659  10.820  0.1338  0.4803  0.7153
  455HK4    C3538160   8.928   4.749  10.768 -0.2026  0.0211 -0.7174
  455HK4    H1738161   9.033   4.734  10.789 -0.3899  0.4988  0.7013
  455HK4    C3638162   8.883   4.862  10.700 -0.2797  0.1614 -0.4331
  455HK4    H1838163   8.957   4.940  10.681  2.1198 -2.1536 -0.8602
  455HK4    C3738164   8.747   4.885  10.682 -0.4308 -0.3168  0.0733
  455HK4    H1938165   8.716   4.969  10.619 -2.1820 -0.4650  0.7176
  455HK4    C3838166   8.650   4.806  10.742 -0.2092 -0.5995  0.0609
  455HK4    H2038167   8.544   4.831  10.745  0.7180  3.7977 -0.6699
  455HK4    C1438168   8.489   4.209  11.025 -0.1554 -0.4624 -0.0546
  455HK4     C938169   8.364   4.161  10.984 -0.0921  0.0480 -0.8433
  455HK4     C838170   8.292   4.075  11.070  0.1713  0.1975 -0.4730
  455HK4    C1138171   8.362   4.023  11.178 -0.3212  0.2953 -0.1100
  455HK4     H438172   8.314   3.940  11.233 -2.2885  1.3097 -0.2560
  455HK4    C1238173   8.491   4.059  11.214 -0.2105  0.0615 -0.2678
  455HK4     H538174   8.541   4.003   0.046 -1.7596  0.3290  0.9291
  455HK4    C1338175   8.558   4.148  11.131  0.0512  0.4345  0.3366
  455HK4     H638176   8.668   4.157  11.125  0.0365  0.5188  0.2031
  455HK4     C738177   8.160   4.022  11.028  0.4043 -0.4633 -0.3848
  455HK4     O238178   8.100   3.946  11.103  0.1275  0.0149 -0.1175
  455HK4     C438179   8.110   4.053  10.892  0.1623 -0.1499 -0.2243
  455HK4     C338180   7.999   3.984  10.843  0.3158 -0.5879  0.0407
  455HK4     H338181   7.970   3.892  10.895  0.0263 -0.9286 -0.7225
  455HK4     C238182   7.934   4.013  10.725  0.9504 -0.1319 -0.1990
  455HK4     H238183   7.839   3.965  10.698 -0.1108  1.2534  1.0262
  455HK4     C138184   7.989   4.117  10.650 -0.1398  0.2256 -0.5216
  455HK4     H138185   7.937   4.140  10.556 -1.4937 -0.2914  0.0900
  455HK4     C638186   8.109   4.181  10.689 -0.1729  0.1830 -0.3481
  455HK4     C538187   8.177   4.140  10.804 -0.6185  0.8638  0.1655
  455HK4    C1038188   8.316   4.176  10.843 -0.3088  0.6495 -0.7096
  455HK4     O138189   8.405   4.169  10.759  0.2854 -0.0470 -0.0288
  455HK4    C1638190   8.114   4.322  10.648 -0.3039  0.4131  0.4346
  455HK4    C1538191   7.999   4.404  10.645 -0.4124  0.2417 -0.0261
  455HK4     H738192   7.902   4.365  10.681 -1.1631 -0.1168 -2.3197
  455HK4    C2038193   8.007   4.541  10.625  0.0127  0.2141 -0.0529
  455HK4     H938194   7.918   4.604  10.617 -0.6540 -0.5803  0.8786
  455HK4    C1938195   8.128   4.600  10.592  0.2782 -0.4458 -0.2630
  455HK4    C1838196   8.244   4.515  10.573  0.6174 -0.2890  1.0568
  455HK4    C1738197   8.232   4.380  10.605  0.1116 -0.3793  0.4917
  455HK4     H838198   8.308   4.310  10.571 -1.3150 -0.1898 -3.3463
  455HK4     N138199   8.357   4.585  10.525  0.2484 -0.1273  0.4104
  455HK4    C2138200   8.316   4.720  10.529 -0.1899 -0.2469 -0.0718
  455HK4    C2238201   8.177   4.734  10.566 -0.2860 -0.2712 -0.4101
  455HK4    C2638202   8.120   4.860  10.570 -0.4518 -0.3880  0.8494
  455HK4    H1338203   8.013   4.875  10.586 -0.3122  2.6187 -0.5302
  455HK4    C2538204   8.193   4.976  10.545 -0.4342 -0.5799  0.0128
  455HK4    H1238205   8.149   5.070  10.578  2.4155 -0.0944  2.6225
  455HK4    C2438206   8.327   4.964  10.511 -0.2967 -0.0376  0.3399
  455HK4    H1138207   8.385   5.051  10.478 -0.3028 -0.2066 -0.1274
  455HK4    C2338208   8.383   4.838  10.497 -0.3488 -0.0553  0.2994
  455HK4    H1038209   8.479   4.829  10.447  0.2344 -0.5661  1.4698
  455HK4    C3938210   8.486   4.533  10.504  0.2152 -0.0542  0.0144
  455HK4    C4138211   8.575   4.601  10.418 -0.0782 -0.2823 -0.4730
  455HK4    H2138212   8.545   4.654  10.326 -0.0828 -0.0766 -0.3550
  455HK4    C4238213   8.710   4.573  10.426 -0.0431  0.0672  0.1939
  455HK4    H2238214   8.779   4.619  10.355 -1.9997 -1.5660 -2.8450
  455HK4    C4338215   8.767   4.482  10.515 -0.2004 -0.0430  0.1805
  455HK4    H2338216   8.873   4.481  10.541 -0.1695 -1.7889  0.0912
  455HK4    C4438217   8.677   4.409  10.591 -0.1231 -0.4076 -0.0778
  455HK4    H2438218   8.722   4.324  10.646  1.1009  0.0967 -0.3033
  455HK4    C4538219   8.540   4.436  10.589  0.0052  0.2801  0.5309
  455HK4    H2538220   8.480   4.413  10.679  0.8801  0.3228  1.1414
  456HK4    H2838221   5.914   5.067   1.837  1.2031  0.5320 -1.0190
  456HK4    C4838222   5.926   4.975   1.780  0.8277 -0.0833 -0.1257
  456HK4    C4738223   5.819   4.905   1.726  0.5019  0.4372 -0.1471
  456HK4    H2738224   5.724   4.961   1.724  1.3481  1.9479  0.8949
  456HK4    C4638225   5.844   4.787   1.658  0.2917  0.2031  0.1834
  456HK4    H2638226   5.751   4.728   1.651  1.2918 -1.3660 -0.1850
  456HK4    C4038227   5.971   4.733   1.629  0.2311 -0.0695  0.4214
  456HK4    C5038228   6.076   4.807   1.688  0.1052  0.0994  0.4296
  456HK4    H3038229   6.179   4.771   1.678 -0.0874 -0.2683 -0.2301
  456HK4    C4938230   6.054   4.924   1.760  1.0367  0.1266  0.6710
  456HK4    H2938231   6.140   4.979   1.802  2.2125  0.0019 -1.4985
  456HK4     N238232   5.990   4.628   1.539 -0.2757  0.1395  0.0673
  456HK4    C3038233   5.887   4.537   1.506  0.0511 -0.3401  0.3486
  456HK4    C2938234   5.788   4.469   1.576 -0.3212 -0.1288  0.0306
  456HK4    H1538235   5.793   4.485   1.684  0.0972 -1.6469  0.2461
  456HK4    C2838236   5.703   4.375   1.520 -0.1387 -0.2400 -0.0620
  456HK4    C2738237   5.712   4.348   1.382  0.3255 -0.3195 -0.0161
  456HK4    H1438238   5.624   4.299   1.338 -0.4992 -0.3148  1.5787
  456HK4    C3238239   5.808   4.413   1.306  0.1420  0.1178  0.1275
  456HK4    H1638240   5.792   4.418   1.199 -0.6824 -0.9912  0.1913
  456HK4    C3138241   5.897   4.502   1.366  0.0056  0.2032  0.2073
  456HK4    C3438242   6.014   4.570   1.314  0.1739 -0.0541  0.2507
  456HK4    C3338243   6.078   4.631   1.429  0.0074  0.0480  0.2885
  456HK4    C3538244   6.212   4.665   1.416  0.1065 -0.2686  0.5050
  456HK4    H1738245   6.258   4.718   1.500  0.6344 -0.9560  0.6600
  456HK4    C3638246   6.286   4.647   1.300 -0.5474 -0.0591  0.0570
  456HK4    H1838247   6.393   4.669   1.290 -0.4057 -1.3473 -1.5824
  456HK4    C3738248   6.221   4.595   1.189 -0.2448 -0.2048 -0.0523
  456HK4    H1938249   6.268   4.596   1.090  0.0593  2.4427  0.0737
  456HK4    C3838250   6.088   4.557   1.196 -0.3720  0.2212 -0.1221
  456HK4    H2038251   6.043   4.500   1.114  0.6063  0.9041 -1.1333
  456HK4    C1438252   5.629   4.278   1.602 -0.6227 -0.3409 -0.6159
  456HK4     C938253   5.603   4.145   1.564  0.1341 -0.7619  0.3287
  456HK4     C838254   5.484   4.080   1.602 -0.2722 -0.1696  0.0644
  456HK4    C1138255   5.413   4.140   1.705 -0.8794  0.4068 -0.6810
  456HK4     H438256   5.322   4.085   1.735  0.7126 -2.9722 -1.8445
  456HK4    C1238257   5.439   4.266   1.757  0.4127 -0.3193  0.4660
  456HK4     H538258   5.363   4.324   1.812 -1.0771 -0.0143 -1.8227
  456HK4    C1338259   5.545   4.335   1.700  0.6895 -0.5757  0.6686
  456HK4     H638260   5.549   4.442   1.725  0.8898 -0.1647 -1.0130
  456HK4     C738261   5.439   3.959   1.531  0.0010 -0.0123 -0.3773
  456HK4     O238262   5.351   3.889   1.581  0.1176 -0.2743 -0.5371
  456HK4     C438263   5.512   3.916   1.409  0.4450 -0.1765 -0.0515
  456HK4     C338264   5.448   3.819   1.334 -0.0799  0.0006  0.1683
  456HK4     H338265   5.346   3.784   1.355  0.3757 -1.6513 -0.2189
  456HK4     C238266   5.520   3.766   1.227 -0.0799 -0.0058  0.1716
  456HK4     H238267   5.477   3.694   1.156  0.4832  1.1454 -1.3542
  456HK4     C138268   5.641   3.826   1.196 -0.2423  0.0253 -0.4096
  456HK4     H138269   5.693   3.790   1.106 -1.2489 -3.0066  0.1398
  456HK4     C638270   5.708   3.928   1.266  0.4589 -0.6872 -0.0230
  456HK4     C538271   5.639   3.970   1.381  0.4146 -0.1955 -0.2297
  456HK4    C1038272   5.696   4.074   1.471  0.0848  0.1569 -0.4263
  456HK4     O138273   5.809   4.056   1.515 -0.0164  0.0304 -0.2128
  456HK4    C1638274   5.785   4.027   1.189 -0.2492 -0.3772 -0.3407
  456HK4    C1538275   5.749   4.068   1.059  0.0087  0.2036 -0.2289
  456HK4     H738276   5.640   4.081   1.053 -0.4045 -2.2306  1.4740
  456HK4    C2038277   5.832   4.139   0.974  0.2143 -0.0121 -0.2081
  456HK4     H938278   5.810   4.144   0.867  0.0985  0.3216 -0.1675
  456HK4    C1938279   5.956   4.173   1.026  0.1976 -0.1312 -0.0898
  456HK4    C1838280   6.004   4.121   1.153  0.3032 -0.0367 -0.0916
  456HK4    C1738281   5.917   4.044   1.229 -0.1432 -0.2008 -0.7682
  456HK4     H838282   5.966   3.973   1.295  0.1570 -0.0283 -0.8052
  456HK4     N138283   6.136   4.161   1.184  0.2798 -0.0456  0.0224
  456HK4    C2138284   6.177   4.233   1.070 -0.1755  0.5630  0.2418
  456HK4    C2238285   6.070   4.246   0.973 -0.1860  0.7478  0.2783
  456HK4    C2638286   6.088   4.316   0.854 -0.4438  0.0830 -0.1554
  456HK4    H1338287   6.018   4.299   0.773  0.1034 -3.4256  0.0278
  456HK4    C2538288   6.208   4.383   0.833 -0.0712 -0.5179  0.0450
  456HK4    H1238289   6.204   4.472   0.770  1.0965  0.1634  0.9048
  456HK4    C2438290   6.315   4.364   0.920  0.3481 -0.4526 -0.4552
  456HK4    H1138291   6.411   4.414   0.900  1.1673 -2.2418 -1.1783
  456HK4    C2338292   6.299   4.292   1.037 -0.1490  0.3613 -0.0213
  456HK4    H1038293   6.370   4.302   1.119  1.0507  0.8597 -1.1089
  456HK4    C3938294   6.190   4.175   1.312  0.0742 -0.5429  0.1632
  456HK4    C4138295   6.330   4.166   1.326  0.1813 -0.0392 -0.5976
  456HK4    H2138296   6.388   4.133   1.238  1.9194 -0.9602  0.8632
  456HK4    C4238297   6.386   4.222   1.440 -0.0049  0.0652 -0.5574
  456HK4    H2238298   6.494   4.212   1.456 -0.1556 -1.9687 -0.7488
  456HK4    C4338299   6.313   4.299   1.530 -0.2876 -0.3878 -0.3991
  456HK4    H2338300   6.365   4.345   1.615  0.3109 -0.8614 -0.5017
  456HK4    C4438301   6.175   4.300   1.519 -0.3314 -0.5054  0.1122
  456HK4    H2438302   6.112   4.353   1.591 -0.2021 -1.1432  0.7010
  456HK4    C4538303   6.112   4.238   1.412 -0.1334 -0.8545  0.1973
  456HK4    H2538304   6.003   4.232   1.399  0.0096  0.3478 -1.7372
  457HK4    H2838305   4.437   7.397   1.622  0.3998 -0.9863  0.4000
  457HK4    C4838306   4.349   7.429   1.677  0.4038  0.2685 -0.3175
  457HK4    C4738307   4.223   7.429   1.617  0.3159 -0.1098 -0.1288
  457HK4    H2738308   4.209   7.375   1.522  1.6387 -3.8226  1.6526
  457HK4    C4638309   4.114   7.496   1.669  0.2646 -0.0811 -0.2751
  457HK4    H2638310   4.018   7.484   1.617 -0.5091  0.1265  1.0756
  457HK4    C4038311   4.131   7.557   1.795  0.3034 -0.2414 -0.2023
  457HK4    C5038312   4.254   7.548   1.863  0.4206  0.8187 -0.2669
  457HK4    H3038313   4.266   7.592   1.964 -1.4015 -2.1390  1.2993
  457HK4    C4938314   4.362   7.486   1.803  0.1830  0.5563 -0.4238
  457HK4    H2938315   4.437   7.440   1.869  2.0298  1.6509 -1.6943
  457HK4     N238316   4.021   7.595   1.873  0.0846 -0.4498 -0.4068
  457HK4    C3038317   4.020   7.691   1.976 -0.1730 -0.4251 -0.4306
  457HK4    C2938318   4.105   7.802   1.981 -0.5275 -0.1512 -0.4801
  457HK4    H1538319   4.174   7.815   1.898 -0.4628  1.1883 -0.2190
  457HK4    C2838320   4.081   7.907   2.069 -0.0147 -0.2227 -0.2521
  457HK4    C2738321   3.984   7.879   2.167  0.1151 -0.3216 -0.1517
  457HK4    H1438322   3.972   7.940   2.258 -0.1446  0.8725 -0.9800
  457HK4    C3238323   3.899   7.769   2.164  0.3470 -0.5201  0.5642
  457HK4    H1638324   3.835   7.754   2.251 -0.0436  2.9761  0.9649
  457HK4    C3138325   3.907   7.673   2.064  0.2870 -0.1678  0.2208
  457HK4    C3438326   3.832   7.561   2.009 -0.4260  0.3868  0.0597
  457HK4    C3338327   3.909   7.513   1.896 -0.1539  0.0885  0.3708
  457HK4    C3538328   3.871   7.390   1.843 -0.2335 -0.0335  0.7076
  457HK4    H1738329   3.905   7.359   1.744 -0.8821 -1.2590  0.8589
  457HK4    C3638330   3.759   7.324   1.894  0.0021 -0.7690  0.2761
  457HK4    H1838331   3.744   7.221   1.859 -1.5061 -0.3361 -0.4108
  457HK4    C3738332   3.678   7.382   1.991  0.2705  0.6637 -0.3305
  457HK4    H1938333   3.595   7.326   2.034 -0.2009  0.6582 -1.2484
  457HK4    C3838334   3.716   7.499   2.055 -0.0868  0.2237  0.7030
  457HK4    H2038335   3.681   7.520   2.156 -2.4601 -1.6081  0.2957
  457HK4    C1438336   4.177   8.019   2.072 -0.5105  0.1935  0.0718
  457HK4     C938337   4.229   8.083   2.185 -0.1753  0.2362 -0.1069
  457HK4     C838338   4.305   8.200   2.163  0.3698 -0.0743  0.1130
  457HK4    C1138339   4.308   8.263   2.039  0.4304 -0.1246  0.0886
  457HK4     H438340   4.358   8.360   2.025  2.1895 -0.5151  3.2495
  457HK4    C1238341   4.256   8.199   1.927  0.1774 -0.0962  0.1874
  457HK4     H538342   4.263   8.244   1.827  0.3871 -1.3452 -0.3612
  457HK4    C1338343   4.198   8.074   1.944  0.0942 -0.0769  0.0547
  457HK4     H638344   4.162   8.012   1.861 -0.1442 -2.3537  1.7895
  457HK4     C738345   4.369   8.273   2.275  0.2487  0.3769 -0.1093
  457HK4     O238346   4.466   8.347   2.259  0.5184  0.0601  0.0823
  457HK4     C438347   4.347   8.225   2.413 -0.0026  0.1266 -0.2368
  457HK4     C338348   4.416   8.291   2.514 -0.4073  0.6115 -0.2792
  457HK4     H338349   4.488   8.372   2.498  0.0317  0.6606  1.8901
  457HK4     C238350   4.406   8.239   2.642  0.6687 -0.0463 -0.4630
  457HK4     H238351   4.461   8.279   2.729 -2.1429 -0.9307  1.8007
  457HK4     C138352   4.321   8.132   2.668  0.3412  0.2136 -0.4620
  457HK4     H138353   4.335   8.086   2.767 -2.4713  1.0806  0.3931
  457HK4     C638354   4.240   8.071   2.571  0.1479  0.0147 -0.1781
  457HK4     C538355   4.264   8.114   2.439 -0.1551  0.2607 -0.1525
  457HK4    C1038356   4.228   8.028   2.324  0.3309  0.0730 -0.1660
  457HK4     O138357   4.257   7.908   2.332 -0.0009 -0.0159 -0.2649
  457HK4    C1638358   4.112   8.017   2.618 -0.1934  0.2831 -0.7853
  457HK4    C1538359   4.060   8.064   2.740  0.8388 -0.2429 -0.1387
  457HK4     H738360   4.089   8.162   2.782 -0.5900 -1.0097  2.7956
  457HK4    C2038361   3.966   7.995   2.816  0.4306  0.1366 -0.2964
  457HK4     H938362   3.955   8.027   2.919 -2.3990  0.5503 -0.6767
  457HK4    C1938363   3.920   7.873   2.765 -0.1422  0.2385 -0.0205
  457HK4    C1838364   3.951   7.827   2.632  0.0145 -0.2679  0.1904
  457HK4    C1738365   4.047   7.905   2.567  0.1405 -0.3820  0.2403
  457HK4     H838366   4.038   7.898   2.459 -1.1063  0.6529  0.2664
  457HK4     N138367   3.895   7.700   2.608 -0.1484 -0.2245  0.3414
  457HK4    C2138368   3.838   7.659   2.731 -0.4642 -0.3171  0.1655
  457HK4    C2238369   3.844   7.767   2.827 -0.0444  0.0355 -0.2491
  457HK4    C2638370   3.763   7.765   2.941  0.0776 -0.4520 -0.1675
  457HK4    H1338371   3.733   7.863   2.978 -1.2710 -0.5798 -0.8986
  457HK4    C2538372   3.695   7.649   2.972 -0.7053  0.1475  0.3605
  457HK4    H1238373   3.660   7.623   3.073 -0.7136 -0.2261  0.2650
  457HK4    C2438374   3.691   7.542   2.883 -0.3407  0.1657  0.3236
  457HK4    H1138375   3.643   7.447   2.908  1.1298 -0.2602  1.6293
  457HK4    C2338376   3.759   7.549   2.762 -0.1918 -0.4539  0.3721
  457HK4    H1038377   3.782   7.454   2.712  0.9346  1.3370 -2.6575
  457HK4    C3938378   3.942   7.610   2.511 -0.2662  0.9258 -0.7960
  457HK4    C4138379   3.862   7.501   2.473 -0.1450  0.4542  0.2758
  457HK4    H2138380   3.764   7.476   2.516  1.0084 -3.6668  0.7703
  457HK4    C4238381   3.910   7.409   2.380  0.0564  0.4101  0.4242
  457HK4    H2238382   3.853   7.318   2.354  1.9238 -1.0627  1.3145
  457HK4    C4338383   4.025   7.436   2.307  0.0849  0.0510  0.3346
  457HK4    H2338384   4.058   7.389   2.214  2.1179  1.8919  0.0983
  457HK4    C4438385   4.108   7.540   2.349  0.2437 -0.0273  0.2161
  457HK4    H2438386   4.197   7.565   2.291  0.4816 -2.4868 -0.5502
  457HK4    C4538387   4.069   7.625   2.452  0.1050  0.3504 -0.1467
  457HK4    H2538388   4.137   7.703   2.488  0.8025 -0.6992  0.8340
  458HK4    H2838389   6.678  10.699  10.572  0.7755  1.6230 -1.1017
  458HK4    C4838390   6.724  10.744  10.660 -0.1650  0.1798  0.1513
  458HK4    C4738391   6.726  10.882  10.676  0.3394  0.2582 -0.6096
  458HK4    H2738392   6.658  10.938  10.611 -1.2272 -0.5431  0.3243
  458HK4    C4638393   6.787  10.942  10.785 -0.4788 -0.3968  0.2099
  458HK4    H2638394   6.806  11.051  10.789  1.4755 -0.7479  1.7866
  458HK4    C4038395   6.842  10.864  10.889 -0.1997 -0.0835  0.3002
  458HK4    C5038396   6.841  10.724  10.872  0.7333 -0.0491 -0.0940
  458HK4    H3038397   6.862  10.655  10.955 -0.4754 -2.4005 -1.6707
  458HK4    C4938398   6.790  10.667  10.756  0.1023  0.2600  0.0286
  458HK4    H2938399   6.814  10.564  10.727  0.0155 -0.0621  1.0958
  458HK4     N238400   6.836  10.909  11.021 -0.1591  0.2474  0.1860
  458HK4    C3038401   6.759  11.016  11.072 -0.6752 -0.2760  0.5061
  458HK4    C2938402   6.644  11.070  11.016  0.1247  0.4964 -0.4163
  458HK4    H1538403   6.592  11.008  10.943 -1.2703 -0.8293  1.6287
  458HK4    C2838404   6.577  11.179  11.071 -0.2802  0.2464 -0.4147
  458HK4    C2738405   6.641  11.239  11.181 -0.6491  0.0213 -0.0758
  458HK4    H1438406   6.599   0.080  11.231  0.0289 -1.6689  3.6677
  458HK4    C3238407   6.752  11.185  11.244 -0.3315  0.2137 -0.4656
  458HK4    H1638408   6.819  11.246   0.057 -1.4930  0.9066  0.1460
  458HK4    C3138409   6.810  11.067  11.198 -0.0327  0.1443  0.0762
  458HK4    C3438410   6.931  10.991  11.221 -0.1013  0.0754  0.2136
  458HK4    C3338411   6.939  10.892  11.116 -0.2414  0.0405  0.2374
  458HK4    C3538412   7.043  10.800  11.121 -0.2269  0.0595  0.2619
  458HK4    H1738413   7.058  10.721  11.046 -2.5117 -3.4236  3.2860
  458HK4    C3638414   7.132  10.797  11.228  0.1563  0.3296 -0.0460
  458HK4    H1838415   7.205  10.714  11.235 -1.7725 -1.2769  1.4816
  458HK4    C3738416   7.119  10.892   0.079 -0.2882  0.1398  0.0748
  458HK4    H1938417   7.183  10.872   0.165 -0.4371  0.4896  0.2684
  458HK4    C3838418   7.019  10.989   0.081 -0.4019  0.0158  0.4548
  458HK4    H2038419   7.002  11.063   0.159 -0.7567 -0.5735  0.9418
  458HK4    C1438420   6.499   0.014  10.978 -0.4390 -0.0515 -0.5536
  458HK4     C938421   6.498   0.154  10.972  0.2333 -0.0111  0.1636
  458HK4     C838422   6.377   0.224  10.952  0.2102 -0.1376 -0.1466
  458HK4    C1138423   6.272   0.156  10.892 -0.4054  0.2252  0.4989
  458HK4     H438424   6.177   0.192  10.852 -0.5064 -0.7690 -0.1877
  458HK4    C1238425   6.282   0.018  10.875  0.2909  0.3124  0.1519
  458HK4     H538426   6.214  11.211  10.808  1.9270 -1.4722 -0.0964
  458HK4    C1338427   6.389  11.192  10.925 -0.3689 -0.6790  0.1157
  458HK4     H638428   6.379  11.083  10.930 -0.6054 -0.6748 -0.1702
  458HK4     C738429   6.358   0.357  11.013  0.1971 -0.2351  0.0638
  458HK4     O238430   6.247   0.410  11.012  0.1752 -0.2940 -0.3745
  458HK4     C438431   6.476   0.425  11.072  0.2476  0.3772 -0.7431
  458HK4     C338432   6.455   0.547  11.136  0.1427 -0.1114  0.1619
  458HK4     H338433   6.361   0.603  11.125  0.7660  0.7799 -0.7753
  458HK4     C238434   6.555   0.601  11.216  0.2425 -0.1685  0.0772
  458HK4     H238435   6.541   0.683   0.040  2.5193 -0.5603  1.0094
  458HK4     C138436   6.681   0.542  11.215  0.6527  0.7048 -0.1793
  458HK4     H138437   6.756   0.574   0.041  0.9384  1.2195 -0.6877
  458HK4     C638438   6.713   0.422  11.149  0.2091  0.3481  0.2435
  458HK4     C538439   6.606   0.370  11.076  0.2300  0.3954  0.1761
  458HK4    C1038440   6.616   0.239  11.006 -0.0613  0.4857 -0.0385
  458HK4     O138441   6.717   0.209  10.943 -0.2783 -0.2489 -0.0489
  458HK4    C1638442   6.810   0.341  11.224 -0.3032 -0.3899  0.1100
  458HK4    C1538443   6.813   0.336   0.117  1.0455  0.4935  0.1213
  458HK4     H738444   6.739   0.393   0.174  0.9532  1.0034 -0.4976
  458HK4    C2038445   6.901   0.255   0.188  0.1449 -0.1834  0.4686
  458HK4     H938446   6.866   0.239   0.290 -2.7485  2.0564 -0.1108
  458HK4    C1938447   7.007   0.200   0.117 -0.0525 -0.0846  0.0991
  458HK4    C1838448   7.008   0.210  11.220 -0.4837 -0.0903  0.0907
  458HK4    C1738449   6.911   0.280  11.150 -0.2467  0.0063 -0.1400
  458HK4     H838450   6.941   0.317  11.052  2.7811  1.4786  1.3047
  458HK4     N138451   7.119   0.146  11.161 -0.8210 -0.6939  0.1109
  458HK4    C2138452   7.194   0.094   0.021 -0.0458 -0.1021 -0.1315
  458HK4    C2238453   7.119   0.113   0.144 -0.1445 -0.2850 -0.1625
  458HK4    C2638454   7.156   0.036   0.254 -0.3561  0.3032  0.3211
  458HK4    H1338455   7.087   0.029   0.338  1.1391 -1.8643  1.4152
  458HK4    C2538456   7.266  11.199   0.246 -0.6992 -0.1679  0.6277
  458HK4    H1238457   7.281  11.133   0.332 -0.7946  0.3596  1.0558
  458HK4    C2438458   7.338  11.182   0.129 -0.6285  0.4044  0.5855
  458HK4    H1138459   7.423  11.112   0.131 -0.3738  0.7635  2.7750
  458HK4    C2338460   7.307   0.014   0.020 -0.2610 -0.4087 -0.1207
  458HK4    H1038461   7.374   0.007  11.182 -0.4391 -1.7597 -0.1616
  458HK4    C3938462   7.134   0.120  11.025  0.0822  0.4704 -0.0224
  458HK4    C4138463   7.262   0.114  10.965  0.1318 -0.5570  0.1613
  458HK4    H2138464   7.338   0.172  11.021 -0.7198  0.3339  0.4157
  458HK4    C4238465   7.289   0.054  10.843 -0.1967  0.2818 -0.3291
  458HK4    H2238466   7.386   0.074  10.794 -1.1904  4.7460 -0.7252
  458HK4    C4338467   7.188  11.229  10.782 -0.1281  0.2269 -0.3755
  458HK4    H2338468   7.218  11.151  10.712 -1.0509 -0.8657  0.4265
  458HK4    C4438469   7.060  11.226  10.836  0.1890 -0.4651  0.3523
  458HK4    H2438470   6.971  11.201  10.775  0.3924  0.7374 -0.4368
  458HK4    C4538471   7.036   0.048  10.954  0.2084  0.4736 -0.1967
  458HK4    H2538472   6.939   0.037  11.003  0.5896 -0.4129  0.3644
  459HK4    H2838473   2.994   9.564   0.040  2.2515  2.0828 -0.8436
  459HK4    C4838474   3.040   9.532   0.133  0.0577  0.1520 -0.3690
  459HK4    C4738475   2.995   9.409   0.180  0.2744 -0.0997 -0.8177
  459HK4    H2738476   2.891   9.376   0.163 -0.2755  0.1919  1.8181
  459HK4    C4638477   3.086   9.340   0.259  0.5941  0.4323 -0.7214
  459HK4    H2638478   3.066   9.236   0.286 -1.5967  1.2713  1.1445
  459HK4    C4038479   3.208   9.394   0.304  0.0559  0.5468  0.6354
  459HK4    C5038480   3.244   9.520   0.252  0.5270  0.0907 -0.1660
  459HK4    H3038481   3.344   9.564   0.264  0.7146 -0.2677 -0.4137
  459HK4    C4938482   3.160   9.593   0.169 -0.1267  0.0460  0.4457
  459HK4    H2938483   3.198   9.687   0.126  0.5458 -1.5562 -2.6852
  459HK4     N238484   3.310   9.331   0.378  0.2233 -0.2256 -0.2373
  459HK4    C3038485   3.320   9.192   0.398 -0.0159 -0.1835  0.1710
  459HK4    C2938486   3.275   9.091   0.314 -0.3088  0.0430  0.0503
  459HK4    H1538487   3.237   9.109   0.213 -0.4145  1.1055  0.2711
  459HK4    C2838488   3.300   8.959   0.349 -0.1027  0.1935  0.4717
  459HK4    C2738489   3.378   8.933   0.463  0.3283 -0.1394  0.1012
  459HK4    H1438490   3.425   8.835   0.478  0.1551 -0.1448  0.6363
  459HK4    C3238491   3.424   9.035   0.546  0.3360  0.0957 -0.1916
  459HK4    H1638492   3.473   9.022   0.643  1.1070  3.9898  0.0114
  459HK4    C3138493   3.397   9.168   0.518 -0.0295  0.1126  0.2384
  459HK4    C3438494   3.430   9.296   0.579 -0.1731  0.1656  0.2091
  459HK4    C3338495   3.375   9.393   0.487  0.3915 -0.0965 -0.4098
  459HK4    C3538496   3.366   9.522   0.537  0.1952 -0.2099 -0.1614
  459HK4    H1738497   3.344   9.603   0.468  0.9412 -1.0857 -1.4485
  459HK4    C3638498   3.413   9.558   0.663  0.3558 -0.2250 -0.2175
  459HK4    H1838499   3.438   9.662   0.688 -1.4151 -0.2431  1.7470
  459HK4    C3738500   3.469   9.460   0.744 -0.8034 -0.2124  0.6024
  459HK4    H1938501   3.502   9.484   0.845 -0.0913 -1.2880  0.6354
  459HK4    C3838502   3.474   9.326   0.707 -0.0323 -0.0796  0.2184
  459HK4    H2038503   3.530   9.251   0.765 -2.5098 -4.0875 -2.3294
  459HK4    C1438504   3.239   8.851   0.270  0.3174  0.1674  0.1829
  459HK4     C938505   3.227   8.717   0.311 -0.9776  0.2165 -0.0224
  459HK4     C838506   3.232   8.608   0.222 -0.0763  0.2124  0.0266
  459HK4    C1138507   3.235   8.631   0.085  0.1349  0.2083  0.0303
  459HK4     H438508   3.223   8.554   0.007  0.6784  1.1727 -1.0348
  459HK4    C1238509   3.236   8.763   0.041  0.2245  0.1972  0.0041
  459HK4     H538510   3.234   8.780  11.181  0.8452  0.4712  0.0300
  459HK4    C1338511   3.247   8.869   0.131 -0.0286  0.0981  0.1537
  459HK4     H638512   3.285   8.963   0.089  1.1040 -0.6092 -0.4161
  459HK4     C738513   3.245   8.472   0.279 -0.5019  0.1484 -0.0345
  459HK4     O238514   3.186   8.385   0.215 -0.7102  0.2530  0.0136
  459HK4     C438515   3.262   8.452   0.425 -0.3683 -0.3718 -0.1221
  459HK4     C338516   3.307   8.326   0.464 -0.1221 -0.3953 -0.4761
  459HK4     H338517   3.343   8.253   0.390  0.4340  1.6596 -2.2962
  459HK4     C238518   3.317   8.307   0.601 -0.4121  0.1212 -0.3800
  459HK4     H238519   3.362   8.215   0.641  0.9520  0.6750 -0.5877
  459HK4     C138520   3.281   8.405   0.693  0.3098  0.0069  0.0322
  459HK4     H138521   3.301   8.385   0.799 -0.3712  1.8297  0.5240
  459HK4     C638522   3.225   8.527   0.649  0.1285 -0.1210 -0.1036
  459HK4     C538523   3.218   8.554   0.512  0.0641 -0.1905 -0.1141
  459HK4    C1038524   3.189   8.687   0.452  0.2178  0.0117  0.2577
  459HK4     O138525   3.090   8.749   0.489  0.2381  0.0542  0.2365
  459HK4    C1638526   3.142   8.596   0.749 -0.4132  0.0485 -0.6649
  459HK4    C1538527   3.076   8.516   0.844  0.1587  0.1078 -0.2144
  459HK4     H738528   3.001   8.458   0.788 -1.0034  2.8911 -1.6470
  459HK4    C2038529   3.044   8.567   0.969 -0.3724  0.0242 -0.3140
  459HK4     H938530   2.980   8.519   1.044 -0.4252  2.1142  1.0371
  459HK4    C1938531   3.063   8.702   0.999  0.3045 -0.1788  0.1899
  459HK4    C1838532   3.109   8.791   0.895 -0.0030  0.0728  0.2693
  459HK4    C1738533   3.154   8.731   0.778  0.0678 -0.2208  0.4464
  459HK4     H838534   3.217   8.791   0.712  2.6863 -2.2831  0.9957
  459HK4     N138535   3.113   8.925   0.940 -0.0719  0.3084 -0.4208
  459HK4    C2138536   3.056   8.920   1.069  0.0372 -0.1778 -0.3905
  459HK4    C2238537   3.017   8.786   1.108 -0.2256 -0.0294 -0.1445
  459HK4    C2638538   2.938   8.766   1.221 -0.2991 -0.4006 -0.2624
  459HK4    H1338539   2.938   8.672   1.276  0.2912  1.1619  2.4596
  459HK4    C2538540   2.871   8.872   1.281  0.0333 -0.0671 -0.4838
  459HK4    H1238541   2.794   8.852   1.356 -0.4646 -1.1301 -1.2645
  459HK4    C2438542   2.900   8.999   1.233  0.1847  0.3053  0.5734
  459HK4    H1138543   2.848   9.083   1.281 -1.9535 -0.9627  0.5217
  459HK4    C2338544   2.996   9.026   1.136 -0.3018 -0.5260 -0.1401
  459HK4    H1038545   3.048   9.121   1.139  0.9246 -1.2445  1.6944
  459HK4    C3938546   3.126   9.044   0.867 -0.4517  0.4248 -0.3022
  459HK4    C4138547   3.168   9.163   0.929  0.1613 -0.1224  0.3445
  459HK4    H2138548   3.225   9.163   1.023 -0.0871 -1.7523  0.5040
  459HK4    C4238549   3.159   9.282   0.858 -0.3804 -0.3511  0.0270
  459HK4    H2238550   3.159   9.374   0.917  0.4653 -1.6824  2.1355
  459HK4    C4338551   3.128   9.283   0.722  0.1726 -0.7632 -0.1051
  459HK4    H2338552   3.112   9.380   0.677  0.2023  0.1770  1.8602
  459HK4    C4438553   3.097   9.165   0.654 -0.4349 -0.1675 -0.8669
  459HK4    H2438554   3.050   9.179   0.556  0.5821 -1.4749 -1.5582
  459HK4    C4538555   3.093   9.049   0.730  0.0590  0.0919 -0.4388
  459HK4    H2538556   3.092   8.956   0.672  0.3541  1.0844 -2.0734
  460HK4    H2838557   2.610   9.023   1.976  0.8175  0.2777 -1.0173
  460HK4    C4838558   2.687   9.100   1.983  0.1291  0.8609  0.2294
  460HK4    C4738559   2.672   9.215   1.905  0.0957  0.1373 -0.8401
  460HK4    H2738560   2.583   9.230   1.842 -0.7698 -2.8357 -0.4096
  460HK4    C4638561   2.777   9.306   1.908  0.1171  0.0838  0.2223
  460HK4    H2638562   2.750   9.396   1.851 -1.5323 -0.6851 -0.2451
  460HK4    C4038563   2.893   9.290   1.986  0.0442  0.5501  0.4246
  460HK4    C5038564   2.900   9.170   2.060 -0.3747  0.1955 -0.1082
  460HK4    H3038565   2.994   9.142   2.109 -0.0731 -2.7128 -2.2376
  460HK4    C4938566   2.802   9.072   2.056 -0.0067 -0.1794  0.0449
  460HK4    H2938567   2.805   8.982   2.118  0.0231 -0.6608 -0.6483
  460HK4     N238568   3.011   9.366   1.983  0.4410 -0.0730  0.0339
  460HK4    C3038569   3.050   9.436   1.867  0.3652 -0.0877 -0.0004
  460HK4    C2938570   3.043   9.406   1.732  1.0605 -0.0236 -0.0519
  460HK4    H1538571   2.968   9.334   1.699  2.6832 -2.1100  0.6736
  460HK4    C2838572   3.117   9.470   1.633 -0.6847  0.9718 -0.7329
  460HK4    C2738573   3.205   9.573   1.673 -0.0755  0.0654  0.2721
  460HK4    H1438574   3.278   9.628   1.612  0.8098 -0.2789  0.9983
  460HK4    C3238575   3.224   9.600   1.808  1.0551  0.0830  0.1124
  460HK4    H1638576   3.281   9.690   1.828 -0.6938  1.2976 -0.2476
  460HK4    C3138577   3.148   9.536   1.906  0.9207 -0.4903 -0.3650
  460HK4    C3438578   3.169   9.529   2.049  0.6144 -0.5542 -0.3233
  460HK4    C3338579   3.084   9.420   2.091  0.5107 -0.3080  0.1043
  460HK4    C3538580   3.086   9.395   2.228 -0.0430  0.1452  0.1977
  460HK4    H1738581   3.041   9.298   2.249 -1.1577  0.2073 -1.7470
  460HK4    C3638582   3.156   9.472   2.319  0.3570  0.1186 -0.0862
  460HK4    H1838583   3.178   9.431   2.419 -3.3362  0.0015  0.7436
  460HK4    C3738584   3.222   9.587   2.279 -0.0628  0.2284 -0.4586
  460HK4    H1938585   3.254   9.662   2.351  1.1802 -1.8860  1.2159
  460HK4    C3838586   3.230   9.612   2.142 -0.0611  0.1270 -0.4774
  460HK4    H2038587   3.281   9.705   2.114 -2.6935  2.2849  1.6427
  460HK4    C1438588   3.122   9.410   1.499 -0.1123 -0.1223 -0.2255
  460HK4     C938589   3.239   9.394   1.424  0.1486 -0.0014  0.1570
  460HK4     C838590   3.240   9.403   1.284 -0.0116  0.0736  0.1613
  460HK4    C1138591   3.119   9.419   1.217  0.2545  0.8108 -0.1517
  460HK4     H438592   3.125   9.437   1.109  0.9122  1.9995  0.0691
  460HK4    C1238593   2.997   9.417   1.285  0.2988 -1.0414 -0.1056
  460HK4     H538594   2.907   9.412   1.223  1.0100 -2.3942 -1.0545
  460HK4    C1338595   3.002   9.413   1.424 -0.2327  1.0986  0.0019
  460HK4     H638596   2.909   9.451   1.467 -2.4057 -2.5824 -1.2127
  460HK4     C738597   3.363   9.428   1.206 -0.0273 -0.0884  0.0836
  460HK4     O238598   3.360   9.419   1.084  0.3506 -0.0916  0.0721
  460HK4     C438599   3.487   9.458   1.282 -0.1011  0.1022  0.1273
  460HK4     C338600   3.595   9.510   1.212 -0.4873  0.5975 -0.1011
  460HK4     H338601   3.613   9.482   1.107 -0.8555 -1.1673  0.3033
  460HK4     C238602   3.702   9.567   1.279 -0.2072  0.5957 -0.5441
  460HK4     H238603   3.800   9.588   1.235  0.3735  0.6474  0.7410
  460HK4     C138604   3.697   9.573   1.418 -0.2407  0.4038 -0.5366
  460HK4     H138605   3.785   9.620   1.464 -0.3676  2.3963 -2.2307
  460HK4     C638606   3.596   9.509   1.492  0.1183  0.4350 -0.0137
  460HK4     C538607   3.492   9.445   1.422  0.4481 -0.2054  0.0791
  460HK4    C1038608   3.372   9.387   1.490  0.2830 -0.1011 -0.1243
  460HK4     O138609   3.380   9.310   1.585 -0.1653 -0.0242 -0.0228
  460HK4    C1638610   3.576   9.560   1.628 -0.5215  0.2197 -0.0216
  460HK4    C1538611   3.578   9.698   1.657  0.4212  0.0923  0.5734
  460HK4     H738612   3.597   9.770   1.576  1.1789 -1.9101 -1.0751
  460HK4    C2038613   3.591   9.750   1.785 -0.3031  0.2899  0.5715
  460HK4     H938614   3.609   9.856   1.807  1.1919 -0.1329  1.5318
  460HK4    C1938615   3.592   9.657   1.888  0.1603  0.2618  0.5421
  460HK4    C1838616   3.603   9.514   1.866 -0.1650  0.3099  0.0710
  460HK4    C1738617   3.592   9.471   1.734 -0.0656  0.3722  0.0417
  460HK4     H838618   3.612   9.365   1.719  0.9018  0.3998  1.0888
  460HK4     N138619   3.614   9.436   1.983 -0.3298 -0.0290 -0.1378
  460HK4    C2138620   3.623   9.538   2.080  0.1299 -0.3749  0.1896
  460HK4    C2238621   3.597   9.673   2.032 -0.3589 -0.3118  0.6258
  460HK4    C2638622   3.605   9.783   2.116  0.3408  0.0163  0.1338
  460HK4    H1338623   3.548   9.870   2.082  0.5673 -0.0340 -0.3590
  460HK4    C2538624   3.651   9.772   2.247 -0.3870 -0.2454  0.3705
  460HK4    H1238625   3.687   9.861   2.300  0.7457 -1.2282  1.2810
  460HK4    C2438626   3.668   9.643   2.294  0.7476 -0.2390  0.0076
  460HK4    H1138627   3.731   9.635   2.384  2.6624  1.8034 -1.1005
  460HK4    C2338628   3.650   9.529   2.215 -0.4831 -0.2729  0.3241
  460HK4    H1038629   3.662   9.433   2.264 -3.0091 -1.1854 -0.7916
  460HK4    C3938630   3.560   9.309   2.004  0.0088 -0.1646 -0.0884
  460HK4    C4138631   3.615   9.218   2.096  0.1946 -0.2861 -0.3186
  460HK4    H2138632   3.718   9.233   2.132  0.8298 -0.7997 -1.8603
  460HK4    C4238633   3.538   9.113   2.146  0.3014 -0.4820 -0.5624
  460HK4    H2238634   3.578   9.040   2.218 -0.0356 -0.6116 -0.5066
  460HK4    C4338635   3.406   9.096   2.107 -0.0519  0.8358  0.0117
  460HK4    H2338636   3.356   9.000   2.120 -0.4595  1.1851  1.0621
  460HK4    C4438637   3.351   9.180   2.011 -0.0168 -0.1725 -0.9070
  460HK4    H2438638   3.244   9.177   1.985 -0.4370 -0.3359  0.8007
  460HK4    C4538639   3.433   9.276   1.953  0.1222 -0.0239 -0.4641
  460HK4    H2538640   3.389   9.327   1.866 -0.0062  1.7170  0.6027
  461HK4    H2838641   6.817   9.297   5.481  0.1078 -2.2537 -0.7839
  461HK4    C4838642   6.897   9.320   5.411  0.2334  0.3045  0.1262
  461HK4    C4738643   6.962   9.208   5.361  0.2867  0.2814  0.2424
  461HK4    H2738644   6.941   9.111   5.408 -3.1806  1.2163  0.7426
  461HK4    C4638645   7.077   9.217   5.283  0.3113 -0.2352  0.2174
  461HK4    H2638646   7.132   9.129   5.246  0.0242 -0.2087 -0.2921
  461HK4    C4038647   7.132   9.344   5.254 -0.5778 -0.0833 -0.8725
  461HK4    C5038648   7.059   9.454   5.303  0.2196  0.0088  0.1409
  461HK4    H3038649   7.059   9.547   5.244  0.5942  0.7766  1.3438
  461HK4    C4938650   6.947   9.447   5.385 -0.5548  0.4193 -0.8632
  461HK4    H2938651   6.922   9.533   5.448 -1.0179  0.5200 -1.1827
  461HK4     N238652   7.212   9.366   5.141  0.4091 -0.3392 -0.2320
  461HK4    C3038653   7.313   9.463   5.128  0.1692 -0.0379  0.1263
  461HK4    C2938654   7.384   9.535   5.223 -0.4301  0.3983  0.2415
  461HK4    H1538655   7.362   9.528   5.330  1.0413 -0.2140  0.5190
  461HK4    C2838656   7.486   9.626   5.196 -0.5616  0.3480 -0.4298
  461HK4    C2738657   7.519   9.638   5.060 -0.0577 -0.1616 -0.3576
  461HK4    H1438658   7.626   9.655   5.038  0.3930 -0.8521  1.2592
  461HK4    C3238659   7.444   9.580   4.958 -0.1054 -0.0449 -0.3871
  461HK4    H1638660   7.459   9.612   4.854 -1.0280 -1.0128 -0.8257
  461HK4    C3138661   7.346   9.488   4.989 -0.4685  0.4873  0.0625
  461HK4    C3438662   7.271   9.391   4.911 -0.4057  0.6070 -0.1420
  461HK4    C3338663   7.186   9.325   5.009 -0.2379  0.1993 -0.2731
  461HK4    C3538664   7.100   9.231   4.954  0.2500 -0.0768 -0.5714
  461HK4    H1738665   7.029   9.167   5.007 -1.6823  1.5966 -1.0751
  461HK4    C3638666   7.101   9.192   4.821 -0.0817 -0.4729 -0.4609
  461HK4    H1838667   7.040   9.107   4.788  1.3021 -1.4847 -0.4671
  461HK4    C3738668   7.197   9.248   4.738 -0.1305  0.1851 -0.0715
  461HK4    H1938669   7.194   9.221   4.632  0.2863 -0.0867 -0.0151
  461HK4    C3838670   7.281   9.351   4.779  0.0477 -0.0215  0.0788
  461HK4    H2038671   7.352   9.398   4.709  0.4768  0.8089  1.0600
  461HK4    C1438672   7.538   9.728   5.288  0.0401 -0.1098 -0.2524
  461HK4     C938673   7.558   9.860   5.246 -0.1182 -0.0491 -0.1435
  461HK4     C838674   7.670   9.938   5.283  0.2192 -0.6056  0.0099
  461HK4    C1138675   7.756   9.877   5.373  0.5626  0.0608  0.1416
  461HK4     H438676   7.852   9.927   5.392  0.3470  0.8623 -0.8529
  461HK4    C1238677   7.724   9.757   5.436 -0.4001  0.3102  0.1259
  461HK4     H538678   7.788   9.734   5.522  1.7856  1.3460 -1.1629
  461HK4    C1338679   7.617   9.679   5.394  0.1221 -0.1634 -0.3373
  461HK4     H638680   7.588   9.594   5.456 -1.7764  1.0696  0.5244
  461HK4     C738681   7.689  10.078   5.239 -0.3803 -0.4361  0.2951
  461HK4     O238682   7.785  10.143   5.278 -0.1667 -0.6594  0.1411
  461HK4     C438683   7.585  10.139   5.152  0.0772 -0.0373  0.0258
  461HK4     C338684   7.589  10.272   5.112  0.0307 -0.2105 -0.5630
  461HK4     H338685   7.675  10.339   5.131 -2.5394  3.2015 -0.5571
  461HK4     C238686   7.495  10.326   5.025  0.0574  0.3588 -0.2364
  461HK4     H238687   7.477  10.434   5.032  0.2210  0.3761 -0.0756
  461HK4     C138688   7.412  10.238   4.957  0.8090 -0.5132 -0.0372
  461HK4     H138689   7.328  10.284   4.903  0.3539 -0.9853  0.2741
  461HK4     C638690   7.411  10.099   4.982 -0.1658 -0.4993  0.0282
  461HK4     C538691   7.489  10.056   5.091 -0.0843  0.0332  0.1871
  461HK4    C1038692   7.458   9.927   5.159 -0.1989 -0.0771 -0.0698
  461HK4     O138693   7.343   9.893   5.188 -0.0438 -0.2171  0.3820
  461HK4    C1638694   7.384  10.020   4.862 -0.0706 -0.2594 -0.1508
  461HK4    C1538695   7.385  10.078   4.734  0.0504  0.1054  0.0167
  461HK4     H738696   7.465  10.151   4.716 -0.0372 -0.3968 -2.7129
  461HK4    C2038697   7.306  10.047   4.624 -0.0042  0.1534  0.0425
  461HK4     H938698   7.308  10.105   4.531 -0.3242 -1.5017 -1.0137
  461HK4    C1938699   7.210   9.949   4.644 -0.1419  0.2437 -0.1670
  461HK4    C1838700   7.207   9.877   4.770 -0.0925  0.4602 -0.0444
  461HK4    C1738701   7.298   9.911   4.870  0.3411 -0.5819 -0.0813
  461HK4     H838702   7.314   9.839   4.951  0.8500  0.7374  1.0229
  461HK4     N138703   7.108   9.778   4.772  0.5398 -0.1851 -0.2754
  461HK4    C2138704   7.046   9.784   4.645 -0.3914  1.0949  0.2306
  461HK4    C2238705   7.104   9.890   4.565  0.0681  0.2979 -0.4901
  461HK4    C2638706   7.049   9.925   4.442 -0.1609  0.4059 -0.3577
  461HK4    H1338707   7.104   9.997   4.383  3.6311 -0.4408  1.9905
  461HK4    C2538708   6.938   9.853   4.397 -0.2618  0.2324  0.1685
  461HK4    H1238709   6.886   9.883   4.306 -0.2530 -0.5147 -0.0836
  461HK4    C2438710   6.881   9.753   4.475  0.2039 -0.0758  0.1165
  461HK4    H1138711   6.796   9.696   4.437  1.5435 -2.4318  0.5853
  461HK4    C2338712   6.934   9.716   4.598  0.1511  0.2003  0.2230
  461HK4    H1038713   6.894   9.629   4.650  0.1744  0.7566  1.1992
  461HK4    C3938714   7.041   9.730   4.885  0.8574  0.0159 -0.0037
  461HK4    C4138715   6.981   9.602   4.887  0.1241  0.3517 -0.4166
  461HK4    H2138716   7.027   9.525   4.824 -0.1060  0.8841 -1.2370
  461HK4    C4238717   6.895   9.553   4.985  0.4084  0.1466 -0.2694
  461HK4    H2238718   6.840   9.460   4.968  0.5439 -0.2065  1.1907
  461HK4    C4338719   6.873   9.639   5.092  0.0949 -0.5851  0.2559
  461HK4    H2338720   6.816   9.607   5.179  0.0690  1.8594  1.1876
  461HK4    C4438721   6.924   9.768   5.093  0.0699 -0.5699 -0.1369
  461HK4    H2438722   6.882   9.844   5.161  0.8090 -0.4561  0.2024
  461HK4    C4538723   7.013   9.813   4.996 -0.8450  0.2494 -0.6008
  461HK4    H2538724   7.080   9.897   5.021 -2.2710  0.7496  1.7104
  462HK4    H2838725   5.948   1.113   3.951 -1.1149 -1.0604  2.4505
  462HK4    C4838726   5.867   1.072   3.891  0.0617  0.1805 -0.0683
  462HK4    C4738727   5.856   1.094   3.754  0.4223 -0.1549 -0.1544
  462HK4    H2738728   5.941   1.146   3.708  0.1107  0.7718  0.2840
  462HK4    C4638729   5.740   1.071   3.681 -0.0987  0.9258  0.3150
  462HK4    H2638730   5.735   1.096   3.574  1.7427 -1.1464 -0.2783
  462HK4    C4038731   5.629   1.015   3.749  0.2352 -0.2402 -0.0885
  462HK4    C5038732   5.641   0.990   3.888 -0.0888  0.3556  0.0484
  462HK4    H3038733   5.540   0.974   3.930 -1.8527  2.0147 -3.3025
  462HK4    C4938734   5.755   1.024   3.958 -0.2140  0.8979 -0.0054
  462HK4    H2938735   5.750   1.041   4.067 -0.1274  0.7920  0.0164
  462HK4     N238736   5.503   1.005   3.690  0.1131  0.3009  0.0788
  462HK4    C3038737   5.447   1.086   3.589 -0.4273  0.3225  0.3913
  462HK4    C2938738   5.480   1.218   3.561 -0.1455  0.2862  0.5538
  462HK4    H1538739   5.582   1.256   3.551  0.2946 -0.7428  1.0346
  462HK4    C2838740   5.387   1.310   3.514  0.0723  0.0144 -0.4158
  462HK4    C2738741   5.256   1.264   3.490 -0.0682 -0.1048  0.5635
  462HK4    H1438742   5.174   1.336   3.474  0.2874  0.1675 -0.0668
  462HK4    C3238743   5.220   1.131   3.508  0.1570 -0.2746 -0.2169
  462HK4    H1638744   5.126   1.093   3.468  0.3866  0.2294 -1.2314
  462HK4    C3138745   5.314   1.039   3.555 -0.1227 -0.3772  0.1402
  462HK4    C3438746   5.298   0.915   3.627 -0.1807 -0.2306  0.3824
  462HK4    C3338747   5.417   0.895   3.708  0.4076 -0.0110 -0.4201
  462HK4    C3538748   5.428   0.775   3.778 -0.2202 -0.0350 -0.3544
  462HK4    H1738749   5.529   0.741   3.804  0.2701  0.5101 -1.4877
  462HK4    C3638750   5.330   0.678   3.767 -0.2408 -0.1661  0.9331
  462HK4    H1838751   5.329   0.601   3.846  0.5020 -0.2996  0.8130
  462HK4    C3738752   5.218   0.697   3.687  0.6766 -0.4979 -0.4370
  462HK4    H1938753   5.142   0.618   3.691  1.1558 -0.9275  0.1827
  462HK4    C3838754   5.200   0.817   3.619  0.2353 -0.5799 -0.4669
  462HK4    H2038755   5.107   0.852   3.575  0.8433 -0.1414 -1.4039
  462HK4    C1438756   5.422   1.452   3.532  0.2902 -0.0760 -0.1126
  462HK4     C938757   5.329   1.538   3.592  0.1719 -0.1916 -0.1277
  462HK4     C838758   5.310   1.670   3.548 -0.2780 -0.4020 -0.5776
  462HK4    C1138759   5.399   1.718   3.452 -0.4701  0.2238 -0.4457
  462HK4     H438760   5.377   1.810   3.396  2.2707  1.5932  0.5910
  462HK4    C1238761   5.502   1.639   3.403 -0.0033  0.7414 -0.3092
  462HK4     H538762   5.591   1.688   3.359 -0.1091  2.9942  1.8798
  462HK4    C1338763   5.514   1.506   3.440  0.1014  0.9124  0.2762
  462HK4     H638764   5.588   1.447   3.384 -0.1479  0.5361  0.3378
  462HK4     C738765   5.204   1.763   3.592  0.7154  0.5636 -0.1978
  462HK4     O238766   5.142   1.834   3.513  0.6416  0.0775 -0.5741
  462HK4     C438767   5.150   1.731   3.727 -0.0611 -0.2625 -0.6997
  462HK4     C338768   5.058   1.822   3.777  0.2083 -0.1838 -0.3480
  462HK4     H338769   5.065   1.927   3.744  0.7820 -0.1840 -0.2290
  462HK4     C238770   4.978   1.794   3.886 -0.0332  0.1733 -0.4323
  462HK4     H238771   4.902   1.861   3.929 -0.0698 -1.2944  1.9147
  462HK4     C138772   4.979   1.663   3.932 -0.2525  0.0632 -0.7359
  462HK4     H138773   4.917   1.640   4.020  2.1500 -1.3545  0.6452
  462HK4     C638774   5.066   1.565   3.880 -0.1741 -0.3804  0.2088
  462HK4     C538775   5.158   1.601   3.781 -0.0106  0.2691  0.5930
  462HK4    C1038776   5.259   1.510   3.720 -0.2165  0.5439 -0.1762
  462HK4     O138777   5.308   1.423   3.793  0.1669  1.0530  0.1807
  462HK4    C1638778   5.025   1.430   3.922 -0.4101 -0.3775 -0.0066
  462HK4    C1538779   5.024   1.328   3.825 -0.0946  0.2829 -0.7015
  462HK4     H738780   4.995   1.341   3.719  1.3953  0.8170 -1.0635
  462HK4    C2038781   5.051   1.196   3.857  0.2945  0.5139 -0.0586
  462HK4     H938782   5.047   1.120   3.778  0.7511 -0.1042  0.5137
  462HK4    C1938783   5.078   1.170   3.990  0.1368 -0.0786 -0.1373
  462HK4    C1838784   5.080   1.274   4.092  0.4168 -0.0484 -0.1733
  462HK4    C1738785   5.044   1.404   4.058  0.0679 -0.1029 -0.0196
  462HK4     H838786   5.045   1.484   4.132  1.4076  0.8357 -1.0144
  462HK4     N138787   5.135   1.231   4.214  0.1694 -0.1827 -0.1085
  462HK4    C2138788   5.189   1.104   4.186  0.5965  0.0289 -0.2366
  462HK4    C2238789   5.150   1.061   4.053  0.0877 -0.0663 -0.0573
  462HK4    C2638790   5.215   0.951   3.999  0.2382 -0.1009  0.1941
  462HK4    H1338791   5.169   0.908   3.909 -1.3235 -0.5161  1.1778
  462HK4    C2538792   5.313   0.881   4.068  0.2537  0.1904  0.4635
  462HK4    H1238793   5.361   0.794   4.024 -1.0605  1.7108 -4.2536
  462HK4    C2438794   5.344   0.923   4.198  0.5654 -0.1309  0.4948
  462HK4    H1138795   5.401   0.856   4.263 -1.7720 -0.4934  2.2632
  462HK4    C2338796   5.285   1.034   4.258  0.1030 -0.2100  0.1918
  462HK4    H1038797   5.299   1.051   4.364  2.1367  1.1320 -0.2568
  462HK4    C3938798   5.091   1.277   4.339  0.1540  0.4830 -0.3586
  462HK4    C4138799   5.169   1.252   4.453  0.4429  0.8308 -0.4776
  462HK4    H2138800   5.278   1.248   4.442  0.4672 -2.6044  0.4983
  462HK4    C4238801   5.115   1.248   4.581  0.3293 -0.0226 -0.5520
  462HK4    H2238802   5.180   1.238   4.669  0.8723 -0.8625 -1.0464
  462HK4    C4338803   4.977   1.261   4.591  0.4058  0.3427  0.1013
  462HK4    H2338804   4.922   1.222   4.676 -0.0855 -0.7592 -0.7071
  462HK4    C4438805   4.892   1.287   4.483  0.2883 -0.1083  0.0827
  462HK4    H2438806   4.783   1.293   4.495  0.5903  0.4053  3.0631
  462HK4    C4538807   4.952   1.296   4.358  0.2176  0.4934  0.0893
  462HK4    H2538808   4.893   1.318   4.269  2.5810  2.0877 -1.1345
  463HK4    H2838809  10.228   6.038  10.549  0.1021 -0.6490  2.5773
  463HK4    C4838810  10.307   6.107  10.580  0.5182  0.2759 -0.3710
  463HK4    C4738811  10.438   6.062  10.576  0.1545 -0.8099 -0.3369
  463HK4    H2738812  10.458   5.959  10.543 -0.4925 -1.5357  1.4947
  463HK4    C4638813  10.542   6.150  10.607 -0.5736  0.1343 -0.5302
  463HK4    H2638814  10.642   6.118  10.638 -1.6444  0.6790  3.8873
  463HK4    C4038815  10.519   6.286  10.633  0.0428  0.0692  0.3749
  463HK4    C5038816  10.385   6.329  10.629  0.2007  0.5182 -0.0718
  463HK4    H3038817  10.372   6.438  10.637  1.4173  0.6034  0.8180
  463HK4    C4938818  10.279   6.241  10.606  0.4704  0.2574 -0.3143
  463HK4    H2938819  10.176   6.271  10.629  0.3591  0.0369 -0.5203
  463HK4     N238820  10.615   6.387  10.617  0.2326 -0.2002 -0.1569
  463HK4    C3038821  10.724   6.367  10.530  0.5725 -0.6778  0.3715
  463HK4    C2938822  10.746   6.279  10.424 -0.0599 -0.1936 -0.1662
  463HK4    H1538823  10.656   6.227  10.393 -0.5193  0.5203 -0.0293
  463HK4    C2838824  10.858   6.280  10.341  0.1716 -0.3305  0.1401
  463HK4    C2738825  10.951   6.381  10.372  0.2127 -0.1902 -0.4448
  463HK4    H1438826  11.027   6.413  10.299  1.1305 -2.0759 -0.3237
  463HK4    C3238827  10.943   6.465  10.483 -0.7895 -0.3906 -0.3611
  463HK4    H1638828  11.027   6.530  10.508  0.1892 -1.7737  0.0260
  463HK4    C3138829  10.833   6.455  10.567  0.3642 -0.7408  1.1326
  463HK4    C3438830  10.793   6.531  10.684 -0.3638  0.5353  0.0661
  463HK4    C3338831  10.660   6.480  10.713  0.2773 -0.9074  0.5167
  463HK4    C3538832  10.587   6.527  10.821 -0.1656  0.3145 -0.3057
  463HK4    H1738833  10.483   6.496  10.838  0.3061 -0.4995  1.1608
  463HK4    C3638834  10.641   6.627  10.901  0.2759 -0.4872  0.3980
  463HK4    H1838835  10.584   6.664  10.987  0.0216  2.9339 -1.1707
  463HK4    C3738836  10.765   6.678  10.866 -0.0378  0.2536  0.3571
  463HK4    H1938837  10.801   6.767  10.918 -2.5729 -0.7611  4.0156
  463HK4    C3838838  10.846   6.633  10.762 -0.3157  0.5572  0.0044
  463HK4    H2038839  10.950   6.667  10.755 -0.1135 -0.3475 -1.4224
  463HK4    C1438840  10.890   6.160  10.262 -0.2494 -0.5193  0.2517
  463HK4     C938841  11.018   6.109  10.236 -0.1463 -0.2501  0.2177
  463HK4     C838842  11.047   6.038  10.118 -0.1942  0.2258 -0.0839
  463HK4    C1138843  10.936   6.014  10.037  0.2066  0.4784 -0.7132
  463HK4     H438844  10.952   5.943   9.955 -2.4636  0.4515 -1.2606
  463HK4    C1238845  10.805   6.050  10.066  0.1736 -0.2349  0.0258
  463HK4     H538846  10.732   5.997  10.004  1.5021 -1.8054 -0.2235
  463HK4    C1338847  10.780   6.120  10.183 -0.1330 -0.0189 -0.1687
  463HK4     H638848  10.680   6.163  10.198 -1.4159 -2.4486 -1.6587
  463HK4     C738849  11.186   6.023  10.068 -0.0899 -0.3939  0.3852
  463HK4     O238850  11.213   5.943   9.979  0.5002  0.5181 -0.2727
  463HK4     C438851   0.045   6.093  10.142 -0.0267 -0.0432 -0.0401
  463HK4     C338852   0.171   6.097  10.083  0.0114  0.3525  0.0667
  463HK4     H338853   0.201   6.033   9.999  0.1603 -1.3938  1.4247
  463HK4     C238854   0.274   6.168  10.145  0.1217  0.0188  0.2723
  463HK4     H238855   0.377   6.146  10.113 -0.5540 -0.7347 -1.4554
  463HK4     C138856   0.243   6.237  10.261  0.2596  0.6443 -0.0636
  463HK4     H138857   0.332   6.279  10.311 -1.3772  0.3283  3.2863
  463HK4     C638858   0.117   6.238  10.324  0.2890  0.2624  0.0028
  463HK4     C538859   0.020   6.156  10.265  0.3511  0.2803 -0.1253
  463HK4    C1038860  11.131   6.148  10.324  0.1593  0.5549 -0.5229
  463HK4     O138861  11.116   6.127  10.445  0.4254  0.4913 -0.4997
  463HK4    C1638862   0.089   6.352  10.413 -0.2770  0.0736  0.0695
  463HK4    C1538863   0.124   6.481  10.366  0.0521  0.0638  0.2867
  463HK4     H738864   0.154   6.498  10.262  0.0584 -0.1284  0.2550
  463HK4    C2038865   0.117   6.591  10.451 -0.0677  0.1816  0.1183
  463HK4     H938866   0.148   6.687  10.410 -0.8968  0.4975  0.2273
  463HK4    C1938867   0.090   6.574  10.586 -0.0584 -0.1137  0.0858
  463HK4    C1838868   0.049   6.443  10.634 -0.0396 -0.2819 -0.3509
  463HK4    C1738869   0.062   6.335  10.548 -0.0797 -0.5866  0.0252
  463HK4     H838870   0.070   6.232  10.583  1.8986  0.0024  1.3407
  463HK4     N138871   0.003   6.455  10.767  0.2046  0.1750 -0.3050
  463HK4    C2138872   0.012   6.591  10.802 -0.2740  0.1242  0.0022
  463HK4    C2238873   0.070   6.668  10.694  0.2718 -0.0999  0.1332
  463HK4    C2638874   0.078   6.806  10.708  0.5045 -0.1234  0.2517
  463HK4    H1338875   0.123   6.865  10.628  1.7817 -3.3789 -1.4849
  463HK4    C2538876   0.030   6.872  10.820  0.5534  0.1666  0.1020
  463HK4    H1238877   0.049   6.980  10.818  1.2995  0.0135 -1.4504
  463HK4    C2438878  11.214   6.802  10.922  0.7686 -0.2543 -0.0510
  463HK4    H1138879  11.185   6.847  11.018 -0.9510 -0.8133 -0.2841
  463HK4    C2338880  11.214   6.664  10.912  0.1229 -0.2939  0.4491
  463HK4    H1038881  11.161   6.611  10.992 -0.0711  2.2494  2.0625
  463HK4    C3938882  11.168   6.362  10.831  0.1086  0.6718  0.2960
  463HK4    C4138883  11.170   6.352  10.971  1.0249 -0.1880  0.2323
  463HK4    H2138884   0.009   6.393  11.024 -0.0756 -0.4535  2.3115
  463HK4    C4238885  11.074   6.275  11.037  0.0544  0.5463 -0.3010
  463HK4    H2238886  11.059   6.292  11.145 -0.1038  2.7239 -0.6415
  463HK4    C4338887  10.982   6.196  10.969  0.2732 -0.4671  0.5630
  463HK4    H2338888  10.916   6.125  11.019 -0.2765  0.1320  0.6947
  463HK4    C4438889  10.988   6.197  10.830  0.0592  0.2707  0.5589
  463HK4    H2438890  10.927   6.122  10.779 -1.6010  1.3223  0.9602
  463HK4    C4538891  11.071   6.286  10.763  0.1243  0.3035  0.6814
  463HK4    H2538892  11.077   6.285  10.653 -1.4897  0.1282  0.5786
  464HK4    H2838893   8.514   3.778  10.812  0.8712 -1.0841  0.3828
  464HK4    C4838894   8.610   3.821  10.786  0.2488 -0.1019 -0.3086
  464HK4    C4738895   8.699   3.740  10.716  0.6067 -0.0806  0.1301
  464HK4    H2738896   8.667   3.646  10.670 -0.9461  0.9340 -0.8873
  464HK4    C4638897   8.831   3.779  10.695  0.4704  0.2389 -0.1369
  464HK4    H2638898   8.894   3.736  10.616 -2.7012 -2.1867 -1.4456
  464HK4    C4038899   8.879   3.901  10.747 -0.0650  0.4851 -0.2273
  464HK4    C5038900   8.791   3.981  10.824 -0.1070  0.2172  0.0027
  464HK4    H3038901   8.836   4.065  10.878 -0.4586  1.7626 -2.0591
  464HK4    C4938902   8.658   3.941  10.837  0.0058 -0.1476  0.0273
  464HK4    H2938903   8.592   4.001  10.901  1.5534  0.4070  1.1409
  464HK4     N238904   9.016   3.920  10.767  0.0512 -0.1487 -0.4118
  464HK4    C3038905   9.124   3.829  10.765 -0.0806 -0.3077 -0.1719
  464HK4    C2938906   9.121   3.695  10.801  0.0151 -0.1436  0.4609
  464HK4    H1538907   9.024   3.649  10.822  0.0117 -0.2549  0.2124
  464HK4    C2838908   9.232   3.612  10.815 -0.0128 -0.2697 -0.0697
  464HK4    C2738909   9.353   3.678  10.783  0.0225 -0.3919 -0.1950
  464HK4    H1438910   9.436   3.609  10.805 -0.7644 -0.8917  1.2286
  464HK4    C3238911   9.368   3.814  10.756 -0.0898 -0.2930  0.2317
  464HK4    H1638912   9.466   3.859  10.748 -1.0445  1.4718 -1.8755
  464HK4    C3138913   9.253   3.892  10.748 -0.0517 -0.2300  0.3098
  464HK4    C3438914   9.224   4.033  10.727 -0.1545 -0.3240 -0.1890
  464HK4    C3338915   9.080   4.042  10.736 -0.1907 -0.1363 -0.8718
  464HK4    C3538916   9.026   4.167  10.707  0.2304  0.0737 -0.7555
  464HK4    H1738917   8.922   4.190  10.729  0.7041 -0.6205  2.5320
  464HK4    C3638918   9.102   4.268  10.651 -0.0099  0.1420 -0.9483
  464HK4    H1838919   9.057   4.361  10.612 -1.5033 -0.1712 -0.0197
  464HK4    C3738920   9.240   4.256  10.644  0.0528 -0.1115  0.6371
  464HK4    H1938921   9.288   4.331  10.581  0.4902 -1.4019 -0.5741
  464HK4    C3838922   9.303   4.139  10.683  0.0147 -0.2213  0.3729
  464HK4    H2038923   9.396   4.107  10.636 -0.6430  0.6278 -1.5318
  464HK4    C1438924   9.205   3.490  10.892  0.3330 -0.2325  0.1132
  464HK4     C938925   9.297   3.444  10.987  0.4040 -0.0953  0.1107
  464HK4     C838926   9.320   3.306  11.005  0.0538 -0.2066 -0.2848
  464HK4    C1138927   9.241   3.216  10.933 -0.5369  0.1469 -0.0842
  464HK4     H438928   9.272   3.113  10.909 -1.3108  0.8566 -4.7186
  464HK4    C1238929   9.140   3.261  10.849 -0.6659 -0.3220 -0.1805
  464HK4     H538930   9.076   3.184  10.803  0.0424 -0.4909 -0.9065
  464HK4    C1338931   9.120   3.397  10.829  0.4525 -0.1522 -0.1631
  464HK4     H638932   9.031   3.423  10.770  1.5113 -1.2909 -2.3283
  464HK4     C738933   9.419   3.259  11.104 -0.1994 -0.6017 -0.2142
  464HK4     O238934   9.465   3.146  11.089  0.5926 -0.3948  0.5811
  464HK4     C438935   9.477   3.361  11.195 -0.3929 -0.4255 -0.2922
  464HK4     C338936   9.573   3.324   0.040 -0.4444  0.0865 -0.0310
  464HK4     H338937   9.641   3.245   0.007  0.7729  1.3329 -0.5493
  464HK4     C238938   9.593   3.403   0.152 -0.4405  0.7036 -0.4641
  464HK4     H238939   9.680   3.375   0.214  0.0175  2.2968 -0.3497
  464HK4     C138940   9.531   3.525   0.175 -0.4101  0.5400  0.5113
  464HK4     H138941   9.561   3.579   0.266 -0.3899 -1.7155  1.8759
  464HK4     C638942   9.429   3.564   0.085  0.2684  0.3483 -0.3464
  464HK4     C538943   9.413   3.484  11.219  0.1718 -0.1982  0.0449
  464HK4    C1038944   9.341   3.533  11.098  0.4283  0.0465 -0.0135
  464HK4     O138945   9.331   3.654  11.078 -0.3197 -0.0735 -0.3782
  464HK4    C1638946   9.342   3.677   0.121  0.0524 -0.1246  0.6361
  464HK4    C1538947   9.386   3.777   0.210  0.1831  0.6771 -0.3268
  464HK4     H738948   9.494   3.798   0.220  0.1460  0.4474  0.5522
  464HK4    C2038949   9.297   3.842   0.295 -0.1465  0.4896 -0.5296
  464HK4     H938950   9.332   3.900   0.380 -0.4256 -1.8464  1.2432
  464HK4    C1938951   9.160   3.820   0.289 -0.0797  0.0346 -0.4339
  464HK4    C1838952   9.115   3.721   0.193 -0.0647 -0.2265 -0.1740
  464HK4    C1738953   9.206   3.651   0.115  0.0762 -0.0677 -0.1516
  464HK4     H838954   9.171   3.567   0.055 -0.3052  0.2192 -0.3330
  464HK4     N138955   8.974   3.720   0.196 -0.0569 -0.6920  0.0543
  464HK4    C2138956   8.930   3.803   0.302  0.0043 -0.0302 -0.4379
  464HK4    C2238957   9.045   3.868   0.363 -0.0104 -0.3448 -0.0752
  464HK4    C2638958   9.026   3.941   0.479 -0.1051 -0.1734 -0.1986
  464HK4    H1338959   9.100   4.018   0.504 -0.0415  0.1512 -1.3545
  464HK4    C2538960   8.903   3.935   0.544 -0.2657 -0.0234 -0.4848
  464HK4    H1238961   8.891   3.973   0.645  0.3567 -0.3059 -0.3031
  464HK4    C2438962   8.797   3.863   0.490 -0.1924 -0.1676 -0.4375
  464HK4    H1138963   8.701   3.858   0.544  0.2113  0.7180  0.3998
  464HK4    C2338964   8.809   3.796   0.369  0.1258 -0.4420 -0.2547
  464HK4    H1038965   8.719   3.750   0.329  0.2781  0.3566 -1.5636
  464HK4    C3938966   8.899   3.686   0.084 -0.0214  0.4550 -0.3235
  464HK4    C4138967   8.772   3.625   0.089  0.2357 -0.0090  0.6583
  464HK4    H2138968   8.732   3.585   0.183 -1.1970  0.5976  0.3388
  464HK4    C4238969   8.682   3.613  11.231  0.8579 -0.1875  0.1431
  464HK4    H2238970   8.589   3.554  11.235  0.4446  0.5258  1.7140
  464HK4    C4338971   8.726   3.665  11.110  0.1032 -0.6856 -0.3484
  464HK4    H2338972   8.657   3.658  11.026  0.3992 -2.3391 -0.4774
  464HK4    C4438973   8.854   3.717  11.093 -0.4324  0.6587 -0.3257
  464HK4    H2438974   8.899   3.729  10.993  0.1747 -0.1436 -0.1488
  464HK4    C4538975   8.936   3.732  11.204  0.3027 -0.7335 -0.6666
  464HK4    H2538976   9.001   3.820  11.195  1.6247 -1.4678  1.4250
  465HK4    H2838977   3.559   5.019   8.710 -1.8983  1.2566  0.0489
  465HK4    C4838978   3.592   5.089   8.633  1.0180 -0.3216 -0.1905
  465HK4    C4738979   3.674   5.197   8.662  0.3493  0.0944  0.1758
  465HK4    H2738980   3.731   5.202   8.756  1.5064 -0.7504 -0.4578
  465HK4    C4638981   3.711   5.284   8.560  0.8902 -0.5261 -0.1662
  465HK4    H2638982   3.785   5.359   8.590 -0.9246  0.8839  0.9185
  465HK4    C4038983   3.667   5.269   8.427  0.0940  0.1299  0.0187
  465HK4    C5038984   3.586   5.157   8.404  0.4756  0.0204 -0.7997
  465HK4    H3038985   3.577   5.129   8.298 -0.5924  1.4879 -1.1029
  465HK4    C4938986   3.551   5.065   8.503  0.3659  0.7279 -0.1843
  465HK4    H2938987   3.515   4.964   8.477  1.7769  0.0758  0.3938
  465HK4     N238988   3.667   5.377   8.337  0.4233  0.1123 -0.0034
  465HK4    C3038989   3.688   5.510   8.379  0.5080 -0.0300  0.4071
  465HK4    C2938990   3.640   5.568   8.496  0.0473  0.1476  0.1349
  465HK4    H1538991   3.588   5.504   8.566 -1.4006 -0.0996 -1.1462
  465HK4    C2838992   3.661   5.702   8.525 -0.3294  0.3699 -0.5935
  465HK4    C2738993   3.741   5.774   8.434  0.7508 -0.0458  0.0199
  465HK4    H1438994   3.810   5.848   8.478 -0.1255  0.9240 -0.2264
  465HK4    C3238995   3.781   5.723   8.311 -0.5332 -0.2291 -0.3249
  465HK4    H1638996   3.837   5.791   8.247  0.4982  1.9407  2.7243
  465HK4    C3138997   3.754   5.591   8.278 -0.0185 -0.3629 -0.2057
  465HK4    C3438998   3.773   5.503   8.164  0.4092 -0.3661 -0.1354
  465HK4    C3338999   3.717   5.376   8.205  0.0243 -0.2062 -0.1552
  465HK4    C3539000   3.694   5.277   8.111  0.1636 -0.3596 -0.0248
  465HK4    H1739001   3.674   5.175   8.145  0.6198 -0.4254  0.0599
  465HK4    C3639002   3.722   5.300   7.977 -1.0484 -0.2133 -0.2619
  465HK4    H1839003   3.715   5.220   7.902 -1.2525  0.2328 -0.7150
  465HK4    C3739004   3.783   5.418   7.938 -0.1219 -0.3792  0.6638
  465HK4    H1939005   3.803   5.436   7.833  2.2533 -2.0905  0.7741
  465HK4    C3839006   3.808   5.520   8.030  0.3882  0.1708 -0.0745
  465HK4    H2039007   3.837   5.617   7.990  1.3932  0.1485  0.5937
  465HK4    C1439008   3.608   5.768   8.646  0.1892 -0.0537 -0.1274
  465HK4     C939009   3.629   5.901   8.683 -0.9828  0.1704 -0.2556
  465HK4     C839010   3.617   5.932   8.820 -0.3370  0.1876 -0.2031
  465HK4    C1139011   3.565   5.843   8.914 -0.4171 -0.0199 -0.4461
  465HK4     H439012   3.576   5.866   9.021 -0.4500  0.6730 -0.5840
  465HK4    C1239013   3.522   5.718   8.872 -0.3573  0.0720 -0.7753
  465HK4     H539014   3.457   5.663   8.942 -0.9670  0.9768 -0.6287
  465HK4    C1339015   3.545   5.682   8.739  0.1658 -0.4870 -0.5398
  465HK4     H639016   3.468   5.617   8.698  0.4147 -0.5328 -0.9356
  465HK4     C739017   3.684   6.056   8.865 -0.2943  0.2830 -0.5344
  465HK4     O239018   3.702   6.079   8.985 -0.2991  0.5933 -0.5911
  465HK4     C439019   3.754   6.142   8.767  0.1559  0.2498 -0.2464
  465HK4     C339020   3.840   6.243   8.806  0.1726  0.0167  0.3209
  465HK4     H339021   3.895   6.235   8.901 -0.5423 -0.0821  0.7364
  465HK4     C239022   3.874   6.349   8.722 -0.1595 -0.0373  0.1228
  465HK4     H239023   3.939   6.428   8.760  2.5935 -1.7468 -0.9135
  465HK4     C139024   3.823   6.344   8.592  0.2044 -0.1935 -0.0131
  465HK4     H139025   3.809   6.435   8.533  0.5809 -1.0232 -1.4219
  465HK4     C639026   3.759   6.231   8.538  0.0185 -0.0845 -0.0193
  465HK4     C539027   3.712   6.138   8.632 -0.5318  0.1732 -0.0370
  465HK4    C1039028   3.650   6.011   8.585 -0.4594  0.1757 -0.1382
  465HK4     O139029   3.549   6.029   8.517 -0.6169  0.2118  0.1003
  465HK4    C1639030   3.812   6.199   8.404  0.0204  0.0821 -0.0587
  465HK4    C1539031   3.943   6.221   8.357 -0.0340 -0.2831 -0.3812
  465HK4     H739032   4.021   6.233   8.434  2.1630 -0.1166 -2.5656
  465HK4    C2039033   3.977   6.232   8.222  0.6958 -0.2620 -0.1976
  465HK4     H939034   4.071   6.267   8.180  0.2972 -1.5987 -2.2604
  465HK4    C1939035   3.878   6.211   8.127  0.3070 -0.2276  0.1955
  465HK4    C1839036   3.742   6.195   8.173  0.0489 -0.1080 -0.5213
  465HK4    C1739037   3.713   6.183   8.309  0.4172 -0.1119 -0.4425
  465HK4     H839038   3.610   6.164   8.340 -0.6358  1.8041 -2.5722
  465HK4     N139039   3.650   6.236   8.074 -0.2771 -0.4020 -0.3418
  465HK4    C2139040   3.721   6.279   7.960  0.4383  0.6318  0.4853
  465HK4    C2239041   3.862   6.262   7.992  0.4126 -0.0273  0.2561
  465HK4    C2639042   3.960   6.298   7.901  0.3514 -0.0080  0.1997
  465HK4    H1339043   4.063   6.312   7.933  0.5065 -1.5646  0.4183
  465HK4    C2539044   3.921   6.350   7.778 -0.0748 -0.1735  0.2627
  465HK4    H1239045   3.998   6.359   7.700  0.5912  1.7495  1.1081
  465HK4    C2439046   3.786   6.362   7.746 -0.0165  0.2417  0.1763
  465HK4    H1139047   3.766   6.370   7.638  1.0218  0.6365  0.0031
  465HK4    C2339048   3.685   6.331   7.837  0.2117  0.8829  0.6556
  465HK4    H1039049   3.580   6.326   7.809  0.5050 -3.6180 -0.0523
  465HK4    C3939050   3.517   6.194   8.069 -0.5175  0.3150 -0.0476
  465HK4    C4139051   3.419   6.283   8.022 -0.0477  0.7296 -0.2483
  465HK4    H2139052   3.431   6.383   7.978 -1.2282 -0.1364 -2.6532
  465HK4    C4239053   3.289   6.232   8.011  0.4835 -0.7589  0.2400
  465HK4    H2239054   3.210   6.304   7.987  2.0602  0.3336 -1.8629
  465HK4    C4339055   3.250   6.099   8.022 -0.5174 -0.4952 -0.0724
  465HK4    H2339056   3.146   6.068   8.015 -0.3921 -0.9037 -0.1479
  465HK4    C4439057   3.354   6.014   8.058 -0.0079  0.0964 -0.1338
  465HK4    H2439058   3.334   5.906   8.061 -1.6742  0.4001  0.2943
  465HK4    C4539059   3.483   6.058   8.086  0.0269  0.1395 -0.3529
  465HK4    H2539060   3.545   6.004   8.159  1.7286  1.0917 -1.0726
  466HK4    H2839061   3.595  10.461   4.948  0.4164 -0.0068 -0.5368
  466HK4    C4839062   3.550  10.413   4.861  0.3189 -0.2761 -0.3367
  466HK4    C4739063   3.559  10.466   4.733  0.9309 -0.5825 -0.4192
  466HK4    H2739064   3.609  10.562   4.713  0.3122 -0.2058 -0.1734
  466HK4    C4639065   3.502  10.404   4.622  0.3312 -0.1871 -0.3313
  466HK4    H2639066   3.523  10.446   4.523  0.9775  2.7000  1.0019
  466HK4    C4039067   3.427  10.285   4.638 -0.1034  0.1288  0.0113
  466HK4    C5039068   3.422  10.233   4.769  0.3859 -0.3291 -0.1509
  466HK4    H3039069   3.382  10.132   4.785 -2.6302  0.6644 -1.2123
  466HK4    C4939070   3.486  10.291   4.878  0.0801 -0.1188 -0.0849
  466HK4    H2939071   3.513  10.231   4.967  2.5732  0.0387 -0.7022
  466HK4     N239072   3.427  10.186   4.539  0.3286  0.2830 -0.1400
  466HK4    C3039073   3.530  10.173   4.443  0.2211 -0.4232 -0.1559
  466HK4    C2939074   3.667  10.188   4.459  0.1438 -0.2250  0.3280
  466HK4    H1539075   3.701  10.236   4.551 -1.9585 -1.9778  2.0600
  466HK4    C2839076   3.761  10.137   4.370  0.0842 -0.2994  0.3065
  466HK4    C2739077   3.707  10.076   4.255 -0.0531  0.1502  0.1304
  466HK4    H1439078   3.775  10.016   4.192  0.8814  0.1145  1.1583
  466HK4    C3239079   3.572  10.063   4.228 -0.0645 -0.3342  0.4296
  466HK4    H1639080   3.535  10.020   4.135 -0.6688  0.0631  0.4800
  466HK4    C3139081   3.481  10.109   4.323 -0.4639  0.2399 -0.2274
  466HK4    C3439082   3.345  10.070   4.357  0.0867 -1.1242  0.4358
  466HK4    C3339083   3.312  10.124   4.487  0.6912 -0.9489  0.5174
  466HK4    C3539084   3.213  10.063   4.563 -0.1033  0.4381  0.6067
  466HK4    H1739085   3.214  10.074   4.672 -1.5607  1.2211  0.5511
  466HK4    C3639086   3.128   9.971   4.503  0.5033  0.5134 -0.3754
  466HK4    H1839087   3.041   9.934   4.560  1.9968 -2.7556 -0.1059
  466HK4    C3739088   3.152   9.929   4.373 -0.0181 -0.6444 -0.1024
  466HK4    H1939089   3.087   9.854   4.326  1.7931 -2.0674 -0.3950
  466HK4    C3839090   3.263   9.973   4.302 -0.4722 -0.1340 -0.4986
  466HK4    H2039091   3.304   9.906   4.226 -1.6739  0.3243 -1.5909
  466HK4    C1439092   3.903  10.164   4.398  0.1729 -0.2260 -0.1971
  466HK4     C939093   3.996  10.185   4.296 -0.3390 -0.5006 -0.7185
  466HK4     C839094   4.128  10.136   4.304 -0.1205  0.2419  0.1899
  466HK4    C1139095   4.171  10.088   4.427  0.0694 -0.1555 -0.0331
  466HK4     H439096   4.278  10.062   4.435 -0.0731 -1.5819 -2.4439
  466HK4    C1239097   4.084  10.067   4.534  0.3311  0.0354  0.2199
  466HK4     H539098   4.122  10.060   4.637 -0.6009  0.0945  0.5696
  466HK4    C1339099   3.951  10.104   4.516  0.3618 -0.0408 -0.1809
  466HK4     H639100   3.881  10.080   4.597  0.2936  1.8297  0.3391
  466HK4     C739101   4.208  10.121   4.181 -0.3114 -0.1796  0.1165
  466HK4     O239102   4.297  10.036   4.174 -0.3605 -0.2409  0.2424
  466HK4     C439103   4.163  10.188   4.057  0.2386  0.1412  0.0844
  466HK4     C339104   4.240  10.173   3.942  0.2588 -0.3020  0.1540
  466HK4     H339105   4.328  10.110   3.926  0.7811  0.7860 -1.3940
  466HK4     C239106   4.195  10.221   3.820  0.0934 -0.0064  0.3313
  466HK4     H239107   4.257  10.215   3.729 -1.2511 -0.6324 -0.5591
  466HK4     C139108   4.066  10.273   3.810 -0.2972 -1.0628 -0.0924
  466HK4     H139109   4.032  10.326   3.720 -0.9417 -1.2260  0.0529
  466HK4     C639110   3.978  10.275   3.920  0.1445  0.9312  0.2360
  466HK4     C539111   4.034  10.244   4.045 -0.3969 -1.3151 -0.0492
  466HK4    C1039112   3.959  10.259   4.172 -0.4025  0.2794 -0.2312
  466HK4     O139113   3.916  10.372   4.199 -0.1809  0.1986  0.4691
  466HK4    C1639114   3.843  10.226   3.890  0.5734 -0.1360  0.0213
  466HK4    C1539115   3.811  10.146   3.778  0.0720  0.0712  0.0175
  466HK4     H739116   3.890  10.108   3.713 -3.0235  0.1756 -4.0505
  466HK4    C2039117   3.687  10.095   3.741 -0.2227  0.6898  0.1431
  466HK4     H939118   3.670  10.026   3.659  0.3147  0.8811 -0.1286
  466HK4    C1939119   3.581  10.138   3.821 -0.6248  1.0478 -0.5753
  466HK4    C1839120   3.603  10.236   3.925  0.1830  0.7548 -0.4643
  466HK4    C1739121   3.732  10.281   3.952  0.4667 -0.3087 -0.0143
  466HK4     H839122   3.747  10.361   4.025  1.3099  1.1136 -1.7089
  466HK4     N139123   3.479  10.267   3.984  0.3771 -0.0611  0.3857
  466HK4    C2139124   3.379  10.194   3.916  0.0310  0.5881  0.1885
  466HK4    C2239125   3.440  10.104   3.821 -0.3899  0.0426  0.4344
  466HK4    C2639126   3.368  10.008   3.751 -0.1399  0.0698  0.1361
  466HK4    H1339127   3.412   9.943   3.676 -0.0399  4.1739 -3.5555
  466HK4    C2539128   3.235   9.992   3.787 -0.0273 -0.2931  0.3944
  466HK4    H1239129   3.171   9.924   3.730  1.2359 -1.4204  0.2934
  466HK4    C2439130   3.173  10.067   3.886  0.2007 -0.0657  0.3618
  466HK4    H1139131   3.075  10.038   3.926  1.1539 -1.5784  1.6827
  466HK4    C2339132   3.248  10.165   3.951  0.1844  0.0019  0.2819
  466HK4    H1039133   3.200  10.220   4.032 -1.6615  0.0276 -0.7875
  466HK4    C3939134   3.461  10.370   4.077  0.0896  0.0939  0.1624
  466HK4    C4139135   3.360  10.369   4.175  0.2162 -0.1453  0.2895
  466HK4    H2139136   3.301  10.277   4.192 -1.1526  0.2065 -2.3442
  466HK4    C4239137   3.319  10.480   4.248 -0.0626  0.0239 -0.1338
  466HK4    H2239138   3.228  10.493   4.309 -0.6077  1.2036 -1.1796
  466HK4    C4339139   3.390  10.597   4.221  0.4292 -0.0889  0.6480
  466HK4    H2339140   3.377  10.675   4.296  0.2904  0.8772 -0.3749
  466HK4    C4439141   3.493  10.605   4.129 -0.1887  0.2095 -0.0209
  466HK4    H2439142   3.555  10.696   4.118  1.6742 -1.1002 -0.5503
  466HK4    C4539143   3.525  10.494   4.052 -0.1119  0.1747  0.0610
  466HK4    H2539144   3.577  10.509   3.957 -1.6170 -0.4722 -0.8894
  467HK4    H2839145   8.076   9.499   6.034  2.4752 -1.6315 -0.3181
  467HK4    C4839146   8.056   9.509   5.927  0.5354 -0.0269  0.1672
  467HK4    C4739147   7.931   9.552   5.884  0.7308  0.0875 -0.2906
  467HK4    H2739148   7.871   9.608   5.958  4.0807  2.6133  0.6214
  467HK4    C4639149   7.896   9.546   5.749  0.0551  0.4288 -0.1344
  467HK4    H2639150   7.817   9.614   5.714 -1.6268 -0.7924  1.1918
  467HK4    C4039151   7.983   9.485   5.656  0.0170 -0.0359  0.1316
  467HK4    C5039152   8.107   9.438   5.703  0.0038 -0.5535 -0.3585
  467HK4    H3039153   8.182   9.401   5.630 -0.8583 -2.2667 -0.4019
  467HK4    C4939154   8.146   9.458   5.835 -0.1413 -0.2751 -0.3569
  467HK4    H2939155   8.252   9.460   5.862  0.2706 -0.8791 -1.8755
  467HK4     N239156   7.926   9.431   5.541 -0.0605  0.2252  0.0469
  467HK4    C3039157   7.797   9.379   5.518  0.0487 -0.0586  0.0696
  467HK4    C2939158   7.701   9.362   5.616  0.1315 -0.5000  0.0752
  467HK4    H1539159   7.739   9.343   5.716  0.0538  0.8429  0.3696
  467HK4    C2839160   7.568   9.347   5.578  0.1738  0.0557 -0.2967
  467HK4    C2739161   7.536   9.337   5.441 -0.2073  0.1158 -0.2115
  467HK4    H1439162   7.434   9.312   5.407 -0.1462 -0.8476  0.3058
  467HK4    C3239163   7.631   9.355   5.341  0.1375  0.2897  0.1488
  467HK4    H1639164   7.609   9.386   5.239 -1.8007  0.4011  0.5665
  467HK4    C3139165   7.764   9.376   5.377  0.3075 -0.5406  0.0152
  467HK4    C3439166   7.884   9.420   5.308 -0.0552  0.3607 -0.0457
  467HK4    C3339167   7.981   9.450   5.412 -0.1685  0.4436  0.0339
  467HK4    C3539168   8.095   9.517   5.371  0.1669  0.0969  0.3942
  467HK4    H1739169   8.155   9.572   5.443  0.0284  1.6224 -0.6215
  467HK4    C3639170   8.113   9.537   5.234 -0.5226  0.3530  0.3419
  467HK4    H1839171   8.214   9.565   5.200 -0.8793  1.2923  0.0525
  467HK4    C3739172   8.020   9.503   5.136 -0.0338 -0.5787  0.1937
  467HK4    H1939173   8.027   9.538   5.033 -1.5697 -0.4722  0.1198
  467HK4    C3839174   7.899   9.446   5.173 -0.3841 -0.0775 -0.1678
  467HK4    H2039175   7.816   9.429   5.104 -0.8905  1.6463  0.0170
  467HK4    C1439176   7.481   9.283   5.678  0.4895 -0.2158 -0.1967
  467HK4     C939177   7.373   9.200   5.647  0.0079  0.1560  0.4685
  467HK4     C839178   7.251   9.207   5.718 -0.2710  0.0686  0.0002
  467HK4    C1139179   7.247   9.286   5.832  0.3950  0.4515 -0.2326
  467HK4     H439180   7.146   9.294   5.875 -0.3573 -2.4085 -1.3699
  467HK4    C1239181   7.359   9.360   5.869  0.3899  0.5722 -0.4584
  467HK4     H539182   7.348   9.424   5.957  0.2415 -1.4161  1.0014
  467HK4    C1339183   7.479   9.357   5.798  0.4727 -0.0524 -0.2991
  467HK4     H639184   7.565   9.412   5.841 -1.1254  2.0371  0.3538
  467HK4     C739185   7.135   9.125   5.678 -0.1282 -0.1274 -0.0136
  467HK4     O239186   7.022   9.167   5.702  0.1611  1.0826 -0.6899
  467HK4     C439187   7.153   9.015   5.581 -0.0427 -0.3646  0.2747
  467HK4     C339188   7.049   8.924   5.563 -0.6431  0.5384 -0.8982
  467HK4     H339189   6.960   8.927   5.626  1.1353 -0.3588  1.7195
  467HK4     C239190   7.054   8.823   5.467 -0.1825  0.0356 -0.3537
  467HK4     H239191   6.979   8.743   5.459  1.3162 -1.5312  1.1373
  467HK4     C139192   7.163   8.825   5.381  0.2252 -0.1952  0.1599
  467HK4     H139193   7.168   8.744   5.307  0.3917  0.3478 -0.4243
  467HK4     C639194   7.264   8.923   5.390  0.0894 -0.0462  0.0542
  467HK4     C539195   7.270   9.006   5.503 -0.0815 -0.2297  0.2013
  467HK4    C1039196   7.385   9.087   5.551 -0.4666  0.2764  0.2698
  467HK4     O139197   7.494   9.030   5.554 -0.3118  0.5725  0.3633
  467HK4    C1639198   7.355   8.937   5.276 -0.1007  0.2806 -0.0558
  467HK4    C1539199   7.383   9.071   5.240 -0.1384  0.2578 -0.1782
  467HK4     H739200   7.336   9.147   5.304 -1.5575 -1.6729  1.1482
  467HK4    C2039201   7.452   9.096   5.122  0.5368  0.0074  0.1637
  467HK4     H939202   7.449   9.196   5.078  4.1475  0.2938  0.3890
  467HK4    C1939203   7.504   8.990   5.049 -0.0963 -0.2740  0.1165
  467HK4    C1839204   7.500   8.854   5.100 -0.5361 -0.1176  0.4866
  467HK4    C1739205   7.417   8.832   5.209 -0.7684 -0.3201  0.2703
  467HK4     H839206   7.402   8.732   5.249  0.4436 -0.4412  0.4147
  467HK4     N139207   7.526   8.761   4.997  0.5618  0.1444  0.5242
  467HK4    C2139208   7.541   8.834   4.878 -0.1573 -0.5202  0.0201
  467HK4    C2239209   7.536   8.976   4.908 -0.5801 -0.5346  0.0336
  467HK4    C2639210   7.527   9.071   4.807 -0.5656 -0.5727 -0.0025
  467HK4    H1339211   7.532   9.176   4.833  2.3759 -0.3279 -1.3872
  467HK4    C2539212   7.522   9.023   4.676  0.6143  0.2822 -0.3689
  467HK4    H1239213   7.510   9.096   4.596 -0.6066  0.5947  0.0887
  467HK4    C2439214   7.521   8.887   4.647 -0.5911  0.2625 -0.2616
  467HK4    H1139215   7.487   8.859   4.546 -1.1995 -0.7392  0.2085
  467HK4    C2339216   7.532   8.790   4.746 -0.1787  0.3121 -0.2600
  467HK4    H1039217   7.526   8.684   4.725 -1.3943  0.3636 -0.1849
  467HK4    C3939218   7.587   8.637   5.021  0.3531 -0.0762 -0.0547
  467HK4    C4139219   7.586   8.537   4.923  0.1030 -0.0572 -0.0720
  467HK4    H2139220   7.508   8.535   4.845  1.2624  0.2147 -1.2671
  467HK4    C4239221   7.647   8.415   4.950 -0.3423 -0.2084  0.2546
  467HK4    H2239222   7.639   8.334   4.876 -0.0810 -0.4999  0.5391
  467HK4    C4339223   7.711   8.387   5.070 -0.1864 -0.3483  0.1389
  467HK4    H2339224   7.778   8.301   5.072  1.5807  1.0151  1.0674
  467HK4    C4439225   7.707   8.487   5.166 -0.3469  0.1995 -0.4360
  467HK4    H2439226   7.757   8.460   5.261 -0.2810 -0.1668 -0.5754
  467HK4    C4539227   7.649   8.612   5.145 -0.3290  0.3476  0.3762
  467HK4    H2539228   7.685   8.700   5.201  0.0361  1.0340 -0.9269
  468HK4    H2839229   1.921   1.265   6.927 -0.5288  3.5529 -1.7904
  468HK4    C4839230   2.021   1.240   6.891 -0.3473  0.4409  0.6367
  468HK4    C4739231   2.100   1.144   6.953 -0.3456  0.1091  0.1181
  468HK4    H2739232   2.079   1.096   7.050  1.4017  0.6026  0.7518
  468HK4    C4639233   2.223   1.105   6.901 -0.5382 -0.1682 -0.1334
  468HK4    H2639234   2.276   1.026   6.957  2.4139  2.3475  0.7603
  468HK4    C4039235   2.275   1.161   6.782 -0.1782 -0.7867 -0.2697
  468HK4    C5039236   2.195   1.258   6.720  0.2666  0.2743  0.7959
  468HK4    H3039237   2.225   1.286   6.618  2.6441 -1.6767  0.9153
  468HK4    C4939238   2.075   1.299   6.778 -0.0456 -0.1580  0.4629
  468HK4    H2939239   2.033   1.397   6.749  0.5447 -0.5510 -1.7625
  468HK4     N239240   2.393   1.110   6.727  0.0716  0.1226 -0.5866
  468HK4    C3039241   2.450   0.989   6.773 -0.1005 -0.0513 -0.8313
  468HK4    C2939242   2.393   0.864   6.794 -0.1963  0.1078 -0.1463
  468HK4    H1539243   2.285   0.855   6.786 -0.5167  0.5675  2.9327
  468HK4    C2839244   2.466   0.749   6.826 -0.2553  0.1322  0.0725
  468HK4    C2739245   2.606   0.763   6.822 -0.2242 -0.1261  0.2348
  468HK4    H1439246   2.675   0.680   6.843 -1.8645 -1.1505  1.6607
  468HK4    C3239247   2.664   0.885   6.787 -0.6264 -0.0451 -0.1597
  468HK4    H1639248   2.771   0.884   6.764 -0.7939  2.4563 -1.1422
  468HK4    C3139249   2.594   1.004   6.774 -0.1387  0.2466 -0.1249
  468HK4    C3439250   2.629   1.137   6.728  0.3943  0.0085 -0.4157
  468HK4    C3339251   2.500   1.193   6.690  0.3124  0.0135 -0.1339
  468HK4    C3539252   2.508   1.295   6.595 -0.4525 -0.0396 -0.2527
  468HK4    H1739253   2.429   1.315   6.523 -1.2947  1.4139  1.0348
  468HK4    C3639254   2.626   1.354   6.554 -0.2133 -0.3048  0.0463
  468HK4    H1839255   2.629   1.430   6.474 -0.5624 -0.5483 -0.1965
  468HK4    C3739256   2.747   1.304   6.602 -0.1558 -0.4172 -0.2157
  468HK4    H1939257   2.842   1.354   6.586  0.2223 -0.2214  2.3814
  468HK4    C3839258   2.748   1.191   6.683  0.6329 -0.7846 -0.7376
  468HK4    H2039259   2.845   1.146   6.705  0.2837 -1.7446 -1.1314
  468HK4    C1439260   2.403   0.648   6.913 -0.0517 -0.1469 -0.1067
  468HK4     C939261   2.460   0.593   7.028  0.0304  0.1898  0.0149
  468HK4     C839262   2.424   0.462   7.066  0.0764  0.1377 -0.1209
  468HK4    C1139263   2.317   0.401   7.002  0.2730 -0.3376  0.0091
  468HK4     H439264   2.272   0.308   7.041  1.8168 -1.7545 -1.4528
  468HK4    C1239265   2.254   0.462   6.894 -0.0136 -0.0941  0.3144
  468HK4     H539266   2.198   0.405   6.819 -1.8999  2.0495  0.0533
  468HK4    C1339267   2.296   0.586   6.847 -0.4190  0.0420  0.3121
  468HK4     H639268   2.256   0.616   6.749 -0.4791 -1.7928 -0.2552
  468HK4     C739269   2.500   0.391   7.171  0.3667  0.1865 -0.2989
  468HK4     O239270   2.494   0.268   7.166  0.3166  0.1615  0.3714
  468HK4     C439271   2.594   0.477   7.246 -0.0428  0.1016  0.3187
  468HK4     C339272   2.681   0.414   7.335 -0.3053 -0.2547  0.3197
  468HK4     H339273   2.698   0.305   7.328  1.9898  0.0599  0.6236
  468HK4     C239274   2.751   0.480   7.435 -0.7318  0.5421  0.0940
  468HK4     H239275   2.819   0.423   7.500 -2.9981 -2.5738 -0.1588
  468HK4     C139276   2.725   0.617   7.439  0.2328  0.7272 -0.0470
  468HK4     H139277   2.793   0.674   7.504  0.2316 -0.2066  0.7933
  468HK4     C639278   2.626   0.685   7.367 -0.3338  0.3211  0.3432
  468HK4     C539279   2.571   0.616   7.258  0.2752  0.1734  0.1282
  468HK4    C1039280   2.525   0.679   7.132 -0.1077  0.0608  0.2094
  468HK4     O139281   2.582   0.784   7.103 -0.3799  0.2034  0.1951
  468HK4    C1639282   2.556   0.793   7.438  0.0430  0.4910  0.4572
  468HK4    C1539283   2.576   0.807   7.577  1.0841  0.1542  0.3424
  468HK4     H739284   2.584   0.716   7.638  0.6129 -0.0325  0.1236
  468HK4    C2039285   2.548   0.925   7.645 -0.0167 -0.0680  0.2823
  468HK4     H939286   2.583   0.949   7.745  2.7757 -1.1030 -0.4161
  468HK4    C1939287   2.489   1.032   7.577  0.1007  0.0028  0.2935
  468HK4    C1839288   2.466   1.021   7.435  0.4994  0.2287  0.2075
  468HK4    C1739289   2.496   0.900   7.373 -0.1866  0.1289  0.0713
  468HK4     H839290   2.436   0.876   7.285  0.9950  1.4343 -1.1189
  468HK4     N139291   2.407   1.137   7.380  0.5160  0.2061  0.1426
  468HK4    C2139292   2.393   1.224   7.491  0.3673  0.3495  0.0103
  468HK4    C2239293   2.435   1.161   7.614  0.2969  0.1842 -0.0485
  468HK4    C2639294   2.439   1.238   7.730 -0.0365  0.0073  0.0818
  468HK4    H1339295   2.463   1.182   7.821  0.0817  0.4041  0.2986
  468HK4    C2539296   2.409   1.374   7.732 -1.0832 -0.2225  0.1808
  468HK4    H1239297   2.434   1.437   7.817  0.9738 -1.8832  0.8441
  468HK4    C2439298   2.372   1.437   7.614  0.5439  0.0804 -0.1856
  468HK4    H1139299   2.361   1.546   7.614  1.7319  0.2134  1.4215
  468HK4    C2339300   2.360   1.359   7.499  0.1883  0.3280 -0.3209
  468HK4    H1039301   2.328   1.408   7.408  0.2759  0.9070 -0.0400
  468HK4    C3939302   2.425   1.171   7.246  0.0389  0.0810  0.0476
  468HK4    C4139303   2.342   1.264   7.180  0.1660  0.1533 -0.0115
  468HK4    H2139304   2.243   1.278   7.225 -0.0061 -1.8648  0.2893
  468HK4    C4239305   2.376   1.350   7.076 -0.4727 -0.3812 -0.6645
  468HK4    H2239306   2.304   1.423   7.036  1.4359  2.0371  0.2267
  468HK4    C4339307   2.496   1.316   7.015  0.2447 -0.0584  0.5484
  468HK4    H2339308   2.530   1.368   6.926  0.0393 -1.9888 -0.6932
  468HK4    C4439309   2.580   1.216   7.064 -0.0463 -0.5152  0.1197
  468HK4    H2439310   2.674   1.194   7.011  0.0329 -1.1081  0.5007
  468HK4    C4539311   2.551   1.152   7.184  0.4662  0.4934  0.7864
  468HK4    H2539312   2.626   1.085   7.227  0.7294  1.1119  1.2970
  469HK4    H2839313   1.965   6.229   1.044  0.4879 -1.0226 -0.6065
  469HK4    C4839314   1.881   6.168   1.012 -0.3687 -0.2075  0.0467
  469HK4    C4739315   1.748   6.210   1.011 -0.1932  0.3451 -0.4414
  469HK4    H2739316   1.723   6.314   1.036  0.9237  0.7356 -0.9301
  469HK4    C4639317   1.642   6.132   0.968  0.2327  0.2157 -1.2604
  469HK4    H2639318   1.543   6.180   0.963 -0.7286 -1.5896  0.0200
  469HK4    C4039319   1.659   6.005   0.909  0.0576 -0.3331 -0.1343
  469HK4    C5039320   1.795   5.967   0.904  0.1331 -0.1202  0.2584
  469HK4    H3039321   1.829   5.867   0.874  1.8603  0.1173  1.3662
  469HK4    C4939322   1.900   6.042   0.955  0.3425  0.2105 -0.6442
  469HK4    H2939323   2.001   6.003   0.938  0.4410  0.8452 -1.5709
  469HK4     N239324   1.564   5.934   0.834 -0.4263  0.1010  0.0663
  469HK4    C3039325   1.572   5.795   0.813 -0.1431  0.0972  0.1888
  469HK4    C2939326   1.594   5.689   0.901  0.0920 -0.0894 -0.0924
  469HK4    H1539327   1.654   5.716   0.988  0.6407 -0.0436 -0.4815
  469HK4    C2839328   1.547   5.560   0.885  0.2841 -0.1682 -0.0206
  469HK4    C2739329   1.463   5.539   0.774 -0.2549  0.0673  0.3415
  469HK4    H1439330   1.408   5.444   0.763  1.5529 -1.0579  0.7430
  469HK4    C3239331   1.451   5.635   0.674  0.1148 -0.0234  0.2061
  469HK4    H1639332   1.365   5.624   0.608 -0.4660  0.5741  0.8554
  469HK4    C3139333   1.502   5.763   0.690  0.0622  0.0124  0.0933
  469HK4    C3439334   1.445   5.885   0.637  0.1663 -0.1188 -0.3211
  469HK4    C3339335   1.475   5.985   0.738 -0.0024 -0.0044 -0.3854
  469HK4    C3539336   1.413   6.110   0.726  0.1837  0.1210 -0.0345
  469HK4    H1739337   1.420   6.183   0.807  0.3347  0.9745 -0.8136
  469HK4    C3639338   1.334   6.139   0.616 -0.1280  0.5138  0.2953
  469HK4    H1839339   1.285   6.238   0.620  0.4561  0.7479  3.6437
  469HK4    C3739340   1.310   6.042   0.520  0.3728  0.1654  0.5238
  469HK4    H1939341   1.244   6.069   0.438  0.1027  0.7504  0.9293
  469HK4    C3839342   1.364   5.914   0.528 -0.0061 -0.0387 -0.1724
  469HK4    H2039343   1.330   5.832   0.464 -1.8548  1.3413 -1.0127
  469HK4    C1439344   1.612   5.446   0.953  0.8250  0.0442 -0.1762
  469HK4     C939345   1.619   5.317   0.899 -0.1923 -0.1348  0.1111
  469HK4     C839346   1.627   5.207   0.987 -0.3296  0.2788  0.6476
  469HK4    C1139347   1.621   5.228   1.124  0.5433 -0.0096  0.7363
  469HK4     H439348   1.615   5.137   1.186 -2.4200 -1.2184 -1.2127
  469HK4    C1239349   1.622   5.355   1.182  0.2433  0.1707  0.3535
  469HK4     H539350   1.640   5.371   1.289  0.5569 -1.9861  0.6542
  469HK4    C1339351   1.619   5.462   1.093  0.2251 -0.2157 -0.1144
  469HK4     H639352   1.636   5.567   1.120 -0.2255 -0.3961  0.8656
  469HK4     C739353   1.661   5.070   0.943 -0.6924  0.3056  0.2791
  469HK4     O239354   1.654   4.970   1.014 -0.1099 -0.4232 -0.6714
  469HK4     C439355   1.697   5.054   0.800  0.2350  0.0742  0.5357
  469HK4     C339356   1.751   4.934   0.756  0.7023  0.4186  0.1670
  469HK4     H339357   1.773   4.851   0.825 -2.3713  1.0218  1.9694
  469HK4     C239358   1.747   4.895   0.622  0.2828  0.3994  0.1853
  469HK4     H239359   1.776   4.796   0.585  0.2860  0.1748  0.7955
  469HK4     C139360   1.684   4.983   0.534 -0.3364  0.3786  0.5975
  469HK4     H139361   1.667   4.945   0.432  1.6381 -0.2795  0.4894
  469HK4     C639362   1.619   5.100   0.578 -0.3789  0.4581  0.3263
  469HK4     C539363   1.640   5.145   0.708  0.1497 -0.0840  0.4325
  469HK4    C1039364   1.628   5.286   0.754 -0.1500  0.0027  0.0841
  469HK4     O139365   1.688   5.365   0.682  0.5574 -0.2062  0.4482
  469HK4    C1639366   1.542   5.177   0.479 -0.0352  0.1004 -0.2248
  469HK4    C1539367   1.434   5.256   0.523  0.2050  0.1661  0.2484
  469HK4     H739368   1.391   5.253   0.624  0.2803 -0.0907  0.2746
  469HK4    C2039369   1.384   5.349   0.433  0.2810  0.0112  0.0462
  469HK4     H939370   1.311   5.420   0.473  0.5748 -0.3717  1.2837
  469HK4    C1939371   1.427   5.347   0.301 -0.1248 -0.3574 -0.0827
  469HK4    C1839372   1.521   5.249   0.248  0.0968 -0.2597  0.1305
  469HK4    C1739373   1.585   5.175   0.347  0.2924 -0.4173 -0.1144
  469HK4     H839374   1.667   5.116   0.307 -0.9127 -0.8154 -2.0885
  469HK4     N139375   1.549   5.282   0.114  0.6444 -0.1613  0.2706
  469HK4    C2139376   1.478   5.399   0.080  0.7101 -0.1838  0.0551
  469HK4    C2239377   1.400   5.442   0.194 -0.1658 -0.6712 -0.3532
  469HK4    C2639378   1.310   5.547   0.188 -0.2342 -0.7262 -0.3124
  469HK4    H1339379   1.230   5.559   0.261  0.1248 -0.8314  0.0943
  469HK4    C2539380   1.311   5.623   0.071 -0.4039  0.0309  0.1781
  469HK4    H1239381   1.273   5.725   0.073  0.3980  0.3619 -1.1351
  469HK4    C2439382   1.384   5.586  11.207 -0.0915  0.6646  0.1729
  469HK4    H1139383   1.404   5.645  11.116 -1.2804 -0.1330 -0.6138
  469HK4    C2339384   1.460   5.469  11.209 -1.0581  0.0422  0.4508
  469HK4    H1039385   1.471   5.422  11.112  0.1936  2.0139 -0.3959
  469HK4    C3939386   1.589   5.184   0.023  0.0306 -0.1098 -0.0573
  469HK4    C4139387   1.582   5.049   0.063 -0.4055 -0.2085 -0.4655
  469HK4    H2139388   1.503   5.026   0.136 -0.9773  1.0017 -0.6850
  469HK4    C4239389   1.653   4.946   0.003  0.3641  0.2623 -0.3738
  469HK4    H2239390   1.647   4.841   0.035  0.0401 -0.5848 -3.0559
  469HK4    C4339391   1.728   4.970  11.137  0.6109  0.4090 -0.1800
  469HK4    H2339392   1.779   4.888  11.086  0.3730 -0.6724  1.3137
  469HK4    C4439393   1.735   5.103  11.097 -0.1551  0.5386  0.1080
  469HK4    H2439394   1.779   5.112  10.997  0.8664 -1.2487  0.3769
  469HK4    C4539395   1.669   5.210  11.157 -0.0466  0.6355  0.0525
  469HK4    H2539396   1.698   5.312  11.129  1.5322  0.4287  0.8370
  470HK4    H2839397  10.605   8.394   4.341 -0.4351 -0.4393 -0.0197
  470HK4    C4839398  10.602   8.429   4.444  0.1083  0.8651 -0.4427
  470HK4    C4739399  10.483   8.436   4.515  0.3408 -0.0489  0.0408
  470HK4    H2739400  10.394   8.386   4.473 -0.2679  1.3478 -0.3544
  470HK4    C4639401  10.479   8.479   4.647 -0.2191  0.0595 -0.0063
  470HK4    H2639402  10.395   8.445   4.709  0.2876 -1.4471 -0.1113
  470HK4    C4039403  10.598   8.520   4.712 -0.0528 -0.9721  0.3496
  470HK4    C5039404  10.717   8.520   4.636 -0.0642 -0.4934  0.3284
  470HK4    H3039405  10.810   8.568   4.666  0.5728 -0.5868 -1.4156
  470HK4    C4939406  10.720   8.468   4.507  0.1331 -0.3173  0.2640
  470HK4    H2939407  10.821   8.460   4.465  0.5772  0.1100  1.2440
  470HK4     N239408  10.592   8.572   4.841 -0.1332 -0.1986  0.0361
  470HK4    C3039409  10.486   8.640   4.905 -0.0217 -0.1233  0.1411
  470HK4    C2939410  10.413   8.745   4.849 -0.0833 -0.2489 -0.0160
  470HK4    H1539411  10.395   8.736   4.741  3.2299  1.2147 -0.7507
  470HK4    C2839412  10.331   8.831   4.921  0.2022 -0.1203  0.1553
  470HK4    C2739413  10.327   8.820   5.061  0.5284 -0.5156  0.1363
  470HK4    H1439414  10.269   8.890   5.123 -0.9197 -2.1731  0.6920
  470HK4    C3239415  10.401   8.720   5.123 -0.1303 -0.6338  0.7410
  470HK4    H1639416  10.420   8.727   5.230  0.6926  0.4575  0.5282
  470HK4    C3139417  10.486   8.638   5.049 -0.1112 -0.0802  0.1433
  470HK4    C3439418  10.613   8.573   5.077 -0.3769 -0.6205  0.0857
  470HK4    C3339419  10.675   8.541   4.950 -0.3587 -0.6023  0.0918
  470HK4    C3539420  10.809   8.502   4.953 -0.1985 -0.0815 -0.1836
  470HK4    H1739421  10.860   8.485   4.858 -0.8230 -0.1155 -0.5137
  470HK4    C3639422  10.882   8.499   5.071 -0.7122 -0.2161  0.1340
  470HK4    H1839423  10.983   8.456   5.066  0.2187  1.8941 -0.1063
  470HK4    C3739424  10.820   8.537   5.189 -0.4449  0.3751  0.0884
  470HK4    H1939425  10.884   8.544   5.278  1.7465  1.5895 -1.5465
  470HK4    C3839426  10.684   8.565   5.196 -0.4254  0.4507  0.1945
  470HK4    H2039427  10.651   8.610   5.290 -1.2533  2.2616 -0.9464
  470HK4    C1439428  10.250   8.934   4.856  0.4380  0.0416  0.1161
  470HK4     C939429  10.215   9.054   4.918  0.3935 -0.0070  0.1848
  470HK4     C839430  10.092   9.118   4.891  0.6005  0.1726 -0.3330
  470HK4    C1139431  10.015   9.071   4.785 -0.0393 -0.7088  0.5112
  470HK4     H439432   9.916   9.115   4.765  0.4334 -0.3856 -1.2162
  470HK4    C1239433  10.054   8.959   4.713 -0.4877 -0.5445  0.0096
  470HK4     H539434   9.997   8.924   4.625  0.8398  0.5085 -1.2981
  470HK4    C1339435  10.166   8.887   4.752  0.6002  0.9056 -0.4133
  470HK4     H639436  10.206   8.800   4.698 -4.3661 -0.8644 -1.4540
  470HK4     C739437  10.050   9.233   4.975  0.1490 -0.0159 -0.3010
  470HK4     O239438   9.940   9.286   4.958  0.1502  0.1218  0.1080
  470HK4     C439439  10.133   9.284   5.086  0.0417 -0.2446 -0.1160
  470HK4     C339440  10.087   9.394   5.159  0.5145 -0.0043 -0.1737
  470HK4     H339441   9.993   9.448   5.139 -0.7691 -2.0328  0.1853
  470HK4     C239442  10.167   9.444   5.260 -0.3161  0.4523  0.2608
  470HK4     H239443  10.160   9.549   5.291  1.5091  0.3735  0.9879
  470HK4     C139444  10.284   9.375   5.290 -0.4181  0.0470 -0.2618
  470HK4     H139445  10.355   9.428   5.356 -1.3256  0.1803  0.6149
  470HK4     C639446  10.329   9.258   5.225  0.3915  0.1288  0.1367
  470HK4     C539447  10.255   9.219   5.113 -0.1628 -0.3166  0.6553
  470HK4    C1039448  10.308   9.121   5.013 -0.0017 -0.5247  0.9439
  470HK4     O139449  10.427   9.118   4.982 -0.2909  0.5639 -0.2985
  470HK4    C1639450  10.382   9.155   5.315 -0.2331 -0.1124  0.2324
  470HK4    C1539451  10.343   9.154   5.450  0.1464  0.4779  0.3446
  470HK4     H739452  10.248   9.203   5.475 -0.0343 -0.6524  1.9684
  470HK4    C2039453  10.414   9.093   5.553 -0.5222 -0.5115  0.2222
  470HK4     H939454  10.369   9.100   5.652 -1.9141 -2.7257 -0.2207
  470HK4    C1939455  10.523   9.013   5.525  0.3236  0.4769  0.6421
  470HK4    C1839456  10.568   9.008   5.387 -0.0769 -0.4005  0.5363
  470HK4    C1739457  10.500   9.085   5.292 -0.2682 -0.3320  0.7290
  470HK4     H839458  10.554   9.113   5.202  1.4278 -2.6930  0.9549
  470HK4     N139459  10.669   8.912   5.372 -0.0786 -0.2841 -0.2321
  470HK4    C2139460  10.676   8.841   5.493  0.4165 -0.1583 -0.1869
  470HK4    C2239461  10.602   8.913   5.595  0.1137 -0.3411 -0.2785
  470HK4    C2639462  10.596   8.855   5.721  0.9099  0.3045  0.0553
  470HK4    H1339463  10.531   8.901   5.796  2.1317  0.4713  1.0298
  470HK4    C2539464  10.662   8.739   5.762 -0.1885 -0.2448  0.2853
  470HK4    H1239465  10.647   8.701   5.863 -2.1830 -0.3710 -0.0409
  470HK4    C2439466  10.738   8.676   5.664 -0.0992  0.4654 -0.1010
  470HK4    H1139467  10.799   8.588   5.689 -0.9504 -0.3286 -0.7720
  470HK4    C2339468  10.740   8.724   5.533  0.3480 -0.2597 -0.3586
  470HK4    H1039469  10.806   8.680   5.459  0.7009 -0.3824  0.0297
  470HK4    C3939470  10.761   8.909   5.266 -0.0841  0.2440 -0.2496
  470HK4    C4139471  10.889   8.852   5.284 -0.2999 -0.0795  0.2551
  470HK4    H2139472  10.928   8.859   5.387 -0.8239  2.1566  0.3454
  470HK4    C4239473  10.973   8.821   5.178 -0.4823 -0.3242  0.1837
  470HK4    H2239474  11.053   8.747   5.190  0.8335  1.3007  1.6457
  470HK4    C4339475  10.932   8.840   5.047 -0.2674 -0.2711  0.1234
  470HK4    H2339476  10.988   8.806   4.960  0.0493  1.6976 -0.4744
  470HK4    C4439477  10.806   8.897   5.025  0.1913  0.7382  0.0499
  470HK4    H2439478  10.781   8.910   4.919  1.9377  0.9122 -0.3553
  470HK4    C4539479  10.722   8.926   5.131 -0.3445  0.0836 -0.1937
  470HK4    H2539480  10.615   8.931   5.104 -0.5902 -1.4358  0.4304
  471HK4    H2839481   2.899   1.538   1.575 -0.9160  1.0370  0.5784
  471HK4    C4839482   2.840   1.453   1.539  0.3992  0.1968  0.3531
  471HK4    C4739483   2.704   1.468   1.514  0.4388 -0.4623 -0.2837
  471HK4    H2739484   2.661   1.570   1.518  0.7637 -0.2717 -1.7096
  471HK4    C4639485   2.625   1.364   1.467 -0.4229  0.0210  0.0750
  471HK4    H2639486   2.515   1.366   1.469 -0.4033  3.2362  0.6153
  471HK4    C4039487   2.680   1.239   1.431 -0.7555 -0.2167  0.3799
  471HK4    C5039488   2.818   1.226   1.459 -0.5571  0.7286 -0.1155
  471HK4    H3039489   2.848   1.122   1.478 -0.5143  0.5403 -1.1837
  471HK4    C4939490   2.896   1.330   1.510 -0.0120 -0.0756  0.7105
  471HK4    H2939491   2.996   1.301   1.544  0.0280 -0.2966  0.4123
  471HK4     N239492   2.630   1.161   1.327 -0.0172 -0.1010 -0.0650
  471HK4    C3039493   2.541   1.203   1.226 -0.0223  0.5735  0.2215
  471HK4    C2939494   2.523   1.333   1.180 -0.7713  0.4209  0.0837
  471HK4    H1539495   2.550   1.417   1.243  3.2945  0.5488 -1.6996
  471HK4    C2839496   2.492   1.369   1.049  0.3814 -0.2465 -0.3804
  471HK4    C2739497   2.463   1.267   0.955  0.3707 -0.1683 -0.4616
  471HK4    H1439498   2.454   1.294   0.849  0.7186  1.5427 -0.0715
  471HK4    C3239499   2.455   1.138   1.005  0.0226  0.1244  0.2550
  471HK4    H1639500   2.461   1.060   0.929  4.2777 -0.0018  0.5794
  471HK4    C3139501   2.497   1.101   1.132 -0.1759  0.4599  0.4167
  471HK4    C3439502   2.566   0.985   1.184 -0.1169  0.2869 -0.0480
  471HK4    C3339503   2.644   1.023   1.300 -0.4321 -0.2202  0.3338
  471HK4    C3539504   2.713   0.923   1.368  0.0586 -0.1420 -0.0459
  471HK4    H1739505   2.788   0.946   1.443  0.0480 -0.2829  0.0083
  471HK4    C3639506   2.700   0.790   1.330  0.8720 -0.4007  0.5624
  471HK4    H1839507   2.764   0.719   1.384  0.4053  1.1199  3.1595
  471HK4    C3739508   2.624   0.748   1.220  0.5986  0.3562  0.4602
  471HK4    H1939509   2.611   0.641   1.204 -0.1874  0.3900  0.8525
  471HK4    C3839510   2.564   0.850   1.148  0.3335  0.1587  0.4012
  471HK4    H2039511   2.490   0.807   1.081 -0.5802 -0.5495  1.8452
  471HK4    C1439512   2.487   1.507   1.000 -0.1283 -0.2204 -0.2576
  471HK4     C939513   2.414   1.564   0.895 -0.1699 -0.0597 -0.1422
  471HK4     C839514   2.451   1.686   0.834  0.3375 -0.0621  0.1581
  471HK4    C1139515   2.555   1.758   0.891  0.1586  0.2170  0.1326
  471HK4     H439516   2.593   1.849   0.842  1.1279  1.7171  3.5725
  471HK4    C1239517   2.617   1.715   1.007 -0.5056  0.0406  0.4217
  471HK4     H539518   2.704   1.774   1.041 -0.5396 -0.5030  1.4737
  471HK4    C1339519   2.588   1.588   1.055 -0.0282 -0.3314 -0.2796
  471HK4     H639520   2.674   1.551   1.113  0.4527  0.4133 -0.5044
  471HK4     C739521   2.380   1.738   0.715  0.3074 -0.5602 -0.0419
  471HK4     O239522   2.386   1.857   0.686  0.5784 -0.5361  0.1181
  471HK4     C439523   2.273   1.661   0.647 -0.0176  0.0958 -0.2789
  471HK4     C339524   2.217   1.708   0.529 -0.0284 -0.2684 -0.4218
  471HK4     H339525   2.215   1.817   0.510 -0.2703 -0.2601 -0.3487
  471HK4     C239526   2.134   1.625   0.455 -0.7732  0.2389 -0.1663
  471HK4     H239527   2.103   1.644   0.352 -0.6436  0.3621 -0.1831
  471HK4     C139528   2.106   1.499   0.508  0.3027 -0.0279 -0.2220
  471HK4     H139529   2.030   1.437   0.460 -2.1312  0.8063  2.4023
  471HK4     C639530   2.154   1.450   0.631 -0.1920  0.0253 -0.0097
  471HK4     C539531   2.239   1.535   0.702 -0.6102  0.3969  0.0522
  471HK4    C1039532   2.291   1.502   0.838 -0.0356 -0.1810 -0.3007
  471HK4     O139533   2.213   1.465   0.926 -0.0011  0.2400 -0.0884
  471HK4    C1639534   2.174   1.305   0.644  0.3287  0.0831 -0.1654
  471HK4    C1539535   2.212   1.239   0.525 -0.0913  0.3280 -0.4384
  471HK4     H739536   2.246   1.304   0.444  0.6633  2.7746  1.7564
  471HK4    C2039537   2.189   1.104   0.498  0.1566  0.1045  0.4246
  471HK4     H939538   2.217   1.057   0.403 -2.9275 -0.2291 -0.3895
  471HK4    C1939539   2.120   1.032   0.594 -0.5655  0.1168 -0.0807
  471HK4    C1839540   2.101   1.089   0.726  0.1254  0.1015  0.0274
  471HK4    C1739541   2.122   1.225   0.745  0.1709  0.1280 -0.2111
  471HK4     H839542   2.089   1.268   0.840  1.7894  1.3252 -0.1757
  471HK4     N139543   2.040   0.996   0.812 -0.3330  0.3635 -0.0120
  471HK4    C2139544   2.019   0.880   0.734  0.1177  0.1464  0.1888
  471HK4    C2239545   2.054   0.903   0.595  0.3517 -0.3579  0.1616
  471HK4    C2639546   2.038   0.798   0.505 -1.0993  0.1703 -0.2238
  471HK4    H1339547   2.058   0.827   0.402  1.7989 -0.1639  0.1752
  471HK4    C2539548   2.006   0.670   0.549  0.1688 -0.0027  0.2498
  471HK4    H1239549   2.008   0.595   0.470  1.8888  0.4769 -0.1836
  471HK4    C2439550   1.978   0.643   0.682 -0.2003  0.2586  0.2266
  471HK4    H1139551   1.963   0.540   0.718  1.8331 -0.3879 -0.7274
  471HK4    C2339552   1.987   0.750   0.771 -0.4124  0.2848  0.2175
  471HK4    H1039553   1.973   0.728   0.877 -1.4655 -0.4673 -0.0710
  471HK4    C3939554   2.039   0.996   0.952 -0.3349  0.0703 -0.0103
  471HK4    C4139555   1.932   0.937   1.022 -0.1451 -0.2231  0.0304
  471HK4    H2139556   1.834   0.949   0.974 -0.9703  1.3227  2.0255
  471HK4    C4239557   1.935   0.914   1.159 -0.3604  0.1284  0.0921
  471HK4    H2239558   1.852   0.864   1.210 -0.7364  1.4542  0.8117
  471HK4    C4339559   2.056   0.934   1.226 -0.0419 -0.5963 -0.2707
  471HK4    H2339560   2.068   0.878   1.319  2.4069 -0.2675 -0.3461
  471HK4    C4439561   2.165   0.988   1.158 -0.3024  0.1492 -0.0960
  471HK4    H2439562   2.260   1.007   1.210  0.8577 -1.8115 -1.4276
  471HK4    C4539563   2.156   1.025   1.025 -0.2243 -0.0248 -0.1502
  471HK4    H2539564   2.209   1.119   1.004  0.8713 -0.5800  0.0943
  472HK4    H2839565   7.386   6.559   8.380 -1.6374  1.6913 -0.4336
  472HK4    C4839566   7.300   6.493   8.394 -0.4176  0.2761  0.5139
  472HK4    C4739567   7.281   6.427   8.514  0.4397 -0.4885  0.2344
  472HK4    H2739568   7.345   6.443   8.602  2.4720 -0.8482 -1.1429
  472HK4    C4639569   7.175   6.337   8.521  0.4100 -0.4158  0.7856
  472HK4    H2639570   7.172   6.272   8.610  1.6410 -1.9066 -0.2112
  472HK4    C4039571   7.079   6.318   8.420  0.2587  0.0567  0.8397
  472HK4    C5039572   7.101   6.389   8.300 -0.7166  0.4344  0.8879
  472HK4    H3039573   7.021   6.399   8.225 -0.4097  1.1916  0.6554
  472HK4    C4939574   7.211   6.474   8.290 -0.5298  0.1601  0.6336
  472HK4    H2939575   7.228   6.527   8.195  0.1872  2.2836  1.9295
  472HK4     N239576   6.963   6.245   8.447  0.2357 -0.2786 -0.1394
  472HK4    C3039577   6.892   6.165   8.355 -0.5711  0.2081  0.0500
  472HK4    C2939578   6.908   6.134   8.220  0.1344  0.4702  0.0715
  472HK4    H1539579   7.008   6.144   8.177 -0.6610  2.1838 -1.4193
  472HK4    C2839580   6.814   6.063   8.148  0.3818  0.0781  0.1361
  472HK4    C2739581   6.703   6.013   8.218  0.4771 -0.0596  0.1862
  472HK4    H1439582   6.653   5.926   8.173  1.6781 -0.7598  0.1881
  472HK4    C3239583   6.685   6.031   8.355 -0.1292  0.0245  0.0991
  472HK4    H1639584   6.599   5.987   8.406 -0.9226 -0.2722 -1.4807
  472HK4    C3139585   6.781   6.104   8.425  0.0337 -0.4890  0.4157
  472HK4    C3439586   6.784   6.153   8.562  0.3966  0.2217  0.1562
  472HK4    C3339587   6.894   6.247   8.570  0.4709  0.1519 -0.0162
  472HK4    C3539588   6.911   6.326   8.683  0.5563 -0.6261  0.5178
  472HK4    H1739589   7.007   6.370   8.711  0.4975  0.1384 -0.4495
  472HK4    C3639590   6.805   6.328   8.772 -0.2332  0.1487 -0.4351
  472HK4    H1839591   6.819   6.393   8.860  3.2255 -1.3783  0.2065
  472HK4    C3739592   6.694   6.244   8.766  0.0649 -0.3148  0.5229
  472HK4    H1939593   6.612   6.264   8.835  1.5785  0.4589  2.1619
  472HK4    C3839594   6.687   6.152   8.662  0.1342  0.3799 -0.0941
  472HK4    H2039595   6.616   6.070   8.668  0.3558 -0.2328 -4.1150
  472HK4    C1439596   6.817   6.083   8.002 -0.1477 -0.0749  0.1008
  472HK4     C939597   6.710   6.097   7.912 -0.2430 -0.2693  0.1828
  472HK4     C839598   6.725   6.046   7.782  0.3279 -0.0904  0.1747
  472HK4    C1139599   6.845   5.989   7.743  0.5221  0.2350  0.2970
  472HK4     H439600   6.849   5.959   7.637 -2.1559  1.0207 -0.0527
  472HK4    C1239601   6.960   5.983   7.821  0.4857  0.7288  0.3936
  472HK4     H539602   7.054   5.944   7.778  0.2803 -0.5867  1.1141
  472HK4    C1339603   6.935   6.028   7.950  0.0557 -0.1252  0.6116
  472HK4     H639604   7.030   6.037   8.004 -0.6517 -0.0471  1.8558
  472HK4     C739605   6.619   6.072   7.681  0.1823 -0.8413  0.1321
  472HK4     O239606   6.642   6.045   7.563  0.5381  0.3382 -0.0793
  472HK4     C439607   6.492   6.137   7.719  0.5507  0.2184 -0.4241
  472HK4     C339608   6.396   6.175   7.627  0.0462 -0.2526 -0.0918
  472HK4     H339609   6.432   6.191   7.525 -0.0128  1.9540  0.2154
  472HK4     C239610   6.269   6.218   7.664  0.0166 -0.2743 -0.1674
  472HK4     H239611   6.190   6.244   7.592 -0.3972  1.6587  0.9517
  472HK4     C139612   6.239   6.220   7.800  0.2166 -0.4159 -0.1202
  472HK4     H139613   6.138   6.248   7.832  0.3708  0.9561 -0.7807
  472HK4     C639614   6.332   6.182   7.899  0.3883  0.0313 -0.1095
  472HK4     C539615   6.461   6.150   7.856  0.1922 -0.3032 -0.4548
  472HK4    C1039616   6.579   6.159   7.947 -0.1767 -0.0240 -0.0007
  472HK4     O139617   6.576   6.242   8.038 -0.2264 -0.1492  0.1132
  472HK4    C1639618   6.276   6.188   8.035  0.1917  0.5615 -0.2118
  472HK4    C1539619   6.335   6.097   8.125 -0.2485  0.6550  0.1726
  472HK4     H739620   6.369   6.000   8.086 -2.1040 -0.6968  1.8791
  472HK4    C2039621   6.341   6.132   8.259 -0.8207  0.1006  0.3479
  472HK4     H939622   6.400   6.068   8.326 -1.6461 -2.7527 -1.5668
  472HK4    C1939623   6.281   6.248   8.306  0.4497  0.7423  0.4114
  472HK4    C1839624   6.194   6.322   8.217 -0.0780 -0.1337  0.1970
  472HK4    C1739625   6.201   6.296   8.081 -0.2318  0.1213  0.1363
  472HK4     H839626   6.171   6.371   8.008  1.0807  0.8468  0.3214
  472HK4     N139627   6.141   6.438   8.278 -0.1007 -0.0301 -0.0251
  472HK4    C2139628   6.205   6.442   8.403 -0.1596  0.2824 -0.0071
  472HK4    C2239629   6.281   6.323   8.430 -0.3506  0.3139  0.6786
  472HK4    C2639630   6.362   6.319   8.544  0.0148  0.3115  0.4182
  472HK4    H1339631   6.439   6.243   8.539  0.0435  0.3697 -0.0738
  472HK4    C2539632   6.357   6.423   8.636  0.1051  0.0323  0.7383
  472HK4    H1239633   6.432   6.415   8.714  0.5350 -0.4247  0.2792
  472HK4    C2439634   6.278   6.536   8.616  0.7458  0.2488 -0.6447
  472HK4    H1139635   6.267   6.607   8.699  2.9293 -4.2928  3.7642
  472HK4    C2339636   6.207   6.545   8.497  0.1043  0.4955 -0.2477
  472HK4    H1039637   6.154   6.638   8.477 -1.7681 -0.1310  1.6829
  472HK4    C3939638   6.003   6.463   8.267 -0.0877 -0.1060 -0.3929
  472HK4    C4139639   5.918   6.365   8.214  0.1131 -0.4167 -0.1390
  472HK4    H2139640   5.941   6.258   8.230  0.9122 -0.2016  0.1747
  472HK4    C4239641   5.784   6.394   8.195  0.0639 -0.2532  0.4512
  472HK4    H2239642   5.716   6.307   8.189 -0.8446  0.2472  3.0258
  472HK4    C4339643   5.728   6.518   8.225  0.7405  0.1360  0.1162
  472HK4    H2339644   5.624   6.544   8.203 -0.0082 -2.7060  0.0404
  472HK4    C4439645   5.812   6.613   8.280 -0.0492  0.5566  0.5971
  472HK4    H2439646   5.773   6.710   8.315  3.1834  1.6209  1.4528
  472HK4    C4539647   5.949   6.592   8.286 -0.1255 -0.1650 -0.0835
  472HK4    H2539648   6.025   6.667   8.314  0.1624  0.0642 -1.4766
  473HK4    H2839649   7.881   5.048   0.614 -0.8286  0.2299 -0.1163
  473HK4    C4839650   7.856   5.144   0.660 -0.2919  0.2516  0.1362
  473HK4    C4739651   7.725   5.164   0.703 -0.3634 -0.2403  0.1469
  473HK4    H2739652   7.650   5.084   0.714 -2.1675  1.3161 -0.5492
  473HK4    C4639653   7.683   5.290   0.743 -0.2467 -0.0443 -0.3416
  473HK4    H2639654   7.579   5.296   0.777  0.3850  0.7034  1.5346
  473HK4    C4039655   7.769   5.401   0.731 -0.1546 -0.0382  0.3715
  473HK4    C5039656   7.897   5.380   0.677 -0.3774  0.0097 -0.1782
  473HK4    H3039657   7.971   5.459   0.654  0.5836 -0.7584  0.2329
  473HK4    C4939658   7.938   5.254   0.637  0.2012 -0.0320  0.5391
  473HK4    H2939659   8.034   5.233   0.587 -1.0960 -0.0685 -2.0078
  473HK4     N239660   7.722   5.533   0.736 -0.0596 -0.0047  0.3365
  473HK4    C3039661   7.586   5.569   0.732 -0.0792 -0.1116 -0.0027
  473HK4    C2939662   7.476   5.508   0.673 -0.1128  0.1946 -0.2564
  473HK4    H1539663   7.496   5.456   0.579  0.9423 -3.9376  2.1326
  473HK4    C2839664   7.341   5.536   0.695 -0.0433  0.1853  0.1881
  473HK4    C2739665   7.318   5.644   0.783 -0.4081  0.2058  0.0672
  473HK4    H1439666   7.214   5.676   0.798 -1.2032 -1.5416 -1.5895
  473HK4    C3239667   7.421   5.713   0.847 -0.0562 -0.3127  0.0618
  473HK4    H1639668   7.394   5.796   0.912 -0.8425 -1.2876  1.0106
  473HK4    C3139669   7.552   5.683   0.815  0.0144 -0.3656  0.3887
  473HK4    C3439670   7.682   5.737   0.849  0.0426 -0.2263  0.0630
  473HK4    C3339671   7.780   5.637   0.812  0.3167  0.0970 -0.0877
  473HK4    C3539672   7.896   5.631   0.888  0.2479 -0.3221 -0.0163
  473HK4    H1739673   7.969   5.551   0.874  0.8724  0.3480 -0.6145
  473HK4    C3639674   7.922   5.727   0.985  0.1404  0.2768 -0.5829
  473HK4    H1839675   8.004   5.715   1.057  0.0674 -0.9155 -0.6944
  473HK4    C3739676   7.835   5.834   1.006  0.0991  0.3116 -0.9323
  473HK4    H1939677   7.874   5.906   1.077  1.0522 -0.9181 -0.1911
  473HK4    C3839678   7.712   5.837   0.941 -0.3249  0.0764 -0.1478
  473HK4    H2039679   7.635   5.912   0.963 -0.4998  0.1057 -0.8327
  473HK4    C1439680   7.242   5.487   0.599 -0.1756 -0.2563  0.5489
  473HK4     C939681   7.136   5.560   0.545 -0.2026 -0.1036  0.8106
  473HK4     C839682   7.030   5.482   0.493 -0.3298  0.5042  0.1451
  473HK4    C1139683   7.038   5.343   0.495  0.4013  0.5420 -0.0348
  473HK4     H439684   6.963   5.287   0.437  1.1300 -1.7810  1.2253
  473HK4    C1239685   7.147   5.273   0.545 -0.1917 -0.4239 -0.0890
  473HK4     H539686   7.146   5.163   0.553 -2.0995 -0.4219 -0.2434
  473HK4    C1339687   7.255   5.346   0.594 -0.2666 -0.2402 -0.1963
  473HK4     H639688   7.349   5.293   0.615 -1.3912 -2.9037 -1.5950
  473HK4     C739689   6.926   5.545   0.409 -0.4876 -0.0532 -0.0783
  473HK4     O239690   6.827   5.483   0.371 -0.6135  0.1936 -0.1575
  473HK4     C439691   6.945   5.685   0.365  0.4054 -0.1369  0.0303
  473HK4     C339692   6.874   5.742   0.260  0.1862  0.0468  0.2787
  473HK4     H339693   6.812   5.677   0.196  0.3380 -0.5374  0.7161
  473HK4     C239694   6.880   5.876   0.226  0.1538 -0.0545 -0.1394
  473HK4     H239695   6.804   5.906   0.152 -1.8525 -1.6979  1.2038
  473HK4     C139696   6.953   5.955   0.315  0.5929 -0.7304  0.1027
  473HK4     H139697   6.961   6.062   0.290 -0.0321 -0.1420  2.3518
  473HK4     C639698   6.999   5.909   0.440  0.2787 -0.0952  0.4534
  473HK4     C539699   7.020   5.771   0.447  0.0740 -0.1333  0.3251
  473HK4    C1039700   7.130   5.707   0.525  0.0164 -0.1512  0.3939
  473HK4     O139701   7.237   5.767   0.532  0.0643 -0.1812 -0.0458
  473HK4    C1639702   6.958   5.992   0.554  0.4470  0.7168 -0.0669
  473HK4    C1539703   6.851   6.082   0.542 -0.5771 -0.4206  0.4275
  473HK4     H739704   6.786   6.072   0.454 -4.2512  2.2212  2.6703
  473HK4    C2039705   6.812   6.171   0.642 -0.5910  0.0522  0.0017
  473HK4     H939706   6.751   6.258   0.615 -1.4617 -1.2999 -2.5081
  473HK4    C1939707   6.890   6.179   0.756 -0.3624 -0.1733 -0.1394
  473HK4    C1839708   6.999   6.084   0.772 -0.2603  0.0660  0.6038
  473HK4    C1739709   7.034   5.996   0.671 -0.2014  0.3590  0.3695
  473HK4     H839710   7.128   5.943   0.681 -0.9493 -0.9840  0.4034
  473HK4     N139711   7.075   6.118   0.887  0.4883  0.2247  0.0635
  473HK4    C2139712   7.013   6.230   0.946  0.5240  0.3411 -0.1213
  473HK4    C2239713   6.892   6.265   0.873  0.5312  0.0184 -0.2903
  473HK4    C2639714   6.804   6.362   0.919  0.5850  0.0749 -0.3116
  473HK4    H1339715   6.727   6.395   0.849  2.0497  3.0487 -0.6304
  473HK4    C2539716   6.830   6.428   1.039 -0.0198  0.2042 -0.2488
  473HK4    H1239717   6.766   6.510   1.068  1.1980  0.7573  0.9049
  473HK4    C2439718   6.950   6.397   1.102 -0.4430 -0.7319  0.0978
  473HK4    H1139719   6.965   6.415   1.210  0.9252 -1.8076  0.1012
  473HK4    C2339720   7.043   6.303   1.060  0.2926 -0.0417  0.1850
  473HK4    H1039721   7.150   6.303   1.082  0.4770  0.6050 -0.6506
  473HK4    C3939722   7.164   6.029   0.949  0.0405 -0.3235 -0.0720
  473HK4    C4139723   7.282   6.080   1.007 -0.2788 -0.1199  0.3973
  473HK4    H2139724   7.331   6.169   0.967  1.2538 -1.6496 -1.2347
  473HK4    C4239725   7.360   6.014   1.102  0.2595  0.0458  0.0680
  473HK4    H2239726   7.449   6.064   1.143  0.0662 -0.3653  0.9916
  473HK4    C4339727   7.311   5.891   1.145  0.0027  0.0240 -0.2721
  473HK4    H2339728   7.366   5.846   1.228  1.4041  2.1563  0.0287
  473HK4    C4439729   7.193   5.839   1.096  0.0889 -0.2167 -0.2208
  473HK4    H2439730   7.164   5.735   1.118  0.7856 -0.2887  0.3541
  473HK4    C4539731   7.116   5.908   1.002 -0.2945 -0.0760  0.1950
  473HK4    H2539732   7.037   5.860   0.943 -1.2886 -0.9059  2.1718
  474HK4    H2839733   9.135   1.101   7.136 -1.8900 -0.8423 -0.5758
  474HK4    C4839734   9.197   1.018   7.101 -0.0910  0.0723  0.3668
  474HK4    C4739735   9.288   0.974   7.196  0.4026 -0.0235 -0.1549
  474HK4    H2739736   9.285   1.023   7.294  1.3819 -2.8256  1.3529
  474HK4    C4639737   9.374   0.870   7.162  0.6191  0.1243 -0.0606
  474HK4    H2639738   9.456   0.850   7.232 -0.5752  2.4498  2.0735
  474HK4    C4039739   9.368   0.804   7.037  0.1761  0.0614 -0.0094
  474HK4    C5039740   9.274   0.853   6.944 -0.2909 -0.4621  0.1874
  474HK4    H3039741   9.275   0.813   6.842  0.6156  1.6370 -0.6596
  474HK4    C4939742   9.187   0.956   6.976  0.3844  0.0643  0.3338
  474HK4    H2939743   9.112   0.993   6.905  0.2525  1.0892  0.9869
  474HK4     N239744   9.468   0.716   6.991  0.1887  0.2497 -0.3405
  474HK4    C3039745   9.601   0.722   7.036  0.2064  0.3364 -0.3971
  474HK4    C2939746   9.679   0.821   7.096 -0.0236  0.0566  0.3662
  474HK4    H1539747   9.633   0.919   7.112 -0.7586 -0.3368  0.6869
  474HK4    C2839748   9.812   0.812   7.133  0.0639  0.4505  0.1441
  474HK4    C2739749   9.858   0.679   7.125  0.0403  0.4532 -0.0555
  474HK4    H1439750   9.951   0.659   7.180 -0.1204 -0.8645 -0.2481
  474HK4    C3239751   9.791   0.574   7.062 -0.1440  0.2566  0.4592
  474HK4    H1639752   9.848   0.481   7.065 -0.5380 -0.0241 -0.7502
  474HK4    C3139753   9.665   0.595   7.008  0.2877  0.3989 -0.4920
  474HK4    C3439754   9.561   0.507   6.958  0.2265  0.2066 -0.0280
  474HK4    C3339755   9.440   0.586   6.944  0.2065  0.1636 -0.1144
  474HK4    C3539756   9.323   0.520   6.910  0.2932  0.0223 -0.1336
  474HK4    H1739757   9.235   0.585   6.908 -0.6247 -1.1664  0.8050
  474HK4    C3639758   9.318   0.382   6.892  0.3431  0.0145 -0.0858
  474HK4    H1839759   9.224   0.337   6.858  0.3900 -0.7167  0.7176
  474HK4    C3739760   9.437   0.311   6.907  0.3568  0.1947  0.6773
  474HK4    H1939761   9.428   0.203   6.906 -3.4355  0.4559 -1.1796
  474HK4    C3839762   9.559   0.370   6.939  0.6442  0.2616 -0.5030
  474HK4    H2039763   9.654   0.316   6.941 -0.3142 -1.4701  2.0999
  474HK4    C1439764   9.889   0.937   7.127 -0.2927  0.6501 -0.3781
  474HK4     C939765  10.016   0.957   7.071  0.2018 -0.4944  0.3095
  474HK4     C839766  10.100   1.057   7.124  0.1041 -0.1080 -0.2506
  474HK4    C1139767  10.057   1.150   7.218  0.5993 -0.4734  0.3455
  474HK4     H439768  10.130   1.216   7.267  2.3069 -1.4221 -0.8842
  474HK4    C1239769   9.921   1.152   7.249  0.5530 -0.2550  0.1408
  474HK4     H539770   9.879   1.247   7.284 -0.3829 -0.9702  0.9749
  474HK4    C1339771   9.845   1.041   7.212 -0.1241  0.1447  0.3327
  474HK4     H639772   9.738   1.062   7.202 -0.3246 -1.3552 -0.9404
  474HK4     C739773  10.216   1.106   7.046  0.0150  0.9025  0.2396
  474HK4     O239774  10.313   1.147   7.108  0.2916  0.6943 -0.0508
  474HK4     C439775  10.236   1.057   6.908 -0.0927  0.2177  0.4613
  474HK4     C339776  10.340   1.119   6.838 -0.6330  0.5625 -0.0410
  474HK4     H339777  10.438   1.141   6.883 -1.1745 -2.0887  2.5709
  474HK4     C239778  10.327   1.123   6.700  0.4213 -0.5885 -0.1795
  474HK4     H239779  10.416   1.144   6.640  0.6825 -0.5122  0.2342
  474HK4     C139780  10.220   1.065   6.633 -0.4048 -0.0289  0.6350
  474HK4     H139781  10.213   1.068   6.523  1.1982  0.6075  0.5372
  474HK4     C639782  10.123   0.990   6.702 -0.0159 -0.7111  0.4462
  474HK4     C539783  10.134   0.987   6.841 -0.1014  0.2171  0.4736
  474HK4    C1039784  10.040   0.913   6.930 -0.3805  0.0452  0.0380
  474HK4     O139785  10.034   0.792   6.908  0.1340  0.0783 -0.2954
  474HK4    C1639786   9.994   0.986   6.630  0.0184  0.1041  0.3351
  474HK4    C1539787   9.949   1.096   6.554 -0.0256 -0.0202  0.1855
  474HK4     H739788  10.025   1.173   6.534 -1.2948  1.3799  0.6635
  474HK4    C2039789   9.833   1.104   6.479 -0.2282  0.1039  0.5126
  474HK4     H939790   9.799   1.191   6.422 -0.6088 -0.3582  0.0299
  474HK4    C1939791   9.745   0.996   6.480  0.0691 -0.1418  0.2044
  474HK4    C1839792   9.792   0.880   6.553  0.4109 -0.1954 -0.1067
  474HK4    C1739793   9.912   0.874   6.624  0.7128 -0.3588 -0.6214
  474HK4     H839794   9.942   0.779   6.666 -0.7756 -0.2166  0.8250
  474HK4     N139795   9.690   0.784   6.558 -0.0515  0.2822 -0.3664
  474HK4    C2139796   9.570   0.845   6.516 -0.1276  0.3143 -0.1020
  474HK4    C2239797   9.604   0.972   6.454  0.1310  0.1029 -0.3944
  474HK4    C2639798   9.507   1.060   6.410  0.0461  0.2633  0.1182
  474HK4    H1339799   9.532   1.163   6.383 -1.9550  0.8696  0.4733
  474HK4    C2539800   9.375   1.016   6.417  0.1876 -0.3587 -1.0038
  474HK4    H1239801   9.300   1.068   6.357 -1.0028 -0.8578  0.0324
  474HK4    C2439802   9.339   0.898   6.480 -0.0921  0.1998 -0.1186
  474HK4    H1139803   9.232   0.876   6.498 -0.8404  1.1552 -3.1037
  474HK4    C2339804   9.436   0.810   6.527 -0.1014  0.1884 -0.1260
  474HK4    H1039805   9.405   0.713   6.565 -0.3536  0.5304  0.5651
  474HK4    C3939806   9.708   0.645   6.555 -0.5127  0.2286 -0.7465
  474HK4    C4139807   9.606   0.557   6.597 -0.0099 -0.0333 -0.0607
  474HK4    H2139808   9.537   0.591   6.675  1.0051  1.1699  0.3270
  474HK4    C4239809   9.597   0.424   6.557 -0.3023  0.0504 -0.2799
  474HK4    H2239810   9.507   0.363   6.574  1.9849 -3.0161  1.2699
  474HK4    C4339811   9.693   0.384   6.465 -0.0655 -0.1959  0.0723
  474HK4    H2339812   9.678   0.287   6.418 -2.1493  0.4336 -0.6288
  474HK4    C4439813   9.794   0.466   6.416  0.1246 -0.2356  0.4006
  474HK4    H2439814   9.869   0.429   6.344 -1.3751  1.0607 -1.8994
  474HK4    C4539815   9.801   0.597   6.460 -0.2821  0.0739 -0.4412
  474HK4    H2539816   9.872   0.664   6.409  0.1764 -2.0340 -2.6476
  475HK4    H2839817   8.011   5.658   4.488  0.2470  1.0892 -0.8734
  475HK4    C4839818   7.996   5.717   4.578  0.1123 -0.2637  0.0098
  475HK4    C4739819   7.867   5.742   4.624  0.1640  0.0708 -0.0176
  475HK4    H2739820   7.791   5.686   4.567  1.5209 -0.6156 -1.1917
  475HK4    C4639821   7.837   5.841   4.717  0.1692  0.0592 -0.0013
  475HK4    H2639822   7.736   5.839   4.761 -0.5066 -2.3035 -1.5655
  475HK4    C4039823   7.942   5.924   4.761  0.1168  0.0677  0.1071
  475HK4    C5039824   8.073   5.894   4.716  0.2320  0.3511  0.2527
  475HK4    H3039825   8.162   5.934   4.767 -0.5433  0.2859  1.6990
  475HK4    C4939826   8.102   5.795   4.623 -0.3080  0.1376  0.3107
  475HK4    H2939827   8.202   5.775   4.582 -0.6254  2.7702 -1.8411
  475HK4     N239828   7.919   6.021   4.859 -0.0294 -0.1209  0.2609
  475HK4    C3039829   7.828   6.028   4.966 -0.4344  0.1692 -0.1039
  475HK4    C2939830   7.748   5.925   5.013 -0.1759 -0.2378 -0.5548
  475HK4    H1539831   7.760   5.831   4.959 -1.7236 -1.1682  0.6541
  475HK4    C2839832   7.675   5.933   5.132  0.2687  0.2630 -0.3138
  475HK4    C2739833   7.694   6.050   5.207  0.0531 -0.1608  0.4066
  475HK4    H1439834   7.636   6.065   5.300  1.1563  1.9043  0.7911
  475HK4    C3239835   7.778   6.154   5.169 -0.3570 -0.1941 -0.6036
  475HK4    H1639836   7.808   6.232   5.238 -1.3497  1.6948 -2.2596
  475HK4    C3139837   7.851   6.144   5.051  0.1699  0.2048 -0.3162
  475HK4    C3439838   7.956   6.221   4.987  0.7841 -0.3318  0.0335
  475HK4    C3339839   7.990   6.142   4.871  0.3866 -0.3297 -0.0874
  475HK4    C3539840   8.069   6.201   4.774  0.0381  0.3653  0.0470
  475HK4    H1739841   8.082   6.143   4.682 -1.7210  0.5039 -0.3108
  475HK4    C3639842   8.125   6.327   4.788  0.3227  0.2650 -0.1729
  475HK4    H1839843   8.152   6.373   4.692  2.7305  0.1933  0.4299
  475HK4    C3739844   8.099   6.397   4.905 -0.1367 -0.1492 -0.0256
  475HK4    H1939845   8.148   6.490   4.934 -0.8484  0.3267 -0.3262
  475HK4    C3839846   8.007   6.350   4.998 -0.1088  0.0253  0.0883
  475HK4    H2039847   7.983   6.388   5.098 -0.1135 -0.6392  0.3461
  475HK4    C1439848   7.559   5.843   5.145  0.4051  0.1855  0.3550
  475HK4     C939849   7.438   5.880   5.203 -0.3910 -0.6287 -0.7690
  475HK4     C839850   7.364   5.794   5.287 -0.3429 -0.1767 -0.2556
  475HK4    C1139851   7.402   5.660   5.284 -0.3999 -0.2127  0.6343
  475HK4     H439852   7.334   5.581   5.317  0.7505 -1.6554 -0.4015
  475HK4    C1239853   7.514   5.617   5.214 -0.1961  0.5568  0.4810
  475HK4     H539854   7.534   5.509   5.203 -4.9282 -0.2913 -0.9802
  475HK4    C1339855   7.595   5.707   5.145 -0.4463 -0.0446 -0.6188
  475HK4     H639856   7.694   5.679   5.106  0.2425  1.2728  0.1456
  475HK4     C739857   7.244   5.834   5.363  0.1788  0.2904  0.3267
  475HK4     O239858   7.213   5.776   5.467 -0.3037  0.4898  0.2963
  475HK4     C439859   7.185   5.968   5.342 -0.0779  0.0617 -0.3972
  475HK4     C339860   7.061   6.007   5.391 -0.0180  0.2336 -0.3819
  475HK4     H339861   7.003   5.937   5.453 -1.4851  0.3549 -1.5910
  475HK4     C239862   7.012   6.135   5.368  0.1302  0.4630  0.5557
  475HK4     H239863   6.910   6.159   5.401 -0.4622 -2.2684  0.7879
  475HK4     C139864   7.098   6.228   5.311  0.5032 -0.2674 -0.0806
  475HK4     H139865   7.054   6.326   5.285 -0.2281  0.0694  2.3067
  475HK4     C639866   7.226   6.198   5.261  0.6336  0.2411 -0.0585
  475HK4     C539867   7.262   6.063   5.272  0.0902  0.0903 -0.1760
  475HK4    C1039868   7.375   6.015   5.188  0.2035 -0.2408  0.1699
  475HK4     O139869   7.383   6.056   5.072  0.7742 -0.3124  0.1804
  475HK4    C1639870   7.316   6.310   5.229  0.4085  0.3247 -0.3967
  475HK4    C1539871   7.455   6.305   5.251  0.3918 -0.1623 -0.4084
  475HK4     H739872   7.486   6.237   5.331 -2.2215 -0.7068  0.1904
  475HK4    C2039873   7.541   6.402   5.202  0.3032  0.0795 -0.0939
  475HK4     H939874   7.649   6.401   5.218  0.0341  1.2127  1.8924
  475HK4    C1939875   7.488   6.507   5.127  0.5524 -0.1697 -0.6247
  475HK4    C1839876   7.346   6.513   5.098  0.5155 -0.6025 -0.5397
  475HK4    C1739877   7.264   6.414   5.152 -0.2761  0.5153  0.3206
  475HK4     H839878   7.162   6.398   5.117  0.7082 -2.1371 -1.4690
  475HK4     N139879   7.308   6.635   5.039 -0.0655 -0.6854 -0.3412
  475HK4    C2139880   7.427   6.711   5.038 -0.3354 -0.2670 -0.5068
  475HK4    C2239881   7.537   6.640   5.100  0.0212 -0.0222 -0.8579
  475HK4    C2639882   7.661   6.703   5.098  0.0980 -0.1457  0.1024
  475HK4    H1339883   7.748   6.659   5.148 -0.8801  0.7421  2.6675
  475HK4    C2539884   7.688   6.823   5.034  0.0470 -0.1034  0.1586
  475HK4    H1239885   7.784   6.869   5.056  0.5185  0.0181 -2.0023
  475HK4    C2439886   7.579   6.888   4.978 -0.1466 -0.7360 -0.2100
  475HK4    H1139887   7.592   6.996   4.957  1.7912 -0.9804 -0.3499
  475HK4    C2339888   7.450   6.837   4.983 -0.4439  0.0400  0.1434
  475HK4    H1039889   7.372   6.903   4.944  1.3880  0.7755 -2.4449
  475HK4    C3939890   7.203   6.649   4.948  0.0407  0.7649 -0.2560
  475HK4    C4139891   7.148   6.774   4.913 -0.1290  0.7973  0.1193
  475HK4    H2139892   7.137   6.843   4.998 -0.3050 -0.6773  1.3159
  475HK4    C4239893   7.087   6.797   4.790 -0.4107  0.2488  0.1558
  475HK4    H2239894   7.065   6.900   4.759  2.3077  0.9763  0.5587
  475HK4    C4339895   7.080   6.688   4.704  0.0123 -0.0957  0.5505
  475HK4    H2339896   7.017   6.690   4.615 -2.0980 -0.4428  1.9897
  475HK4    C4439897   7.141   6.566   4.728 -0.1398 -0.2730  0.0455
  475HK4    H2439898   7.148   6.486   4.653 -2.7320 -2.4940  2.0671
  475HK4    C4539899   7.202   6.546   4.852  0.6358  0.6818 -0.1767
  475HK4    H2539900   7.245   6.448   4.877  0.2818  1.2939  2.9571
  476HK4    H2839901  10.073   0.544   6.145  0.4325 -0.5828 -0.2862
  476HK4    C4839902  10.088   0.609   6.059 -0.0019  0.1210  0.1641
  476HK4    C4739903  10.206   0.682   6.050 -0.1185  0.2371 -0.5015
  476HK4    H2739904  10.265   0.711   6.138 -2.7881 -1.5698  1.9793
  476HK4    C4639905  10.250   0.730   5.927  0.3232  0.4924 -0.2459
  476HK4    H2639906  10.359   0.730   5.912  0.0368 -1.0431 -2.7141
  476HK4    C4039907  10.164   0.722   5.815  0.1629  0.1842 -0.1042
  476HK4    C5039908  10.037   0.664   5.832  0.1188  0.3734  0.2349
  476HK4    H3039909   9.962   0.675   5.752  0.4922  1.1157 -0.0138
  476HK4    C4939910  10.000   0.603   5.951  0.1103  0.0731  0.0773
  476HK4    H2939911   9.897   0.568   5.965  0.6295 -1.4255  0.2638
  476HK4     N239912  10.200   0.798   5.703 -0.0403  0.1508 -0.1919
  476HK4    C3039913  10.165   0.758   5.573 -0.1951  0.0450 -0.1162
  476HK4    C2939914  10.127   0.635   5.520  0.8839 -0.2034 -0.3282
  476HK4    H1539915  10.140   0.553   5.592 -1.7929  0.4885  1.0221
  476HK4    C2839916  10.085   0.610   5.390 -0.1193  0.1998 -0.0888
  476HK4    C2739917  10.105   0.720   5.304 -0.3346  0.1683 -0.1776
  476HK4    H1439918  10.089   0.709   5.195  1.6952  0.8155 -0.5572
  476HK4    C3239919  10.146   0.845   5.347  0.2867 -0.0196 -0.2227
  476HK4    H1639920  10.160   0.927   5.276 -1.7097 -0.4337 -1.1316
  476HK4    C3139921  10.172   0.870   5.481  0.3451 -0.0758 -0.2223
  476HK4    C3439922  10.203   0.984   5.565  0.5244 -0.0751 -0.2912
  476HK4    C3339923  10.235   0.935   5.697 -0.6163  0.3108  0.1318
  476HK4    C3539924  10.293   1.021   5.790 -0.0464  0.1457 -0.0736
  476HK4    H1739925  10.303   0.979   5.890 -0.7267  0.0580 -0.0415
  476HK4    C3639926  10.319   1.154   5.758  0.1667  0.0293 -0.3893
  476HK4    H1839927  10.375   1.215   5.830 -0.5626  0.2488 -0.0066
  476HK4    C3739928  10.274   1.205   5.637 -0.3782  0.6898  0.0875
  476HK4    H1939929  10.277   1.311   5.614 -1.0563  0.4273 -1.2614
  476HK4    C3839930  10.220   1.120   5.542 -0.0055  0.1086  0.3867
  476HK4    H2039931  10.209   1.154   5.439  0.7887  2.6094  1.0882
  476HK4    C1439932  10.064   0.474   5.338  0.2250  0.2197 -0.2841
  476HK4     C939933  10.110   0.425   5.216  0.2295 -1.2027  0.2779
  476HK4     C839934  10.018   0.364   5.129 -0.0391 -0.3124 -0.0717
  476HK4    C1139935   9.892   0.323   5.171 -0.1742 -0.2812 -0.4446
  476HK4     H439936   9.818   0.265   5.113 -1.8092 -0.5142  1.7936
  476HK4    C1239937   9.848   0.364   5.297  0.5664  0.0594 -0.2917
  476HK4     H539938   9.757   0.322   5.344  0.4868 -0.9008 -1.2821
  476HK4    C1339939   9.934   0.437   5.378  0.3006  0.1527 -0.0937
  476HK4     H639940   9.894   0.468   5.476 -2.0236 -2.1725 -0.2281
  476HK4     C739941  10.061   0.331   4.991  0.1743 -0.0417 -0.0687
  476HK4     O239942   9.973   0.308   4.909  0.1455 -0.6793  0.1353
  476HK4     C439943  10.205   0.347   4.961  0.2292  0.3225  0.3877
  476HK4     C339944  10.246   0.316   4.832 -0.6787 -0.7260  0.3464
  476HK4     H339945  10.166   0.317   4.756 -0.4450 -0.7076  0.0986
  476HK4     C239946  10.378   0.292   4.795 -0.5581  0.5418 -0.0967
  476HK4     H239947  10.398   0.279   4.688 -0.3419  0.7949 -0.0852
  476HK4     C139948  10.469   0.297   4.901  0.0595  0.8126 -0.6415
  476HK4     H139949  10.575   0.282   4.877  0.0196  0.7137 -0.7670
  476HK4     C639950  10.435   0.319   5.036 -0.1895 -0.6816 -0.4460
  476HK4     C539951  10.304   0.359   5.061  0.2474  0.2529  0.3781
  476HK4    C1039952  10.257   0.421   5.188  0.2766  0.6394  0.1999
  476HK4     O139953  10.335   0.479   5.263  0.5777 -0.0573  0.4229
  476HK4    C1639954  10.544   0.332   5.133 -0.2747 -0.6578 -0.3579
  476HK4    C1539955  10.675   0.370   5.096 -0.1240 -0.4437  0.3825
  476HK4     H739956  10.697   0.427   5.005 -0.6838 -0.4991  0.2093
  476HK4    C2039957  10.794   0.352   5.165  0.1488  0.1555  0.0694
  476HK4     H939958  10.895   0.391   5.147 -0.7836  2.5079 -0.1605
  476HK4    C1939959  10.776   0.275   5.279 -0.1147  0.9037  0.5281
  476HK4    C1839960  10.648   0.228   5.329  0.0572  0.0277  0.1418
  476HK4    C1739961  10.536   0.264   5.255  0.0665  0.9544  0.5767
  476HK4     H839962  10.442   0.255   5.310  0.5941 -0.8577  1.2161
  476HK4     N139963  10.663   0.151   5.445  0.3243  0.1408  0.1827
  476HK4    C2139964  10.803   0.137   5.459  0.2873  0.0565  0.5099
  476HK4    C2239965  10.877   0.221   5.367 -0.1364 -0.3505 -0.2100
  476HK4    C2639966  11.015   0.214   5.347 -0.1213  0.6441 -0.5146
  476HK4    H1339967  11.068   0.297   5.300 -0.4566  0.2559 -1.6131
  476HK4    C2539968  11.079   0.114   5.419 -0.3204  0.6511 -0.3310
  476HK4    H1239969  11.185   0.102   5.397 -0.0187 -1.2819  2.0170
  476HK4    C2439970  11.013   0.029   5.507  0.4652  0.8844  0.4849
  476HK4    H1139971  11.062  11.191   5.555  1.0067 -0.1496 -1.8703
  476HK4    C2339972  10.876   0.043   5.529  0.2532 -0.3675 -0.0222
  476HK4    H1039973  10.836  11.232   5.612 -1.8514 -0.1787 -0.8710
  476HK4    C3939974  10.586   0.152   5.563 -0.1315  0.5171 -0.1199
  476HK4    C4139975  10.583   0.040   5.648 -0.2753  0.4374 -0.2292
  476HK4    H2139976  10.643  11.199   5.626  1.6986  1.6570  0.0997
  476HK4    C4239977  10.502   0.040   5.761 -0.0470 -0.1324 -0.0649
  476HK4    H2239978  10.506  11.202   5.830 -1.0867 -1.1643 -1.2681
  476HK4    C4339979  10.415   0.144   5.790  0.3720  0.1119  0.3397
  476HK4    H2339980  10.339   0.130   5.866  2.7244 -1.1390  2.5080
  476HK4    C4439981  10.414   0.255   5.705 -0.4710  0.3248  0.6229
  476HK4    H2439982  10.345   0.337   5.729  1.9383  2.0508  1.8063
  476HK4    C4539983  10.497   0.257   5.594 -0.1527  0.2134  0.8604
  476HK4    H2539984  10.485   0.345   5.529  1.2697  0.5766  1.0772
  477HK4    H2839985   9.034   3.301   7.886 -1.2495 -0.7886  0.0935
  477HK4    C4839986   8.997   3.377   7.955  0.4073 -0.1892  0.3416
  477HK4    C4739987   8.981   3.349   8.090 -0.3135 -0.1152  0.2753
  477HK4    H2739988   9.016   3.256   8.138 -0.4822  0.3088  1.2264
  477HK4    C4639989   8.929   3.450   8.170 -0.2199  0.2794 -0.1613
  477HK4    H2639990   8.924   3.423   8.276 -0.1523  0.0599 -0.2140
  477HK4    C4039991   8.890   3.577   8.122  0.0558  0.2115 -0.5705
  477HK4    C5039992   8.917   3.602   7.986 -0.5498  0.1916 -0.6912
  477HK4    H3039993   8.922   3.706   7.950 -0.1902 -0.4197 -2.4703
  477HK4    C4939994   8.969   3.503   7.903 -0.2044 -0.3803  0.2030
  477HK4    H2939995   8.986   3.525   7.797  0.8911 -1.6786  0.0915
  477HK4     N239996   8.780   3.644   8.177  0.0517  0.0604 -0.3927
  477HK4    C3039997   8.683   3.592   8.266 -0.1613  0.0916 -0.6043
  477HK4    C2939998   8.638   3.464   8.293  0.0001  0.3307  0.8717
  477HK4    H1539999   8.682   3.382   8.235 -1.8083 -1.4447  1.9207
  477HK4    C2840000   8.534   3.438   8.381 -0.5822 -0.2919  0.0216
  477HK4    C2740001   8.461   3.546   8.437 -0.6497 -0.1548 -0.3285
  477HK4    H1440002   8.372   3.514   8.493  0.0722 -1.1193  0.2893
  477HK4    C3240003   8.502   3.675   8.407  1.0502 -0.4317  0.6940
  477HK4    H1640004   8.442   3.760   8.440 -1.5042 -1.1399 -1.8493
  477HK4    C3140005   8.613   3.703   8.329 -0.0416  0.2043 -0.6737
  477HK4    C3440006   8.673   3.823   8.274  0.3177  0.2791 -0.1197
  477HK4    C3340007   8.777   3.784   8.181 -0.1355  0.0619 -0.5416
  477HK4    C3540008   8.882   3.870   8.151 -0.1385  0.2574 -0.0081
  477HK4    H1740009   8.971   3.833   8.100 -0.1246  1.5247 -0.9329
  477HK4    C3640010   8.883   4.000   8.201  0.2803  0.2849 -0.0849
  477HK4    H1840011   8.968   4.061   8.166  1.3869 -1.4170 -0.4434
  477HK4    C3740012   8.775   4.043   8.277  0.0257 -0.1060 -0.2200
  477HK4    H1940013   8.777   4.143   8.319 -2.6025  0.5146 -1.4534
  477HK4    C3840014   8.673   3.956   8.314 -0.0791  0.1898  0.1811
  477HK4    H2040015   8.582   3.994   8.361 -0.9028  0.1130 -1.3008
  477HK4    C1440016   8.474   3.305   8.399 -0.1611 -0.4885 -0.0252
  477HK4     C940017   8.341   3.275   8.432 -0.2024  0.4475  0.7079
  477HK4     C840018   8.316   3.161   8.512 -0.1448  0.5397  0.8541
  477HK4    C1140019   8.419   3.082   8.561  0.1032 -0.1685 -0.7640
  477HK4     H440020   8.403   3.001   8.634 -2.4019  1.2452  0.3291
  477HK4    C1240021   8.550   3.120   8.536  0.3759 -0.5153  0.1550
  477HK4     H540022   8.635   3.058   8.570 -0.3591 -0.8547  1.4277
  477HK4    C1340023   8.577   3.224   8.448 -0.0972 -0.0891  0.5057
  477HK4     H640024   8.683   3.249   8.431 -0.2178 -0.4046 -0.7172
  477HK4     C740025   8.181   3.119   8.555 -0.1719 -0.1157  0.1584
  477HK4     O240026   8.168   3.023   8.630  0.8545  0.0310  0.5297
  477HK4     C440027   8.067   3.200   8.505  0.1526  0.3546  0.1755
  477HK4     C340028   7.937   3.156   8.529  0.2429  0.4181  0.7827
  477HK4     H340029   7.911   3.068   8.589  1.9564  0.7228  2.0188
  477HK4     C240030   7.829   3.217   8.467  0.4314  0.1617  0.2008
  477HK4     H240031   7.730   3.168   8.463  0.0243  0.7563  2.3287
  477HK4     C140032   7.845   3.340   8.404 -0.2476  0.0358 -0.2308
  477HK4     H140033   7.777   3.358   8.320  0.8195 -1.9465 -1.5673
  477HK4     C640034   7.974   3.395   8.393 -0.2863  0.0807 -0.4731
  477HK4     C540035   8.085   3.319   8.431 -0.2891  0.2795 -0.0588
  477HK4    C1040036   8.221   3.339   8.373 -0.2504 -0.4961 -0.2329
  477HK4     O140037   8.228   3.358   8.251  0.1422 -0.2668 -0.1720
  477HK4    C1640038   7.979   3.541   8.378  0.0099  0.1278  0.0684
  477HK4    C1540039   7.866   3.624   8.397 -0.1673 -0.2739  0.8166
  477HK4     H740040   7.807   3.594   8.485  0.2050  0.8140  1.4487
  477HK4    C2040041   7.854   3.760   8.370  0.0820 -0.3962  0.0788
  477HK4     H940042   7.755   3.804   8.365  0.2881 -0.0203 -0.7460
  477HK4    C1940043   7.960   3.825   8.307 -0.3685  0.6696  0.4099
  477HK4    C1840044   8.081   3.746   8.293 -0.3784  0.5786  0.8424
  477HK4    C1740045   8.085   3.610   8.321 -0.5055  0.2323 -0.7698
  477HK4     H840046   8.187   3.577   8.338 -0.5900 -0.9149 -2.3264
  477HK4     N140047   8.181   3.827   8.236 -0.2658 -0.3242 -0.2639
  477HK4    C2140048   8.128   3.957   8.225 -0.0567 -0.2447 -0.3305
  477HK4    C2240049   7.986   3.957   8.254 -0.1285  0.1835 -0.6858
  477HK4    C2640050   7.916   4.077   8.264 -0.2092  0.0710  0.1091
  477HK4    H1340051   7.808   4.079   8.274 -0.3517  0.9748 -1.3303
  477HK4    C2540052   7.987   4.197   8.261 -0.2594  0.0934 -0.2664
  477HK4    H1240053   7.923   4.285   8.254 -2.3277 -1.5146 -2.1840
  477HK4    C2440054   8.123   4.198   8.231 -0.1524  0.7354  0.2385
  477HK4    H1140055   8.166   4.292   8.195 -0.6969  0.1967 -1.8944
  477HK4    C2340056   8.193   4.080   8.212 -1.0161  0.2844 -0.1832
  477HK4    H1040057   8.288   4.088   8.160 -1.3068  1.0318 -0.6037
  477HK4    C3940058   8.278   3.783   8.145  0.1049  0.4396 -0.2496
  477HK4    C4140059   8.388   3.865   8.113 -0.1466  0.8238 -0.1349
  477HK4    H2140060   8.426   3.932   8.191  0.6710  1.1664 -0.8199
  477HK4    C4240061   8.459   3.847   7.995 -0.6126  0.0770 -0.3087
  477HK4    H2240062   8.534   3.924   7.970 -1.4486  0.7784 -0.6345
  477HK4    C4340063   8.422   3.749   7.904 -0.5250 -0.0029 -0.2593
  477HK4    H2340064   8.485   3.715   7.823 -0.1652 -0.2902  0.1424
  477HK4    C4440065   8.315   3.663   7.929 -0.6956  0.1973 -0.2860
  477HK4    H2440066   8.291   3.585   7.854 -0.6550 -1.9102  1.8464
  477HK4    C4540067   8.250   3.683   8.050 -0.0371  0.1674  0.0751
  477HK4    H2540068   8.169   3.612   8.071  0.5415 -1.2350 -2.1865
  478HK4    H2840069   0.848  10.574   6.639  0.5953 -0.7572 -1.7484
  478HK4    C4840070   0.903  10.524   6.719 -0.3729  0.6360 -0.1605
  478HK4    C4740071   0.846  10.461   6.829 -0.1134  0.4095 -0.1554
  478HK4    H2740072   0.736  10.462   6.821 -0.1627  1.7780  0.5994
  478HK4    C4640073   0.929  10.409   6.927 -0.3397  0.4182  0.0398
  478HK4    H2640074   0.884  10.339   6.999  0.7855  0.1250  0.4658
  478HK4    C4040075   1.069  10.409   6.912 -0.3485  0.1941 -0.0490
  478HK4    C5040076   1.119  10.465   6.792  0.3245 -0.4785 -0.0913
  478HK4    H3040077   1.225  10.451   6.770  0.1451 -3.9033  0.8362
  478HK4    C4940078   1.040  10.524   6.694 -0.2531 -0.2766  0.4927
  478HK4    H2940079   1.090  10.595   6.627  0.8888  0.0383  1.6695
  478HK4     N240080   1.147  10.356   7.016  0.3120  0.4208 -0.4240
  478HK4    C3040081   1.120  10.362   7.155 -0.8235 -0.2075 -0.6069
  478HK4    C2940082   1.023  10.421   7.234 -0.1212 -0.1683  0.2412
  478HK4    H1540083   0.948  10.482   7.183  0.4103 -0.3844 -0.8085
  478HK4    C2840084   1.005  10.401   7.370  0.1752 -0.2657  0.2654
  478HK4    C2740085   1.101  10.325   7.440 -0.1042 -0.3381  0.5718
  478HK4    H1440086   1.077  10.288   7.540  0.2225 -2.4659 -0.1239
  478HK4    C3240087   1.205  10.267   7.367 -0.2486  0.3398 -0.1814
  478HK4    H1640088   1.282  10.210   7.418 -2.3752 -0.9889  1.6184
  478HK4    C3140089   1.220  10.288   7.231 -0.4896  0.6961 -0.1552
  478HK4    C3440090   1.306  10.227   7.131 -0.3687  0.1112  0.3116
  478HK4    C3340091   1.260  10.274   7.002 -0.2924 -0.5065  0.0568
  478HK4    C3540092   1.300  10.208   6.886  0.3463  0.3365 -0.2104
  478HK4    H1740093   1.268  10.255   6.793 -1.4095 -1.4646 -0.5619
  478HK4    C3640094   1.379  10.094   6.895  0.2598  0.2775 -0.2139
  478HK4    H1840095   1.414  10.044   6.804 -1.7567  2.0422 -2.0140
  478HK4    C3740096   1.421  10.049   7.020 -0.4106  0.3056  0.0282
  478HK4    H1940097   1.491   9.966   7.035  0.8518  1.5311  1.1106
  478HK4    C3840098   1.390  10.116   7.137 -0.1043  0.3030  0.1128
  478HK4    H2040099   1.432  10.076   7.229  0.3337 -0.3133 -0.3537
  478HK4    C1440100   0.892  10.469   7.436  0.2841  0.5250 -0.3515
  478HK4     C940101   0.900  10.507   7.571 -0.2597  0.3576 -0.2716
  478HK4     C840102   0.781  10.516   7.646  0.2027  0.1742  0.4796
  478HK4    C1140103   0.660  10.507   7.579  0.7767 -0.0848 -0.5324
  478HK4     H440104   0.570  10.546   7.630  1.1515 -1.3354  1.1499
  478HK4    C1240105   0.649  10.482   7.443 -0.4529 -0.2245 -0.4100
  478HK4     H540106   0.555  10.512   7.393 -1.1406 -0.6037  0.6208
  478HK4    C1340107   0.766  10.457   7.374  0.0547  0.9376  0.0330
  478HK4     H640108   0.767  10.413   7.273 -1.0145  0.9144  0.0334
  478HK4     C740109   0.785  10.523   7.794  0.0802 -0.1686  0.4989
  478HK4     O240110   0.686  10.496   7.862 -0.4505  0.2165 -0.1222
  478HK4     C440111   0.915  10.544   7.863  0.4178 -0.3125 -0.0932
  478HK4     C340112   0.922  10.559   8.001  0.0021 -0.8609 -0.0098
  478HK4     H340113   0.830  10.568   8.060  0.8706  0.0349  1.2308
  478HK4     C240114   1.041  10.572   8.071  0.0305  0.2292 -0.2647
  478HK4     H240115   1.035  10.584   8.180  3.0915 -1.6359  0.1751
  478HK4     C140116   1.159  10.565   7.997  0.3103 -0.1106  0.2164
  478HK4     H140117   1.254  10.560   8.053 -0.8880  1.8259  2.5184
  478HK4     C640118   1.156  10.553   7.857 -0.2045 -0.0380  0.2191
  478HK4     C540119   1.034  10.547   7.788  0.1946 -0.4422 -0.4582
  478HK4    C1040120   1.026  10.548   7.639  0.0062 -0.1638 -0.4455
  478HK4     O140121   1.073  10.651   7.592  0.4585 -0.4599 -0.6495
  478HK4    C1640122   1.292  10.560   7.802 -0.3971 -0.2475 -0.2871
  478HK4    C1540123   1.329  10.490   7.685  0.1951  0.3490 -0.4611
  478HK4     H740124   1.294  10.386   7.681 -1.7780  0.8738  1.9594
  478HK4    C2040125   1.423  10.528   7.590  0.6622 -0.0617 -0.1601
  478HK4     H940126   1.411  10.506   7.484  1.5709  0.1560 -0.3162
  478HK4    C1940127   1.500  10.641   7.620  0.4009  0.0181  0.2282
  478HK4    C1840128   1.476  10.710   7.745  0.0345 -0.5250  0.4587
  478HK4    C1740129   1.374  10.668   7.830 -0.9488  0.1899 -0.3489
  478HK4     H840130   1.343  10.726   7.917 -1.3491 -0.9595  0.2742
  478HK4     N140131   1.584  10.793   7.783 -0.2764  0.1405 -0.0956
  478HK4    C2140132   1.669  10.785   7.671  0.2269 -0.2821  0.3159
  478HK4    C2240133   1.631  10.683   7.575  0.4330 -0.1879  0.1321
  478HK4    C2640134   1.701  10.653   7.459  0.5110 -0.0546  0.1438
  478HK4    H1340135   1.658  10.590   7.381  2.6158  1.1166 -2.0381
  478HK4    C2540136   1.820  10.723   7.444  0.3764  0.2456  0.4821
  478HK4    H1240137   1.879  10.704   7.354 -2.2248 -0.1142 -1.2150
  478HK4    C2440138   1.862  10.824   7.530 -0.2821  0.4976  0.5155
  478HK4    H1140139   1.949  10.887   7.506 -0.1985  0.4921  0.8049
  478HK4    C2340140   1.788  10.852   7.643  0.1821  0.0505  0.9332
  478HK4    H1040141   1.796  10.949   7.693  1.0180 -0.6191  2.1218
  478HK4    C3940142   1.575  10.899   7.873  0.4445 -0.0373  0.1942
  478HK4    C4140143   1.694  10.944   7.933  0.5509 -0.0998  0.0264
  478HK4    H2140144   1.774  10.869   7.946  2.0675  1.3598 -0.7025
  478HK4    C4240145   1.696  11.056   8.015  0.0407  0.0941 -0.2198
  478HK4    H2240146   1.785  11.085   8.073 -1.8350  3.2480  1.2472
  478HK4    C4340147   1.576  11.123   8.037  0.4596  0.7905 -0.0307
  478HK4    H2340148   1.571  11.215   8.095  0.1216 -0.6728  2.3084
  478HK4    C4440149   1.458  11.090   7.971  0.3171  0.0525  0.5917
  478HK4    H2440150   1.360  11.139   7.979  0.0470 -0.2897 -0.5399
  478HK4    C4540151   1.457  10.974   7.895  0.6480  0.2606  0.2701
  478HK4    H2540152   1.363  10.923   7.869  0.7389  0.3213 -0.1724
  479HK4    H2840153   2.172   6.213   0.583 -0.4085 -0.0952  0.7865
  479HK4    C4840154   2.279   6.208   0.563 -0.4614 -0.2944  0.5602
  479HK4    C4740155   2.329   6.107   0.481 -0.2490  0.3926 -0.1605
  479HK4    H2740156   2.260   6.048   0.418 -0.2302  1.1284 -0.8766
  479HK4    C4640157   2.465   6.085   0.469 -0.2774  0.1117  0.0205
  479HK4    H2640158   2.497   6.012   0.394 -1.4415 -1.0778  0.6587
  479HK4    C4040159   2.558   6.172   0.530 -0.2393 -0.0736  0.2277
  479HK4    C5040160   2.505   6.287   0.593 -0.3279 -0.0268  0.0681
  479HK4    H3040161   2.571   6.362   0.637 -1.2556 -0.3620  2.0949
  479HK4    C4940162   2.368   6.301   0.615 -0.3217 -0.2525  0.2456
  479HK4    H2940163   2.336   6.380   0.685 -1.1508  0.0043 -0.4234
  479HK4     N240164   2.681   6.125   0.578 -0.1342 -0.2800 -0.2414
  479HK4    C3040165   2.710   5.990   0.603 -0.0198 -0.2284 -0.0849
  479HK4    C2940166   2.627   5.891   0.655  0.0745 -0.3509 -0.1691
  479HK4    H1540167   2.519   5.903   0.660  0.3699  2.1918  0.8065
  479HK4    C2840168   2.682   5.769   0.692 -0.5517 -0.5435  0.1351
  479HK4    C2740169   2.817   5.744   0.659 -0.3712  0.4255  0.1337
  479HK4    H1440170   2.860   5.646   0.683 -1.5303  0.1222  0.9801
  479HK4    C3240171   2.904   5.839   0.606 -0.0050 -0.0270 -0.0876
  479HK4    H1640172   3.011   5.821   0.607  0.0453  0.0543 -1.9088
  479HK4    C3140173   2.851   5.965   0.578  0.0496  0.0261  0.0502
  479HK4    C3440174   2.913   6.091   0.543 -0.0890  0.0978  0.0605
  479HK4    C3340175   2.803   6.186   0.544 -0.1231  0.0545  0.3870
  479HK4    C3540176   2.831   6.321   0.531 -0.2935  0.0084 -0.4648
  479HK4    H1740177   2.746   6.380   0.497 -1.3886 -1.1407  0.2367
  479HK4    C3640178   2.964   6.355   0.510 -0.2795  0.2258 -0.0394
  479HK4    H1840179   2.989   6.461   0.494  0.8993 -0.3436 -2.1864
  479HK4    C3740180   3.072   6.268   0.505 -0.2956  0.1459  0.8624
  479HK4    H1940181   3.172   6.312   0.504 -0.6064  0.9022 -2.6746
  479HK4    C3840182   3.044   6.133   0.522 -0.0834 -0.0405 -0.1892
  479HK4    H2040183   3.127   6.063   0.513  0.4287  0.4940  0.2940
  479HK4    C1440184   2.627   5.700   0.809 -0.1371 -0.3792  0.4298
  479HK4     C940185   2.703   5.637   0.908  0.1682  0.2505  0.5989
  479HK4     C840186   2.670   5.514   0.969 -0.0333 -0.2965 -0.5916
  479HK4    C1140187   2.543   5.466   0.939 -0.0870 -0.1644 -0.5752
  479HK4     H440188   2.509   5.376   0.992 -0.7671 -0.6138 -1.7602
  479HK4    C1240189   2.459   5.540   0.857 -0.1149 -0.0641 -0.4579
  479HK4     H540190   2.356   5.505   0.840 -0.5517  1.7911 -1.7840
  479HK4    C1340191   2.494   5.657   0.791 -0.2997  0.2789  0.0492
  479HK4     H640192   2.448   5.677   0.693 -0.0660  0.5495 -0.0060
  479HK4     C740193   2.770   5.439   1.047 -0.3514  0.0175  0.1230
  479HK4     O240194   2.724   5.353   1.122  0.2686 -0.1698  0.2986
  479HK4     C440195   2.903   5.502   1.064 -0.1024 -0.4225 -0.1687
  479HK4     C340196   3.001   5.430   1.131  0.2322  0.7672  0.6375
  479HK4     H340197   2.967   5.339   1.182  0.2806 -0.2592 -1.1241
  479HK4     C240198   3.132   5.473   1.147  0.6727 -0.0232 -0.7317
  479HK4     H240199   3.204   5.416   1.208  1.6606  0.4391 -1.4436
  479HK4     C140200   3.167   5.591   1.082  0.3783  0.0801 -0.7056
  479HK4     H140201   3.273   5.620   1.079  0.4833 -0.0754  1.2990
  479HK4     C640202   3.072   5.668   1.013  0.0310  0.0551 -0.2551
  479HK4     C540203   2.937   5.632   1.020  0.1858 -0.5029 -0.1851
  479HK4    C1040204   2.825   5.707   0.956  0.7249  0.0313 -0.4994
  479HK4     O140205   2.812   5.824   0.992  0.0906 -0.1102 -0.2644
  479HK4    C1640206   3.124   5.747   0.900  0.2826 -0.3638 -0.4334
  479HK4    C1540207   3.228   5.706   0.814  0.8745 -0.0007  0.1051
  479HK4     H740208   3.263   5.603   0.823  0.5947 -0.0997  0.0720
  479HK4    C2040209   3.290   5.791   0.723 -0.0091 -0.0288 -0.5344
  479HK4     H940210   3.368   5.763   0.652 -1.3243 -1.2409 -1.5468
  479HK4    C1940211   3.260   5.926   0.728 -0.2111 -0.0835 -0.2536
  479HK4    C1840212   3.159   5.975   0.819 -0.2087 -0.2683 -0.1508
  479HK4    C1740213   3.102   5.885   0.908 -0.5775 -0.4850 -0.6020
  479HK4     H840214   3.056   5.925   0.998  1.2647  0.7834 -0.1865
  479HK4     N140215   3.168   6.115   0.838 -0.2182 -0.1887 -0.7292
  479HK4    C2140216   3.286   6.158   0.774  0.2845 -0.1682  0.2120
  479HK4    C2240217   3.344   6.042   0.708 -0.0780 -0.1578 -0.1259
  479HK4    C2640218   3.454   6.055   0.624 -0.2881 -0.5418 -0.4592
  479HK4    H1340219   3.504   5.968   0.583 -0.2175 -0.2902 -0.9176
  479HK4    C2540220   3.507   6.182   0.603 -0.6935 -0.1921  0.5836
  479HK4    H1240221   3.610   6.192   0.567 -0.4709  0.0967  1.2935
  479HK4    C2440222   3.447   6.295   0.657 -0.1452  0.4946 -0.2247
  479HK4    H1140223   3.465   6.392   0.608 -1.8843  1.7276  1.5273
  479HK4    C2340224   3.337   6.283   0.741  0.3021 -0.1608  0.2676
  479HK4    H1040225   3.279   6.371   0.766  0.5805  0.3917 -0.9959
  479HK4    C3940226   3.073   6.200   0.896 -0.0079  0.0829 -0.7855
  479HK4    C4140227   3.096   6.335   0.931 -0.6322  0.0878 -0.3919
  479HK4    H2140228   3.197   6.360   0.967 -0.4486  1.3155 -1.6850
  479HK4    C4240229   2.996   6.430   0.952 -0.2459  0.2375  0.7915
  479HK4    H2240230   3.023   6.536   0.961 -1.2952  0.6524 -0.8330
  479HK4    C4340231   2.863   6.391   0.956 -0.0433 -0.5397  0.2338
  479HK4    H2340232   2.787   6.467   0.938 -0.4551 -0.8167  0.7937
  479HK4    C4440233   2.831   6.258   0.931 -0.1200 -0.5171  0.2097
  479HK4    H2440234   2.725   6.231   0.929 -0.3108  0.2657 -0.5741
  479HK4    C4540235   2.935   6.173   0.896 -0.0018  0.0491 -0.8465
  479HK4    H2540236   2.909   6.074   0.856 -1.5481 -0.7027  1.8889
  480HK4    H2840237   4.650   7.848   6.019  1.4312  1.4912 -0.0337
  480HK4    C4840238   4.682   7.839   5.915 -0.2162 -0.3292 -0.4035
  480HK4    C4740239   4.775   7.742   5.883  0.5558  0.3428 -0.1939
  480HK4    H2740240   4.816   7.664   5.949 -0.4306 -0.7780 -0.8819
  480HK4    C4640241   4.832   7.745   5.756 -0.3217 -0.8156 -0.6213
  480HK4    H2640242   4.933   7.700   5.753  1.8785  3.8780 -1.6011
  480HK4    C4040243   4.794   7.836   5.655 -0.0257 -0.0502 -0.0436
  480HK4    C5040244   4.707   7.938   5.699  0.4482  0.1417  0.4554
  480HK4    H3040245   4.679   8.016   5.626 -0.2552 -1.6740 -1.2701
  480HK4    C4940246   4.652   7.942   5.827 -0.3915  0.0560  0.0980
  480HK4    H2940247   4.594   8.032   5.850  1.9020  1.0564  2.1523
  480HK4     N240248   4.827   7.808   5.522  0.0526 -0.1448 -0.0041
  480HK4    C3040249   4.841   7.679   5.467 -0.1818  0.0578 -0.5346
  480HK4    C2940250   4.806   7.553   5.515 -0.4263  0.2157 -0.3012
  480HK4    H1540251   4.732   7.546   5.594 -2.8323 -2.5797 -2.6606
  480HK4    C2840252   4.851   7.438   5.452 -0.0775  0.1321  0.0999
  480HK4    C2740253   4.925   7.446   5.332  0.5054 -0.3822  0.4222
  480HK4    H1440254   4.976   7.356   5.294 -0.6776 -1.2912  0.9916
  480HK4    C3240255   4.951   7.570   5.273  0.3842 -0.3795  0.3745
  480HK4    H1640256   4.984   7.581   5.170  0.2623  3.1851  0.6642
  480HK4    C3140257   4.910   7.685   5.339  0.4029 -0.0277 -0.2232
  480HK4    C3440258   4.926   7.826   5.310  0.5210  0.0131  0.0289
  480HK4    C3340259   4.874   7.898   5.424 -0.4423 -0.1862 -0.2799
  480HK4    C3540260   4.889   8.036   5.426  0.6483 -0.3117  0.5908
  480HK4    H1740261   4.840   8.091   5.506 -0.4199 -1.9484  1.0846
  480HK4    C3640262   4.964   8.099   5.328 -0.1107 -0.5843 -0.1622
  480HK4    H1840263   4.953   8.209   5.321 -3.2164 -0.9566 -1.9594
  480HK4    C3740264   5.032   8.030   5.228  0.5856 -0.2276  0.0613
  480HK4    H1940265   5.100   8.083   5.162  0.1131  0.9267  0.4808
  480HK4    C3840266   5.005   7.894   5.218  0.5730 -0.2143 -0.0941
  480HK4    H2040267   5.067   7.852   5.138 -1.5855  0.0002 -1.9368
  480HK4    C1440268   4.863   7.319   5.538  0.7179  0.1563  0.0329
  480HK4     C940269   4.982   7.247   5.545  0.3714 -0.4265 -0.0890
  480HK4     C840270   4.978   7.111   5.581  0.1942 -0.5492 -0.5607
  480HK4    C1140271   4.852   7.054   5.597  0.0664 -0.2198 -0.3702
  480HK4     H440272   4.850   6.948   5.628 -1.8484 -0.0984 -0.0415
  480HK4    C1240273   4.732   7.123   5.588  0.4509  0.2913 -1.6155
  480HK4     H540274   4.637   7.071   5.601  0.2516  1.1820  0.7807
  480HK4    C1340275   4.738   7.261   5.566  0.4471  0.4773 -0.4908
  480HK4     H640276   4.649   7.322   5.588  0.4366 -0.3286  1.7823
  480HK4     C740277   5.102   7.031   5.591  0.3807 -0.1792  0.1611
  480HK4     O240278   5.115   6.927   5.655  0.6460 -0.5075 -0.4221
  480HK4     C440279   5.225   7.098   5.543  0.2611  0.0844  0.2222
  480HK4     C340280   5.346   7.029   5.554 -0.0938 -0.4973  0.4632
  480HK4     H340281   5.341   6.921   5.576 -2.0883 -0.6303 -0.4561
  480HK4     C240282   5.471   7.086   5.539 -0.1409 -0.4950  0.0869
  480HK4     H240283   5.559   7.025   5.566 -0.3430 -0.6110  0.4810
  480HK4     C140284   5.479   7.217   5.494 -0.4429 -0.6752 -0.5047
  480HK4     H140285   5.571   7.255   5.448  0.7425 -1.8884  0.8185
  480HK4     C640286   5.360   7.290   5.475  0.1095  0.3497 -0.0721
  480HK4     C540287   5.236   7.234   5.508  0.2279 -0.0441 -0.2946
  480HK4    C1040288   5.113   7.316   5.524  0.1492 -0.1256 -0.4940
  480HK4     O140289   5.129   7.421   5.585 -0.3065 -0.0563 -0.4882
  480HK4    C1640290   5.379   7.413   5.397  0.0571  0.0959 -0.4863
  480HK4    C1540291   5.282   7.455   5.304 -0.0236 -0.6950 -0.7601
  480HK4     H740292   5.194   7.389   5.295 -0.3371 -0.2193 -1.1944
  480HK4    C2040293   5.290   7.583   5.251  0.1211 -0.3125  0.1693
  480HK4     H940294   5.223   7.607   5.168 -1.4789 -2.1224  0.8960
  480HK4    C1940295   5.389   7.672   5.288  0.2469 -0.3424 -0.0984
  480HK4    C1840296   5.489   7.633   5.386  0.4777 -0.6547 -0.4557
  480HK4    C1740297   5.480   7.502   5.432  0.3000 -0.4266  0.1513
  480HK4     H840298   5.552   7.480   5.511  1.4682  0.3288 -0.6828
  480HK4     N140299   5.604   7.713   5.375  0.1323 -0.1610 -0.4742
  480HK4    C2140300   5.579   7.805   5.271 -0.2808  0.0338 -0.2056
  480HK4    C2240301   5.448   7.783   5.215 -0.3005 -0.0682 -0.1210
  480HK4    C2640302   5.390   7.871   5.124  0.3056 -0.1796 -0.6100
  480HK4    H1340303   5.333   7.827   5.043  1.0700 -1.7056 -0.3439
  480HK4    C2540304   5.460   7.988   5.093 -0.2890  0.4683  0.4543
  480HK4    H1240305   5.408   8.066   5.038 -0.1844 -1.3638 -2.3304
  480HK4    C2440306   5.587   8.012   5.147 -0.2313  0.7413  0.1906
  480HK4    H1140307   5.641   8.105   5.124 -0.8328  1.0447 -0.0198
  480HK4    C2340308   5.642   7.925   5.239 -0.5670  0.2139 -0.1032
  480HK4    H1040309   5.731   7.953   5.296 -0.6800 -1.4041  0.9090
  480HK4    C3940310   5.682   7.754   5.485 -0.2470 -0.1433 -0.2084
  480HK4    C4140311   5.817   7.785   5.459 -0.3191  0.5495  0.2534
  480HK4    H2140312   5.870   7.741   5.374 -1.9583 -0.3611 -0.3145
  480HK4    C4240313   5.883   7.878   5.539  0.3669  0.0393  0.2839
  480HK4    H2240314   5.993   7.888   5.532  0.2551  0.9179 -0.2988
  480HK4    C4340315   5.811   7.939   5.640 -0.5614 -0.4827 -0.0576
  480HK4    H2340316   5.870   8.021   5.682 -0.2130 -0.9040  0.2778
  480HK4    C4440317   5.682   7.904   5.676 -0.9160  0.3528 -0.4947
  480HK4    H2440318   5.624   7.947   5.759  1.0075  0.5001  0.7809
  480HK4    C4540319   5.622   7.802   5.602 -0.2740 -0.2600 -0.1743
  480HK4    H2540320   5.539   7.743   5.644 -1.3244  1.2100 -0.1591
  481HK4    H2840321   2.915  10.120   5.094 -1.4428 -0.0257 -1.4377
  481HK4    C4840322   2.969  10.044   5.039 -0.2900 -0.3586  0.1188
  481HK4    C4740323   2.919   9.993   4.920 -0.1899  0.3934 -0.2456
  481HK4    H2740324   2.820  10.027   4.886 -1.0511 -2.1488 -0.3276
  481HK4    C4640325   2.989   9.907   4.837 -0.0973 -0.2561  0.5063
  481HK4    H2640326   2.950   9.887   4.735 -1.2251 -0.3287  0.9422
  481HK4    C4040327   3.114   9.850   4.869 -0.1396 -0.4770  0.2934
  481HK4    C5040328   3.153   9.887   5.000 -0.7379 -0.0459  0.3562
  481HK4    H3040329   3.217   9.812   5.049  1.2552  0.4559 -1.4057
  481HK4    C4940330   3.092   9.988   5.073 -0.0912  0.2776  0.4582
  481HK4    H2940331   3.145  10.020   5.164  1.4571 -1.4895  0.2166
  481HK4     N240332   3.187   9.760   4.792  0.0415 -0.1906  0.1321
  481HK4    C3040333   3.134   9.667   4.699 -0.2942  0.3286 -0.1998
  481HK4    C2940334   3.042   9.566   4.722  0.2791 -0.0952  0.2275
  481HK4    H1540335   3.011   9.556   4.827 -1.0622  0.4032 -0.1061
  481HK4    C2840336   3.011   9.472   4.625  0.2495 -0.0072  0.1520
  481HK4    C2740337   3.074   9.472   4.499  1.2330 -0.8499  0.6305
  481HK4    H1440338   3.049   9.399   4.420 -0.8200 -0.7266  1.1254
  481HK4    C3240339   3.180   9.560   4.483  0.5908 -0.1129  0.3237
  481HK4    H1640340   3.239   9.569   4.391 -0.3772  1.6606 -0.1435
  481HK4    C3140341   3.216   9.651   4.581  0.4371 -0.1040  0.3675
  481HK4    C3440342   3.334   9.730   4.613  0.3255  0.2361 -0.0641
  481HK4    C3340343   3.314   9.795   4.741 -0.1137  0.0900 -0.0590
  481HK4    C3540344   3.409   9.886   4.785 -0.1711  0.2352 -0.2359
  481HK4    H1740345   3.394   9.949   4.873 -0.1102  0.6556 -0.5224
  481HK4    C3640346   3.523   9.909   4.710 -0.4332  0.3344 -0.6043
  481HK4    H1840347   3.595   9.984   4.746 -1.0462  0.6865 -0.1022
  481HK4    C3740348   3.548   9.850   4.587  0.5838 -0.4797 -0.0168
  481HK4    H1940349   3.634   9.882   4.528  0.7528 -2.1651 -0.7446
  481HK4    C3840350   3.451   9.759   4.544  0.3524 -0.1568 -0.1811
  481HK4    H2040351   3.468   9.706   4.450 -0.3802 -1.3919  0.3751
  481HK4    C1440352   2.945   9.346   4.664  0.1816 -0.0061  0.0406
  481HK4     C940353   2.972   9.224   4.601  0.1667 -0.2068  0.4244
  481HK4     C840354   2.873   9.128   4.569  0.0053  0.0747  0.0882
  481HK4    C1140355   2.748   9.155   4.623  0.3080 -0.0293  0.8486
  481HK4     H440356   2.664   9.085   4.609  0.5745  0.2866 -2.6362
  481HK4    C1240357   2.721   9.269   4.699 -0.3087  0.1832  0.3209
  481HK4     H540358   2.619   9.289   4.732 -1.0593 -0.9505 -1.2175
  481HK4    C1340359   2.819   9.363   4.726  0.1621 -0.2293  0.0665
  481HK4     H640360   2.805   9.466   4.762  1.4388  0.1067 -0.3595
  481HK4     C740361   2.905   9.015   4.480  0.4714 -0.0469  0.4048
  481HK4     O240362   2.815   8.938   4.446  0.4242  0.0738  0.2499
  481HK4     C440363   3.039   9.003   4.419  0.4134 -0.9041  0.4370
  481HK4     C340364   3.067   8.908   4.322  0.1073 -0.2233 -0.3192
  481HK4     H340365   2.986   8.854   4.270 -1.6954 -0.0608  2.2332
  481HK4     C240366   3.196   8.890   4.275  0.3689 -0.7193  0.5843
  481HK4     H240367   3.210   8.818   4.193  1.2902 -0.0645  0.1409
  481HK4     C140368   3.296   8.977   4.319  0.2701 -0.1708 -0.2623
  481HK4     H140369   3.399   8.942   4.302 -0.0738 -1.2185 -0.2096
  481HK4     C640370   3.268   9.080   4.411 -0.3319 -0.2178 -0.3857
  481HK4     C540371   3.143   9.082   4.473 -0.2364  0.4012 -0.2112
  481HK4    C1040372   3.114   9.184   4.577  0.2580  0.4355 -0.1041
  481HK4     O140373   3.193   9.192   4.671 -0.4472 -0.1000  0.5374
  481HK4    C1640374   3.349   9.199   4.378 -0.3093 -0.1615 -0.1312
  481HK4    C1540375   3.377   9.243   4.247 -0.3487  0.3233  0.0252
  481HK4     H740376   3.322   9.188   4.169  0.1627 -0.7930  0.4383
  481HK4    C2040377   3.463   9.349   4.220  0.2139 -0.0781  0.2372
  481HK4     H940378   3.479   9.391   4.121  0.9631  0.8711  0.7573
  481HK4    C1940379   3.534   9.407   4.325  0.2428  0.2236  0.0513
  481HK4    C1840380   3.516   9.359   4.460  0.0682  0.2738  0.0474
  481HK4    C1740381   3.424   9.256   4.480 -0.0383  0.2543 -0.5604
  481HK4     H840382   3.434   9.199   4.572  0.1430  2.0937  0.5815
  481HK4     N140383   3.595   9.433   4.550  0.4015 -0.2118  0.1624
  481HK4    C2140384   3.667   9.526   4.472 -0.0870  0.2970  0.3094
  481HK4    C2240385   3.636   9.510   4.332 -0.2316  0.6740  0.2986
  481HK4    C2640386   3.696   9.588   4.233  0.3798  0.1555  0.2564
  481HK4    H1340387   3.693   9.548   4.132 -0.0075 -0.6085  0.5582
  481HK4    C2540388   3.780   9.692   4.269  0.3866  0.2367 -0.0060
  481HK4    H1240389   3.841   9.741   4.192  2.1727 -1.3750  0.3554
  481HK4    C2440390   3.800   9.716   4.404  0.2500  0.0161  0.0543
  481HK4    H1140391   3.874   9.791   4.437 -0.2827  0.5425  0.0808
  481HK4    C2340392   3.746   9.636   4.504  0.0617  0.2402  0.1352
  481HK4    H1040393   3.760   9.663   4.609 -2.4935 -1.2654  0.9111
  481HK4    C3940394   3.577   9.423   4.688 -0.3630 -0.5185  0.0458
  481HK4    C4140395   3.680   9.469   4.773 -0.2082 -0.2283 -0.3011
  481HK4    H2140396   3.785   9.457   4.742 -0.1420 -1.7529  0.4517
  481HK4    C4240397   3.656   9.509   4.904  0.3245 -0.5763 -0.0967
  481HK4    H2240398   3.732   9.544   4.975  0.3738 -1.6263  0.3843
  481HK4    C4340399   3.529   9.504   4.959  0.2326 -0.1223 -0.2759
  481HK4    H2340400   3.516   9.527   5.065 -0.0438  2.1208 -0.7766
  481HK4    C4440401   3.424   9.459   4.879 -0.2530  0.3483  0.0903
  481HK4    H2440402   3.321   9.485   4.905 -0.6489 -1.3633  0.2985
  481HK4    C4540403   3.450   9.416   4.750 -0.2035 -0.5090  0.3811
  481HK4    H2540404   3.361   9.401   4.688 -0.7488 -2.3239  1.5819
  482HK4    H2840405   6.416   8.909   3.938  0.5241  0.9554 -0.8864
  482HK4    C4840406   6.357   8.931   3.849 -0.0124  0.6756 -0.6010
  482HK4    C4740407   6.304   8.823   3.779  0.0771  0.2578 -0.0275
  482HK4    H2740408   6.343   8.723   3.805 -0.4422 -0.0202 -0.3225
  482HK4    C4640409   6.189   8.837   3.702  0.1363 -0.1640 -0.1926
  482HK4    H2640410   6.150   8.738   3.674  0.2953  0.4031 -2.4677
  482HK4    C4040411   6.123   8.961   3.687  0.1512 -0.1720 -0.3471
  482HK4    C5040412   6.182   9.069   3.755 -0.0937 -0.1771 -0.1281
  482HK4    H3040413   6.149   9.169   3.722 -3.6666 -0.6087  1.9490
  482HK4    C4940414   6.295   9.054   3.834 -0.2846  0.6598  0.3100
  482HK4    H2940415   6.329   9.134   3.901 -1.2198 -0.5369  2.2331
  482HK4     N240416   6.022   8.975   3.591  0.2209 -0.1084 -0.4101
  482HK4    C3040417   6.001   8.893   3.479 -0.2116 -0.6441  0.0680
  482HK4    C2940418   6.084   8.813   3.401  0.1573  0.0026 -0.2015
  482HK4    H1540419   6.190   8.838   3.415 -0.8201  4.5331 -0.0200
  482HK4    C2840420   6.047   8.726   3.299  0.0550 -0.0552 -0.1154
  482HK4    C2740421   5.907   8.719   3.280 -0.0149 -0.2606  0.4899
  482HK4    H1440422   5.869   8.652   3.202 -0.1860 -0.7606  0.9909
  482HK4    C3240423   5.817   8.797   3.352 -0.0459 -0.2299  0.4203
  482HK4    H1640424   5.708   8.794   3.341 -0.0174  1.3457 -0.4449
  482HK4    C3140425   5.860   8.888   3.447 -0.2566  0.1471  0.1511
  482HK4    C3440426   5.796   8.985   3.534 -0.1598 -0.4811  0.9331
  482HK4    C3340427   5.897   9.029   3.628  0.3890 -0.1106  0.1683
  482HK4    C3540428   5.851   9.105   3.735 -0.1651  0.0872 -0.2080
  482HK4    H1740429   5.926   9.156   3.795  1.0836 -1.1104 -0.7141
  482HK4    C3640430   5.717   9.126   3.762 -0.1791  0.0733 -0.2630
  482HK4    H1840431   5.692   9.191   3.847 -1.8775  2.6343 -2.6205
  482HK4    C3740432   5.623   9.074   3.674 -0.2425 -0.7585  0.2891
  482HK4    H1940433   5.517   9.100   3.682 -0.0159  0.9142 -1.6832
  482HK4    C3840434   5.660   9.002   3.561 -0.3337  0.2607 -0.3874
  482HK4    H2040435   5.590   8.937   3.509 -2.5398  1.4296  1.0637
  482HK4    C1440436   6.141   8.663   3.206  0.4255  0.5591 -0.1633
  482HK4     C940437   6.111   8.613   3.078 -0.3419  0.0905  0.1922
  482HK4     C840438   6.171   8.494   3.031 -0.2609  0.3125 -0.2750
  482HK4    C1140439   6.272   8.438   3.107  0.0127  0.6303 -0.4051
  482HK4     H440440   6.308   8.339   3.074 -2.8010 -0.3763 -0.5406
  482HK4    C1240441   6.321   8.495   3.224  0.2918 -0.1558 -0.1330
  482HK4     H540442   6.394   8.445   3.289  1.3164  0.1494 -1.0328
  482HK4    C1340443   6.254   8.609   3.269  0.3923  0.0619 -0.5254
  482HK4     H640444   6.304   8.675   3.341 -0.0530 -0.4776  0.2854
  482HK4     C740445   6.145   8.436   2.897  0.1002 -0.4662 -0.0062
  482HK4     O240446   6.165   8.316   2.876 -0.1620 -0.4395 -0.3987
  482HK4     C440447   6.070   8.520   2.802  0.3780  0.1034  0.2741
  482HK4     C340448   6.029   8.465   2.681 -0.3828 -0.1529  0.6429
  482HK4     H340449   6.047   8.359   2.657  0.2319 -0.6055  2.9823
  482HK4     C240450   5.983   8.543   2.576  0.3001 -0.5360  0.0546
  482HK4     H240451   5.944   8.497   2.484 -2.4265 -0.3714  1.0930
  482HK4     C140452   5.986   8.679   2.602  0.1055 -0.4359 -0.4135
  482HK4     H140453   5.915   8.735   2.539 -0.9078  1.6365  2.4533
  482HK4     C640454   6.038   8.746   2.715 -0.0684 -0.3456 -0.3867
  482HK4     C540455   6.066   8.659   2.821 -0.7480  0.0913  0.1522
  482HK4    C1040456   6.061   8.697   2.966 -0.6120 -0.0665  0.1978
  482HK4     O140457   5.977   8.783   2.992  0.1290  0.6378  0.2732
  482HK4    C1640458   6.098   8.877   2.684  0.2609 -0.3638  0.1772
  482HK4    C1540459   6.091   8.948   2.562 -0.2878 -0.0331  0.3994
  482HK4     H740460   6.069   8.883   2.476  2.3399  0.1432 -0.4321
  482HK4    C2040461   6.129   9.080   2.539  0.2747 -0.3078 -0.2565
  482HK4     H940462   6.117   9.137   2.447 -1.2346 -2.7306 -1.6224
  482HK4    C1940463   6.183   9.147   2.648 -0.1595 -0.0983 -0.1704
  482HK4    C1840464   6.210   9.077   2.772  0.0691 -0.2828 -0.3270
  482HK4    C1740465   6.169   8.944   2.783  0.0509 -0.2347  0.2423
  482HK4     H840466   6.196   8.899   2.878 -1.2014  1.9829  1.6964
  482HK4     N140467   6.291   9.158   2.855 -0.4456  0.3821 -0.4787
  482HK4    C2140468   6.302   9.284   2.792 -0.0131  0.4020 -0.3645
  482HK4    C2240469   6.242   9.278   2.660  0.1626 -0.2200 -0.4195
  482HK4    C2640470   6.262   9.380   2.567 -0.8690  0.4455  0.0817
  482HK4    H1340471   6.206   9.371   2.474 -1.3164 -0.5397  0.4437
  482HK4    C2540472   6.334   9.493   2.602 -0.4263  0.2098 -0.0623
  482HK4    H1240473   6.366   9.561   2.523 -1.5002 -0.2170 -0.8540
  482HK4    C2440474   6.388   9.502   2.730  0.2372 -0.6974 -0.2729
  482HK4    H1140475   6.454   9.587   2.752  0.7786 -0.9274 -0.9875
  482HK4    C2340476   6.377   9.397   2.821  0.0585  0.1031  0.6411
  482HK4    H1040477   6.417   9.425   2.918 -0.4729  0.6395  0.7151
  482HK4    C3940478   6.298   9.143   2.994  0.2233 -0.3137 -0.5889
  482HK4    C4140479   6.414   9.186   3.062  0.0040  0.2275 -0.5602
  482HK4    H2140480   6.504   9.226   3.013  0.3376 -2.3690 -2.1540
  482HK4    C4240481   6.410   9.190   3.201  0.3207 -0.3126 -0.5342
  482HK4    H2240482   6.499   9.212   3.261  0.3629 -1.9377  0.0281
  482HK4    C4340483   6.300   9.153   3.278  0.2246 -0.0150 -0.5283
  482HK4    H2340484   6.283   9.203   3.373  2.0816  0.2057 -0.2973
  482HK4    C4440485   6.192   9.096   3.212  0.1040 -0.2399 -0.1409
  482HK4    H2440486   6.107   9.053   3.267 -0.7530  0.3853 -0.9475
  482HK4    C4540487   6.193   9.093   3.073  0.6848 -0.5696 -0.1315
  482HK4    H2540488   6.101   9.052   3.027  0.8110  0.4267 -1.2959
  483HK4    H2840489   6.725   2.736   2.899 -0.5796 -1.7357 -0.1745
  483HK4    C4840490   6.827   2.715   2.868  0.0783  0.2740  0.5723
  483HK4    C4740491   6.907   2.628   2.941 -0.1400 -0.3378  0.0845
  483HK4    H2740492   6.855   2.536   2.974 -0.7786  0.0868  0.2775
  483HK4    C4640493   7.045   2.619   2.939 -0.1523 -0.4394 -0.4130
  483HK4    H2640494   7.104   2.545   2.994  1.3431  0.2459 -1.0478
  483HK4    C4040495   7.107   2.702   2.843 -0.3647  0.5265  0.2671
  483HK4    C5040496   7.030   2.791   2.767 -0.0754  0.4521 -0.1171
  483HK4    H3040497   7.079   2.852   2.689  1.3040 -0.3699  0.1011
  483HK4    C4940498   6.891   2.795   2.774 -0.1080 -0.4975 -0.2131
  483HK4    H2940499   6.829   2.852   2.703 -0.2797  0.0687  0.3958
  483HK4     N240500   7.232   2.665   2.790 -0.0172 -0.0814  1.4818
  483HK4    C3040501   7.283   2.534   2.783  0.0313  0.0187 -0.3314
  483HK4    C2940502   7.213   2.415   2.798  0.5229 -0.0724  1.3176
  483HK4    H1540503   7.105   2.417   2.783  0.4262 -1.4021  1.7183
  483HK4    C2840504   7.275   2.290   2.798  0.1057 -0.2868 -0.6291
  483HK4    C2740505   7.416   2.291   2.791  0.1867 -0.4388  0.8726
  483HK4    H1440506   7.476   2.200   2.777 -1.0026 -1.0141 -0.6572
  483HK4    C3240507   7.486   2.411   2.793 -0.4122 -0.0641 -0.1683
  483HK4    H1640508   7.594   2.401   2.787 -0.1884  0.0855  3.0500
  483HK4    C3140509   7.428   2.537   2.787  0.0162  0.1491  0.1531
  483HK4    C3440510   7.466   2.677   2.787 -0.1065  0.1821  0.1331
  483HK4    C3340511   7.342   2.753   2.784 -0.1859  0.0623  0.3085
  483HK4    C3540512   7.346   2.892   2.784  0.1439  0.0539  0.3848
  483HK4    H1740513   7.254   2.949   2.770 -0.0625 -0.5943 -0.9688
  483HK4    C3640514   7.471   2.952   2.778  0.0272  0.1967 -0.7401
  483HK4    H1840515   7.480   3.060   2.796  0.9587  0.1330 -0.7905
  483HK4    C3740516   7.590   2.882   2.766 -0.0549 -0.0087 -0.3512
  483HK4    H1940517   7.679   2.944   2.754  0.8266 -1.2113 -0.2211
  483HK4    C3840518   7.587   2.744   2.782 -0.0238  0.0031 -0.2391
  483HK4    H2040519   7.687   2.699   2.778  1.0096  2.0998  1.1591
  483HK4    C1440520   7.208   2.172   2.853  0.3320 -0.2116 -0.1947
  483HK4     C940521   7.268   2.079   2.939  0.0426 -0.3330 -0.1199
  483HK4     C840522   7.230   1.943   2.939 -0.3371 -0.2300  0.6044
  483HK4    C1140523   7.107   1.911   2.883 -0.0919 -0.0866 -0.0264
  483HK4     H440524   7.075   1.806   2.897 -0.0699  0.0858  1.4051
  483HK4    C1240525   7.031   2.005   2.815  0.0998 -0.0706 -0.2184
  483HK4     H540526   6.930   1.985   2.775  0.7479 -0.5394 -1.6392
  483HK4    C1340527   7.085   2.131   2.796  0.3722 -0.1975 -0.2890
  483HK4     H640528   7.023   2.206   2.745 -1.5441 -0.0247  2.1702
  483HK4     C740529   7.322   1.841   2.994  0.1485  0.1872  0.5709
  483HK4     O240530   7.311   1.721   2.969  0.8091  0.2856 -0.2413
  483HK4     C440531   7.438   1.885   3.075  0.5269  0.0871  0.0895
  483HK4     C340532   7.518   1.791   3.139 -0.0667 -0.2957  0.2778
  483HK4     H340533   7.482   1.688   3.148  1.3682 -0.8312  0.0916
  483HK4     C240534   7.628   1.823   3.218  0.2727  0.3480 -0.4441
  483HK4     H240535   7.706   1.758   3.260 -1.0883 -1.1925 -0.2415
  483HK4     C140536   7.652   1.959   3.235  0.4425  0.2488  0.1233
  483HK4     H140537   7.739   1.989   3.295  1.1869 -1.1938 -0.2162
  483HK4     C640538   7.573   2.058   3.172  0.6214  0.0547 -0.4043
  483HK4     C540539   7.466   2.022   3.090 -0.0584  0.1683  0.4343
  483HK4    C1040540   7.370   2.124   3.038  0.1769 -0.0320 -0.3953
  483HK4     O140541   7.338   2.219   3.109 -0.3524 -0.3381 -0.2286
  483HK4    C1640542   7.617   2.195   3.204 -0.9963  0.3844  0.4417
  483HK4    C1540543   7.630   2.298   3.109 -0.3338  0.2166  0.3476
  483HK4     H740544   7.639   2.273   3.002 -1.2157 -1.4922  0.6451
  483HK4    C2040545   7.648   2.433   3.137 -0.0521  0.2747 -0.1077
  483HK4     H940546   7.660   2.508   3.059  0.0494 -1.9098 -2.2588
  483HK4    C1940547   7.639   2.471   3.270 -0.4170 -0.1285 -0.0128
  483HK4    C1840548   7.630   2.367   3.370  0.3366 -0.1071  0.0837
  483HK4    C1740549   7.618   2.232   3.338  0.0494 -0.2068  0.6048
  483HK4     H840550   7.591   2.151   3.406 -2.5414  1.7664  2.0353
  483HK4     N140551   7.633   2.435   3.493  0.1627  0.0446  0.0058
  483HK4    C2140552   7.625   2.574   3.472  0.0933 -0.0012 -0.2768
  483HK4    C2240553   7.616   2.601   3.330 -0.2138  0.0200 -0.2524
  483HK4    C2640554   7.600   2.732   3.287  0.1385  0.0887 -0.1737
  483HK4    H1340555   7.599   2.757   3.181  1.0785  2.3526  0.3196
  483HK4    C2540556   7.582   2.832   3.383 -0.3583  0.2080 -0.3929
  483HK4    H1240557   7.547   2.928   3.344  1.5612  0.8018 -0.6824
  483HK4    C2440558   7.593   2.807   3.519 -0.4830  0.3258 -0.3606
  483HK4    H1140559   7.602   2.886   3.595 -1.4547 -0.5982  0.7354
  483HK4    C2340560   7.606   2.676   3.564  0.1984  0.3068 -0.5965
  483HK4    H1040561   7.623   2.663   3.671 -1.2277 -0.1478 -0.4029
  483HK4    C3940562   7.686   2.376   3.609  0.3073  0.3500  0.0951
  483HK4    C4140563   7.643   2.419   3.737  0.2492 -0.3489  0.3123
  483HK4    H2140564   7.541   2.459   3.746  0.6645  0.6822  0.5471
  483HK4    C4240565   7.716   2.377   3.848  0.2411 -0.9854  0.0801
  483HK4    H2240566   7.683   2.408   3.948  3.8621  0.5600  0.8780
  483HK4    C4340567   7.833   2.303   3.839  0.7764 -0.2326  0.7471
  483HK4    H2340568   7.891   2.278   3.928  1.0396 -0.2799  0.5627
  483HK4    C4440569   7.869   2.251   3.715  0.1502  0.3566  0.3150
  483HK4    H2440570   7.963   2.195   3.707 -1.0443 -1.6215 -0.0486
  483HK4    C4540571   7.791   2.282   3.605  0.3295  0.3693  0.1921
  483HK4    H2540572   7.825   2.242   3.508 -0.3355  0.5080 -0.1076
  484HK4    H2840573   2.237   3.690   8.016  0.1540  0.5651 -1.6763
  484HK4    C4840574   2.319   3.619   8.025 -0.5547 -0.1334 -0.5541
  484HK4    C4740575   2.415   3.616   7.924  0.4246  0.2878  0.3599
  484HK4    H2740576   2.404   3.690   7.843 -0.9626 -1.4416 -1.0659
  484HK4    C4640577   2.515   3.520   7.914  0.2602  0.0950  0.5751
  484HK4    H2640578   2.603   3.539   7.851  1.5252  0.5774  2.4661
  484HK4    C4040579   2.520   3.411   8.004  0.9589  0.1546  0.6109
  484HK4    C5040580   2.421   3.415   8.104 -0.2121 -0.0739 -0.5342
  484HK4    H3040581   2.404   3.322   8.160  1.8780 -0.5476 -0.6375
  484HK4    C4940582   2.325   3.515   8.116  0.3224  0.3756 -0.0230
  484HK4    H2940583   2.250   3.497   8.195  0.9658  0.3167  0.5801
  484HK4     N240584   2.590   3.294   7.973 -0.2843 -0.4947  0.2474
  484HK4    C3040585   2.647   3.256   7.850  0.4144  0.5931  0.2344
  484HK4    C2940586   2.621   3.309   7.724  0.5399 -0.0748 -0.0748
  484HK4    H1540587   2.560   3.399   7.707  0.7703  0.7137  2.9449
  484HK4    C2840588   2.681   3.259   7.609  0.5594  0.4044 -0.2768
  484HK4    C2740589   2.773   3.153   7.622 -0.3121 -0.3933 -0.5754
  484HK4    H1440590   2.817   3.102   7.535 -0.5818 -1.5353 -0.0535
  484HK4    C3240591   2.796   3.098   7.747  0.2457  0.6598 -0.2126
  484HK4    H1640592   2.861   3.010   7.751  0.2388  0.5196 -2.4255
  484HK4    C3140593   2.730   3.138   7.863 -0.0827  0.1885 -0.2348
  484HK4    C3440594   2.728   3.110   8.005  0.0786 -0.5362 -0.3706
  484HK4    C3340595   2.642   3.207   8.071  0.1230 -0.6676 -0.1243
  484HK4    C3540596   2.637   3.206   8.210 -0.2219 -0.1223 -0.1304
  484HK4    H1740597   2.591   3.286   8.268 -0.1256 -0.2227  0.0811
  484HK4    C3640598   2.698   3.104   8.282  0.0538  0.2626  0.1782
  484HK4    H1840599   2.669   3.083   8.386 -3.1949  1.3156 -0.4714
  484HK4    C3740600   2.786   3.015   8.222 -0.3755 -0.3206  0.4227
  484HK4    H1940601   2.844   2.948   8.286  0.9572 -0.4434 -0.8897
  484HK4    C3840602   2.802   3.024   8.084 -0.2014 -0.0179  0.4628
  484HK4    H2040603   2.860   2.945   8.035  0.5577  0.1455  1.0771
  484HK4    C1440604   2.632   3.298   7.476  0.0491 -0.1076 -0.2427
  484HK4     C940605   2.660   3.210   7.371 -0.2257 -0.2571 -0.1909
  484HK4     C840606   2.725   3.263   7.258  0.0083  0.3018  0.2027
  484HK4    C1140607   2.728   3.401   7.241 -0.3048  0.1855 -0.8395
  484HK4     H440608   2.806   3.445   7.178  0.7517 -0.9301 -0.3180
  484HK4    C1240609   2.673   3.488   7.335  0.0496 -0.6934  0.1918
  484HK4     H540610   2.673   3.598   7.326 -2.9464 -0.6002  1.0855
  484HK4    C1340611   2.629   3.437   7.456 -0.2522 -0.0243  0.3656
  484HK4     H640612   2.580   3.502   7.530  0.9616  2.3132 -0.7999
  484HK4     C740613   2.776   3.169   7.156  0.3847  0.2981  0.3984
  484HK4     O240614   2.846   3.217   7.067 -0.1811 -0.5415 -0.4990
  484HK4     C440615   2.749   3.024   7.166  0.2615  0.3064  0.1844
  484HK4     C340616   2.775   2.935   7.063 -0.0764  0.4006  0.0207
  484HK4     H340617   2.808   2.965   6.962 -0.4391 -1.2267 -0.6134
  484HK4     C240618   2.757   2.798   7.077  0.3046  0.3995  0.4928
  484HK4     H240619   2.772   2.732   6.990  0.1052  1.7769 -0.5995
  484HK4     C140620   2.718   2.743   7.199 -0.5245 -0.3132 -0.0874
  484HK4     H140621   2.691   2.636   7.206 -1.4588 -0.0510  0.3778
  484HK4     C640622   2.702   2.829   7.309  0.2961 -0.2036 -0.0523
  484HK4     C540623   2.695   2.966   7.283 -0.3767 -0.3022 -0.4071
  484HK4    C1040624   2.630   3.064   7.375 -0.1790 -0.2701 -0.3021
  484HK4     O140625   2.513   3.044   7.406 -0.1009 -0.1840  0.0524
  484HK4    C1640626   2.732   2.773   7.442 -0.1872 -0.7277 -0.1592
  484HK4    C1540627   2.798   2.650   7.453  1.0144 -0.0645  0.1584
  484HK4     H740628   2.868   2.634   7.369  1.7979  1.1814  0.5624
  484HK4    C2040629   2.788   2.562   7.560  0.0439  0.1385  0.2307
  484HK4     H940630   2.818   2.457   7.555 -1.4480 -0.2748 -0.5410
  484HK4    C1940631   2.713   2.607   7.668  0.5247  0.3415  0.4787
  484HK4    C1840632   2.658   2.741   7.673 -0.6137 -0.0829 -0.4856
  484HK4    C1740633   2.669   2.818   7.557  0.6196  0.3208 -0.1117
  484HK4     H840634   2.644   2.923   7.572 -1.6365 -0.4087  1.6206
  484HK4     N140635   2.593   2.758   7.797  0.0529  0.0748 -0.1553
  484HK4    C2140636   2.595   2.635   7.866 -0.2951  0.0460 -0.1982
  484HK4    C2240637   2.683   2.544   7.796 -0.0448 -0.0007  0.1773
  484HK4    C2640638   2.709   2.415   7.841  0.1447 -0.0482 -0.0620
  484HK4    H1340639   2.767   2.350   7.775 -1.1439 -0.7352 -0.5277
  484HK4    C2540640   2.651   2.377   7.961  0.3429 -0.5749 -0.1346
  484HK4    H1240641   2.667   2.277   8.003 -1.4445 -0.8904 -0.1382
  484HK4    C2440642   2.571   2.467   8.030  0.4403 -0.2094 -0.5013
  484HK4    H1140643   2.496   2.424   8.098 -0.5947  3.0293  0.5448
  484HK4    C2340644   2.543   2.597   7.989  0.2049 -0.1124 -0.0345
  484HK4    H1040645   2.512   2.675   8.059 -0.5414 -1.3772  1.0522
  484HK4    C3940646   2.498   2.860   7.812  0.1498  0.1244  0.1099
  484HK4    C4140647   2.474   2.907   7.943  0.0059  0.2151  0.0500
  484HK4    H2140648   2.547   2.891   8.024 -1.6331  0.2932  1.5830
  484HK4    C4240649   2.360   2.981   7.973 -0.0641 -0.1441  0.6889
  484HK4    H2240650   2.361   3.029   8.072  0.6120 -0.3992  0.8118
  484HK4    C4340651   2.261   2.993   7.877  0.0643 -0.5750  0.5006
  484HK4    H2340652   2.168   3.046   7.899  0.8427  0.8614  0.4473
  484HK4    C4440653   2.281   2.954   7.745  0.0397  0.1810  0.2678
  484HK4    H2440654   2.218   2.984   7.660  1.2388 -1.9352 -1.4241
  484HK4    C4540655   2.399   2.886   7.716 -0.0595 -0.0016  0.2918
  484HK4    H2540656   2.412   2.835   7.620 -3.2670  1.8896 -1.2289
  485HK4    H2840657  11.026   0.874   3.362 -1.0903 -1.0805  1.0251
  485HK4    C4840658  10.946   0.894   3.291 -0.0505 -0.0058  0.1457
  485HK4    C4740659  10.867   1.007   3.312  0.0127  0.0245  0.2266
  485HK4    H2740660  10.866   1.048   3.414  0.7838  1.4907 -0.3411
  485HK4    C4640661  10.800   1.067   3.206 -0.1482 -0.2530  0.1706
  485HK4    H2640662  10.744   1.158   3.229  1.9157  0.5231  2.2973
  485HK4    C4040663  10.816   1.013   3.076 -0.4048 -0.0478  0.0547
  485HK4    C5040664  10.884   0.891   3.059 -1.0413 -0.4216  0.1655
  485HK4    H3040665  10.890   0.839   2.962  0.7899 -1.6067  0.8756
  485HK4    C4940666  10.953   0.834   3.166  0.0771  0.4709 -0.0778
  485HK4    H2940667  11.022   0.749   3.156 -0.5024 -0.2921  2.1106
  485HK4     N240668  10.742   1.047   2.962 -0.4700 -0.0736  0.0887
  485HK4    C3040669  10.623   1.121   2.957 -0.0672  0.5589 -0.1938
  485HK4    C2940670  10.517   1.109   3.047  0.0173 -0.1960 -0.1979
  485HK4    H1540671  10.522   1.030   3.122  0.0735 -0.2340 -0.2406
  485HK4    C2840672  10.397   1.175   3.027  0.1621  0.1993  0.2443
  485HK4    C2740673  10.378   1.249   2.909 -0.1877  0.1094  0.2421
  485HK4    H1440674  10.280   1.292   2.882 -0.0814  1.5951  2.1000
  485HK4    C3240675  10.481   1.262   2.816 -0.2643  0.0024  0.1457
  485HK4    H1640676  10.473   1.324   2.727  1.8672 -0.5246 -0.4581
  485HK4    C3140677  10.600   1.191   2.833 -0.1811 -0.0155 -0.4962
  485HK4    C3440678  10.717   1.161   2.753 -0.0171 -0.6216 -0.0320
  485HK4    C3340679  10.799   1.075   2.836  0.2065  0.0150  0.4117
  485HK4    C3540680  10.922   1.036   2.784  0.0314  0.1671 -0.1236
  485HK4    H1740681  10.987   0.962   2.832  0.9688  1.2250  0.2711
  485HK4    C3640682  10.951   1.067   2.652 -0.5092 -0.2860 -0.3511
  485HK4    H1840683  11.032   1.010   2.605 -2.2792 -1.6248 -1.8535
  485HK4    C3740684  10.867   1.140   2.569 -0.1610  0.1435 -0.3304
  485HK4    H1940685  10.893   1.151   2.464 -0.6893 -0.2659 -0.5059
  485HK4    C3840686  10.750   1.194   2.622 -0.0290 -0.0091  0.1139
  485HK4    H2040687  10.678   1.247   2.560  0.6676  0.8586  0.0306
  485HK4    C1440688  10.296   1.164   3.134 -0.0722  0.5108  0.0522
  485HK4     C940689  10.157   1.161   3.116 -0.0337 -0.2433 -0.1431
  485HK4     C840690  10.079   1.202   3.226  0.1867  0.3838 -0.2212
  485HK4    C1140691  10.131   1.239   3.349 -0.4219 -0.3649  0.2660
  485HK4     H440692  10.075   1.262   3.441  1.2549 -1.1594  1.5071
  485HK4    C1240693  10.269   1.237   3.364 -0.3849 -0.3395 -0.0695
  485HK4     H540694  10.317   1.278   3.454  1.3735 -0.8415 -0.7446
  485HK4    C1340695  10.351   1.196   3.260  0.0950  0.4202  0.0010
  485HK4     H640696  10.454   1.163   3.280 -1.3895 -2.8818  2.6656
  485HK4     C740697   9.932   1.200   3.207  0.1865 -0.5111 -0.1368
  485HK4     O240698   9.863   1.204   3.308 -0.2948  0.2496 -0.4927
  485HK4     C440699   9.868   1.166   3.078  0.1689 -0.2425 -0.1995
  485HK4     C340700   9.730   1.162   3.066  0.1320  0.0356  0.1186
  485HK4     H340701   9.663   1.190   3.149 -0.4364  2.4189 -1.1083
  485HK4     C240702   9.667   1.113   2.952 -0.0709 -0.4228  0.4265
  485HK4     H240703   9.558   1.099   2.944 -0.1785  1.0420 -0.9059
  485HK4     C140704   9.745   1.070   2.846 -0.3727  0.0433  0.0174
  485HK4     H140705   9.699   1.053   2.747 -0.4213  0.2617  0.0016
  485HK4     C640706   9.885   1.086   2.850 -0.4077  0.4656 -0.2957
  485HK4     C540707   9.947   1.122   2.970  0.0374 -0.0642 -0.3674
  485HK4    C1040708  10.094   1.105   2.994 -0.0442 -0.3737 -0.0777
  485HK4     O140709  10.161   1.026   2.927 -0.1311 -0.3234 -0.2255
  485HK4    C1640710   9.945   1.070   2.716 -0.1368  0.0033 -0.1183
  485HK4    C1540711  10.053   1.151   2.679 -0.0494 -0.1117 -0.1189
  485HK4     H740712  10.093   1.238   2.734  1.7407 -0.3262 -1.0338
  485HK4    C2040713  10.134   1.122   2.569 -0.5006 -0.1262 -0.4481
  485HK4     H940714  10.208   1.196   2.540  0.7035 -0.9498  0.4895
  485HK4    C1940715  10.109   1.009   2.492 -0.6613 -0.2729 -0.1834
  485HK4    C1840716  10.001   0.921   2.532 -0.6819 -0.2757 -0.2475
  485HK4    C1740717   9.925   0.953   2.644  0.0061 -0.2241  0.2073
  485HK4     H840718   9.867   0.872   2.687  1.3366  0.0876  2.6287
  485HK4     N140719  10.004   0.799   2.460  0.2743 -0.4144  0.0281
  485HK4    C2140720  10.120   0.797   2.380 -0.1951  0.1035 -0.6627
  485HK4    C2240721  10.173   0.932   2.386 -0.1769  0.0729 -0.1454
  485HK4    C2640722  10.253   0.970   2.279  0.1486 -0.1222  0.0283
  485HK4    H1340723  10.269   1.077   2.266 -1.2010  0.0797 -0.0997
  485HK4    C2540724  10.293   0.880   2.182  0.5345 -0.3068  0.3582
  485HK4    H1240725  10.360   0.911   2.101  0.6896 -2.0748 -0.2248
  485HK4    C2440726  10.262   0.745   2.194  0.0066 -0.2432 -0.2689
  485HK4    H1140727  10.311   0.668   2.132  1.9750  1.2368 -0.6064
  485HK4    C2340728  10.167   0.705   2.287  0.8070 -0.5011  0.4367
  485HK4    H1040729  10.148   0.599   2.304  0.9286 -0.7290 -0.8441
  485HK4    C3940730   9.892   0.728   2.418  0.1116 -0.1116 -0.0472
  485HK4    C4140731   9.766   0.789   2.402  0.1198 -0.0505  0.1147
  485HK4    H2140732   9.750   0.895   2.427 -1.0753 -0.3326  0.5628
  485HK4    C4240733   9.655   0.715   2.361 -0.1607  0.2374  0.3483
  485HK4    H2240734   9.557   0.757   2.333  0.3233  0.1492 -1.5237
  485HK4    C4340735   9.670   0.579   2.337  0.1183  0.2892  0.2250
  485HK4    H2340736   9.600   0.531   2.269  0.4275 -1.3241  1.0189
  485HK4    C4440737   9.792   0.518   2.366  0.0773  0.2425  0.2869
  485HK4    H2440738   9.795   0.410   2.345 -1.0025 -0.0849  1.7078
  485HK4    C4540739   9.903   0.587   2.412  0.6752 -0.0427 -0.7107
  485HK4    H2540740   9.987   0.533   2.458  0.6991 -0.1153 -0.8402
  486HK4    H2840741   3.985   0.511   3.025  1.0426  0.2549  0.0905
  486HK4    C4840742   3.932   0.459   2.945  0.8322  0.0114  0.3892
  486HK4    C4740743   3.959   0.489   2.812 -0.2388  0.0342  0.1750
  486HK4    H2740744   3.980   0.592   2.782  0.9019 -0.0041  0.8241
  486HK4    C4640745   3.918   0.404   2.710 -0.2171  0.1789  0.0466
  486HK4    H2640746   3.946   0.426   2.606  2.8848 -0.2800  0.7370
  486HK4    C4040747   3.842   0.288   2.739 -0.1330  0.0818 -0.1269
  486HK4    C5040748   3.831   0.261   2.877  0.6679  0.4299  0.0096
  486HK4    H3040749   3.772   0.170   2.894 -1.2672  1.2963 -1.7702
  486HK4    C4940750   3.870   0.340   2.984  0.0794  0.3636  0.2755
  486HK4    H2940751   3.867   0.313   3.090  0.2896 -0.9622 -0.0540
  486HK4     N240752   3.747   0.240   2.648 -0.3075  0.0541  0.0701
  486HK4    C3040753   3.671   0.307   2.550 -0.3637  0.3851  0.3401
  486HK4    C2940754   3.649   0.442   2.524 -0.5031  0.2507 -0.2460
  486HK4    H1540755   3.705   0.517   2.579  0.4336 -0.8928  0.3897
  486HK4    C2840756   3.572   0.489   2.419 -0.2220  0.3696 -0.3975
  486HK4    C2740757   3.500   0.390   2.348 -0.4633 -0.2226  0.6709
  486HK4    H1440758   3.427   0.422   2.273 -0.5621 -1.0113  0.4253
  486HK4    C3240759   3.519   0.253   2.367  0.0488 -0.1900  0.4094
  486HK4    H1640760   3.473   0.183   2.297 -1.2251  1.5473 -0.5429
  486HK4    C3140761   3.607   0.209   2.465 -0.5091 -0.0749  0.9694
  486HK4    C3440762   3.644   0.078   2.514  0.2555 -0.2196  0.0146
  486HK4    C3340763   3.739   0.102   2.621  0.6016  0.0780 -0.3549
  486HK4    C3540764   3.795  11.242   2.688  0.4091 -0.2037 -0.6452
  486HK4    H1740765   3.845   0.017   2.782 -0.1359 -0.7920 -0.2039
  486HK4    C3640766   3.765  11.113   2.645  0.7455 -0.2323 -0.7886
  486HK4    H1840767   3.808  11.028   2.700  0.8291  0.5128  0.3207
  486HK4    C3740768   3.672  11.091   2.544  0.0430 -0.1154 -0.1777
  486HK4    H1940769   3.635  10.993   2.515  1.1761 -0.1466 -1.5812
  486HK4    C3840770   3.605  11.196   2.483 -0.1109 -0.1075  0.0066
  486HK4    H2040771   3.519  11.179   2.418 -0.0603 -1.3754  0.2654
  486HK4    C1440772   3.571   0.631   2.380  0.6469  0.2426 -0.8936
  486HK4     C940773   3.467   0.694   2.311 -0.3342 -0.9614 -0.5373
  486HK4     C840774   3.492   0.771   2.195  0.1264  0.0555  0.2357
  486HK4    C1140775   3.621   0.814   2.168  0.0045  0.1180 -0.2425
  486HK4     H440776   3.643   0.894   2.095  1.5327 -0.5209 -0.5218
  486HK4    C1240777   3.725   0.772   2.250  0.0672  0.0865 -0.3378
  486HK4     H540778   3.823   0.821   2.247  0.3869 -0.0513  3.8870
  486HK4    C1340779   3.700   0.681   2.353  0.8319  0.2509 -0.0061
  486HK4     H640780   3.777   0.665   2.430 -0.4382 -0.0731  1.2072
  486HK4     C740781   3.385   0.816   2.104  0.4147  0.0603 -0.0999
  486HK4     O240782   3.414   0.831   1.985  0.1607 -0.1385 -0.1868
  486HK4     C440783   3.250   0.823   2.164  0.2920  0.0821 -0.3777
  486HK4     C340784   3.150   0.882   2.088  0.1608  0.6886  0.2633
  486HK4     H340785   3.170   0.918   1.986  1.1611 -2.5063 -0.7071
  486HK4     C240786   3.026   0.913   2.144 -0.1821  0.0241 -0.1226
  486HK4     H240787   2.940   0.953   2.088  0.4235 -1.5034 -2.2250
  486HK4     C140788   3.012   0.898   2.281  0.6262  0.2943 -0.0063
  486HK4     H140789   2.915   0.916   2.330  1.4449  2.1992  0.9767
  486HK4     C640790   3.114   0.845   2.362  0.4296  0.1661  0.1579
  486HK4     C540791   3.228   0.793   2.300 -0.0349 -0.1036 -0.4706
  486HK4    C1040792   3.331   0.709   2.369 -0.1090 -0.0137 -0.2500
  486HK4     O140793   3.297   0.636   2.461  0.3282 -0.0541 -0.1221
  486HK4    C1640794   3.091   0.841   2.508  0.0458 -0.1490  0.0915
  486HK4    C1540795   2.959   0.831   2.556 -0.0298 -0.0810 -0.0994
  486HK4     H740796   2.878   0.791   2.494  1.2473 -1.6547 -0.8066
  486HK4    C2040797   2.929   0.846   2.691 -0.5906 -0.1582 -0.2147
  486HK4     H940798   2.836   0.800   2.722  1.0674 -1.7729  2.5194
  486HK4    C1940799   3.033   0.876   2.779 -0.3458 -0.1061 -0.5208
  486HK4    C1840800   3.171   0.879   2.734 -0.1562 -0.3235  0.0543
  486HK4    C1740801   3.191   0.879   2.597 -0.0247  0.0735  0.0744
  486HK4     H840802   3.292   0.906   2.566  0.2888 -1.3579 -0.1780
  486HK4     N140803   3.269   0.898   2.834 -0.1058  0.0924 -0.0732
  486HK4    C2140804   3.186   0.905   2.948 -0.2304  0.4030 -0.1841
  486HK4    C2240805   3.044   0.893   2.922 -0.1549  0.3576 -0.5872
  486HK4    C2640806   2.949   0.898   3.024  0.4332  0.3207 -0.0314
  486HK4    H1340807   2.845   0.915   2.998  0.0383  0.7341  1.7728
  486HK4    C2540808   3.002   0.912   3.151  0.2544  0.0155  0.0762
  486HK4    H1240809   2.936   0.938   3.234  1.3622 -1.1643  1.3594
  486HK4    C2440810   3.138   0.927   3.179  0.2513  0.2469 -0.0400
  486HK4    H1140811   3.168   0.939   3.284  1.1866 -1.5005 -0.0878
  486HK4    C2340812   3.231   0.934   3.076  0.1318 -0.1826 -0.1786
  486HK4    H1040813   3.330   0.975   3.094  0.4007 -1.2868  0.9207
  486HK4    C3940814   3.397   0.840   2.834  0.0395  0.4139  0.0196
  486HK4    C4140815   3.500   0.900   2.909 -0.2608  0.5280  0.3402
  486HK4    H2140816   3.508   1.010   2.919 -0.2166  0.4885  0.7348
  486HK4    C4240817   3.620   0.839   2.942  0.0179  0.3052 -1.0519
  486HK4    H2240818   3.705   0.905   2.962 -1.7724  2.7931 -1.4069
  486HK4    C4340819   3.644   0.710   2.896 -0.0639 -0.1302  0.0917
  486HK4    H2340820   3.723   0.646   2.935 -0.5644 -1.3688 -0.8720
  486HK4    C4440821   3.546   0.651   2.817 -0.5410  0.6103  0.1314
  486HK4    H2440822   3.545   0.546   2.786  1.8597  0.9350 -1.1608
  486HK4    C4540823   3.425   0.712   2.783 -0.3585  0.5700 -0.5954
  486HK4    H2540824   3.354   0.665   2.713 -0.4096  1.6330 -1.2709
  487HK4    H2840825   5.003   2.386   2.798 -0.9242 -0.6926 -1.3555
  487HK4    C4840826   5.086   2.436   2.748 -0.2600 -0.3752  0.0588
  487HK4    C4740827   5.052   2.540   2.663  0.4464 -0.3426 -0.1850
  487HK4    H2740828   4.949   2.550   2.625  0.6970  0.1759 -0.7412
  487HK4    C4640829   5.150   2.630   2.622  0.0771  0.0391 -0.2256
  487HK4    H2640830   5.119   2.722   2.570 -1.6146 -1.2537 -1.5901
  487HK4    C4040831   5.285   2.616   2.657  0.0512  0.2146 -0.0547
  487HK4    C5040832   5.314   2.500   2.732 -0.4426  0.1462  0.0280
  487HK4    H3040833   5.415   2.483   2.772 -0.4671  0.5653  0.2706
  487HK4    C4940834   5.218   2.415   2.786 -0.2419  0.0622  0.2455
  487HK4    H2940835   5.246   2.346   2.868 -0.2542 -1.9921 -1.4276
  487HK4     N240836   5.388   2.688   2.595  0.1809  0.2367  0.1868
  487HK4    C3040837   5.380   2.736   2.462  0.0700  0.3812  0.2466
  487HK4    C2940838   5.359   2.656   2.350  0.5485  0.0899  0.3644
  487HK4    H1540839   5.308   2.561   2.360 -2.1382  1.4269 -0.2568
  487HK4    C2840840   5.376   2.714   2.225 -0.1091 -0.1495  0.1644
  487HK4    C2740841   5.398   2.853   2.214  0.6128 -0.2680  0.0948
  487HK4    H1440842   5.388   2.902   2.116 -0.0908 -0.1625  0.2179
  487HK4    C3240843   5.421   2.934   2.324 -0.7725  0.5830 -0.2317
  487HK4    H1640844   5.446   3.039   2.307 -0.5512  0.6616  0.5411
  487HK4    C3140845   5.418   2.875   2.450  0.1740  0.3018 -0.3383
  487HK4    C3440846   5.486   2.902   2.575  0.3188  0.0786 -0.3693
  487HK4    C3340847   5.471   2.783   2.657  0.3694  0.2582 -0.0982
  487HK4    C3540848   5.534   2.778   2.780 -0.1752 -0.4722  0.1531
  487HK4    H1740849   5.533   2.683   2.834  1.3638 -0.7747 -0.3111
  487HK4    C3640850   5.622   2.881   2.814 -0.8294  0.0153  0.3655
  487HK4    H1840851   5.698   2.860   2.890  0.3006 -1.9310 -1.2565
  487HK4    C3740852   5.629   3.001   2.744 -0.1766 -0.2100  0.0424
  487HK4    H1940853   5.682   3.086   2.787 -1.8014  0.2191  1.2417
  487HK4    C3840854   5.561   3.009   2.623 -0.1818  0.2329  0.0730
  487HK4    H2040855   5.585   3.092   2.557  0.7080  2.1284  2.6744
  487HK4    C1440856   5.400   2.628   2.108 -0.1838  0.0234  0.0226
  487HK4     C940857   5.483   2.671   2.003  0.1088 -0.1969  0.1660
  487HK4     C840858   5.445   2.643   1.871 -0.1988  0.6027  0.0850
  487HK4    C1140859   5.340   2.554   1.847  0.5293 -0.3227  0.3243
  487HK4     H440860   5.306   2.544   1.743 -0.7753  1.7575  0.5197
  487HK4    C1240861   5.264   2.501   1.950 -0.1637 -0.1461 -0.0967
  487HK4     H540862   5.172   2.443   1.931 -0.8834  1.0524 -0.3435
  487HK4    C1340863   5.290   2.546   2.079 -0.1356  0.0197 -0.1601
  487HK4     H640864   5.238   2.494   2.161 -0.3215 -0.0702 -0.3341
  487HK4     C740865   5.507   2.724   1.763  0.1633  0.0026 -0.1593
  487HK4     O240866   5.449   2.728   1.655  0.0702 -0.3296 -0.1241
  487HK4     C440867   5.626   2.807   1.792 -0.0186  0.1862  0.0637
  487HK4     C340868   5.674   2.896   1.696 -0.1139  0.6029  0.4009
  487HK4     H340869   5.626   2.889   1.597  1.5964 -2.9003 -0.2487
  487HK4     C240870   5.796   2.959   1.712  0.2553  0.1595 -0.6341
  487HK4     H240871   5.825   3.036   1.640 -0.2818  0.8823 -0.0920
  487HK4     C140872   5.867   2.933   1.829 -0.1447  0.1972 -0.3829
  487HK4     H140873   5.941   3.013   1.848 -2.2321  2.2609 -0.6814
  487HK4     C640874   5.828   2.826   1.912  0.3645 -0.1836 -0.6335
  487HK4     C540875   5.699   2.773   1.908  0.2376  0.0797 -0.1280
  487HK4    C1040876   5.622   2.721   2.025  0.0859  0.0434 -0.2432
  487HK4     O140877   5.664   2.737   2.139 -0.0293  0.3637 -0.2471
  487HK4    C1640878   5.934   2.768   1.996 -0.1277 -0.1751  0.0015
  487HK4    C1540879   6.045   2.847   2.030 -0.3823  0.2892 -0.2541
  487HK4     H740880   6.038   2.957   2.026  0.0805  0.2726 -2.0367
  487HK4    C2040881   6.170   2.793   2.055 -0.3464  0.2681 -0.4753
  487HK4     H940882   6.255   2.860   2.064 -0.3051 -0.0866  2.1807
  487HK4    C1940883   6.185   2.655   2.055  0.0046  0.3053 -0.4232
  487HK4    C1840884   6.071   2.571   2.024  0.2342 -0.1751  0.0221
  487HK4    C1740885   5.948   2.629   1.996  0.1211 -0.1488  0.5686
  487HK4     H840886   5.870   2.561   1.965  2.0079 -1.9153 -0.4622
  487HK4     N140887   6.105   2.435   2.037 -0.5444 -0.3552  0.1858
  487HK4    C2140888   6.245   2.435   2.059 -0.5972  0.0790  0.5154
  487HK4    C2240889   6.294   2.567   2.093 -0.3905  0.0860  0.1953
  487HK4    C2640890   6.427   2.580   2.132 -0.3144 -0.2211  0.0384
  487HK4    H1340891   6.470   2.680   2.134 -1.5881  0.3446 -0.1987
  487HK4    C2540892   6.511   2.469   2.132 -0.3892 -0.2773 -0.1411
  487HK4    H1240893   6.614   2.487   2.162 -0.4071 -1.2213  0.5179
  487HK4    C2440894   6.463   2.342   2.101 -0.3838 -0.2966 -0.0664
  487HK4    H1140895   6.530   2.255   2.103  0.0432  0.0262 -0.1703
  487HK4    C2340896   6.332   2.327   2.059 -0.3825  0.2486 -0.2703
  487HK4    H1040897   6.317   2.237   1.999 -1.7216  0.0180  0.3924
  487HK4    C3940898   6.040   2.325   1.979 -1.3906  0.1246  0.2256
  487HK4    C4140899   6.056   2.201   2.044  0.3272  0.1628 -0.1070
  487HK4    H2140900   6.113   2.196   2.138 -0.4732 -0.3097  0.3511
  487HK4    C4240901   6.011   2.084   1.984  0.3217  0.2965 -0.3635
  487HK4    H2240902   5.998   1.999   2.052  0.1527  0.3368 -0.3450
  487HK4    C4340903   5.947   2.097   1.861 -0.4266 -0.4069 -0.0541
  487HK4    H2340904   5.903   2.010   1.814  0.7863 -1.8103  1.3507
  487HK4    C4440905   5.931   2.215   1.789  0.0066 -0.0721  0.4003
  487HK4    H2440906   5.897   2.204   1.686  1.3365  0.4156 -0.1002
  487HK4    C4540907   5.983   2.329   1.850  0.0630  0.3370 -0.4144
  487HK4    H2540908   5.991   2.419   1.786  1.4454 -1.1351 -2.3893
  488HK4    H2840909   7.240   8.807   2.499 -0.9405  0.7852 -3.1438
  488HK4    C4840910   7.318   8.883   2.491  0.1147  0.1249 -0.0521
  488HK4    C4740911   7.437   8.853   2.555 -0.0090 -0.3848 -0.0552
  488HK4    H2740912   7.441   8.785   2.642  0.5616  1.4008  1.3563
  488HK4    C4640913   7.553   8.924   2.527  0.0760 -0.5861 -0.2032
  488HK4    H2640914   7.650   8.888   2.567 -0.6771 -0.5677  1.6733
  488HK4    C4040915   7.559   9.029   2.433  0.2952  0.3702  0.8727
  488HK4    C5040916   7.436   9.062   2.374  0.2203  0.1138  0.8842
  488HK4    H3040917   7.422   9.154   2.315  1.0713 -0.1035  0.3451
  488HK4    C4940918   7.321   8.988   2.400 -0.0020  0.1261 -0.0552
  488HK4    H2940919   7.224   9.032   2.372  0.3713  0.5263 -0.7382
  488HK4     N240920   7.666   9.119   2.425  0.2933  0.2980 -0.0011
  488HK4    C3040921   7.770   9.127   2.520  0.2613 -0.3429  0.0915
  488HK4    C2940922   7.758   9.131   2.658  0.1342 -0.9880  0.1006
  488HK4    H1540923   7.659   9.121   2.701 -0.4247 -1.6802 -1.3147
  488HK4    C2840924   7.868   9.153   2.741  0.1030 -0.7022  0.0636
  488HK4    C2740925   7.991   9.175   2.677 -0.1058  0.6535  0.1071
  488HK4    H1440926   8.083   9.180   2.737  0.4173 -2.2525 -0.3634
  488HK4    C3240927   8.009   9.171   2.539 -0.0324 -0.3160  0.1429
  488HK4    H1640928   8.098   9.181   2.477 -1.5129  1.0929 -1.8010
  488HK4    C3140929   7.898   9.154   2.457  0.1044 -0.0402 -0.0971
  488HK4    C3440930   7.867   9.175   2.317  0.0622  1.2727  0.1007
  488HK4    C3340931   7.723   9.163   2.304  0.2173 -0.2997 -0.2523
  488HK4    C3540932   7.669   9.187   2.178 -0.2548 -0.0058  0.0062
  488HK4    H1740933   7.561   9.195   2.165 -0.2909 -0.9423 -0.3389
  488HK4    C3640934   7.751   9.227   2.073 -0.7693  0.2595 -0.2956
  488HK4    H1840935   7.709   9.255   1.975  2.1516  0.6595 -1.4932
  488HK4    C3740936   7.889   9.240   2.087 -0.7028 -1.1645  0.5062
  488HK4    H1940937   7.938   9.271   1.995 -1.3177 -0.2548  0.4690
  488HK4    C3840938   7.947   9.214   2.210  0.5913  0.9115  0.3629
  488HK4    H2040939   8.055   9.204   2.216  0.5726 -0.5457 -1.3316
  488HK4    C1440940   7.848   9.184   2.884 -0.6631  0.3486 -0.2579
  488HK4     C940941   7.909   9.284   2.960 -0.1768 -0.1374 -0.0079
  488HK4     C840942   7.917   9.270   3.100  0.3437 -0.3835 -0.0611
  488HK4    C1140943   7.856   9.158   3.156  0.1398 -0.0291  0.4277
  488HK4     H440944   7.879   9.150   3.264 -0.8236 -0.0014  0.6318
  488HK4    C1240945   7.782   9.065   3.084  0.5164  0.1367 -0.1794
  488HK4     H540946   7.733   8.984   3.139  0.2047  0.4723  0.0443
  488HK4    C1340947   7.783   9.075   2.946  0.0943 -0.0777 -0.1966
  488HK4     H640948   7.763   8.979   2.897  1.6973 -2.1127  3.0139
  488HK4     C740949   7.998   9.369   3.175  0.3333 -0.1089 -0.4172
  488HK4     O240950   8.001   9.361   3.297  0.3663 -0.2398 -0.4265
  488HK4     C440951   8.074   9.476   3.107  0.3545  0.0895 -0.0815
  488HK4     C340952   8.135   9.575   3.183 -0.0130  0.1935  0.0836
  488HK4     H340953   8.145   9.567   3.293  0.4284 -0.5644 -0.0051
  488HK4     C240954   8.210   9.675   3.122  0.0786  0.0087 -0.1077
  488HK4     H240955   8.269   9.745   3.184 -0.9095 -0.6214  1.5935
  488HK4     C140956   8.220   9.675   2.984  0.0541 -0.5233 -0.1101
  488HK4     H140957   8.216   9.773   2.934  1.2493  0.4097  1.5898
  488HK4     C640958   8.169   9.569   2.905  0.6218 -0.6228 -0.3459
  488HK4     C540959   8.084   9.477   2.967  0.0484  0.0600 -0.1049
  488HK4    C1040960   7.983   9.395   2.894 -0.0097 -0.1307  0.1894
  488HK4     O140961   7.921   9.457   2.807 -0.0993 -0.5700 -0.0646
  488HK4    C1640962   8.217   9.561   2.766 -0.0823 -0.5024 -0.5953
  488HK4    C1540963   8.234   9.437   2.701  0.3747 -0.7699  0.0275
  488HK4     H740964   8.210   9.344   2.753 -0.9275 -0.3718  0.1566
  488HK4    C2040965   8.295   9.426   2.577  0.4773  0.0195  0.0017
  488HK4     H940966   8.323   9.325   2.546  1.7541  0.1282  0.7629
  488HK4    C1940967   8.320   9.543   2.506  0.2077  0.2897  0.3448
  488HK4    C1840968   8.284   9.672   2.560 -0.5722  0.2309 -0.0220
  488HK4    C1740969   8.243   9.677   2.693  0.0254 -0.0341  0.1737
  488HK4     H840970   8.200   9.775   2.711  0.1837  0.4670 -2.0589
  488HK4     N140971   8.315   9.776   2.470 -0.6017 -0.1440 -0.4678
  488HK4    C2140972   8.378   9.720   2.357 -0.3580 -0.1864 -0.3118
  488HK4    C2240973   8.385   9.577   2.381 -0.2623 -0.1338 -0.0185
  488HK4    C2640974   8.460   9.504   2.289  0.0042  0.0389  0.0637
  488HK4    H1340975   8.452   9.396   2.301 -1.4050  0.2323  0.9366
  488HK4    C2540976   8.526   9.560   2.180 -0.1658 -0.0096 -0.0648
  488HK4    H1240977   8.564   9.490   2.106  0.6433 -0.7563  1.0407
  488HK4    C2440978   8.517   9.697   2.158  0.8346  0.1171  0.3137
  488HK4    H1140979   8.582   9.736   2.078 -1.6547 -2.3175 -3.0234
  488HK4    C2340980   8.446   9.775   2.249  0.2084 -0.1571  0.0576
  488HK4    H1040981   8.424   9.880   2.230 -3.5388 -0.6148  1.4243
  488HK4    C3940982   8.236   9.892   2.469 -0.5246 -0.0667  0.8033
  488HK4    C4140983   8.307  10.013   2.463 -0.2305 -0.2683  0.1662
  488HK4    H2140984   8.417  10.013   2.461 -0.2447 -0.5210 -0.9386
  488HK4    C4240985   8.241  10.135   2.448  0.1726  0.0461  0.8996
  488HK4    H2240986   8.289  10.233   2.456  1.2961 -0.4465  0.3042
  488HK4    C4340987   8.103  10.136   2.428  0.3234  0.3362 -0.1384
  488HK4    H2340988   8.052  10.231   2.409  0.6521  0.1292 -2.1741
  488HK4    C4440989   8.034  10.016   2.428  0.3170  0.3374  0.3152
  488HK4    H2440990   7.939  10.011   2.372  0.8777 -1.3095 -0.5047
  488HK4    C4540991   8.096   9.895   2.454 -0.3827 -0.2244 -0.6026
  488HK4    H2540992   8.043   9.804   2.486 -1.1093  0.2561 -0.4399
  489HK4    H2840993   5.390   1.092   1.677  0.7935 -0.2046  2.0259
  489HK4    C4840994   5.456   1.176   1.700  0.0306  0.9022  0.2226
  489HK4    C4740995   5.430   1.256   1.811 -0.6547  0.6976  0.2115
  489HK4    H2740996   5.351   1.236   1.884 -0.6734 -0.3430 -0.0776
  489HK4    C4640997   5.512   1.365   1.835 -0.2093  0.4794 -0.2951
  489HK4    H2640998   5.477   1.445   1.902  1.9145  2.2961 -1.2979
  489HK4    C4040999   5.629   1.394   1.761 -0.1243  0.6757 -0.0862
  489HK4    C5041000   5.649   1.305   1.654  0.1233  0.2431  0.3169
  489HK4    H3041001   5.715   1.348   1.577 -0.8857 -0.1731 -0.7924
  489HK4    C4941002   5.571   1.194   1.624  0.1033  0.2895  0.1925
  489HK4    H2941003   5.595   1.118   1.547 -2.0344 -0.5297  0.3058
  489HK4     N241004   5.736   1.463   1.820  0.4792 -0.0308 -0.3477
  489HK4    C3041005   5.764   1.456   1.958 -0.1885  0.0954 -0.2028
  489HK4    C2941006   5.758   1.343   2.039  0.0197  0.3490  0.1637
  489HK4    H1541007   5.711   1.251   2.007 -0.8270  0.2014  1.7628
  489HK4    C2841008   5.814   1.338   2.166 -0.4747  0.4699  0.3848
  489HK4    C2741009   5.877   1.456   2.213 -0.0705  0.1199  0.7297
  489HK4    H1441010   5.936   1.450   2.305  0.2888 -0.9337  0.4330
  489HK4    C3241011   5.887   1.569   2.133  0.3272 -0.4497 -0.0398
  489HK4    H1641012   5.939   1.657   2.173  0.9898  0.4372 -2.7652
  489HK4    C3141013   5.846   1.568   2.000  0.1189 -0.2150  0.0202
  489HK4    C3441014   5.876   1.645   1.882 -0.0576  0.0341  0.1373
  489HK4    C3341015   5.804   1.578   1.775 -0.5847  0.7544  0.0405
  489HK4    C3541016   5.852   1.594   1.646 -0.1514  0.2957  0.1467
  489HK4    H1741017   5.793   1.555   1.563  1.2586  0.1605 -0.8095
  489HK4    C3641018   5.959   1.679   1.621 -0.0832  0.1499 -0.0558
  489HK4    H1841019   5.997   1.687   1.518  0.6998 -0.8506  0.1389
  489HK4    C3741020   6.026   1.746   1.723  0.1979 -0.6080  0.2613
  489HK4    H1941021   6.089   1.834   1.710  1.1301 -1.5789 -1.9351
  489HK4    C3841022   5.982   1.731   1.854  0.5238 -0.6048  0.3704
  489HK4    H2041023   6.004   1.808   1.928 -1.8976 -1.1457  1.7119
  489HK4    C1441024   5.774   1.224   2.249  0.5159  0.0829  0.3365
  489HK4     C941025   5.766   1.246   2.387  0.0860  0.3444  0.2696
  489HK4     C841026   5.830   1.157   2.476 -0.4089 -0.3924 -0.0995
  489HK4    C1141027   5.885   1.039   2.429  0.4646  0.3414 -0.9386
  489HK4     H441028   5.936   0.972   2.499  0.3785  0.1117 -1.0926
  489HK4    C1241029   5.874   1.005   2.294 -0.1979 -0.5368 -0.6744
  489HK4     H541030   5.916   0.915   2.246  0.3165 -0.3797 -0.5193
  489HK4    C1341031   5.823   1.099   2.205  0.3593  0.2126 -0.2111
  489HK4     H641032   5.776   1.060   2.114 -0.1551  0.3039  0.0145
  489HK4     C741033   5.854   1.192   2.618 -0.1515 -0.0273 -0.2323
  489HK4     O241034   5.888   1.118   2.710 -0.4253 -0.0820 -0.1750
  489HK4     C441035   5.818   1.331   2.656  0.0438 -0.0082 -0.1173
  489HK4     C341036   5.886   1.388   2.763  0.1716 -0.1315 -0.1327
  489HK4     H341037   5.981   1.349   2.803 -1.0893 -4.7758 -1.4369
  489HK4     C241038   5.830   1.503   2.818  0.0232 -0.0693 -0.4087
  489HK4     H241039   5.889   1.571   2.881 -0.4286  1.1731 -1.3144
  489HK4     C141040   5.705   1.543   2.773 -0.0191  0.4355  0.1516
  489HK4     H141041   5.645   1.599   2.846 -2.3791 -1.1372 -0.5002
  489HK4     C641042   5.636   1.485   2.664 -0.1070  0.0966  0.3854
  489HK4     C541043   5.700   1.381   2.597 -0.1242  0.1249  0.3252
  489HK4    C1041044   5.679   1.348   2.453  0.2079  0.5000  0.1889
  489HK4     O141045   5.585   1.382   2.382  0.3557  0.5325  0.0084
  489HK4    C1641046   5.518   1.566   2.629 -0.1655 -0.2598 -0.2391
  489HK4    C1541047   5.504   1.704   2.654  0.5799 -0.1602 -0.3366
  489HK4     H741048   5.599   1.753   2.681  0.2566  1.3071 -1.7914
  489HK4    C2041049   5.383   1.773   2.656  0.5012 -0.3065 -0.0373
  489HK4     H941050   5.376   1.881   2.671 -1.1791 -0.1354 -1.8667
  489HK4    C1941051   5.265   1.704   2.636  0.3086 -0.0551  0.2245
  489HK4    C1841052   5.272   1.564   2.596  0.0356  0.1818 -0.6652
  489HK4    C1741053   5.398   1.505   2.597 -0.1391 -0.1830 -0.4866
  489HK4     H841054   5.395   1.397   2.578 -0.3713  0.2351 -2.9978
  489HK4     N141055   5.144   1.507   2.589  0.1138 -0.1456  0.5127
  489HK4    C2141056   5.051   1.610   2.618  0.2878  0.1106  0.1687
  489HK4    C2241057   5.124   1.726   2.665  0.3711 -0.1043  0.5701
  489HK4    C2641058   5.062   1.849   2.679 -0.0097 -0.2410  0.0503
  489HK4    H1341059   5.118   1.937   2.709 -0.6174 -0.5454  2.1121
  489HK4    C2541060   4.929   1.861   2.640  0.1764 -0.1343 -0.5676
  489HK4    H1241061   4.873   1.952   2.664 -0.0899 -1.1212  2.7529
  489HK4    C2441062   4.858   1.749   2.600  0.4677 -0.4438 -0.2146
  489HK4    H1141063   4.749   1.742   2.584  0.1783 -0.9205  1.8623
  489HK4    C2341064   4.917   1.624   2.584  0.3464 -0.4874 -0.3200
  489HK4    H1041065   4.858   1.553   2.526 -1.0323 -1.2479  1.9473
  489HK4    C3941066   5.116   1.382   2.533  0.6603 -0.2606  0.4945
  489HK4    C4141067   4.989   1.326   2.559  0.0727  0.7925 -0.0671
  489HK4    H2141068   4.955   1.335   2.664  2.3944 -0.4705  0.8358
  489HK4    C4241069   4.933   1.230   2.476  0.6747  0.5542 -0.2003
  489HK4    H2241070   4.824   1.216   2.486  1.1747 -1.4405  3.3466
  489HK4    C4341071   5.001   1.176   2.368  0.1536 -0.2721 -0.1256
  489HK4    H2341072   4.964   1.081   2.330 -0.8527  0.3178 -0.6573
  489HK4    C4441073   5.128   1.230   2.345  0.0155  0.2766  0.3759
  489HK4    H2441074   5.198   1.172   2.284 -0.7277 -0.7153  0.4508
  489HK4    C4541075   5.184   1.331   2.421  0.2821  0.4562 -0.0615
  489HK4    H2541076   5.273   1.387   2.389  1.9928 -2.0962  0.0802
  490HK4    H2841077   2.181   2.679  10.986 -0.0849  0.6025 -0.5598
  490HK4    C4841078   2.205   2.662  11.091  0.7636 -0.3332 -0.9031
  490HK4    C4741079   2.186   2.532  11.138 -0.4496  0.0406 -0.3266
  490HK4    H2741080   2.136   2.455  11.078 -1.6191  0.0484  0.6369
  490HK4    C4641081   2.239   2.492   0.012 -0.1516 -0.0270 -0.4762
  490HK4    H2641082   2.218   2.390   0.048  1.1169 -1.3988 -3.4292
  490HK4    C4041083   2.305   2.581   0.099 -0.2887 -0.4318  0.0489
  490HK4    C5041084   2.313   2.712   0.047 -0.2915 -0.4559 -0.0134
  490HK4    H3041085   2.352   2.787   0.118  0.7056 -0.5733 -0.4273
  490HK4    C4941086   2.269   2.756  11.171 -0.4742 -0.3203  0.0989
  490HK4    H2941087   2.279   2.857  11.128 -2.2320 -0.5142 -0.8104
  490HK4     N241088   2.315   2.564   0.237  0.3732  0.0220  0.0607
  490HK4    C3041089   2.236   2.471   0.307 -0.1514  0.0123 -0.5427
  490HK4    C2941090   2.106   2.429   0.278  0.1688 -0.7917 -0.8469
  490HK4    H1541091   2.055   2.485   0.200 -1.8867 -0.6096  0.5916
  490HK4    C2841092   2.041   2.346   0.369  0.2627  0.1122  0.0648
  490HK4    C2741093   2.109   2.291   0.479  0.1342  0.5494  0.3664
  490HK4    H1441094   2.079   2.196   0.525  0.4887 -0.5456 -1.5797
  490HK4    C3241095   2.236   2.335   0.513  0.6098 -0.3313 -0.2476
  490HK4    H1641096   2.283   2.289   0.600 -0.9796 -0.2815  0.6525
  490HK4    C3141097   2.299   2.426   0.429 -0.0398 -0.3143 -0.7206
  490HK4    C3441098   2.421   2.504   0.437 -0.6265  0.4980  0.3600
  490HK4    C3341099   2.426   2.590   0.320  0.2649  0.1726  0.1585
  490HK4    C3541100   2.539   2.668   0.296  0.1120  0.2811 -0.2072
  490HK4    H1741101   2.530   2.755   0.230 -0.2515 -1.7161 -2.8939
  490HK4    C3641102   2.653   2.661   0.375 -0.2894  0.4464  0.3901
  490HK4    H1841103   2.746   2.712   0.346 -1.9358  2.0226 -2.2822
  490HK4    C3741104   2.654   2.570   0.480  0.3636  0.0549  0.0479
  490HK4    H1941105   2.747   2.546   0.532 -0.8623 -0.8162  1.8997
  490HK4    C3841106   2.539   2.498   0.510 -0.1216  0.6238 -0.4423
  490HK4    H2041107   2.551   2.410   0.572 -1.2817  2.3014  2.2570
  490HK4    C1441108   1.895   2.362   0.375  0.2683  0.2840 -0.2104
  490HK4     C941109   1.821   2.342   0.492  0.0495  0.0065 -0.3966
  490HK4     C841110   1.693   2.282   0.493  0.1203 -0.1405 -0.1320
  490HK4    C1141111   1.633   2.249   0.372  0.2897 -0.2807 -0.1784
  490HK4     H441112   1.538   2.194   0.364 -0.2874  0.6798 -0.0228
  490HK4    C1241113   1.702   2.274   0.254  0.3902 -0.0576 -0.0731
  490HK4     H541114   1.655   2.255   0.156  2.4800 -0.2523 -1.0674
  490HK4    C1341115   1.830   2.328   0.255  0.3619  0.0134 -0.1830
  490HK4     H641116   1.884   2.337   0.160 -0.2255 -2.0797 -0.7413
  490HK4     C741117   1.635   2.222   0.615 -0.0895  0.1632 -0.0827
  490HK4     O241118   1.538   2.147   0.608  0.1508 -0.1840  0.2571
  490HK4     C441119   1.713   2.243   0.740  0.0888 -0.2302 -0.1273
  490HK4     C341120   1.676   2.168   0.851  0.5017  0.0554  0.2022
  490HK4     H341121   1.582   2.111   0.858  0.3505  0.1734 -0.8457
  490HK4     C241122   1.758   2.167   0.964  0.2454  0.0551  0.3881
  490HK4     H241123   1.728   2.126   1.061  1.7210  0.9939  1.2555
  490HK4     C141124   1.873   2.244   0.968  0.2900  0.0072  0.0504
  490HK4     H141125   1.933   2.257   1.059  0.6268 -1.9458  0.1265
  490HK4     C641126   1.914   2.320   0.856  0.1276 -0.3039 -0.2219
  490HK4     C541127   1.830   2.321   0.745 -0.1866  0.1728  0.0188
  490HK4    C1041128   1.878   2.390   0.622 -0.1113 -0.2960 -0.2143
  490HK4     O141129   1.901   2.510   0.633  0.3112 -0.3236 -0.7449
  490HK4    C1641130   2.061   2.320   0.842  0.1823  0.4720  0.2647
  490HK4    C1541131   2.141   2.205   0.860 -0.3693 -0.0428 -0.4936
  490HK4     H741132   2.093   2.107   0.874 -0.0439 -0.1336  0.0372
  490HK4    C2041133   2.280   2.212   0.860 -0.3655 -0.0786  0.0782
  490HK4     H941134   2.335   2.119   0.874  0.9662  0.8143  0.9320
  490HK4    C1941135   2.349   2.332   0.849 -0.1609 -0.2339 -0.3147
  490HK4    C1841136   2.267   2.451   0.835 -0.0002 -0.0461  0.3249
  490HK4    C1741137   2.129   2.441   0.838 -0.0466  0.6063  0.4126
  490HK4     H841138   2.068   2.530   0.821  0.0307  0.2541 -2.0061
  490HK4     N141139   2.349   2.564   0.852  0.3962 -0.2612 -0.1325
  490HK4    C2141140   2.481   2.518   0.868  0.3398 -0.2649  0.3077
  490HK4    C2241141   2.488   2.374   0.855 -0.1595 -0.2246 -0.4061
  490HK4    C2641142   2.604   2.300   0.838 -0.2582 -0.3697 -0.4515
  490HK4    H1341143   2.617   2.191   0.835  1.6300 -0.2334  1.6149
  490HK4    C2541144   2.721   2.373   0.825 -0.3433 -0.0647  0.4890
  490HK4    H1241145   2.805   2.318   0.783 -0.2124 -1.3277  2.3108
  490HK4    C2441146   2.726   2.510   0.844  0.2734 -0.0257  0.0657
  490HK4    H1141147   2.820   2.565   0.861 -0.9344  1.9953  0.3897
  490HK4    C2341148   2.606   2.579   0.858  0.2876 -0.1062  0.6065
  490HK4    H1041149   2.605   2.687   0.844  1.9735 -0.2262 -0.5405
  490HK4    C3941150   2.302   2.691   0.815  0.0330 -0.3693 -0.0428
  490HK4    C4141151   2.355   2.796   0.894 -0.6820  0.2647 -0.4090
  490HK4    H2141152   2.399   2.769   0.990 -0.3760  0.8536 -0.3776
  490HK4    C4241153   2.357   2.928   0.849  0.0388  0.3626 -0.0922
  490HK4    H2241154   2.380   3.010   0.917  0.9202 -2.2595  2.8787
  490HK4    C4341155   2.324   2.948   0.715 -0.1277  0.3841 -0.0476
  490HK4    H2341156   2.357   3.043   0.673  2.3147 -0.3851  0.1011
  490HK4    C4441157   2.271   2.848   0.634 -0.6581  0.1555  0.5755
  490HK4    H2441158   2.236   2.878   0.535 -1.7592  0.0439  0.9223
  490HK4    C4541159   2.258   2.719   0.685 -0.3162 -0.0511  0.1421
  490HK4    H2541160   2.194   2.644   0.635  0.7696 -1.2536  0.5513
  491HK4    H2841161   3.948   7.498   5.466  0.6156  0.2515 -0.8047
  491HK4    C4841162   3.925   7.410   5.405  0.0839 -0.1226 -0.0795
  491HK4    C4741163   3.919   7.407   5.266  0.4393  0.5567 -0.1166
  491HK4    H2741164   3.944   7.499   5.213  1.0652  1.9011  2.4331
  491HK4    C4641165   3.891   7.284   5.208  0.9656  0.2249  0.3214
  491HK4    H2641166   3.924   7.264   5.105 -1.1201  1.8638 -0.7065
  491HK4    C4041167   3.851   7.167   5.276  0.2318  0.1400 -0.2452
  491HK4    C5041168   3.863   7.171   5.416  0.1403 -0.0767 -0.2309
  491HK4    H3041169   3.827   7.094   5.486  0.7434  0.2621  0.4592
  491HK4    C4941170   3.899   7.292   5.474  0.0779 -0.1245 -0.0886
  491HK4    H2941171   3.870   7.305   5.579 -1.0863  0.3493 -0.4619
  491HK4     N241172   3.764   7.071   5.221  0.1263  0.0315  0.1129
  491HK4    C3041173   3.650   7.099   5.144  0.2350 -0.4163 -0.2110
  491HK4    C2941174   3.580   7.220   5.138  0.3419 -0.3805 -0.7752
  491HK4    H1541175   3.627   7.311   5.175  0.0801 -0.7439  0.4707
  491HK4    C2841176   3.461   7.235   5.068 -0.2040 -0.2615  0.1677
  491HK4    C2741177   3.429   7.121   4.992  0.0626 -0.4469  0.3347
  491HK4    H1441178   3.352   7.131   4.914 -0.2058 -0.5807  0.5818
  491HK4    C3241179   3.498   7.000   4.990  0.1244 -0.4021 -0.3674
  491HK4    H1641180   3.445   6.910   4.957 -2.2084  0.8229 -0.0323
  491HK4    C3141181   3.614   6.983   5.065  0.0594 -0.3346 -0.2514
  491HK4    C3441182   3.710   6.880   5.101  0.3248 -0.1058 -0.3102
  491HK4    C3341183   3.798   6.936   5.201 -0.1813 -0.0454  0.1038
  491HK4    C3541184   3.889   6.848   5.259  0.0373  0.0717 -0.0629
  491HK4    H1741185   3.946   6.891   5.341  1.8177 -1.8429 -0.2572
  491HK4    C3641186   3.900   6.714   5.225 -0.0623  0.1440 -0.3862
  491HK4    H1841187   3.988   6.657   5.258  0.1855  0.4809 -0.4647
  491HK4    C3741188   3.809   6.660   5.135  0.3278  0.1692 -0.7944
  491HK4    H1941189   3.800   6.552   5.124 -1.8012  0.2324  0.0791
  491HK4    C3841190   3.713   6.743   5.079 -0.4179 -0.1706 -0.0376
  491HK4    H2041191   3.643   6.694   5.011  0.2862 -2.9155  1.1438
  491HK4    C1441192   3.353   7.319   5.121 -0.4525 -0.4762  0.0006
  491HK4     C941193   3.218   7.290   5.147 -0.6994 -0.1948 -0.9424
  491HK4     C841194   3.119   7.389   5.141 -0.2729  0.3221  0.4609
  491HK4    C1141195   3.157   7.521   5.117 -0.2590  0.2425  0.0384
  491HK4     H441196   3.097   7.592   5.058 -1.5822  0.8262  2.0633
  491HK4    C1241197   3.291   7.555   5.106 -0.1606  0.0390  0.5959
  491HK4     H541198   3.315   7.661   5.121  0.2020  0.6277 -3.5234
  491HK4    C1341199   3.388   7.455   5.108 -0.6143 -0.4090  0.2604
  491HK4     H641200   3.491   7.487   5.088 -1.0389  0.1392 -1.1620
  491HK4     C741201   2.979   7.367   5.183 -0.2979  0.5983  0.5257
  491HK4     O241202   2.890   7.448   5.156 -0.5323  0.2076  0.1159
  491HK4     C441203   2.954   7.242   5.259 -0.2966  0.3570  0.1355
  491HK4     C341204   2.824   7.209   5.296 -0.1801 -0.5182 -0.2409
  491HK4     H341205   2.741   7.270   5.258  0.2795 -0.2529 -0.8121
  491HK4     C241206   2.799   7.107   5.388 -0.4906  0.2296  0.5028
  491HK4     H241207   2.693   7.091   5.408 -0.9240  1.2536 -0.8723
  491HK4     C141208   2.907   7.045   5.451 -0.0384 -0.2473 -0.7295
  491HK4     H141209   2.882   6.989   5.542  1.0292  1.3306  0.5581
  491HK4     C641210   3.038   7.081   5.416  0.0039  0.1002 -0.2239
  491HK4     C541211   3.064   7.171   5.312 -0.1923  0.4308  0.0140
  491HK4    C1041212   3.195   7.178   5.242 -0.3719  0.2479 -0.3401
  491HK4     O141213   3.248   7.069   5.219 -0.0852  0.2909  0.1089
  491HK4    C1641214   3.141   6.998   5.481 -0.0631  0.3473  0.1968
  491HK4    C1541215   3.121   6.862   5.511 -0.3425  0.4159  0.3290
  491HK4     H741216   3.047   6.806   5.452  0.4241  0.7332 -0.9454
  491HK4    C2041217   3.212   6.789   5.586  0.1097  0.6648  0.0242
  491HK4     H941218   3.204   6.681   5.598  0.1381  0.4325 -1.8869
  491HK4    C1941219   3.326   6.852   5.635  0.2686  0.2342  0.2112
  491HK4    C1841220   3.351   6.991   5.605  0.1163  0.1641 -0.2402
  491HK4    C1741221   3.260   7.056   5.522 -0.1629  0.4739  0.3057
  491HK4     H841222   3.283   7.157   5.487 -0.1485  0.7788  1.1743
  491HK4     N141223   3.438   7.045   5.702  0.3734 -0.0652 -0.3432
  491HK4    C2141224   3.487   6.937   5.778  0.6303 -0.0260 -0.4497
  491HK4    C2241225   3.413   6.816   5.745 -0.1777  0.1866  0.5518
  491HK4    C2641226   3.442   6.694   5.806  0.5740  0.2240  0.2767
  491HK4    H1341227   3.390   6.603   5.776  0.1276  0.6128 -0.1243
  491HK4    C2541228   3.532   6.693   5.912  0.4169  0.1092  0.4106
  491HK4    H1241229   3.512   6.613   5.983  0.1261 -2.2211 -2.2073
  491HK4    C2441230   3.606   6.806   5.946  0.1935  0.2619  0.3959
  491HK4    H1141231   3.694   6.799   6.012  0.0423  1.7720  0.7692
  491HK4    C2341232   3.575   6.927   5.885 -0.0722  0.0663  0.1412
  491HK4    H1041233   3.630   7.015   5.917  2.4803 -1.9678  1.5604
  491HK4    C3941234   3.509   7.165   5.688 -0.2164  0.3044 -0.1547
  491HK4    C4141235   3.526   7.250   5.799 -0.4451  0.1315  0.0124
  491HK4    H2141236   3.489   7.212   5.896  1.9817 -0.3136  0.8022
  491HK4    C4241237   3.562   7.384   5.791  0.2828 -0.0546  0.1344
  491HK4    H2241238   3.593   7.444   5.878  1.3482 -3.5728  2.3081
  491HK4    C4341239   3.581   7.439   5.665  0.5590 -0.2623  0.0847
  491HK4    H2341240   3.605   7.544   5.650 -0.4078  0.1218  1.1094
  491HK4    C4441241   3.568   7.360   5.551 -0.1818  0.2576 -0.1909
  491HK4    H2441242   3.584   7.399   5.449  2.5008 -3.3177 -1.2445
  491HK4    C4541243   3.543   7.224   5.565  0.3413  0.1731 -0.0650
  491HK4    H2541244   3.528   7.166   5.472 -0.5616  0.8669 -0.3586
  492HK4    H2841245   9.867   1.232   9.464 -0.4452 -0.0387  0.0127
  492HK4    C4841246   9.970   1.266   9.478 -0.2337 -0.4502 -0.5343
  492HK4    C4741247  10.037   1.341   9.383  0.1783 -0.3692 -0.1760
  492HK4    H2741248   9.980   1.383   9.299  0.6748  0.2090 -0.2291
  492HK4    C4641249  10.173   1.370   9.391  0.1241 -0.0804 -0.3355
  492HK4    H2641250  10.216   1.438   9.316 -2.4714 -0.0793 -1.8870
  492HK4    C4041251  10.243   1.331   9.506  0.0464 -0.0530 -0.2773
  492HK4    C5041252  10.173   1.256   9.603  0.0430  0.0599 -0.1929
  492HK4    H3041253  10.220   1.245   9.702  0.1247 -1.5558 -0.3905
  492HK4    C4941254  10.037   1.228   9.594 -0.1371  0.9110 -0.1347
  492HK4    H2941255   9.993   1.151   9.659  0.5909 -0.1672 -0.8974
  492HK4     N241256  10.383   1.318   9.507  0.0236 -0.3103  0.5083
  492HK4    C3041257  10.460   1.295   9.391 -0.3120  0.3209  0.1598
  492HK4    C2941258  10.421   1.248   9.266 -0.3241  0.3653  0.1462
  492HK4    H1541259  10.349   1.166   9.278  0.4211 -0.4800 -1.0434
  492HK4    C2841260  10.484   1.266   9.144  0.2274 -0.0232  0.3739
  492HK4    C2741261  10.615   1.316   9.159  0.1301  0.5602 -0.6551
  492HK4    H1441262  10.672   1.353   9.073  1.4239  1.9479  0.7589
  492HK4    C3241263  10.667   1.348   9.284 -0.4285  0.4185 -0.3826
  492HK4    H1641264  10.770   1.383   9.293 -0.6035  1.5608 -2.5323
  492HK4    C3141265  10.594   1.349   9.402 -0.0024 -0.3878 -0.1096
  492HK4    C3441266  10.602   1.403   9.537 -0.1477  0.0835 -0.2899
  492HK4    C3341267  10.472   1.382   9.596  0.4137 -0.9672  0.5898
  492HK4    C3541268  10.457   1.418   9.729  0.2104  0.1106  0.2771
  492HK4    H1741269  10.358   1.409   9.774 -0.0933  0.1667 -0.3724
  492HK4    C3641270  10.565   1.458   9.806  0.6520  0.3582 -0.4634
  492HK4    H1841271  10.550   1.462   9.915 -0.9176  1.0612 -0.6940
  492HK4    C3741272  10.691   1.471   9.748  0.9000  0.0765  0.0052
  492HK4    H1941273  10.777   1.499   9.808  0.4612  0.0440  0.6530
  492HK4    C3841274  10.708   1.455   9.611 -0.3988  0.5042 -0.2180
  492HK4    H2041275  10.803   1.477   9.563  0.8550  1.0985  2.4910
  492HK4    C1441276  10.419   1.225   9.019 -0.0387  0.4178  0.3702
  492HK4     C941277  10.484   1.199   8.898 -0.0813  0.2628  0.3799
  492HK4     C841278  10.410   1.203   8.778  0.3581  0.1263  0.0979
  492HK4    C1141279  10.272   1.222   8.783  0.2704 -0.5569  0.2869
  492HK4     H441280  10.219   1.224   8.687 -0.1317  0.0009  0.5234
  492HK4    C1241281  10.208   1.241   8.905 -0.4977 -0.1038 -0.1841
  492HK4     H541282  10.099   1.249   8.902 -0.5768 -0.5571  1.0032
  492HK4    C1341283  10.281   1.251   9.023 -0.0836  0.3438 -0.4730
  492HK4     H641284  10.237   1.284   9.119  1.0779  1.1901 -0.2184
  492HK4     C741285  10.477   1.194   8.647  0.0986 -0.1939 -0.0110
  492HK4     O241286  10.411   1.178   8.544 -0.0353 -0.7939  0.1693
  492HK4     C441287  10.625   1.193   8.637  0.0964 -0.2879 -0.0878
  492HK4     C341288  10.694   1.224   8.521 -0.4414  0.4689 -0.2073
  492HK4     H341289  10.648   1.212   8.422  2.0346  4.4431 -1.9669
  492HK4     C241290  10.825   1.273   8.522 -0.2910  0.0651 -0.1088
  492HK4     H241291  10.871   1.321   8.435  0.4337 -1.8630 -0.8355
  492HK4     C141292  10.896   1.268   8.641 -0.6474  0.0264  0.1041
  492HK4     H141293  11.002   1.297   8.646 -0.9949  1.4859 -0.6065
  492HK4     C641294  10.837   1.212   8.756  0.1503 -0.1148  0.4477
  492HK4     C541295  10.699   1.189   8.757  0.1233 -0.0054 -0.0985
  492HK4    C1041296  10.631   1.174   8.889 -0.1511  0.0676 -0.2306
  492HK4     O141297  10.685   1.099   8.970  0.7060  0.4376 -0.4596
  492HK4    C1641298  10.935   1.140   8.838  0.3508 -0.3568 -0.0062
  492HK4    C1541299  11.050   1.078   8.783  0.2868 -0.2923 -0.2094
  492HK4     H741300  11.026   1.008   8.701  0.5204 -1.5645  0.7888
  492HK4    C2041301  11.179   1.078   8.834  0.1299 -0.4893  0.2106
  492HK4     H941302   0.018   1.044   8.777  0.0366  0.3345 -0.4320
  492HK4    C1941303  11.201   1.140   8.956  0.0301 -0.3094  0.1370
  492HK4    C1841304  11.086   1.196   9.024  0.1497  0.0172  0.0644
  492HK4    C1741305  10.961   1.196   8.962  0.1240 -0.5131  0.1101
  492HK4     H841306  10.894   1.259   9.021  0.2455 -0.2316 -0.0527
  492HK4     N141307  11.126   1.272   9.136  0.3709 -0.0638  0.0360
  492HK4    C2141308   0.018   1.290   9.124  0.3160  0.0705 -0.4384
  492HK4    C2241309   0.066   1.191   9.031  0.3717  0.6151 -0.9896
  492HK4    C2641310   0.201   1.190   8.995  0.5116  0.1738 -0.4554
  492HK4    H1341311   0.242   1.099   8.953  0.5813 -0.8986  1.8303
  492HK4    C2541312   0.289   1.283   9.049  0.0863  0.4480 -0.2327
  492HK4    H1241313   0.394   1.260   9.035  0.4280  1.3893  0.7040
  492HK4    C2441314   0.238   1.384   9.130  0.2549  0.0801  0.3323
  492HK4    H1141315   0.301   1.470   9.156  1.4640 -0.9457  0.8515
  492HK4    C2341316   0.107   1.384   9.175  0.1520 -0.0276  0.0315
  492HK4    H1041317   0.095   1.423   9.276  0.4617  1.9169 -0.6660
  492HK4    C3941318  11.072   1.239   9.261 -1.3062  0.0138 -0.6654
  492HK4    C4141319  11.092   1.334   9.364 -0.6661 -0.4927 -0.3221
  492HK4    H2141320  11.147   1.426   9.344  1.7782 -2.0512 -0.9567
  492HK4    C4241321  11.049   1.298   9.491  0.6082 -0.0114  0.2484
  492HK4    H2241322  11.047   1.361   9.582 -1.8081 -1.3811  1.1933
  492HK4    C4341323  10.983   1.178   9.517  0.1112  0.3487  0.6760
  492HK4    H2341324  10.940   1.158   9.615  2.0385 -0.8928  1.3153
  492HK4    C4441325  10.954   1.089   9.414  0.4530  0.8239  0.1642
  492HK4    H2441326  10.917   0.987   9.431  1.5495  0.3751 -0.1373
  492HK4    C4541327  11.004   1.119   9.288 -0.4081 -0.4517 -0.4884
  492HK4    H2541328  10.981   1.046   9.209  2.7754 -0.6281 -1.3392
  493HK4    H2841329  10.921   4.967   3.832 -0.0424  0.1323  0.2152
  493HK4    C4841330  10.946   5.034   3.914  0.3061  0.3489 -0.0649
  493HK4    C4741331  11.049   4.999   4.001  0.4225  0.0873 -0.3090
  493HK4    H2741332  11.113   4.915   3.970 -0.7139 -0.7610 -0.3646
  493HK4    C4641333  11.089   5.082   4.105  0.3492  0.3449 -0.4886
  493HK4    H2641334  11.182   5.072   4.163  0.1690  0.1576 -0.2352
  493HK4    C4041335  11.017   5.201   4.132 -0.5546 -0.3498  0.1685
  493HK4    C5041336  10.913   5.234   4.043 -0.4629 -0.2609  0.0942
  493HK4    H3041337  10.852   5.320   4.073 -0.3030  0.4221 -1.4982
  493HK4    C4941338  10.876   5.152   3.937 -0.4463 -0.1023 -0.0334
  493HK4    H2941339  10.780   5.178   3.889 -0.7573  2.7731  2.0241
  493HK4     N241340  11.037   5.271   4.251  0.1420 -0.1406 -0.0702
  493HK4    C3041341  11.100   5.221   4.367  0.2116  0.0124 -0.0406
  493HK4    C2941342  11.096   5.098   4.430 -0.5913  0.0919  0.0627
  493HK4    H1541343  11.038   5.017   4.386 -0.1557 -0.7056  0.9457
  493HK4    C2841344  11.157   5.074   4.553 -0.5876  0.5785  0.1557
  493HK4    C2741345  11.230   5.180   4.612  0.5302  0.1394 -0.4337
  493HK4    H1441346   0.065   5.152   4.679 -0.0002  2.2149  1.1392
  493HK4    C3241347  11.230   5.310   4.563  0.3400  0.0859 -0.5775
  493HK4    H1641348   0.050   5.381   4.608 -0.8754  0.7276  0.2584
  493HK4    C3141349  11.167   5.327   4.440 -0.5838  0.5195 -0.0425
  493HK4    C3441350  11.151   5.446   4.359  0.5110  0.3036 -0.5839
  493HK4    C3341351  11.066   5.409   4.247  0.1267 -0.1384 -0.1522
  493HK4    C3541352  11.023   5.505   4.157 -0.0040  0.0003  0.0586
  493HK4    H1741353  11.000   5.476   4.054  0.7917 -0.6396  0.0608
  493HK4    C3641354  11.032   5.640   4.190 -0.4068  0.1216 -0.3199
  493HK4    H1841355  10.990   5.722   4.129 -3.4214  0.5425  2.2091
  493HK4    C3741356  11.116   5.674   4.295 -0.2178  0.3274 -0.5381
  493HK4    H1941357  11.167   5.770   4.288  0.3796  0.0764  0.3451
  493HK4    C3841358  11.174   5.582   4.381 -0.4653  0.4258 -0.2645
  493HK4    H2041359   0.022   5.613   4.422 -0.6634  1.2711 -0.4460
  493HK4    C1441360  11.111   4.968   4.643  0.4902  0.0114  0.0426
  493HK4     C941361  11.104   4.978   4.782  0.7307  0.4234  0.0252
  493HK4     C841362  11.118   4.861   4.860 -0.1192  0.3145  0.0155
  493HK4    C1141363  11.100   4.736   4.803 -0.5017  0.4176 -0.0937
  493HK4     H441364  11.052   4.661   4.868 -0.6658  0.3863 -0.2525
  493HK4    C1241365  11.098   4.726   4.665 -0.8961  0.4316 -0.0899
  493HK4     H541366  11.069   4.630   4.620 -0.2383 -0.2644  0.9439
  493HK4    C1341367  11.102   4.840   4.584  0.0300  0.2206 -0.3483
  493HK4     H641368  11.096   4.821   4.476 -1.5544 -0.2824 -0.1849
  493HK4     C741369  11.159   4.872   5.002 -0.2804  0.2030  0.0702
  493HK4     O241370  11.113   4.797   5.088  0.1689  0.5625  0.6280
  493HK4     C441371  11.202   5.007   5.045 -0.5784  0.0898  0.7333
  493HK4     C341372   0.039   5.020   5.154  0.7071  0.2757 -0.2774
  493HK4     H341373   0.100   4.934   5.184  3.2520  1.2325 -2.5461
  493HK4     C241374   0.067   5.138   5.222 -0.1319  0.2117  0.1864
  493HK4     H241375   0.112   5.151   5.322  0.3002  1.1850 -0.1338
  493HK4     C141376   0.008   5.244   5.155  0.2246  0.1957 -0.1568
  493HK4     H141377   0.000   5.335   5.216 -0.5446 -0.0845  0.1745
  493HK4     C641378  11.180   5.247   5.036  0.1600  0.1087 -0.1196
  493HK4     C541379  11.142   5.121   4.988  0.1600  0.0859 -0.0586
  493HK4    C1041380  11.078   5.106   4.854 -0.5359  0.0342  0.2736
  493HK4     O141381  10.976   5.163   4.816 -0.3695  0.0866 -0.0919
  493HK4    C1641382  11.212   5.355   4.942 -0.2345 -0.0376 -0.4207
  493HK4    C1541383   0.089   5.419   4.936 -0.0277 -0.3637  0.3705
  493HK4     H741384   0.178   5.355   4.946 -0.0112 -0.1793  1.4517
  493HK4    C2041385   0.106   5.548   4.888 -0.1139 -0.3851  0.2813
  493HK4     H941386   0.208   5.589   4.891 -0.4009  0.2919  0.9235
  493HK4    C1941387   0.002   5.617   4.827  0.2876 -0.0822 -0.0757
  493HK4    C1841388  11.118   5.556   4.838  0.2378  0.1248  0.4634
  493HK4    C1741389  11.105   5.431   4.897 -0.4205  0.0616  0.1776
  493HK4     H841390  11.001   5.402   4.912 -0.6443  0.0365 -1.3013
  493HK4     N141391  11.023   5.645   4.784 -0.1280 -0.1472  0.6614
  493HK4    C2141392  11.096   5.741   4.712  0.0913 -0.6360  0.2271
  493HK4    C2241393  11.237   5.735   4.744  0.1581  0.0154  0.0828
  493HK4    C2641394   0.080   5.819   4.681  0.0593  0.2445  0.2421
  493HK4    H1341395   0.186   5.794   4.690  0.1756  1.7528  3.7502
  493HK4    C2541396   0.036   5.912   4.588 -0.1938 -0.3336 -0.2186
  493HK4    H1241397   0.116   5.964   4.533 -0.5491  1.3964  0.8690
  493HK4    C2441398  11.150   5.924   4.555 -0.2515 -0.4508 -0.0284
  493HK4    H1141399  11.121   5.994   4.475 -1.2802  0.3462  1.0320
  493HK4    C2341400  11.061   5.834   4.614  0.0030 -0.2913  0.5861
  493HK4    H1041401  10.954   5.836   4.595 -0.2851  3.3144  2.0747
  493HK4    C3941402  10.888   5.613   4.763  0.0950 -0.4413 -0.3597
  493HK4    C4141403  10.835   5.488   4.725 -0.0458 -0.6749  0.5828
  493HK4    H2141404  10.897   5.407   4.685  0.1549 -1.1962  1.9302
  493HK4    C4241405  10.698   5.464   4.720 -0.1714  0.1523 -0.2092
  493HK4    H2241406  10.669   5.358   4.720  1.4921 -0.3060 -0.1978
  493HK4    C4341407  10.609   5.567   4.751 -0.0305  0.2108 -0.0064
  493HK4    H2341408  10.507   5.566   4.711  0.2129  2.4288 -0.7367
  493HK4    C4441409  10.656   5.693   4.783  0.3736  0.1790 -0.4561
  493HK4    H2441410  10.585   5.777   4.775 -0.7764 -0.8414 -1.0692
  493HK4    C4541411  10.793   5.712   4.796  0.4101 -0.1237 -0.3993
  493HK4    H2541412  10.835   5.812   4.814 -3.1569  1.2668  0.5266
  494HK4    H2841413   1.556   3.567   4.950  0.0035  0.0966 -0.7052
  494HK4    C4841414   1.643   3.626   4.980  0.1685 -0.5697  0.1205
  494HK4    C4741415   1.676   3.638   5.115 -0.1565 -0.0611  0.1584
  494HK4    H2741416   1.596   3.616   5.187 -0.6306  0.2524 -0.2701
  494HK4    C4641417   1.798   3.699   5.143 -0.3789  0.4318  0.0492
  494HK4    H2641418   1.821   3.708   5.251  1.9090 -1.7892 -0.2105
  494HK4    C4041419   1.888   3.753   5.049 -0.0468  0.0363  0.1433
  494HK4    C5041420   1.842   3.742   4.917 -0.3335  0.6696  0.1928
  494HK4    H3041421   1.923   3.759   4.844 -0.5738 -0.7397 -0.4130
  494HK4    C4941422   1.724   3.677   4.880  0.2963 -0.5115  0.2564
  494HK4    H2941423   1.706   3.638   4.779 -0.8062  2.2806 -0.6864
  494HK4     N241424   2.024   3.769   5.079 -0.0436  0.3623 -0.0560
  494HK4    C3041425   2.105   3.859   5.006  0.2090 -0.0220 -0.2539
  494HK4    C2941426   2.088   3.951   4.903  0.1315  0.5021  0.2231
  494HK4    H1541427   1.999   3.941   4.841  1.2608 -0.0030 -1.3456
  494HK4    C2841428   2.183   4.040   4.853  0.4103 -0.0353 -0.2042
  494HK4    C2741429   2.309   4.030   4.917  0.2959 -0.1820  0.0026
  494HK4    H1441430   2.391   4.096   4.883 -0.4861  1.2564  0.8314
  494HK4    C3241431   2.335   3.933   5.013  0.0979 -0.2923 -0.0527
  494HK4    H1641432   2.441   3.922   5.035  0.1913  1.0471  0.2614
  494HK4    C3141433   2.238   3.848   5.063  0.0747 -0.2211  0.0208
  494HK4    C3441434   2.231   3.749   5.168 -0.3873  0.1798  0.3786
  494HK4    C3341435   2.096   3.699   5.178 -0.4161  0.2032  0.1011
  494HK4    C3541436   2.074   3.591   5.262 -0.2796  0.0451 -0.0663
  494HK4    H1741437   1.970   3.560   5.273 -0.1919 -0.0243  0.5865
  494HK4    C3641438   2.174   3.549   5.349 -0.4547 -0.0009  0.1152
  494HK4    H1841439   2.148   3.481   5.431  0.0001  0.8349  0.9629
  494HK4    C3741440   2.300   3.607   5.351 -0.2213 -0.4891 -0.1838
  494HK4    H1941441   2.377   3.573   5.420  0.1439  1.4614  0.3949
  494HK4    C3841442   2.328   3.709   5.260 -0.4422  0.0917  0.3971
  494HK4    H2041443   2.410   3.778   5.280  1.4323 -1.3300 -2.1430
  494HK4    C1441444   2.174   4.096   4.718 -0.2476  0.5864  0.0948
  494HK4     C941445   2.281   4.117   4.629 -0.3155 -0.0044 -0.1278
  494HK4     C841446   2.284   4.233   4.549  0.1082 -0.0208 -0.1341
  494HK4    C1141447   2.177   4.321   4.554 -0.0240 -0.1801 -0.1264
  494HK4     H441448   2.184   4.418   4.503  0.6660  0.4537  1.1321
  494HK4    C1241449   2.058   4.285   4.616 -0.3819 -0.3832 -0.9289
  494HK4     H541450   1.965   4.336   4.587 -0.5870  0.2664  0.7924
  494HK4    C1341451   2.063   4.181   4.708 -0.3856  0.3904 -0.0440
  494HK4     H641452   1.970   4.167   4.765 -0.8835 -0.2991 -1.0093
  494HK4     C741453   2.402   4.262   4.464  0.1637  0.2135  0.0218
  494HK4     O241454   2.416   4.372   4.412  0.3262 -0.0498 -0.4992
  494HK4     C441455   2.502   4.154   4.449  0.6315  0.5899  0.4560
  494HK4     C341456   2.601   4.161   4.352 -0.1987 -0.0132 -0.4332
  494HK4     H341457   2.592   4.229   4.266 -1.7721  0.3081 -0.0246
  494HK4     C241458   2.701   4.064   4.348 -0.3880 -0.2088 -0.4536
  494HK4     H241459   2.781   4.055   4.273 -0.9382 -5.1249 -0.5834
  494HK4     C141460   2.708   3.958   4.437 -0.2608  0.1277 -0.0561
  494HK4     H141461   2.786   3.880   4.433 -1.3919 -1.1435  1.8162
  494HK4     C641462   2.623   3.960   4.549 -0.2812 -0.1797 -0.0655
  494HK4     C541463   2.513   4.046   4.540  0.2259  0.5187  0.4221
  494HK4    C1041464   2.390   4.016   4.618 -0.1363  0.2061 -0.2665
  494HK4     O141465   2.347   3.901   4.609  0.0138  0.1615 -0.4425
  494HK4    C1641466   2.673   3.887   4.667  0.7416  0.3093 -0.1887
  494HK4    C1541467   2.635   3.931   4.795  0.8100  0.3226 -0.1733
  494HK4     H741468   2.576   4.023   4.802 -0.0269 -0.1551 -0.8272
  494HK4    C2041469   2.667   3.873   4.918 -0.2374  0.0147 -0.0473
  494HK4     H941470   2.654   3.933   5.008 -0.9739  0.1340 -0.2227
  494HK4    C1941471   2.741   3.756   4.916 -0.6920 -0.2800  0.1951
  494HK4    C1841472   2.766   3.692   4.788 -0.4092 -0.3957  0.3082
  494HK4    C1741473   2.736   3.763   4.672 -0.5040 -0.3061  0.3868
  494HK4     H841474   2.761   3.713   4.578 -0.4168  1.9656 -0.8254
  494HK4     N141475   2.871   3.599   4.798  0.0681  0.0346 -0.5953
  494HK4    C2141476   2.924   3.614   4.928 -1.0210 -0.5893 -0.0660
  494HK4    C2241477   2.839   3.700   5.007 -0.1759  0.2313 -0.0437
  494HK4    C2641478   2.856   3.714   5.144  0.6261  0.5906 -0.1746
  494HK4    H1341479   2.780   3.761   5.207  2.3849 -1.5232  3.7273
  494HK4    C2541480   2.960   3.645   5.204 -0.2064 -0.2588  0.2969
  494HK4    H1241481   2.974   3.649   5.312 -0.2679 -0.2136  0.3023
  494HK4    C2441482   3.049   3.567   5.131 -0.0052  0.1867  0.0676
  494HK4    H1141483   3.131   3.515   5.181  0.3706 -0.7645 -1.4998
  494HK4    C2341484   3.026   3.547   4.995  0.1437  1.1297 -0.0963
  494HK4    H1041485   3.089   3.475   4.943  1.2194  2.4275 -0.6358
  494HK4    C3941486   2.888   3.494   4.706  0.2726 -0.0945 -0.4108
  494HK4    C4141487   3.012   3.429   4.692  0.6020  0.3406  0.4239
  494HK4    H2141488   3.100   3.481   4.734  1.2906  0.9849 -1.7210
  494HK4    C4241489   3.037   3.307   4.629 -0.5087  0.0511  0.5421
  494HK4    H2241490   3.137   3.262   4.621  0.0695  1.0718  1.7556
  494HK4    C4341491   2.928   3.250   4.564 -0.3293  0.2142  0.1041
  494HK4    H2341492   2.942   3.174   4.486  0.6764 -0.0872  0.5636
  494HK4    C4441493   2.802   3.305   4.579 -0.4173  0.0176  0.0849
  494HK4    H2441494   2.713   3.252   4.542  0.2055 -0.5309 -0.6443
  494HK4    C4541495   2.780   3.420   4.654 -0.0908  0.0691  0.1005
  494HK4    H2541496   2.675   3.451   4.666  0.0520  0.8947 -0.6443
  495HK4    H2841497   4.387   3.139   8.626 -1.0005  0.0500  3.5928
  495HK4    C4841498   4.310   3.075   8.582  0.3167  0.6015  0.3525
  495HK4    C4741499   4.243   3.112   8.466  0.5622 -0.5441 -0.1598
  495HK4    H2741500   4.255   3.217   8.434 -0.5435  0.2899  2.1109
  495HK4    C4641501   4.160   3.021   8.401 -0.5657  0.4142 -0.0812
  495HK4    H2641502   4.133   3.033   8.295 -0.3157  1.2586 -0.0547
  495HK4    C4041503   4.136   2.890   8.447  0.0043  0.2704 -0.1837
  495HK4    C5041504   4.207   2.862   8.566  0.1937  0.4941 -0.2483
  495HK4    H3041505   4.191   2.761   8.605 -1.7290  0.1080 -1.9349
  495HK4    C4941506   4.296   2.946   8.632  0.0730  0.4706 -0.0501
  495HK4    H2941507   4.341   2.912   8.726  0.4719 -2.0571 -1.1254
  495HK4     N241508   4.025   2.815   8.405  0.0747  0.1000 -0.0728
  495HK4    C3041509   3.914   2.869   8.337 -0.1039  0.0002  0.1384
  495HK4    C2941510   3.869   2.999   8.319  0.1774 -0.0197 -0.7345
  495HK4    H1541511   3.915   3.088   8.363 -1.2668 -0.5350  1.8886
  495HK4    C2841512   3.753   3.028   8.248  0.3316  0.0158 -0.9732
  495HK4    C2741513   3.672   2.922   8.201 -0.2713 -0.0767  0.2705
  495HK4    H1441514   3.566   2.936   8.175 -0.5594 -3.6059 -0.6902
  495HK4    C3241515   3.715   2.791   8.216  0.6501  0.1451 -0.3763
  495HK4    H1641516   3.651   2.709   8.185 -0.0989  1.4019 -2.2265
  495HK4    C3141517   3.837   2.762   8.276  0.4410 -0.2440 -0.1339
  495HK4    C3441518   3.905   2.639   8.310  0.3306 -0.3333 -0.2385
  495HK4    C3341519   4.022   2.676   8.387 -0.5257 -0.0151  0.9231
  495HK4    C3541520   4.109   2.573   8.421 -0.1223  0.2191  0.6083
  495HK4    H1741521   4.208   2.583   8.467  0.4806  0.8413 -0.8312
  495HK4    C3641522   4.076   2.441   8.393 -0.0790  0.2032  0.6299
  495HK4    H1841523   4.138   2.358   8.432 -1.7785 -0.4392  2.0034
  495HK4    C3741524   3.956   2.406   8.333  0.0910  0.5476  0.0875
  495HK4    H1941525   3.942   2.300   8.310 -0.5286  0.1157  2.3833
  495HK4    C3841526   3.872   2.506   8.285 -0.4952 -0.1223 -0.2996
  495HK4    H2041527   3.786   2.480   8.223 -1.7514 -0.7884  1.6910
  495HK4    C1441528   3.715   3.169   8.229 -0.0184  0.0169 -0.2693
  495HK4     C941529   3.582   3.211   8.220 -0.0929 -0.2478 -0.3975
  495HK4     C841530   3.545   3.297   8.115  0.0386 -0.1192 -0.3417
  495HK4    C1141531   3.637   3.352   8.026  0.0962  0.1088 -0.1413
  495HK4     H441532   3.596   3.415   7.946 -0.5503  1.5805  1.3065
  495HK4    C1241533   3.771   3.322   8.049  0.1545  0.4992  0.0343
  495HK4     H541534   3.845   3.353   7.973  1.2960 -2.1272  0.0138
  495HK4    C1341535   3.811   3.235   8.149 -0.0202  1.0501  0.5815
  495HK4     H641536   3.919   3.215   8.154 -0.4305 -1.3590  0.3057
  495HK4     C741537   3.404   3.340   8.109 -0.0537 -0.4285 -0.3781
  495HK4     O241538   3.369   3.419   8.021 -0.0661 -0.4172 -0.3634
  495HK4     C441539   3.301   3.287   8.201 -0.1441  0.0159 -0.2212
  495HK4     C341540   3.168   3.328   8.198  0.1341  1.0057  0.7992
  495HK4     H341541   3.144   3.392   8.113 -1.5822  1.0559  1.2903
  495HK4     C241542   3.068   3.272   8.278 -0.2041 -0.1040 -0.3722
  495HK4     H241543   2.968   3.316   8.292  0.2549  0.9590 -0.3188
  495HK4     C141544   3.106   3.159   8.350  0.3386  0.1400 -0.2689
  495HK4     H141545   3.042   3.139   8.438  0.0814 -1.2071 -0.7578
  495HK4     C641546   3.235   3.103   8.345  0.3684  0.1733  0.0613
  495HK4     C541547   3.336   3.178   8.283  0.2264  0.1443 -0.2068
  495HK4    C1041548   3.480   3.160   8.316  0.1631  0.8096  0.4389
  495HK4     O141549   3.512   3.138   8.433  0.0015 -0.4789  0.2522
  495HK4    C1641550   3.227   2.957   8.332 -0.1195  0.1753  0.3013
  495HK4    C1541551   3.108   2.899   8.284 -0.3175  0.3822  0.5509
  495HK4     H741552   3.041   2.965   8.227 -0.6095 -0.3533  0.0329
  495HK4    C2041553   3.083   2.763   8.290  0.7897  0.0974 -0.9358
  495HK4     H941554   2.992   2.715   8.252  2.6271 -1.8882 -2.9579
  495HK4    C1941555   3.181   2.682   8.347  0.3333 -0.1297 -0.4577
  495HK4    C1841556   3.309   2.734   8.390  0.2158 -0.2731  0.0638
  495HK4    C1741557   3.328   2.871   8.375 -0.1025 -0.3097 -0.6809
  495HK4     H841558   3.429   2.913   8.381 -0.7704  1.4809 -1.6419
  495HK4     N141559   3.393   2.633   8.441  0.1210 -0.2103  0.3444
  495HK4    C2141560   3.318   2.514   8.437  0.0024 -0.1261  0.0714
  495HK4    C2241561   3.185   2.543   8.386  0.2648 -0.1838 -0.6454
  495HK4    C2641562   3.088   2.444   8.388  0.0259  0.0568 -0.3373
  495HK4    H1341563   2.989   2.466   8.347  0.4069 -2.1803 -2.6047
  495HK4    C2541564   3.110   2.315   8.437 -0.1373  0.3317  0.4642
  495HK4    H1241565   3.032   2.239   8.439  1.3782 -1.3652 -1.7397
  495HK4    C2441566   3.235   2.290   8.491  0.1742 -0.3970 -0.5664
  495HK4    H1141567   3.243   2.216   8.572  0.1055  1.2468  0.9910
  495HK4    C2341568   3.335   2.387   8.490 -0.0348 -0.1701 -0.0211
  495HK4    H1041569   3.431   2.360   8.533 -1.1768 -0.9703  2.1104
  495HK4    C3941570   3.520   2.644   8.499  0.2423  0.3131 -0.0148
  495HK4    C4141571   3.604   2.532   8.488 -0.3484 -0.1487  0.1348
  495HK4    H2141572   3.615   2.473   8.396  2.6982 -0.1694  0.4337
  495HK4    C4241573   3.704   2.521   8.584 -0.6185 -0.0360  0.4304
  495HK4    H2241574   3.768   2.431   8.585  1.1247  1.1572 -0.6813
  495HK4    C4341575   3.726   2.614   8.685 -0.3116  0.1204  0.2212
  495HK4    H2341576   3.791   2.590   8.770 -1.6107  0.3296  1.2991
  495HK4    C4441577   3.639   2.722   8.692 -0.2239  0.1884  0.2672
  495HK4    H2441578   3.632   2.786   8.782  0.4949 -0.4513  0.7776
  495HK4    C4541579   3.534   2.740   8.603 -0.2613  0.0621  0.2853
  495HK4    H2541580   3.460   2.820   8.614  0.5472  0.9754 -0.8223
  496HK4    H2841581   6.139   3.108   7.669  0.5702 -0.0890 -0.6130
  496HK4    C4841582   6.110   3.005   7.644 -0.0416 -0.1918  0.4862
  496HK4    C4741583   6.208   2.907   7.633  0.0843  0.0148 -0.2648
  496HK4    H2741584   6.316   2.923   7.649 -0.2643  0.7749  1.4142
  496HK4    C4641585   6.186   2.782   7.578 -0.1332 -0.0900  0.0576
  496HK4    H2641586   6.272   2.713   7.566  0.3782  0.1639  2.1329
  496HK4    C4041587   6.055   2.744   7.541 -0.1946  0.0041  0.1728
  496HK4    C5041588   5.961   2.848   7.551 -0.3608 -0.1500  0.1778
  496HK4    H3041589   5.865   2.826   7.501 -0.4222 -1.3071  0.7776
  496HK4    C4941590   5.982   2.975   7.601  0.1353 -0.1183 -0.1067
  496HK4    H2941591   5.895   3.027   7.645  1.3173  1.9559 -0.1654
  496HK4     N241592   6.039   2.619   7.479 -0.4130 -0.1540  0.5438
  496HK4    C3041593   6.136   2.533   7.425 -0.4399  0.3032 -0.2396
  496HK4    C2941594   6.262   2.562   7.375 -0.0152 -0.1286  0.5722
  496HK4    H1541595   6.285   2.666   7.352  0.6905 -0.6087 -1.0163
  496HK4    C2841596   6.347   2.469   7.316 -0.1782  0.0054  0.1262
  496HK4    C2741597   6.297   2.338   7.300 -0.3893  0.1101 -0.0829
  496HK4    H1441598   6.360   2.258   7.259 -1.1405 -0.2164 -0.6014
  496HK4    C3241599   6.170   2.303   7.344 -0.2801 -0.3623 -0.1388
  496HK4    H1641600   6.132   2.207   7.308 -0.1961  0.1876 -1.7367
  496HK4    C3141601   6.089   2.397   7.407  0.3984 -0.0563  0.2787
  496HK4    C3441602   5.953   2.403   7.459  0.0590 -0.1647 -0.5906
  496HK4    C3341603   5.924   2.540   7.499 -0.5283 -0.2828 -0.6121
  496HK4    C3541604   5.806   2.566   7.566 -0.0682 -0.0259  0.0969
  496HK4    H1741605   5.792   2.650   7.634  2.3802  4.1837 -4.3204
  496HK4    C3641606   5.711   2.465   7.580 -0.1717  0.1060  0.3608
  496HK4    H1841607   5.613   2.496   7.618 -2.1828 -0.7825 -3.8795
  496HK4    C3741608   5.744   2.333   7.550  0.1312  0.2500  0.0514
  496HK4    H1941609   5.688   2.252   7.597  3.2237 -1.7933  0.3178
  496HK4    C3841610   5.862   2.302   7.484 -0.3199  0.1490 -0.7027
  496HK4    H2041611   5.883   2.195   7.477 -2.0761 -0.2320 -0.3454
  496HK4    C1441612   6.468   2.514   7.246 -0.0293 -0.1425  0.2874
  496HK4     C941613   6.520   2.439   7.139 -0.2230  0.1685 -0.0241
  496HK4     C841614   6.659   2.415   7.135 -0.3405 -0.5541  0.1584
  496HK4    C1141615   6.744   2.483   7.222 -0.1887  0.2070 -0.5703
  496HK4     H441616   6.853   2.481   7.207  0.0715  1.3575  1.1199
  496HK4    C1241617   6.698   2.564   7.325 -0.3741 -0.1244 -0.3904
  496HK4     H541618   6.768   2.613   7.394 -0.4028  0.0348 -0.4743
  496HK4    C1341619   6.560   2.576   7.333 -0.2932  0.4852  0.1213
  496HK4     H641620   6.517   2.654   7.397 -1.8755  2.1623 -2.8641
  496HK4     C741621   6.716   2.329   7.029  0.2156 -0.3940  0.3279
  496HK4     O241622   6.835   2.298   7.034  0.3425  0.0529  0.0498
  496HK4     C441623   6.624   2.268   6.931  0.4235  0.0212 -0.1235
  496HK4     C341624   6.670   2.194   6.822  0.8665 -0.1368  0.1658
  496HK4     H341625   6.778   2.200   6.800  0.4686  2.1245 -1.3961
  496HK4     C241626   6.584   2.111   6.751  0.3361  0.4731  0.0856
  496HK4     H241627   6.607   2.068   6.652 -0.2576  1.4184 -0.4804
  496HK4     C141628   6.451   2.099   6.788  0.3318  0.5066  0.0836
  496HK4     H141629   6.388   2.028   6.733  3.4187 -0.8734 -1.7499
  496HK4     C641630   6.400   2.172   6.898  0.0458  0.2718  0.1065
  496HK4     C541631   6.485   2.268   6.954  0.3405  0.4351 -0.6093
  496HK4    C1041632   6.433   2.383   7.032  0.2493  0.3114 -0.4882
  496HK4     O141633   6.349   2.455   6.978 -0.2592  0.0635 -0.0304
  496HK4    C1641634   6.298   2.095   6.969  0.0817  0.0836 -0.0424
  496HK4    C1541635   6.272   1.960   6.935  0.0827  0.1441 -0.2789
  496HK4     H741636   6.352   1.896   6.895  0.0079 -0.1828  0.0892
  496HK4    C2041637   6.151   1.893   6.943  0.0306  0.2661 -0.0180
  496HK4     H941638   6.133   1.790   6.911  0.0596  0.2738 -0.0573
  496HK4    C1941639   6.042   1.962   6.995  0.2331 -0.1992  1.0435
  496HK4    C1841640   6.056   2.101   7.033  0.0419  0.2125 -0.3446
  496HK4    C1741641   6.183   2.155   7.019  0.0541  0.2067 -0.2553
  496HK4     H841642   6.204   2.244   7.080  1.5255 -0.8488  0.8078
  496HK4     N141643   5.929   2.160   7.052  0.0656  0.1461  0.0296
  496HK4    C2141644   5.833   2.064   7.011  0.1616 -0.3583  0.9617
  496HK4    C2241645   5.899   1.938   6.982  0.2980 -0.0900  0.0964
  496HK4    C2641646   5.832   1.830   6.927 -0.0030  0.2245 -0.1573
  496HK4    H1341647   5.882   1.734   6.914 -1.1638 -0.1681 -2.0743
  496HK4    C2541648   5.695   1.844   6.908 -0.1125  0.2036  0.6136
  496HK4    H1241649   5.635   1.757   6.880 -1.4035  1.7958 -1.7559
  496HK4    C2441650   5.628   1.963   6.937 -0.3553  0.1065  0.4498
  496HK4    H1141651   5.518   1.961   6.942 -0.2605  0.7730  3.2440
  496HK4    C2341652   5.698   2.075   6.981  0.5448  0.0079 -0.7034
  496HK4    H1041653   5.662   2.175   6.960 -1.0584 -0.2337  0.7678
  496HK4    C3941654   5.898   2.293   7.080 -0.0261  0.1351 -0.0180
  496HK4    C4141655   5.781   2.338   7.145 -0.2692  0.0043 -0.3616
  496HK4    H2141656   5.693   2.273   7.158 -0.3844  0.6442  2.2797
  496HK4    C4241657   5.767   2.467   7.193 -0.1270 -0.2300  0.3237
  496HK4    H2241658   5.678   2.496   7.250 -1.3241 -2.3140 -0.4670
  496HK4    C4341659   5.862   2.563   7.157  0.2070 -0.5442  0.3724
  496HK4    H2341660   5.873   2.656   7.213 -0.2946 -1.1381  1.4640
  496HK4    C4441661   5.967   2.530   7.072  0.2331  0.5375 -0.0277
  496HK4    H2441662   6.042   2.605   7.045  0.3215  0.1408 -0.9036
  496HK4    C4541663   5.983   2.397   7.035 -0.2235  0.4076  0.2387
  496HK4    H2541664   6.053   2.374   6.953  0.0077 -0.2478  0.6106
  497HK4    H2841665   2.810   2.659  11.075  1.3840 -1.1924  2.6776
  497HK4    C4841666   2.761   2.566  11.046  0.1699  0.1196  0.3421
  497HK4    C4741667   2.632   2.540  11.093  0.1031  0.1373  0.1696
  497HK4    H2741668   2.570   2.624  11.128  0.5225  0.0271  1.2033
  497HK4    C4641669   2.574   2.415  11.076  0.4126  0.0086  0.0584
  497HK4    H2641670   2.474   2.389  11.112  0.3650 -1.1104 -0.8687
  497HK4    C4041671   2.648   2.314  11.011 -0.1581 -0.0804 -0.4514
  497HK4    C5041672   2.767   2.348  10.943  0.0213 -0.0821 -0.1371
  497HK4    H3041673   2.796   2.288  10.856  4.0311  0.9228  0.4051
  497HK4    C4941674   2.826   2.472  10.968 -0.1974 -0.0528  0.2458
  497HK4    H2941675   2.918   2.504  10.917 -0.8296 -0.5288 -1.2540
  497HK4     N241676   2.603   2.182  11.001 -0.0284 -0.1665  0.1190
  497HK4    C3041677   2.469   2.141  10.989 -0.1580  0.3633 -0.2288
  497HK4    C2941678   2.346   2.200  10.959 -0.2484  0.4387  0.2730
  497HK4    H1541679   2.344   2.301  10.917 -0.3141  0.1526 -0.4094
  497HK4    C2841680   2.225   2.133  10.958  0.0598 -0.1098 -0.1761
  497HK4    C2741681   2.223   1.992  10.971 -0.6365 -0.1461 -0.6408
  497HK4    H1441682   2.126   1.945  10.989  0.4284 -2.8721 -1.6300
  497HK4    C3241683   2.343   1.929  11.001 -0.3542  0.7093  0.0582
  497HK4    H1641684   2.349   1.824  11.033  0.4924  0.6822 -0.1857
  497HK4    C3141685   2.464   1.997  11.005 -0.1873  0.4100  0.1860
  497HK4    C3441686   2.597   1.946  11.029 -0.2315 -0.1618 -0.7860
  497HK4    C3341687   2.680   2.065  11.022  0.0165 -0.3469 -1.0212
  497HK4    C3541688   2.816   2.047  11.002  0.1340  0.3094 -0.8218
  497HK4    H1741689   2.879   2.131  11.031  0.2813  0.2331 -0.9216
  497HK4    C3641690   2.872   1.924  10.972 -0.1905  0.0153 -0.2331
  497HK4    H1841691   2.978   1.907  10.947 -0.1353  1.6287 -1.1573
  497HK4    C3741692   2.788   1.813  10.975 -0.1666 -0.0140 -0.6753
  497HK4    H1941693   2.838   1.717  10.978 -1.3148 -0.6351 -1.1470
  497HK4    C3841694   2.654   1.820  11.010  0.1040 -0.1983  0.4129
  497HK4    H2041695   2.589   1.733  11.017 -1.6761  1.1702  1.5779
  497HK4    C1441696   2.099   2.207  10.971  0.0279 -0.2412  0.2585
  497HK4     C941697   1.989   2.161  11.044  0.0622 -0.8201 -0.0491
  497HK4     C841698   1.859   2.176  10.993  0.2274 -0.3871 -0.3489
  497HK4    C1141699   1.842   2.253  10.878  0.6822 -0.2304 -0.3068
  497HK4     H441700   1.741   2.281  10.844  1.1230  3.0770  0.8898
  497HK4    C1241701   1.947   2.307  10.804  0.6483 -0.0708 -0.2426
  497HK4     H541702   1.918   2.358  10.710 -0.4935 -0.9894 -0.4130
  497HK4    C1341703   2.073   2.290  10.860  0.3862  0.0415  0.3806
  497HK4     H641704   2.156   2.327  10.799 -0.1733 -0.9676 -1.0237
  497HK4     C741705   1.752   2.085  11.039 -0.1326  0.1893 -0.0453
  497HK4     O241706   1.637   2.129  11.036 -0.0304  0.4253 -0.5448
  497HK4     C441707   1.787   1.974  11.130  0.2450 -0.0235 -0.4477
  497HK4     C341708   1.690   1.877  11.152  0.7244 -0.5204 -0.5179
  497HK4     H341709   1.606   1.870  11.081 -0.6389  2.8972  0.6343
  497HK4     C241710   1.708   1.781   0.004  0.1702 -0.0476  0.0432
  497HK4     H241711   1.630   1.705   0.020  2.3026 -2.7004 -1.7499
  497HK4     C141712   1.827   1.788   0.075 -0.3320 -0.2273  0.9099
  497HK4     H141713   1.841   1.700   0.139  1.1848 -0.3666  0.3998
  497HK4     C641714   1.934   1.878   0.053 -0.4332 -0.2066  0.4863
  497HK4     C541715   1.906   1.976  11.206  0.1372 -0.7609 -0.2577
  497HK4    C1041716   2.004   2.083  11.170 -0.1929 -0.2619  0.3305
  497HK4     O141717   2.083   2.123   0.007 -0.2038 -0.2984  0.3573
  497HK4    C1641718   2.067   1.821   0.079  0.1302  0.6811 -0.4184
  497HK4    C1541719   2.085   1.683   0.053  0.1783  0.5233  0.4378
  497HK4     H741720   2.009   1.630  11.242  1.4512  0.2893 -1.0124
  497HK4    C2041721   2.201   1.623   0.100 -0.3257 -0.4224  0.4783
  497HK4     H941722   2.227   1.525   0.059 -0.4018 -0.0120 -0.5537
  497HK4    C1941723   2.300   1.687   0.173 -0.3271 -0.1850  0.2719
  497HK4    C1841724   2.278   1.827   0.204  0.4369 -0.1080  0.4838
  497HK4    C1741725   2.161   1.886   0.157  0.6240 -0.2783 -0.2097
  497HK4     H841726   2.135   1.985   0.194 -0.3914 -0.1822 -1.1737
  497HK4     N141727   2.382   1.884   0.280  0.1385  0.2835  0.5962
  497HK4    C2141728   2.472   1.778   0.302 -0.3999 -0.3567 -0.2762
  497HK4    C2241729   2.433   1.660   0.226 -0.2858 -0.5649 -0.0157
  497HK4    C2641730   2.500   1.540   0.239  0.2035 -0.2930 -0.0030
  497HK4    H1341731   2.439   1.451   0.224  0.5864 -0.7539  1.1147
  497HK4    C2541732   2.611   1.530   0.322  0.2322 -0.1077 -0.0213
  497HK4    H1241733   2.687   1.459   0.292  1.1983  0.4380  1.0907
  497HK4    C2441734   2.643   1.639   0.403  0.2373  0.0040 -0.1751
  497HK4    H1141735   2.709   1.625   0.489 -0.4059 -0.6339  0.2133
  497HK4    C2341736   2.580   1.762   0.389 -0.3927 -0.3303 -0.2805
  497HK4    H1041737   2.621   1.856   0.426  0.2229 -0.7806  0.1659
  497HK4    C3941738   2.416   2.019   0.264  0.3901  0.1827  0.2777
  497HK4    C4141739   2.498   2.073   0.366 -0.4569  1.2788  0.3902
  497HK4    H2141740   2.504   2.026   0.465  3.7779 -0.5443 -0.6253
  497HK4    C4241741   2.579   2.181   0.333 -0.1133  0.9365  0.0956
  497HK4    H2241742   2.662   2.214   0.397 -0.8026 -0.1325  1.5784
  497HK4    C4341743   2.574   2.243   0.209  0.0030  0.0746 -0.3458
  497HK4    H2341744   2.598   2.348   0.191  0.9604 -0.2614 -1.0696
  497HK4    C4441745   2.498   2.184   0.109  0.2850  0.0493 -0.5421
  497HK4    H2441746   2.485   2.226   0.008 -2.1748 -0.0298 -0.2673
  497HK4    C4541747   2.420   2.072   0.134 -0.1346  0.5451  0.4049
  497HK4    H2541748   2.363   2.022   0.054  0.9826 -0.3148  0.1175
  498HK4    H2841749   8.354   5.134   2.594 -3.0457  1.4460 -2.4365
  498HK4    C4841750   8.393   5.078   2.509 -0.2920 -0.2220 -0.1945
  498HK4    C4741751   8.488   5.135   2.426 -0.0884  0.0282  0.2107
  498HK4    H2741752   8.542   5.225   2.461  3.3857 -0.9024 -2.3997
  498HK4    C4641753   8.531   5.066   2.313 -0.2636  0.1265  0.0827
  498HK4    H2641754   8.625   5.103   2.269  0.7231  0.6149  2.5219
  498HK4    C4041755   8.485   4.937   2.279 -0.7029  0.4703 -0.6303
  498HK4    C5041756   8.381   4.887   2.360 -0.0395 -0.1454 -0.1498
  498HK4    H3041757   8.352   4.781   2.350 -0.5817  0.1289 -1.7617
  498HK4    C4941758   8.332   4.960   2.467 -0.0488 -0.4308  0.0402
  498HK4    H2941759   8.254   4.911   2.528  0.3904 -1.7293 -0.4154
  498HK4     N241760   8.529   4.866   2.167  0.3701 -0.1781  0.1920
  498HK4    C3041761   8.594   4.931   2.060 -0.1472  0.1698  0.0844
  498HK4    C2941762   8.545   5.036   1.983 -0.4473 -0.1703 -0.1914
  498HK4    H1541763   8.458   5.090   2.020  0.4290  1.7513 -0.8984
  498HK4    C2841764   8.597   5.061   1.857  0.2535  0.4957  0.2252
  498HK4    C2741765   8.712   4.989   1.822 -0.2453 -0.2013  0.0155
  498HK4    H1441766   8.763   5.024   1.731 -0.4447  0.2467  0.0756
  498HK4    C3241767   8.773   4.891   1.901 -0.0774  0.2676  0.4738
  498HK4    H1641768   8.847   4.830   1.849 -0.0868  1.8826 -1.4830
  498HK4    C3141769   8.709   4.852   2.018 -0.4821 -0.3073  0.0604
  498HK4    C3441770   8.702   4.725   2.088 -0.4521 -0.2073  0.2423
  498HK4    C3341771   8.586   4.737   2.175 -0.3408 -0.4809  0.4298
  498HK4    C3541772   8.535   4.619   2.227 -0.1374 -0.3850  0.8427
  498HK4    H1741773   8.440   4.620   2.279 -1.8644  0.3854 -2.2216
  498HK4    C3641774   8.600   4.498   2.206  0.0061 -0.1108 -0.3167
  498HK4    H1841775   8.557   4.402   2.239 -0.9472  0.8221  1.2152
  498HK4    C3741776   8.721   4.493   2.139 -0.0171 -0.3894 -0.3403
  498HK4    H1941777   8.793   4.412   2.156  1.5052  0.2443 -3.2734
  498HK4    C3841778   8.770   4.605   2.073 -0.5072 -0.1699 -0.3325
  498HK4    H2041779   8.867   4.607   2.023  0.2449  1.4866  1.1511
  498HK4    C1441780   8.502   5.117   1.759 -0.5011  0.1674  0.7558
  498HK4     C941781   8.499   5.067   1.628 -0.1178  0.5240  0.6084
  498HK4     C841782   8.482   5.158   1.522  0.0623 -0.3083 -0.1428
  498HK4    C1141783   8.454   5.293   1.544 -0.2032 -0.3447 -0.2474
  498HK4     H441784   8.434   5.350   1.453 -0.0431 -0.9018 -0.6338
  498HK4    C1241785   8.450   5.345   1.673  0.7698 -0.1459 -0.2939
  498HK4     H541786   8.399   5.442   1.683  3.1718  1.1019  0.3304
  498HK4    C1341787   8.474   5.254   1.775 -0.3045  0.2589  0.3286
  498HK4     H641788   8.476   5.295   1.878 -0.4404  1.8977 -0.3057
  498HK4     C741789   8.514   5.115   1.384 -0.3231 -0.4308 -0.1925
  498HK4     O241790   8.512   5.188   1.286 -0.0110  0.0527  0.1614
  498HK4     C441791   8.564   4.977   1.363  0.3575 -0.1997 -0.0874
  498HK4     C341792   8.622   4.947   1.240  0.5375  0.1963 -0.1014
  498HK4     H341793   8.645   5.028   1.169  2.0105  1.5022  1.8195
  498HK4     C241794   8.681   4.822   1.223 -0.1544 -0.1679  0.1386
  498HK4     H241795   8.764   4.823   1.150 -1.6617 -0.8342 -1.6178
  498HK4     C141796   8.680   4.725   1.323 -0.0493 -0.0616  0.2443
  498HK4     H141797   8.719   4.624   1.305 -0.0810 -0.6609  3.3467
  498HK4     C641798   8.624   4.755   1.448 -0.2308  0.2549  0.0877
  498HK4     C541799   8.562   4.879   1.464  0.0914  0.3718  0.4590
  498HK4    C1041800   8.510   4.922   1.597 -0.1744  0.5853  0.2904
  498HK4     O141801   8.421   4.856   1.651  0.2506  0.3832  0.7556
  498HK4    C1641802   8.666   4.662   1.553 -0.0491  0.0648 -0.1537
  498HK4    C1541803   8.799   4.614   1.558  0.1041  0.5305  0.3680
  498HK4     H741804   8.876   4.660   1.494 -0.7377  0.0885 -0.9886
  498HK4    C2041805   8.845   4.518   1.647 -0.0676  0.1716  0.0700
  498HK4     H941806   8.939   4.471   1.620  0.3683  1.0247  0.0761
  498HK4    C1941807   8.751   4.455   1.728  0.1355 -0.3283 -0.0833
  498HK4    C1841808   8.611   4.488   1.710  0.2385  0.0488 -0.2137
  498HK4    C1741809   8.572   4.594   1.630  0.0662  0.2805  0.1755
  498HK4     H841810   8.464   4.614   1.627 -0.1392 -0.6838  0.9397
  498HK4     N141811   8.527   4.401   1.782  0.0537  0.0748 -0.4037
  498HK4    C2141812   8.612   4.299   1.828 -0.2055 -0.0853 -0.2679
  498HK4    C2241813   8.752   4.332   1.806 -0.1179 -0.2255  0.0806
  498HK4    C2641814   8.850   4.239   1.835 -0.4189 -0.5854 -0.0411
  498HK4    H1341815   8.954   4.254   1.804 -0.9124  0.1998 -1.3346
  498HK4    C2541816   8.813   4.114   1.882  0.2144 -0.8214 -0.1644
  498HK4    H1241817   8.895   4.052   1.918  3.1334  3.3547  0.7745
  498HK4    C2441818   8.681   4.078   1.905  0.0578 -0.3544 -0.3104
  498HK4    H1141819   8.655   3.976   1.938  1.7113 -1.0300 -1.0320
  498HK4    C2341820   8.583   4.172   1.875  0.2362  0.0218  0.2995
  498HK4    H1041821   8.477   4.152   1.895  0.2728  0.0228  0.5043
  498HK4    C3941822   8.415   4.451   1.850  0.2069  0.0031 -0.1024
  498HK4    C4141823   8.308   4.363   1.874  0.5691 -0.2853  0.4793
  498HK4    H2141824   8.300   4.270   1.815  0.1420  0.4021 -0.5678
  498HK4    C4241825   8.208   4.397   1.964  0.0683 -0.0317 -0.1622
  498HK4    H2241826   8.134   4.326   2.005 -1.4172  0.8349 -1.3158
  498HK4    C4341827   8.211   4.526   2.016  0.2581 -0.0726 -0.0708
  498HK4    H2341828   8.117   4.562   2.057  0.4997  3.2809 -2.2526
  498HK4    C4441829   8.307   4.621   1.986  0.4636 -0.1848  0.2293
  498HK4    H2441830   8.300   4.724   2.025 -0.6542 -0.0770 -0.2418
  498HK4    C4541831   8.413   4.581   1.906  0.1520  0.1009 -0.3346
  498HK4    H2541832   8.489   4.655   1.877 -1.1650  1.3213 -0.6714
  499HK4    H2841833   2.755   4.929   1.381  1.4693 -2.3957  0.1645
  499HK4    C4841834   2.720   4.915   1.483  0.7115  0.7048  0.3652
  499HK4    C4741835   2.693   4.784   1.520  0.8923  0.7386  0.6285
  499HK4    H2741836   2.689   4.709   1.440  1.9051 -0.6353  1.8568
  499HK4    C4641837   2.673   4.749   1.653 -0.7226 -0.3004  0.1253
  499HK4    H2641838   2.647   4.644   1.674 -3.7584  0.4276  0.2259
  499HK4    C4041839   2.688   4.851   1.748 -0.5116 -0.3405  0.1342
  499HK4    C5041840   2.689   4.987   1.709  0.1535 -0.2739  0.3842
  499HK4    H3041841   2.662   5.060   1.786  0.9851 -0.1019  0.5198
  499HK4    C4941842   2.715   5.018   1.576 -0.4666  0.5674  0.4586
  499HK4    H2941843   2.739   5.123   1.557  1.6461  0.1680  0.8189
  499HK4     N241844   2.749   4.821   1.871 -0.4292 -0.6315  0.0221
  499HK4    C3041845   2.841   4.717   1.893  0.6944  0.4031  0.2664
  499HK4    C2941846   2.936   4.663   1.807  0.4210  0.1159  0.1432
  499HK4    H1541847   2.950   4.711   1.710 -0.4150  0.8207  0.3622
  499HK4    C2841848   3.019   4.560   1.850  0.3837  0.1225  0.2246
  499HK4    C2741849   3.016   4.536   1.989  0.2530 -0.3177  0.1487
  499HK4    H1441850   3.115   4.501   2.024 -0.1369 -0.7874  0.7792
  499HK4    C3241851   2.925   4.590   2.079 -0.3074 -0.5662 -0.2722
  499HK4    H1641852   2.920   4.554   2.182 -0.1689  1.3866  0.4303
  499HK4    C3141853   2.829   4.680   2.033  0.3545  0.4002  0.2374
  499HK4    C3441854   2.725   4.758   2.096  0.3363  0.7600 -0.2381
  499HK4    C3341855   2.679   4.847   1.990 -0.5013  0.3454 -0.2240
  499HK4    C3541856   2.566   4.922   2.022 -0.2234  0.7460 -0.1774
  499HK4    H1741857   2.542   5.004   1.955  2.0610  0.6757 -1.1251
  499HK4    C3641858   2.484   4.901   2.131  0.1046 -0.0664 -0.0805
  499HK4    H1841859   2.380   4.937   2.138  0.0488 -0.3890  0.8647
  499HK4    C3741860   2.536   4.823   2.234 -0.0235 -0.0661 -0.0144
  499HK4    H1941861   2.480   4.793   2.322  0.4696 -0.8230  0.0504
  499HK4    C3841862   2.654   4.753   2.215  0.0366  0.1430 -0.4436
  499HK4    H2041863   2.694   4.697   2.300 -1.5463 -0.4103 -0.0539
  499HK4    C1441864   3.042   4.452   1.753 -0.0700  0.3744 -0.1717
  499HK4     C941865   3.019   4.316   1.782  0.1763  0.2791 -0.4282
  499HK4     C841866   3.104   4.220   1.724 -0.1244 -0.2427 -0.0009
  499HK4    C1141867   3.190   4.260   1.623 -0.4680  0.2069 -0.1168
  499HK4     H441868   3.242   4.187   1.558 -1.1426  1.5100 -2.1767
  499HK4    C1241869   3.215   4.393   1.589  0.6243  0.0504  0.0527
  499HK4     H541870   3.288   4.423   1.513  0.6828 -3.1651 -1.2547
  499HK4    C1341871   3.136   4.487   1.654  0.3017 -0.1736 -0.0174
  499HK4     H641872   3.150   4.593   1.628  1.7721  0.0285  1.5153
  499HK4     C741873   3.097   4.079   1.768  0.6212 -0.2652  0.0447
  499HK4     O241874   3.156   3.990   1.706 -0.3328 -0.6005 -0.3810
  499HK4     C441875   3.004   4.043   1.877 -0.3336  0.1598 -0.6278
  499HK4     C341876   3.023   3.925   1.948 -0.4725  0.0783 -0.7259
  499HK4     H341877   3.071   3.848   1.886  1.9132  0.4197  0.6486
  499HK4     C241878   2.966   3.901   2.072 -0.3141  0.2813 -0.6135
  499HK4     H241879   2.982   3.806   2.126 -0.1950  1.3878  1.3571
  499HK4     C141880   2.879   3.997   2.125 -0.8173 -0.4916 -0.0163
  499HK4     H141881   2.809   3.981   2.208  0.2014 -1.6571  0.6360
  499HK4     C641882   2.854   4.116   2.054  0.3000 -0.0941  0.2538
  499HK4     C541883   2.913   4.138   1.929  0.6364  0.4888  0.5078
  499HK4    C1041884   2.906   4.274   1.868  0.2861  0.0827 -0.3809
  499HK4     O141885   2.796   4.323   1.846  0.3767  0.3993 -0.1266
  499HK4    C1641886   2.799   4.220   2.143  0.0043 -0.1753  0.1634
  499HK4    C1541887   2.858   4.228   2.271  0.0409 -0.3243  0.1564
  499HK4     H741888   2.962   4.195   2.285  0.2957  0.6555  0.6092
  499HK4    C2041889   2.803   4.300   2.376 -0.3696 -0.3816 -0.0193
  499HK4     H941890   2.857   4.299   2.471  1.2452 -0.9172 -0.9302
  499HK4    C1941891   2.682   4.367   2.358  0.1495  0.5503 -0.0707
  499HK4    C1841892   2.624   4.365   2.225  0.0998  0.0614 -0.0420
  499HK4    C1741893   2.680   4.289   2.123 -0.1682 -0.4588  0.1937
  499HK4     H841894   2.627   4.287   2.028  0.5972 -1.8026 -0.2246
  499HK4     N141895   2.493   4.415   2.228  0.0677 -0.0136 -0.1919
  499HK4    C2141896   2.470   4.458   2.360 -0.1163 -0.0389 -0.2160
  499HK4    C2241897   2.581   4.422   2.446  0.1123  0.6882 -0.1998
  499HK4    C2641898   2.591   4.470   2.576 -0.1744 -0.0619  0.1016
  499HK4    H1341899   2.648   4.424   2.657 -0.6773  1.3966  1.3103
  499HK4    C2541900   2.503   4.570   2.614  0.3166  0.3847  0.0750
  499HK4    H1241901   2.518   4.604   2.717  1.4079 -0.6724  0.2827
  499HK4    C2441902   2.393   4.606   2.537  0.4332  0.4755 -0.0467
  499HK4    H1141903   2.312   4.671   2.574  1.1012  0.5772  1.2732
  499HK4    C2341904   2.378   4.549   2.411  0.0091 -0.2077  0.3157
  499HK4    H1041905   2.295   4.589   2.353  1.6833 -0.0924 -2.0448
  499HK4    C3941906   2.424   4.450   2.111 -0.0166  0.0183 -0.1325
  499HK4    C4141907   2.284   4.462   2.107 -0.0321 -0.0675  0.1114
  499HK4    H2141908   2.229   4.428   2.197 -1.0526 -0.6204 -0.7041
  499HK4    C4241909   2.216   4.519   1.999  0.0984  0.3365  0.2394
  499HK4    H2241910   2.115   4.561   2.009 -0.8830 -1.3424 -2.1256
  499HK4    C4341911   2.284   4.556   1.884  0.1029 -0.6206 -0.0772
  499HK4    H2341912   2.228   4.611   1.808 -1.0886 -2.2718 -0.4103
  499HK4    C4441913   2.423   4.549   1.883  0.1356 -0.0372 -0.2330
  499HK4    H2441914   2.474   4.620   1.816  0.0600 -0.7345 -1.0500
  499HK4    C4541915   2.488   4.499   1.995  0.0104  0.8061  0.2141
  499HK4    H2541916   2.597   4.506   2.000  0.0687  1.1057 -1.2868
  500HK4    H2841917   1.160   4.858   1.566  0.7364 -0.2924 -0.4360
  500HK4    C4841918   1.055   4.881   1.583  0.7792 -0.7341  0.4243
  500HK4    C4741919   0.975   4.898   1.470  0.3639 -0.2366  0.7895
  500HK4    H2741920   1.012   4.897   1.366  1.5195 -3.1448  1.1649
  500HK4    C4641921   0.837   4.898   1.483  0.2220  0.9006 -0.6067
  500HK4    H2641922   0.783   4.942   1.398 -1.3840 -0.3174 -0.2323
  500HK4    C4041923   0.770   4.885   1.606  0.2342  0.7076 -0.6209
  500HK4    C5041924   0.854   4.868   1.719 -0.0390  0.9750 -0.3774
  500HK4    H3041925   0.805   4.859   1.817 -0.9787 -1.8160 -1.0481
  500HK4    C4941926   0.992   4.871   1.707  0.0207  0.4735  0.1446
  500HK4    H2941927   1.059   4.875   1.794 -1.0514 -0.9500  1.0573
  500HK4     N241928   0.633   4.858   1.618  0.3856  0.1241 -0.1354
  500HK4    C3041929   0.549   4.791   1.527 -0.0064 -0.1268  0.4140
  500HK4    C2941930   0.574   4.699   1.426 -0.3098  0.1565  0.0801
  500HK4    H1541931   0.677   4.678   1.399 -0.5381  1.8886 -2.3231
  500HK4    C2841932   0.478   4.639   1.345 -0.0402 -0.0095 -0.1172
  500HK4    C2741933   0.347   4.685   1.373 -0.3450 -0.8842 -0.0910
  500HK4    H1441934   0.259   4.646   1.320 -3.0353  2.1588  1.9787
  500HK4    C3241935   0.311   4.770   1.476  0.8255  0.0279 -0.4111
  500HK4    H1641936   0.208   4.792   1.507  1.2045  1.2240  0.0064
  500HK4    C3141937   0.411   4.827   1.554  0.0980  0.3824  0.2740
  500HK4    C3441938   0.410   4.897   1.681  0.1950  0.4592  0.2316
  500HK4    C3341939   0.550   4.915   1.716  0.3354 -0.6303  0.2625
  500HK4    C3541940   0.580   5.015   1.808 -0.4089 -0.5195  0.3927
  500HK4    H1741941   0.682   5.022   1.846  0.5274 -1.4745 -1.8149
  500HK4    C3641942   0.481   5.100   1.855  0.2188  0.4326  0.0225
  500HK4    H1841943   0.520   5.194   1.896  1.4866  0.2753 -0.8061
  500HK4    C3741944   0.348   5.080   1.816  0.2658  0.2620 -0.0535
  500HK4    H1941945   0.273   5.155   1.841  0.3745  1.0065 -1.8810
  500HK4    C3841946   0.309   4.975   1.735 -0.0219  0.4218 -0.1219
  500HK4    H2041947   0.206   4.949   1.710 -0.3675  1.3591  0.3024
  500HK4    C1441948   0.512   4.537   1.245 -0.0629 -0.1149 -0.0164
  500HK4     C941949   0.417   4.502   1.148  0.0093  0.0644 -0.1514
  500HK4     C841950   0.402   4.366   1.113 -0.3172  0.0281  0.1257
  500HK4    C1141951   0.481   4.267   1.171 -0.0432  0.1645 -0.0124
  500HK4     H441952   0.442   4.165   1.171 -1.2416  0.6031 -1.6660
  500HK4    C1241953   0.585   4.303   1.257  0.1765  0.0919 -0.2460
  500HK4     H541954   0.662   4.229   1.283  1.1981  0.5886 -1.7403
  500HK4    C1341955   0.601   4.437   1.290 -0.2203 -0.0360  0.4758
  500HK4     H641956   0.687   4.465   1.352  0.9022 -0.6276 -0.7875
  500HK4     C741957   0.330   4.324   0.992  0.5021  0.0170 -0.3627
  500HK4     O241958   0.259   4.224   0.999 -0.1601  0.4853 -0.3815
  500HK4     C441959   0.312   4.427   0.887 -0.0355  0.3638  0.0717
  500HK4     C341960   0.295   4.375   0.760  0.5025  0.0127  0.1404
  500HK4     H341961   0.340   4.283   0.722 -1.1547 -0.4399 -0.7974
  500HK4     C241962   0.234   4.462   0.669  0.1267  0.1381  0.5113
  500HK4     H241963   0.207   4.424   0.569 -2.0160  3.7984 -0.3795
  500HK4     C141964   0.196   4.588   0.712 -0.5196 -0.0692  0.5593
  500HK4     H141965   0.136   4.646   0.640  1.0694 -1.0588 -1.5989
  500HK4     C641966   0.231   4.646   0.835 -0.2894  0.4122  0.2690
  500HK4     C541967   0.294   4.561   0.927 -0.8863  0.1461  0.4340
  500HK4    C1041968   0.358   4.602   1.055 -0.0609  0.1783  0.0143
  500HK4     O141969   0.407   4.715   1.059  0.4648 -0.0591  0.3246
  500HK4    C1641970   0.200   4.790   0.841 -0.2358  0.4422 -0.2390
  500HK4    C1541971   0.183   4.860   0.719  0.7254  0.4142 -0.3911
  500HK4     H741972   0.245   4.824   0.636 -1.8976 -0.1718 -2.1631
  500HK4    C2041973   0.096   4.967   0.705 -0.1648 -0.3296 -0.6487
  500HK4     H941974   0.081   5.003   0.603 -0.2182 -2.0194 -1.2507
  500HK4    C1941975   0.024   5.020   0.811  0.8033  0.0241 -0.1536
  500HK4    C1841976   0.049   4.956   0.938  0.1234  0.0188 -0.0188
  500HK4    C1741977   0.127   4.841   0.948  0.4549  0.2699  0.3169
  500HK4     H841978   0.139   4.795   1.046  0.9465  1.3438  0.7652
  500HK4     N141979  11.219   5.011   1.041  0.0212 -0.1420 -0.0115
  500HK4    C2141980  11.151   5.122   0.986  0.2141 -0.1884 -0.3384
  500HK4    C2241981  11.175   5.123   0.843  0.7075 -0.0328 -0.2553
  500HK4    C2641982  11.117   5.222   0.763 -0.3326 -0.4294  0.0022
  500HK4    H1341983  11.144   5.226   0.658  0.2808  2.1549  0.2264
  500HK4    C2541984  11.023   5.311   0.813  0.1680  0.1946 -0.1723
  500HK4    H1241985  10.981   5.390   0.751  0.4754  0.6557  0.1883
  500HK4    C2441986  10.990   5.304   0.948  0.1183  0.2590 -0.1808
  500HK4    H1141987  10.892   5.346   0.978  0.0279  0.2463 -0.4520
  500HK4    C2341988  11.054   5.211   1.030  0.2998  0.0330 -0.5844
  500HK4    H1041989  11.044   5.227   1.137  1.0514  1.6864 -0.7363
  500HK4    C3941990  11.247   5.003   1.178  0.1381 -0.4616 -0.0540
  500HK4    C4141991  11.144   5.014   1.274  0.0275 -0.2657 -0.1909
  500HK4    H2141992  11.040   5.006   1.240  0.4600  0.6373 -1.7449
  500HK4    C4241993  11.168   5.042   1.408  0.0815 -0.7375 -0.0973
  500HK4    H2241994  11.092   5.016   1.483 -2.3018  1.4285 -1.6679
  500HK4    C4341995   0.049   5.055   1.459  0.0699  0.5536 -0.3595
  500HK4    H2341996   0.065   5.105   1.555  1.0848 -1.2123  0.4266
  500HK4    C4441997   0.152   5.035   1.368  0.4320  0.0859  0.1475
  500HK4    H2441998   0.256   5.033   1.404 -0.2912  0.4940  2.3179
  500HK4    C4541999   0.129   5.012   1.233 -0.0176 -0.1573  0.2638
  500HK4    H2542000   0.220   5.004   1.173 -0.6205 -0.8190 -0.5767
  501HK4    H2842001   3.244   4.452   6.607 -1.1064  0.0827 -0.8461
  501HK4    C4842002   3.207   4.364   6.660  0.1086  0.2439  0.2842
  501HK4    C4742003   3.098   4.298   6.605 -0.3463  0.6929  0.6472
  501HK4    H2742004   3.033   4.344   6.529  1.5316  4.3455  1.1443
  501HK4    C4642005   3.061   4.169   6.641  0.6301  0.0770 -0.5213
  501HK4    H2642006   2.979   4.116   6.591 -0.5474  1.7699 -0.4285
  501HK4    C4042007   3.140   4.099   6.734  0.4229 -0.4605 -0.7494
  501HK4    C5042008   3.256   4.165   6.780 -0.4175  0.3353  0.2487
  501HK4    H3042009   3.327   4.118   6.849  1.4000  0.2555 -1.6235
  501HK4    C4942010   3.286   4.298   6.753  0.0798  0.2335  0.3015
  501HK4    H2942011   3.381   4.343   6.787 -0.0112  0.1719  0.6422
  501HK4     N242012   3.155   3.959   6.735 -0.2640 -0.5354 -0.2801
  501HK4    C3042013   3.117   3.869   6.633 -0.3391  0.0353 -0.7600
  501HK4    C2942014   3.106   3.884   6.495  0.2681  0.3882 -0.7709
  501HK4    H1542015   3.125   3.983   6.454 -0.4074  1.0121  0.4095
  501HK4    C2842016   3.086   3.777   6.409  0.3421  0.0111 -0.3254
  501HK4    C2742017   3.082   3.648   6.466  0.6074  0.0933 -0.1225
  501HK4    H1442018   3.068   3.559   6.403 -0.6263  0.0647  0.1824
  501HK4    C3242019   3.099   3.621   6.601 -0.1022 -0.0174 -0.0573
  501HK4    H1642020   3.135   3.522   6.630  0.0924  0.5675  1.7432
  501HK4    C3142021   3.120   3.733   6.681  0.1562  0.1742 -0.3940
  501HK4    C3442022   3.150   3.740   6.823  0.1140 -0.1861 -0.3639
  501HK4    C3342023   3.173   3.881   6.850 -0.4709 -0.1589  0.0112
  501HK4    C3542024   3.208   3.914   6.980 -0.2370 -0.0556 -0.0779
  501HK4    H1742025   3.209   4.020   7.007  1.9868 -0.0849  0.0701
  501HK4    C3642026   3.230   3.811   7.071  1.0084 -0.3131 -0.6565
  501HK4    H1842027   3.266   3.841   7.171 -0.8420  2.4706 -0.7798
  501HK4    C3742028   3.219   3.675   7.046  0.0082 -0.2819 -0.3923
  501HK4    H1942029   3.213   3.603   7.128  0.3650  0.1670  0.0285
  501HK4    C3842030   3.173   3.643   6.919  0.1569 -0.2615 -0.4520
  501HK4    H2042031   3.162   3.538   6.890 -0.5831  0.3031 -2.3122
  501HK4    C1442032   3.046   3.793   6.268 -0.1397 -0.0777 -0.2013
  501HK4     C942033   2.973   3.698   6.195  0.0196 -0.3823  0.0322
  501HK4     C842034   2.988   3.689   6.056  0.3080  0.0917  0.0320
  501HK4    C1142035   3.061   3.787   5.988  0.3037  0.3125  0.3466
  501HK4     H442036   3.080   3.778   5.880  3.1848  0.3792  0.8181
  501HK4    C1242037   3.128   3.888   6.057  0.8141 -0.0769  0.4239
  501HK4     H542038   3.172   3.970   5.999  0.7972 -0.6549 -0.4265
  501HK4    C1342039   3.123   3.887   6.196  1.0090 -0.5155  0.4301
  501HK4     H642040   3.164   3.974   6.247  0.3396  1.1452 -1.7735
  501HK4     C742041   2.930   3.578   5.978  0.2112  0.1285  0.0525
  501HK4     O242042   2.954   3.559   5.859  0.2756  0.1847  0.0573
  501HK4     C442043   2.842   3.482   6.050  0.5113 -0.2932 -0.1386
  501HK4     C342044   2.796   3.374   5.977  0.1026 -0.0860 -0.1918
  501HK4     H342045   2.809   3.365   5.868 -0.4290 -0.7716 -0.2003
  501HK4     C242046   2.712   3.284   6.041  0.4376 -0.1720  0.1266
  501HK4     H242047   2.658   3.213   5.976  0.9417 -1.0974  0.7022
  501HK4     C142048   2.690   3.298   6.178 -0.5346  0.0115 -0.0465
  501HK4     H142049   2.639   3.215   6.229 -0.8765  0.2634  0.0178
  501HK4     C642050   2.725   3.411   6.254  0.4243 -0.3300  0.0336
  501HK4     C542051   2.804   3.503   6.184 -0.3555  0.0037 -0.4260
  501HK4    C1042052   2.859   3.622   6.255  0.0618 -0.4542  0.0207
  501HK4     O142053   2.781   3.685   6.325  0.0158 -0.5024  0.0122
  501HK4    C1642054   2.741   3.381   6.397  0.3438  0.3787  0.1933
  501HK4    C1542055   2.791   3.255   6.433 -0.2047 -0.0814 -0.6397
  501HK4     H742056   2.865   3.212   6.363 -1.3715 -1.4598 -1.0596
  501HK4    C2042057   2.758   3.187   6.550 -0.2267  0.6155 -0.2375
  501HK4     H942058   2.803   3.091   6.577  1.7183  1.9377  1.3964
  501HK4    C1942059   2.676   3.256   6.638 -0.1428 -0.1010  0.4092
  501HK4    C1842060   2.647   3.396   6.613 -0.1595 -0.1803 -0.0050
  501HK4    C1742061   2.666   3.454   6.488  0.5078  0.3613  0.3446
  501HK4     H842062   2.622   3.551   6.465  0.1523 -0.3409 -2.0174
  501HK4     N142063   2.586   3.459   6.723 -0.0473 -0.2257  0.0856
  501HK4    C2142064   2.554   3.354   6.811 -0.1530 -0.1517  0.1343
  501HK4    C2242065   2.617   3.231   6.768 -0.0605 -0.2058  0.4257
  501HK4    C2642066   2.596   3.111   6.836  0.3239 -0.3815  0.2353
  501HK4    H1342067   2.654   3.020   6.822 -0.9603 -1.1490 -0.1049
  501HK4    C2542068   2.516   3.115   6.949  0.1990 -0.1915  0.1392
  501HK4    H1242069   2.475   3.021   6.986 -1.8898 -0.1939 -2.0578
  501HK4    C2442070   2.460   3.235   6.991  0.4434 -0.1791  0.4365
  501HK4    H1142071   2.385   3.230   7.072 -0.1741 -0.9309 -0.1748
  501HK4    C2342072   2.485   3.358   6.932 -0.1738 -0.1991  0.1259
  501HK4    H1042073   2.421   3.441   6.962  0.0274 -0.1191  0.3301
  501HK4    C3942074   2.610   3.594   6.753  0.1711 -0.3082  0.2787
  501HK4    C4142075   2.535   3.662   6.851  0.1989 -0.4819  0.4188
  501HK4    H2142076   2.432   3.631   6.875  0.1419  0.2649  1.1687
  501HK4    C4242077   2.589   3.774   6.913  0.1787 -0.0644 -0.3240
  501HK4    H2242078   2.530   3.836   6.982  0.9169  1.0480 -0.6775
  501HK4    C4342079   2.715   3.824   6.878  0.1982  0.2309  0.1692
  501HK4    H2342080   2.749   3.923   6.908 -0.8504  1.4813 -2.6665
  501HK4    C4442081   2.787   3.762   6.777  0.1179  0.1462  0.1640
  501HK4    H2442082   2.878   3.806   6.733 -0.1119  1.3300  0.8366
  501HK4    C4542083   2.734   3.649   6.716  0.1109 -0.0294  0.4917
  501HK4    H2542084   2.800   3.596   6.646 -0.3411  1.7261 -1.3339
  502HK4    H2842085   4.999  10.827   8.763 -1.2573 -0.0779  0.9891
  502HK4    C4842086   5.074  10.769   8.817 -0.2738 -0.0572 -0.3191
  502HK4    C4742087   5.043  10.658   8.895  0.5228  0.0718  0.1803
  502HK4    H2742088   4.940  10.620   8.885  0.2358  0.4540  1.5047
  502HK4    C4642089   5.134  10.607   8.988  0.1241  0.0383  0.5546
  502HK4    H2642090   5.117  10.510   9.036  0.4466  0.1101  0.8163
  502HK4    C4042091   5.257  10.669   9.019  0.3363 -0.1272  0.0461
  502HK4    C5042092   5.283  10.785   8.944 -0.2540  0.0694  0.1389
  502HK4    H3042093   5.354  10.854   8.991  0.7875 -1.4366  0.8005
  502HK4    C4942094   5.202  10.820   8.836 -0.0165 -0.7094 -0.2951
  502HK4    H2942095   5.242  10.890   8.762  0.3736 -0.2647  0.3292
  502HK4     N242096   5.326  10.646   9.138  0.1493 -0.0073  0.1768
  502HK4    C3042097   5.277  10.577   9.251 -0.1415 -0.0548  0.0171
  502HK4    C2942098   5.153  10.592   9.313 -0.0118  0.0950  0.2434
  502HK4    H1542099   5.081  10.660   9.268 -0.2116  1.3067  2.3419
  502HK4    C2842100   5.126  10.525   9.431 -0.0371 -0.2290  0.0533
  502HK4    C2742101   5.229  10.451   9.492  0.2835  0.0040 -0.2020
  502HK4    H1442102   5.211  10.403   9.589  0.7633 -0.5150 -0.3652
  502HK4    C3242103   5.359  10.455   9.442  0.4050  0.1798  0.1208
  502HK4    H1642104   5.439  10.426   9.510 -0.2929 -0.2844  0.7523
  502HK4    C3142105   5.389  10.522   9.324  0.0315  0.6631  0.3003
  502HK4    C3442106   5.515  10.555   9.260  0.0070  0.1346 -0.0250
  502HK4    C3342107   5.467  10.636   9.150  0.1842  0.0361 -0.1698
  502HK4    C3542108   5.559  10.668   9.052  0.1382 -0.0217 -0.2333
  502HK4    H1742109   5.532  10.742   8.976 -3.0522  0.1126  0.9639
  502HK4    C3642110   5.685  10.611   9.061  0.3057  0.4099  0.1375
  502HK4    H1842111   5.750  10.626   8.973 -1.3978  2.6526 -0.7977
  502HK4    C3742112   5.728  10.533   9.168 -0.0219  0.5014  0.3333
  502HK4    H1942113   5.829  10.494   9.161 -0.8225 -1.3870 -1.3783
  502HK4    C3842114   5.641  10.496   9.270 -0.0948 -0.0716  0.0737
  502HK4    H2042115   5.649  10.408   9.334  0.8586 -0.3020 -0.3522
  502HK4    C1442116   5.024  10.590   9.515  0.0525 -0.1938  0.1357
  502HK4     C942117   5.038  10.612   9.653  0.4217  0.1167  0.0518
  502HK4     C842118   4.924  10.600   9.736  0.4409 -0.2252  0.0301
  502HK4    C1142119   4.801  10.582   9.673  0.5999 -0.2963 -0.2634
  502HK4     H442120   4.713  10.596   9.738  0.4733 -2.2608  0.0266
  502HK4    C1242121   4.782  10.568   9.536 -0.0945 -0.4339 -0.1566
  502HK4     H542122   4.687  10.547   9.486 -0.3199  1.7813 -0.6709
  502HK4    C1342123   4.896  10.576   9.457  0.0652 -0.1456  0.1014
  502HK4     H642124   4.878  10.618   9.358 -1.6199 -1.8581 -0.3518
  502HK4     C742125   4.932  10.592   9.884  0.5106  0.5281  0.0671
  502HK4     O242126   4.839  10.629   9.955  0.2652  0.0488 -0.0058
  502HK4     C442127   5.070  10.579   9.935  0.4963 -0.6787 -0.1751
  502HK4     C342128   5.093  10.558  10.071 -0.5075  0.9785  0.2610
  502HK4     H342129   5.005  10.533  10.133 -0.5397 -2.0246 -0.9417
  502HK4     C242130   5.217  10.576  10.131  0.0420  0.2381 -0.6378
  502HK4     H242131   5.226  10.563  10.240  2.0647  1.7505 -0.5956
  502HK4     C142132   5.326  10.599  10.048  0.7794  0.5796  0.4196
  502HK4     H142133   5.416  10.637  10.101  0.6437 -2.4320  2.9652
  502HK4     C642134   5.313  10.611   9.908  0.1059 -0.3941  0.4010
  502HK4     C542135   5.182  10.616   9.859  0.2085  1.2097  0.2907
  502HK4    C1042136   5.171  10.642   9.712  0.5665 -0.3631 -0.0254
  502HK4     O142137   5.223  10.747   9.676 -0.7056  0.3359  0.1355
  502HK4    C1642138   5.423  10.543   9.837  0.5180  0.3779  0.2976
  502HK4    C1542139   5.491  10.426   9.876 -0.3512 -0.1220  0.3297
  502HK4     H742140   5.455  10.364   9.959  1.2629  0.5557  1.5767
  502HK4    C2042141   5.614  10.388   9.824 -0.0808  0.5940  0.4372
  502HK4     H942142   5.656  10.295   9.862  3.4517  1.0203 -2.1032
  502HK4    C1942143   5.678  10.470   9.731  0.2990  0.2112  0.3609
  502HK4    C1842144   5.609  10.590   9.688 -0.1846 -0.2360 -0.1202
  502HK4    C1742145   5.487  10.625   9.745 -0.1939  0.1729 -0.3879
  502HK4     H842146   5.462  10.731   9.735  1.8964  0.7307  0.0777
  502HK4     N142147   5.686  10.666   9.598 -0.1987  0.0834  0.1383
  502HK4    C2142148   5.802  10.591   9.569 -0.3682 -0.0721 -0.1520
  502HK4    C2242149   5.801  10.474   9.655  0.4498  0.4800  0.6185
  502HK4    C2642150   5.902  10.379   9.637 -0.0310  0.1432 -0.3652
  502HK4    H1342151   5.918  10.302   9.712 -0.8324  0.9067  0.6149
  502HK4    C2542152   6.002  10.399   9.543 -0.1876 -0.2811 -0.6214
  502HK4    H1242153   6.076  10.323   9.516  1.2409  1.6924 -2.3917
  502HK4    C2442154   6.004  10.515   9.466 -0.1293 -0.4016 -0.8051
  502HK4    H1142155   6.097  10.532   9.410 -0.4179 -2.1276 -1.8539
  502HK4    C2342156   5.898  10.604   9.470  0.3598  0.1270  0.5707
  502HK4    H1042157   5.909  10.704   9.429  0.7709  0.7692  2.2280
  502HK4    C3942158   5.648  10.774   9.517  0.0880 -0.5080 -0.7985
  502HK4    C4142159   5.513  10.794   9.483 -0.1620 -0.3424  0.2563
  502HK4    H2142160   5.437  10.718   9.509  1.4795 -1.8754  0.6783
  502HK4    C4242161   5.477  10.902   9.404 -0.0945 -0.4668  0.0460
  502HK4    H2242162   5.369  10.908   9.386 -0.0214 -2.0767 -0.9610
  502HK4    C4342163   5.571  11.001   9.379  0.0139 -0.4290  0.5892
  502HK4    H2342164   5.531  11.086   9.323 -0.2258 -0.0155  1.3867
  502HK4    C4442165   5.700  10.993   9.431  0.4352 -0.4254 -0.4282
  502HK4    H2442166   5.776  11.067   9.402  0.3626 -0.3830 -0.5084
  502HK4    C4542167   5.737  10.884   9.509 -0.2591 -0.1345  0.3165
  502HK4    H2542168   5.839  10.877   9.550 -0.1788  0.6285  0.2514
  503HK4    H2842169   2.083   0.105   8.717  2.1890  1.9796  0.7045
  503HK4    C4842170   2.002   0.164   8.760  0.2812 -0.1956  0.2446
  503HK4    C4742171   1.934   0.248   8.672  0.4438 -0.5648 -0.2303
  503HK4    H2742172   1.946   0.252   8.562 -1.2064  0.3039 -0.4006
  503HK4    C4642173   1.828   0.318   8.726  0.8307 -0.2267  0.0898
  503HK4    H2642174   1.788   0.402   8.667 -0.4887 -0.7719  0.1799
  503HK4    C4042175   1.785   0.305   8.860  0.1251  0.0577 -0.1038
  503HK4    C5042176   1.854   0.216   8.944 -0.4084 -0.2179  0.0436
  503HK4    H3042177   1.814   0.185   9.042 -1.5760 -2.7664 -1.1886
  503HK4    C4942178   1.962   0.146   8.892 -0.6294 -0.4769 -0.0697
  503HK4    H2942179   2.006   0.063   8.950  0.5735 -0.7811 -1.3897
  503HK4     N242180   1.659   0.346   8.904  0.0943  0.2540 -0.3699
  503HK4    C3042181   1.552   0.350   8.812 -0.3608 -0.1236  0.1335
  503HK4    C2942182   1.522   0.259   8.711 -0.2966 -0.2768  0.2497
  503HK4    H1542183   1.588   0.172   8.708  0.4659  0.2318  1.6509
  503HK4    C2842184   1.404   0.261   8.637  0.0392  0.2685 -0.2744
  503HK4    C2742185   1.307   0.353   8.684  0.2214  0.2728  0.1003
  503HK4    H1442186   1.215   0.370   8.627  0.5516  0.7754 -0.2903
  503HK4    C3242187   1.327   0.445   8.786 -0.6462  0.6033 -0.0292
  503HK4    H1642188   1.249   0.518   8.806 -0.7171  0.8569 -1.2163
  503HK4    C3142189   1.446   0.437   8.858 -0.5435 -0.1318 -0.2749
  503HK4    C3442190   1.487   0.479   8.990 -0.2305 -0.8395 -0.1396
  503HK4    C3342191   1.616   0.418   9.017  0.0838 -0.1677 -0.1026
  503HK4    C3542192   1.662   0.410   9.148 -0.3028  0.8265  0.0964
  503HK4    H1742193   1.759   0.364   9.164 -0.9157 -1.4696 -2.5236
  503HK4    C3642194   1.578   0.443   9.254 -0.0258 -0.3926  0.6959
  503HK4    H1842195   1.590   0.407   9.358  0.8669  1.3933  1.2303
  503HK4    C3742196   1.456   0.505   9.229  0.1245 -0.3611  0.0451
  503HK4    H1942197   1.389   0.542   9.307  1.8045  0.0175  1.3407
  503HK4    C3842198   1.415   0.528   9.098  0.4407 -0.1128 -0.0165
  503HK4    H2042199   1.325   0.583   9.072 -0.2709 -1.7676 -1.0968
  503HK4    C1442200   1.413   0.215   8.498 -0.3290 -0.1760 -0.1497
  503HK4     C942201   1.357   0.284   8.390  0.5261 -0.0675 -0.5217
  503HK4     C842202   1.311   0.213   8.277 -0.0742 -0.0644 -0.2809
  503HK4    C1142203   1.333   0.076   8.271  0.4643  0.0063  0.0608
  503HK4     H442204   1.308   0.022   8.179  0.5770 -0.5753  0.3658
  503HK4    C1242205   1.398   0.009   8.375  0.5628 -0.4769 -0.3053
  503HK4     H542206   1.412  11.149   8.360  0.2551 -0.7585  1.3413
  503HK4    C1342207   1.438   0.077   8.490  0.1831 -0.0676 -0.4115
  503HK4     H642208   1.518   0.024   8.545 -1.4194 -0.2169  1.8357
  503HK4     C742209   1.228   0.276   8.172 -1.0894 -0.1820  0.4403
  503HK4     O242210   1.162   0.207   8.094 -0.4103 -0.2026 -0.1167
  503HK4     C442211   1.212   0.423   8.175  0.3138 -0.0110 -0.1509
  503HK4     C342212   1.133   0.487   8.079 -0.3163 -0.0845  0.3171
  503HK4     H342213   1.103   0.431   7.990  0.5299  0.6103 -0.4180
  503HK4     C242214   1.101   0.622   8.092 -1.1529 -0.2907  0.3608
  503HK4     H242215   1.051   0.674   8.009 -0.8925 -0.6349 -0.0091
  503HK4     C142216   1.146   0.687   8.206  0.0569  0.0125 -0.2904
  503HK4     H142217   1.135   0.796   8.204  1.7341  0.2578  1.5883
  503HK4     C642218   1.212   0.627   8.316  0.2123  0.2800 -0.2384
  503HK4     C542219   1.258   0.499   8.284 -0.0254  0.1676 -0.1314
  503HK4    C1042220   1.350   0.433   8.380  0.0437 -0.0794 -0.3669
  503HK4     O142221   1.456   0.490   8.407 -0.4733  0.7751 -0.1160
  503HK4    C1642222   1.167   0.668   8.450 -0.1549 -0.1457 -0.2281
  503HK4    C1542223   1.048   0.739   8.472  0.1697  0.1096  0.7726
  503HK4     H742224   0.968   0.714   8.400  0.6594  1.9549 -0.4464
  503HK4    C2042225   1.034   0.846   8.560  0.0263  0.5189  0.2558
  503HK4     H942226   0.935   0.882   8.585 -0.0050  0.3349  0.3998
  503HK4    C1942227   1.143   0.880   8.639  0.2097 -0.0773  0.2690
  503HK4    C1842228   1.256   0.790   8.643  0.2783 -0.0209 -0.3258
  503HK4    C1742229   1.263   0.687   8.549 -0.6441 -0.7158  0.3618
  503HK4     H842230   1.325   0.603   8.578 -0.2228 -0.6822 -0.4428
  503HK4     N142231   1.348   0.836   8.740 -0.4149 -0.2168  0.4232
  503HK4    C2142232   1.295   0.955   8.794 -0.0303  0.0335  0.2465
  503HK4    C2242233   1.171   0.991   8.728 -0.0339  0.0055  0.2400
  503HK4    C2642234   1.126   1.123   8.736  0.2210  0.0906  0.2608
  503HK4    H1342235   1.029   1.150   8.694 -0.2970 -2.2262 -0.1209
  503HK4    C2542236   1.204   1.226   8.786  0.3807  0.2711 -0.3452
  503HK4    H1242237   1.156   1.317   8.823  1.1555  0.5411  0.0044
  503HK4    C2442238   1.331   1.193   8.832  0.0491 -0.4126  0.0951
  503HK4    H1142239   1.389   1.268   8.887  4.9191 -2.9062 -1.3428
  503HK4    C2342240   1.373   1.060   8.841  0.8945 -0.2087 -0.7222
  503HK4    H1042241   1.442   1.033   8.920  0.6123  1.5617  0.1734
  503HK4    C3942242   1.474   0.782   8.766 -0.4317 -0.4022  0.1252
  503HK4    C4142243   1.536   0.799   8.892 -0.1823  0.4415 -0.1044
  503HK4    H2142244   1.484   0.841   8.979 -0.6264 -2.0440  0.8731
  503HK4    C4242245   1.666   0.753   8.909 -0.2732  0.1873 -0.0946
  503HK4    H2242246   1.726   0.788   8.995  0.9647 -0.3505 -0.7223
  503HK4    C4342247   1.735   0.690   8.806  0.0291 -0.4410  0.4805
  503HK4    H2342248   1.827   0.634   8.822  1.2892  1.3338 -0.3174
  503HK4    C4442249   1.680   0.682   8.678 -0.0188  0.3250  0.4446
  503HK4    H2442250   1.740   0.629   8.603 -2.1988 -0.9125 -0.4693
  503HK4    C4542251   1.551   0.730   8.660 -0.3564 -0.6260  0.2912
  503HK4    H2542252   1.508   0.721   8.559 -1.4497  1.2144  0.5700
  504HK4    H2842253   1.652   9.401  10.398  1.5903  3.5191  1.4025
  504HK4    C4842254   1.732   9.378  10.327 -0.5460 -0.3356  0.0749
  504HK4    C4742255   1.734   9.442  10.203  0.6520  0.0544  0.2902
  504HK4    H2742256   1.644   9.499  10.176  0.8809 -0.0678 -0.7358
  504HK4    C4642257   1.840   9.430  10.114  0.3420  0.3833 -0.1217
  504HK4    H2642258   1.829   9.471  10.012 -1.9092  3.3511  1.2310
  504HK4    C4042259   1.953   9.357  10.154 -0.1501 -0.0580  0.4637
  504HK4    C5042260   1.952   9.296  10.281  0.0625 -0.3220  0.3414
  504HK4    H3042261   2.025   9.216  10.300  0.6012  0.5346  2.0120
  504HK4    C4942262   1.844   9.307  10.368 -0.3149 -0.1081 -0.1599
  504HK4    H2942263   1.848   9.263  10.468  0.0546 -0.4741 -0.3309
  504HK4     N242264   2.059   9.331  10.066 -0.2738  0.0892  0.2727
  504HK4    C3042265   2.037   9.317   9.927  0.4111  0.0613  0.1646
  504HK4    C2942266   1.929   9.275   9.851  0.5092 -0.4856  0.3226
  504HK4    H1542267   1.830   9.273   9.896  0.5429 -1.8529  0.3697
  504HK4    C2842268   1.939   9.229   9.720 -0.0022  0.2448  0.0257
  504HK4    C2742269   2.063   9.244   9.654  0.0754 -0.2419  0.0631
  504HK4    H1442270   2.081   9.202   9.554  0.4731 -0.8336  0.3809
  504HK4    C3242271   2.169   9.302   9.722  0.2720 -0.5019 -0.0213
  504HK4    H1642272   2.262   9.297   9.665  0.3368 -1.4678  0.1502
  504HK4    C3142273   2.160   9.343   9.855  0.4631 -0.5890  0.0188
  504HK4    C3442274   2.260   9.374   9.955 -0.2565  0.6951  0.3522
  504HK4    C3342275   2.198   9.349  10.084 -0.2289 -0.1922  0.1928
  504HK4    C3542276   2.275   9.320  10.195 -0.2881 -0.0033  0.2818
  504HK4    H1742277   2.233   9.316  10.296  0.3632  0.3462  0.5731
  504HK4    C3642278   2.413   9.321  10.181 -0.2885 -0.5018  0.2334
  504HK4    H1842279   2.477   9.280  10.261 -0.6527 -0.1754  0.6977
  504HK4    C3742280   2.476   9.353  10.061 -0.2641 -0.6228  0.2134
  504HK4    H1942281   2.583   9.365  10.051 -0.0345  0.1720  3.0848
  504HK4    C3842282   2.399   9.378   9.948 -0.2135 -1.0896  0.0756
  504HK4    H2042283   2.444   9.407   9.854  0.9719 -0.6889  0.7660
  504HK4    C1442284   1.828   9.160   9.653  0.0733  0.4748 -0.3390
  504HK4     C942285   1.842   9.069   9.548 -0.4807 -0.2145  0.1681
  504HK4     C842286   1.747   9.051   9.446 -0.4202 -0.2463  0.1206
  504HK4    C1142287   1.635   9.133   9.448 -0.1311  0.1335  0.5800
  504HK4     H442288   1.568   9.138   9.361 -1.2101 -3.5976  1.1111
  504HK4    C1242289   1.612   9.220   9.554 -0.0919  0.2140  0.5261
  504HK4     H542290   1.507   9.251   9.567 -0.0047  1.6083 -1.9037
  504HK4    C1342291   1.703   9.226   9.659  0.0658  0.4047  0.3767
  504HK4     H642292   1.681   9.296   9.741 -0.0390  1.6411 -0.6971
  504HK4     C742293   1.760   8.952   9.336  0.7978  0.2808 -0.2156
  504HK4     O242294   1.670   8.931   9.256  0.2276  0.6311  0.3290
  504HK4     C442295   1.878   8.863   9.336  0.6697  0.1122 -0.3336
  504HK4     C342296   1.890   8.765   9.237 -0.5741 -0.8367  0.4422
  504HK4     H342297   1.794   8.734   9.194 -0.9402  0.6325  0.1596
  504HK4     C242298   2.014   8.707   9.217 -0.1599  0.0730  0.3327
  504HK4     H242299   2.032   8.641   9.131 -1.0562 -0.3051  0.4314
  504HK4     C142300   2.124   8.741   9.296 -0.2723 -0.0614  0.5464
  504HK4     H142301   2.209   8.672   9.304 -0.0855  0.1288  0.1613
  504HK4     C642302   2.111   8.832   9.403  0.0708 -0.0611  0.5894
  504HK4     C542303   1.984   8.886   9.426  0.0711  0.0219  0.3944
  504HK4    C1042304   1.957   8.974   9.543 -0.0508  0.3042  0.1544
  504HK4     O142305   1.985   8.922   9.651 -0.2785  0.4254  0.2708
  504HK4    C1642306   2.226   8.921   9.423  0.2644 -0.1520 -0.1199
  504HK4    C1542307   2.306   8.963   9.314 -0.2736  0.5125 -0.2614
  504HK4     H742308   2.281   8.924   9.214 -2.5029  0.5832  0.2427
  504HK4    C2042309   2.420   9.040   9.334  0.5020 -0.9635  1.0413
  504HK4     H942310   2.503   9.035   9.263  0.4156 -0.4563  0.9062
  504HK4    C1942311   2.463   9.082   9.459 -0.0064  0.2147  0.8236
  504HK4    C1842312   2.390   9.019   9.568 -0.3157  0.0208  0.5058
  504HK4    C1742313   2.277   8.940   9.551 -0.2466  0.0183  0.0614
  504HK4     H842314   2.239   8.883   9.636 -1.8707 -1.5166 -1.6408
  504HK4     N142315   2.455   9.049   9.690  0.8341 -0.6346  0.0623
  504HK4    C2142316   2.554   9.145   9.661  0.1842  0.0319  0.0152
  504HK4    C2242317   2.562   9.170   9.518  0.3047  0.3625  0.0778
  504HK4    C2642318   2.660   9.249   9.460  0.3265  0.0806 -0.2746
  504HK4    H1342319   2.669   9.267   9.352  2.2324  2.3262  0.2239
  504HK4    C2542320   2.755   9.297   9.548 -0.0024 -0.2194  0.2417
  504HK4    H1242321   2.855   9.322   9.512 -0.2680 -0.1593 -0.4445
  504HK4    C2442322   2.748   9.275   9.685  0.2707  0.3816  0.3570
  504HK4    H1142323   2.823   9.321   9.752  0.2177 -1.4396  1.7250
  504HK4    C2342324   2.646   9.203   9.747  0.1879  0.1409 -0.0652
  504HK4    H1042325   2.619   9.218   9.851  0.8201  0.7678  0.0138
  504HK4    C3942326   2.402   9.005   9.812  0.1927 -0.5558 -0.1779
  504HK4    C4142327   2.487   8.991   9.924  0.1620 -0.1938 -0.1143
  504HK4    H2142328   2.596   9.005   9.916  0.2989 -1.0690  0.2200
  504HK4    C4242329   2.440   8.967  10.052 -0.1869 -0.0634 -0.2155
  504HK4    H2242330   2.505   8.958  10.140 -0.5162 -2.0625 -0.1522
  504HK4    C4342331   2.302   8.959  10.070 -0.1250  0.0177  0.3161
  504HK4    H2342332   2.258   8.933  10.166 -1.7409  1.7829  0.0893
  504HK4    C4442333   2.214   8.974   9.963 -0.1211  0.7245  0.4101
  504HK4    H2442334   2.109   8.951   9.985 -0.3889  0.1643 -1.4096
  504HK4    C4542335   2.264   9.005   9.837  0.2753 -0.4093  0.2849
  504HK4    H2542336   2.199   9.057   9.765  1.8176  0.7857 -0.2541
  505HK4    H2842337   5.188   9.774   0.334 -0.7490 -0.3588  1.6316
  505HK4    C4842338   5.284   9.822   0.354 -0.5840  0.0138  0.0255
  505HK4    C4742339   5.402   9.752   0.335 -0.2035  0.7440 -0.2928
  505HK4    H2742340   5.399   9.643   0.322  0.9549  0.6812 -0.0795
  505HK4    C4642341   5.523   9.820   0.325  0.3661 -0.1078  0.6831
  505HK4    H2642342   5.612   9.761   0.349  1.9143  1.3617 -1.2711
  505HK4    C4042343   5.524   9.960   0.343  0.1265  0.0275 -0.2990
  505HK4    C5042344   5.403  10.028   0.367  0.3859  0.1402  0.7581
  505HK4    H3042345   5.405  10.138   0.365 -1.3147  0.1804 -0.1681
  505HK4    C4942346   5.283   9.959   0.378  0.4482 -0.0343  0.3638
  505HK4    H2942347   5.192  10.005   0.419  2.2779  0.9103  3.5495
  505HK4     N242348   5.640  10.037   0.327 -0.2107  0.5402 -0.2890
  505HK4    C3042349   5.751   9.996   0.250  0.0840 -0.5427  0.7080
  505HK4    C2942350   5.763   9.914   0.138  0.4971 -0.2685  0.5498
  505HK4    H1542351   5.680   9.846   0.119 -1.4705  2.4949 -1.2684
  505HK4    C2842352   5.886   9.881   0.084  0.2853  0.3970 -0.3543
  505HK4    C2742353   5.998   9.933   0.154  0.4115 -0.4687  0.0858
  505HK4    H1442354   6.096   9.893   0.124 -0.1806 -1.1430 -1.0235
  505HK4    C3242355   5.995  10.009   0.270  0.1507  0.2691 -0.4013
  505HK4    H1642356   6.089  10.052   0.303  1.0175 -1.4640 -0.5597
  505HK4    C3142357   5.870  10.043   0.319  0.2560  0.4994 -0.2875
  505HK4    C3442358   5.834  10.124   0.434 -0.0299  0.6376 -0.4770
  505HK4    C3342359   5.689  10.120   0.430 -0.0306  0.3401 -0.2128
  505HK4    C3542360   5.622  10.203   0.519  0.2521  0.1606  0.1712
  505HK4    H1742361   5.516  10.221   0.500  0.5823 -0.1697 -2.2508
  505HK4    C3642362   5.687  10.290   0.606  0.1761  0.2591  0.1263
  505HK4    H1842363   5.636  10.370   0.662  0.0448  0.8016 -0.7478
  505HK4    C3742364   5.826  10.286   0.607  0.1835  0.3489 -0.3032
  505HK4    H1942365   5.873  10.335   0.693  0.3513  0.8023 -0.6559
  505HK4    C3842366   5.902  10.201   0.528  0.0592 -0.1598  0.1169
  505HK4    H2042367   6.010  10.192   0.540 -0.2504  0.0863  3.6759
  505HK4    C1442368   5.907   9.790  11.219 -0.0783 -0.3100  0.1419
  505HK4     C942369   6.020   9.713  11.189  0.0524 -0.1390  0.1954
  505HK4     C842370   6.060   9.699  11.055 -0.2291  0.2356  0.0729
  505HK4    C1142371   5.970   9.740  10.956 -0.4480 -0.2788  0.0572
  505HK4     H442372   5.993   9.697  10.857  1.3466 -0.2732  0.4486
  505HK4    C1242373   5.846   9.795  10.982 -0.1544  0.5933 -0.3878
  505HK4     H542374   5.791   9.840  10.898 -1.2609 -0.5602 -0.2922
  505HK4    C1342375   5.818   9.823  11.115  0.4054  0.0690 -0.1555
  505HK4     H642376   5.723   9.870  11.147 -0.2826 -0.7349 -0.9905
  505HK4     C742377   6.205   9.679  11.031 -0.3480 -0.0605 -0.4101
  505HK4     O242378   6.249   9.662  10.918  0.5593 -0.6850  0.0329
  505HK4     C442379   6.295   9.663  11.148 -0.2775 -0.3717 -0.5095
  505HK4     C342380   6.431   9.682  11.131 -0.2653  0.3699  0.3784
  505HK4     H342381   6.483   9.709  11.037 -0.6728  0.4568  0.1746
  505HK4     C242382   6.515   9.643  11.234 -0.4186 -0.1919  0.2898
  505HK4     H242383   6.622   9.640  11.206 -0.3139  0.1616  0.6357
  505HK4     C142384   6.461   9.566   0.088 -0.2263  0.6497  1.0373
  505HK4     H142385   6.533   9.509   0.149 -0.9840 -0.3777  0.9957
  505HK4     C642386   6.324   9.537   0.104 -0.2311  0.3377  0.4653
  505HK4     C542387   6.239   9.603   0.014  0.0514 -0.4843 -0.4045
  505HK4    C1042388   6.096   9.634   0.043  0.1076 -0.4884 -0.1165
  505HK4     O142389   6.026   9.577   0.126  0.1340 -0.8063 -0.3115
  505HK4    C1642390   6.279   9.426   0.190  0.1161  0.0181  0.2328
  505HK4    C1542391   6.361   9.398   0.302 -0.0445  0.3371  0.4303
  505HK4     H742392   6.421   9.479   0.346 -0.4341  1.0910 -0.3874
  505HK4    C2042393   6.360   9.275   0.366 -0.0059  0.1178  0.0157
  505HK4     H942394   6.418   9.257   0.456  0.3455  2.3792  0.2729
  505HK4    C1942395   6.282   9.173   0.313 -0.2904  0.3032  0.0791
  505HK4    C1842396   6.204   9.198   0.193 -0.2478 -0.2783 -0.0694
  505HK4    C1742397   6.203   9.324   0.135  0.2782 -0.1183  0.2610
  505HK4     H842398   6.154   9.339   0.039  1.5488  0.4657 -0.3052
  505HK4     N142399   6.146   9.078   0.146 -0.0926 -0.4966  0.2915
  505HK4    C2142400   6.182   8.977   0.237  0.1906 -0.2437  0.4637
  505HK4    C2242401   6.262   9.033   0.344  0.5621  0.1552 -0.0225
  505HK4    C2642402   6.301   8.958   0.455  0.2780 -0.1674 -0.1379
  505HK4    H1342403   6.339   9.013   0.541 -1.3251 -0.4189  0.7340
  505HK4    C2542404   6.252   8.829   0.468 -0.6400  0.1918 -0.0242
  505HK4    H1242405   6.254   8.788   0.569  1.9317 -0.3759 -0.2782
  505HK4    C2442406   6.172   8.773   0.369  0.1649 -0.5806 -0.2412
  505HK4    H1142407   6.134   8.670   0.370  0.2307 -0.6187 -1.0297
  505HK4    C2342408   6.142   8.844   0.253  0.1012 -0.2778 -0.0392
  505HK4    H1042409   6.111   8.784   0.168 -1.0984 -0.5723  0.5974
  505HK4    C3942410   6.058   9.066   0.038 -0.1505  0.2298  0.2574
  505HK4    C4142411   6.037   8.944  11.218  0.3233  0.2427  0.0829
  505HK4    H2142412   6.124   8.877  11.210 -0.5903 -1.0522  0.7472
  505HK4    C4242413   5.924   8.925  11.140  0.5066  0.2609 -0.1867
  505HK4    H2242414   5.918   8.841  11.069 -0.7421  1.5128 -1.5868
  505HK4    C4342415   5.824   9.020  11.122  0.4142  0.2873  0.4652
  505HK4    H2342416   5.733   8.998  11.067  0.1748  2.4685 -0.0530
  505HK4    C4442417   5.837   9.139  11.192  0.0338  0.5151  0.1496
  505HK4    H2442418   5.756   9.213  11.196 -0.2974  0.1847 -0.5016
  505HK4    C4542419   5.951   9.157   0.021  0.0777  0.4690  0.0939
  505HK4    H2542420   5.965   9.251   0.076  0.7354 -0.7799  2.1338
  506HK4    H2842421  10.533   3.489   4.108 -0.1895  0.6647 -0.4348
  506HK4    C4842422  10.456   3.419   4.139  0.1827  0.5661  0.2932
  506HK4    C4742423  10.322   3.443   4.111  0.1768 -0.3190 -0.4660
  506HK4    H2742424  10.294   3.545   4.079 -1.6891 -0.9751 -0.9925
  506HK4    C4642425  10.220   3.359   4.155  0.2840 -0.0723  0.2573
  506HK4    H2642426  10.115   3.385   4.136  0.3083 -0.7046 -0.7833
  506HK4    C4042427  10.249   3.247   4.237 -0.2403  0.0002  0.5443
  506HK4    C5042428  10.386   3.226   4.265  0.0177 -0.7072 -1.2024
  506HK4    H3042429  10.417   3.153   4.341 -3.0709 -0.0284  0.7816
  506HK4    C4942430  10.487   3.306   4.214 -0.1384  0.0185 -0.3932
  506HK4    H2942431  10.592   3.284   4.239  0.0597  1.2870 -0.0948
  506HK4     N242432  10.151   3.159   4.284 -0.3775 -0.1845 -0.0842
  506HK4    C3042433  10.156   3.088   4.406  0.0105 -0.0364 -0.0153
  506HK4    C2942434  10.233   3.109   4.520 -0.2877 -0.0824  0.1953
  506HK4    H1542435  10.286   3.205   4.518  1.7531 -1.1924  0.0214
  506HK4    C2842436  10.239   3.027   4.631  0.3627 -0.3894 -0.0623
  506HK4    C2742437  10.149   2.918   4.630 -0.6163  0.4050  0.3574
  506HK4    H1442438  10.127   2.870   4.727  1.7604 -2.8194 -0.6079
  506HK4    C3242439  10.064   2.893   4.522 -0.3553  0.1119  0.2193
  506HK4    H1642440   9.985   2.818   4.523 -1.4022  1.1875 -0.4121
  506HK4    C3142441  10.063   2.978   4.412  0.0221 -0.0393  0.0995
  506HK4    C3442442   9.990   2.996   4.288  0.4828 -0.5849 -0.2517
  506HK4    C3342443  10.052   3.097   4.205 -0.5241  0.1200 -0.1380
  506HK4    C3542444  10.029   3.120   4.069 -1.0759  0.5495  0.0221
  506HK4    H1742445  10.094   3.185   4.011 -0.1521 -0.1433  0.2651
  506HK4    C3642446   9.939   3.027   4.018 -0.3184  0.0371 -0.4105
  506HK4    H1842447   9.907   3.035   3.913 -0.8302  2.0012 -0.1262
  506HK4    C3742448   9.876   2.927   4.091  0.0412  0.1066 -0.0050
  506HK4    H1942449   9.800   2.863   4.045 -1.0496  0.7452  0.8715
  506HK4    C3842450   9.900   2.909   4.227 -0.1856 -0.0771  0.0130
  506HK4    H2042451   9.876   2.817   4.279  0.2846 -0.8006 -1.0209
  506HK4    C1442452  10.333   3.037   4.743  0.4451  0.1184 -0.1795
  506HK4     C942453  10.355   2.940   4.842 -1.1443 -0.1038 -0.0249
  506HK4     C842454  10.391   2.977   4.973 -0.4817 -0.2452 -0.1622
  506HK4    C1142455  10.408   3.113   5.000  0.0930 -0.3073 -0.2147
  506HK4     H442456  10.395   3.146   5.104  1.0354 -0.0458 -0.1747
  506HK4    C1242457  10.402   3.211   4.902 -0.2593 -0.0340  0.0766
  506HK4     H542458  10.404   3.316   4.935  1.7293 -0.9477  3.0398
  506HK4    C1342459  10.366   3.171   4.773 -0.5162  0.3144  0.0410
  506HK4     H642460  10.394   3.240   4.692 -4.1326 -1.1345 -2.5391
  506HK4     C742461  10.421   2.878   5.079  0.1349  0.2239  0.1029
  506HK4     O242462  10.414   2.902   5.199 -0.1209  0.2407  0.0850
  506HK4     C442463  10.433   2.736   5.041 -0.0487  0.1539  0.3059
  506HK4     C342464  10.491   2.642   5.126  0.4255  0.2551  0.0971
  506HK4     H342465  10.538   2.680   5.219  0.9077 -2.5691  1.0435
  506HK4     C242466  10.494   2.508   5.091 -0.1812  0.2090  0.2203
  506HK4     H242467  10.560   2.443   5.150  0.8056  0.0559 -1.0298
  506HK4     C142468  10.413   2.463   4.987  0.4398  0.4056 -0.3527
  506HK4     H142469  10.410   2.356   4.965 -1.4147  0.3094  0.2875
  506HK4     C642470  10.345   2.555   4.904  0.0046  0.1868 -0.2416
  506HK4     C542471  10.375   2.691   4.921  0.4141  0.0515  0.1216
  506HK4    C1042472  10.366   2.794   4.814  0.4841 -0.0073  0.0589
  506HK4     O142473  10.407   2.758   4.704 -0.1220 -1.0625  0.1791
  506HK4    C1642474  10.233   2.487   4.838  0.0085  0.5495 -0.6208
  506HK4    C1542475  10.134   2.575   4.789 -0.7922  0.1768  0.3078
  506HK4     H742476  10.116   2.664   4.851  2.4467  1.1142  0.0304
  506HK4    C2042477  10.053   2.545   4.680  0.3928  0.1609 -0.5928
  506HK4     H942478   9.993   2.618   4.625 -0.0363  1.0075  0.9631
  506HK4    C1942479  10.052   2.415   4.630 -0.2048 -0.1252  0.1393
  506HK4    C1842480  10.151   2.321   4.679 -0.0138 -0.0196 -0.0400
  506HK4    C1742481  10.243   2.364   4.774  0.0207  0.3533 -0.2425
  506HK4     H842482  10.329   2.298   4.779 -0.1006  0.2818  1.1723
  506HK4     N142483  10.155   2.206   4.598  0.1036  0.1831 -0.3250
  506HK4    C2142484  10.051   2.226   4.505  0.1784  0.3309 -0.3740
  506HK4    C2242485   9.980   2.351   4.522 -0.3336 -0.0330  0.1715
  506HK4    C2642486   9.867   2.385   4.447  0.0434  0.4541 -0.1854
  506HK4    H1342487   9.809   2.471   4.480 -2.7153 -0.2541 -2.9897
  506HK4    C2542488   9.811   2.289   4.363 -0.2412 -0.3144  0.8602
  506HK4    H1242489   9.719   2.316   4.312  1.4540 -3.0222 -4.0622
  506HK4    C2442490   9.871   2.164   4.348 -0.7205 -0.4411 -0.0259
  506HK4    H1142491   9.826   2.102   4.269 -2.4731  0.9748 -0.2000
  506HK4    C2342492   9.988   2.138   4.418 -0.2441  0.6619 -0.4062
  506HK4    H1042493  10.026   2.037   4.406 -2.3417 -0.2117  0.1450
  506HK4    C3942494  10.180   2.076   4.646 -0.1071  0.2655  0.0151
  506HK4    C4142495  10.174   2.055   4.785 -0.4779 -0.9521 -0.1812
  506HK4    H2142496  10.103   2.115   4.844 -0.2259 -1.0296  0.1991
  506HK4    C4242497  10.242   1.948   4.841 -0.0625 -0.4154  0.3426
  506HK4    H2242498  10.207   1.925   4.943  0.9382  0.9134  0.9927
  506HK4    C4342499  10.320   1.864   4.762 -0.1233  0.2742 -0.4480
  506HK4    H2342500  10.392   1.802   4.815  0.7281  1.4872 -0.1673
  506HK4    C4442501  10.328   1.884   4.624  0.1580  0.3632 -0.4170
  506HK4    H2442502  10.393   1.822   4.561  0.2932 -2.2384  2.1266
  506HK4    C4542503  10.250   1.983   4.566  0.0779  0.4932 -0.0889
  506HK4    H2542504  10.285   2.008   4.465 -0.3518 -0.3354 -0.4542
  507HK4    H2842505   4.088   0.719   6.830 -0.3095  1.8516  1.3959
  507HK4    C4842506   3.999   0.676   6.876 -0.3470  0.3991  0.0164
  507HK4    C4742507   3.945   0.554   6.837  1.0580 -0.1331 -0.3191
  507HK4    H2742508   4.010   0.484   6.783  1.8856  1.2780 -1.1708
  507HK4    C4642509   3.816   0.514   6.872  0.8074  1.0599  0.1743
  507HK4    H2642510   3.780   0.412   6.852  1.0844  1.0626 -0.3669
  507HK4    C4042511   3.728   0.596   6.944 -0.1219  0.0407  0.2048
  507HK4    C5042512   3.785   0.719   6.983 -0.5434  0.2621  0.1282
  507HK4    H3042513   3.734   0.787   7.053  0.7303 -0.4222  1.7590
  507HK4    C4942514   3.915   0.755   6.953 -0.6334  0.3117 -0.2056
  507HK4    H2942515   3.951   0.844   7.008  0.1851 -1.1924  1.7563
  507HK4     N242516   3.591   0.567   6.951 -0.2939  0.7412 -0.2694
  507HK4    C3042517   3.522   0.478   6.865  0.0368 -0.2282  0.4709
  507HK4    C2942518   3.550   0.448   6.732 -0.0046  0.5125  0.2935
  507HK4    H1542519   3.645   0.488   6.697  0.8693  0.6590  2.7059
  507HK4    C2842520   3.479   0.355   6.657  0.4079  0.5418 -0.1355
  507HK4    C2742521   3.381   0.288   6.732  0.2421  0.5633 -0.3332
  507HK4    H1442522   3.323   0.209   6.681  1.8638 -1.7828  1.3159
  507HK4    C3242523   3.341   0.324   6.860 -0.1956  0.1111 -0.3402
  507HK4    H1642524   3.245   0.287   6.898 -0.7179 -0.1811 -1.8841
  507HK4    C3142525   3.407   0.422   6.932 -0.2158 -0.1814  0.0767
  507HK4    C3442526   3.400   0.490   7.060  0.3075  0.0618 -0.0230
  507HK4    C3342527   3.519   0.572   7.072  0.0307  0.4736 -0.0679
  507HK4    C3542528   3.546   0.629   7.196  0.1474  0.4842 -0.0992
  507HK4    H1742529   3.626   0.703   7.202 -1.4561  2.1476  1.2801
  507HK4    C3642530   3.467   0.612   7.309  0.1109  0.1144 -0.1799
  507HK4    H1842531   3.483   0.675   7.398  0.0280 -1.0925  0.6902
  507HK4    C3742532   3.355   0.532   7.293 -0.3084  0.7618 -0.5380
  507HK4    H1942533   3.277   0.526   7.369  0.9833 -1.1682  0.6931
  507HK4    C3842534   3.327   0.463   7.175 -0.0524  0.1313 -0.2331
  507HK4    H2042535   3.250   0.386   7.178 -0.0202  0.1171  0.4407
  507HK4    C1442536   3.486   0.362   6.511 -0.3428  0.8720 -0.1581
  507HK4     C942537   3.380   0.329   6.426 -0.1150  0.2498 -0.1993
  507HK4     C842538   3.403   0.255   6.308 -0.1018 -0.1206  0.0316
  507HK4    C1142539   3.531   0.229   6.262  0.0985  0.0968  0.4606
  507HK4     H442540   3.550   0.154   6.183 -1.3121  0.0670  0.1449
  507HK4    C1242541   3.636   0.274   6.342  0.2952 -0.1365  0.3339
  507HK4     H542542   3.736   0.234   6.318  0.1233  1.1470 -2.7535
  507HK4    C1342543   3.617   0.341   6.462 -0.3780  0.2267  0.0283
  507HK4     H642544   3.709   0.371   6.515  0.4692  1.5424 -2.1382
  507HK4     C742545   3.289   0.191   6.238 -0.1112 -0.1147  0.0433
  507HK4     O242546   3.303   0.173   6.117 -0.7825 -0.1598 -0.0265
  507HK4     C442547   3.150   0.198   6.289 -0.1234 -0.6111  0.0853
  507HK4     C342548   3.054   0.112   6.239 -0.4052 -0.0682 -0.3200
  507HK4     H342549   3.050   0.113   6.129  3.3759  0.8778 -0.5099
  507HK4     C242550   2.942   0.082   6.316 -0.1743  0.0677  0.0687
  507HK4     H242551   2.850   0.052   6.263  1.5510 -3.4693 -1.0593
  507HK4     C142552   2.929   0.146   6.439 -0.2331  0.3923 -0.1037
  507HK4     H142553   2.833   0.125   6.490 -0.2899  1.7128  0.3436
  507HK4     C642554   3.017   0.248   6.481  0.1548 -0.0266  0.1022
  507HK4     C542555   3.129   0.279   6.402  0.5389 -0.7892  0.3400
  507HK4    C1042556   3.239   0.360   6.462 -0.0877  0.6550 -0.4369
  507HK4     O142557   3.215   0.478   6.486 -0.5177  0.4096  0.3889
  507HK4    C1642558   3.024   0.248   6.628  0.2856  0.0740  0.0951
  507HK4    C1542559   3.013   0.131   6.706 -0.1450 -0.0901 -0.2083
  507HK4     H742560   3.053   0.038   6.664  2.5881  0.8686  0.1916
  507HK4    C2042561   2.983   0.138   6.842 -0.4832  0.4257 -0.3088
  507HK4     H942562   2.965   0.045   6.894  1.0765  0.5511  0.4642
  507HK4    C1942563   2.979   0.258   6.912  0.2766  0.1481  0.2125
  507HK4    C1842564   2.984   0.380   6.832 -0.1578 -0.0581 -0.1324
  507HK4    C1742565   3.002   0.368   6.695  0.7864  0.2387 -0.0380
  507HK4     H842566   2.975   0.454   6.634 -1.8709 -1.3970 -1.2402
  507HK4     N142567   2.975   0.494   6.914 -0.2280 -0.1092 -0.0687
  507HK4    C2142568   2.962   0.448   7.046 -0.1629  0.1938  0.0457
  507HK4    C2242569   2.964   0.303   7.049  0.0211  0.1986  0.1677
  507HK4    C2642570   2.977   0.229   7.166 -0.4475 -0.7052 -0.3472
  507HK4    H1342571   2.985   0.120   7.164 -0.7742 -0.7179 -1.0573
  507HK4    C2542572   2.994   0.297   7.286  0.8784 -0.0719 -0.8812
  507HK4    H1242573   3.012   0.246   7.380 -0.3272  0.5488 -0.3047
  507HK4    C2442574   3.009   0.435   7.284  0.5452 -0.0307 -0.4652
  507HK4    H1142575   3.051   0.489   7.370  2.8571 -3.0856  0.4153
  507HK4    C2342576   2.998   0.508   7.166 -0.2368  0.4839 -0.0767
  507HK4    H1042577   3.023   0.614   7.170  2.3170 -0.0520 -1.1644
  507HK4    C3942578   3.016   0.621   6.871  0.2354  0.1129  1.0317
  507HK4    C4142579   2.962   0.734   6.938 -0.1498  0.4339  0.1819
  507HK4    H2142580   2.871   0.725   6.999 -1.0537 -1.0540 -1.3375
  507HK4    C4242581   3.026   0.857   6.924  0.0961  0.3617  0.6885
  507HK4    H2242582   3.005   0.937   6.997 -0.8932 -1.1497  2.0945
  507HK4    C4342583   3.142   0.876   6.850 -0.0466  0.3190  0.4563
  507HK4    H2342584   3.210   0.957   6.877 -0.6865  1.3500 -0.9234
  507HK4    C4442585   3.182   0.768   6.772 -0.6646  0.3690  0.0580
  507HK4    H2442586   3.249   0.789   6.687 -1.4477  0.7681 -0.4662
  507HK4    C4542587   3.122   0.644   6.781 -0.0438  0.1083  0.7018
  507HK4    H2542588   3.171   0.555   6.739  0.5208  1.0696 -0.6786
  508HK4    H2842589   8.676   4.513   9.430 -0.0741  0.8144 -1.3024
  508HK4    C4842590   8.573   4.486   9.405 -0.1003 -0.3317 -0.0320
  508HK4    C4742591   8.533   4.357   9.435 -0.2429 -0.2272  0.2269
  508HK4    H2742592   8.599   4.291   9.493 -0.5752 -2.7302 -2.1377
  508HK4    C4642593   8.410   4.309   9.392 -0.2199 -0.7762  0.7709
  508HK4    H2642594   8.361   4.219   9.432 -1.4758 -1.1884 -1.5963
  508HK4    C4042595   8.327   4.389   9.311  0.5022 -0.7099  0.0879
  508HK4    C5042596   8.371   4.519   9.278  0.3933 -0.7043 -0.0367
  508HK4    H3042597   8.322   4.580   9.201  1.3253  0.0042 -0.0812
  508HK4    C4942598   8.493   4.567   9.325  0.0802 -0.0312  0.0844
  508HK4    H2942599   8.513   4.674   9.310  1.1261 -0.4443 -1.5496
  508HK4     N242600   8.197   4.356   9.270  0.3314 -0.3598  0.3430
  508HK4    C3042601   8.112   4.280   9.352 -0.2066 -0.6289 -0.4593
  508HK4    C2942602   8.087   4.290   9.488 -0.1566 -0.2170 -0.4741
  508HK4    H1542603   8.151   4.357   9.546 -1.3936  0.4387  0.1624
  508HK4    C2842604   8.014   4.189   9.551  0.0327 -0.0673 -0.0163
  508HK4    C2742605   7.960   4.085   9.473 -1.0343  0.0938  0.5090
  508HK4    H1442606   7.927   3.995   9.527 -1.5922 -0.7063 -1.1237
  508HK4    C3242607   7.978   4.076   9.336 -0.0150  0.0307  0.6434
  508HK4    H1642608   7.929   4.006   9.268 -2.3717  0.3135  1.9761
  508HK4    C3142609   8.055   4.173   9.273 -0.5924 -0.3097 -0.6077
  508HK4    C3442610   8.084   4.205   9.134  0.3599  0.4285 -0.2417
  508HK4    C3342611   8.166   4.324   9.136  0.9055  0.0511  0.1105
  508HK4    C3542612   8.190   4.377   9.009 -0.4024  0.2959 -0.0407
  508HK4    H1742613   8.260   4.461   9.007  0.3188 -0.3441 -3.5880
  508HK4    C3642614   8.142   4.320   8.893 -0.4654 -0.0529  0.1578
  508HK4    H1842615   8.188   4.343   8.795 -0.4395 -1.9238 -0.2882
  508HK4    C3742616   8.062   4.206   8.895 -0.4450 -0.0643  0.2384
  508HK4    H1942617   8.032   4.159   8.801 -0.2800  0.1764  0.0673
  508HK4    C3842618   8.034   4.148   9.018 -0.1235 -0.1752  0.2651
  508HK4    H2042619   7.996   4.046   9.019  0.3404 -0.3519  2.2470
  508HK4    C1442620   8.038   4.160   9.693 -0.7160 -0.8247 -0.0372
  508HK4     C942621   8.092   4.042   9.746  0.7831 -0.1683 -0.0600
  508HK4     C842622   8.013   3.973   9.840  0.0566 -0.1409 -0.6429
  508HK4    C1142623   7.902   4.034   9.896  0.9265 -0.0117  0.9682
  508HK4     H442624   7.824   3.990   9.960  0.9178  1.4922  2.0304
  508HK4    C1242625   7.875   4.168   9.872  0.1760 -0.2150  0.6616
  508HK4     H542626   7.786   4.209   9.923 -0.3349 -0.0443 -0.3538
  508HK4    C1342627   7.943   4.231   9.768 -0.4505 -0.5517  0.0419
  508HK4     H642628   7.930   4.336   9.737  0.5420 -1.1337 -2.4448
  508HK4     C742629   8.074   3.853   9.902 -0.2691  0.2803  0.5041
  508HK4     O242630   7.999   3.773   9.957 -0.0919 -0.4688 -0.3359
  508HK4     C442631   8.220   3.829   9.896 -0.2676  0.2397  0.6407
  508HK4     C342632   8.286   3.716   9.945  0.2500 -0.1029 -0.8051
  508HK4     H342633   8.226   3.624   9.954 -0.6186  0.5822  0.6165
  508HK4     C242634   8.423   3.714   9.964  0.1036  0.2145  0.3275
  508HK4     H242635   8.473   3.626  10.009  0.8473  1.9477  3.0288
  508HK4     C142636   8.497   3.829   9.942  0.4535 -0.0465  0.1334
  508HK4     H142637   8.607   3.835   9.947  0.5192 -0.9978 -0.1199
  508HK4     C642638   8.433   3.943   9.889  0.6450 -0.0506 -0.1108
  508HK4     C542639   8.298   3.940   9.856  0.2412  0.1794  1.4521
  508HK4    C1042640   8.240   4.027   9.749  0.7651 -0.1575  0.8861
  508HK4     O142641   8.293   4.027   9.639 -0.3474 -0.3850  0.3393
  508HK4    C1642642   8.496   4.072   9.922  0.3754  0.1365 -0.3308
  508HK4    C1542643   8.595   4.086  10.021 -0.0375 -0.2932  0.1470
  508HK4     H742644   8.594   4.010  10.101 -1.9158 -2.8568 -2.2118
  508HK4    C2042645   8.673   4.199  10.041  0.1680 -0.2542 -0.8394
  508HK4     H942646   8.761   4.191  10.106 -0.0526  0.4599 -0.4398
  508HK4    C1942647   8.643   4.315   9.971 -0.5623  0.2619  0.3012
  508HK4    C1842648   8.546   4.308   9.864  0.2386  0.3717 -0.4433
  508HK4    C1742649   8.482   4.186   9.844 -0.2444  0.5019  0.3097
  508HK4     H842650   8.445   4.166   9.744  1.5998 -0.2241 -0.2378
  508HK4     N142651   8.520   4.431   9.801  0.3767  0.2933 -0.6512
  508HK4    C2142652   8.620   4.513   9.856  0.1928  0.0721  0.0072
  508HK4    C2242653   8.693   4.451   9.965 -0.3726  0.1992  0.4655
  508HK4    C2642654   8.770   4.524  10.055 -0.1411  0.2487  0.2249
  508HK4    H1342655   8.843   4.469  10.113  0.0379 -0.3014 -0.5188
  508HK4    C2542656   8.781   4.661  10.035 -0.5232  0.2072 -0.2700
  508HK4    H1242657   8.836   4.716  10.112  1.1579 -0.3572 -1.0642
  508HK4    C2442658   8.712   4.722   9.931 -0.4603  0.3532 -0.2327
  508HK4    H1142659   8.706   4.832   9.931  1.5508  0.4840  2.0786
  508HK4    C2342660   8.635   4.651   9.839 -0.6272  0.1727  0.0499
  508HK4    H1042661   8.560   4.706   9.783 -1.7456 -2.7153 -1.3970
  508HK4    C3942662   8.393   4.476   9.760  0.0758 -0.4698 -0.5595
  508HK4    C4142663   8.371   4.575   9.662 -0.1768 -0.1912 -0.2214
  508HK4    H2142664   8.450   4.622   9.601 -0.2929 -0.5941 -0.6819
  508HK4    C4242665   8.245   4.633   9.654  0.1686  0.5646 -0.1956
  508HK4    H2242666   8.216   4.701   9.573  1.9037  1.8704  0.2543
  508HK4    C4342667   8.146   4.600   9.746  0.0748  0.1680 -0.4394
  508HK4    H2342668   8.045   4.613   9.706 -1.1915 -0.0740  2.6024
  508HK4    C4442669   8.164   4.502   9.843  0.1089  0.3570 -0.2580
  508HK4    H2442670   8.071   4.464   9.888 -0.1280  1.1998 -0.0149
  508HK4    C4542671   8.289   4.441   9.848  0.1798  0.5187 -0.0441
  508HK4    H2542672   8.300   4.360   9.921  0.1647  0.8964  0.3819
  509HK4    H2842673   6.872   0.848   5.933 -0.4959 -1.3792 -0.9959
  509HK4    C4842674   6.967   0.810   5.971 -0.2949  0.0003 -0.0886
  509HK4    C4742675   6.991   0.817   6.108  0.0467 -0.2369 -0.1349
  509HK4    H2742676   6.914   0.862   6.173  1.1137 -1.1580  1.8029
  509HK4    C4642677   7.109   0.767   6.161  0.3115  0.0009 -0.4982
  509HK4    H2642678   7.130   0.767   6.269 -1.0277 -2.0882 -0.2064
  509HK4    C4042679   7.218   0.736   6.076  0.4813  0.1712 -0.3427
  509HK4    C5042680   7.196   0.737   5.937 -0.1201 -0.1718 -0.2514
  509HK4    H3042681   7.279   0.712   5.868 -0.2791  2.7054 -1.5629
  509HK4    C4942682   7.069   0.766   5.888 -0.0736  0.4014 -0.0251
  509HK4    H2942683   7.044   0.756   5.782  1.5166 -1.6158 -0.2432
  509HK4     N242684   7.348   0.741   6.127  0.4554  0.3648 -0.2950
  509HK4    C3042685   7.384   0.805   6.247 -0.2529  0.4121 -0.1056
  509HK4    C2942686   7.337   0.930   6.284 -0.6214  0.2247  0.0541
  509HK4    H1542687   7.253   0.974   6.229 -1.1178 -2.3297 -1.2796
  509HK4    C2842688   7.409   1.015   6.367 -0.1916  0.1241 -0.2205
  509HK4    C2742689   7.531   0.964   6.417 -0.5907 -0.3931  0.2287
  509HK4    H1442690   7.578   1.006   6.507  1.1322 -2.0963  0.1444
  509HK4    C3242691   7.588   0.843   6.380  0.0155  0.0304 -0.2310
  509HK4    H1642692   7.684   0.818   6.425  0.3344  2.4693  0.5255
  509HK4    C3142693   7.517   0.765   6.289 -0.3836  0.1004  0.0157
  509HK4    C3442694   7.561   0.668   6.190  0.3441  0.1171  0.3170
  509HK4    C3342695   7.453   0.652   6.095  0.2303 -0.1828  0.4939
  509HK4    C3542696   7.459   0.550   6.001 -0.0315 -0.4917  0.8124
  509HK4    H1742697   7.377   0.522   5.934  0.5307  0.1574 -0.1609
  509HK4    C3642698   7.574   0.472   5.996  0.3428  0.1121 -0.1489
  509HK4    H1842699   7.586   0.381   5.934 -1.2693 -0.5028  0.4181
  509HK4    C3742700   7.675   0.489   6.089 -0.0350  0.3367  0.2241
  509HK4    H1942701   7.765   0.427   6.088  0.4268  0.9985 -2.3312
  509HK4    C3842702   7.673   0.586   6.188  0.3998  0.1921  0.3787
  509HK4    H2042703   7.760   0.603   6.252  2.4518 -1.1992 -1.9491
  509HK4    C1442704   7.383   1.160   6.362  0.5091  0.2721  0.2989
  509HK4     C942705   7.474   1.264   6.339  0.0137  0.6055 -0.1612
  509HK4     C842706   7.464   1.385   6.410  0.3589  0.0629  0.8156
  509HK4    C1142707   7.359   1.399   6.500 -0.0519 -0.3915  0.4157
  509HK4     H442708   7.355   1.481   6.574  0.5353 -1.0284  1.1674
  509HK4    C1242709   7.253   1.309   6.507 -0.2123 -0.2287  0.1196
  509HK4     H542710   7.161   1.335   6.562 -0.4692 -0.0062 -0.4222
  509HK4    C1342711   7.267   1.190   6.437  0.2863 -0.1855  0.1427
  509HK4     H642712   7.188   1.115   6.452  2.1999 -1.9115  1.9499
  509HK4     C742713   7.548   1.504   6.388  0.3665  0.0604  0.8345
  509HK4     O242714   7.546   1.601   6.464 -0.6430  0.6220  0.1037
  509HK4     C442715   7.654   1.492   6.286 -0.4573  0.2099 -0.0444
  509HK4     C342716   7.744   1.597   6.268 -0.1772  0.0236  0.2602
  509HK4     H342717   7.728   1.689   6.327 -1.2932  1.1291 -1.7000
  509HK4     C242718   7.858   1.587   6.189 -0.4224 -0.3247 -0.0550
  509HK4     H242719   7.933   1.667   6.200 -1.6332  0.9166 -0.6505
  509HK4     C142720   7.888   1.461   6.140  0.1941 -0.2207  0.0452
  509HK4     H142721   7.958   1.453   6.056  1.2583  0.1922  0.8922
  509HK4     C642722   7.805   1.348   6.157 -0.2808  0.0641 -0.3425
  509HK4     C542723   7.684   1.368   6.226 -0.0387  0.2791  0.0229
  509HK4    C1042724   7.582   1.261   6.236 -0.0589  0.2738 -0.2288
  509HK4     O142725   7.555   1.183   6.145 -0.5172  0.1421  0.0117
  509HK4    C1642726   7.878   1.223   6.133 -0.0429  0.1413 -0.0280
  509HK4    C1542727   8.010   1.203   6.179 -0.0433 -0.0674 -0.1191
  509HK4     H742728   8.038   1.230   6.282  0.1509  0.7878 -0.3993
  509HK4    C2042729   8.102   1.137   6.099  0.3728 -0.5083  0.7155
  509HK4     H942730   8.208   1.149   6.122  0.5470  0.1530 -0.4402
  509HK4    C1942731   8.066   1.064   5.987  0.4366  0.3364  0.1397
  509HK4    C1842732   7.927   1.076   5.946  0.3124 -0.5322  0.2913
  509HK4    C1742733   7.839   1.155   6.018  0.4371 -0.0505 -0.0784
  509HK4     H842734   7.749   1.188   5.965  1.6013  1.9734 -0.8699
  509HK4     N142735   7.905   0.986   5.839 -0.0838 -0.2141  0.1031
  509HK4    C2142736   8.019   0.905   5.821  0.1360 -0.0390  0.7007
  509HK4    C2242737   8.124   0.959   5.905  0.2378 -0.1953  0.6754
  509HK4    C2642738   8.251   0.902   5.897  0.2345 -0.1218  0.0977
  509HK4    H1342739   8.339   0.961   5.924  0.8154 -0.7865 -0.3373
  509HK4    C2542740   8.280   0.796   5.813 -0.2946 -0.1674 -0.0283
  509HK4    H1242741   8.376   0.747   5.827  0.3622  1.4668  1.2491
  509HK4    C2442742   8.175   0.737   5.742 -0.3791  0.5852 -0.5344
  509HK4    H1142743   8.195   0.640   5.694  0.4432  0.5280 -0.1002
  509HK4    C2342744   8.048   0.792   5.745 -0.4831  0.3242 -0.0762
  509HK4    H1042745   7.970   0.727   5.705  0.2566 -0.3842 -0.3613
  509HK4    C3942746   7.776   0.955   5.795 -0.1247  0.4714 -0.2765
  509HK4    C4142747   7.769   0.903   5.664  0.5476 -0.8108  0.1850
  509HK4    H2142748   7.850   0.924   5.592  0.0803  1.0558  0.1703
  509HK4    C4242749   7.651   0.845   5.620  0.0506  0.2241  0.1398
  509HK4    H2242750   7.640   0.820   5.513  1.9804  1.4482 -0.3649
  509HK4    C4342751   7.538   0.829   5.699 -0.1659  0.0919 -0.1937
  509HK4    H2342752   7.448   0.776   5.666 -1.0410 -0.9789  3.6258
  509HK4    C4442753   7.545   0.886   5.826  0.1958 -0.1096 -0.1204
  509HK4    H2442754   7.458   0.896   5.893 -0.4773  3.9168 -1.4353
  509HK4    C4542755   7.662   0.941   5.876  0.0211  0.2510 -0.1079
  509HK4    H2542756   7.663   0.986   5.977  0.6899  2.0588 -0.8956
  510HK4    H2842757   1.190   3.595   3.625 -1.2138  0.9651 -0.1563
  510HK4    C4842758   1.185   3.603   3.516 -0.3406  0.3068 -0.2472
  510HK4    C4742759   1.061   3.598   3.454 -0.5179  0.2943  0.1063
  510HK4    H2742760   0.968   3.609   3.511  0.2604  4.1066  0.7751
  510HK4    C4642761   1.054   3.579   3.317  0.3828  0.2573  0.0638
  510HK4    H2642762   0.955   3.551   3.278  0.6743  1.2738 -1.4913
  510HK4    C4042763   1.170   3.572   3.237  0.0580 -0.2858 -0.3617
  510HK4    C5042764   1.296   3.581   3.299 -0.1791 -0.4526  0.1468
  510HK4    H3042765   1.383   3.562   3.234 -0.3860  2.2336 -0.9843
  510HK4    C4942766   1.299   3.604   3.436 -0.2353  1.1098 -0.1001
  510HK4    H2942767   1.391   3.636   3.487  0.6091  0.6416 -1.3150
  510HK4     N242768   1.166   3.525   3.105  0.4157 -0.1727 -0.4139
  510HK4    C3042769   1.064   3.436   3.065  0.2572 -0.2088  0.0630
  510HK4    C2942770   1.006   3.325   3.125 -0.1849  0.1889  0.3740
  510HK4    H1542771   1.048   3.312   3.224 -0.7073  1.2157  0.7302
  510HK4    C2842772   0.926   3.236   3.053 -0.4049  0.4185  0.3353
  510HK4    C2742773   0.902   3.265   2.917 -0.0769 -0.0465  0.1757
  510HK4    H1442774   0.814   3.210   2.879 -0.3276  1.1319 -0.9702
  510HK4    C3242775   0.953   3.377   2.853  0.1284 -0.1485  0.1612
  510HK4    H1642776   0.916   3.399   2.753  0.8038 -2.8117 -0.6983
  510HK4    C3142777   1.041   3.459   2.924 -0.1075  0.0926  0.1743
  510HK4    C3442778   1.143   3.553   2.880  0.1458 -0.1467  0.2518
  510HK4    C3342779   1.222   3.593   2.995  0.2722  0.5076 -0.0653
  510HK4    C3542780   1.295   3.712   2.995  0.5362  0.3468  0.2985
  510HK4    H1742781   1.346   3.749   3.083 -0.3229 -0.0885  0.9913
  510HK4    C3642782   1.297   3.785   2.877 -0.1546 -0.0990  0.0039
  510HK4    H1842783   1.341   3.886   2.879 -2.1867  0.8580 -1.2824
  510HK4    C3742784   1.220   3.749   2.767  0.0261 -0.0107 -0.1497
  510HK4    H1942785   1.216   3.815   2.680  1.5466 -1.2030 -1.1550
  510HK4    C3842786   1.143   3.633   2.767 -0.0651  0.0510  0.3915
  510HK4    H2042787   1.084   3.611   2.679 -0.8608  1.5753  0.5353
  510HK4    C1442788   0.916   3.102   3.112 -0.0565  0.1782 -0.1433
  510HK4     C942789   0.914   2.979   3.046  0.0926  0.1948 -0.1815
  510HK4     C842790   0.836   2.868   3.086  0.4907  0.0575  0.2198
  510HK4    C1142791   0.759   2.886   3.200 -0.4715  0.4425 -0.4852
  510HK4     H442792   0.690   2.802   3.218  1.2476 -0.8580  0.1653
  510HK4    C1242793   0.776   2.994   3.285  0.6396 -0.2807  0.2298
  510HK4     H542794   0.751   2.987   3.392 -1.5484  1.7482 -0.0790
  510HK4    C1342795   0.854   3.100   3.239  0.6626 -0.3086  0.2067
  510HK4     H642796   0.841   3.195   3.293  0.4059 -0.4223  0.3477
  510HK4     C742797   0.847   2.736   3.021  0.3112 -0.0977  0.5075
  510HK4     O242798   0.747   2.664   3.021 -0.0590  0.4134 -0.1803
  510HK4     C442799   0.939   2.713   2.907 -0.0700  0.1419  0.1486
  510HK4     C342800   0.962   2.584   2.863 -0.1434  0.2034 -0.0673
  510HK4     H342801   0.888   2.506   2.888  0.0139  0.2433  0.5217
  510HK4     C242802   1.069   2.555   2.779 -0.4555  0.0335 -0.4099
  510HK4     H242803   1.092   2.455   2.741  0.9893  0.4673 -0.7135
  510HK4     C142804   1.134   2.666   2.726  0.3212 -0.0516  0.3467
  510HK4     H142805   1.234   2.639   2.689  0.6864  0.6225  0.8334
  510HK4     C642806   1.090   2.798   2.746  0.4251  0.0088  0.1857
  510HK4     C542807   1.011   2.824   2.858  0.1071 -0.0480 -0.0246
  510HK4    C1042808   1.009   2.953   2.934  0.3238 -0.1073  0.0830
  510HK4     O142809   1.119   3.005   2.947  0.4024 -0.1481 -0.3899
  510HK4    C1642810   1.105   2.879   2.624 -0.0182 -0.1836  0.0027
  510HK4    C1542811   1.088   3.019   2.622 -0.5064 -0.2453 -0.2403
  510HK4     H742812   1.105   3.072   2.717 -3.6147 -1.3191  0.9557
  510HK4    C2042813   1.065   3.095   2.508  0.0890  0.3407  0.0272
  510HK4     H942814   1.045   3.202   2.517  1.3383  0.5252  0.7791
  510HK4    C1942815   1.060   3.024   2.389  0.1482  0.3461  0.0210
  510HK4    C1842816   1.082   2.881   2.380 -0.5715  0.2249  0.1344
  510HK4    C1742817   1.107   2.816   2.501  0.4672  0.1102 -0.1406
  510HK4     H842818   1.150   2.716   2.492  0.6167 -0.0241  1.8472
  510HK4     N142819   1.059   2.827   2.252 -0.2613  0.1577  0.1062
  510HK4    C2142820   1.028   2.938   2.171  0.1677  0.1204 -0.1055
  510HK4    C2242821   1.027   3.058   2.252 -0.0048  0.0575 -0.0151
  510HK4    C2642822   0.987   3.178   2.194  0.1113  0.2856  0.3767
  510HK4    H1342823   0.997   3.274   2.245  0.0013  1.1513 -1.1658
  510HK4    C2542824   0.935   3.176   2.065  0.3308 -0.3927  0.2960
  510HK4    H1242825   0.897   3.270   2.025 -1.3640 -0.9210  0.6602
  510HK4    C2442826   0.936   3.061   1.988  0.1323 -0.4092  0.3183
  510HK4    H1142827   0.887   3.065   1.889  1.0234 -0.4839 -0.1408
  510HK4    C2342828   0.982   2.940   2.040 -0.2150 -0.6754  0.0118
  510HK4    H1042829   0.950   2.851   1.986  2.2578 -0.9515 -1.0571
  510HK4    C3942830   1.134   2.719   2.204 -0.3667  0.1688 -0.0847
  510HK4    C4142831   1.067   2.638   2.110 -0.2128 -0.0643  0.0090
  510HK4    H2142832   0.965   2.667   2.081  0.1316  1.0570 -0.0756
  510HK4    C4242833   1.112   2.513   2.069 -0.0900 -0.1870  0.5086
  510HK4    H2242834   1.051   2.456   1.998 -1.2789  0.6329  0.8641
  510HK4    C4342835   1.228   2.465   2.129  0.4738  0.0208 -0.4066
  510HK4    H2342836   1.275   2.372   2.097  1.3501  0.2226  0.2637
  510HK4    C4442837   1.300   2.547   2.214  0.5231  0.2857 -0.7038
  510HK4    H2442838   1.397   2.507   2.249 -0.3718 -0.5233  0.8940
  510HK4    C4542839   1.257   2.673   2.254  0.0354  0.2212 -1.0176
  510HK4    H2542840   1.327   2.743   2.303  0.7697 -0.3357 -1.2612
  511HK4    H2842841   1.195   2.562   5.030  0.4718 -1.4937 -0.0095
  511HK4    C4842842   1.135   2.540   5.119 -0.0330  0.2361  0.0880
  511HK4    C4742843   1.200   2.548   5.242 -0.1031 -0.4493  0.1714
  511HK4    H2742844   1.308   2.560   5.253 -0.1555  1.2282 -0.9051
  511HK4    C4642845   1.117   2.535   5.353  0.0681 -0.4099  0.3024
  511HK4    H2642846   1.159   2.551   5.453 -1.5682  0.1817  0.9081
  511HK4    C4042847   0.979   2.505   5.352  0.0048 -0.1096 -0.1401
  511HK4    C5042848   0.919   2.498   5.225 -0.0247 -0.1857 -0.1213
  511HK4    H3042849   0.820   2.451   5.225  0.1663 -0.6301  2.0192
  511HK4    C4942850   0.998   2.519   5.112  0.0414 -0.1887 -0.0752
  511HK4    H2942851   0.952   2.502   5.014 -0.6767  1.5325 -0.0507
  511HK4     N242852   0.921   2.438   5.460 -0.0280  0.4063  0.1673
  511HK4    C3042853   0.994   2.376   5.563 -0.0064 -0.3685 -0.3066
  511HK4    C2942854   1.121   2.319   5.563 -0.1684 -0.7353 -0.2547
  511HK4    H1542855   1.174   2.309   5.469  1.1547 -2.0572  0.6120
  511HK4    C2842856   1.169   2.251   5.675  0.4707 -0.4752 -0.3663
  511HK4    C2742857   1.081   2.240   5.784 -0.0489  0.0888 -0.7235
  511HK4    H1442858   1.123   2.205   5.880 -0.5255  1.7739  0.1206
  511HK4    C3242859   0.950   2.287   5.787 -0.2407 -0.4515 -0.5767
  511HK4    H1642860   0.876   2.259   5.862 -2.2968 -1.3444 -2.8840
  511HK4    C3142861   0.908   2.364   5.680  0.1608  0.4387 -0.0992
  511HK4    C3442862   0.776   2.407   5.639  0.0574  0.1383 -0.0835
  511HK4    C3342863   0.786   2.447   5.500  0.0016  0.9378  0.1415
  511HK4    C3542864   0.671   2.499   5.441 -0.5131 -0.3048  0.0508
  511HK4    H1742865   0.666   2.523   5.334  3.3229  1.3561  0.1417
  511HK4    C3642866   0.555   2.520   5.514 -0.3519 -0.2469  0.2896
  511HK4    H1842867   0.466   2.557   5.461 -0.1712 -1.4609 -0.9022
  511HK4    C3742868   0.547   2.484   5.648 -0.1947  0.6668  0.5511
  511HK4    H1942869   0.464   2.516   5.711 -1.8493  1.0477 -1.7556
  511HK4    C3842870   0.658   2.426   5.709 -0.3773 -0.8671 -0.5383
  511HK4    H2042871   0.641   2.377   5.805  0.8914  0.3343  0.3091
  511HK4    C1442872   1.294   2.174   5.685  0.5778 -0.1713  0.6391
  511HK4     C942873   1.325   2.081   5.785  0.0221 -0.4815  0.5270
  511HK4     C842874   1.457   2.070   5.834  0.3722  0.3188 -0.2209
  511HK4    C1142875   1.564   2.121   5.761  0.7686 -0.2154 -0.0164
  511HK4     H442876   1.666   2.131   5.800  1.0251  0.3598 -0.8333
  511HK4    C1242877   1.536   2.193   5.646  0.0192 -0.4747 -0.0029
  511HK4     H542878   1.612   2.223   5.572 -1.0081  4.4408  0.7340
  511HK4    C1342879   1.404   2.224   5.613  0.1137 -0.0548  0.0037
  511HK4     H642880   1.392   2.293   5.528 -1.7177 -0.8862 -0.4313
  511HK4     C742881   1.483   1.990   5.956  0.3128  0.2648 -0.2419
  511HK4     O242882   1.595   1.993   6.006  0.2316  0.4803 -0.0766
  511HK4     C442883   1.370   1.913   6.013  0.5242 -0.2915 -0.5681
  511HK4     C342884   1.393   1.845   6.132 -0.0685  0.2538 -0.1351
  511HK4     H342885   1.478   1.867   6.198 -1.0568 -0.2747  1.3388
  511HK4     C242886   1.294   1.766   6.190 -0.1344  0.3812 -0.0744
  511HK4     H242887   1.325   1.698   6.271  3.0132  2.9932  1.0308
  511HK4     C142888   1.170   1.756   6.128  0.0436 -1.1835 -0.1967
  511HK4     H142889   1.086   1.693   6.163 -0.4380  0.6837  2.1353
  511HK4     C642890   1.147   1.813   6.002 -0.0757  0.0290  0.3699
  511HK4     C542891   1.248   1.891   5.945  0.0309 -0.1820  0.2696
  511HK4    C1042892   1.235   1.967   5.817 -0.3273 -0.2838  0.2465
  511HK4     O142893   1.194   1.902   5.721 -0.1084  0.3684 -0.2936
  511HK4    C1642894   1.004   1.834   5.974 -0.0802 -0.4029  0.0637
  511HK4    C1542895   0.952   1.782   5.853  0.2252 -0.1767 -0.1654
  511HK4     H742896   1.006   1.704   5.798  0.6900  0.4280 -0.5767
  511HK4    C2042897   0.829   1.811   5.796 -0.3366 -0.6011  0.8173
  511HK4     H942898   0.812   1.784   5.692 -0.6890 -0.0496  0.7314
  511HK4    C1942899   0.749   1.898   5.868 -0.3363  0.1695 -0.0984
  511HK4    C1842900   0.794   1.957   5.993  0.0812  0.1324 -0.2324
  511HK4    C1742901   0.922   1.927   6.038  0.0921  0.0262 -0.3348
  511HK4     H842902   0.954   1.971   6.132 -1.0945 -0.2730  0.2085
  511HK4     N142903   0.707   2.056   6.043  0.2275  0.1966 -0.1057
  511HK4    C2142904   0.600   2.057   5.951 -0.2558 -0.5869  0.4408
  511HK4    C2242905   0.619   1.959   5.846 -0.1919  0.3543 -0.4408
  511HK4    C2642906   0.536   1.956   5.735 -0.9500 -0.6026  0.1373
  511HK4    H1342907   0.528   1.867   5.672  0.9221 -0.1732 -0.7485
  511HK4    C2542908   0.437   2.052   5.721 -0.2281  0.1404  0.1373
  511HK4    H1242909   0.372   2.059   5.634  0.4755 -2.2780 -0.5978
  511HK4    C2442910   0.428   2.157   5.812  0.4386 -0.4192  0.8551
  511HK4    H1142911   0.369   2.249   5.801 -1.5253 -1.4617  2.3808
  511HK4    C2342912   0.504   2.155   5.929  0.5898  0.3306  0.7753
  511HK4    H1042913   0.492   2.237   5.999 -0.9061 -0.6743  1.7224
  511HK4    C3942914   0.703   2.087   6.179  0.1232 -0.4636  0.0450
  511HK4    C4142915   0.637   2.208   6.209  0.4682 -0.2870  0.0865
  511HK4    H2142916   0.636   2.291   6.137 -0.7538 -0.6017 -0.2682
  511HK4    C4242917   0.577   2.228   6.333  0.2887 -0.4045  0.0180
  511HK4    H2242918   0.533   2.328   6.346  0.5361 -0.4016  0.8518
  511HK4    C4342919   0.571   2.131   6.433  0.5751 -0.0885  0.3442
  511HK4    H2342920   0.497   2.135   6.513  0.9736  1.5752  0.6470
  511HK4    C4442921   0.643   2.015   6.408 -0.4797 -0.6883  0.0707
  511HK4    H2442922   0.652   1.940   6.488 -1.4752 -1.5607 -0.6234
  511HK4    C4542923   0.699   1.992   6.283  0.2291 -0.1903  0.2966
  511HK4    H2542924   0.724   1.887   6.260 -1.6485 -0.7695  0.8259
  512HK4    H2842925  10.996   4.623  10.042 -1.6013 -2.7159 -0.6121
  512HK4    C4842926  11.062   4.569  10.110 -0.1820  0.3160  0.5028
  512HK4    C4742927  11.045   4.439  10.157  0.2327 -0.0704 -0.4147
  512HK4    H2742928  10.946   4.393  10.143 -0.9809  2.8533 -1.8504
  512HK4    C4642929  11.144   4.378  10.233 -0.0458  0.2039  0.1734
  512HK4    H2642930  11.114   4.284  10.281  1.1758 -0.4197 -0.2561
  512HK4    C4042931   0.017   4.438  10.276  0.1743  0.1325 -0.3403
  512HK4    C5042932   0.025   4.570  10.226  0.7850  0.1886 -0.0908
  512HK4    H3042933   0.117   4.625  10.252  0.0814  0.6586  1.4287
  512HK4    C4942934  11.179   4.635  10.147  0.1902 -0.2196  0.2775
  512HK4    H2942935  11.197   4.739  10.118 -2.2811  0.2079  0.2124
  512HK4     N242936   0.087   4.406  10.392 -0.6816  0.5173  0.2891
  512HK4    C3042937   0.023   4.352  10.505 -0.3550 -0.3832  0.0501
  512HK4    C2942938  11.139   4.366  10.548 -0.4367  0.6041 -0.5096
  512HK4    H1542939  11.084   4.453  10.512  0.6195  1.8519  0.7624
  512HK4    C2842940  11.098   4.312  10.670 -0.0058  0.8569 -0.2487
  512HK4    C2742941  11.194   4.241  10.744  0.2372  0.5144 -0.8801
  512HK4    H1442942  11.161   4.193  10.837  0.5197  2.0676  0.0543
  512HK4    C3242943   0.081   4.232  10.712  0.2541 -0.8103 -0.4343
  512HK4    H1642944   0.157   4.207  10.787 -1.1747 -0.6174  1.1269
  512HK4    C3142945   0.121   4.294  10.595 -0.0198 -0.2594 -0.2387
  512HK4    C3442946   0.249   4.343  10.548 -0.2082  0.7330  0.2680
  512HK4    C3342947   0.226   4.398  10.415 -0.6644 -0.1831 -0.0404
  512HK4    C3542948   0.329   4.473  10.360 -0.2127 -0.6840  0.1167
  512HK4    H1742949   0.320   4.516  10.260  0.5030  0.9466  0.7287
  512HK4    C3642950   0.445   4.499  10.432 -0.3674 -0.3194  0.2365
  512HK4    H1842951   0.528   4.558  10.391 -1.2953  1.0735  0.3496
  512HK4    C3742952   0.465   4.445  10.559  0.2450 -0.3501  0.1333
  512HK4    H1942953   0.538   4.490  10.626  1.2460 -1.0009 -0.5113
  512HK4    C3842954   0.370   4.359  10.614 -0.2766  0.4352  0.4670
  512HK4    H2042955   0.395   4.302  10.704 -1.8157  0.7793  1.1271
  512HK4    C1442956  10.991   4.387  10.738  0.0980  0.6460  0.1391
  512HK4     C942957  10.982   4.411  10.876 -0.6395  0.1838  0.1755
  512HK4     C842958  10.856   4.416  10.939 -0.6662  0.2094  0.1159
  512HK4    C1142959  10.740   4.401  10.864 -0.2809  0.1657 -0.4746
  512HK4     H442960  10.646   4.435  10.911  0.5374  1.5218  0.2218
  512HK4    C1242961  10.744   4.386  10.726  0.1946 -0.8444 -0.3605
  512HK4     H542962  10.650   4.391  10.668  0.2557  0.9625 -0.3322
  512HK4    C1342963  10.870   4.380  10.667  0.3151 -1.0436 -0.0845
  512HK4     H642964  10.872   4.349  10.561  1.0715  2.1752 -1.0660
  512HK4     C742965  10.843   4.427  11.086  0.0228 -0.9602  0.2719
  512HK4     O242966  10.742   4.477  11.136 -0.0066 -0.1498 -0.5904
  512HK4     C442967  10.971   4.415  11.159  0.2870 -0.3792 -0.0930
  512HK4     C342968  10.966   4.396   0.049  0.1878  0.4124  0.0147
  512HK4     H342969  10.877   4.353   0.096 -1.2624  2.1698 -1.0692
  512HK4     C242970  11.076   4.419   0.131  0.1650  0.3492  0.0631
  512HK4     H242971  11.061   4.400   0.238  1.4714  0.4164  0.2720
  512HK4     C142972  11.200   4.444   0.072  0.1857  0.1760  0.0283
  512HK4     H142973   0.041   4.441   0.137 -0.6275  0.2200  1.1554
  512HK4     C642974  11.211   4.447  11.180 -0.0204 -0.0729  0.0058
  512HK4     C542975  11.097   4.437  11.099  0.0724  0.5682 -0.2055
  512HK4    C1042976  11.105   4.449  10.951 -0.1773 -0.3630 -0.2970
  512HK4     O142977  11.196   4.510  10.895 -0.5976 -0.0416 -0.6336
  512HK4    C1642978   0.102   4.420  11.140  0.4297  0.3142  1.2894
  512HK4    C1542979   0.180   4.324  11.207  0.0510 -0.4474  0.6375
  512HK4     H742980   0.136   4.225  11.228  0.3644 -0.8287 -0.4942
  512HK4    C2042981   0.318   4.332  11.221  0.0750 -0.1464  0.2218
  512HK4     H942982   0.375   4.250   0.016  0.6254 -0.2666 -0.7271
  512HK4    C1942983   0.388   4.441  11.172  0.5270 -0.1918  0.7640
  512HK4    C1842984   0.311   4.530  11.087  0.1380 -0.4490  0.8453
  512HK4    C1742985   0.172   4.525  11.081  0.1720 -0.2801 -0.0880
  512HK4     H842986   0.126   4.613  11.037 -0.2874 -0.5193 -0.0814
  512HK4     N142987   0.399   4.606  11.007 -0.5101 -0.5894  0.0087
  512HK4    C2142988   0.530   4.561  11.029 -0.0618  0.7923  0.2116
  512HK4    C2242989   0.527   4.463  11.136  0.2354  0.7742  0.2052
  512HK4    C2642990   0.634   4.377  11.155 -0.1947  0.1460 -0.1945
  512HK4    H1342991   0.625   4.286  11.215  1.4723  0.2229  0.2007
  512HK4    C2542992   0.746   4.388  11.073  0.1946  0.1136  0.3304
  512HK4    H1242993   0.821   4.308  11.075 -0.5932 -0.6703 -0.7664
  512HK4    C2442994   0.752   4.484  10.972 -0.0511 -0.1088  0.1017
  512HK4    H1142995   0.839   4.484  10.906  1.6894  0.9301  2.3115
  512HK4    C2342996   0.646   4.572  10.953  0.0956  0.1250  0.3515
  512HK4    H1042997   0.658   4.650  10.878  0.2394  2.3892  2.6770
  512HK4    C3942998   0.366   4.698  10.906  0.0671  0.0382  0.3914
  512HK4    C4142999   0.448   4.811  10.885 -0.1713  0.2232  0.4651
  512HK4    H2143000   0.522   4.849  10.957  0.8092  1.5434 -1.2040
  512HK4    C4243001   0.453   4.875  10.761  0.2793 -0.9291 -0.1204
  512HK4    H2243002   0.516   4.964  10.743 -0.2831 -1.0471 -2.7135
  512HK4    C4343003   0.378   4.823  10.657  0.0738 -0.1794 -0.3509
  512HK4    H2343004   0.405   4.851  10.556  1.1902 -1.8712 -0.5438
  512HK4    C4443005   0.283   4.724  10.681  0.0073  0.1198  0.6547
  512HK4    H2443006   0.238   4.675  10.593  2.3384 -2.5407  0.8868
  512HK4    C4543007   0.274   4.663  10.805  0.1678 -0.3462  0.4338
  512HK4    H2543008   0.188   4.599  10.830  0.9712 -2.4484 -1.9255
  513HK4    H2843009  10.012   1.740   0.235  0.1657  0.1724 -0.1437
  513HK4    C4843010  10.017   1.806   0.322 -0.0834  0.2225 -0.1646
  513HK4    C4743011  10.129   1.834   0.400 -0.1180  0.2338 -0.1196
  513HK4    H2743012  10.224   1.800   0.356  0.5065  1.0088  0.6174
  513HK4    C4643013  10.128   1.897   0.523  0.0514  0.0211 -0.0098
  513HK4    H2643014  10.224   1.921   0.573 -0.2437 -1.6644  1.4168
  513HK4    C4043015  10.004   1.937   0.576  0.0499  0.0996 -0.0709
  513HK4    C5043016   9.891   1.911   0.496 -0.1466  0.1793  0.1816
  513HK4    H3043017   9.789   1.928   0.532 -0.4137 -2.4883  0.8072
  513HK4    C4943018   9.894   1.844   0.374  0.0367  0.0144  0.2768
  513HK4    H2943019   9.807   1.794   0.328  1.1139 -0.5699 -1.1692
  513HK4     N243020   9.996   1.982   0.708  0.2551  0.5682 -0.2188
  513HK4    C3043021  10.080   1.945   0.816 -0.1133  0.5182  0.0521
  513HK4    C2943022  10.135   1.821   0.846  0.3637  0.7401  0.0826
  513HK4    H1543023  10.114   1.733   0.785 -3.7599 -0.7001  3.2990
  513HK4    C2843024  10.210   1.802   0.962 -0.3351 -0.0920  0.4007
  513HK4    C2743025  10.221   1.914   1.047 -0.1597 -0.1328  0.4308
  513HK4    H1443026  10.288   1.911   1.134 -0.8698  1.3793  1.0250
  513HK4    C3243027  10.170   2.041   1.022  0.8551  0.1956 -0.0155
  513HK4    H1643028  10.186   2.123   1.091  0.0710 -0.0575  0.4712
  513HK4    C3143029  10.092   2.056   0.908 -0.6512 -0.1732  0.9612
  513HK4    C3443030  10.001   2.159   0.863  0.5117  0.4331 -0.0277
  513HK4    C3343031   9.945   2.110   0.738  0.9481  0.8941 -0.4064
  513HK4    C3543032   9.855   2.192   0.671 -0.3761  0.1579  0.4514
  513HK4    H1743033   9.803   2.166   0.578 -1.5618  2.2761  0.4939
  513HK4    C3643034   9.825   2.313   0.733 -0.1538  0.4409  0.0076
  513HK4    H1843035   9.742   2.366   0.684 -1.3298  0.4382  1.9650
  513HK4    C3743036   9.873   2.359   0.855 -0.2202  0.3642  0.0618
  513HK4    H1943037   9.841   2.455   0.893 -0.5527  0.2523  0.0654
  513HK4    C3843038   9.972   2.283   0.918  0.2255  0.5396 -0.4180
  513HK4    H2043039  10.030   2.305   1.007 -1.1450 -1.6361  1.0411
  513HK4    C1443040  10.244   1.665   1.003  0.2314 -0.0487  0.0840
  513HK4     C943041  10.230   1.625   1.137 -0.6438 -0.4376 -0.1170
  513HK4     C843042  10.318   1.527   1.188 -0.2374  0.0368  0.0960
  513HK4    C1143043  10.403   1.458   1.103 -0.5754 -0.0275 -0.1885
  513HK4     H443044  10.426   1.352   1.121  0.0915  0.4827  2.0702
  513HK4    C1243045  10.418   1.502   0.972  0.0236  0.4566  0.0348
  513HK4     H543046  10.498   1.465   0.906  1.3961  0.1633  1.8294
  513HK4    C1343047  10.336   1.601   0.919  0.0669  0.2849 -0.3525
  513HK4     H643048  10.325   1.625   0.812 -3.9566  2.7415  0.4992
  513HK4     C743049  10.338   1.521   1.335  0.5996  0.3403 -0.0038
  513HK4     O243050  10.376   1.418   1.389  0.1060  0.5406  0.7254
  513HK4     C443051  10.280   1.627   1.421  0.5774  0.4478 -0.1520
  513HK4     C343052  10.316   1.627   1.555  0.1344 -0.0302 -0.0289
  513HK4     H343053  10.402   1.569   1.589  0.1225 -1.1282 -1.8105
  513HK4     C243054  10.269   1.724   1.644 -0.5550 -0.3292 -0.0628
  513HK4     H243055  10.320   1.736   1.741  0.0519  0.8295 -0.5162
  513HK4     C143056  10.173   1.810   1.593 -0.1961 -0.0409 -0.2604
  513HK4     H143057  10.137   1.887   1.664  0.4660  1.1224 -1.1707
  513HK4     C643058  10.129   1.810   1.459  0.0459 -0.0025 -0.3397
  513HK4     C543059  10.180   1.713   1.372 -0.0856 -0.2863 -0.1042
  513HK4    C1043060  10.138   1.697   1.229 -0.2917 -0.0448 -0.0723
  513HK4     O143061  10.021   1.707   1.195 -0.3731 -0.2341  0.1515
  513HK4    C1643062  10.100   1.945   1.409  0.2763 -0.0859 -0.7000
  513HK4    C1543063  10.161   2.059   1.466 -0.2029  0.0996 -0.5547
  513HK4     H743064  10.255   2.051   1.522  0.0383  2.6541 -0.5508
  513HK4    C2043065  10.110   2.185   1.436  0.0624  0.2582 -0.3443
  513HK4     H943066  10.147   2.266   1.498  0.0670  0.2056 -0.2770
  513HK4    C1943067  10.003   2.206   1.350  0.0046 -0.1502 -0.3769
  513HK4    C1843068   9.924   2.090   1.313 -0.3091 -0.1490  0.2873
  513HK4    C1743069   9.978   1.966   1.346 -0.3371 -0.1139  0.4642
  513HK4     H843070   9.909   1.882   1.337 -0.3513 -0.1515  0.9091
  513HK4     N143071   9.808   2.127   1.242  0.1441 -0.1797 -0.4811
  513HK4    C2143072   9.811   2.268   1.245 -0.0128 -0.1872  0.0928
  513HK4    C2243073   9.929   2.324   1.307 -0.4529 -0.0096  0.7795
  513HK4    C2643074   9.960   2.459   1.307  0.4272 -0.2012 -0.1432
  513HK4    H1343075  10.030   2.519   1.365  0.4597  0.8531 -1.2477
  513HK4    C2543076   9.867   2.544   1.249  0.2669 -0.3119 -0.0456
  513HK4    H1243077   9.881   2.652   1.253 -1.0502 -0.1459  0.5316
  513HK4    C2443078   9.746   2.498   1.197 -0.0565  0.1806  0.2569
  513HK4    H1143079   9.664   2.566   1.170 -0.8379 -0.2445  1.5464
  513HK4    C2343080   9.721   2.362   1.194  0.0442  0.1539  0.6137
  513HK4    H1043081   9.625   2.327   1.156  0.0019  1.2563 -0.3052
  513HK4    C3943082   9.738   2.043   1.156  0.1077  0.2254 -0.8468
  513HK4    C4143083   9.602   2.071   1.134  0.1065  0.7243 -0.2471
  513HK4    H2143084   9.533   2.100   1.214 -0.0197  1.2606 -0.5502
  513HK4    C4243085   9.539   2.016   1.022  0.6104  0.0941 -0.2233
  513HK4    H2243086   9.429   2.024   1.023  0.3914 -2.4970  0.1863
  513HK4    C4343087   9.607   1.942   0.926  0.4681  0.1668 -0.3803
  513HK4    H2343088   9.567   1.937   0.825  2.1692 -0.1875 -1.0645
  513HK4    C4443089   9.742   1.916   0.948  0.2253 -0.6051  0.2306
  513HK4    H2443090   9.799   1.855   0.877  2.0970  0.9709  0.3314
  513HK4    C4543091   9.807   1.965   1.061  0.5105 -0.4527 -0.0018
  513HK4    H2543092   9.915   1.947   1.077  0.1151 -3.9313 -0.7899
  514HK4    H2843093   5.998   9.629   2.221  1.4482 -0.9466 -0.5257
  514HK4    C4843094   5.950   9.557   2.287  0.3132  0.2828 -0.0057
  514HK4    C4743095   5.979   9.422   2.269  0.0408  0.2266 -0.0144
  514HK4    H2743096   6.025   9.392   2.174 -1.0983 -0.4860 -0.3398
  514HK4    C4643097   5.944   9.329   2.367  0.1399 -0.1302 -0.3184
  514HK4    H2643098   5.963   9.222   2.348  1.1806 -0.0893  0.4277
  514HK4    C4043099   5.883   9.365   2.488 -0.0761  0.0641 -0.4843
  514HK4    C5043100   5.865   9.504   2.505  0.1910  0.0352  0.0706
  514HK4    H3043101   5.805   9.532   2.593 -1.1679 -1.9537 -0.1820
  514HK4    C4943102   5.894   9.599   2.408 -0.1886 -0.0402 -0.1197
  514HK4    H2943103   5.877   9.707   2.425 -0.0921 -0.4357  2.7060
  514HK4     N243104   5.806   9.276   2.563 -0.1383  0.0795 -0.5291
  514HK4    C3043105   5.745   9.167   2.496  0.1677 -0.2115 -0.3364
  514HK4    C2943106   5.684   9.155   2.372 -0.3310 -0.1196 -0.1001
  514HK4    H1543107   5.650   9.250   2.331  2.3261  1.8237  2.0474
  514HK4    C2843108   5.642   9.030   2.326 -0.5975 -0.0700  0.0045
  514HK4    C2743109   5.670   8.917   2.405  0.2285  0.0056 -0.1669
  514HK4    H1443110   5.684   8.815   2.364  2.1150 -0.6034  1.8777
  514HK4    C3243111   5.711   8.930   2.537 -0.2435  0.0353 -0.0211
  514HK4    H1643112   5.735   8.843   2.597 -0.9803  0.0399  0.2866
  514HK4    C3143113   5.753   9.053   2.586 -0.4073  0.0594  0.0592
  514HK4    C3443114   5.804   9.103   2.713  0.6806  0.4131 -0.5103
  514HK4    C3343115   5.843   9.241   2.694  0.2808  0.5256 -0.5310
  514HK4    C3543116   5.887   9.318   2.802  0.1235  0.2471 -0.2672
  514HK4    H1743117   5.911   9.424   2.788 -0.0217 -0.1531 -4.3794
  514HK4    C3643118   5.894   9.267   2.931 -0.0865 -0.3653 -0.4932
  514HK4    H1843119   5.907   9.339   3.013  1.6218 -0.5211 -0.6016
  514HK4    C3743120   5.846   9.138   2.949 -1.0919 -0.0152 -0.6286
  514HK4    H1943121   5.843   9.100   3.051 -0.8455 -0.0590 -0.6382
  514HK4    C3843122   5.807   9.057   2.844 -0.7063 -0.1522 -0.6629
  514HK4    H2043123   5.792   8.950   2.860 -1.6480 -0.0325 -0.7359
  514HK4    C1443124   5.537   9.032   2.223 -0.0571 -0.4706 -0.5559
  514HK4     C943125   5.427   8.947   2.210 -0.2359 -0.3149 -0.0604
  514HK4     C843126   5.366   8.922   2.086 -0.2946 -0.1198 -0.0713
  514HK4    C1143127   5.406   9.004   1.981  0.3955 -0.4253 -0.0499
  514HK4     H443128   5.344   9.015   1.891  0.0179  1.3897  0.4054
  514HK4    C1243129   5.499   9.106   1.996 -0.1510  0.0811 -0.0680
  514HK4     H543130   5.519   9.174   1.912 -2.5746  1.4810  0.4366
  514HK4    C1343131   5.573   9.113   2.114 -0.1122  0.1710 -0.0979
  514HK4     H643132   5.622   9.210   2.133 -1.0625  0.5926  0.2545
  514HK4     C743133   5.259   8.821   2.070 -0.8149  0.4217 -0.0438
  514HK4     O243134   5.222   8.789   1.957 -0.4900  0.2144 -0.0933
  514HK4     C443135   5.209   8.749   2.189 -0.2012  0.0710  0.0039
  514HK4     C343136   5.103   8.661   2.178 -0.3569  0.2167  0.3295
  514HK4     H343137   5.081   8.614   2.081 -0.3809 -0.2642  0.5648
  514HK4     C243138   5.045   8.603   2.291 -0.8702 -0.0509 -0.0689
  514HK4     H243139   4.959   8.536   2.277 -0.9660  0.4673 -2.1673
  514HK4     C143140   5.108   8.622   2.413  0.3180 -0.5212 -0.6049
  514HK4     H143141   5.059   8.594   2.507  1.1000  0.4566  0.0978
  514HK4     C643142   5.226   8.698   2.424 -0.5397  0.6964  0.2878
  514HK4     C543143   5.269   8.774   2.314 -0.6437  0.5206  0.1255
  514HK4    C1043144   5.365   8.887   2.332  0.1276 -0.1467  0.2086
  514HK4     O143145   5.339   8.966   2.423 -0.6641  0.2836 -0.3817
  514HK4    C1643146   5.317   8.650   2.529  0.0738  0.5979 -0.2869
  514HK4    C1543147   5.456   8.664   2.510  0.1938  0.0160  0.1582
  514HK4     H743148   5.507   8.665   2.412 -1.0118  1.2269 -0.4602
  514HK4    C2043149   5.546   8.645   2.615  0.1682 -0.1307  0.1519
  514HK4     H943150   5.650   8.619   2.596 -0.6834 -3.3663 -0.5294
  514HK4    C1943151   5.501   8.615   2.743 -0.0158 -0.0235  0.1147
  514HK4    C1843152   5.359   8.595   2.764 -0.0901  0.2081 -0.1786
  514HK4    C1743153   5.274   8.612   2.655  0.1255  0.4799 -0.3054
  514HK4     H843154   5.170   8.588   2.678  0.9257 -1.1063  1.8602
  514HK4     N143155   5.330   8.572   2.900  0.4460 -0.5233 -0.1855
  514HK4    C2143156   5.455   8.587   2.963  0.2991 -0.1221  0.0036
  514HK4    C2243157   5.567   8.604   2.872  0.2754 -0.2819 -0.0545
  514HK4    C2643158   5.699   8.580   2.908  0.3214  0.2000  0.1039
  514HK4    H1343159   5.786   8.610   2.849  0.4967  0.1448  0.3348
  514HK4    C2543160   5.720   8.522   3.033 -0.5269  0.1162  0.2112
  514HK4    H1243161   5.817   8.481   3.059  0.6354  2.1038 -0.8763
  514HK4    C2443162   5.617   8.497   3.123 -0.1314  0.1454  0.6752
  514HK4    H1143163   5.631   8.441   3.216 -1.7810 -1.1500  0.1667
  514HK4    C2343164   5.488   8.536   3.088 -0.2062 -0.8211 -0.1500
  514HK4    H1043165   5.409   8.515   3.161 -1.0237  1.1796 -0.4402
  514HK4    C3943166   5.218   8.505   2.950 -0.7139  0.6846 -1.1282
  514HK4    C4143167   5.170   8.517   3.082 -0.1562 -0.1960 -0.8331
  514HK4    H2143168   5.202   8.602   3.145 -2.4179  0.0330  0.0388
  514HK4    C4243169   5.089   8.422   3.142 -0.2699  0.2211 -0.3137
  514HK4    H2243170   5.061   8.433   3.248 -1.0463  1.4089 -0.6304
  514HK4    C4343171   5.052   8.305   3.076  0.2537 -0.2544  0.2360
  514HK4    H2343172   4.980   8.235   3.120  2.7231 -0.8073  3.5600
  514HK4    C4443173   5.091   8.294   2.943 -0.0353  0.6181  0.0761
  514HK4    H2443174   5.043   8.209   2.893 -0.4521  0.5343  0.6040
  514HK4    C4543175   5.171   8.390   2.883 -0.4916  0.4257 -0.8424
  514HK4    H2543176   5.179   8.382   2.773 -0.8601 -3.2222 -0.6715
  515HK4    H2843177   7.612   1.735  10.689  1.8771  1.7940 -0.3029
  515HK4    C4843178   7.623   1.741  10.797  0.1028 -0.2278  0.0264
  515HK4    C4743179   7.736   1.812  10.838  0.0761 -0.1563 -0.0225
  515HK4    H2743180   7.762   1.905  10.785 -0.6792 -0.9761 -1.8929
  515HK4    C4643181   7.805   1.785  10.955 -0.1294  0.6321  0.2836
  515HK4    H2643182   7.911   1.811  10.972  0.7203 -0.1390 -3.3882
  515HK4    C4043183   7.754   1.689  11.044  0.0028  0.0616 -0.2549
  515HK4    C5043184   7.638   1.619  11.005 -0.3415  0.1590  0.6004
  515HK4    H3043185   7.589   1.545  11.070  2.0456 -1.9836  0.0287
  515HK4    C4943186   7.569   1.652  10.889  0.2313 -0.1497  0.1753
  515HK4    H2943187   7.480   1.593  10.867 -0.9869  1.7681 -0.1531
  515HK4     N243188   7.797   1.680  11.177  0.0747 -0.3682 -0.3033
  515HK4    C3043189   7.822   1.792   0.012 -0.2019 -0.0708 -0.6161
  515HK4    C2943190   7.817   1.928  11.234 -0.2713  0.0520  0.0434
  515HK4    H1543191   7.755   1.967  11.153 -1.8720 -0.3521  1.0404
  515HK4    C2843192   7.871   2.021   0.074  0.1300 -0.1499  0.0096
  515HK4    C2743193   7.924   1.971   0.195 -0.4641  0.2009  0.4155
  515HK4    H1443194   7.938   2.049   0.271  1.7207  1.9473 -1.6959
  515HK4    C3243195   7.930   1.836   0.227  0.3388 -0.0300 -0.6883
  515HK4    H1643196   7.969   1.803   0.323  0.0754 -0.7332 -0.8209
  515HK4    C3143197   7.885   1.744   0.134 -0.6504  0.0815 -0.3244
  515HK4    C3443198   7.888   1.599   0.133  0.6642  0.1017 -0.3481
  515HK4    C3343199   7.828   1.566   0.005  0.4871 -0.1828 -0.1905
  515HK4    C3543200   7.841   1.434  11.211 -0.2261 -0.3473  0.1010
  515HK4    H1743201   7.815   1.409  11.108  0.7256 -1.2721  0.0804
  515HK4    C3643202   7.902   1.336   0.041 -0.0831 -0.3631 -0.0321
  515HK4    H1843203   7.920   1.238  11.244 -0.2720 -0.5727  0.3533
  515HK4    C3743204   7.951   1.372   0.167  0.4006 -0.1328 -0.2846
  515HK4    H1943205   7.984   1.293   0.234 -1.6720  0.0333  0.9759
  515HK4    C3843206   7.939   1.501   0.217  0.4958 -0.0636 -0.4382
  515HK4    H2043207   7.970   1.523   0.319 -2.8394  0.0927  0.6055
  515HK4    C1443208   7.933   2.139   0.013 -0.1313 -0.1621 -0.2820
  515HK4     C943209   8.062   2.189   0.037 -0.3258  0.1208  0.1811
  515HK4     C843210   8.089   2.327   0.026 -0.1187  0.0666  0.0041
  515HK4    C1143211   7.994   2.417  11.226  0.1943  0.4873  0.1708
  515HK4     H443212   8.027   2.511  11.179  0.8465 -1.8158 -4.1870
  515HK4    C1243213   7.866   2.369  11.200  0.3544 -0.3138  0.8604
  515HK4     H543214   7.784   2.440  11.182  0.7402  0.1214  0.8132
  515HK4    C1343215   7.839   2.233  11.215 -0.5412 -0.1707  0.5376
  515HK4     H643216   7.739   2.198  11.187 -0.6680 -0.1069  0.9026
  515HK4     C743217   8.209   2.383   0.091 -0.4023  0.4438  0.2127
  515HK4     O243218   8.235   2.503   0.086  0.5862  0.2237 -0.0487
  515HK4     C443219   8.287   2.298   0.184  0.2614  0.1474 -0.6085
  515HK4     C343220   8.372   2.355   0.277 -0.0042 -0.2450 -0.1201
  515HK4     H343221   8.398   2.462   0.269 -2.8087  0.5538  0.9805
  515HK4     C243222   8.451   2.277   0.361 -0.4968 -0.1892  0.4005
  515HK4     H243223   8.516   2.328   0.433  1.1863 -2.9301  0.9087
  515HK4     C143224   8.441   2.138   0.351 -0.1253 -0.1578 -0.4971
  515HK4     H143225   8.501   2.077   0.420 -1.4829 -0.7496  0.1929
  515HK4     C643226   8.347   2.074   0.268 -0.0253 -0.1889 -0.5838
  515HK4     C543227   8.276   2.157   0.180  0.3769  0.1383 -0.6025
  515HK4    C1043228   8.170   2.102   0.091 -0.0162  0.2588 -0.2092
  515HK4     O143229   8.208   2.023   0.006 -0.2916 -0.0625 -0.0351
  515HK4    C1643230   8.295   1.944   0.313  0.1316 -0.0255  0.0686
  515HK4    C1543231   8.289   1.916   0.451  0.1568  0.4765  0.1742
  515HK4     H743232   8.306   1.995   0.526 -0.5295  1.6420 -0.8774
  515HK4    C2043233   8.259   1.786   0.490  0.4751  0.1907 -0.5261
  515HK4     H943234   8.206   1.771   0.585  1.0843 -0.6597 -0.3109
  515HK4    C1943235   8.255   1.681   0.399  0.1732 -0.1013 -0.1795
  515HK4    C1843236   8.277   1.711   0.259  0.0230 -0.1866 -0.2215
  515HK4    C1743237   8.300   1.842   0.219  0.3429 -0.1194  0.1818
  515HK4     H843238   8.346   1.849   0.121 -1.8214 -1.4952 -0.9649
  515HK4     N143239   8.301   1.590   0.191 -0.3686 -0.1929 -0.3501
  515HK4    C2143240   8.301   1.488   0.288  0.5142  0.0958 -0.0378
  515HK4    C2243241   8.280   1.540   0.422  0.5748 -0.0009  0.0081
  515HK4    C2643242   8.260   1.457   0.533  0.4285  0.5299  0.3817
  515HK4    H1343243   8.231   1.504   0.626 -1.2250 -0.7190  0.5106
  515HK4    C2543244   8.270   1.320   0.513 -0.4320  0.4886  0.2375
  515HK4    H1243245   8.250   1.247   0.592  3.0915 -1.0008 -0.1570
  515HK4    C2443246   8.294   1.268   0.386  0.5575  0.2492  0.5203
  515HK4    H1143247   8.288   1.160   0.371 -2.6603  0.4609 -0.1149
  515HK4    C2343248   8.307   1.350   0.275  0.4218  0.0515  0.3604
  515HK4    H1043249   8.282   1.318   0.173 -0.3626 -1.5315  1.0315
  515HK4    C3943250   8.289   1.578   0.052 -0.0089  0.0213 -0.4005
  515HK4    C4143251   8.344   1.467  11.234  0.1643  0.0766 -0.3502
  515HK4    H2143252   8.426   1.409   0.031  0.9994  2.0269  0.7045
  515HK4    C4243253   8.307   1.436  11.103 -0.1406 -0.0825 -0.2280
  515HK4    H2243254   8.330   1.337  11.060 -3.0594 -1.4057  1.1643
  515HK4    C4343255   8.231   1.528  11.032  0.6372  0.2945 -0.5809
  515HK4    H2343256   8.235   1.529  10.923 -2.3294  0.1020 -0.7280
  515HK4    C4443257   8.186   1.645  11.091 -0.6144 -0.3253 -0.2824
  515HK4    H2443258   8.141   1.722  11.027 -1.0596 -0.4681 -0.1359
  515HK4    C4543259   8.209   1.669  11.226  0.5047  0.3301 -0.5804
  515HK4    H2543260   8.152   1.744   0.034 -0.2345 -0.3540 -0.4035
  516HK4    H2843261   2.754   8.935   1.764 -0.1154 -0.3770 -0.9349
  516HK4    C4843262   2.855   8.919   1.728  0.4589 -0.1876  0.5400
  516HK4    C4743263   2.904   8.790   1.745  0.7391 -0.1171  0.3037
  516HK4    H2743264   2.852   8.707   1.795  0.3436 -1.0604 -1.6410
  516HK4    C4643265   3.029   8.764   1.691  0.2626 -0.4443 -0.6474
  516HK4    H2643266   3.076   8.666   1.711  1.3890  0.0620 -0.7360
  516HK4    C4043267   3.115   8.853   1.622  0.1449  0.1251 -0.0551
  516HK4    C5043268   3.055   8.981   1.611  0.0122  0.0564 -0.1339
  516HK4    H3043269   3.107   9.058   1.552 -0.4842  1.4421  1.2243
  516HK4    C4943270   2.928   9.013   1.656 -0.1643 -0.3690 -0.3240
  516HK4    H2943271   2.876   9.101   1.615  1.1081  0.6384  0.2006
  516HK4     N243272   3.236   8.817   1.562  0.1985  0.1330  0.0468
  516HK4    C3043273   3.262   8.686   1.517 -0.3474  0.0213  0.0497
  516HK4    C2943274   3.180   8.590   1.460 -0.8185  0.2304  0.3734
  516HK4    H1543275   3.073   8.610   1.463 -1.2898 -1.3519 -3.0670
  516HK4    C2843276   3.224   8.470   1.406 -0.4964  0.2716  0.5422
  516HK4    C2743277   3.363   8.448   1.414 -0.4617  0.1288 -0.3782
  516HK4    H1443278   3.411   8.355   1.380 -2.8018 -0.9265 -0.8757
  516HK4    C3243279   3.453   8.531   1.480 -0.6415 -0.1356  0.1928
  516HK4    H1643280   3.561   8.514   1.479 -0.4276  1.1711 -1.5702
  516HK4    C3143281   3.402   8.650   1.531 -0.1782  0.4117 -0.6128
  516HK4    C3443282   3.456   8.761   1.607  0.0700  0.2519 -0.5513
  516HK4    C3343283   3.359   8.869   1.605  0.3249  0.4744 -0.7164
  516HK4    C3543284   3.387   8.986   1.676 -0.1635  0.3462 -0.3163
  516HK4    H1743285   3.317   9.069   1.674  0.7885  1.1922  0.6908
  516HK4    C3643286   3.500   8.988   1.757 -0.3403  0.0870 -0.0584
  516HK4    H1843287   3.529   9.085   1.799 -2.2853  0.5614  0.1976
  516HK4    C3743288   3.593   8.885   1.760 -0.5880 -0.1213  0.4665
  516HK4    H1943289   3.659   8.873   1.846 -2.3339  0.9345  1.9741
  516HK4    C3843290   3.575   8.774   1.677 -0.1170  0.3318 -0.2438
  516HK4    H2043291   3.664   8.718   1.649  0.7388  0.4614  2.0557
  516HK4    C1443292   3.135   8.355   1.391  0.1490 -0.1566 -0.0499
  516HK4     C943293   3.165   8.239   1.463  0.3048  0.0538  0.2183
  516HK4     C843294   3.150   8.117   1.394  0.0669  0.1784  0.0429
  516HK4    C1143295   3.100   8.112   1.265 -0.0232  0.1073  0.0800
  516HK4     H443296   3.085   8.013   1.219 -1.7386  1.5730 -2.6713
  516HK4    C1243297   3.055   8.225   1.198 -0.0165  0.1061  0.0707
  516HK4     H543298   2.989   8.223   1.110 -0.0070  0.8690  0.0457
  516HK4    C1343299   3.073   8.346   1.264 -0.4623  0.0874  0.2285
  516HK4     H643300   3.035   8.441   1.223  0.8959  1.3471  1.7944
  516HK4     C743301   3.192   7.989   1.457 -0.0192  0.0553 -0.1556
  516HK4     O243302   3.171   7.879   1.407 -0.3775  0.2136 -0.3625
  516HK4     C443303   3.255   7.993   1.591 -0.3217  0.0162 -0.0121
  516HK4     C343304   3.306   7.879   1.651 -0.3102  0.0261 -0.0033
  516HK4     H343305   3.312   7.788   1.590  1.3138 -0.2056  0.4680
  516HK4     C243306   3.349   7.869   1.783 -1.3997 -0.2688  0.3280
  516HK4     H243307   3.372   7.772   1.830  2.3419  1.0088  1.2493
  516HK4     C143308   3.359   7.988   1.854 -0.3251  0.0595 -0.3581
  516HK4     H143309   3.355   7.973   1.963 -2.5093 -2.4154 -0.7257
  516HK4     C643310   3.322   8.109   1.793  0.6850  0.3206 -0.4421
  516HK4     C543311   3.255   8.110   1.670  0.2780  0.1579 -0.2189
  516HK4    C1043312   3.199   8.233   1.608 -0.4423  0.1435  0.3987
  516HK4     O143313   3.137   8.312   1.680 -0.1081  0.4417  0.3566
  516HK4    C1643314   3.376   8.219   1.875 -0.1097  0.2326  0.2028
  516HK4    C1543315   3.431   8.326   1.802  0.1646 -0.1281 -0.1220
  516HK4     H743316   3.490   8.301   1.713 -0.3912 -1.3489 -0.1545
  516HK4    C2043317   3.420   8.460   1.837 -0.5239 -0.2315  0.0729
  516HK4     H943318   3.450   8.544   1.774 -2.3001  1.1620  1.0442
  516HK4    C1943319   3.350   8.491   1.953 -0.6212 -0.0319 -0.0377
  516HK4    C1843320   3.305   8.383   2.038 -0.1261 -0.0248  0.2330
  516HK4    C1743321   3.317   8.251   1.997 -0.5282 -0.0087  0.0612
  516HK4     H843322   3.298   8.176   2.073 -0.2879 -0.2756 -0.1413
  516HK4     N143323   3.232   8.429   2.149 -0.2644  0.3211 -0.0037
  516HK4    C2143324   3.213   8.567   2.126 -0.1574  0.3868  0.2980
  516HK4    C2243325   3.288   8.609   2.009  0.1655  0.1612  0.4227
  516HK4    C2643326   3.259   8.737   1.963  0.6326  0.0988 -0.0574
  516HK4    H1343327   3.322   8.773   1.881  1.9306 -2.1274 -0.0893
  516HK4    C2543328   3.161   8.813   2.024  0.1769 -0.2650 -0.3424
  516HK4    H1243329   3.138   8.915   1.992 -0.1862 -0.5680 -1.0571
  516HK4    C2443330   3.087   8.772   2.134  0.7924  0.0757  0.2023
  516HK4    H1143331   3.022   8.850   2.177  0.2665  0.3215 -1.0172
  516HK4    C2343332   3.115   8.646   2.186 -0.4602 -0.1120  0.4623
  516HK4    H1043333   3.062   8.616   2.276  1.6863 -0.8979  1.5015
  516HK4    C3943334   3.250   8.386   2.281  0.0801  0.6355  0.0513
  516HK4    C4143335   3.133   8.385   2.359 -0.1591 -0.4665 -0.3192
  516HK4    H2143336   3.032   8.378   2.317 -0.3308  0.1984 -0.0173
  516HK4    C4243337   3.153   8.374   2.496  0.5559 -0.2262 -0.4040
  516HK4    H2243338   3.066   8.368   2.563 -1.2564  0.0203 -2.6726
  516HK4    C4343339   3.278   8.365   2.557  0.0773  0.4055  0.6832
  516HK4    H2343340   3.288   8.362   2.666  1.7488  1.2661  0.5635
  516HK4    C4443341   3.392   8.377   2.479 -0.3883 -0.0799 -0.0738
  516HK4    H2443342   3.488   8.393   2.530 -0.6773  1.3323  0.0411
  516HK4    C4543343   3.378   8.381   2.340  0.1321 -0.7246 -0.1498
  516HK4    H2543344   3.463   8.366   2.272 -1.3275  1.4391 -2.5506
  517HK4    H2843345   5.838   9.266   8.485 -0.1508 -0.3840  0.0417
  517HK4    C4843346   5.921   9.266   8.414 -0.0913  0.0877  0.1128
  517HK4    C4743347   6.040   9.210   8.460 -0.1045 -0.0740 -0.0478
  517HK4    H2743348   6.050   9.183   8.566  1.4712  0.2263 -0.1108
  517HK4    C4643349   6.148   9.191   8.374  0.1625 -0.6639  0.4219
  517HK4    H2643350   6.245   9.156   8.413  0.3558  0.2516  0.7723
  517HK4    C4043351   6.139   9.234   8.240 -0.0385 -0.6887  0.4237
  517HK4    C5043352   6.015   9.283   8.196  0.1628 -0.3233  0.2589
  517HK4    H3043353   6.007   9.306   8.088 -0.7116 -1.7781  0.0076
  517HK4    C4943354   5.904   9.295   8.279  0.1366  0.3211  0.1343
  517HK4    H2943355   5.805   9.292   8.233  0.7704 -0.4302 -1.2023
  517HK4     N243356   6.247   9.204   8.156 -0.1467 -0.4851  0.2134
  517HK4    C3043357   6.279   9.282   8.043 -0.6802 -0.2100  0.2512
  517HK4    C2943358   6.301   9.419   8.033  0.2380 -0.3936 -0.2670
  517HK4    H1543359   6.282   9.485   8.118  0.4634 -0.2844 -0.3010
  517HK4    C2843360   6.344   9.482   7.917 -0.0146 -0.1900 -0.2506
  517HK4    C2743361   6.379   9.398   7.809  0.0598 -0.0145 -0.3647
  517HK4    H1443362   6.411   9.450   7.718  1.7150 -0.3929 -0.0179
  517HK4    C3243363   6.368   9.260   7.817 -0.3663  0.0443  0.1255
  517HK4    H1643364   6.405   9.190   7.741 -0.6773 -1.1666  1.0725
  517HK4    C3143365   6.319   9.199   7.932  0.3845  0.0456  0.4429
  517HK4    C3443366   6.323   9.062   7.981  0.5470 -0.1912 -0.2208
  517HK4    C3343367   6.276   9.071   8.117  0.3818 -0.2322 -0.2732
  517HK4    C3543368   6.277   8.954   8.192 -0.7819 -0.0026  0.1049
  517HK4    H1743369   6.261   8.962   8.300 -1.2093  0.8665 -0.0144
  517HK4    C3643370   6.312   8.831   8.140  0.1640  0.0766  0.5393
  517HK4    H1843371   6.304   8.734   8.192  0.7676 -0.3017 -0.0637
  517HK4    C3743372   6.344   8.822   8.005 -0.6570  0.2670  0.3276
  517HK4    H1943373   6.378   8.727   7.963  1.3283  1.0458  0.1472
  517HK4    C3843374   6.357   8.938   7.929  0.6169 -0.1961 -0.1678
  517HK4    H2043375   6.405   8.938   7.831 -0.5158  1.1543 -0.7349
  517HK4    C1443376   6.323   9.627   7.902  0.2552 -0.1129  0.1059
  517HK4     C943377   6.287   9.683   7.779 -0.4924  0.1287  0.4302
  517HK4     C843378   6.335   9.811   7.742  1.0340 -0.5579 -0.0131
  517HK4    C1143379   6.394   9.889   7.840 -0.3232 -0.0571  0.4113
  517HK4     H443380   6.442   9.981   7.803 -0.0075 -1.3146 -2.3327
  517HK4    C1243381   6.416   9.843   7.970  0.8380  0.1175  0.2765
  517HK4     H543382   6.450   9.916   8.045  0.1207 -0.2506  0.9527
  517HK4    C1343383   6.380   9.712   7.998 -0.3087  0.3720  0.0162
  517HK4     H643384   6.431   9.663   8.083 -2.7782 -2.0660  0.1495
  517HK4     C743385   6.313   9.862   7.605  0.0446 -0.1231  0.3015
  517HK4     O243386   6.384   9.952   7.561 -0.0899 -0.4424 -0.5860
  517HK4     C443387   6.217   9.793   7.517  0.3054  0.0486 -0.1218
  517HK4     C343388   6.150   9.851   7.410 -0.0374 -0.1776 -0.0344
  517HK4     H343389   6.193   9.948   7.379  3.8208 -1.2754  1.6509
  517HK4     C243390   6.067   9.781   7.324 -0.0695 -0.0301 -0.1241
  517HK4     H243391   6.008   9.845   7.256  0.4514  0.0301 -0.5209
  517HK4     C143392   6.050   9.643   7.337  0.3931 -0.1008 -0.2473
  517HK4     H143393   5.972   9.590   7.280 -1.5003  1.1410  1.1005
  517HK4     C643394   6.119   9.580   7.442 -0.1100  0.0838  0.2009
  517HK4     C543395   6.180   9.659   7.541 -0.0020  0.1660  0.0713
  517HK4    C1043396   6.194   9.617   7.683 -0.0651  0.0746  0.0501
  517HK4     O143397   6.099   9.562   7.738  0.2069 -0.2326  0.2139
  517HK4    C1643398   6.163   9.446   7.401 -0.5472  0.0294 -0.0908
  517HK4    C1543399   6.160   9.399   7.268 -0.9211 -0.3942  0.0649
  517HK4     H743400   6.184   9.469   7.187  0.7437  1.2701  1.9404
  517HK4    C2043401   6.144   9.265   7.234  0.4289 -0.6490  0.4040
  517HK4     H943402   6.158   9.229   7.132 -1.2666  0.5250 -0.2654
  517HK4    C1943403   6.126   9.171   7.334  0.3451 -0.5930  0.4443
  517HK4    C1843404   6.134   9.213   7.473  0.5181  0.0031  0.2551
  517HK4    C1743405   6.153   9.348   7.499 -0.3326  0.1653  0.0665
  517HK4     H843406   6.160   9.378   7.604 -1.4737 -1.6416  0.6886
  517HK4     N143407   6.079   9.118   7.562  0.3285  0.2817  0.4324
  517HK4    C2143408   6.037   9.012   7.479  0.2206  0.2896  0.4776
  517HK4    C2243409   6.062   9.041   7.339 -0.2624 -0.2973  0.2732
  517HK4    C2643410   6.040   8.941   7.245  0.5074 -0.0529 -0.1695
  517HK4    H1343411   6.057   8.961   7.139 -0.7926 -1.2295 -0.6154
  517HK4    C2543412   6.003   8.813   7.286  0.2044  0.0916  0.0087
  517HK4    H1243413   5.978   8.732   7.218 -0.6076  0.3552 -0.0093
  517HK4    C2443414   5.986   8.790   7.422 -0.5606  0.4287 -0.0310
  517HK4    H1143415   5.980   8.686   7.457  0.8647  0.7207  1.0925
  517HK4    C2343416   5.994   8.887   7.521 -0.2988  0.3206  0.0534
  517HK4    H1043417   5.936   8.890   7.614 -1.6707  0.0494 -0.7837
  517HK4    C3943418   6.028   9.151   7.688 -0.2014  0.3985  0.1879
  517HK4    C4143419   6.028   9.053   7.789 -0.3631 -0.4391 -0.6193
  517HK4    H2143420   6.106   8.978   7.812 -0.3681 -0.0846  0.5973
  517HK4    C4243421   5.921   9.042   7.877  0.1845  0.2082  0.1423
  517HK4    H2243422   5.917   8.961   7.952 -2.3032 -2.1052 -2.3776
  517HK4    C4343423   5.813   9.130   7.874 -0.2200 -0.3022 -0.4624
  517HK4    H2343424   5.743   9.115   7.956  0.6729  1.5498  0.6714
  517HK4    C4443425   5.816   9.237   7.785 -0.3289  0.0470 -0.0496
  517HK4    H2443426   5.729   9.304   7.778  0.1310  0.5853 -0.7167
  517HK4    C4543427   5.924   9.247   7.698 -0.6372  0.0000 -0.4355
  517HK4    H2543428   5.936   9.343   7.647 -0.2448 -0.1559 -0.6382
  518HK4    H2843429   1.944  10.510   1.241  0.2728 -0.6473 -0.2990
  518HK4    C4843430   1.847  10.473   1.274  0.2887  0.0155  0.5111
  518HK4    C4743431   1.831  10.358   1.351  0.1202  0.0658  0.5507
  518HK4    H2743432   1.922  10.298   1.357 -0.4480 -0.9079 -0.4530
  518HK4    C4643433   1.710  10.325   1.411 -0.2652 -0.1068 -0.3047
  518HK4    H2643434   1.702  10.234   1.472  2.9791  0.0046  0.3979
  518HK4    C4043435   1.596  10.406   1.389 -0.2601 -0.0430 -0.0944
  518HK4    C5043436   1.613  10.519   1.306 -0.4743 -0.2761 -0.4597
  518HK4    H3043437   1.534  10.592   1.282 -0.8895 -1.1610 -1.8296
  518HK4    C4943438   1.735  10.551   1.249 -0.1074 -0.6747  0.0899
  518HK4    H2943439   1.746  10.650   1.202  1.4576 -0.8524  0.0523
  518HK4     N243440   1.472  10.380   1.448 -0.4225  0.0306 -0.3994
  518HK4    C3043441   1.424  10.253   1.487  0.0893  0.0093  0.1669
  518HK4    C2943442   1.444  10.131   1.424 -0.0718  0.1242 -0.1032
  518HK4    H1543443   1.496  10.137   1.329 -0.1202 -0.0901 -0.1445
  518HK4    C2843444   1.389  10.012   1.470 -0.0706  0.1082 -0.1434
  518HK4    C2743445   1.306  10.017   1.584 -0.3882 -0.3774 -0.3541
  518HK4    H1443446   1.289   9.922   1.638 -0.1525  0.5983  1.4901
  518HK4    C3243447   1.277  10.140   1.642 -0.0438 -0.2555 -0.4378
  518HK4    H1643448   1.206  10.141   1.725  1.0335 -0.6867  0.5128
  518HK4    C3143449   1.332  10.260   1.599  0.5658 -0.1690  0.5709
  518HK4    C3443450   1.310  10.401   1.622  0.0403 -0.1692  0.0854
  518HK4    C3343451   1.403  10.469   1.534 -0.2752 -0.0730 -0.1726
  518HK4    C3543452   1.422  10.605   1.556 -0.0244 -0.1433  0.0526
  518HK4    H1743453   1.503  10.654   1.502 -1.1764 -0.7121 -2.2520
  518HK4    C3643454   1.350  10.667   1.657  0.1619  0.3965 -0.1467
  518HK4    H1843455   1.344  10.776   1.668 -1.6760  0.1807  1.3670
  518HK4    C3743456   1.257  10.602   1.738  0.6574 -0.5386 -0.3327
  518HK4    H1943457   1.182  10.654   1.796  0.8023 -0.1992 -0.4492
  518HK4    C3843458   1.236  10.465   1.720 -0.0656 -0.5012  0.2222
  518HK4    H2043459   1.189  10.397   1.792  1.5308 -1.5132  0.3362
  518HK4    C1443460   1.362   9.906   1.372  0.0449 -0.1244  0.0710
  518HK4     C943461   1.247   9.827   1.372 -0.2119  0.2472 -0.3505
  518HK4     C843462   1.254   9.691   1.335 -0.1568  0.1937 -0.1486
  518HK4    C1143463   1.378   9.642   1.296 -0.0881  0.4382 -0.2364
  518HK4     H443464   1.376   9.537   1.264 -0.7365  0.2094  0.5289
  518HK4    C1243465   1.493   9.719   1.284  0.1922  0.1812  0.8001
  518HK4     H543466   1.591   9.690   1.244 -1.4178 -1.1049 -2.4267
  518HK4    C1343467   1.483   9.852   1.325  0.4210  0.2644  0.5869
  518HK4     H643468   1.576   9.909   1.308  0.4572 -0.2903 -1.2014
  518HK4     C743469   1.145   9.604   1.385 -0.0042 -0.3174 -0.7073
  518HK4     O243470   1.139   9.486   1.349  0.1934 -0.6308  0.2797
  518HK4     C443471   1.031   9.654   1.465 -0.0756 -0.7945 -0.5056
  518HK4     C343472   0.939   9.579   1.537 -0.2257 -0.4300 -0.3087
  518HK4     H343473   0.972   9.483   1.579  2.2754 -0.8342 -3.0130
  518HK4     C243474   0.811   9.623   1.568 -0.0530 -0.1622  0.0276
  518HK4     H243475   0.738   9.569   1.630 -1.5750  1.0169 -0.7044
  518HK4     C143476   0.772   9.746   1.515 -0.0969 -0.4380 -0.5955
  518HK4     H143477   0.682   9.791   1.558  1.2164  0.3103  1.4754
  518HK4     C643478   0.860   9.824   1.437  0.0335 -0.0009 -0.0158
  518HK4     C543479   0.994   9.786   1.431 -0.0676 -0.4813  0.7071
  518HK4    C1043480   1.109   9.876   1.403 -0.4597 -0.3480 -0.4907
  518HK4     O143481   1.085   9.997   1.400 -0.4316 -0.3233  0.2572
  518HK4    C1643482   0.795   9.937   1.368 -0.5556 -0.3659 -0.0701
  518HK4    C1543483   0.671   9.997   1.398  0.0142  0.5534  0.4600
  518HK4     H743484   0.651  10.011   1.505  1.1637  2.3988  0.4633
  518HK4    C2043485   0.588  10.072   1.315  0.1026  0.1006 -0.0421
  518HK4     H943486   0.485  10.098   1.342  0.0441  0.1732 -0.3308
  518HK4    C1943487   0.636  10.105   1.189 -0.4900  0.0750 -0.2763
  518HK4    C1843488   0.762  10.045   1.148 -0.5727 -0.0786 -0.3039
  518HK4    C1743489   0.834   9.968   1.238 -0.3026  0.8543  0.2901
  518HK4     H843490   0.936   9.942   1.210 -0.8173 -1.3580  0.3880
  518HK4     N143491   0.805  10.104   1.028  0.0517  0.1331  0.0208
  518HK4    C2143492   0.703  10.193   0.988 -0.2156 -0.3032 -0.2823
  518HK4    C2243493   0.595  10.196   1.084 -0.1306  0.3235 -0.2025
  518HK4    C2643494   0.488  10.284   1.069 -0.3745  0.0267 -0.2099
  518HK4    H1343495   0.424  10.298   1.156 -0.9676  0.2075 -0.6745
  518HK4    C2543496   0.478  10.369   0.960  0.8489  0.2773 -0.1312
  518HK4    H1243497   0.396  10.439   0.947  2.0754  1.6248 -0.8385
  518HK4    C2443498   0.577  10.363   0.862 -0.0704 -0.5508 -1.0161
  518HK4    H1143499   0.577  10.441   0.784 -0.1657  2.9018  2.2425
  518HK4    C2343500   0.684  10.277   0.878  0.5334  0.3980  0.1172
  518HK4    H1043501   0.767  10.304   0.813 -0.0171 -1.2006 -1.2857
  518HK4    C3943502   0.918  10.060   0.958 -0.0228 -0.0595  0.0226
  518HK4    C4143503   0.995  10.156   0.889  0.2589 -0.1659  0.1895
  518HK4    H2143504   1.025  10.250   0.938  0.8232  0.8340 -2.0494
  518HK4    C4243505   1.071  10.122   0.778  0.0169  0.2850 -0.1128
  518HK4    H2243506   1.114  10.201   0.714  1.5137 -2.0059 -2.0144
  518HK4    C4343507   1.074   9.992   0.731  0.9843  0.0284  0.6406
  518HK4    H2343508   1.139   9.962   0.648  0.7785 -0.2771  0.5888
  518HK4    C4443509   0.991   9.899   0.792 -0.5046  0.7150 -0.3290
  518HK4    H2443510   0.967   9.810   0.732 -1.7113  1.5041 -1.0413
  518HK4    C4543511   0.919   9.928   0.908 -0.5418  0.0060 -0.1759
  518HK4    H2543512   0.860   9.848   0.955 -0.8667 -0.2203 -0.9663
  519HK4    H2843513   2.955   0.530   0.410 -2.9477 -0.8637  0.2850
  519HK4    C4843514   2.988   0.428   0.430  0.2147 -0.0841 -0.6421
  519HK4    C4743515   3.123   0.395   0.437  0.2453  0.1893  0.1186
  519HK4    H2743516   3.203   0.467   0.414  1.5391 -1.7237 -1.6644
  519HK4    C4643517   3.159   0.274   0.495  0.1505 -0.2460 -0.7067
  519HK4    H2643518   3.267   0.251   0.499 -0.5597 -3.5342  0.4262
  519HK4    C4043519   3.066   0.190   0.559  0.2532  0.0520 -0.1546
  519HK4    C5043520   2.930   0.223   0.547  0.3649  0.7999  0.6071
  519HK4    H3043521   2.852   0.158   0.589  0.4889 -0.4680 -1.0500
  519HK4    C4943522   2.893   0.339   0.479  0.1255  0.1726 -0.3490
  519HK4    H2943523   2.790   0.353   0.444  0.3507 -1.8466 -1.9198
  519HK4     N243524   3.094   0.055   0.583 -0.1016  0.0037 -0.0077
  519HK4    C3043525   3.186  11.232   0.501 -0.0601  0.1849 -0.1182
  519HK4    C2943526   3.226   0.004   0.370 -0.2375 -0.5121 -0.2774
  519HK4    H1543527   3.200   0.101   0.330  0.1892  1.2236  3.4511
  519HK4    C2843528   3.293  11.157   0.293  0.5415 -0.4766  0.3517
  519HK4    C2743529   3.329  11.037   0.358 -0.0655 -1.1048 -0.4701
  519HK4    H1443530   3.386  10.954   0.313  0.3237 -0.2838 -1.5040
  519HK4    C3243531   3.296  11.014   0.491 -0.1631  0.2356 -0.2560
  519HK4    H1643532   3.317  10.915   0.532 -1.0617  0.0616 -0.2135
  519HK4    C3143533   3.218  11.104   0.562  0.2807  0.3614  0.0747
  519HK4    C3443534   3.136  11.096   0.682  0.3432 -0.3569  0.0703
  519HK4    C3343535   3.068  11.223   0.696  0.5202 -0.2491 -0.0380
  519HK4    C3543536   2.981  11.243   0.802  0.2720 -0.0511 -0.2773
  519HK4    H1743537   2.913   0.080   0.807  0.5876  0.1330  1.2415
  519HK4    C3643538   2.962  11.140   0.894  0.2618  0.1422 -0.0612
  519HK4    H1843539   2.910  11.150   0.991 -0.5363  0.1834 -0.4889
  519HK4    C3743540   3.026  11.018   0.881  0.0972  0.0320  0.1438
  519HK4    H1943541   2.995  10.926   0.931 -0.4060 -0.9338 -1.8862
  519HK4    C3843542   3.119  10.998   0.779  0.1953 -0.1369  0.2654
  519HK4    H2043543   3.191  10.916   0.782  0.0943 -0.3022 -1.2527
  519HK4    C1443544   3.279  11.167   0.147  0.4419 -0.2821  0.3735
  519HK4     C943545   3.267  11.056   0.062 -0.0342  0.1618 -0.1462
  519HK4     C843546   3.330  11.044  11.184  0.0829 -0.0567 -0.0701
  519HK4    C1143547   3.388  11.160  11.134  0.3194 -0.0074  0.3083
  519HK4     H443548   3.433  11.154  11.034  0.0558 -2.2108  0.2946
  519HK4    C1243549   3.385   0.030  11.207  0.5404 -0.1615  0.5652
  519HK4     H543550   3.408   0.123  11.153 -1.0993  0.4059  0.8064
  519HK4    C1343551   3.329   0.036   0.086  0.1653 -0.1535  0.3979
  519HK4     H643552   3.302   0.134   0.126 -0.8805 -0.9722  1.7551
  519HK4     C743553   3.335  10.917  11.109  0.0007 -0.1415  0.0730
  519HK4     O243554   3.426  10.887  11.032 -0.4703 -0.4633 -0.3643
  519HK4     C443555   3.250  10.805  11.157  0.2421 -0.3116  0.1044
  519HK4     C343556   3.228  10.698  11.072  0.2375  0.0513 -0.3535
  519HK4     H343557   3.292  10.685  10.983  2.3190  2.3086  0.7803
  519HK4     C243558   3.136  10.597  11.100  0.0410  0.2660 -0.2235
  519HK4     H243559   3.094  10.533  11.021 -0.4776  0.5339 -0.1660
  519HK4     C143560   3.085  10.602  11.229 -0.0925  0.2123 -0.2719
  519HK4     H143561   3.027  10.516   0.019  0.3136  0.3498  0.6673
  519HK4     C643562   3.098  10.708   0.073 -0.5555  0.2785 -0.2793
  519HK4     C543563   3.174  10.815   0.027 -0.3555  0.1206 -0.3156
  519HK4    C1043564   3.173  10.946   0.098  0.0052  0.0916 -0.2553
  519HK4     O143565   3.066  10.992   0.139 -0.1315 -0.2203 -0.2581
  519HK4    C1643566   3.036  10.693   0.206 -0.2740  0.2454 -0.1508
  519HK4    C1543567   3.086  10.745   0.327 -1.1177  0.5297  0.0822
  519HK4     H743568   3.182  10.798   0.318  0.0267 -1.9096 -3.2704
  519HK4    C2043569   3.025  10.730   0.451  0.4969 -0.2639  0.8038
  519HK4     H943570   3.079  10.767   0.538 -0.4094  1.0932  0.8122
  519HK4    C1943571   2.911  10.652   0.463  0.1480  0.0924 -0.1432
  519HK4    C1843572   2.849  10.607   0.340 -0.2201 -0.1762  0.1392
  519HK4    C1743573   2.912  10.632   0.219 -0.1559  0.0819  0.2261
  519HK4     H843574   2.857  10.601   0.129  0.0098  0.9197 -0.1684
  519HK4     N143575   2.747  10.513   0.365  0.1552 -0.4787  0.5316
  519HK4    C2143576   2.747  10.495   0.505  0.1538 -0.1710  0.5698
  519HK4    C2243577   2.846  10.579   0.570 -0.0378  0.4915  0.0150
  519HK4    C2643578   2.870  10.573   0.707 -0.1564 -0.0480  0.0103
  519HK4    H1343579   2.949  10.626   0.759  1.4963 -2.5137  0.0744
  519HK4    C2543580   2.792  10.482   0.778  0.4643 -0.6545 -0.0835
  519HK4    H1243581   2.839  10.434   0.864 -0.0563  0.1347  0.6386
  519HK4    C2443582   2.688  10.410   0.721  0.0746 -0.4156  0.3284
  519HK4    H1143583   2.635  10.342   0.790 -2.1344 -0.0637 -0.9519
  519HK4    C2343584   2.666  10.414   0.584 -0.7952  0.6955  0.4945
  519HK4    H1043585   2.574  10.370   0.545 -1.0977  1.5292  0.2600
  519HK4    C3943586   2.650  10.469   0.274 -0.0126  0.8867  0.0446
  519HK4    C4143587   2.603  10.336   0.281  0.3128  0.7744  0.2256
  519HK4    H2143588   2.620  10.274   0.370  0.6911  1.5795  0.7162
  519HK4    C4243589   2.516  10.292   0.182  0.0181  1.0154  0.3745
  519HK4    H2243590   2.466  10.194   0.191 -1.1426  1.5569 -0.0383
  519HK4    C4343591   2.479  10.376   0.077 -0.6937  0.4873  0.2011
  519HK4    H2343592   2.406  10.344   0.003  0.0395  0.1880 -0.3927
  519HK4    C4443593   2.516  10.510   0.072 -0.5677  0.4411 -0.1023
  519HK4    H2443594   2.489  10.576  11.237  0.4191  1.1796  0.1584
  519HK4    C4543595   2.597  10.555   0.176 -0.7611  0.4294  0.0530
  519HK4    H2543596   2.608  10.663   0.193 -1.6971  0.6524 -0.7019
  520HK4    H2843597   6.970   5.695   3.342  0.9713 -0.6578  0.0064
  520HK4    C4843598   7.058   5.754   3.370  0.1846  0.3023  0.5211
  520HK4    C4743599   7.152   5.694   3.453  0.1290 -0.4510  0.0525
  520HK4    H2743600   7.114   5.606   3.507 -1.6093 -2.2789 -3.9209
  520HK4    C4643601   7.267   5.767   3.480 -0.1279 -0.1100  0.2305
  520HK4    H2643602   7.343   5.728   3.549  0.7591  0.1768 -0.5761
  520HK4    C4043603   7.298   5.895   3.428  0.4482 -0.5198 -0.4590
  520HK4    C5043604   7.199   5.952   3.345  0.3560  0.1316  0.0950
  520HK4    H3043605   7.192   6.061   3.330 -0.1611  0.0999  0.1245
  520HK4    C4943606   7.085   5.879   3.317  0.4915 -0.0147 -0.0776
  520HK4    H2943607   7.008   5.932   3.258  0.3766 -0.4772 -0.3451
  520HK4     N243608   7.413   5.962   3.470  0.0243  0.0495 -0.1912
  520HK4    C3043609   7.498   5.923   3.577 -0.2299  0.8978  0.3227
  520HK4    C2943610   7.461   5.890   3.707 -0.4977 -0.5017 -0.0991
  520HK4    H1543611   7.353   5.896   3.721 -0.4633  1.9919 -0.5630
  520HK4    C2843612   7.544   5.867   3.816 -0.2870 -0.3295 -0.2210
  520HK4    C2743613   7.681   5.882   3.791 -0.3004  0.0070 -0.0893
  520HK4    H1443614   7.740   5.842   3.875 -0.0470  2.2531  0.8461
  520HK4    C3243615   7.725   5.917   3.663  0.1157  0.2298  0.1123
  520HK4    H1643616   7.832   5.914   3.644  0.1465 -0.2092  0.3359
  520HK4    C3143617   7.640   5.938   3.555 -0.1782  0.4924  0.3946
  520HK4    C3443618   7.645   5.999   3.424 -0.0617  0.7768  0.5295
  520HK4    C3343619   7.508   6.009   3.378  0.1259 -0.3398 -0.2850
  520HK4    C3543620   7.484   6.069   3.255  0.3265  0.0438 -0.1395
  520HK4    H1743621   7.392   6.052   3.199  1.6489 -0.5915 -2.1674
  520HK4    C3643622   7.589   6.122   3.180  0.6976 -0.4337  0.0401
  520HK4    H1843623   7.566   6.192   3.099  0.5769 -0.7756 -0.2226
  520HK4    C3743624   7.720   6.114   3.223  0.6525 -0.1890  0.2176
  520HK4    H1943625   7.803   6.165   3.174  0.5301  1.5710  1.7279
  520HK4    C3843626   7.747   6.054   3.346  0.2533  0.0446  0.4196
  520HK4    H2043627   7.848   6.017   3.365  0.9007 -0.0669 -2.8416
  520HK4    C1443628   7.498   5.863   3.956  0.3645 -0.6456 -0.0149
  520HK4     C943629   7.564   5.902   4.073  0.0821 -0.0037 -0.0673
  520HK4     C843630   7.551   5.835   4.196  0.0387  0.1220 -0.0039
  520HK4    C1143631   7.452   5.737   4.206  0.0962  0.0587 -0.0386
  520HK4     H443632   7.445   5.671   4.294 -1.5178  0.2446 -0.0209
  520HK4    C1243633   7.371   5.706   4.097  0.2031 -0.3365 -0.0019
  520HK4     H543634   7.306   5.617   4.101  1.5883 -1.3517  0.8369
  520HK4    C1343635   7.393   5.771   3.977  0.0400 -0.2686  0.0057
  520HK4     H643636   7.336   5.740   3.887 -3.4367  0.2900  1.9148
  520HK4     C743637   7.631   5.875   4.314  0.3362 -0.3451 -0.0471
  520HK4     O243638   7.614   5.825   4.425  0.2706 -0.6031 -0.1743
  520HK4     C443639   7.738   5.976   4.295 -0.2005  0.3748  0.7443
  520HK4     C343640   7.799   6.024   4.410 -0.0847 -0.0134  0.8427
  520HK4     H343641   7.764   6.001   4.511  1.9794  2.3506  2.1488
  520HK4     C243642   7.906   6.113   4.398 -0.3393  0.1905  0.0656
  520HK4     H243643   7.965   6.156   4.480  0.9680 -1.4558  0.0221
  520HK4     C143644   7.944   6.160   4.273 -0.4935  0.5130  0.1392
  520HK4     H143645   8.007   6.249   4.277  2.2995 -1.4348  1.1201
  520HK4     C643646   7.883   6.110   4.155  0.0536 -0.3010  0.1969
  520HK4     C543647   7.771   6.028   4.168 -0.3132  0.2662  0.6698
  520HK4    C1043648   7.668   6.008   4.062  0.2056 -0.0947  0.2308
  520HK4     O143649   7.646   6.107   3.993  0.4622  0.0332  0.3330
  520HK4    C1643650   7.956   6.144   4.032  0.0231  0.0703  0.2811
  520HK4    C1543651   7.937   6.060   3.921 -0.7002  0.0334  0.4313
  520HK4     H743652   7.917   5.952   3.935  2.6253 -0.4980  1.5323
  520HK4    C2043653   7.966   6.111   3.795 -0.3336  0.0917  0.5413
  520HK4     H943654   7.947   6.049   3.708  3.4665  1.0620 -1.1157
  520HK4    C1943655   8.030   6.233   3.777 -0.8709  0.3395  0.2703
  520HK4    C1843656   8.072   6.311   3.892 -0.9777  0.4737  0.2185
  520HK4    C1743657   8.019   6.267   4.013  0.4185 -0.0748  0.6481
  520HK4     H843658   7.993   6.356   4.069 -0.8681  1.1876 -1.8546
  520HK4     N143659   8.128   6.436   3.859 -0.1228  0.1399  0.3844
  520HK4    C2143660   8.119   6.437   3.718 -0.0679 -0.1191  0.3790
  520HK4    C2243661   8.054   6.320   3.663  0.2332 -0.1637  0.1123
  520HK4    C2643662   8.014   6.313   3.530  0.0639  0.1912  0.1440
  520HK4    H1343663   7.978   6.219   3.489  0.0273 -0.1407  0.9177
  520HK4    C2543664   8.016   6.425   3.448 -0.1324  0.3751  0.3873
  520HK4    H1243665   7.992   6.414   3.342  0.8496  2.3513 -0.0651
  520HK4    C2443666   8.075   6.541   3.496  0.0444  0.5167 -0.1632
  520HK4    H1143667   8.088   6.624   3.426  0.1438  1.2647  0.7367
  520HK4    C2343668   8.124   6.541   3.626  0.1392 -0.6331 -0.1921
  520HK4    H1043669   8.195   6.619   3.653 -1.1681  0.5637 -0.1825
  520HK4    C3943670   8.245   6.489   3.914 -0.1939  0.0872  0.5843
  520HK4    C4143671   8.250   6.630   3.913 -0.4673  0.0937  0.3226
  520HK4    H2143672   8.171   6.698   3.878 -0.6310 -0.6106 -0.6960
  520HK4    C4243673   8.370   6.694   3.943 -0.1154 -0.1944 -0.4365
  520HK4    H2243674   8.376   6.804   3.945  0.5818 -0.2385  0.1438
  520HK4    C4343675   8.484   6.617   3.962 -0.1046 -0.1279 -0.2500
  520HK4    H2343676   8.579   6.667   3.982 -0.0914 -0.2306 -0.0477
  520HK4    C4443677   8.488   6.479   3.955  0.0199 -0.0798 -1.1935
  520HK4    H2443678   8.581   6.430   3.990 -0.2544  0.9581  1.1103
  520HK4    C4543679   8.366   6.418   3.932 -0.2575 -0.0963  0.2801
  520HK4    H2543680   8.368   6.310   3.908  0.8204 -0.0619  0.2202
  521HK4    H2843681  10.055   8.157  10.074  1.5423 -0.3776  0.5211
  521HK4    C4843682  10.021   8.162  10.178  0.1235  0.0768  0.0559
  521HK4    C4743683   9.998   8.049  10.256 -0.6270  0.2205  0.0455
  521HK4    H2743684   9.995   7.954  10.202 -0.3244 -0.1436  0.6590
  521HK4    C4643685   9.989   8.055  10.395 -0.5918  0.1051  0.0540
  521HK4    H2643686   9.974   7.963  10.453 -0.4458 -0.2911 -0.5350
  521HK4    C4043687   9.998   8.178  10.464 -0.3850 -0.0920  0.3741
  521HK4    C5043688  10.012   8.291  10.381 -0.5372 -0.3602 -0.0135
  521HK4    H3043689  10.014   8.389  10.429  1.1807 -0.1307 -0.5146
  521HK4    C4943690  10.026   8.284  10.243 -0.2665  0.1291 -0.0063
  521HK4    H2943691  10.046   8.379  10.190 -0.9207  0.2651 -0.0160
  521HK4     N243692   9.956   8.199  10.596 -1.0104  1.1060 -0.0080
  521HK4    C3043693   9.870   8.117  10.672 -0.0098  0.0931  0.0392
  521HK4    C2943694   9.763   8.041  10.628  0.1439 -0.2761  0.3000
  521HK4    H1543695   9.739   8.041  10.522 -1.8424 -3.4278  0.6796
  521HK4    C2843696   9.681   7.983  10.724  0.3162 -0.5777  0.2699
  521HK4    C2743697   9.715   7.994  10.860  0.0981  0.5598  0.2318
  521HK4    H1443698   9.645   7.950  10.933  0.2968  0.6275  0.4644
  521HK4    C3243699   9.821   8.070  10.909  0.7110 -0.5408  0.6281
  521HK4    H1643700   9.836   8.099  11.013 -2.5843 -0.5937  1.1830
  521HK4    C3143701   9.902   8.129  10.813 -0.4083  0.1961  0.1214
  521HK4    C3443702  10.009   8.226  10.828 -0.4330  0.2499 -0.0572
  521HK4    C3343703  10.037   8.266  10.691 -0.0887  0.0533 -0.0441
  521HK4    C3543704  10.148   8.345  10.665  0.4488 -0.7088 -0.0878
  521HK4    H1743705  10.188   8.355  10.564 -1.1675  0.2020 -0.6568
  521HK4    C3643706  10.225   8.380  10.775 -0.0065 -0.1633  0.0563
  521HK4    H1843707  10.324   8.425  10.762  0.2509 -0.4781  0.9095
  521HK4    C3743708  10.189   8.355  10.907 -0.2524  0.4993  0.1153
  521HK4    H1943709  10.260   8.379  10.986 -0.0909  2.0907 -0.4806
  521HK4    C3843710  10.076   8.279  10.937  0.0117 -0.0140 -0.2003
  521HK4    H2043711  10.022   8.285  11.031 -1.4566 -0.9504 -0.9703
  521HK4    C1443712   9.545   7.943  10.685  0.2629 -0.2210  0.0959
  521HK4     C943713   9.433   7.933  10.768 -0.0989  0.2702 -0.3263
  521HK4     C843714   9.331   7.836  10.752 -0.1058  0.3073 -0.4916
  521HK4    C1143715   9.343   7.748  10.645  0.2520 -0.4638  0.1779
  521HK4     H443716   9.263   7.676  10.628  0.9144 -0.7060 -2.0698
  521HK4    C1243717   9.448   7.760  10.555 -0.4761  0.5801 -0.5396
  521HK4     H543718   9.466   7.689  10.473  1.9771  1.0213 -0.4458
  521HK4    C1343719   9.544   7.860  10.571  0.1707 -0.1282  0.0297
  521HK4     H643720   9.597   7.893  10.480 -0.7671  2.5402  0.4171
  521HK4     C743721   9.210   7.832  10.838 -0.1484  0.3814 -0.5443
  521HK4     O243722   9.126   7.744  10.820  0.1891 -0.0454 -0.0420
  521HK4     C443723   9.195   7.937  10.941 -0.3352  0.1655 -0.3534
  521HK4     C343724   9.083   7.936  11.023  0.0195  0.2000  0.1354
  521HK4     H343725   8.992   7.890  10.981  0.2134  0.0135 -0.0837
  521HK4     C243726   9.067   8.018  11.133  0.2824  0.4677 -0.0252
  521HK4     H243727   8.998   8.004  11.218 -1.0199  0.8004 -1.0149
  521HK4     C143728   9.165   8.114  11.157  0.4574  0.1272  0.6308
  521HK4     H143729   9.136   8.203  11.215  2.7817  1.0798  0.3907
  521HK4     C643730   9.281   8.120  11.077  0.0382 -0.1185  0.0083
  521HK4     C543731   9.292   8.037  10.965 -0.1155 -0.1319  0.0040
  521HK4    C1043732   9.402   8.042  10.865 -0.5283  0.2478 -0.4369
  521HK4     O143733   9.433   8.153  10.823 -0.0392  0.4043  0.3291
  521HK4    C1643734   9.396   8.179  11.147 -0.1035 -0.2983  0.4002
  521HK4    C1543735   9.418   8.167   0.038 -0.1772  0.1598  0.4510
  521HK4     H743736   9.373   8.082   0.091 -0.7429 -0.8461 -1.5647
  521HK4    C2043737   9.483   8.267   0.109 -0.0437 -0.0868  0.6775
  521HK4     H943738   9.494   8.257   0.217  1.6795  1.7424  0.6952
  521HK4    C1943739   9.533   8.381   0.048  0.0953 -0.6331 -0.2298
  521HK4    C1843740   9.519   8.389  11.151  0.0926 -0.3036 -0.2120
  521HK4    C1743741   9.448   8.291  11.083  0.5462 -0.8005  0.0365
  521HK4     H843742   9.396   8.325  10.994  0.7016  0.9721  0.5894
  521HK4     N143743   9.579   8.508  11.104  0.6132 -0.2961  0.4450
  521HK4    C2143744   9.637   8.572  11.216  0.1450  0.0590  0.4852
  521HK4    C2243745   9.606   8.499   0.089 -0.5640 -0.3290  0.0749
  521HK4    C2643746   9.672   8.542   0.204 -0.2487  0.0220 -0.2397
  521HK4    H1343747   9.669   8.485   0.296  0.1859 -0.8926 -0.7876
  521HK4    C2543748   9.759   8.650   0.205 -0.3039  0.0679 -0.0637
  521HK4    H1243749   9.813   8.672   0.297  3.0532 -2.1641 -1.4005
  521HK4    C2443750   9.799   8.712   0.087  0.2774  0.1215  0.1615
  521HK4    H1143751   9.884   8.781   0.078  0.2097  0.1344 -0.3672
  521HK4    C2343752   9.736   8.669  11.219  0.5140 -0.3057  0.1891
  521HK4    H1043753   9.761   8.729  11.132 -0.6001 -1.0126 -0.6341
  521HK4    C3943754   9.597   8.540  10.969  0.4101 -0.2971  0.4164
  521HK4    C4143755   9.621   8.672  10.927  0.1536 -0.4377 -0.1853
  521HK4    H2143756   9.594   8.756  10.994  0.1814 -0.1051 -0.5878
  521HK4    C4243757   9.681   8.702  10.805  0.2847 -0.6275 -0.1668
  521HK4    H2243758   9.715   8.806  10.792  0.6630 -0.7097  0.1254
  521HK4    C4343759   9.708   8.599  10.716  0.0836 -0.1859 -0.7404
  521HK4    H2343760   9.765   8.631  10.629  0.4795  1.0098 -0.0446
  521HK4    C4443761   9.674   8.470  10.757  0.3355 -0.0675 -0.1524
  521HK4    H2443762   9.698   8.392  10.684  2.5980 -0.6292  1.1124
  521HK4    C4543763   9.623   8.433  10.881 -0.1419  0.1388 -0.2866
  521HK4    H2543764   9.612   8.325  10.900  1.0053  0.3869  1.9070
  522HK4    H2843765   9.190   1.146   6.597  1.1863  0.3741 -1.5982
  522HK4    C4843766   9.176   1.253   6.615  0.0489  0.0836 -0.6595
  522HK4    C4743767   9.107   1.293   6.729  0.0702 -0.0491 -0.5993
  522HK4    H2743768   9.098   1.229   6.817  3.4330  2.5677  1.7651
  522HK4    C4643769   9.071   1.427   6.747  0.0314 -0.1256 -0.1159
  522HK4    H2643770   9.002   1.445   6.830  1.2556  0.3136  0.8262
  522HK4    C4043771   9.106   1.528   6.655 -0.2360  0.2088  0.1512
  522HK4    C5043772   9.181   1.482   6.545 -0.0703 -0.1144  0.3974
  522HK4    H3043773   9.239   1.554   6.485 -1.3475  3.2551  3.0593
  522HK4    C4943774   9.214   1.349   6.522 -0.0487  0.0774 -0.7039
  522HK4    H2943775   9.256   1.316   6.426  0.8420 -0.0007 -0.2945
  522HK4     N243776   9.129   1.658   6.701 -0.4058  0.2429  0.1381
  522HK4    C3043777   9.150   1.694   6.836  0.1691 -0.2098  0.1679
  522HK4    C2943778   9.182   1.619   6.949 -0.1416 -0.1933  0.2679
  522HK4    H1543779   9.200   1.512   6.940 -1.3568 -0.3774 -0.0499
  522HK4    C2843780   9.197   1.675   7.075 -0.3967  0.5593 -0.0324
  522HK4    C2743781   9.199   1.816   7.087 -0.6193  0.5900 -0.3519
  522HK4    H1443782   9.219   1.859   7.186  0.1576 -0.5491 -0.0020
  522HK4    C3243783   9.185   1.895   6.974 -0.8487  0.1167 -0.6563
  522HK4    H1643784   9.200   2.003   6.974  1.2372 -0.1615 -0.9423
  522HK4    C3143785   9.163   1.838   6.849  0.1305 -0.1218 -0.7200
  522HK4    C3443786   9.136   1.888   6.716  0.4409  0.0740 -0.7098
  522HK4    C3343787   9.120   1.777   6.625  0.8242 -0.1047 -0.5570
  522HK4    C3543788   9.079   1.796   6.494  0.5736 -0.4962 -0.5388
  522HK4    H1743789   9.093   1.710   6.429 -1.3605 -1.5482  0.3886
  522HK4    C3643790   9.042   1.924   6.453  0.1116 -0.4453  0.0302
  522HK4    H1843791   9.006   1.946   6.351  0.8945 -0.5818 -0.2841
  522HK4    C3743792   9.055   2.032   6.539 -0.5918 -0.3426  0.0118
  522HK4    H1943793   9.018   2.130   6.509  1.0337 -0.2336 -1.7421
  522HK4    C3843794   9.104   2.015   6.668  0.1123  0.1944 -0.1819
  522HK4    H2043795   9.142   2.110   6.707 -0.7277  1.4981 -2.4460
  522HK4    C1443796   9.176   1.589   7.193 -0.7631 -0.5354 -0.8921
  522HK4     C943797   9.114   1.628   7.312  0.1513 -0.2900 -0.5012
  522HK4     C843798   9.154   1.575   7.436  0.3701  0.2190 -0.3505
  522HK4    C1143799   9.246   1.470   7.436 -0.5813 -0.6317 -0.1511
  522HK4     H443800   9.266   1.418   7.530 -0.4623  0.2148  0.2945
  522HK4    C1243801   9.311   1.435   7.318  0.8692  0.6958  0.2270
  522HK4     H543802   9.383   1.352   7.326  0.2597  0.0922 -0.4453
  522HK4    C1343803   9.276   1.490   7.195  0.2015  0.4550  0.3055
  522HK4     H643804   9.320   1.446   7.104  2.5881  1.9172  0.7053
  522HK4     C743805   9.093   1.623   7.562  0.3414 -0.3668 -0.1385
  522HK4     O243806   9.125   1.573   7.670 -0.1432 -0.0280  0.1657
  522HK4     C443807   8.991   1.730   7.561  0.4341 -0.2728  0.2529
  522HK4     C343808   8.949   1.787   7.680  0.3619  0.1994  0.0015
  522HK4     H343809   8.968   1.731   7.773  2.1090  0.6252 -0.0941
  522HK4     C243810   8.891   1.914   7.685  0.1294  0.0908  0.0678
  522HK4     H243811   8.852   1.951   7.780  1.3469  1.8271 -0.0886
  522HK4     C143812   8.877   1.980   7.563  0.1201 -0.0221  0.0070
  522HK4     H143813   8.824   2.076   7.556 -2.0186 -0.8583  3.4144
  522HK4     C643814   8.900   1.912   7.441  0.5447 -0.0463  0.1014
  522HK4     C543815   8.949   1.781   7.437 -0.2687 -0.3691  0.4455
  522HK4    C1043816   8.997   1.720   7.309  0.6228  0.3523  0.4280
  522HK4     O143817   8.904   1.683   7.238  0.4964 -0.4529  1.0106
  522HK4    C1643818   8.924   2.008   7.333  1.1123  0.0630  0.3216
  522HK4    C1543819   9.012   2.116   7.352  1.1300  0.1287 -0.1204
  522HK4     H743820   9.073   2.119   7.444 -1.6823  1.7249  1.7738
  522HK4    C2043821   9.041   2.201   7.246 -0.1999  0.8529  0.0844
  522HK4     H943822   9.118   2.278   7.250 -0.2403  1.0239 -1.8505
  522HK4    C1943823   8.986   2.174   7.121 -0.5142  0.0308  0.3972
  522HK4    C1843824   8.898   2.061   7.099  0.0480 -0.4483  0.5967
  522HK4    C1743825   8.864   1.984   7.210 -0.0136 -0.0176  0.8765
  522HK4     H843826   8.770   1.930   7.198 -1.1481  2.2320 -0.7961
  522HK4     N143827   8.855   2.061   6.965  0.8453 -0.4266  0.3379
  522HK4    C2143828   8.904   2.178   6.904 -0.6013 -0.1151 -0.2413
  522HK4    C2243829   8.988   2.250   6.997 -0.8252 -0.3559  0.1514
  522HK4    C2643830   9.051   2.368   6.958  0.1622 -0.9416 -0.0258
  522HK4    H1343831   9.107   2.416   7.038  1.2211  0.5659 -1.6319
  522HK4    C2543832   9.049   2.414   6.827 -0.5537  0.1148  0.3517
  522HK4    H1243833   9.094   2.504   6.788  1.6245 -0.8168  0.6782
  522HK4    C2443834   8.966   2.348   6.735  0.3055 -0.4040 -0.0604
  522HK4    H1143835   8.956   2.393   6.635  0.8195  0.9614  0.4777
  522HK4    C2343836   8.897   2.236   6.778 -0.3782 -0.0502 -0.2248
  522HK4    H1043837   8.849   2.172   6.704 -0.6986  3.2525 -2.9905
  522HK4    C3943838   8.815   1.948   6.892  0.3070  0.1060 -0.1934
  522HK4    C4143839   8.733   1.945   6.777 -0.3867 -0.0500  0.3032
  522HK4    H2143840   8.670   2.030   6.745 -0.9267 -0.9835 -1.1402
  522HK4    C4243841   8.715   1.829   6.703  0.2293  0.0109  0.0608
  522HK4    H2243842   8.666   1.827   6.604 -1.1964  0.1140  0.7537
  522HK4    C4343843   8.765   1.705   6.740  0.1253 -0.0834 -0.1111
  522HK4    H2343844   8.761   1.616   6.677  0.2478 -0.4163  0.3434
  522HK4    C4443845   8.841   1.700   6.857  0.3024  0.0649 -0.2202
  522HK4    H2443846   8.892   1.608   6.888  1.3733  0.8133  0.2497
  522HK4    C4543847   8.857   1.819   6.928  0.2095  0.0700 -0.2065
  522HK4    H2543848   8.912   1.804   7.022 -1.7400 -0.6530  0.8468
  523HK4    H2843849   0.979   5.307   4.497 -0.5503 -2.5330 -0.9604
  523HK4    C4843850   1.001   5.362   4.405 -0.0100 -0.5590  0.3106
  523HK4    C4743851   0.948   5.308   4.289  0.0680  0.5285 -0.2321
  523HK4    H2743852   0.913   5.204   4.277  2.1938 -0.0826 -1.3771
  523HK4    C4643853   0.962   5.380   4.170  0.3602 -0.0825 -0.5698
  523HK4    H2643854   0.936   5.333   4.074  0.0584 -0.2622 -0.4017
  523HK4    C4043855   1.017   5.510   4.172 -0.2380  0.1651 -0.0994
  523HK4    C5043856   1.066   5.560   4.294 -0.4131  0.2364 -0.0576
  523HK4    H3043857   1.092   5.667   4.294 -0.9745  0.3869  1.7774
  523HK4    C4943858   1.067   5.484   4.411 -0.2179 -0.4082 -0.4723
  523HK4    H2943859   1.133   5.511   4.495 -2.4876  0.7826  0.9742
  523HK4     N243860   1.040   5.580   4.053 -0.0218  0.1305 -0.0765
  523HK4    C3043861   1.063   5.520   3.927  0.0787 -0.0470  0.0248
  523HK4    C2943862   1.095   5.390   3.893 -0.6891 -0.1621 -0.2666
  523HK4    H1543863   1.147   5.322   3.961  3.7408  1.1527 -2.1660
  523HK4    C2843864   1.102   5.351   3.759  0.1140  0.1174 -0.3045
  523HK4    C2743865   1.066   5.442   3.657 -0.1107 -0.1213 -0.4368
  523HK4    H1443866   1.067   5.403   3.554  1.4526 -0.0211 -0.4763
  523HK4    C3243867   1.030   5.573   3.686  0.8325  0.1339 -0.3903
  523HK4    H1643868   1.019   5.651   3.610  0.2242 -0.8957 -1.3732
  523HK4    C3143869   1.037   5.613   3.818 -0.0313 -0.3362 -0.1974
  523HK4    C3443870   0.995   5.736   3.882  0.7810 -0.0347 -0.2377
  523HK4    C3343871   0.997   5.711   4.025 -0.3463 -0.0011 -0.2097
  523HK4    C3543872   0.946   5.811   4.106  0.1787  0.0376  0.0764
  523HK4    H1743873   0.942   5.786   4.212 -3.6460  0.0198 -0.0103
  523HK4    C3643874   0.904   5.938   4.067  0.1681 -0.0455 -0.1865
  523HK4    H1843875   0.874   6.013   4.142 -0.2449  0.4002 -0.7996
  523HK4    C3743876   0.908   5.959   3.930 -0.3570 -0.2137 -0.2274
  523HK4    H1943877   0.862   6.052   3.898 -1.8727 -0.6515  0.6227
  523HK4    C3843878   0.950   5.861   3.841  0.7064  0.0213  0.0074
  523HK4    H2043879   0.914   5.870   3.738 -0.4531  0.5352  0.4528
  523HK4    C1443880   1.170   5.225   3.726 -0.1984 -0.1338  0.0101
  523HK4     C943881   1.226   5.195   3.601 -0.9647  0.0124 -0.3755
  523HK4     C843882   1.216   5.069   3.538 -0.5083 -0.2991  0.1668
  523HK4    C1143883   1.179   4.962   3.619  0.3369 -0.5289  0.2588
  523HK4     H443884   1.183   4.858   3.585 -1.1458 -1.1853  2.0080
  523HK4    C1243885   1.147   4.982   3.753 -0.0414 -0.0864  0.1047
  523HK4     H543886   1.130   4.902   3.827  0.5930  0.4168  0.7861
  523HK4    C1343887   1.136   5.111   3.802  0.1179 -0.1060  0.1930
  523HK4     H643888   1.121   5.120   3.910  0.7966 -1.8033  0.4347
  523HK4     C743889   1.236   5.055   3.392 -0.2694  0.0751  0.1614
  523HK4     O243890   1.227   4.943   3.342 -0.3889  0.2225 -0.1451
  523HK4     C443891   1.263   5.176   3.312 -0.1867  0.0850  0.2078
  523HK4     C343892   1.238   5.173   3.175  0.2057  0.1040  0.1361
  523HK4     H343893   1.161   5.102   3.143  0.5035  0.1477 -0.6795
  523HK4     C243894   1.269   5.285   3.099 -0.4705  0.1225 -0.1103
  523HK4     H243895   1.284   5.279   2.990  2.4406 -1.0591  0.3190
  523HK4     C143896   1.321   5.398   3.161  0.2909 -0.2424 -0.0768
  523HK4     H143897   1.325   5.498   3.116  1.2274  0.1208  0.7890
  523HK4     C643898   1.354   5.397   3.299  0.4553 -0.3976 -0.1175
  523HK4     C543899   1.323   5.285   3.377 -0.4576  0.1639  0.3295
  523HK4    C1043900   1.313   5.289   3.526 -0.1565 -0.1444  0.3578
  523HK4     O143901   1.418   5.305   3.590  0.3310 -0.6786 -0.2998
  523HK4    C1643902   1.390   5.530   3.349  0.0178 -0.3628  0.1081
  523HK4    C1543903   1.314   5.648   3.334  0.2398 -0.1773  0.4285
  523HK4     H743904   1.208   5.649   3.305 -0.7578 -0.1611  3.7524
  523HK4    C2043905   1.368   5.771   3.369 -0.1411 -0.1078  0.7934
  523HK4     H943906   1.311   5.859   3.340  1.2714  0.2659 -0.9691
  523HK4    C1943907   1.498   5.784   3.416 -0.0248 -0.0501  0.4614
  523HK4    C1843908   1.579   5.664   3.427  0.2436  0.0894  0.0084
  523HK4    C1743909   1.519   5.541   3.401 -0.0910  0.2002  0.2589
  523HK4     H843910   1.582   5.454   3.388 -0.2059  0.1566  0.0031
  523HK4     N143911   1.710   5.693   3.471  0.0699  0.1579  0.4764
  523HK4    C2143912   1.713   5.832   3.492  0.2908  0.3186 -0.6036
  523HK4    C2243913   1.586   5.892   3.457 -0.1312  0.0470  0.4302
  523HK4    C2643914   1.575   6.029   3.477 -0.2053  0.0839  0.1512
  523HK4    H1343915   1.477   6.075   3.465 -1.0993 -1.8981 -0.3609
  523HK4    C2543916   1.679   6.113   3.514 -0.2595 -0.0776  0.6676
  523HK4    H1243917   1.669   6.219   3.536  0.1456  0.0051  0.4638
  523HK4    C2443918   1.805   6.057   3.531 -0.0645 -0.0461 -0.6395
  523HK4    H1143919   1.888   6.122   3.560 -0.0951 -1.4739  2.9031
  523HK4    C2343920   1.816   5.918   3.529  0.3864 -0.0208 -0.0685
  523HK4    H1043921   1.910   5.868   3.555 -0.0042 -0.8629 -0.2526
  523HK4    C3943922   1.805   5.592   3.492 -0.0681 -0.0498  0.1077
  523HK4    C4143923   1.942   5.624   3.480 -0.0722 -0.0937 -0.0413
  523HK4    H2143924   1.971   5.707   3.413  0.4608 -1.3694 -1.4267
  523HK4    C4243925   2.050   5.556   3.534  0.0209  0.0699 -0.0234
  523HK4    H2243926   2.149   5.589   3.500 -0.8590 -0.8551 -3.6940
  523HK4    C4343927   2.012   5.449   3.613 -0.6626  0.2307 -0.1282
  523HK4    H2343928   2.093   5.405   3.672  1.2103  2.1994 -1.2091
  523HK4    C4443929   1.880   5.409   3.630 -0.4028 -0.5314  0.1529
  523HK4    H2443930   1.849   5.325   3.695 -0.7660 -0.5851 -0.0863
  523HK4    C4543931   1.775   5.478   3.570 -0.0841  0.0826  0.2986
  523HK4    H2543932   1.673   5.436   3.577  0.1072 -0.5248 -0.4526
  524HK4    H2843933  11.031   9.854   5.796 -0.9120  1.0294  0.0209
  524HK4    C4843934  11.082   9.940   5.752  0.1285  0.2378 -0.3510
  524HK4    C4743935  11.049   9.985   5.625  0.9977  0.1070 -0.6219
  524HK4    H2743936  10.984   9.925   5.559 -1.2700  2.0208 -0.1623
  524HK4    C4643937  11.097  10.106   5.577  0.2877  0.5966 -0.1126
  524HK4    H2643938  11.072  10.135   5.474 -1.0322  1.4356  0.4304
  524HK4    C4043939  11.182  10.187   5.656  0.7947 -0.1593  0.1237
  524HK4    C5043940  11.220  10.132   5.780  0.0209  0.4346  0.6284
  524HK4    H3043941   0.058  10.182   5.827 -0.2446  0.7187  0.8213
  524HK4    C4943942  11.176  10.009   5.827  0.0941  0.0964 -0.1773
  524HK4    H2943943  11.232   9.977   5.917  0.6694 -1.3183 -1.0256
  524HK4     N243944  11.171  10.325   5.635  0.2916 -0.2244 -0.0507
  524HK4    C3043945   0.031  10.414   5.651 -0.0133  0.0411  0.5376
  524HK4    C2943946   0.168  10.394   5.649  0.0574  0.5350  0.2943
  524HK4    H1543947   0.211  10.294   5.664  2.0685  1.1478 -1.2070
  524HK4    C2843948   0.255  10.501   5.638  0.4680  0.1373 -0.3204
  524HK4    C2743949   0.210  10.634   5.626 -0.0190 -0.0171 -0.1916
  524HK4    H1443950   0.278  10.720   5.616 -2.7026  2.1488 -0.2049
  524HK4    C3243951   0.073  10.657   5.633  0.0181  0.1814 -0.0910
  524HK4    H1643952   0.038  10.758   5.649 -1.1011 -0.1883 -0.2007
  524HK4    C3143953  11.233  10.551   5.652  0.1342  0.0948 -0.0132
  524HK4    C3443954  11.088  10.539   5.653  0.1567 -0.1869  0.4183
  524HK4    C3343955  11.052  10.399   5.644  0.3169 -0.2142  0.1907
  524HK4    C3543956  10.922  10.359   5.676  0.1069 -0.0868 -0.4815
  524HK4    H1743957  10.896  10.254   5.667 -0.0293  0.0757 -2.0547
  524HK4    C3643958  10.828  10.452   5.719  0.3901 -0.0538  0.0851
  524HK4    H1843959  10.726  10.418   5.744  0.7293 -0.1963  1.3077
  524HK4    C3743960  10.860  10.587   5.718  0.0406  0.0315 -0.0893
  524HK4    H1943961  10.776  10.651   5.743 -0.7840 -0.7179 -0.9152
  524HK4    C3843962  10.989  10.630   5.689  0.0125 -0.0507 -0.3339
  524HK4    H2043963  11.019  10.729   5.723  1.0558 -0.4918  0.0375
  524HK4    C1443964   0.391  10.475   5.689  0.2128  0.0054  0.2869
  524HK4     C943965   0.465  10.561   5.770  0.3382  0.1877 -0.0184
  524HK4     C843966   0.606  10.572   5.769  0.3829 -0.3330  0.1341
  524HK4    C1143967   0.672  10.478   5.690  0.5794  0.4290 -0.6214
  524HK4     H443968   0.780  10.464   5.706  0.7691  2.3866  0.0112
  524HK4    C1243969   0.600  10.389   5.613 -0.2694  0.3623  0.2413
  524HK4     H543970   0.653  10.327   5.539  3.0362  1.4736  1.6126
  524HK4    C1343971   0.461  10.379   5.613 -0.2765  0.4080 -0.6827
  524HK4     H643972   0.407  10.296   5.566  0.2353 -0.8922  0.9933
  524HK4     C743973   0.685  10.688   5.816  0.5371 -0.3620 -0.0481
  524HK4     O243974   0.802  10.669   5.846  0.5682  0.4194  0.3443
  524HK4     C443975   0.609  10.803   5.869  0.3648 -0.1431 -0.7586
  524HK4     C343976   0.677  10.921   5.896  0.1214 -0.2967  0.5809
  524HK4     H343977   0.785  10.927   5.877 -0.2408 -0.3490 -1.7525
  524HK4     C243978   0.603  11.030   5.941 -0.4906 -0.3678 -0.2312
  524HK4     H243979   0.646  11.131   5.940  1.9329 -1.3609 -0.8046
  524HK4     C143980   0.468  11.015   5.968 -0.6133  0.5000 -0.3434
  524HK4     H143981   0.413  11.102   6.007 -0.4680  0.6609 -0.5001
  524HK4     C643982   0.393  10.898   5.941  0.1442 -0.0568 -0.0577
  524HK4     C543983   0.470  10.792   5.893  0.4598  0.1711 -0.0533
  524HK4    C1043984   0.402  10.664   5.857  0.6282 -0.0763  0.5043
  524HK4     O143985   0.315  10.614   5.928 -0.3762  0.7745 -0.1236
  524HK4    C1643986   0.250  10.919   5.911  0.1774 -0.0945 -0.2404
  524HK4    C1543987   0.209  11.029   5.834  0.2719  0.5003  0.5528
  524HK4     H743988   0.291  11.085   5.786 -2.0072  1.0781 -2.8741
  524HK4    C2043989   0.081  11.082   5.827  0.0621 -0.1024 -0.2316
  524HK4     H943990   0.065  11.180   5.781 -0.9015 -0.0143  0.2937
  524HK4    C1943991  11.229  11.014   5.895  0.3510  0.2592  0.5547
  524HK4    C1843992   0.017  10.896   5.972 -0.0393 -0.2347 -0.0198
  524HK4    C1743993   0.148  10.852   5.977  0.0833  0.1049 -0.1838
  524HK4     H843994   0.184  10.787   6.057  1.8217 -0.8535 -1.6934
  524HK4     N143995  11.152  10.841   6.036 -0.0195 -0.1231  0.1161
  524HK4    C2143996  11.038  10.915   5.999  0.0114 -0.2313 -0.1969
  524HK4    C2243997  11.087  11.029   5.923  0.1075 -0.3662 -0.3427
  524HK4    C2643998  10.998  11.111   5.856  0.0440 -0.2849 -0.1558
  524HK4    H1343999  11.043  11.194   5.800  2.0468 -0.4177  1.2004
  524HK4    C2544000  10.861  11.094   5.870  0.0492 -0.2188 -0.0222
  524HK4    H1244001  10.794  11.148   5.804  0.7546 -0.6874 -1.1329
  524HK4    C2444002  10.815  10.994   5.955 -0.1579 -0.1497 -0.0542
  524HK4    H1144003  10.705  10.982   5.959 -0.0067 -1.3739  1.0156
  524HK4    C2344004  10.901  10.903   6.015 -0.0170 -0.3121 -0.4997
  524HK4    H1044005  10.861  10.806   6.045  2.4765 -0.9405  0.9264
  524HK4    C3944006  11.147  10.714   6.095  0.1571 -0.0861  0.2110
  524HK4    C4144007  11.058  10.690   6.202 -0.0571  0.1720  0.0926
  524HK4    H2144008  11.023  10.775   6.263 -1.2205  0.5421 -1.0636
  524HK4    C4244009  11.020  10.561   6.237  0.3658  0.1225  0.3742
  524HK4    H2244010  10.948  10.550   6.319  0.6395 -1.2515  0.4543
  524HK4    C4344011  11.076  10.453   6.170 -0.4891  0.0233 -0.1894
  524HK4    H2344012  11.086  10.361   6.228  0.3502 -1.0092 -1.9278
  524HK4    C4444013  11.153  10.472   6.056  0.2097  0.7565  0.3984
  524HK4    H2444014  11.169  10.390   5.984 -1.6281 -0.4812  1.3826
  524HK4    C4544015  11.193  10.601   6.024  1.2408  0.3826  0.1692
  524HK4    H2544016   0.019  10.616   5.944 -0.2239  0.7961 -1.1335
  525HK4    H2844017  10.060  10.774   3.061  1.3502  0.7288  1.7078
  525HK4    C4844018  10.042  10.879   3.038  0.2227  0.2602  0.3561
  525HK4    C4744019   9.951  10.951   3.114 -0.4996  0.1570 -0.4102
  525HK4    H2744020   9.859  10.906   3.153  1.5442 -2.4355  1.5804
  525HK4    C4644021   9.949  11.090   3.102  0.4562  0.1915 -0.2370
  525HK4    H2644022   9.880  11.142   3.170  0.4302 -1.9168  1.4011
  525HK4    C4044023  10.041  11.158   3.020  0.4278  0.0608 -0.3782
  525HK4    C5044024  10.128  11.079   2.942  0.2506 -0.3121 -0.2041
  525HK4    H3044025  10.188  11.118   2.858 -1.0505  0.6861 -0.6789
  525HK4    C4944026  10.133  10.940   2.952  0.4069 -0.2807  0.1659
  525HK4    H2944027  10.212  10.887   2.897  2.1626  2.9113 -0.5472
  525HK4     N244028  10.030   0.048   3.002 -0.0572  0.0950  0.1470
  525HK4    C3044029   9.918   0.123   3.041  0.1151  0.0441  0.7462
  525HK4    C2944030   9.783   0.092   3.037  0.1671 -0.1225  0.1421
  525HK4    H1544031   9.762   0.002   2.978 -0.1816  0.3235 -0.4180
  525HK4    C2844032   9.687   0.185   3.077  0.3418  0.3157 -0.4525
  525HK4    C2744033   9.730   0.308   3.130  0.5255 -0.0091  0.1653
  525HK4    H1444034   9.659   0.376   3.180  0.6919  0.3536 -0.0905
  525HK4    C3244035   9.864   0.341   3.142  0.3685  0.5469  0.4431
  525HK4    H1644036   9.902   0.427   3.197 -1.5277  1.9206 -0.3333
  525HK4    C3144037   9.958   0.255   3.085 -0.2003  0.5870 -0.5697
  525HK4    C3444038  10.101   0.265   3.060 -0.1235  0.1958 -0.2918
  525HK4    C3344039  10.139   0.138   3.002 -0.1843  0.2511 -0.4542
  525HK4    C3544040  10.266   0.128   2.946  0.1747  0.2085  0.3516
  525HK4    H1744041  10.309   0.039   2.901 -0.0931 -0.8882  2.2137
  525HK4    C3644042  10.351   0.238   2.943  0.1731  0.2139  0.5715
  525HK4    H1844043  10.456   0.221   2.917 -0.1632 -2.7759  1.0094
  525HK4    C3744044  10.314   0.362   2.994 -0.5024  0.5978 -0.8406
  525HK4    H1944045  10.375   0.451   2.975  0.3597  0.9069  3.0368
  525HK4    C3844046  10.190   0.371   3.057  0.1106  0.0197  0.4557
  525HK4    H2044047  10.166   0.465   3.107  0.0196  0.9970 -1.3699
  525HK4    C1444048   9.551   0.154   3.031  0.1374  0.0600  0.3111
  525HK4     C944049   9.470   0.256   2.977 -0.0415 -0.2789 -0.0671
  525HK4     C844050   9.330   0.245   2.983 -0.0839  0.3817  0.1552
  525HK4    C1144051   9.270   0.134   3.041  0.3726  0.0482 -0.0048
  525HK4     H444052   9.166   0.152   3.075  0.3855  2.0717 -0.9835
  525HK4    C1244053   9.345   0.028   3.089  0.0946 -0.0307  0.2507
  525HK4     H544054   9.291  11.180   3.099 -0.8138  0.6360  1.9579
  525HK4    C1344055   9.483   0.041   3.080  0.0697 -0.2091 -0.3971
  525HK4     H644056   9.543  11.205   3.118  1.7182  0.8169 -0.6696
  525HK4     C744057   9.249   0.356   2.927 -0.3844  0.1038  0.0348
  525HK4     O244058   9.134   0.330   2.891 -0.1763 -0.0446 -0.5237
  525HK4     C444059   9.311   0.480   2.878  0.1075 -0.2127 -0.1428
  525HK4     C344060   9.226   0.590   2.869 -0.1321 -0.4243 -0.4417
  525HK4     H344061   9.127   0.576   2.823 -1.2699 -3.2506  2.6656
  525HK4     C244062   9.271   0.721   2.884 -0.6890 -0.3187  0.3178
  525HK4     H244063   9.190   0.796   2.880 -1.7413 -1.3967  1.0248
  525HK4     C144064   9.409   0.738   2.887 -0.6252 -0.6569 -0.4657
  525HK4     H144065   9.441   0.843   2.885 -1.6437 -0.3642 -2.1628
  525HK4     C644066   9.500   0.631   2.890 -0.0047 -0.1304 -0.3039
  525HK4     C544067   9.451   0.500   2.885  0.0852 -0.1907  0.2849
  525HK4    C1044068   9.524   0.371   2.900  0.1076 -0.1930  0.1634
  525HK4     O144069   9.615   0.346   2.821 -0.1087  0.2371 -0.2174
  525HK4    C1644070   9.624   0.660   2.963 -0.0815 -0.7339  0.0804
  525HK4    C1544071   9.636   0.753   3.069 -0.1190  0.2918 -0.8065
  525HK4     H744072   9.542   0.782   3.118 -0.4693  2.1159 -2.4870
  525HK4    C2044073   9.755   0.792   3.129 -0.4035  0.0348 -0.0732
  525HK4     H944074   9.760   0.861   3.213 -0.7785 -1.8218  1.5070
  525HK4    C1944075   9.875   0.737   3.084 -0.3338  0.4410 -0.3979
  525HK4    C1844076   9.866   0.660   2.962 -0.0562  0.0168 -0.1534
  525HK4    C1744077   9.745   0.621   2.906 -0.0021  0.1639 -0.3820
  525HK4     H844078   9.742   0.567   2.812 -2.1091 -0.0604 -0.2205
  525HK4     N144079   9.994   0.649   2.903  0.2262 -0.1099  0.4828
  525HK4    C2144080  10.087   0.708   2.991  0.3602 -0.1110  0.3396
  525HK4    C2244081  10.016   0.767   3.103 -0.2298 -0.3103  0.0701
  525HK4    C2644082  10.081   0.825   3.211  0.1365 -0.4536 -0.0724
  525HK4    H1344083  10.030   0.881   3.289  4.4853  0.6228  2.1316
  525HK4    C2544084  10.220   0.828   3.214  0.1355 -0.4117  0.0312
  525HK4    H1244085  10.266   0.895   3.286 -2.1346  0.6485  0.5567
  525HK4    C2444086  10.287   0.761   3.112  0.3821 -0.0600 -0.0374
  525HK4    H1144087  10.395   0.750   3.126  0.5637 -0.1994 -1.5359
  525HK4    C2344088  10.225   0.698   3.004  0.4727  0.4220 -0.3716
  525HK4    H1044089  10.267   0.657   2.913 -1.0247 -0.1427 -0.8303
  525HK4    C3944090  10.023   0.566   2.795 -0.7166  0.3400 -0.1229
  525HK4    C4144091  10.125   0.596   2.702 -0.5248  0.3656  0.0956
  525HK4    H2144092  10.159   0.700   2.695  0.4492  0.1485  1.4562
  525HK4    C4244093  10.190   0.503   2.620 -0.4900  0.4645  0.0111
  525HK4    H2244094  10.267   0.531   2.547  0.9532  0.0848  1.3666
  525HK4    C4344095  10.146   0.372   2.629 -0.0228  0.2873 -0.2707
  525HK4    H2344096  10.209   0.299   2.579 -0.2867 -0.9997  1.2068
  525HK4    C4444097  10.040   0.335   2.712 -0.1261 -0.0573 -0.5479
  525HK4    H2444098  10.007   0.231   2.703  0.7198 -0.4055  0.3097
  525HK4    C4544099   9.981   0.431   2.793  0.2769  0.0225 -0.3460
  525HK4    H2544100   9.908   0.396   2.868 -0.6837 -0.5165 -1.5037
  526HK4    H2844101   1.791   1.692   4.450  1.1729 -0.2204 -0.5370
  526HK4    C4844102   1.816   1.793   4.482  0.3536 -0.2685  0.2699
  526HK4    C4744103   1.945   1.840   4.463  0.3289 -0.3171 -0.0139
  526HK4    H2744104   2.023   1.773   4.422 -0.2332 -1.0721  0.1456
  526HK4    C4644105   1.980   1.972   4.490  0.0604 -0.2892  0.2007
  526HK4    H2644106   2.079   2.004   4.453 -0.8269  0.2096 -1.8148
  526HK4    C4044107   1.886   2.056   4.553  0.1376  0.1949 -0.3274
  526HK4    C5044108   1.764   1.997   4.591  0.4931 -0.0708  0.4170
  526HK4    H3044109   1.704   2.051   4.666 -0.1043  0.4985 -0.4568
  526HK4    C4944110   1.723   1.870   4.551  0.4348  0.0801 -0.0065
  526HK4    H2944111   1.622   1.828   4.561 -0.3312  1.1054 -2.8749
  526HK4     N244112   1.914   2.189   4.586  0.1352  0.0934  0.0804
  526HK4    C3044113   2.039   2.248   4.612 -0.0166  0.1590  0.6641
  526HK4    C2944114   2.156   2.184   4.653  0.1687 -0.1570 -0.3355
  526HK4    H1544115   2.154   2.078   4.680  2.0402 -0.7101 -2.2579
  526HK4    C2844116   2.272   2.253   4.685  0.2815 -0.3905 -0.2340
  526HK4    C2744117   2.264   2.393   4.667 -0.0343 -0.4053 -0.2212
  526HK4    H1444118   2.360   2.446   4.657 -0.2440  0.0509  0.1355
  526HK4    C3244119   2.148   2.463   4.636 -0.1331  0.0561  1.1427
  526HK4    H1644120   2.144   2.567   4.667  0.9825  0.7495 -0.9785
  526HK4    C3144121   2.031   2.393   4.609  0.0131  0.1522  0.2389
  526HK4    C3444122   1.891   2.423   4.586  0.1519  0.0333 -0.7514
  526HK4    C3344123   1.823   2.295   4.571 -0.0586 -0.0066  0.5380
  526HK4    C3544124   1.684   2.303   4.564 -0.0246 -0.1039 -0.2998
  526HK4    H1744125   1.625   2.213   4.546 -1.4781  0.8041 -0.1458
  526HK4    C3644126   1.611   2.421   4.570 -0.0315 -0.1181 -0.0905
  526HK4    H1844127   1.501   2.434   4.567 -0.5699 -4.2737 -1.6503
  526HK4    C3744128   1.679   2.541   4.584 -0.0258 -0.1077 -0.2043
  526HK4    H1944129   1.638   2.639   4.563 -1.5113 -0.8377 -0.7186
  526HK4    C3844130   1.818   2.541   4.584 -0.0272 -0.0604  0.3266
  526HK4    H2044131   1.862   2.640   4.595 -1.4809  0.5155  1.1094
  526HK4    C1444132   2.386   2.194   4.756  0.0351 -0.4356  0.1267
  526HK4     C944133   2.474   2.265   4.838 -0.0942  0.1928 -0.2771
  526HK4     C844134   2.602   2.216   4.869 -0.1503  0.0266 -0.3056
  526HK4    C1144135   2.637   2.087   4.831  0.6068 -0.0096  0.5062
  526HK4     H444136   2.739   2.050   4.850  0.7439  0.0648 -0.1015
  526HK4    C1244137   2.545   2.009   4.762  0.2100 -0.1411  1.1732
  526HK4     H544138   2.572   1.902   4.761  2.0295  0.3039 -1.2387
  526HK4    C1344139   2.421   2.061   4.726  0.6765 -0.1333 -0.4811
  526HK4     H644140   2.346   1.989   4.691 -0.0162 -1.0437  2.6495
  526HK4     C744141   2.700   2.309   4.931  0.1064 -0.3191 -0.1946
  526HK4     O244142   2.809   2.266   4.968  0.2905  0.8439  0.6191
  526HK4     C444143   2.656   2.446   4.964  0.4465 -0.2208 -0.1544
  526HK4     C344144   2.750   2.548   4.971 -0.0823  0.2811 -0.3241
  526HK4     H344145   2.852   2.535   4.931 -0.3274 -1.6617 -0.3721
  526HK4     C244146   2.710   2.678   4.998 -0.1107  0.2710 -0.3173
  526HK4     H244147   2.772   2.766   4.976  0.7508 -0.3686 -0.4659
  526HK4     C144148   2.579   2.699   5.040 -0.0746 -0.3750  0.1329
  526HK4     H144149   2.553   2.798   5.082  0.7534 -0.1575  0.1379
  526HK4     C644150   2.486   2.594   5.044 -0.0646 -0.4002 -0.2962
  526HK4     C544151   2.522   2.465   5.002  0.3893 -0.2622 -0.3326
  526HK4    C1044152   2.429   2.370   4.935 -0.0859  0.0408 -0.1095
  526HK4     O144153   2.319   2.362   4.989 -0.1751  0.0985 -0.2821
  526HK4    C1644154   2.350   2.641   5.072  0.0758 -0.0975 -0.1290
  526HK4    C1544155   2.306   2.767   5.026 -0.1051 -0.2500 -0.3710
  526HK4     H744156   2.343   2.792   4.926  0.7976 -0.5188 -0.1071
  526HK4    C2044157   2.217   2.849   5.094  0.4419 -0.2127  0.3072
  526HK4     H944158   2.188   2.948   5.058  2.6382  0.2869 -0.1808
  526HK4    C1944159   2.161   2.794   5.208 -0.3355 -0.3347 -0.1257
  526HK4    C1844160   2.188   2.658   5.253  0.3021 -0.1038  0.1976
  526HK4    C1744161   2.295   2.593   5.190 -0.0939 -0.2901 -0.2861
  526HK4     H844162   2.353   2.534   5.261 -1.0097 -0.2867  0.4947
  526HK4     N144163   2.109   2.614   5.360  0.2666  0.2841  0.3320
  526HK4    C2144164   2.044   2.732   5.401  0.1416  0.1874  0.4147
  526HK4    C2244165   2.079   2.844   5.317 -0.6052 -0.1862 -0.3977
  526HK4    C2644166   2.035   2.973   5.345  0.2779 -0.0908  0.5512
  526HK4    H1344167   2.035   3.045   5.264 -1.1514 -0.1473  0.4961
  526HK4    C2544168   1.957   2.995   5.458 -0.4637  0.9265 -0.1496
  526HK4    H1244169   1.901   3.087   5.476 -2.9462 -0.4426 -0.5881
  526HK4    C2444170   1.918   2.886   5.535  0.3622  0.5263 -0.2906
  526HK4    H1144171   1.848   2.909   5.618  0.1357 -0.3199 -0.2406
  526HK4    C2344172   1.956   2.755   5.507 -0.1788  0.2713  0.1318
  526HK4    H1044173   1.906   2.673   5.558  1.2005 -0.0491  1.0148
  526HK4    C3944174   2.058   2.486   5.385  0.3323  0.2682  0.3801
  526HK4    C4144175   2.006   2.450   5.511  0.0734  0.1562  0.2433
  526HK4    H2144176   2.033   2.513   5.598 -3.4637 -0.2283  1.7014
  526HK4    C4244177   1.954   2.325   5.541 -0.3835  0.3045  0.0728
  526HK4    H2244178   1.895   2.308   5.633  1.7008  1.8847  1.7531
  526HK4    C4344179   1.968   2.223   5.448  0.0928  0.2751  0.1721
  526HK4    H2344180   1.956   2.120   5.482 -0.6657  0.4069  0.3227
  526HK4    C4444181   2.019   2.256   5.322 -0.0546  0.3359  0.1278
  526HK4    H2444182   2.047   2.177   5.251  1.5128  0.2872  0.7743
  526HK4    C4544183   2.051   2.386   5.286  0.2099  0.3263  0.3304
  526HK4    H2544184   2.042   2.414   5.180 -1.7194  2.3637  1.0216
  527HK4    H2844185   2.102   1.610   3.605 -0.3854 -0.2073 -0.3777
  527HK4    C4844186   2.139   1.708   3.575  0.5112 -0.4623 -0.1090
  527HK4    C4744187   2.155   1.737   3.440 -0.6783 -0.2552 -0.2058
  527HK4    H2744188   2.179   1.651   3.376 -0.9140 -1.3178  1.1075
  527HK4    C4644189   2.154   1.870   3.399 -0.5342 -0.1954 -0.0151
  527HK4    H2644190   2.151   1.896   3.292 -0.2845  0.0005  0.0237
  527HK4    C4044191   2.154   1.978   3.489 -0.4152 -0.2204  0.0153
  527HK4    C5044192   2.148   1.943   3.625 -0.1126 -0.0341  0.0771
  527HK4    H3044193   2.139   2.023   3.701  0.4473 -1.4638  1.6672
  527HK4    C4944194   2.137   1.812   3.668  0.1142 -0.2091 -0.4024
  527HK4    H2944195   2.126   1.798   3.776 -0.9215 -2.3447 -0.7560
  527HK4     N244196   2.190   2.109   3.452 -0.1476 -0.3202 -0.0770
  527HK4    C3044197   2.264   2.137   3.335 -0.0066 -0.3454  0.0057
  527HK4    C2944198   2.384   2.077   3.301 -0.0172 -0.4232  0.1004
  527HK4    H1544199   2.424   1.999   3.365  0.3501  0.6456  1.1997
  527HK4    C2844200   2.459   2.128   3.194  0.3872 -0.1321  0.5182
  527HK4    C2744201   2.418   2.246   3.129 -0.0574 -0.5240  0.0765
  527HK4    H1444202   2.490   2.306   3.073 -1.0273  0.8956  0.3117
  527HK4    C3244203   2.293   2.302   3.156  0.3051  0.2129  0.2546
  527HK4    H1644204   2.249   2.373   3.087 -2.3394 -0.1388  1.4990
  527HK4    C3144205   2.217   2.252   3.261  0.5387  0.1113  0.3761
  527HK4    C3444206   2.112   2.302   3.348  0.3608  0.0781  0.1783
  527HK4    C3344207   2.104   2.219   3.467  0.5820  0.2057  0.2826
  527HK4    C3544208   2.044   2.265   3.584 -0.4532  0.3544 -0.2971
  527HK4    H1744209   2.052   2.202   3.673 -0.2297  2.8673  1.4956
  527HK4    C3644210   1.988   2.392   3.579  0.0464  0.5798 -0.1161
  527HK4    H1844211   1.935   2.437   3.664  2.0255  0.8840  1.0054
  527HK4    C3744212   1.992   2.472   3.466  0.4395  0.3302 -0.2820
  527HK4    H1944213   1.965   2.578   3.468 -0.0596  0.2067 -0.3928
  527HK4    C3844214   2.058   2.430   3.351  1.2841  0.4707  0.1474
  527HK4    H2044215   2.034   2.482   3.258  0.0227 -1.0125 -0.3915
  527HK4    C1444216   2.596   2.078   3.180  0.2687 -0.3329  0.0544
  527HK4     C944217   2.707   2.164   3.174 -0.1526  0.1734 -0.4914
  527HK4     C844218   2.818   2.139   3.091  0.1637 -0.3481  0.0846
  527HK4    C1144219   2.824   2.012   3.034  0.0900 -0.0584 -0.5755
  527HK4     H444220   2.904   1.986   2.964  0.7104  2.4414 -0.8579
  527HK4    C1244221   2.722   1.918   3.049  0.0075  0.1153 -0.0462
  527HK4     H544222   2.731   1.832   2.981 -0.1475 -0.1352  0.2503
  527HK4    C1344223   2.608   1.950   3.122  0.2273 -0.5933  0.6152
  527HK4     H644224   2.517   1.888   3.113 -2.2010  3.0614 -1.2216
  527HK4     C744225   2.925   2.238   3.063 -0.1377 -0.2156 -0.6224
  527HK4     O244226   3.005   2.220   2.972 -0.1191  0.1728 -0.6835
  527HK4     C444227   2.921   2.362   3.144  0.2216 -0.5519 -0.0803
  527HK4     C344228   3.004   2.467   3.107  0.0578 -0.2509  0.4084
  527HK4     H344229   3.053   2.474   3.009  1.2313  0.9696  1.0490
  527HK4     C244230   3.019   2.569   3.201 -0.2493 -0.2842  0.4938
  527HK4     H244231   3.046   2.667   3.159 -1.9892 -0.2703 -0.6408
  527HK4     C144232   2.969   2.555   3.330  0.1817 -0.5184  0.6395
  527HK4     H144233   3.000   2.629   3.405  1.5821  1.2094 -1.5489
  527HK4     C644234   2.883   2.450   3.367 -0.3593 -0.2982  0.0100
  527HK4     C544235   2.849   2.360   3.265 -0.1260 -0.0648 -0.2746
  527HK4    C1044236   2.725   2.277   3.268  0.3143 -0.6942  0.4683
  527HK4     O144237   2.629   2.337   3.317  0.0328 -0.1801 -0.6978
  527HK4    C1644238   2.838   2.428   3.505  0.1059  0.0319  0.2137
  527HK4    C1544239   2.836   2.532   3.600 -0.5323 -0.1353  0.3870
  527HK4     H744240   2.838   2.633   3.557  0.7004 -0.8648 -1.3614
  527HK4    C2044241   2.812   2.509   3.735 -0.4472  0.4421  0.5025
  527HK4     H944242   2.817   2.594   3.803 -2.2983 -0.0334  1.2530
  527HK4    C1944243   2.800   2.380   3.784  0.1700  0.2398  0.1329
  527HK4    C1844244   2.796   2.271   3.688 -0.2881  0.2922  0.0896
  527HK4    C1744245   2.825   2.299   3.555  0.1118 -0.0078  0.1135
  527HK4     H844246   2.853   2.216   3.489  0.8222  0.8574 -0.6895
  527HK4     N144247   2.791   2.148   3.757  0.4325  0.0407 -0.3035
  527HK4    C2144248   2.785   2.176   3.895  0.3810  0.1797 -0.3346
  527HK4    C2244249   2.799   2.319   3.916 -0.0391  0.1570  0.0934
  527HK4    C2644250   2.841   2.359   4.042 -0.4769  0.1231  0.2509
  527HK4    H1344251   2.860   2.464   4.067  0.9281 -0.6908  2.7487
  527HK4    C2544252   2.851   2.273   4.150 -0.9479 -0.2600 -0.0122
  527HK4    H1244253   2.868   2.315   4.249 -1.4875 -0.0039 -0.0261
  527HK4    C2444254   2.834   2.136   4.129  0.2411 -0.4498  0.2122
  527HK4    H1144255   2.870   2.068   4.207  1.4534 -0.2671 -0.1781
  527HK4    C2344256   2.809   2.089   4.001 -0.1430  0.4076 -0.0299
  527HK4    H1044257   2.779   1.985   3.999 -1.4983  0.7076  2.3789
  527HK4    C3944258   2.736   2.031   3.704 -0.9803  0.2203  0.7520
  527HK4    C4144259   2.775   1.903   3.749 -0.0551  0.1902 -0.1174
  527HK4    H2144260   2.883   1.885   3.764 -0.2377 -0.2290  0.7849
  527HK4    C4244261   2.698   1.789   3.731  0.1257  0.1396 -0.5695
  527HK4    H2244262   2.729   1.692   3.773  0.3236  0.9321  1.1695
  527HK4    C4344263   2.577   1.801   3.663 -0.0415 -0.5700 -0.4026
  527HK4    H2344264   2.502   1.722   3.671 -0.6373 -0.0269 -0.6068
  527HK4    C4444265   2.538   1.923   3.610 -0.4918 -0.4751  0.1414
  527HK4    H2444266   2.437   1.932   3.568 -1.1590 -1.8211  1.4220
  527HK4    C4544267   2.614   2.037   3.633 -0.2444 -0.4984 -0.5731
  527HK4    H2544268   2.582   2.128   3.580  0.9223  0.8578  1.0242
  528HK4    H2844269   1.597   4.931   9.773  0.1116 -1.6369  0.9052
  528HK4    C4844270   1.679   4.972   9.833  0.0330 -0.0502 -0.0590
  528HK4    C4744271   1.751   5.071   9.767  0.2698 -0.2681 -0.1277
  528HK4    H2744272   1.716   5.101   9.667 -1.8527  0.4896  0.8082
  528HK4    C4644273   1.843   5.154   9.830 -0.5611  0.7217 -0.2006
  528HK4    H2644274   1.895   5.233   9.775  1.0227  1.1713  1.9000
  528HK4    C4044275   1.869   5.124   9.966  0.2318 -0.5186 -0.6132
  528HK4    C5044276   1.799   5.021  10.030 -0.7496  0.4676 -0.0915
  528HK4    H3044277   1.817   4.995  10.136 -0.9586  1.4200  0.1835
  528HK4    C4944278   1.700   4.946   9.968 -0.4426 -0.0291  0.0213
  528HK4    H2944279   1.650   4.859  10.013  0.1664 -1.1790 -1.4649
  528HK4     N244280   1.989   5.166  10.026 -0.1698 -0.2625  0.0129
  528HK4    C3044281   2.105   5.193   9.952 -0.1019 -0.0057  0.2145
  528HK4    C2944282   2.147   5.152   9.826  0.0128  0.4378  0.1052
  528HK4    H1544283   2.069   5.114   9.760 -0.4573  1.5838 -0.0021
  528HK4    C2844284   2.274   5.172   9.773  0.1865 -0.3774  0.2047
  528HK4    C2744285   2.360   5.239   9.862 -0.2031  0.3057  0.0760
  528HK4    H1444286   2.460   5.247   9.816 -1.1189 -1.5456 -2.3573
  528HK4    C3244287   2.331   5.287   9.989  0.4451 -0.7003  0.6133
  528HK4    H1644288   2.413   5.332  10.046  1.4616  0.0331 -1.3871
  528HK4    C3144289   2.198   5.273  10.029  0.1381  0.0500 -0.1300
  528HK4    C3444290   2.135   5.288  10.159 -0.1775 -0.0002 -0.2773
  528HK4    C3344291   2.011   5.214  10.157 -0.1755 -0.0101 -0.0783
  528HK4    C3544292   1.922   5.230  10.262 -0.1507  0.2649 -0.1007
  528HK4    H1744293   1.840   5.160  10.272 -0.0929  0.4215  1.6397
  528HK4    C3644294   1.950   5.324  10.361  0.5115  0.3290 -0.3451
  528HK4    H1844295   1.871   5.367  10.425 -0.1135  0.0555 -0.9300
  528HK4    C3744296   2.070   5.395  10.361  0.2007  0.8525 -0.1788
  528HK4    H1944297   2.105   5.449  10.448 -0.2936  1.4374 -0.3353
  528HK4    C3844298   2.166   5.376  10.262  0.0552 -0.2717 -0.1132
  528HK4    H2044299   2.264   5.424  10.264  0.6397 -1.4506  0.0916
  528HK4    C1444300   2.328   5.092   9.662  0.3705 -0.2135  0.1751
  528HK4     C944301   2.461   5.049   9.658  0.5216  0.2781 -0.0080
  528HK4     C844302   2.522   5.041   9.531  0.0413  0.5926 -0.2585
  528HK4    C1144303   2.450   5.046   9.412 -0.0616  0.0323 -0.2259
  528HK4     H444304   2.498   5.058   9.314 -0.0809  0.2275 -0.2106
  528HK4    C1244305   2.314   5.075   9.420 -0.0866 -0.0987 -0.1726
  528HK4     H544306   2.252   5.091   9.330 -1.0514 -0.9155  0.3392
  528HK4    C1344307   2.254   5.100   9.542  0.5306  0.0639  0.0991
  528HK4     H644308   2.150   5.136   9.537  0.1581 -1.1322 -0.6541
  528HK4     C744309   2.670   5.042   9.528  0.0506  0.0453 -0.1446
  528HK4     O244310   2.731   5.032   9.422  0.2608 -0.8626  0.0673
  528HK4     C444311   2.742   5.055   9.656 -0.3772 -0.7093  0.1805
  528HK4     C344312   2.877   5.089   9.652 -0.5539  0.0105  0.1058
  528HK4     H344313   2.931   5.111   9.559  0.9004  2.4867  1.4793
  528HK4     C244314   2.963   5.072   9.761 -0.9798  0.5288  0.5229
  528HK4     H244315   3.066   5.103   9.738 -1.4849  1.8981  0.0062
  528HK4     C144316   2.909   5.020   9.878  0.4241 -0.1347  0.8835
  528HK4     H144317   2.973   4.987   9.960 -2.1209 -1.9289  2.2286
  528HK4     C644318   2.771   4.991   9.887  0.4199 -0.3589  0.1750
  528HK4     C544319   2.687   5.009   9.777 -0.0431 -0.0957  0.5698
  528HK4    C1044320   2.538   5.009   9.779 -0.0471 -0.0451  0.2471
  528HK4     O144321   2.480   4.939   9.862  0.2751 -0.0538  0.4649
  528HK4    C1644322   2.732   4.991  10.029 -0.0512 -0.2806  0.0471
  528HK4    C1544323   2.778   5.087  10.122 -0.1028 -0.2563  0.0469
  528HK4     H744324   2.851   5.161  10.086  0.8702 -1.0737  0.3022
  528HK4    C2044325   2.760   5.071  10.259  0.6027  0.2960  0.2058
  528HK4     H944326   2.756   5.163  10.317  0.1063  1.9183 -2.3242
  528HK4    C1944327   2.692   4.961  10.310 -0.4292  0.8652  0.0809
  528HK4    C1844328   2.644   4.862  10.215  0.1896  0.2141  0.4447
  528HK4    C1744329   2.668   4.878  10.079 -0.2915 -0.0222  0.3316
  528HK4     H844330   2.627   4.804  10.010 -1.3495 -0.3563  1.2999
  528HK4     N144331   2.576   4.762  10.287 -0.2467  0.0405 -0.2088
  528HK4    C2144332   2.575   4.797  10.423 -0.5228  0.1740 -0.2435
  528HK4    C2244333   2.649   4.920  10.442 -0.0518 -0.1286 -0.0964
  528HK4    C2644334   2.667   4.960  10.574 -0.0553  0.3050 -0.2271
  528HK4    H1344335   2.727   5.048  10.600 -0.6902  0.8224 -0.4845
  528HK4    C2544336   2.616   4.892  10.684 -0.3499  0.1230 -0.4763
  528HK4    H1244337   2.676   4.904  10.774  2.4985  2.4952 -2.5675
  528HK4    C2444338   2.546   4.773  10.665 -0.4780  0.1031  0.1203
  528HK4    H1144339   2.497   4.725  10.751 -0.2620  0.3219  0.3661
  528HK4    C2344340   2.530   4.727  10.534 -0.0968  0.2918  0.0043
  528HK4    H1044341   2.475   4.634  10.523  1.1679 -0.6725  1.6026
  528HK4    C3944342   2.490   4.666  10.233 -0.2692 -0.2877  0.4166
  528HK4    C4144343   2.453   4.549  10.304 -0.1924 -0.3739  0.3146
  528HK4    H2144344   2.530   4.504  10.367  1.3632  1.1299 -0.4604
  528HK4    C4244345   2.340   4.479  10.261 -0.1347 -0.6634  0.6358
  528HK4    H2244346   2.290   4.417  10.336 -1.1164  0.3622  0.8402
  528HK4    C4344347   2.265   4.513  10.150  0.5397 -0.1316  0.3354
  528HK4    H2344348   2.160   4.484  10.143 -0.0518  1.8627  0.7558
  528HK4    C4444349   2.307   4.620  10.072 -0.0322  0.0173  0.2294
  528HK4    H2444350   2.276   4.624   9.966  0.6730  1.2090  0.0682
  528HK4    C4544351   2.410   4.698  10.122 -0.2405  0.1117  0.5129
  528HK4    H2544352   2.435   4.792  10.070 -0.3044  0.4237  1.0488
  529HK4    H2844353   6.768   8.363   8.350  0.5006  2.6403 -0.6015
  529HK4    C4844354   6.681   8.345   8.287  0.8211  0.2499 -0.4164
  529HK4    C4744355   6.647   8.215   8.253 -0.6833  0.5246 -0.0165
  529HK4    H2744356   6.697   8.133   8.307 -0.4191  0.1571 -0.8143
  529HK4    C4644357   6.534   8.183   8.179 -0.6173 -0.5354  0.3410
  529HK4    H2644358   6.545   8.086   8.128  3.6686  0.4829 -0.9092
  529HK4    C4044359   6.449   8.283   8.130 -0.3376 -0.0008  0.9513
  529HK4    C5044360   6.479   8.414   8.173  0.0998  0.1125  0.3028
  529HK4    H3044361   6.408   8.497   8.161  0.2164  0.3540  1.2582
  529HK4    C4944362   6.592   8.444   8.248 -0.0775 -0.1296  0.6631
  529HK4    H2944363   6.597   8.547   8.286 -1.1579 -0.6446  2.2745
  529HK4     N244364   6.318   8.255   8.089  0.0730 -0.3742 -0.1114
  529HK4    C3044365   6.239   8.146   8.130 -0.1698 -0.1024  0.1550
  529HK4    C2944366   6.247   8.076   8.250  0.3703 -0.3441 -0.0179
  529HK4    H1544367   6.319   8.103   8.327 -0.0867 -1.4228  0.7998
  529HK4    C2844368   6.168   7.963   8.268 -0.2545  0.0775 -0.0677
  529HK4    C2744369   6.071   7.933   8.170 -0.0480 -0.5627 -0.0760
  529HK4    H1444370   6.011   7.841   8.172 -1.8191  0.4233 -3.1967
  529HK4    C3244371   6.060   8.005   8.051 -0.0809  0.0298  0.2830
  529HK4    H1644372   5.992   7.978   7.970  1.2069 -0.1248 -0.7643
  529HK4    C3144373   6.140   8.116   8.029  0.0313 -0.1150 -0.0369
  529HK4    C3444374   6.150   8.215   7.923  0.0913  0.1593  0.2247
  529HK4    C3344375   6.264   8.295   7.965  0.6002 -0.2840 -0.3129
  529HK4    C3544376   6.283   8.414   7.897  0.1903 -0.0317  0.0129
  529HK4    H1744377   6.352   8.495   7.921 -0.8384  1.0086 -0.4983
  529HK4    C3644378   6.197   8.450   7.793  0.6486  0.2966 -0.2537
  529HK4    H1844379   6.228   8.537   7.732  0.4282 -0.2747 -1.1823
  529HK4    C3744380   6.090   8.374   7.749  0.3871  0.3862  0.2268
  529HK4    H1944381   6.029   8.402   7.663  0.1255 -0.5031  0.1202
  529HK4    C3844382   6.068   8.256   7.819  0.6040  0.0788 -0.2146
  529HK4    H2044383   5.980   8.196   7.793  1.5285 -1.5091  0.2326
  529HK4    C1444384   6.235   7.866   8.356 -0.7488 -0.4187 -0.2299
  529HK4     C944385   6.248   7.731   8.321 -0.5157 -0.3513 -0.4112
  529HK4     C844386   6.248   7.632   8.421 -0.1674  0.1159  0.0485
  529HK4    C1144387   6.245   7.671   8.555 -1.0628  0.0608  0.0488
  529HK4     H444388   6.252   7.597   8.636  0.9017  0.8733  0.6452
  529HK4    C1244389   6.239   7.805   8.593  0.1444  0.1185  0.0638
  529HK4     H544390   6.217   7.830   8.697 -1.4357 -1.1760  0.0689
  529HK4    C1344391   6.237   7.901   8.492 -0.0133 -0.2429 -0.2817
  529HK4     H644392   6.214   8.004   8.523 -0.5460 -0.9224  1.6885
  529HK4     C744393   6.237   7.493   8.372 -0.7444  0.0386  0.3825
  529HK4     O244394   6.288   7.408   8.444  0.2755  0.7016  0.4583
  529HK4     C444395   6.210   7.453   8.232  0.2840 -0.4828  0.3260
  529HK4     C344396   6.171   7.324   8.198  0.1227 -0.3753  0.1006
  529HK4     H344397   6.177   7.243   8.274 -3.1862  0.2002  1.0339
  529HK4     C244398   6.117   7.297   8.073 -0.0541 -0.2506  0.1494
  529HK4     H244399   6.057   7.206   8.056  1.9510 -1.4340 -0.7706
  529HK4     C144400   6.114   7.401   7.982 -0.4979  0.1894  0.6647
  529HK4     H144401   6.070   7.373   7.885 -1.9759 -0.2278  1.4489
  529HK4     C644402   6.147   7.536   8.009 -0.2882  0.1813  0.4566
  529HK4     C544403   6.202   7.556   8.136  0.6646 -0.5978  0.1716
  529HK4    C1044404   6.249   7.691   8.177 -0.6730  0.0911 -0.5346
  529HK4     O144405   6.336   7.749   8.111  0.2299 -0.4065  0.1987
  529HK4    C1644406   6.080   7.638   7.928  0.0405 -0.1007 -0.1754
  529HK4    C1544407   5.947   7.626   7.883 -0.2479  0.6120  0.4730
  529HK4     H744408   5.880   7.553   7.932  0.0168 -0.6331 -1.0020
  529HK4    C2044409   5.895   7.714   7.789 -0.2812 -0.0864 -0.1657
  529HK4     H944410   5.786   7.724   7.784 -0.5155 -2.3970 -0.2855
  529HK4    C1944411   5.974   7.813   7.732 -0.0858  0.0198  0.2867
  529HK4    C1844412   6.116   7.813   7.759 -0.0054 -0.3750 -0.1121
  529HK4    C1744413   6.162   7.721   7.853  0.2589 -0.4332 -0.3009
  529HK4     H844414   6.269   7.702   7.865  0.4483 -0.2336 -1.5136
  529HK4     N144415   6.189   7.902   7.677 -0.4088  0.4624  0.4268
  529HK4    C2144416   6.091   7.973   7.604 -0.3963  0.2890  0.2407
  529HK4    C2244417   5.960   7.917   7.632 -0.2239 -0.1982  0.0740
  529HK4    C2644418   5.848   7.982   7.582 -0.1022  0.1446  0.2461
  529HK4    H1344419   5.750   7.936   7.586  0.7260 -1.5708  1.4581
  529HK4    C2544420   5.854   8.097   7.504  0.3332 -0.1768 -0.1954
  529HK4    H1244421   5.768   8.156   7.473  0.2831 -1.0485 -1.7662
  529HK4    C2444422   5.980   8.153   7.486  0.0137  0.3750 -0.7419
  529HK4    H1144423   5.998   8.247   7.431  2.4566  0.8352  0.7711
  529HK4    C2344424   6.095   8.098   7.542 -0.4368  0.1572 -0.0296
  529HK4    H1044425   6.187   8.154   7.555 -1.6992  2.7507 -1.8260
  529HK4    C3944426   6.326   7.926   7.677 -0.2340 -0.4687 -0.0969
  529HK4    C4144427   6.394   7.970   7.561  0.4399 -0.3990  0.3165
  529HK4    H2144428   6.355   7.935   7.464 -0.1691 -0.3105  0.5260
  529HK4    C4244429   6.523   8.021   7.569  0.1550  0.4507 -0.4456
  529HK4    H2244430   6.571   8.037   7.472 -0.2922 -0.2345 -0.7814
  529HK4    C4344431   6.587   8.027   7.692 -0.2468 -0.0022 -0.2109
  529HK4    H2344432   6.688   8.068   7.695  0.7144 -2.4096  1.3696
  529HK4    C4444433   6.525   7.980   7.807 -0.3145  0.3058 -0.1229
  529HK4    H2444434   6.577   7.954   7.901  1.2458  1.4856 -0.6373
  529HK4    C4544435   6.396   7.931   7.800 -0.0211 -0.4506 -0.2172
  529HK4    H2544436   6.346   7.929   7.898 -0.2724 -2.2547 -0.3558
  530HK4    H2844437   9.264   3.814   3.353  2.4750  1.0063  1.4716
  530HK4    C4844438   9.246   3.916   3.318 -0.4813  0.0222  0.0131
  530HK4    C4744439   9.116   3.957   3.290 -0.4192 -0.2212 -0.6378
  530HK4    H2744440   9.026   3.901   3.318 -0.5932 -0.2546 -1.2498
  530HK4    C4644441   9.100   4.067   3.206  0.1371 -0.0719 -0.5566
  530HK4    H2644442   9.007   4.052   3.149 -0.7269  0.5048  0.6780
  530HK4    C4044443   9.199   4.149   3.150  0.4149  0.1812  0.3043
  530HK4    C5044444   9.327   4.102   3.187  0.3229 -0.2553  0.0629
  530HK4    H3044445   9.417   4.156   3.156 -0.2382  1.6761  1.7363
  530HK4    C4944446   9.351   3.988   3.263 -0.1281  0.2947  1.0371
  530HK4    H2944447   9.454   3.956   3.287  0.7733  0.7007 -2.0913
  530HK4     N244448   9.186   4.213   3.026  0.1391  0.0586  0.2718
  530HK4    C3044449   9.259   4.328   2.988 -0.0581  0.1502  0.1758
  530HK4    C2944450   9.320   4.428   3.062 -0.1970  0.3635  0.0044
  530HK4    H1544451   9.312   4.426   3.170  0.2946  0.3099  0.0434
  530HK4    C2844452   9.389   4.535   3.005 -0.1300  0.3181  0.0001
  530HK4    C2744453   9.408   4.533   2.865  0.4765 -0.6646  0.0873
  530HK4    H1444454   9.473   4.603   2.810  0.7766 -0.3181  0.8724
  530HK4    C3244455   9.344   4.438   2.787  0.1816 -0.1822 -0.2607
  530HK4    H1644456   9.374   4.431   2.682 -1.8171  0.4985 -0.8987
  530HK4    C3144457   9.262   4.341   2.844  0.1198  0.1243  0.1774
  530HK4    C3444458   9.186   4.228   2.794  0.1594 -0.1105  0.6501
  530HK4    C3344459   9.146   4.148   2.908  0.5887 -0.5827  0.4691
  530HK4    C3544460   9.073   4.035   2.873  0.2296 -0.0760 -0.4502
  530HK4    H1744461   9.078   3.958   2.950  0.5189 -0.3201 -0.7068
  530HK4    C3644462   9.023   4.003   2.747  0.3818 -0.6765 -0.3610
  530HK4    H1844463   8.985   3.903   2.720  0.4735 -0.5565 -0.9228
  530HK4    C3744464   9.053   4.094   2.647 -0.0817  0.3057  0.3884
  530HK4    H1944465   9.041   4.051   2.548 -0.1628  1.3447 -0.0638
  530HK4    C3844466   9.135   4.205   2.667 -0.2344  0.3622  0.7221
  530HK4    H2044467   9.200   4.240   2.587  1.2323  0.2266  1.8467
  530HK4    C1444468   9.415   4.649   3.094 -0.2583 -0.0447  0.5067
  530HK4     C944469   9.432   4.779   3.045  0.3823 -0.4507 -0.3626
  530HK4     C844470   9.528   4.867   3.099  0.5529 -0.5924 -0.4301
  530HK4    C1144471   9.602   4.829   3.211  0.4859  0.4873 -0.0086
  530HK4     H444472   9.703   4.869   3.228  1.5281 -2.1104  0.2312
  530HK4    C1244473   9.569   4.709   3.273  0.1922  0.4516 -0.2287
  530HK4     H544474   9.609   4.687   3.373  0.2938  0.9995 -0.1460
  530HK4    C1344475   9.479   4.619   3.216  0.4917 -0.0675  0.1120
  530HK4     H644476   9.457   4.528   3.273  2.2990 -0.1963  0.6550
  530HK4     C744477   9.579   4.981   3.020 -0.6539  0.4777  0.3096
  530HK4     O244478   9.652   5.065   3.072  0.0841  0.0725 -0.0597
  530HK4     C444479   9.535   4.997   2.879 -0.0882 -0.0812  0.0680
  530HK4     C344480   9.588   5.096   2.798 -0.8536  0.2464 -0.0430
  530HK4     H344481   9.693   5.126   2.815  0.0676 -1.4668 -2.3404
  530HK4     C244482   9.540   5.121   2.670 -0.1452  0.1686 -0.3308
  530HK4     H244483   9.600   5.182   2.601  1.1261 -0.8968 -0.1951
  530HK4     C144484   9.435   5.042   2.626 -0.3777  0.4700 -0.3192
  530HK4     H144485   9.403   5.072   2.525 -1.3161 -5.2569 -1.9167
  530HK4     C644486   9.380   4.935   2.700  0.0260  0.4669 -0.0186
  530HK4     C544487   9.429   4.918   2.829 -0.3449  0.2485  0.0924
  530HK4    C1044488   9.358   4.829   2.926  0.0201 -0.1600 -0.0102
  530HK4     O144489   9.239   4.843   2.955  0.2826  0.0231  0.9925
  530HK4    C1644490   9.345   4.820   2.615  0.5113 -0.3443  0.8783
  530HK4    C1544491   9.391   4.805   2.482 -0.1999  0.1898  0.5693
  530HK4     H744492   9.490   4.843   2.456 -0.4893  0.3232 -0.3337
  530HK4    C2044493   9.318   4.729   2.390 -0.2331  0.4210  0.4057
  530HK4     H944494   9.354   4.717   2.288  1.6643 -2.0487  1.3271
  530HK4    C1944495   9.208   4.657   2.434 -0.4446  0.5510  0.0861
  530HK4    C1844496   9.157   4.666   2.570 -0.1147  0.2706  0.2270
  530HK4    C1744497   9.227   4.756   2.649  0.3421 -0.2687  0.4383
  530HK4     H844498   9.166   4.806   2.724 -0.7655 -0.5959 -0.2413
  530HK4     N144499   9.053   4.573   2.588  0.5137 -0.4404  0.2149
  530HK4    C2144500   9.040   4.500   2.468  0.0748  0.0171 -0.0195
  530HK4    C2244501   9.118   4.567   2.365  0.1643 -0.0136  0.0262
  530HK4    C2644502   9.114   4.515   2.236 -0.0024  0.0153  0.0186
  530HK4    H1344503   9.146   4.581   2.155 -0.1088 -2.2634 -1.9059
  530HK4    C2544504   9.064   4.388   2.213  0.0850 -0.1068  0.4885
  530HK4    H1244505   9.064   4.357   2.108 -2.0195  1.3802  0.0273
  530HK4    C2444506   9.002   4.320   2.317 -0.2467 -0.2504  0.1968
  530HK4    H1144507   8.927   4.242   2.297 -0.8306  0.6907 -1.3948
  530HK4    C2344508   8.990   4.372   2.445 -0.3566  0.1808  0.0101
  530HK4    H1044509   8.931   4.322   2.522 -0.3684 -0.2224 -0.2611
  530HK4    C3944510   8.979   4.557   2.706  0.0189 -0.3235 -0.0794
  530HK4    C4144511   8.846   4.509   2.701 -0.0783 -0.0832  0.0992
  530HK4    H2144512   8.784   4.544   2.618  3.5956  4.0553 -1.1512
  530HK4    C4244513   8.780   4.474   2.818 -0.1341  0.3000  0.1817
  530HK4    H2244514   8.680   4.429   2.816  0.3126 -0.9208  2.9604
  530HK4    C4344515   8.841   4.497   2.941 -0.1094  0.8523  0.0669
  530HK4    H2344516   8.785   4.468   3.030  0.8097 -1.2775 -0.0248
  530HK4    C4444517   8.968   4.553   2.948  0.7902 -1.1546  0.0201
  530HK4    H2444518   9.008   4.592   3.043  0.3224 -0.4338 -0.0750
  530HK4    C4544519   9.038   4.583   2.831  0.2490 -0.5362 -0.1459
  530HK4    H2544520   9.147   4.592   2.839  0.4611 -0.3664 -2.7791
  531HK4    H2844521   6.503   8.475   9.090 -2.0954  1.8821  0.4337
  531HK4    C4844522   6.477   8.452   9.193 -0.6272 -0.4987  0.2977
  531HK4    C4744523   6.568   8.487   9.293 -0.6033  0.0556  0.0774
  531HK4    H2744524   6.670   8.523   9.270 -0.2481 -1.6620 -1.0889
  531HK4    C4644525   6.527   8.464   9.423  0.2077  0.3762  0.3917
  531HK4    H2644526   6.588   8.511   9.502  0.4189 -0.4502  0.7255
  531HK4    C4044527   6.414   8.389   9.461  0.5712 -0.4230 -0.0954
  531HK4    C5044528   6.328   8.354   9.355 -0.3647 -0.0473  0.5349
  531HK4    H3044529   6.248   8.279   9.366 -1.0130  0.1970 -2.2689
  531HK4    C4944530   6.354   8.395   9.225 -0.7441 -0.1798  0.4135
  531HK4    H2944531   6.267   8.414   9.161 -0.0170  1.0143 -0.2357
  531HK4     N244532   6.409   8.317   9.581 -0.0384  0.0689  0.1777
  531HK4    C3044533   6.515   8.275   9.665 -0.2188 -0.2631  0.2405
  531HK4    C2944534   6.653   8.271   9.649 -0.2772 -0.1299 -0.3395
  531HK4    H1544535   6.701   8.293   9.554  1.8850  2.5023  1.2501
  531HK4    C2844536   6.745   8.235   9.747 -0.2307  0.1946 -0.2622
  531HK4    C2744537   6.695   8.199   9.874  0.4150 -0.6258 -0.2286
  531HK4    H1444538   6.762   8.157   9.950 -0.9744  2.0319  2.6205
  531HK4    C3244539   6.558   8.207   9.900  0.4912 -0.0761  0.0013
  531HK4    H1644540   6.519   8.197  10.001 -0.0389 -3.0744 -0.4581
  531HK4    C3144541   6.470   8.239   9.797  0.0558  0.3242  0.4971
  531HK4    C3444542   6.326   8.251   9.787  0.0616  0.4203  0.5385
  531HK4    C3344543   6.291   8.306   9.658  0.0111 -0.4288  0.1868
  531HK4    C3544544   6.165   8.362   9.645  0.0166 -0.5051 -0.1825
  531HK4    H1744545   6.134   8.390   9.544 -0.7356  2.4462  0.8159
  531HK4    C3644546   6.067   8.354   9.744 -0.0177  0.3388 -0.1458
  531HK4    H1844547   5.979   8.420   9.737  0.0107  0.4741  0.7456
  531HK4    C3744548   6.097   8.286   9.861 -0.5039 -0.5994 -0.5583
  531HK4    H1944549   6.014   8.269   9.930 -0.8419  1.5758 -0.4082
  531HK4    C3844550   6.224   8.233   9.880 -0.2769  0.1933  0.1258
  531HK4    H2044551   6.258   8.172   9.963 -1.6188 -0.4522  0.2234
  531HK4    C1444552   6.877   8.187   9.705  0.0768  0.2925  0.5742
  531HK4     C944553   6.947   8.080   9.761 -0.6809 -0.1508  0.6770
  531HK4     C844554   7.079   8.096   9.808 -0.1792 -0.2668 -0.6757
  531HK4    C1144555   7.149   8.207   9.759  0.0909 -0.2404 -0.2311
  531HK4     H444556   7.249   8.231   9.797  1.2788 -3.0755 -1.4212
  531HK4    C1244557   7.095   8.305   9.677  0.4841 -0.0139 -0.2148
  531HK4     H544558   7.156   8.380   9.623 -0.2497 -0.5053 -1.7578
  531HK4    C1344559   6.958   8.292   9.657  0.3489  0.1110  0.6308
  531HK4     H644560   6.908   8.385   9.629  1.9289  1.5980  2.5451
  531HK4     C744561   7.150   7.985   9.875  0.0401  0.1981 -0.1387
  531HK4     O244562   7.234   8.007   9.962 -0.0710 -0.2134  0.0737
  531HK4     C444563   7.086   7.852   9.864  0.1756  0.1119  0.1190
  531HK4     C344564   7.142   7.749   9.939 -0.7179 -0.5617 -0.1282
  531HK4     H344565   7.216   7.764  10.019 -3.4223  3.8490  1.7857
  531HK4     C244566   7.103   7.620   9.906  0.0243 -0.7269 -0.3667
  531HK4     H244567   7.143   7.531   9.959  0.7889 -0.4697 -0.5094
  531HK4     C144568   7.012   7.597   9.804 -0.0061 -0.2200 -0.4526
  531HK4     H144569   6.998   7.492   9.774  1.8240 -0.5898 -0.0604
  531HK4     C644570   6.953   7.697   9.724  0.2223  0.2020 -0.0958
  531HK4     C544571   6.980   7.824   9.776  0.4643  0.2172 -0.2592
  531HK4    C1044572   6.894   7.942   9.743 -0.1049 -0.2351 -0.3966
  531HK4     O144573   6.776   7.931   9.709 -0.1910  0.1756 -0.2210
  531HK4    C1644574   6.861   7.667   9.613  0.2942 -0.0311 -0.0913
  531HK4    C1544575   6.796   7.542   9.603  0.0610  0.0740  0.1203
  531HK4     H744576   6.769   7.490   9.696 -2.8183  0.4557 -0.4243
  531HK4    C2044577   6.757   7.491   9.480  0.4703 -0.2053  0.1053
  531HK4     H944578   6.716   7.391   9.470 -1.6209  0.7547 -1.4370
  531HK4    C1944579   6.775   7.561   9.361  0.3978 -0.4609 -0.0541
  531HK4    C1844580   6.837   7.691   9.372  0.3732 -0.4301 -0.2336
  531HK4    C1744581   6.880   7.739   9.496 -0.2970  0.0009 -0.1699
  531HK4     H844582   6.927   7.837   9.505 -0.1606 -0.2050  1.4580
  531HK4     N144583   6.826   7.767   9.254 -0.4470  0.0033  0.1237
  531HK4    C2144584   6.755   7.682   9.168 -0.0880 -0.4452  0.2730
  531HK4    C2244585   6.714   7.557   9.229  0.3967 -0.7565 -0.0436
  531HK4    C2644586   6.674   7.452   9.147 -0.4537 -0.4280 -0.0489
  531HK4    H1344587   6.662   7.351   9.187 -2.0223  0.5469  2.0408
  531HK4    C2544588   6.653   7.469   9.010 -0.1177  0.8305  0.0503
  531HK4    H1244589   6.610   7.387   8.953  1.3566  0.7635 -1.0022
  531HK4    C2444590   6.688   7.588   8.947  0.6184  0.3185 -0.5287
  531HK4    H1144591   6.706   7.583   8.839  1.1160 -0.1416 -0.4266
  531HK4    C2344592   6.730   7.691   9.031 -0.4558  0.0382  0.3681
  531HK4    H1044593   6.751   7.787   8.986 -1.5292  0.1721  0.1335
  531HK4    C3944594   6.892   7.887   9.222  0.1613 -0.2595  0.3821
  531HK4    C4144595   7.020   7.912   9.273  0.1471 -0.1732  0.3775
  531HK4    H2144596   7.097   7.840   9.242  0.4599  1.4916 -2.9575
  531HK4    C4244597   7.060   8.041   9.307 -0.2365 -0.1432  0.7181
  531HK4    H2244598   7.150   8.059   9.367  1.4374  0.7439 -1.9641
  531HK4    C4344599   6.974   8.148   9.283  0.0499 -0.0377  0.1675
  531HK4    H2344600   7.015   8.246   9.307 -0.5222  0.6779 -1.6838
  531HK4    C4444601   6.847   8.126   9.232  0.1889  0.1990 -0.2938
  531HK4    H2444602   6.769   8.201   9.250 -0.8956  0.0064 -3.8082
  531HK4    C4544603   6.811   7.998   9.191  0.1904 -0.1393  0.7439
  531HK4    H2544604   6.724   7.997   9.123  1.3421  0.3350 -0.7609
  532HK4    H2844605  11.122   9.550   6.502  1.2643  0.3786  3.6580
  532HK4    C4844606  11.218   9.591   6.469 -0.0170  0.1696 -0.5555
  532HK4    C4744607   0.079   9.521   6.520 -0.6056  0.3399  0.9451
  532HK4    H2744608   0.076   9.412   6.524  0.3448  0.1931 -1.6824
  532HK4    C4644609   0.202   9.581   6.544  0.0384 -0.4303 -0.4186
  532HK4    H2644610   0.277   9.536   6.610 -0.6552 -0.9461  0.0148
  532HK4    C4044611   0.223   9.713   6.499 -0.0575 -0.0945  0.5075
  532HK4    C5044612   0.110   9.784   6.451  0.2106  0.0100  0.0342
  532HK4    H3044613   0.120   9.890   6.424  1.2274 -0.1463 -0.2183
  532HK4    C4944614  11.232   9.726   6.440  0.1593  0.1980 -0.3469
  532HK4    H2944615  11.148   9.776   6.390 -1.7635 -0.7972  1.8057
  532HK4     N244616   0.339   9.787   6.526 -0.0812  0.0467  0.2217
  532HK4    C3044617   0.435   9.746   6.620  0.2142 -0.4406 -0.2892
  532HK4    C2944618   0.416   9.711   6.753  0.1526  0.6718 -0.0012
  532HK4    H1544619   0.310   9.710   6.780 -0.0068 -1.1932 -0.6471
  532HK4    C2844620   0.520   9.690   6.843 -0.0644 -0.1572  0.0626
  532HK4    C2744621   0.651   9.694   6.793  0.0682 -0.3661  0.3935
  532HK4    H1444622   0.737   9.643   6.839 -0.1393 -1.7456 -0.7426
  532HK4    C3244623   0.674   9.731   6.661 -0.2408  0.6782  0.6217
  532HK4    H1644624   0.781   9.739   6.642  0.4360  0.0524  3.8809
  532HK4    C3144625   0.571   9.761   6.573  0.2044 -1.1207 -0.5418
  532HK4    C3444626   0.559   9.830   6.446 -0.2197  0.0973  0.1547
  532HK4    C3344627   0.417   9.848   6.426 -0.2079  0.4341  0.3573
  532HK4    C3544628   0.382   9.933   6.321  0.0025  0.1923  0.0875
  532HK4    H1744629   0.281   9.975   6.318  0.4230  1.5188  2.5816
  532HK4    C3644630   0.476   9.994   6.240  0.0309  0.8503  0.6074
  532HK4    H1844631   0.439  10.073   6.173 -0.9064 -0.6098 -0.6397
  532HK4    C3744632   0.612   9.980   6.265  0.1158  0.3902 -0.0749
  532HK4    H1944633   0.686  10.029   6.203 -0.4366  2.0667  0.5646
  532HK4    C3844634   0.654   9.893   6.365 -0.4591 -0.3888 -0.5076
  532HK4    H2044635   0.752   9.847   6.355  1.2336  2.8286  0.7139
  532HK4    C1444636   0.493   9.678   6.987  0.1721  0.2263  0.1399
  532HK4     C944637   0.583   9.709   7.090  0.2602  0.5190 -0.0244
  532HK4     C844638   0.586   9.655   7.220  0.1536 -0.4028 -0.4022
  532HK4    C1144639   0.479   9.571   7.251  0.1586 -0.0364  0.6413
  532HK4     H444640   0.475   9.530   7.352  0.2533  0.6697  0.9358
  532HK4    C1244641   0.385   9.536   7.155  0.0896  0.2757  0.5945
  532HK4     H544642   0.299   9.475   7.189 -1.1698  2.0023  0.5815
  532HK4    C1344643   0.392   9.588   7.026 -0.0420  0.7324  0.7695
  532HK4     H644644   0.293   9.587   6.977  0.3622  2.5260 -0.1117
  532HK4     C744645   0.712   9.665   7.297 -0.1191 -0.0337 -0.0048
  532HK4     O244646   0.721   9.612   7.408  0.3128  0.3789  0.1578
  532HK4     C444647   0.827   9.732   7.233 -0.1132 -0.3354 -0.3083
  532HK4     C344648   0.951   9.721   7.295 -0.2157 -0.0061 -0.0448
  532HK4     H344649   0.970   9.653   7.380 -0.3506 -0.5999 -0.4833
  532HK4     C244650   1.054   9.795   7.240 -0.1479  0.0978  0.2240
  532HK4     H244651   1.157   9.789   7.280  0.5006  0.1856 -1.4125
  532HK4     C144652   1.037   9.884   7.135 -0.0477 -0.2844 -0.1165
  532HK4     H144653   1.118   9.954   7.111  0.0943 -0.0494  1.0300
  532HK4     C644654   0.915   9.898   7.066 -0.0108  0.2390 -0.0849
  532HK4     C544655   0.813   9.822   7.126  0.2176 -0.1897 -0.2312
  532HK4    C1044656   0.677   9.821   7.063  0.2480  0.4624 -0.3157
  532HK4     O144657   0.624   9.929   7.041 -0.6129  0.0729 -0.1440
  532HK4    C1644658   0.928   9.912   6.920 -0.0528  0.1811 -0.0947
  532HK4    C1544659   1.036   9.857   6.850 -0.0220 -0.1921  0.2447
  532HK4     H744660   1.094   9.771   6.887  0.0210 -0.4482 -0.4037
  532HK4    C2044661   1.076   9.894   6.722 -0.0490 -0.2695  0.2126
  532HK4     H944662   1.176   9.869   6.686 -1.4479 -4.1002 -1.3073
  532HK4    C1944663   0.996   9.989   6.660  0.0932 -0.2273  0.0869
  532HK4    C1844664   0.891  10.057   6.733  0.5771  0.4020  0.2016
  532HK4    C1744665   0.858  10.018   6.862 -0.3400 -0.0480 -0.1644
  532HK4     H844666   0.788  10.086   6.911 -0.1413  0.6062 -0.7901
  532HK4     N144667   0.834  10.152   6.647 -0.2259 -0.4074 -0.1743
  532HK4    C2144668   0.898  10.138   6.522  0.2230 -0.4707  0.0632
  532HK4    C2244669   1.003  10.038   6.524  0.1307 -0.5718 -0.0353
  532HK4    C2644670   1.061   9.984   6.410 -0.3007  0.2615 -0.6602
  532HK4    H1344671   1.129   9.900   6.425 -0.4584  0.1285 -0.6799
  532HK4    C2544672   1.021  10.038   6.289 -0.1698 -0.4581 -1.0268
  532HK4    H1244673   1.055   9.987   6.198  1.0239  0.3975 -1.0676
  532HK4    C2444674   0.932  10.144   6.289 -0.0419 -0.3529 -0.4765
  532HK4    H1144675   0.912  10.191   6.191  0.7869 -1.5627 -1.2424
  532HK4    C2344676   0.864  10.195   6.400  0.2903 -0.7550 -0.0867
  532HK4    H1044677   0.786  10.269   6.384  1.2400 -0.5373 -4.4080
  532HK4    C3944678   0.699  10.190   6.653  0.0295  0.4259  0.4276
  532HK4    C4144679   0.642  10.300   6.586  0.1105  0.6990  0.8050
  532HK4    H2144680   0.705  10.389   6.572  1.4997 -0.0390  2.1538
  532HK4    C4244681   0.507  10.309   6.553  0.1284 -0.0391  0.5117
  532HK4    H2244682   0.471  10.384   6.481  4.8656  1.7656 -0.1768
  532HK4    C4344683   0.420  10.205   6.583  0.1726 -0.2844 -0.1829
  532HK4    H2344684   0.323  10.216   6.536  0.5840  0.2426 -0.9148
  532HK4    C4444685   0.470  10.096   6.654 -0.0484  0.0843  0.5452
  532HK4    H2444686   0.400  10.013   6.672  0.1121 -0.0220  0.6761
  532HK4    C4544687   0.605  10.090   6.688  0.0164  0.4107  0.3458
  532HK4    H2544688   0.633  10.006   6.752 -1.4146  2.0615  3.2347
  533HK4    H2844689   7.410   9.357   4.458 -0.9518 -1.5404  2.2609
  533HK4    C4844690   7.510   9.314   4.453 -0.3992 -0.0791  0.0255
  533HK4    C4744691   7.611   9.365   4.532  0.1424 -0.9326 -0.1084
  533HK4    H2744692   7.601   9.470   4.565 -1.6117 -0.3240 -2.4689
  533HK4    C4644693   7.734   9.300   4.531  0.7028  0.0955  0.2707
  533HK4    H2644694   7.802   9.327   4.613  2.4627  0.9355 -1.4276
  533HK4    C4044695   7.761   9.190   4.446 -0.0686 -0.1047  0.2812
  533HK4    C5044696   7.656   9.144   4.364 -0.3177 -0.0197  0.5482
  533HK4    H3044697   7.672   9.056   4.299 -0.0389  0.5312 -0.1292
  533HK4    C4944698   7.532   9.205   4.368 -0.2918  0.0820 -0.1520
  533HK4    H2944699   7.468   9.187   4.280 -0.4657 -0.9627  0.1875
  533HK4     N244700   7.871   9.105   4.461  0.1889  0.1478 -0.1793
  533HK4    C3044701   7.944   9.070   4.577 -0.2468  0.0203  0.0561
  533HK4    C2944702   7.927   9.106   4.710 -0.3349 -1.2982  0.4074
  533HK4    H1544703   7.829   9.151   4.730 -0.1264 -0.7295  0.1678
  533HK4    C2844704   8.008   9.062   4.813  0.4382  0.1420  0.4184
  533HK4    C2744705   8.123   8.989   4.779  0.2310  0.1884 -0.3753
  533HK4    H1444706   8.179   8.937   4.858 -0.7140 -1.0927 -0.5252
  533HK4    C3244707   8.146   8.949   4.647  0.3079 -0.0283 -0.2991
  533HK4    H1644708   8.231   8.884   4.628  1.1519  1.6136 -2.2865
  533HK4    C3144709   8.055   8.982   4.547 -0.2092  0.0249  0.1870
  533HK4    C3444710   8.053   8.966   4.403  0.1513 -0.2331  0.2089
  533HK4    C3344711   7.937   9.038   4.356  0.5864  0.3112 -0.0387
  533HK4    C3544712   7.914   9.024   4.220  0.3110  0.3315  0.0038
  533HK4    H1744713   7.838   9.085   4.172  1.8099  1.7760 -0.5933
  533HK4    C3644714   7.991   8.939   4.141  0.1705  0.3377 -0.1436
  533HK4    H1844715   7.974   8.948   4.033  2.0179  1.3640 -0.3795
  533HK4    C3744716   8.104   8.870   4.186 -0.0634 -0.0289 -0.1179
  533HK4    H1944717   8.157   8.799   4.124 -0.2192 -0.4575  0.2378
  533HK4    C3844718   8.132   8.886   4.321  0.0851  0.0867 -0.1620
  533HK4    H2044719   8.208   8.819   4.361  0.9253  1.0900 -0.0540
  533HK4    C1444720   7.999   9.123   4.947 -0.0147  0.0168  0.4454
  533HK4     C944721   8.103   9.147   5.038  0.0065  0.6844  0.2407
  533HK4     C844722   8.082   9.128   5.176  0.0117  0.0416  0.1542
  533HK4    C1144723   7.958   9.092   5.227 -0.0498 -0.1318 -0.1114
  533HK4     H444724   7.940   9.073   5.334  1.6705 -0.9407  0.0524
  533HK4    C1244725   7.853   9.080   5.137 -0.1646 -0.5998  0.0835
  533HK4     H544726   7.755   9.050   5.177 -1.2777 -0.8172 -2.6962
  533HK4    C1344727   7.871   9.096   5.000 -0.0140 -0.7044  0.0912
  533HK4     H644728   7.795   9.058   4.931  1.4294 -0.8087 -1.4758
  533HK4     C744729   8.193   9.157   5.269 -0.0611  0.0201  0.2484
  533HK4     O244730   8.201   9.080   5.364  0.1556 -0.1409  0.1022
  533HK4     C444731   8.317   9.227   5.225  0.1398 -0.5341 -0.0749
  533HK4     C344732   8.405   9.269   5.325  0.0900  0.0332 -0.2703
  533HK4     H344733   8.390   9.237   5.429  4.5725  0.4821  0.5992
  533HK4     C244734   8.509   9.358   5.301 -0.2956  0.5614  0.0192
  533HK4     H244735   8.536   9.431   5.379  2.5465  0.1313 -0.5448
  533HK4     C144736   8.531   9.387   5.167 -0.1102 -0.4623 -0.1774
  533HK4     H144737   8.628   9.430   5.139  0.4668 -0.9475  1.0180
  533HK4     C644738   8.454   9.331   5.064 -0.0201 -0.1648 -0.4055
  533HK4     C544739   8.337   9.259   5.090  0.5310 -0.9659 -0.1206
  533HK4    C1044740   8.228   9.218   4.996  0.4435 -0.3800 -0.2770
  533HK4     O144741   8.225   9.267   4.884 -0.2974 -0.3030 -0.2238
  533HK4    C1644742   8.511   9.352   4.930  0.6936  0.0320 -0.0705
  533HK4    C1544743   8.599   9.457   4.896  0.0234  0.6184 -0.0054
  533HK4     H744744   8.570   9.559   4.927  0.7992  1.2297 -1.2621
  533HK4    C2044745   8.701   9.444   4.803 -0.1706  0.0460 -0.1386
  533HK4     H944746   8.783   9.515   4.797  0.4474 -0.9072 -6.0137
  533HK4    C1944747   8.725   9.319   4.748 -0.4590  0.1377 -0.4773
  533HK4    C1844748   8.623   9.217   4.760  0.1870 -0.5018 -0.3522
  533HK4    C1744749   8.521   9.238   4.852  0.1463  0.3343 -0.5791
  533HK4     H844750   8.446   9.158   4.852  0.2040  0.2822 -0.0111
  533HK4     N144751   8.665   9.097   4.698  0.5548 -0.7033  0.2902
  533HK4    C2144752   8.796   9.120   4.650  0.1370  0.0659 -0.4871
  533HK4    C2244753   8.836   9.257   4.677 -0.0200 -0.0587  0.3739
  533HK4    C2644754   8.951   9.313   4.624  0.1414 -0.3802  0.3755
  533HK4    H1344755   8.982   9.406   4.673  0.5069 -1.5227  2.3658
  533HK4    C2544756   9.033   9.238   4.540 -0.2578 -0.1418 -0.2219
  533HK4    H1244757   9.112   9.287   4.484  0.9607 -1.2523  0.5007
  533HK4    C2444758   8.996   9.107   4.511  0.6739 -0.4278 -0.1367
  533HK4    H1144759   9.032   9.051   4.424 -0.8053 -1.5262 -0.0496
  533HK4    C2344760   8.881   9.050   4.566 -0.0398  0.3007 -0.8653
  533HK4    H1044761   8.875   8.942   4.558 -0.2351  0.3475 -1.3467
  533HK4    C3944762   8.572   9.015   4.634  0.6301 -0.4297 -0.1742
  533HK4    C4144763   8.614   8.883   4.606 -0.0373 -0.6594 -0.0964
  533HK4    H2144764   8.673   8.834   4.684  1.9984 -0.5137 -1.5057
  533HK4    C4244765   8.563   8.806   4.501 -0.1421 -0.1542 -0.4220
  533HK4    H2244766   8.593   8.702   4.486  1.6967  0.4169 -0.8420
  533HK4    C4344767   8.468   8.863   4.419 -0.6206  0.0265  0.2534
  533HK4    H2344768   8.434   8.814   4.327 -3.2417  1.2841  0.5055
  533HK4    C4444769   8.430   8.996   4.434  0.1381  0.2939 -0.1623
  533HK4    H2444770   8.352   9.041   4.371 -0.8293 -0.1669  0.6803
  533HK4    C4544771   8.480   9.069   4.542 -0.1858 -0.5559  0.5656
  533HK4    H2544772   8.451   9.175   4.549  2.9936  0.3431  0.5760
  534HK4    H2844773   5.909   2.562   9.981  0.1060 -0.2931  0.6129
  534HK4    C4844774   5.917   2.658  10.033 -0.2800  0.2330 -0.2856
  534HK4    C4744775   6.038   2.726  10.039  0.1472 -0.6568  1.5481
  534HK4    H2744776   6.113   2.688   9.968 -1.5872  0.1211 -0.7540
  534HK4    C4644777   6.050   2.848  10.103  0.1482  0.0400  0.2467
  534HK4    H2644778   6.140   2.911  10.104 -0.2481  0.6082  0.9858
  534HK4    C4044779   5.933   2.896  10.166 -0.4577  0.0103 -0.8492
  534HK4    C5044780   5.813   2.822  10.168 -0.6837  0.3798 -0.8116
  534HK4    H3044781   5.728   2.859  10.228  0.5824 -0.4608  1.5602
  534HK4    C4944782   5.803   2.702  10.099 -0.4160  0.1632 -0.4756
  534HK4    H2944783   5.713   2.639  10.099 -0.8207  0.7373  0.4425
  534HK4     N244784   5.938   3.017  10.236 -0.5245 -0.2133 -0.4590
  534HK4    C3044785   6.051   3.057  10.310 -0.2052 -0.1128 -0.9983
  534HK4    C2944786   6.150   2.979  10.369 -0.0068  0.7852 -0.1303
  534HK4    H1544787   6.147   2.871  10.358  2.1065  0.5725  1.0871
  534HK4    C2844788   6.255   3.023  10.449  0.3220  0.1876 -0.2329
  534HK4    C2744789   6.252   3.162  10.470  0.1342  0.1595 -0.0802
  534HK4    H1444790   6.350   3.205  10.494  0.6937 -0.4730 -1.2166
  534HK4    C3244791   6.152   3.250  10.428  0.2455  0.2277 -0.2024
  534HK4    H1644792   6.148   3.353  10.464 -0.0811  0.5058 -1.0169
  534HK4    C3144793   6.053   3.197  10.347  0.0803 -0.4818  0.4547
  534HK4    C3444794   5.934   3.250  10.282  0.6273  0.0078 -0.1650
  534HK4    C3344795   5.865   3.137  10.223  0.3220  0.3147 -0.3941
  534HK4    C3544796   5.738   3.142  10.167 -0.0236 -0.1633  0.3468
  534HK4    H1744797   5.682   3.057  10.127  2.2724 -0.9258 -1.3668
  534HK4    C3644798   5.675   3.266  10.163  0.5161  0.0863 -0.4980
  534HK4    H1844799   5.566   3.271  10.151  0.3492 -1.8616 -0.0612
  534HK4    C3744800   5.739   3.374  10.222  0.1042  0.0113  0.0923
  534HK4    H1944801   5.684   3.468  10.218 -0.4631 -0.2388  1.6748
  534HK4    C3844802   5.865   3.370  10.280  0.4559 -0.0977 -0.6739
  534HK4    H2044803   5.912   3.451  10.336  2.4558  0.6978 -3.3822
  534HK4    C1444804   6.314   2.937  10.553 -0.4836 -0.0175  0.0557
  534HK4     C944805   6.329   2.971  10.688 -0.0932 -0.2397  0.0660
  534HK4     C844806   6.434   2.913  10.761  0.4553  0.2312 -0.3446
  534HK4    C1144807   6.512   2.813  10.703 -0.4590 -0.4463 -0.4099
  534HK4     H444808   6.566   2.748  10.773 -1.4155  0.6993  1.4298
  534HK4    C1244809   6.499   2.780  10.568  0.0302 -0.4829 -0.4492
  534HK4     H544810   6.562   2.703  10.522  0.8540  0.5124 -1.0129
  534HK4    C1344811   6.402   2.845  10.493 -0.0568  0.2453  0.2831
  534HK4     H644812   6.400   2.831  10.384 -0.4806 -0.4035  0.3738
  534HK4     C744813   6.453   2.962  10.899  0.0204 -0.0442 -0.1862
  534HK4     O244814   6.543   2.908  10.962  0.2349 -0.0154 -0.4665
  534HK4     C444815   6.367   3.064  10.963 -0.0139  0.1057 -0.4732
  534HK4     C344816   6.402   3.119  11.086  0.4654  0.3780 -0.7303
  534HK4     H344817   6.485   3.072  11.141 -0.5176 -1.2108 -0.5865
  534HK4     C244818   6.333   3.232  11.127  0.4965  0.1676 -0.0925
  534HK4     H244819   6.357   3.293  11.216  0.3004 -1.5477  1.1448
  534HK4     C144820   6.233   3.289  11.049  0.0848 -0.3486  0.0573
  534HK4     H144821   6.180   3.376  11.091  0.6772 -0.0638  0.2146
  534HK4     C644822   6.194   3.235  10.925  0.0371  0.1344 -0.1402
  534HK4     C544823   6.259   3.117  10.888 -0.7936 -0.4488  0.2477
  534HK4    C1044824   6.224   3.047  10.761 -0.0499  0.1854 -0.3097
  534HK4     O144825   6.111   3.002  10.741 -0.1335  0.4858 -0.5274
  534HK4    C1644826   6.134   3.326  10.826 -0.3265 -0.3062 -0.3298
  534HK4    C1544827   6.180   3.458  10.808 -0.4013 -0.2227  0.0845
  534HK4     H744828   6.282   3.483  10.841 -0.4541 -0.6155  0.5559
  534HK4    C2044829   6.109   3.553  10.735  0.2707 -0.1798 -0.5155
  534HK4     H944830   6.140   3.657  10.730 -0.6219  0.0037 -3.4724
  534HK4    C1944831   5.987   3.512  10.683  0.1514 -0.1829 -0.2373
  534HK4    C1844832   5.934   3.379  10.704 -0.0299 -0.0451  0.1994
  534HK4    C1744833   6.011   3.287  10.774 -0.2717 -0.5888 -0.2458
  534HK4     H844834   5.967   3.195  10.814 -0.0138  0.1671  1.8312
  534HK4     N144835   5.807   3.367  10.643  0.0456  0.5158 -0.0712
  534HK4    C2144836   5.773   3.494  10.591 -0.3978  0.5534  0.3076
  534HK4    C2244837   5.887   3.583  10.605 -0.0834  0.1458  0.3673
  534HK4    C2644838   5.870   3.712  10.555 -0.2797 -0.0106  0.0274
  534HK4    H1344839   5.956   3.779  10.562 -0.5476  0.2081  1.3186
  534HK4    C2544840   5.757   3.763  10.493  0.0333 -0.0615 -0.5890
  534HK4    H1244841   5.760   3.849  10.426  2.2437  0.3747  0.0546
  534HK4    C2444842   5.651   3.674  10.482 -0.3137  0.2863 -0.1044
  534HK4    H1144843   5.562   3.708  10.427 -1.7510  0.5300  2.2948
  534HK4    C2344844   5.660   3.543  10.527 -0.2982  0.3009 -0.0650
  534HK4    H1044845   5.595   3.467  10.483  0.1085  0.8874 -1.7111
  534HK4    C3944846   5.740   3.246  10.628  0.1187  0.5433 -0.6044
  534HK4    C4144847   5.600   3.236  10.638  0.1778  0.2626 -0.0831
  534HK4    H2144848   5.534   3.321  10.661 -1.2274 -1.2956  1.8962
  534HK4    C4244849   5.529   3.121  10.603 -0.0792  0.4524 -0.1860
  534HK4    H2244850   5.423   3.111  10.630  0.5859  0.2728  2.5291
  534HK4    C4344851   5.596   3.012  10.549  0.0575  0.1493  0.5869
  534HK4    H2344852   5.538   2.941  10.490 -0.9706  1.7560 -0.3832
  534HK4    C4444853   5.735   3.018  10.543  0.0569 -0.0566  0.3386
  534HK4    H2444854   5.783   2.921  10.521 -1.8185 -0.6878 -1.1194
  534HK4    C4544855   5.807   3.129  10.585 -0.1160  0.3088 -0.3323
  534HK4    H2544856   5.916   3.119  10.585  0.0867  2.2504 -0.2829
  535HK4    H2844857   3.303  10.898   8.204 -0.9220  0.7347 -0.9638
  535HK4    C4844858   3.238  10.813   8.178  0.0402 -0.3922  0.2518
  535HK4    C4744859   3.273  10.735   8.069  0.1263 -0.7122  0.5007
  535HK4    H2744860   3.367  10.747   8.012 -2.6040 -0.8191 -4.3106
  535HK4    C4644861   3.189  10.638   8.017 -0.4865  0.2608 -0.3303
  535HK4    H2644862   3.208  10.568   7.934  0.6912  0.0222  0.1418
  535HK4    C4044863   3.061  10.619   8.074 -0.3566 -0.1756 -0.1900
  535HK4    C5044864   3.024  10.704   8.180  0.2564  0.1509 -0.2294
  535HK4    H3044865   2.918  10.715   8.208  0.6190  2.5400  0.3521
  535HK4    C4944866   3.117  10.788   8.241 -0.2198  0.4454  0.0842
  535HK4    H2944867   3.075  10.846   8.325 -0.5677  1.8417 -1.0213
  535HK4     N244868   2.963  10.555   7.998 -0.1899 -0.3909 -0.2200
  535HK4    C3044869   2.968  10.548   7.857  0.4478 -0.2948 -0.2034
  535HK4    C2944870   3.038  10.606   7.752  0.2456  0.0656 -0.1380
  535HK4    H1544871   3.090  10.699   7.776 -0.7361  0.1870  1.5716
  535HK4    C2844872   3.033  10.571   7.617 -0.3416 -0.0274 -0.0957
  535HK4    C2744873   2.952  10.459   7.590  0.5119 -0.6072 -0.2686
  535HK4    H1444874   2.953  10.426   7.485 -1.6841  1.0084 -0.8353
  535HK4    C3244875   2.878  10.393   7.687 -0.4011  0.5027 -0.2066
  535HK4    H1644876   2.834  10.299   7.654  0.5285  0.4217 -1.2467
  535HK4    C3144877   2.881  10.439   7.818 -0.1601  0.1456 -0.0858
  535HK4    C3444878   2.815  10.389   7.937 -0.3592  0.4959 -0.0505
  535HK4    C3344879   2.867  10.465   8.049 -0.3651  0.0617  0.2450
  535HK4    C3544880   2.806  10.462   8.174 -0.4444  0.2863  0.2139
  535HK4    H1744881   2.846  10.515   8.260 -0.4525  1.0054 -0.2259
  535HK4    C3644882   2.695  10.379   8.188 -0.0761 -0.3091 -0.3653
  535HK4    H1844883   2.647  10.364   8.285 -0.8273  1.0229 -0.5263
  535HK4    C3744884   2.638  10.314   8.079 -0.7106 -0.1768 -0.1109
  535HK4    H1944885   2.533  10.284   8.075 -1.3583  2.1481 -1.0735
  535HK4    C3844886   2.703  10.309   7.957  0.2165 -0.2108  0.3770
  535HK4    H2044887   2.681  10.235   7.880 -1.0874  1.8230 -1.2879
  535HK4    C1444888   3.048  10.679   7.519 -0.1017  0.2543  0.2511
  535HK4     C944889   2.973  10.698   7.403  0.0200 -0.5460  0.0366
  535HK4     C844890   3.029  10.761   7.290  0.1954 -0.4805  0.1597
  535HK4    C1144891   3.162  10.800   7.296  0.1056 -0.1485 -0.0250
  535HK4     H444892   3.193  10.872   7.219 -0.8099 -0.0257 -0.2877
  535HK4    C1244893   3.242  10.783   7.408  0.1380 -0.2021 -0.0554
  535HK4     H544894   3.352  10.780   7.400  0.2189  2.6527 -0.5674
  535HK4    C1344895   3.180  10.731   7.521  0.0791 -0.1940 -0.0842
  535HK4     H644896   3.229  10.743   7.619  0.3797  2.1093 -0.5044
  535HK4     C744897   2.947  10.793   7.171 -0.0865 -0.0926  0.4563
  535HK4     O244898   3.005  10.825   7.067  0.1192  0.3894  0.7199
  535HK4     C444899   2.803  10.758   7.167 -0.1259  0.1005  0.1999
  535HK4     C344900   2.725  10.787   7.055  0.0926 -0.3371 -0.0700
  535HK4     H344901   2.773  10.842   6.973  2.4968  0.7329  1.9683
  535HK4     C244902   2.596  10.736   7.040  0.0632 -0.3384  0.1945
  535HK4     H244903   2.553  10.740   6.940 -0.3019 -1.0620  0.3201
  535HK4     C144904   2.551  10.657   7.145 -0.0062  0.0295  0.4435
  535HK4     H144905   2.455  10.606   7.127 -0.0811 -0.4466  2.1455
  535HK4     C644906   2.618  10.635   7.267 -0.1000  0.0202  0.4936
  535HK4     C544907   2.745  10.693   7.277  0.0807 -0.3008  0.0719
  535HK4    C1044908   2.825  10.681   7.402 -0.0082 -0.3186  0.1261
  535HK4     O144909   2.764  10.711   7.504 -0.0769 -0.1136  0.0246
  535HK4    C1644910   2.590  10.506   7.332 -0.0118 -0.1835  0.1343
  535HK4    C1544911   2.575  10.391   7.251  0.2676  0.0860 -0.2986
  535HK4     H744912   2.608  10.390   7.146 -2.4097  0.1458 -1.1780
  535HK4    C2044913   2.526  10.275   7.309 -0.2418  0.1077 -0.6795
  535HK4     H944914   2.514  10.185   7.248  0.0018  0.3493 -1.0821
  535HK4    C1944915   2.493  10.263   7.444  0.0771  0.5925 -0.5599
  535HK4    C1844916   2.511  10.380   7.528 -0.2499  0.3961 -0.2215
  535HK4    C1744917   2.552  10.497   7.465  0.5541  0.4220  0.3384
  535HK4     H844918   2.545  10.591   7.520 -1.2881 -0.3038  1.3749
  535HK4     N144919   2.476  10.354   7.662 -0.0664 -0.0664 -0.2600
  535HK4    C2144920   2.437  10.219   7.667 -0.3416  0.0031 -0.4683
  535HK4    C2244921   2.456  10.159   7.537  0.1160  0.5094 -0.6374
  535HK4    C2644922   2.441  10.021   7.522 -0.1030  0.4163  0.3892
  535HK4    H1344923   2.445   9.976   7.422  1.5714  0.1426  0.5640
  535HK4    C2544924   2.422   9.946   7.637 -0.5084 -0.1268 -0.0306
  535HK4    H1244925   2.423   9.838   7.626  1.3479 -0.0775 -0.4740
  535HK4    C2444926   2.405   9.999   7.764 -0.0456  0.1963 -0.1054
  535HK4    H1144927   2.380   9.930   7.846 -0.4700 -2.9699 -2.7801
  535HK4    C2344928   2.407  10.138   7.776 -0.1663  0.2093 -0.2651
  535HK4    H1044929   2.386  10.180   7.874 -0.4982 -1.0502  0.2191
  535HK4    C3944930   2.465  10.453   7.761  0.2511 -0.1923 -0.1000
  535HK4    C4144931   2.376  10.437   7.868  0.0748  0.1134 -0.1986
  535HK4    H2144932   2.278  10.389   7.852 -0.5145  0.6900  1.4964
  535HK4    C4244933   2.393  10.517   7.981 -0.5443 -0.7598  0.5225
  535HK4    H2244934   2.302  10.527   8.041 -2.5321 -1.0172 -2.3459
  535HK4    C4344935   2.486  10.620   7.989 -0.9188 -0.3497 -0.3698
  535HK4    H2344936   2.517  10.660   8.085  2.1757  1.1651 -1.8916
  535HK4    C4444937   2.568  10.644   7.879 -0.4424  0.1577  0.0986
  535HK4    H2444938   2.641  10.725   7.892  0.6392 -0.9734  1.3244
  535HK4    C4544939   2.562  10.556   7.772 -0.0555  0.0689  0.1456
  535HK4    H2544940   2.630  10.584   7.691  0.5105  0.3883  0.7253
  536HK4    H2844941   5.980   4.757   6.543 -1.4224 -1.0904  0.1674
  536HK4    C4844942   6.016   4.750   6.440 -0.9590  0.2385  0.2249
  536HK4    C4744943   6.017   4.872   6.374 -0.3602  0.0889 -0.0484
  536HK4    H2744944   5.961   4.963   6.398 -2.0476 -1.2787  1.3767
  536HK4    C4644945   6.084   4.866   6.253 -0.4011 -0.0191 -0.0656
  536HK4    H2644946   6.119   4.965   6.220  0.1947 -0.4298 -0.7021
  536HK4    C4044947   6.138   4.751   6.192 -0.2352  0.0975 -0.1419
  536HK4    C5044948   6.115   4.630   6.261 -0.3499  0.2888  0.1569
  536HK4    H3044949   6.166   4.539   6.226 -2.3777 -1.4990  1.7064
  536HK4    C4944950   6.055   4.628   6.386 -1.0799  0.3852 -0.1913
  536HK4    H2944951   6.055   4.535   6.446 -0.8833 -0.7475 -1.9085
  536HK4     N244952   6.168   4.755   6.055 -0.0283 -0.6057 -0.1209
  536HK4    C3044953   6.117   4.852   5.966 -0.0021 -0.4709  0.0105
  536HK4    C2944954   6.003   4.931   5.974 -0.0932 -0.6111  0.0813
  536HK4    H1544955   5.928   4.899   6.045  0.0246  0.7985  0.8507
  536HK4    C2844956   5.970   5.030   5.882 -0.0592 -0.9188 -0.2671
  536HK4    C2744957   6.052   5.034   5.768  0.3669  0.7054  0.0909
  536HK4    H1444958   6.047   5.114   5.692  2.4276 -0.5116 -1.3694
  536HK4    C3244959   6.155   4.943   5.748 -0.3981 -0.1667  0.1339
  536HK4    H1644960   6.191   4.923   5.647  2.6451  0.6220  1.0314
  536HK4    C3144961   6.192   4.848   5.842 -0.3444 -0.4777 -0.1975
  536HK4    C3444962   6.295   4.747   5.860 -0.0244 -0.1373 -0.1039
  536HK4    C3344963   6.284   4.699   5.996  0.0635 -0.3592 -0.1733
  536HK4    C3544964   6.377   4.607   6.041  0.1261 -0.2734 -0.1259
  536HK4    H1744965   6.382   4.569   6.143  2.4676 -0.1563 -0.1742
  536HK4    C3644966   6.471   4.555   5.953  0.1326 -0.2867 -0.1107
  536HK4    H1844967   6.525   4.462   5.979  1.8179  0.3048 -1.3591
  536HK4    C3744968   6.489   4.608   5.825 -0.0175 -0.5071 -0.2212
  536HK4    H1944969   6.567   4.565   5.762  1.5681  1.2259  0.5505
  536HK4    C3844970   6.399   4.703   5.779 -0.0570 -0.4290  0.0154
  536HK4    H2044971   6.407   4.728   5.673  3.3109  1.2392  0.5985
  536HK4    C1444972   5.838   5.095   5.890  0.2421 -0.3371 -0.0161
  536HK4     C944973   5.761   5.138   5.781  0.4195  0.2270  0.0818
  536HK4     C844974   5.697   5.264   5.789 -0.2098 -0.0882 -0.0520
  536HK4    C1144975   5.705   5.337   5.907  0.1866 -0.2094 -0.0025
  536HK4     H444976   5.656   5.434   5.920  1.3399  0.1751  1.4575
  536HK4    C1244977   5.763   5.286   6.022  0.3113  0.5489  0.2670
  536HK4     H544978   5.746   5.334   6.120 -2.2379  1.7922 -0.7269
  536HK4    C1344979   5.827   5.163   6.013 -0.6489  0.0902 -0.3282
  536HK4     H644980   5.860   5.121   6.109 -2.9780  1.3385  1.0509
  536HK4     C744981   5.633   5.325   5.670  0.0537 -0.2606 -0.2837
  536HK4     O244982   5.544   5.410   5.676  0.4335  0.1140  0.1477
  536HK4     C444983   5.646   5.251   5.543  0.4713 -0.3205 -0.2045
  536HK4     C344984   5.627   5.311   5.419  0.4251 -0.3236 -0.1979
  536HK4     H344985   5.572   5.406   5.422  0.7721 -0.0926 -1.0393
  536HK4     C244986   5.632   5.237   5.302  0.1641 -0.0506 -0.3857
  536HK4     H244987   5.606   5.280   5.205  2.7756  0.6242 -0.8264
  536HK4     C144988   5.636   5.098   5.308 -0.0793 -0.0429 -0.0811
  536HK4     H144989   5.639   5.044   5.213 -2.6478  2.6229 -1.7705
  536HK4     C644990   5.627   5.033   5.433 -0.0399 -0.1166 -0.1171
  536HK4     C544991   5.660   5.111   5.544 -0.8821 -0.4608  0.3830
  536HK4    C1044992   5.730   5.053   5.663 -0.2214  0.1585  0.2961
  536HK4     O144993   5.780   4.941   5.655 -0.2570  0.1852 -0.3042
  536HK4    C1644994   5.546   4.911   5.449 -0.8008  0.3395 -0.4727
  536HK4    C1544995   5.508   4.840   5.334  0.4066 -0.5320 -0.3401
  536HK4     H744996   5.537   4.877   5.234 -1.2689  0.6421 -0.4261
  536HK4    C2044997   5.444   4.717   5.345  0.5663 -0.5801  0.0309
  536HK4     H944998   5.382   4.686   5.262  0.2411 -0.5661  0.2676
  536HK4    C1944999   5.411   4.655   5.466  0.7995 -0.3526  0.2122
  536HK4    C1845000   5.455   4.726   5.584 -0.3431  0.6846  0.0196
  536HK4    C1745001   5.511   4.853   5.570  0.3492  0.3639 -0.1238
  536HK4     H845002   5.507   4.915   5.660 -1.1799  2.5265 -1.6380
  536HK4     N145003   5.423   4.656   5.702  0.2205  0.5880  0.1162
  536HK4    C2145004   5.335   4.555   5.657  0.2756  0.6965 -0.2383
  536HK4    C2245005   5.329   4.546   5.513 -0.3281  0.3195 -0.1938
  536HK4    C2645006   5.229   4.469   5.453  0.4545 -0.9622  0.1361
  536HK4    H1345007   5.253   4.437   5.352 -1.3951  2.7285 -1.5686
  536HK4    C2545008   5.129   4.411   5.529 -0.8342  0.9255 -0.0954
  536HK4    H1245009   5.047   4.360   5.479  0.0232 -1.4387  0.8404
  536HK4    C2445010   5.133   4.420   5.668  0.2410 -0.6418 -0.0123
  536HK4    H1145011   5.042   4.386   5.720  0.1813  1.3232  1.2102
  536HK4    C2345012   5.230   4.497   5.729  0.2512 -0.0035 -0.8302
  536HK4    H1045013   5.216   4.517   5.836  1.7805  0.4373 -0.6931
  536HK4    C3945014   5.515   4.641   5.807 -0.1865 -0.2801  0.3589
  536HK4    C4145015   5.486   4.591   5.935 -0.2567 -0.2356  0.3603
  536HK4    H2145016   5.383   4.556   5.954 -0.2089  0.0825  1.2551
  536HK4    C4245017   5.584   4.572   6.032  0.1176  0.6151  0.1459
  536HK4    H2245018   5.551   4.540   6.132  1.3318 -0.8528  0.0856
  536HK4    C4345019   5.721   4.588   6.019  0.1940  0.2932  0.5252
  536HK4    H2345020   5.801   4.571   6.092  0.2792 -0.5829  0.2252
  536HK4    C4445021   5.752   4.645   5.896 -0.0575 -0.1065  0.2786
  536HK4    H2445022   5.855   4.655   5.861 -0.1112  2.7719  0.8592
  536HK4    C4545023   5.654   4.663   5.799 -0.1953 -0.2049  0.4008
  536HK4    H2545024   5.693   4.686   5.699  1.0194  3.1833  1.5490
  537HK4    H2845025   0.624   4.340   8.386  0.6647  0.2573  0.6767
  537HK4    C4845026   0.673   4.246   8.412 -0.0084 -0.3278 -0.1320
  537HK4    C4745027   0.630   4.131   8.348  0.4122 -0.3207 -0.4272
  537HK4    H2745028   0.610   4.143   8.240  1.7112  1.4254 -0.4954
  537HK4    C4645029   0.650   4.000   8.391 -0.0532 -0.3416 -0.2756
  537HK4    H2645030   0.619   3.916   8.327  0.7489  0.7497 -2.1112
  537HK4    C4045031   0.719   3.973   8.511 -0.2643  0.1710 -0.0324
  537HK4    C5045032   0.772   4.088   8.573  0.5769 -0.4453  0.4013
  537HK4    H3045033   0.828   4.089   8.667  0.0672  0.8797  0.6952
  537HK4    C4945034   0.748   4.216   8.525  0.0035 -0.7966 -0.2646
  537HK4    H2945035   0.809   4.297   8.567  1.0300 -2.7381  2.1717
  537HK4     N245036   0.757   3.843   8.546 -0.0870  0.0642 -0.6175
  537HK4    C3045037   0.795   3.737   8.460 -0.2798 -0.1531 -0.4341
  537HK4    C2945038   0.813   3.728   8.323  0.6103  0.4129 -0.3586
  537HK4    H1545039   0.824   3.829   8.284 -1.1968  1.1956  1.0684
  537HK4    C2845040   0.843   3.613   8.252  0.6152  0.3137 -0.1934
  537HK4    C2745041   0.863   3.496   8.328 -0.5873 -0.0957 -0.4956
  537HK4    H1445042   0.885   3.405   8.270  0.4039 -0.3217  0.2129
  537HK4    C3245043   0.847   3.494   8.466 -0.2030  0.5641 -0.4405
  537HK4    H1645044   0.838   3.405   8.528  2.0726 -0.3687 -1.4074
  537HK4    C3145045   0.816   3.613   8.532 -0.0778  0.2434  0.2022
  537HK4    C3445046   0.793   3.645   8.671  0.3164  0.3871  0.2384
  537HK4    C3345047   0.763   3.787   8.676 -0.3014  0.2834 -0.5141
  537HK4    C3545048   0.739   3.846   8.800  0.0135 -0.5412 -0.0580
  537HK4    H1745049   0.737   3.955   8.804 -1.7587 -0.4833 -1.8630
  537HK4    C3645050   0.758   3.772   8.916  0.2380 -0.2090  0.1145
  537HK4    H1845051   0.718   3.815   9.009  0.3377  1.9870 -0.8266
  537HK4    C3745052   0.786   3.636   8.909  0.4527 -0.1807  0.4234
  537HK4    H1945053   0.796   3.578   9.000 -0.5328 -0.9044  0.0794
  537HK4    C3845054   0.799   3.570   8.788 -0.0710  0.2121  0.1462
  537HK4    H2045055   0.818   3.463   8.785 -1.4553 -0.0139 -1.7878
  537HK4    C1445056   0.818   3.611   8.107  0.0531  0.3930 -0.0967
  537HK4     C945057   0.774   3.494   8.043  0.1313  0.2803  0.0521
  537HK4     C845058   0.807   3.446   7.915  0.5155 -0.3246  0.3753
  537HK4    C1145059   0.890   3.534   7.846 -0.3897 -0.0154 -0.3385
  537HK4     H445060   0.937   3.494   7.755 -1.7078  2.9016 -2.3696
  537HK4    C1245061   0.923   3.661   7.891  0.2617 -0.4015  0.2872
  537HK4     H545062   0.992   3.723   7.831  0.7964 -1.6251 -0.3697
  537HK4    C1345063   0.887   3.697   8.020  0.8890  0.1359  0.3146
  537HK4     H645064   0.938   3.786   8.063  0.6376 -0.5136  2.0084
  537HK4     C745065   0.777   3.309   7.870  0.4652 -0.1888 -0.0077
  537HK4     O245066   0.750   3.293   7.751  0.2746 -0.1428  0.0294
  537HK4     C445067   0.723   3.216   7.972 -0.0800 -0.0986 -0.2178
  537HK4     C345068   0.703   3.084   7.935 -0.7846 -0.0239 -0.1256
  537HK4     H345069   0.741   3.048   7.838  3.2981  1.7348  0.7205
  537HK4     C245070   0.648   2.991   8.023  0.0060  0.0381  0.4381
  537HK4     H245071   0.622   2.888   7.994 -0.2516  0.7435 -1.9888
  537HK4     C145072   0.618   3.039   8.150 -0.9759  0.6453 -0.0162
  537HK4     H145073   0.590   2.960   8.221 -0.5132  0.1396 -0.3868
  537HK4     C645074   0.621   3.174   8.190 -0.0461  0.7311 -0.3571
  537HK4     C545075   0.671   3.263   8.095 -0.0809  0.6129 -0.4846
  537HK4    C1045076   0.676   3.410   8.118  0.2048  0.4723  0.3702
  537HK4     O145077   0.571   3.459   8.160 -0.3603 -0.5015  0.1136
  537HK4    C1645078   0.650   3.193   8.333 -0.3601 -0.4988 -0.1192
  537HK4    C1545079   0.748   3.123   8.406  0.1996  0.2413 -0.1584
  537HK4     H745080   0.828   3.074   8.349 -0.3971 -1.7218  0.6288
  537HK4    C2045081   0.762   3.127   8.545  0.1049 -0.1334 -0.1365
  537HK4     H945082   0.830   3.053   8.587  0.7813 -0.3859 -1.6106
  537HK4    C1945083   0.671   3.202   8.618 -0.0139 -0.2613 -0.1487
  537HK4    C1845084   0.573   3.282   8.548 -0.2735 -0.4122  0.0380
  537HK4    C1745085   0.561   3.267   8.410  0.0692 -0.0771 -0.0322
  537HK4     H845086   0.479   3.317   8.359 -1.7444 -0.2126  2.6198
  537HK4     N145087   0.494   3.367   8.628 -0.3858 -0.4329 -0.0518
  537HK4    C2145088   0.544   3.343   8.757 -0.2492 -0.1979 -0.0589
  537HK4    C2245089   0.651   3.245   8.755 -0.1513 -0.0870 -0.2266
  537HK4    C2645090   0.707   3.191   8.871  0.3231  0.2816 -0.2787
  537HK4    H1345091   0.799   3.133   8.879 -0.2861 -0.6398  0.0699
  537HK4    C2545092   0.660   3.240   8.992  0.4040  0.0686 -0.1640
  537HK4    H1245093   0.693   3.188   9.082  1.3029  2.1628  0.7588
  537HK4    C2445094   0.563   3.340   8.994  0.4476  0.1064  0.1443
  537HK4    H1145095   0.516   3.361   9.091 -0.2432 -0.2379 -0.1122
  537HK4    C2345096   0.506   3.395   8.880  0.3886 -0.0733  0.0878
  537HK4    H1045097   0.438   3.480   8.891 -0.5689 -0.8627  0.2712
  537HK4    C3945098   0.440   3.493   8.596  0.3530 -0.0390  0.2441
  537HK4    C4145099   0.339   3.557   8.670  0.2980  0.1427  0.0100
  537HK4    H2145100   0.300   3.503   8.758  0.5000  1.6081  1.0131
  537HK4    C4245101   0.293   3.687   8.653 -0.0740 -0.0816 -0.7207
  537HK4    H2245102   0.203   3.720   8.708  0.9050  0.0467  0.8256
  537HK4    C4345103   0.348   3.766   8.552  0.3397  0.1592 -0.3072
  537HK4    H2345104   0.344   3.874   8.561  0.7067  0.2045 -0.7213
  537HK4    C4445105   0.439   3.701   8.470  0.4389  0.0161 -0.0890
  537HK4    H2445106   0.471   3.756   8.380 -0.3459 -0.4172 -0.6395
  537HK4    C4545107   0.484   3.571   8.487  0.4552  0.0813  0.3716
  537HK4    H2545108   0.555   3.522   8.419  1.3906  0.2935  1.1890
  538HK4    H2845109   7.194   5.477   4.864  0.0250  0.0036  0.8675
  538HK4    C4845110   7.204   5.383   4.919 -0.2861 -0.3803  0.2778
  538HK4    C4745111   7.299   5.380   5.020 -0.3962  0.1845  0.4002
  538HK4    H2745112   7.372   5.461   5.014  0.9101 -1.0678 -0.9604
  538HK4    C4645113   7.291   5.283   5.120  0.0323 -0.1570  0.1033
  538HK4    H2645114   7.378   5.267   5.185  0.2942 -0.4514 -0.3162
  538HK4    C4045115   7.192   5.183   5.118 -0.4988  0.3619  0.4597
  538HK4    C5045116   7.103   5.187   5.009  0.2210 -0.2628 -0.1589
  538HK4    H3045117   7.015   5.122   5.016  0.2421 -0.1659  1.1245
  538HK4    C4945118   7.102   5.288   4.913 -0.3030 -0.3319 -0.2315
  538HK4    H2945119   7.035   5.287   4.826  0.2844 -0.5966 -0.6864
  538HK4     N245120   7.204   5.068   5.196  0.4471  0.2148  0.0966
  538HK4    C3045121   7.323   5.018   5.254  0.2218 -0.6889 -0.2096
  538HK4    C2945122   7.453   5.006   5.206  0.4261  0.1175  0.1302
  538HK4    H1545123   7.474   5.051   5.108  0.4871  1.1607  0.6170
  538HK4    C2845124   7.554   4.938   5.273  0.0781  0.0133  0.5466
  538HK4    C2745125   7.523   4.875   5.395  0.1346  0.0759  0.5923
  538HK4    H1445126   7.610   4.829   5.444  1.6744  2.7822  0.5093
  538HK4    C3245127   7.394   4.878   5.448 -0.0858  0.1644  0.0570
  538HK4    H1645128   7.357   4.820   5.532  2.4405 -0.5051  0.7360
  538HK4    C3145129   7.298   4.953   5.381 -0.0688  0.3995  0.2921
  538HK4    C3445130   7.153   4.948   5.390 -0.0986  0.4240 -0.1814
  538HK4    C3345131   7.099   5.023   5.279  0.0787  0.4929 -0.2196
  538HK4    C3545132   6.962   5.016   5.258  0.0022  0.6674  0.2219
  538HK4    H1745133   6.921   5.099   5.199  0.9265  2.2363  1.7500
  538HK4    C3645134   6.883   4.931   5.334  0.3714  0.1909  0.0748
  538HK4    H1845135   6.775   4.953   5.338  0.6496  1.6201  0.3555
  538HK4    C3745136   6.941   4.853   5.434  0.1477  0.2196  0.2266
  538HK4    H1945137   6.880   4.792   5.501  0.6857  0.7098  1.1769
  538HK4    C3845138   7.076   4.859   5.465  0.2749  0.0057 -0.2865
  538HK4    H2045139   7.111   4.827   5.563  0.8779 -1.0269 -0.8250
  538HK4    C1445140   7.680   4.914   5.202 -0.1917 -0.3911  0.2024
  538HK4     C945141   7.769   4.808   5.225  0.3763 -0.0437 -0.3721
  538HK4     C845142   7.908   4.821   5.204  0.3229  0.8317 -0.2178
  538HK4    C1145143   7.958   4.946   5.172  0.3175  0.7796 -0.4301
  538HK4     H445144   8.066   4.959   5.155  0.6760 -2.3520 -0.7544
  538HK4    C1245145   7.875   5.055   5.149 -0.3384  0.2105 -0.7718
  538HK4     H545146   7.913   5.156   5.124  1.0731 -0.4813 -1.4527
  538HK4    C1345147   7.738   5.035   5.160 -0.1643 -0.2614  0.6134
  538HK4     H645148   7.681   5.122   5.123  1.1940  0.1081 -0.6812
  538HK4     C745149   8.003   4.710   5.228 -0.0990  0.6577  0.6987
  538HK4     O245150   8.117   4.740   5.264  0.1073  0.2100  0.4050
  538HK4     C445151   7.944   4.580   5.267 -0.0031  0.2785 -0.3826
  538HK4     C345152   8.034   4.480   5.302 -0.6048 -0.0082  0.3494
  538HK4     H345153   8.129   4.475   5.248  0.1776 -2.3784  1.8445
  538HK4     C245154   7.987   4.359   5.354 -0.1814 -0.0922  0.5338
  538HK4     H245155   8.047   4.268   5.338 -0.0566 -0.3584  2.3286
  538HK4     C145156   7.854   4.356   5.393 -0.2713  0.3852  0.2673
  538HK4     H145157   7.815   4.259   5.426  0.1608 -0.9795 -3.0899
  538HK4     C645158   7.759   4.459   5.372 -0.5456  0.0504 -0.1312
  538HK4     C545159   7.807   4.567   5.297  0.1253 -0.1269  0.0349
  538HK4    C1045160   7.712   4.673   5.254  0.3855 -0.0304 -0.2954
  538HK4     O145161   7.615   4.634   5.189 -0.3351  0.1364  0.6720
  538HK4    C1645162   7.672   4.478   5.489 -0.0638  1.0080  0.0735
  538HK4    C1545163   7.715   4.447   5.620 -0.2398  0.1316 -0.0707
  538HK4     H745164   7.821   4.423   5.640 -0.8356 -3.8514 -1.2892
  538HK4    C2045165   7.633   4.428   5.730  0.3485 -0.7435  0.2168
  538HK4     H945166   7.670   4.440   5.832  1.7371 -1.3310 -0.2040
  538HK4    C1945167   7.498   4.444   5.705  0.3432 -0.2633  0.5443
  538HK4    C1845168   7.452   4.492   5.576 -0.3568 -1.0298  0.5010
  538HK4    C1745169   7.539   4.516   5.471 -0.3926  0.1788  0.7299
  538HK4     H845170   7.513   4.593   5.399  1.2470 -0.6236 -0.7638
  538HK4     N145171   7.311   4.490   5.573 -0.3712  0.0922  0.0717
  538HK4    C2145172   7.269   4.456   5.703 -0.0511  0.7740  0.3538
  538HK4    C2245173   7.382   4.423   5.789 -0.0101  0.9745  0.3771
  538HK4    C2645174   7.368   4.395   5.924  0.0828  0.2215  0.2353
  538HK4    H1345175   7.448   4.361   5.990 -0.1539 -1.6976 -0.4329
  538HK4    C2545176   7.240   4.407   5.977  0.0652  0.3734  0.1605
  538HK4    H1245177   7.227   4.398   6.085  0.8803  2.7529  0.4776
  538HK4    C2445178   7.129   4.435   5.897  0.1638  0.3335  0.0112
  538HK4    H1145179   7.043   4.486   5.942 -0.9761  0.1202 -1.8979
  538HK4    C2345180   7.143   4.456   5.761 -0.2198  0.4417 -0.0102
  538HK4    H1045181   7.053   4.456   5.700 -1.1430  0.2368  1.3449
  538HK4    C3945182   7.236   4.469   5.456 -0.0887 -0.1300 -0.0713
  538HK4    C4145183   7.290   4.416   5.337 -0.0858 -0.0933 -0.0871
  538HK4    H2145184   7.397   4.397   5.322 -0.2559 -1.9761  0.9076
  538HK4    C4245185   7.221   4.411   5.216 -0.2388  0.0064 -0.0038
  538HK4    H2245186   7.275   4.369   5.130  3.1055 -0.4825  2.2574
  538HK4    C4345187   7.094   4.468   5.209 -0.3672 -0.2438  0.2635
  538HK4    H2345188   7.039   4.450   5.118  1.4460 -1.4720 -0.6302
  538HK4    C4445189   7.033   4.518   5.324 -0.5418 -0.4448  0.2565
  538HK4    H2445190   6.930   4.556   5.319 -0.9278 -1.4163  0.6678
  538HK4    C4545191   7.107   4.523   5.441 -0.1580 -0.2732  0.0101
  538HK4    H2545192   7.063   4.579   5.525  3.0624  1.0953  0.8580
  539HK4    H2845193   8.764   1.893   0.948 -1.6244 -0.3206  0.2508
  539HK4    C4845194   8.782   1.868   1.052 -0.0283 -0.2120  0.0085
  539HK4    C4745195   8.895   1.912   1.121  0.1945 -0.7818  0.0089
  539HK4    H2745196   8.980   1.943   1.059 -1.3127 -0.9315 -2.2065
  539HK4    C4645197   8.911   1.882   1.255 -0.3486 -0.2528  0.2003
  539HK4    H2645198   9.006   1.908   1.305  1.3826 -2.1900 -1.9458
  539HK4    C4045199   8.814   1.805   1.323 -0.3438 -0.3220  0.1292
  539HK4    C5045200   8.698   1.768   1.251 -0.4834  0.0786  0.1459
  539HK4    H3045201   8.611   1.733   1.309 -0.4952  1.2566  0.8469
  539HK4    C4945202   8.681   1.798   1.116 -0.0597 -0.1428  0.0417
  539HK4    H2945203   8.590   1.768   1.062 -0.0719  0.6719 -0.3851
  539HK4     N245204   8.814   1.775   1.459 -0.2464 -0.0195  0.1945
  539HK4    C3045205   8.870   1.856   1.560  0.2932  0.3678 -0.4116
  539HK4    C2945206   8.857   1.994   1.569 -0.4869  0.2558  0.1771
  539HK4    H1545207   8.820   2.059   1.490  0.4399  2.5956  1.6092
  539HK4    C2845208   8.925   2.053   1.675 -0.0559  0.1804 -0.0608
  539HK4    C2745209   8.998   1.973   1.765  0.0313  0.3932  0.0549
  539HK4    H1445210   9.047   2.027   1.848 -0.9277  2.1111 -0.4558
  539HK4    C3245211   9.006   1.835   1.765  0.2864  0.4047 -0.8417
  539HK4    H1645212   9.064   1.787   1.844  1.0563 -1.0234 -2.2457
  539HK4    C3145213   8.936   1.775   1.661  0.0864  0.0702 -0.5157
  539HK4    C3445214   8.922   1.635   1.624  0.0972 -0.0127 -0.2084
  539HK4    C3345215   8.837   1.645   1.507 -0.2470 -0.0775  0.0362
  539HK4    C3545216   8.792   1.524   1.455  0.3844 -0.3512  0.1219
  539HK4    H1745217   8.725   1.514   1.369  1.7475 -2.3483 -0.7462
  539HK4    C3645218   8.831   1.405   1.515  0.1827 -0.5740 -0.1868
  539HK4    H1845219   8.801   1.312   1.463 -1.2267  0.0450 -0.4976
  539HK4    C3745220   8.928   1.399   1.614  0.4314 -0.5050 -0.4232
  539HK4    H1945221   8.973   1.301   1.632  0.7889 -0.2725 -0.0470
  539HK4    C3845222   8.971   1.516   1.675 -0.1976 -0.2467 -0.4661
  539HK4    H2045223   9.043   1.514   1.758 -1.9142  1.4936  1.1067
  539HK4    C1445224   8.909   2.199   1.680 -0.1885  0.1963 -0.8718
  539HK4     C945225   9.006   2.275   1.745  0.0421 -0.3556 -0.5713
  539HK4     C845226   8.965   2.388   1.817  0.1450 -0.5692 -0.1714
  539HK4    C1145227   8.835   2.436   1.806  0.2533 -0.1298  0.4596
  539HK4     H445228   8.806   2.537   1.838 -0.8179 -0.3833  0.3020
  539HK4    C1245229   8.741   2.370   1.727  0.7115 -0.2962  0.0512
  539HK4     H545230   8.637   2.401   1.744  0.7482 -0.4802  0.6376
  539HK4    C1345231   8.778   2.250   1.667 -0.6657 -0.7635  0.1317
  539HK4     H645232   8.714   2.205   1.590  1.1797 -0.0364 -1.8728
  539HK4     C745233   9.060   2.464   1.901 -0.3525  0.0522 -0.1646
  539HK4     O245234   9.020   2.528   1.999 -0.2447  0.1894 -0.2117
  539HK4     C445235   9.204   2.434   1.892 -0.4459 -0.4816  0.1417
  539HK4     C345236   9.284   2.528   1.956 -0.3945  0.1320 -0.8105
  539HK4     H345237   9.252   2.610   2.022  0.1770  0.7719 -1.3258
  539HK4     C245238   9.421   2.521   1.935 -0.3076 -0.3617 -0.1027
  539HK4     H245239   9.479   2.607   1.972  1.3333 -0.0163 -3.2738
  539HK4     C145240   9.471   2.408   1.871  0.1481 -0.1466 -0.1327
  539HK4     H145241   9.574   2.404   1.832 -0.2880 -0.6994 -1.2443
  539HK4     C645242   9.392   2.307   1.813 -0.0960 -0.1542  0.2150
  539HK4     C545243   9.253   2.328   1.813 -0.0728 -0.0065 -0.2633
  539HK4    C1045244   9.153   2.257   1.729  0.0861 -0.4720 -0.0532
  539HK4     O145245   9.187   2.205   1.622 -0.5056 -0.4263 -0.2624
  539HK4    C1645246   9.467   2.181   1.814 -0.0682 -0.1392  0.1567
  539HK4    C1545247   9.547   2.136   1.920  0.5762  0.4486 -0.0771
  539HK4     H745248   9.563   2.202   2.006 -3.4741  1.2825  0.1198
  539HK4    C2045249   9.638   2.031   1.913  0.2393  0.1720 -0.3027
  539HK4     H945250   9.667   1.977   2.003  0.5056  0.0449 -0.4622
  539HK4    C1945251   9.658   1.965   1.792 -0.1539 -0.1376 -0.1996
  539HK4    C1845252   9.569   2.000   1.684 -0.4397  0.0135  0.0864
  539HK4    C1745253   9.484   2.110   1.695 -0.4580  0.0069  0.0125
  539HK4     H845254   9.450   2.154   1.602 -0.1582  0.1979 -0.0063
  539HK4     N145255   9.596   1.918   1.573 -0.0828  0.0124  0.1736
  539HK4    C2145256   9.709   1.841   1.606 -0.0943  0.0608  0.3187
  539HK4    C2245257   9.745   1.858   1.745  0.2233 -0.0314  0.2491
  539HK4    C2645258   9.837   1.777   1.811  0.0360 -0.1544  0.3568
  539HK4    H1345259   9.858   1.779   1.918  2.9916 -0.4603 -0.1971
  539HK4    C2545260   9.890   1.668   1.743 -0.6203 -0.6476  0.6270
  539HK4    H1245261   9.972   1.612   1.788  1.0071  0.1626 -1.2657
  539HK4    C2445262   9.856   1.651   1.609  0.3400  0.0054  0.2930
  539HK4    H1145263   9.871   1.551   1.565 -0.3079 -0.4325  1.0475
  539HK4    C2345264   9.772   1.736   1.539  0.1150  0.0204  0.5756
  539HK4    H1045265   9.738   1.705   1.440 -0.5830 -0.0139  0.8240
  539HK4    C3945266   9.497   1.896   1.476  0.0614 -0.2659  0.0868
  539HK4    C4145267   9.527   1.848   1.347 -0.0575 -0.4611  0.1309
  539HK4    H2145268   9.628   1.849   1.302 -0.0884 -1.6158  0.0281
  539HK4    C4245269   9.427   1.807   1.260 -0.3732 -0.0279  0.2932
  539HK4    H2245270   9.462   1.749   1.174 -0.1984 -1.3589  1.2553
  539HK4    C4345271   9.295   1.839   1.290 -0.4181  0.2338 -0.1729
  539HK4    H2345272   9.217   1.829   1.215 -0.3296 -0.9074 -0.1297
  539HK4    C4445273   9.258   1.882   1.417 -0.2063 -0.1028  0.0041
  539HK4    H2445274   9.157   1.920   1.439  0.5965  1.9967  0.0918
  539HK4    C4545275   9.360   1.913   1.505  0.0357  0.6703 -0.5468
  539HK4    H2545276   9.339   1.944   1.609  1.0472 -2.2739  0.5909
  540HK4    H2845277   2.285   0.667   5.627  0.4794  0.4069  0.3373
  540HK4    C4845278   2.268   0.742   5.550  0.6918  0.0603 -0.0557
  540HK4    C4745279   2.199   0.860   5.577  0.6806  0.1115 -0.3082
  540HK4    H2745280   2.148   0.868   5.674  1.6601 -1.8606  0.3914
  540HK4    C4645281   2.189   0.956   5.477 -0.4148  0.5226  0.1902
  540HK4    H2645282   2.107   1.030   5.488 -0.6143  0.2630  0.4739
  540HK4    C4045283   2.250   0.939   5.351  0.0408  0.3758  0.4318
  540HK4    C5045284   2.328   0.823   5.334  0.3006  0.5825  0.2077
  540HK4    H3045285   2.418   0.837   5.273 -0.7378  0.5361 -1.3766
  540HK4    C4945286   2.335   0.723   5.430  0.4558  0.1923 -0.2097
  540HK4    H2945287   2.366   0.620   5.405 -0.8652 -0.2469 -0.0996
  540HK4     N245288   2.277   1.056   5.279 -0.2780  0.0139 -0.2788
  540HK4    C3045289   2.291   1.050   5.139  0.6855  0.2030 -0.1938
  540HK4    C2945290   2.247   0.953   5.050  0.2006 -0.1304  0.4026
  540HK4    H1545291   2.195   0.868   5.093  0.7457 -0.6751  0.0001
  540HK4    C2845292   2.254   0.967   4.911  0.1870  0.0498  0.4204
  540HK4    C2745293   2.320   1.080   4.860 -0.0386 -0.0362 -0.0627
  540HK4    H1445294   2.331   1.103   4.753  0.8946  0.4164  0.1287
  540HK4    C3245295   2.371   1.177   4.946  0.1571 -0.0413 -0.1727
  540HK4    H1645296   2.434   1.257   4.907 -0.4335 -0.1729 -1.4108
  540HK4    C3145297   2.355   1.168   5.084  0.0771  0.5593 -0.1420
  540HK4    C3445298   2.390   1.250   5.199 -0.0354 -0.1265  0.3841
  540HK4    C3345299   2.340   1.178   5.314 -0.3539 -0.0999  0.2609
  540HK4    C3545300   2.363   1.231   5.440 -0.4201  0.3076  0.0995
  540HK4    H1745301   2.352   1.176   5.533  2.0905  1.0643  0.8810
  540HK4    C3645302   2.430   1.352   5.455 -0.3986  0.2649  0.3378
  540HK4    H1845303   2.415   1.400   5.553 -1.0202  0.7322  0.0156
  540HK4    C3745304   2.485   1.412   5.343 -0.6051 -0.5855 -0.2237
  540HK4    H1945305   2.552   1.496   5.364 -1.1481  0.1153 -1.2284
  540HK4    C3845306   2.466   1.365   5.214  0.3266 -0.2458 -0.4922
  540HK4    H2045307   2.505   1.411   5.123  2.9403  0.7007  1.0710
  540HK4    C1445308   2.245   0.849   4.824 -0.0287  0.0634  0.4230
  540HK4     C945309   2.316   0.827   4.705 -0.3300  0.7608  0.1157
  540HK4     C845310   2.260   0.754   4.598  0.5822 -0.8112  0.7001
  540HK4    C1145311   2.147   0.678   4.625  0.0161 -0.0886  0.3666
  540HK4     H445312   2.120   0.596   4.557 -3.0288  0.0517  1.2986
  540HK4    C1245313   2.083   0.685   4.749 -0.6660  0.0188  0.0155
  540HK4     H545314   1.989   0.631   4.766 -0.9052  0.7689  1.0787
  540HK4    C1345315   2.131   0.770   4.849 -0.1509  0.0346 -0.2428
  540HK4     H645316   2.074   0.775   4.942  3.9871 -0.1282  2.4335
  540HK4     C745317   2.320   0.752   4.463  0.2112 -0.1089  0.5226
  540HK4     O245318   2.258   0.712   4.364  0.7088 -0.4487  0.3449
  540HK4     C445319   2.455   0.809   4.450 -0.3462  1.0470 -0.2155
  540HK4     C345320   2.518   0.796   4.327  0.0776 -0.2050  0.1249
  540HK4     H345321   2.477   0.747   4.237 -0.4078 -0.5073  0.5139
  540HK4     C245322   2.638   0.862   4.300 -0.7079  0.8742 -0.7995
  540HK4     H245323   2.688   0.834   4.206  1.8678 -1.7346  1.2326
  540HK4     C145324   2.685   0.953   4.395  0.0200 -0.3598  0.0363
  540HK4     H145325   2.762   1.017   4.349  0.4016 -2.2540 -2.0897
  540HK4     C645326   2.626   0.966   4.522 -0.1974  0.3662 -0.1404
  540HK4     C545327   2.515   0.885   4.552  0.2268 -0.0576  0.2767
  540HK4    C1045328   2.453   0.883   4.688 -0.0538  0.1012  0.1499
  540HK4     O145329   2.531   0.850   4.776 -0.1244 -0.0633  0.1509
  540HK4    C1645330   2.707   1.060   4.600  0.2721  0.0251 -0.2120
  540HK4    C1545331   2.635   1.146   4.687  0.0909  0.0706 -0.4050
  540HK4     H745332   2.528   1.161   4.668  0.1849  0.4335 -0.6632
  540HK4    C2045333   2.691   1.198   4.803 -0.0543 -0.2992 -0.1713
  540HK4     H945334   2.641   1.270   4.867 -0.8671 -1.0680  0.0777
  540HK4    C1945335   2.824   1.175   4.835  0.0388  0.3160 -0.1110
  540HK4    C1845336   2.901   1.095   4.741 -0.0974 -0.1810  0.1993
  540HK4    C1745337   2.838   1.032   4.634  0.1341 -0.2441  0.1002
  540HK4     H845338   2.884   0.947   4.584 -1.6249 -0.5113 -1.0861
  540HK4     N145339   3.038   1.116   4.766 -0.1021  0.3053 -0.1851
  540HK4    C2145340   3.055   1.214   4.865  0.2751 -0.4858  0.5392
  540HK4    C2245341   2.922   1.242   4.917  0.2301 -0.8151  0.6017
  540HK4    C2645342   2.910   1.315   5.035 -0.2264  0.2190 -0.0743
  540HK4    H1345343   2.809   1.336   5.070 -0.4760  0.1354 -0.7455
  540HK4    C2545344   3.020   1.338   5.117 -0.1354  0.6485 -0.3136
  540HK4    H1245345   2.996   1.336   5.224  0.1577  1.5406 -0.2285
  540HK4    C2445346   3.147   1.303   5.071  0.0715  0.2847  0.5034
  540HK4    H1145347   3.227   1.346   5.132 -0.0379  1.3082 -0.0503
  540HK4    C2345348   3.164   1.246   4.945  0.0840  0.4548  0.4272
  540HK4    H1045349   3.265   1.223   4.910 -2.0284 -2.9489 -3.8709
  540HK4    C3945350   3.140   1.060   4.688  0.1293  0.4351  0.0236
  540HK4    C4145351   3.273   1.108   4.690  0.0649  0.6433 -0.5808
  540HK4    H2145352   3.287   1.217   4.685 -0.0659  0.5966 -2.2647
  540HK4    C4245353   3.386   1.028   4.681 -0.5217 -0.1799 -0.7250
  540HK4    H2245354   3.484   1.071   4.708 -0.7494 -0.0688 -0.0560
  540HK4    C4345355   3.373   0.893   4.654 -0.0173 -0.2750 -0.5064
  540HK4    H2345356   3.458   0.826   4.644 -0.5681 -1.3877  1.8439
  540HK4    C4445357   3.245   0.839   4.640 -0.2961  0.2732 -0.0983
  540HK4    H2445358   3.236   0.734   4.609  0.3577  0.4737 -1.0082
  540HK4    C4545359   3.136   0.921   4.666 -0.1384  0.4407  0.0461
  540HK4    H2545360   3.043   0.865   4.687 -0.6198  0.9942 -0.6016
  541HK4    H2845361   8.380   8.228   2.077  0.9843 -1.2993  3.0759
  541HK4    C4845362   8.419   8.324   2.108  0.2940  0.1316 -0.3113
  541HK4    C4745363   8.344   8.439   2.089  0.3746  0.1737 -0.3513
  541HK4    H2745364   8.236   8.431   2.068  0.3791  1.0427 -0.7649
  541HK4    C4645365   8.387   8.571   2.101 -0.1324  0.2521  0.6636
  541HK4    H2645366   8.322   8.655   2.075  0.3715  0.4087 -0.0940
  541HK4    C4045367   8.523   8.592   2.132  0.1123 -0.3137 -0.0291
  541HK4    C5045368   8.600   8.475   2.148 -0.0532 -0.3930  0.1777
  541HK4    H3045369   8.710   8.481   2.149 -0.0405 -0.0422 -1.5550
  541HK4    C4945370   8.553   8.344   2.141  0.2585 -0.5074  0.2134
  541HK4    H2945371   8.625   8.267   2.170  1.9940  0.7159 -0.7802
  541HK4     N245372   8.589   8.714   2.113 -0.1518 -0.2026 -0.2419
  541HK4    C3045373   8.549   8.809   2.017  0.2197 -0.2728 -0.4663
  541HK4    C2945374   8.491   8.787   1.892 -0.4251 -0.2094 -0.1781
  541HK4    H1545375   8.426   8.701   1.872 -0.0260 -0.1176 -1.9429
  541HK4    C2845376   8.483   8.890   1.800  0.2768  0.0980  0.1062
  541HK4    C2745377   8.527   9.018   1.842 -0.0072  0.3690 -0.4160
  541HK4    H1445378   8.506   9.103   1.776 -0.2032 -0.7914 -1.8752
  541HK4    C3245379   8.588   9.040   1.965 -1.0830 -0.0333  0.2042
  541HK4    H1645380   8.624   9.140   1.988  3.3910 -1.0153 -1.8487
  541HK4    C3145381   8.599   8.938   2.059  0.5062 -0.4170 -0.3672
  541HK4    C3445382   8.662   8.925   2.190  0.2389 -0.2975 -0.2259
  541HK4    C3345383   8.665   8.781   2.210 -0.1048 -0.3050 -0.2117
  541HK4    C3545384   8.727   8.741   2.328 -0.4435 -0.4021 -0.0641
  541HK4    H1745385   8.780   8.646   2.325 -2.3086 -1.5087  1.2497
  541HK4    C3645386   8.754   8.826   2.434  0.3479 -0.3170 -0.3292
  541HK4    H1845387   8.824   8.781   2.506  0.8377  0.3667 -0.3735
  541HK4    C3745388   8.745   8.963   2.411 -0.2990 -0.2973 -0.0021
  541HK4    H1945389   8.775   9.035   2.488 -2.4838 -0.9943  1.5406
  541HK4    C3845390   8.705   9.013   2.288  0.1130 -0.3238 -0.1483
  541HK4    H2045391   8.682   9.119   2.275  0.0635  0.2146  3.6639
  541HK4    C1445392   8.437   8.874   1.661 -0.3887 -0.1930  0.3586
  541HK4     C945393   8.474   8.964   1.560 -0.2004 -0.7061 -0.0347
  541HK4     C845394   8.385   8.996   1.456  0.3531  0.4026 -0.1779
  541HK4    C1145395   8.267   8.923   1.446  0.4399  0.1585  0.5591
  541HK4     H445396   8.216   8.930   1.348  3.3780 -1.2430 -1.1313
  541HK4    C1245397   8.234   8.821   1.535  0.0753  0.1277  0.3925
  541HK4     H545398   8.135   8.774   1.538 -0.3012  0.9862  3.0010
  541HK4    C1345399   8.323   8.795   1.639 -0.3925 -0.2803  0.6900
  541HK4     H645400   8.305   8.708   1.704 -0.9863  0.8718  2.1020
  541HK4     C745401   8.411   9.102   1.356  0.3419  0.6184  0.0508
  541HK4     O245402   8.313   9.155   1.304 -0.1517  0.0371  0.3729
  541HK4     C445403   8.545   9.164   1.359  0.2898  0.7239  0.4213
  541HK4     C345404   8.567   9.267   1.268 -0.5062  0.8476  0.3713
  541HK4     H345405   8.496   9.273   1.184 -0.2586 -0.7210  0.0449
  541HK4     C245406   8.686   9.338   1.267 -0.0175  0.0191 -0.2832
  541HK4     H245407   8.700   9.433   1.214 -0.5586 -0.2529 -0.9324
  541HK4     C145408   8.786   9.299   1.356  0.1265 -0.3013 -0.5816
  541HK4     H145409   8.877   9.360   1.351  0.6370 -1.0463 -0.4180
  541HK4     C645410   8.767   9.194   1.447  0.2554  0.0962 -0.0863
  541HK4     C545411   8.644   9.125   1.451  0.4680 -0.2879 -0.1833
  541HK4    C1045412   8.612   9.017   1.548 -0.4486 -0.1094 -0.2855
  541HK4     O145413   8.702   8.944   1.589 -0.4214  0.4105  0.6133
  541HK4    C1645414   8.891   9.158   1.517  0.1198  0.2468  0.2318
  541HK4    C1545415   9.006   9.139   1.439 -0.1871 -0.1187 -0.1330
  541HK4     H745416   8.998   9.114   1.332 -1.3584  2.4611 -0.6745
  541HK4    C2045417   9.130   9.143   1.501 -0.1135 -1.3859 -0.1887
  541HK4     H945418   9.214   9.157   1.432 -1.7564  1.8555 -1.5971
  541HK4    C1945419   9.144   9.173   1.636 -0.0835 -0.7738 -0.3261
  541HK4    C1845420   9.026   9.206   1.713  0.3622 -0.1488  0.0985
  541HK4    C1745421   8.902   9.191   1.652  0.2530  0.1660  0.2413
  541HK4     H845422   8.815   9.167   1.714 -0.2122 -0.4278 -0.6126
  541HK4     N145423   9.050   9.203   1.852  0.0607 -0.1997  0.1496
  541HK4    C2145424   9.184   9.164   1.866  0.1205 -0.1522 -0.2572
  541HK4    C2245425   9.247   9.151   1.736  0.0715  0.0495 -0.3018
  541HK4    C2645426   9.383   9.123   1.733  0.0482 -0.0603 -0.2893
  541HK4    H1345427   9.430   9.085   1.642  1.2710  0.8407 -0.0478
  541HK4    C2545428   9.456   9.113   1.851 -1.0484  0.1337  0.4091
  541HK4    H1245429   9.564   9.098   1.850 -1.1054 -0.3582  0.7338
  541HK4    C2445430   9.398   9.127   1.977 -0.3112  0.1179  0.7511
  541HK4    H1145431   9.464   9.109   2.063  2.0227  3.5490 -0.2193
  541HK4    C2345432   9.261   9.151   1.981 -0.2570  0.5478  0.0760
  541HK4    H1045433   9.222   9.185   2.077  0.3736 -2.2138  1.3545
  541HK4    C3945434   8.972   9.272   1.945  0.3026 -0.0641  0.2453
  541HK4    C4145435   8.979   9.232   2.080  0.3289 -0.0758  0.2392
  541HK4    H2145436   9.013   9.130   2.099 -1.2538 -0.7663 -0.5204
  541HK4    C4245437   8.907   9.303   2.176  0.3272 -0.2250  0.3459
  541HK4    H2245438   8.910   9.263   2.279 -3.0769 -2.2583 -0.2669
  541HK4    C4345439   8.826   9.410   2.139  0.9287 -0.0695 -0.5346
  541HK4    H2345440   8.801   9.478   2.219 -0.6454 -3.8545  2.3391
  541HK4    C4445441   8.825   9.458   2.008 -0.3268 -0.0527 -0.5277
  541HK4    H2445442   8.767   9.548   1.982  0.2502  0.0471 -1.5085
  541HK4    C4545443   8.891   9.382   1.912  0.6604  0.1298 -0.0028
  541HK4    H2545444   8.854   9.397   1.809  1.6312 -0.8895 -0.5087
  542HK4    H2845445  10.111  10.228   4.406 -0.3229 -0.1470  3.0948
  542HK4    C4845446  10.218  10.233   4.427  0.2705 -0.3593  0.2955
  542HK4    C4745447  10.286  10.331   4.356 -0.1260  0.0447  0.4655
  542HK4    H2745448  10.239  10.372   4.266  1.6171  2.2447  0.5278
  542HK4    C4645449  10.420  10.358   4.382 -0.2286  0.5833  0.4370
  542HK4    H2645450  10.464  10.454   4.350 -2.0713  1.0290 -0.8907
  542HK4    C4045451  10.494  10.283   4.475  0.0527 -0.0226 -0.2721
  542HK4    C5045452  10.421  10.177   4.533  0.1788  0.1678  0.2364
  542HK4    H3045453  10.475  10.090   4.574  2.0439  0.8104 -0.8204
  542HK4    C4945454  10.284  10.155   4.521  0.1973 -0.1304  0.5327
  542HK4    H2945455  10.227  10.069   4.559 -1.7500  1.2467  0.7803
  542HK4     N245456  10.630  10.293   4.505 -0.0239  0.0948  0.0273
  542HK4    C3045457  10.718  10.374   4.430  0.1478  0.3820  0.5368
  542HK4    C2945458  10.716  10.381   4.292 -0.0610  0.2010  0.5289
  542HK4    H1545459  10.621  10.346   4.252  0.0382 -0.2713  0.7070
  542HK4    C2845460  10.827  10.424   4.220 -0.2682 -0.2504 -0.0741
  542HK4    C2745461  10.935  10.474   4.296 -0.2623  0.2352 -0.3996
  542HK4    H1445462  11.026  10.511   4.247  0.3510 -0.7986 -0.0732
  542HK4    C3245463  10.939  10.463   4.435 -0.1481  0.7493 -0.3637
  542HK4    H1645464  11.017  10.514   4.492  0.7313  0.3733 -1.2185
  542HK4    C3145465  10.838  10.401   4.507  0.3780  0.4777  0.1415
  542HK4    C3445466  10.834  10.319   4.627  0.0150  0.2713 -0.0112
  542HK4    C3345467  10.699  10.266   4.625  0.1625 -0.1027 -0.1235
  542HK4    C3545468  10.661  10.184   4.731  0.0546 -0.3684 -0.3673
  542HK4    H1745469  10.559  10.146   4.740  0.0230 -0.0105  0.8403
  542HK4    C3645470  10.746  10.164   4.839 -0.2528  0.4500  0.0285
  542HK4    H1845471  10.730  10.076   4.903 -0.8121 -0.6787 -1.6478
  542HK4    C3745472  10.867  10.231   4.846 -0.0085  0.0370 -0.2429
  542HK4    H1945473  10.908  10.256   4.944 -0.2043 -0.3356 -0.0643
  542HK4    C3845474  10.914  10.307   4.740  0.1536  0.0980 -0.1259
  542HK4    H2045475  11.018  10.341   4.739 -0.5518  2.3882  0.8402
  542HK4    C1445476  10.830  10.386   4.078  0.4597  0.2627 -0.1986
  542HK4     C945477  10.944  10.342   4.010  0.4291  0.1395 -0.1693
  542HK4     C845478  10.954  10.365   3.871  0.3436  0.4412 -0.1250
  542HK4    C1145479  10.850  10.434   3.810  0.1216  0.0484 -0.1979
  542HK4     H445480  10.873  10.471   3.709  1.5250  1.0739  0.4866
  542HK4    C1245481  10.735  10.471   3.878 -0.2235 -1.0032 -0.1861
  542HK4     H545482  10.654  10.526   3.829  0.3770 -1.0853 -1.2758
  542HK4    C1345483  10.718  10.443   4.013  0.2445  0.2090  0.1290
  542HK4     H645484  10.621  10.448   4.064  0.1554  0.0657 -0.0276
  542HK4     C745485  11.075  10.313   3.805  0.6277  1.3856 -0.3443
  542HK4     O245486  11.064  10.297   3.683  0.0396 -0.6799 -0.0379
  542HK4     C445487  11.192  10.258   3.877 -0.2843  0.1883  0.2397
  542HK4     C345488   0.059  10.216   3.811 -0.1588  0.6979  0.1333
  542HK4     H345489   0.067  10.241   3.704 -0.6951  0.0067 -0.0737
  542HK4     C245490   0.159  10.139   3.868 -0.6885 -0.0012  0.1217
  542HK4     H245491   0.246  10.103   3.810  0.0985 -0.3491  1.5033
  542HK4     C145492   0.138  10.096   3.998  0.3401 -0.2299  0.2145
  542HK4     H145493   0.207  10.026   4.047  0.8826  0.5533  0.5849
  542HK4     C645494   0.034  10.155   4.073  0.1353 -0.5789  0.2086
  542HK4     C545495  11.179  10.231   4.015  0.1327 -0.6499  0.1176
  542HK4    C1045496  11.049  10.262   4.080  0.1985 -0.0484 -0.0340
  542HK4     O145497  11.008  10.183   4.165 -0.4085  0.1874 -0.1021
  542HK4    C1645498   0.059  10.161   4.217 -1.0571 -0.2395  0.4048
  542HK4    C1545499   0.014  10.264   4.303  0.0560  0.3265  0.3081
  542HK4     H745500  11.192  10.337   4.260  1.1066  0.7862 -0.6612
  542HK4    C2045501   0.024  10.264   4.441 -0.2483  0.0755  0.3329
  542HK4     H945502  11.233  10.349   4.498  0.2268  0.0138  0.7538
  542HK4    C1945503   0.091  10.164   4.510  0.5424  0.2750 -0.1407
  542HK4    C1845504   0.136  10.053   4.429 -0.2556  0.0335 -0.2525
  542HK4    C1745505   0.117  10.058   4.291  0.0022 -0.1571 -0.2968
  542HK4     H845506   0.138   9.964   4.240 -0.0410 -0.5959  0.4796
  542HK4     N145507   0.231   9.975   4.497 -0.4237 -0.0854 -0.1535
  542HK4    C2145508   0.246  10.032   4.625  0.0227 -0.2290 -0.1388
  542HK4    C2245509   0.162  10.150   4.636  0.5150  0.1210 -0.1417
  542HK4    C2645510   0.164  10.224   4.753  0.0257 -0.0246 -0.0399
  542HK4    H1345511   0.113  10.321   4.753  0.4313  0.1973  1.5131
  542HK4    C2545512   0.250  10.186   4.856  0.1623  0.1385 -0.0939
  542HK4    H1245513   0.250  10.230   4.956  3.8346  1.1173 -0.4474
  542HK4    C2445514   0.332  10.075   4.840  0.5280  0.3427  0.3642
  542HK4    H1145515   0.371  10.032   4.933 -2.2270  0.8347  1.8073
  542HK4    C2345516   0.333   9.994   4.727  0.2247  0.7534  0.0645
  542HK4    H1045517   0.354   9.887   4.731  0.2335  0.7212 -0.7524
  542HK4    C3945518   0.248   9.837   4.481  0.2070 -0.0415  0.1150
  542HK4    C4145519   0.154   9.755   4.415  0.2043  0.0010  0.0667
  542HK4    H2145520   0.056   9.797   4.388  0.9110  2.0143  0.5136
  542HK4    C4245521   0.182   9.622   4.385 -0.0213  0.0000 -0.1419
  542HK4    H2245522   0.105   9.547   4.364  0.0804  0.0514 -0.7132
  542HK4    C4345523   0.308   9.571   4.413 -0.2606 -0.3272  0.3450
  542HK4    H2345524   0.324   9.463   4.404  0.7539 -0.1953  0.5027
  542HK4    C4445525   0.412   9.647   4.466 -0.2858 -0.1324  0.1098
  542HK4    H2445526   0.512   9.606   4.485 -0.9559 -1.5093  0.7239
  542HK4    C4545527   0.375   9.778   4.497  0.1638 -0.0653  0.3658
  542HK4    H2545528   0.460   9.845   4.519 -0.4780  0.8785 -0.0267
  543HK4    H2845529  11.144   3.203   4.349  0.9072 -0.8290 -0.1312
  543HK4    C4845530  11.053   3.144   4.359  0.3142  0.1091  0.1017
  543HK4    C4745531  10.987   3.108   4.242  0.1167  0.1716  0.1961
  543HK4    H2745532  11.036   3.125   4.145 -0.5781 -2.0992 -0.5770
  543HK4    C4645533  10.881   3.018   4.239  0.3157 -0.0679  0.3014
  543HK4    H2645534  10.855   2.970   4.143 -0.5641  2.6203 -0.8613
  543HK4    C4045535  10.822   2.972   4.358  0.2258 -0.0715  0.2547
  543HK4    C5045536  10.882   3.019   4.477  0.1119  0.4387  0.1103
  543HK4    H3045537  10.847   3.007   4.580  3.0234  2.7135  1.4585
  543HK4    C4945538  10.994   3.102   4.478  0.2977  0.1842  0.1186
  543HK4    H2945539  11.036   3.136   4.574 -0.4351  1.1389  0.0965
  543HK4     N245540  10.704   2.897   4.351  0.1622  0.0362  0.1419
  543HK4    C3045541  10.628   2.883   4.233 -0.3071 -0.2097  0.4712
  543HK4    C2945542  10.588   2.973   4.136 -0.4553 -0.1574  0.5801
  543HK4    H1545543  10.607   3.079   4.154  0.5909  0.0799 -1.6992
  543HK4    C2845544  10.528   2.930   4.018  0.4613  0.0200  0.0458
  543HK4    C2745545  10.508   2.791   4.003 -0.3001  0.1407 -0.0726
  543HK4    H1445546  10.489   2.755   3.901 -1.7178 -1.0039  0.5812
  543HK4    C3245547  10.541   2.697   4.100  0.5157 -0.2127 -0.6833
  543HK4    H1645548  10.525   2.590   4.090  0.7307 -0.3102  0.0026
  543HK4    C3145549  10.607   2.741   4.214 -0.7979 -0.0799  0.0442
  543HK4    C3445550  10.644   2.672   4.336 -0.5674 -0.0911 -0.0333
  543HK4    C3345551  10.701   2.774   4.421 -0.2524 -0.1393 -0.1822
  543HK4    C3545552  10.735   2.743   4.553  0.1018  0.3875 -0.1503
  543HK4    H1745553  10.789   2.806   4.624 -1.1643 -1.0597  2.1581
  543HK4    C3645554  10.715   2.615   4.601  0.0060  0.3894 -0.1837
  543HK4    H1845555  10.748   2.588   4.703 -0.0002  1.8480  0.2057
  543HK4    C3745556  10.656   2.518   4.521  0.5574  0.1047 -0.2468
  543HK4    H1945557  10.602   2.440   4.576 -0.0097  2.2578  2.3725
  543HK4    C3845558  10.627   2.544   4.388 -0.3997 -0.1368 -0.0889
  543HK4    H2045559  10.590   2.466   4.321  0.0256 -0.0275 -0.4505
  543HK4    C1445560  10.449   3.026   3.940  0.2445 -0.1739  0.0278
  543HK4     C945561  10.339   2.998   3.859 -0.0894  0.0307  0.4097
  543HK4     C845562  10.306   3.087   3.754  0.0911 -0.0788  0.2604
  543HK4    C1145563  10.379   3.203   3.731  0.1358 -0.1614 -0.0191
  543HK4     H445564  10.335   3.278   3.664  0.4226  0.4011  0.4110
  543HK4    C1245565  10.488   3.233   3.812 -0.1171 -0.0262  0.2688
  543HK4     H545566  10.548   3.325   3.807  3.1874 -1.8370  3.5196
  543HK4    C1345567  10.520   3.146   3.916  0.3207 -0.2341 -0.0402
  543HK4     H645568  10.609   3.172   3.975 -1.6160  1.4120  2.2487
  543HK4     C745569  10.204   3.056   3.651  0.0146  0.1372  0.2709
  543HK4     O245570  10.193   3.125   3.550 -0.0767  0.2861  0.3852
  543HK4     C445571  10.130   2.929   3.666 -0.0261  0.1366  0.0547
  543HK4     C345572  10.020   2.900   3.585  0.1764 -0.2666 -0.0774
  543HK4     H345573   9.977   2.981   3.523  0.0033 -0.7886 -0.6483
  543HK4     C245574   9.964   2.773   3.581 -0.2590 -0.0741 -0.1711
  543HK4     H245575   9.867   2.752   3.535 -0.8339  0.3522  0.8270
  543HK4     C145576  10.019   2.676   3.664  0.1024  0.2183 -0.0657
  543HK4     H145577   9.969   2.578   3.665 -2.5165  1.5157 -0.8811
  543HK4     C645578  10.137   2.694   3.740  0.1459  0.5261 -0.2075
  543HK4     C545579  10.180   2.827   3.749  0.1523  0.4862  0.3769
  543HK4    C1045580  10.261   2.871   3.866  0.4014 -0.2667  0.4908
  543HK4     O145581  10.213   2.850   3.977 -0.6015 -0.4874  0.0254
  543HK4    C1645582  10.224   2.577   3.756 -0.1631  0.3315  0.0319
  543HK4    C1545583  10.210   2.472   3.663  1.3232  0.2624 -0.1171
  543HK4     H745584  10.174   2.493   3.562 -1.4413  0.7458  0.9201
  543HK4    C2045585  10.211   2.338   3.704  0.6343  0.3648  0.2478
  543HK4     H945586  10.206   2.256   3.632 -2.2780  0.7355 -0.0266
  543HK4    C1945587  10.233   2.307   3.837 -0.2091 -0.2397  0.2477
  543HK4    C1845588  10.267   2.411   3.932 -0.0393  0.3011 -0.4021
  543HK4    C1745589  10.266   2.542   3.884 -0.9103  0.5712  0.3461
  543HK4     H845590  10.337   2.608   3.932  0.3004 -1.0683  0.8562
  543HK4     N145591  10.275   2.368   4.066 -0.1479  0.0319 -0.4825
  543HK4    C2145592  10.245   2.230   4.060 -0.0643 -0.0047 -0.0622
  543HK4    C2245593  10.210   2.194   3.924  0.6523 -0.6679 -0.0750
  543HK4    C2645594  10.153   2.068   3.908  0.1170 -0.4938  0.4066
  543HK4    H1345595  10.094   2.048   3.818  1.3697  1.5071 -0.8988
  543HK4    C2545596  10.143   1.971   4.007  0.4027 -0.6462  0.2879
  543HK4    H1245597  10.119   1.866   3.991  0.4765 -0.9722  2.2158
  543HK4    C2445598  10.183   2.011   4.134 -0.4639  0.2167  0.2930
  543HK4    H1145599  10.148   1.945   4.215 -1.7197 -0.6886 -0.9619
  543HK4    C2345600  10.231   2.138   4.164  0.6401 -0.1138 -0.0621
  543HK4    H1045601  10.242   2.165   4.268 -2.1776 -1.4795  0.6584
  543HK4    C3945602  10.262   2.453   4.176 -0.2513 -0.1050 -0.3882
  543HK4    C4145603  10.312   2.416   4.303  0.0761  0.5048 -0.3333
  543HK4    H2145604  10.383   2.332   4.307 -0.9241 -0.3364  0.0327
  543HK4    C4245605  10.303   2.493   4.418  0.4133  0.0580 -0.0064
  543HK4    H2245606  10.318   2.462   4.523  0.2181 -0.2689 -0.0741
  543HK4    C4345607  10.249   2.621   4.414 -0.1040 -0.1518  0.0931
  543HK4    H2345608  10.255   2.672   4.510 -0.7791  0.2446 -0.0755
  543HK4    C4445609  10.206   2.664   4.289 -0.0099  0.4066  0.2524
  543HK4    H2445610  10.176   2.769   4.278  0.9884  0.7753  1.0183
  543HK4    C4545611  10.203   2.581   4.178 -0.1693 -0.0790  0.6175
  543HK4    H2545612  10.179   2.626   4.081 -1.6137  0.3047  1.1380
  544HK4    H2845613  10.414   2.610   9.486  0.6630 -0.1300  0.3356
  544HK4    C4845614  10.389   2.563   9.581 -0.2170  0.1421  0.2425
  544HK4    C4745615  10.266   2.502   9.603 -0.4607  0.6572  0.3135
  544HK4    H2745616  10.191   2.498   9.523 -0.2013 -0.1121  0.1062
  544HK4    C4645617  10.241   2.446   9.728 -0.0124  0.1370  0.1691
  544HK4    H2645618  10.171   2.363   9.744  1.2245 -0.6357  1.7797
  544HK4    C4045619  10.336   2.455   9.831 -0.0907  0.7654  0.1864
  544HK4    C5045620  10.461   2.517   9.807  0.2664  0.1293  0.3660
  544HK4    H3045621  10.511   2.561   9.894 -0.8197  0.8096  0.6555
  544HK4    C4945622  10.487   2.566   9.679 -0.1671 -0.0747  0.1968
  544HK4    H2945623  10.590   2.598   9.657 -0.9199  1.8422 -0.6420
  544HK4     N245624  10.310   2.410   9.961  0.1436 -0.2193 -0.1025
  544HK4    C3045625  10.185   2.414  10.027  0.1780  0.2131 -0.0649
  544HK4    C2945626  10.066   2.484  10.010  0.0908  0.1177  0.1591
  544HK4    H1545627  10.045   2.538   9.918  2.8182 -0.2911 -0.7363
  544HK4    C2845628   9.964   2.479  10.105  0.3475 -0.0315  0.4321
  544HK4    C2745629   9.977   2.389  10.213  0.0192 -0.2529  0.2862
  544HK4    H1445630   9.895   2.371  10.285  0.2513  0.0900  0.6387
  544HK4    C3245631  10.095   2.318  10.231  0.3922  0.3970  0.4396
  544HK4    H1645632  10.101   2.247  10.313 -0.2870  3.5804  3.3599
  544HK4    C3145633  10.198   2.323  10.138 -0.2015 -0.0681 -0.2514
  544HK4    C3445634  10.325   2.253  10.125 -0.1484  0.0070 -0.1342
  544HK4    C3345635  10.401   2.321  10.022  0.1762 -0.0841  0.0453
  544HK4    C3545636  10.536   2.291  10.007  0.1507 -0.0216 -0.2995
  544HK4    H1745637  10.594   2.325   9.921  0.3199  0.0599 -0.1512
  544HK4    C3645638  10.593   2.189  10.082 -0.0118 -0.2100 -0.4329
  544HK4    H1845639  10.701   2.174  10.078  0.0304 -0.0056 -0.1153
  544HK4    C3745640  10.520   2.125  10.182 -0.1852  0.5604 -0.0483
  544HK4    H1945641  10.572   2.053  10.245  0.4453  0.7088 -0.3933
  544HK4    C3845642  10.388   2.159  10.206 -0.2930  0.0719  0.0520
  544HK4    H2045643  10.328   2.122  10.290  1.1619 -1.3645  0.4728
  544HK4    C1445644   9.879   2.598  10.118  0.6402  0.2380 -0.1042
  544HK4     C945645   9.853   2.665  10.238  0.6103  1.4951 -0.8067
  544HK4     C845646   9.743   2.753  10.252 -0.4979 -0.0067  0.0561
  544HK4    C1145647   9.666   2.784  10.140  0.3675  0.4000 -0.4321
  544HK4     H445648   9.569   2.834  10.146  0.5867  0.9557 -1.4337
  544HK4    C1245649   9.699   2.728  10.018 -0.3398  0.1903 -0.5286
  544HK4     H545650   9.638   2.758   9.931 -0.8925  0.6107  0.0029
  544HK4    C1345651   9.801   2.634  10.006 -0.1063  0.3234  0.4441
  544HK4     H645652   9.792   2.560   9.925 -1.2757 -1.7270  2.3781
  544HK4     C745653   9.708   2.804  10.386  0.1089  0.0595  0.1932
  544HK4     O245654   9.626   2.895  10.394 -0.3261 -0.3037 -0.1025
  544HK4     C445655   9.793   2.774  10.504  0.3131  0.1153  0.0593
  544HK4     C345656   9.742   2.792  10.632 -0.9328 -0.4852 -0.3383
  544HK4     H345657   9.663   2.866  10.650 -1.2962 -0.1313 -3.0999
  544HK4     C245658   9.800   2.735  10.744 -0.2415 -0.0508 -0.4710
  544HK4     H245659   9.742   2.740  10.837 -1.3649  0.3926 -1.1871
  544HK4     C145660   9.916   2.662  10.720 -0.2113 -0.2429  0.2502
  544HK4     H145661   9.979   2.625  10.802  1.3144 -0.1615 -0.8667
  544HK4     C645662   9.975   2.640  10.594  0.1604 -0.0643  0.3904
  544HK4     C545663   9.913   2.702  10.485  0.0860 -0.3277  0.2802
  544HK4    C1045664   9.955   2.663  10.347 -0.3454 -0.0428  0.0680
  544HK4     O145665  10.072   2.686  10.317 -0.4179  0.1161 -0.0871
  544HK4    C1645666  10.047   2.512  10.582  0.1371  0.0212 -0.7167
  544HK4    C1545667  10.002   2.397  10.649  0.6979  0.1238 -0.1577
  544HK4     H745668   9.896   2.391  10.678  1.1335  2.2752  2.0121
  544HK4    C2045669  10.087   2.290  10.672 -0.0639 -0.4999 -0.1820
  544HK4     H945670  10.047   2.202  10.723 -1.8752  0.3404 -0.1297
  544HK4    C1945671  10.222   2.300  10.637 -0.1365  0.1161 -0.2793
  544HK4    C1845672  10.269   2.413  10.559  0.1557  0.1645 -0.0343
  544HK4    C1745673  10.179   2.517  10.539  0.5352  0.6097  0.5473
  544HK4     H845674  10.217   2.611  10.501 -2.7995  1.3523 -1.1942
  544HK4     N145675  10.399   2.384  10.514  0.0842 -0.3429  0.0816
  544HK4    C2145676  10.435   2.256  10.562 -0.2782 -0.5842 -0.2923
  544HK4    C2245677  10.325   2.199  10.637 -0.0782  0.1741  0.5862
  544HK4    C2645678  10.336   2.070  10.686 -0.6513 -0.2748 -0.4533
  544HK4    H1345679  10.253   2.031  10.745 -1.0309  0.5704 -0.4305
  544HK4    C2545680  10.451   1.996  10.659 -0.2400  0.1024  0.2316
  544HK4    H1245681  10.442   1.888  10.661  1.9382 -0.0791  2.4428
  544HK4    C2445682  10.557   2.052  10.588 -0.1915 -0.2044  0.0609
  544HK4    H1145683  10.652   1.999  10.599 -1.1440 -1.8472  0.6531
  544HK4    C2345684  10.552   2.183  10.541  0.1360 -0.1008  0.3163
  544HK4    H1045685  10.638   2.217  10.484 -1.9837  1.5732 -1.9976
  544HK4    C3945686  10.466   2.457  10.415 -0.2908  0.8767  0.7123
  544HK4    C4145687  10.604   2.441  10.392 -0.5750 -0.4951 -0.1300
  544HK4    H2145688  10.668   2.419  10.479  0.7983 -0.0669 -1.0190
  544HK4    C4245689  10.668   2.502  10.285  0.3195 -0.1316  0.6012
  544HK4    H2245690  10.758   2.443  10.259  0.0170 -0.4175  0.1997
  544HK4    C4345691  10.605   2.598  10.207  0.0157 -0.5219  0.3634
  544HK4    H2345692  10.656   2.654  10.128  0.1643  1.6987  1.9870
  544HK4    C4445693  10.469   2.619  10.225 -0.0441 -0.1472 -0.5312
  544HK4    H2445694  10.409   2.671  10.149  0.8216 -0.1726 -1.2460
  544HK4    C4545695  10.405   2.542  10.321  0.0889  0.1425 -0.2076
  544HK4    H2545696  10.295   2.537  10.310  0.3974 -1.6921 -3.0827
  545HK4    H2845697   3.257   3.799   7.604  0.8829 -0.8782 -0.6096
  545HK4    C4845698   3.345   3.856   7.574  0.2834  0.2474 -0.2286
  545HK4    C4745699   3.429   3.801   7.478  0.4309  0.1903 -0.0657
  545HK4    H2745700   3.404   3.705   7.430  3.0174 -1.0174  0.9126
  545HK4    C4645701   3.528   3.882   7.424  0.2848  0.1649 -0.3717
  545HK4    H2645702   3.589   3.845   7.340  2.4024  2.5136  0.0402
  545HK4    C4045703   3.564   4.010   7.471 -0.1240  0.2853 -0.3868
  545HK4    C5045704   3.485   4.051   7.580 -0.3584  0.3931 -0.5933
  545HK4    H3045705   3.512   4.146   7.628 -1.8359  0.2911  0.4838
  545HK4    C4945706   3.375   3.980   7.629  0.2426  0.0414  0.2620
  545HK4    H2945707   3.312   4.018   7.711  0.0104  0.2280 -0.0018
  545HK4     N245708   3.682   4.076   7.434  0.2953 -0.1962  0.0895
  545HK4    C3045709   3.800   4.021   7.379  0.4558  0.2610 -0.0247
  545HK4    C2945710   3.872   3.906   7.410 -0.3099 -0.0335  0.6760
  545HK4    H1545711   3.827   3.840   7.484 -0.8013  0.2540  0.6379
  545HK4    C2845712   3.992   3.872   7.348  0.0814  0.7043  1.0147
  545HK4    C2745713   4.034   3.956   7.243 -0.0484 -0.3831  0.0850
  545HK4    H1445714   4.112   3.919   7.175  0.9793  0.2436  0.9117
  545HK4    C3245715   3.961   4.068   7.206 -0.2672 -0.5108  0.1261
  545HK4    H1645716   4.002   4.145   7.140  1.8757  0.2385  2.2873
  545HK4    C3145717   3.850   4.111   7.277  0.0539  0.5252  0.0118
  545HK4    C3445718   3.773   4.234   7.281 -0.0947  0.4401 -0.2409
  545HK4    C3345719   3.669   4.204   7.377  0.4219 -0.1637  0.1332
  545HK4    C3545720   3.601   4.313   7.431  0.1304 -0.1521 -0.2592
  545HK4    H1745721   3.514   4.304   7.497 -0.4201  0.7725 -0.8423
  545HK4    C3645722   3.629   4.443   7.392  0.3618  0.1267  0.8227
  545HK4    H1845723   3.559   4.522   7.421 -0.6474 -1.3662  2.5177
  545HK4    C3745724   3.727   4.468   7.296 -0.0300 -0.2850  0.3132
  545HK4    H1945725   3.716   4.559   7.238 -1.6990 -0.5411  0.1978
  545HK4    C3845726   3.800   4.364   7.238  0.6843  0.3696  0.0226
  545HK4    H2045727   3.878   4.382   7.165  1.3412  0.9362  0.8547
  545HK4    C1445728   4.079   3.771   7.409  0.0561 -0.0425 -0.1746
  545HK4     C945729   4.216   3.763   7.380  0.1077  0.0647  0.0407
  545HK4     C845730   4.281   3.637   7.383 -0.2421 -0.1053  0.5603
  545HK4    C1145731   4.207   3.521   7.405 -0.8358  0.1702  0.0366
  545HK4     H445732   4.254   3.423   7.389  0.6628  0.7686  0.6076
  545HK4    C1245733   4.073   3.523   7.439 -0.7295 -0.1553  0.4782
  545HK4     H545734   4.020   3.428   7.455 -1.1604 -0.0820 -0.4482
  545HK4    C1345735   4.015   3.650   7.440 -0.3389  0.0387 -0.6583
  545HK4     H645736   3.920   3.647   7.495  0.0425  0.2491  0.0235
  545HK4     C745737   4.427   3.630   7.361 -0.3193  0.0609  0.0084
  545HK4     O245738   4.491   3.537   7.409  0.2390  0.1560 -0.5469
  545HK4     C445739   4.510   3.742   7.311  0.1727 -0.1859  0.2786
  545HK4     C345740   4.643   3.730   7.271  0.1678  0.0395  0.1949
  545HK4     H345741   4.703   3.646   7.309  3.7599  2.3165 -0.2040
  545HK4     C245742   4.709   3.836   7.208  0.0021  0.1070  0.1340
  545HK4     H245743   4.811   3.829   7.168  0.1162  1.9522  0.0931
  545HK4     C145744   4.631   3.950   7.193 -0.1665 -0.0691 -0.3213
  545HK4     H145745   4.686   4.043   7.173  0.7166 -0.4469  0.2860
  545HK4     C645746   4.500   3.973   7.238  0.2060  0.4512  0.5235
  545HK4     C545747   4.441   3.864   7.304  0.3916 -0.0848 -0.1773
  545HK4    C1045748   4.301   3.882   7.353  0.4543 -0.1830  0.0398
  545HK4     O145749   4.282   3.981   7.423  0.2406 -0.5589  0.5141
  545HK4    C1645750   4.430   4.083   7.171  0.3957  0.1187 -0.2328
  545HK4    C1545751   4.448   4.101   7.032 -0.3069  0.3184 -0.3021
  545HK4     H745752   4.482   4.015   6.972 -0.7256  0.4204 -0.6816
  545HK4    C2045753   4.404   4.210   6.958  0.5467  0.5947 -0.4064
  545HK4     H945754   4.397   4.202   6.849  0.3089  3.0205 -0.5888
  545HK4    C1945755   4.340   4.311   7.028 -0.1191 -0.0315 -0.1054
  545HK4    C1845756   4.313   4.293   7.169  0.3493  0.2698  0.0260
  545HK4    C1745757   4.360   4.183   7.239 -0.1016 -0.1567 -0.3340
  545HK4     H845758   4.386   4.184   7.345  0.0534 -0.4032 -0.3700
  545HK4     N145759   4.248   4.406   7.223 -0.5011 -0.2541  0.1265
  545HK4    C2145760   4.240   4.498   7.117  0.0441 -0.1630  0.1596
  545HK4    C2245761   4.291   4.443   6.993  0.6386  0.3275  0.1870
  545HK4    C2645762   4.257   4.501   6.871  0.1644 -0.6535 -0.1465
  545HK4    H1345763   4.286   4.453   6.778  0.8311 -0.0573 -0.2482
  545HK4    C2545764   4.177   4.614   6.871  1.2676  0.1412  0.3394
  545HK4    H1245765   4.147   4.640   6.770  0.7119  0.2737  0.5347
  545HK4    C2445766   4.119   4.664   6.988  0.9455  0.2669  0.1250
  545HK4    H1145767   4.039   4.740   6.991 -2.7520 -3.5132  2.7398
  545HK4    C2345768   4.154   4.607   7.109  0.1013 -0.1161  0.1885
  545HK4    H1045769   4.088   4.642   7.189 -1.4419 -2.7982  0.1545
  545HK4    C3945770   4.176   4.418   7.342  0.1902 -0.1045  0.5382
  545HK4    C4145771   4.134   4.536   7.407  0.0134  0.2538 -0.2230
  545HK4    H2145772   4.208   4.618   7.405 -1.0831  1.3789  2.7919
  545HK4    C4245773   4.032   4.541   7.501  0.0558  0.0958 -0.1677
  545HK4    H2245774   4.025   4.627   7.570  0.1133 -1.0168  1.2481
  545HK4    C4345775   3.969   4.424   7.540 -0.1895  0.1183 -0.5038
  545HK4    H2345776   3.872   4.427   7.591  0.1480  0.0287  0.1501
  545HK4    C4445777   4.018   4.304   7.490  0.3309  0.1936 -0.1705
  545HK4    H2445778   3.962   4.215   7.521 -0.0976  0.6308  0.3145
  545HK4    C4545779   4.116   4.299   7.391  0.0657 -0.4372 -0.4088
  545HK4    H2545780   4.151   4.201   7.358 -0.6850 -0.4530 -1.1590
  546HK4    H2845781   9.296   7.511   2.283  0.1399  0.3983  3.1069
  546HK4    C4845782   9.284   7.619   2.289 -0.0099  0.5859  0.0368
  546HK4    C4745783   9.153   7.665   2.291 -0.1067  0.2911  0.7054
  546HK4    H2745784   9.076   7.621   2.227  0.3880  2.6957 -1.6112
  546HK4    C4645785   9.130   7.783   2.361 -0.4400  0.5589  0.1406
  546HK4    H2645786   9.024   7.795   2.390 -0.5606  0.7785 -0.3808
  546HK4    C4045787   9.230   7.861   2.421 -0.1473  0.0063  0.3679
  546HK4    C5045788   9.361   7.809   2.408 -0.0282  0.5059 -0.4428
  546HK4    H3045789   9.450   7.844   2.462 -0.3700  1.6056 -0.5808
  546HK4    C4945790   9.391   7.692   2.340  0.1901  0.2321  0.1200
  546HK4    H2945791   9.494   7.654   2.343  0.2130  0.3621  1.3699
  546HK4     N245792   9.214   7.998   2.443  0.1492  0.0908  0.0720
  546HK4    C3045793   9.124   8.086   2.378 -0.2664 -0.5900 -0.2803
  546HK4    C2945794   9.073   8.079   2.249 -0.3681 -0.3868 -0.2505
  546HK4    H1545795   9.100   7.992   2.190  0.7322 -0.0262 -0.3035
  546HK4    C2845796   9.004   8.186   2.194  0.6510  0.2029 -0.4014
  546HK4    C2745797   8.995   8.307   2.265 -0.8990 -0.4887  0.6164
  546HK4    H1445798   8.967   8.399   2.210  0.4763 -0.4030  0.0363
  546HK4    C3245799   9.043   8.315   2.395  0.0485  0.0144  0.2433
  546HK4    H1645800   9.049   8.414   2.443  0.7081  1.4244 -2.6588
  546HK4    C3145801   9.102   8.206   2.457  0.2196 -0.3353 -0.5368
  546HK4    C3445802   9.188   8.189   2.573  0.6211  0.1209 -0.7663
  546HK4    C3345803   9.254   8.061   2.563 -0.1109 -0.3562  0.3903
  546HK4    C3545804   9.357   8.037   2.654  0.5008 -1.0615 -0.4829
  546HK4    H1745805   9.406   7.939   2.647  2.1575 -0.4181  1.8112
  546HK4    C3645806   9.397   8.138   2.740 -0.8232 -0.5756 -0.4226
  546HK4    H1845807   9.496   8.138   2.787 -0.8410  0.1593 -0.3833
  546HK4    C3745808   9.338   8.263   2.750  0.1616 -0.1070 -0.5168
  546HK4    H1945809   9.370   8.344   2.816  0.3653 -2.1838  1.9814
  546HK4    C3845810   9.229   8.283   2.667 -0.4919 -0.4115  0.2633
  546HK4    H2045811   9.193   8.386   2.657  1.2949  0.0806 -1.2707
  546HK4    C1445812   8.952   8.174   2.057  0.1560 -0.2066 -0.1787
  546HK4     C945813   8.923   8.288   1.981 -0.1355 -0.3245 -0.2433
  546HK4     C845814   8.801   8.306   1.912 -0.0862 -0.3516 -0.3372
  546HK4    C1145815   8.717   8.195   1.911 -0.7684  0.1630 -0.0315
  546HK4     H445816   8.634   8.198   1.838 -1.5226 -0.3788  0.7919
  546HK4    C1245817   8.753   8.071   1.963  0.1728  0.3018 -0.3325
  546HK4     H545818   8.687   7.983   1.954 -0.6105  0.8064  0.3303
  546HK4    C1345819   8.864   8.064   2.046 -0.1160 -0.0106  0.0356
  546HK4     H645820   8.886   7.972   2.101 -0.0224 -0.2476 -0.3956
  546HK4     C745821   8.760   8.439   1.862 -0.0704 -0.2259 -0.0184
  546HK4     O245822   8.654   8.456   1.802 -0.0532 -0.3244 -0.0739
  546HK4     C445823   8.850   8.555   1.875 -0.1320 -0.2291  0.4274
  546HK4     C345824   8.822   8.683   1.829 -0.0161 -0.4739 -0.3349
  546HK4     H345825   8.722   8.707   1.792 -1.1107 -1.4885  1.8621
  546HK4     C245826   8.904   8.793   1.855 -0.7196 -0.1405  0.5078
  546HK4     H245827   8.883   8.887   1.802 -3.5734 -0.0113  1.8284
  546HK4     C145828   9.014   8.775   1.937 -0.1818  0.0853 -0.1528
  546HK4     H145829   9.094   8.850   1.947  0.9951 -1.0731 -0.5532
  546HK4     C645830   9.045   8.649   1.993 -0.2307  0.2184  0.1719
  546HK4     C545831   8.970   8.540   1.947 -0.1240  0.0188  0.4687
  546HK4    C1045832   9.019   8.402   1.974 -0.3081 -0.1707 -0.1449
  546HK4     O145833   9.136   8.380   1.940 -0.1792 -0.4083  0.4511
  546HK4    C1645834   9.081   8.671   2.134  0.1451 -0.4787  0.1871
  546HK4    C1545835   9.038   8.782   2.209 -0.0675 -0.4882  0.0811
  546HK4     H745836   8.943   8.822   2.171  1.8463  0.5018 -3.9134
  546HK4    C2045837   9.091   8.815   2.333 -0.1833 -0.1564  0.0411
  546HK4     H945838   9.074   8.912   2.380  0.8810  0.8743 -1.6452
  546HK4    C1945839   9.174   8.723   2.395 -0.6273 -0.5243  0.0973
  546HK4    C1845840   9.237   8.620   2.314  0.0121  0.0899 -0.1983
  546HK4    C1745841   9.183   8.593   2.188  0.4747 -0.3842 -0.2949
  546HK4     H845842   9.247   8.539   2.119  1.3390 -1.3249  1.2341
  546HK4     N145843   9.325   8.538   2.387 -0.4177 -0.0678  0.1395
  546HK4    C2145844   9.320   8.590   2.518  0.1012  0.1248  0.0813
  546HK4    C2245845   9.229   8.703   2.527 -0.7864 -0.5904  0.1525
  546HK4    C2645846   9.223   8.782   2.641  0.3904 -0.2176 -0.0378
  546HK4    H1345847   9.120   8.815   2.659 -0.1719 -1.1263 -1.5355
  546HK4    C2545848   9.305   8.750   2.749  0.0995  0.0555  0.2661
  546HK4    H1245849   9.293   8.793   2.848  0.6702  0.5393  0.1315
  546HK4    C2445850   9.402   8.651   2.731 -0.1619 -0.2207  0.3366
  546HK4    H1145851   9.470   8.628   2.814 -0.4732 -1.1633  0.3334
  546HK4    C2345852   9.406   8.564   2.624  0.2273  0.2134  0.0004
  546HK4    H1045853   9.466   8.473   2.624  0.1142  0.1317  0.9163
  546HK4    C3945854   9.436   8.468   2.338  0.0343  0.1439  0.8549
  546HK4    C4145855   9.490   8.486   2.209 -0.4187 -1.1314  0.4779
  546HK4    H2145856   9.465   8.585   2.167 -0.0992 -1.7535 -1.2049
  546HK4    C4245857   9.583   8.405   2.146  0.3418 -0.0805  0.2296
  546HK4    H2245858   9.626   8.423   2.046 -1.3079 -0.7519 -0.6193
  546HK4    C4345859   9.623   8.289   2.211 -0.6872 -0.6075 -0.0676
  546HK4    H2345860   9.673   8.212   2.151 -1.6135 -0.6945 -0.7433
  546HK4    C4445861   9.576   8.263   2.339  0.5111 -0.6570  0.3669
  546HK4    H2445862   9.623   8.186   2.402  1.2995 -1.1952 -0.8700
  546HK4    C4545863   9.491   8.354   2.400  0.1734 -0.4737 -0.3860
  546HK4    H2545864   9.450   8.324   2.497 -0.4480  0.1643 -0.4455
  547HK4    H2845865   6.825   1.429   6.601  1.1896 -0.6303  1.0752
  547HK4    C4845866   6.910   1.483   6.559  0.1006  0.2845  0.0262
  547HK4    C4745867   6.922   1.469   6.421  0.3452 -0.1132  0.0913
  547HK4    H2745868   6.881   1.380   6.370 -0.3826  0.8729 -1.0582
  547HK4    C4645869   7.010   1.549   6.349  0.5068  0.0333  0.4451
  547HK4    H2645870   7.014   1.545   6.239 -1.1707 -0.1688  0.3641
  547HK4    C4045871   7.082   1.653   6.409 -0.2157  0.6185  0.3058
  547HK4    C5045872   7.068   1.668   6.549  0.3217  0.5760  0.3647
  547HK4    H3045873   7.140   1.730   6.606 -0.5042  1.4470  0.4778
  547HK4    C4945874   6.981   1.586   6.620  0.3711  0.1518 -0.0630
  547HK4    H2945875   6.969   1.600   6.728 -0.8694 -3.0303  0.2645
  547HK4     N245876   7.178   1.729   6.341 -0.0345  0.2135  0.1110
  547HK4    C3045877   7.237   1.690   6.219 -0.2845  0.2925 -0.0355
  547HK4    C2945878   7.267   1.558   6.188 -0.2116  0.4183 -0.5060
  547HK4    H1545879   7.263   1.475   6.258  0.6753 -0.7579 -1.8179
  547HK4    C2845880   7.314   1.529   6.060  0.0761  0.1610 -0.3417
  547HK4    C2745881   7.347   1.641   5.982  0.7561  0.1689 -0.0494
  547HK4    H1445882   7.362   1.624   5.874  0.5496 -1.6178  0.1911
  547HK4    C3245883   7.326   1.775   6.014 -0.3174 -0.0172  0.0511
  547HK4    H1645884   7.367   1.854   5.952  0.6741 -1.7700 -1.5880
  547HK4    C3145885   7.275   1.806   6.140  0.4284  0.2875  0.2865
  547HK4    C3445886   7.253   1.917   6.230  0.2192  0.3905  0.1100
  547HK4    C3345887   7.191   1.869   6.351 -0.1308  0.2403 -0.1262
  547HK4    C3545888   7.160   1.965   6.447  0.0443  0.2251 -0.0535
  547HK4    H1745889   7.079   1.939   6.515  0.2412  1.7552  0.7875
  547HK4    C3645890   7.193   2.099   6.432  0.2648  0.1373 -0.3456
  547HK4    H1845891   7.148   2.163   6.510  1.7253  0.5056  0.2015
  547HK4    C3745892   7.265   2.143   6.321  0.4172  0.0531 -0.2816
  547HK4    H1945893   7.329   2.231   6.329  0.3447  0.0519  0.3391
  547HK4    C3845894   7.288   2.051   6.219  0.1943  0.3455 -0.5960
  547HK4    H2045895   7.341   2.087   6.131 -3.2529  0.0708 -2.8685
  547HK4    C1445896   7.316   1.390   6.012  0.3680 -0.0790  0.3446
  547HK4     C945897   7.381   1.346   5.896  0.2404 -0.4988  0.4345
  547HK4     C845898   7.330   1.227   5.840  0.3411 -0.2078 -0.2806
  547HK4    C1145899   7.232   1.149   5.901  0.0304  0.3589 -0.0540
  547HK4     H445900   7.185   1.065   5.847  0.0017  0.4818 -0.2219
  547HK4    C1245901   7.180   1.183   6.025 -0.3177 -0.0871 -0.0795
  547HK4     H545902   7.119   1.113   6.085  1.8270 -1.4343  0.5936
  547HK4    C1345903   7.224   1.304   6.075  0.1904 -0.2454 -0.1381
  547HK4     H645904   7.222   1.309   6.185 -1.9576  1.3110 -0.1952
  547HK4     C745905   7.389   1.165   5.719 -0.1231 -0.3340 -0.4433
  547HK4     O245906   7.333   1.070   5.665 -0.6553 -0.3390  0.1116
  547HK4     C445907   7.514   1.222   5.663 -0.1188  0.1290  0.0311
  547HK4     C345908   7.573   1.159   5.553  0.0934  0.3069  0.0413
  547HK4     H345909   7.518   1.080   5.500  1.3540 -1.3480  1.1598
  547HK4     C245910   7.694   1.206   5.505 -0.2153  0.8888 -0.1794
  547HK4     H245911   7.750   1.143   5.434 -2.4063 -0.0737 -1.1073
  547HK4     C145912   7.754   1.320   5.558  0.3534  0.5211 -0.0243
  547HK4     H145913   7.841   1.358   5.504 -0.4257  0.9750 -0.9799
  547HK4     C645914   7.683   1.398   5.652  0.1303  0.3643 -0.0629
  547HK4     C545915   7.572   1.340   5.714  0.2898 -0.0047 -0.1191
  547HK4    C1045916   7.510   1.393   5.839 -0.1116 -0.2922 -0.1962
  547HK4     O145917   7.591   1.438   5.920  0.1509 -0.0735 -0.5780
  547HK4    C1645918   7.706   1.542   5.636  0.7411  0.2768  0.0279
  547HK4    C1545919   7.730   1.591   5.506  0.2371 -0.0769 -0.1973
  547HK4     H745920   7.696   1.542   5.413  1.7015  1.6566 -1.6945
  547HK4    C2045921   7.796   1.710   5.480 -0.9051  0.6020 -0.0363
  547HK4     H945922   7.861   1.703   5.393 -0.1714 -0.3663  0.5714
  547HK4    C1945923   7.842   1.786   5.587 -0.3338  0.1289  0.0578
  547HK4    C1845924   7.810   1.748   5.723 -0.3799  0.4218  0.1309
  547HK4    C1745925   7.749   1.624   5.740 -0.1309  0.3271  0.3474
  547HK4     H845926   7.754   1.578   5.839 -1.6668 -0.1405  0.2297
  547HK4     N145927   7.885   1.819   5.819 -0.0265 -0.2572  0.3634
  547HK4    C2145928   7.958   1.913   5.743 -0.1858 -0.2618  0.2056
  547HK4    C2245929   7.940   1.892   5.601 -0.0372 -0.1570  0.1708
  547HK4    C2645930   8.027   1.944   5.506  0.3175 -0.2407  0.4515
  547HK4    H1345931   8.012   1.928   5.400 -0.7944  0.0059  0.5700
  547HK4    C2545932   8.138   2.016   5.550 -0.5585  1.3568  0.0942
  547HK4    H1245933   8.198   2.072   5.478  1.0486  0.2422  0.5410
  547HK4    C2445934   8.158   2.034   5.686 -0.2047  0.0799  0.2220
  547HK4    H1145935   8.237   2.102   5.720  1.3824 -1.0908 -1.1235
  547HK4    C2345936   8.068   1.987   5.782 -0.0939 -0.3495  0.1167
  547HK4    H1045937   8.100   2.013   5.884 -0.3738 -0.4305  0.2234
  547HK4    C3945938   7.837   1.847   5.947 -0.4889 -0.0919  0.1559
  547HK4    C4145939   7.931   1.880   6.047  0.1599  0.8061 -0.7424
  547HK4    H2145940   8.038   1.856   6.037 -0.3724 -1.4911 -1.3308
  547HK4    C4245941   7.901   1.945   6.166  0.0973 -0.1878 -0.2050
  547HK4    H2245942   7.974   1.968   6.244  1.1733 -1.1348 -0.9225
  547HK4    C4345943   7.765   1.968   6.186  0.0640 -0.5948  0.0285
  547HK4    H2345944   7.741   2.052   6.251 -0.2361  0.0686 -0.9230
  547HK4    C4445945   7.668   1.930   6.095 -0.1249 -0.2853  0.0988
  547HK4    H2445946   7.562   1.949   6.117 -0.2120  0.9410 -1.2893
  547HK4    C4545947   7.701   1.876   5.971 -0.4665  0.3771 -0.2825
  547HK4    H2545948   7.637   1.860   5.882 -0.7333  0.3345 -0.0863
  548HK4    H2845949   8.557   8.662   5.663 -1.5172  1.6386  0.6735
  548HK4    C4845950   8.602   8.747   5.611 -0.1474  0.6466  0.2020
  548HK4    C4745951   8.561   8.793   5.486 -0.3444  0.3352  0.1500
  548HK4    H2745952   8.481   8.738   5.434 -0.8135 -0.1983  1.3967
  548HK4    C4645953   8.623   8.905   5.433 -0.1627  0.3883  0.4740
  548HK4    H2645954   8.575   8.947   5.343 -0.6935 -0.7752  0.1987
  548HK4    C4045955   8.728   8.975   5.495  0.1157  0.2827  0.1213
  548HK4    C5045956   8.768   8.927   5.622 -0.0584  0.6329  0.3123
  548HK4    H3045957   8.849   8.978   5.676 -1.3505  0.1817  2.7340
  548HK4    C4945958   8.701   8.819   5.677  0.3283  0.2122 -0.0336
  548HK4    H2945959   8.727   8.792   5.780 -0.6451  1.0449  0.4447
  548HK4     N245960   8.810   9.057   5.416  0.2136  0.0935  0.0283
  548HK4    C3045961   8.830   9.048   5.277  0.0930 -0.0627  0.0202
  548HK4    C2945962   8.800   8.943   5.191  0.3936 -0.0680 -0.0813
  548HK4    H1545963   8.749   8.854   5.229  0.7574  0.6568  2.1791
  548HK4    C2845964   8.854   8.938   5.063  0.3392  0.2490 -0.1178
  548HK4    C2745965   8.929   9.048   5.017  0.0057  0.4809 -0.1028
  548HK4    H1445966   8.944   9.065   4.909  1.3365 -0.3188 -0.0635
  548HK4    C3245967   8.955   9.157   5.099 -0.0114  0.4417 -0.0433
  548HK4    H1645968   9.013   9.242   5.063  0.5681 -0.6203 -1.6478
  548HK4    C3145969   8.913   9.158   5.231 -0.2150  0.1193 -0.1060
  548HK4    C3445970   8.946   9.235   5.350  0.0953 -0.1630 -0.0081
  548HK4    C3345971   8.873   9.175   5.459  0.2009  0.0464  0.1776
  548HK4    C3545972   8.881   9.240   5.582  0.1434  0.0287  0.1884
  548HK4    H1745973   8.809   9.206   5.657 -0.1977  0.8589  0.2425
  548HK4    C3645974   8.961   9.352   5.600 -0.5852  0.5957 -0.0360
  548HK4    H1845975   8.988   9.375   5.704  0.9916 -0.0886 -0.2672
  548HK4    C3745976   9.028   9.411   5.493 -0.1764  0.3259  0.0694
  548HK4    H1945977   9.102   9.487   5.516  1.7450 -1.2841 -0.6336
  548HK4    C3845978   9.016   9.354   5.366  0.1499 -0.2348  0.2881
  548HK4    H2045979   9.080   9.389   5.286  0.4038  0.9811  0.9976
  548HK4    C1445980   8.858   8.811   4.990 -0.0101  0.2999 -0.2268
  548HK4     C945981   8.961   8.769   4.905 -0.0489 -0.0509 -0.1034
  548HK4     C845982   8.935   8.685   4.795 -0.0649 -0.1854  0.0043
  548HK4    C1145983   8.805   8.638   4.784 -0.0938  0.0004 -0.4456
  548HK4     H445984   8.791   8.576   4.694  2.3753  0.0228 -0.8668
  548HK4    C1245985   8.705   8.665   4.877  0.2476  0.1912 -0.1333
  548HK4     H545986   8.604   8.622   4.873 -0.3236  1.3342  1.2855
  548HK4    C1345987   8.728   8.757   4.979  0.0019  0.2555 -0.1328
  548HK4     H645988   8.646   8.783   5.047  0.9029  2.3307  0.1840
  548HK4     C745989   9.043   8.665   4.695  0.0997 -0.1934  0.1832
  548HK4     O245990   9.042   8.557   4.636 -0.1490 -0.3205  0.4162
  548HK4     C445991   9.164   8.750   4.699  0.5013 -0.7610  0.1206
  548HK4     C345992   9.254   8.748   4.592 -0.2158  1.0814 -0.5390
  548HK4     H345993   9.257   8.658   4.529 -2.3341 -0.4187  1.3802
  548HK4     C245994   9.363   8.833   4.588  0.3690  0.3902  0.4183
  548HK4     H245995   9.439   8.819   4.509  0.5806 -0.5972  0.7969
  548HK4     C145996   9.377   8.933   4.683  0.7446  0.0166  0.7593
  548HK4     H145997   9.442   9.019   4.660 -0.0230  0.4596  0.2310
  548HK4     C645998   9.287   8.939   4.792  0.0182 -0.2607  0.1810
  548HK4     C545999   9.191   8.838   4.805  0.3735 -0.6178  0.0329
  548HK4    C1046000   9.095   8.833   4.918  0.4688 -1.1762  0.0880
  548HK4     O146001   9.147   8.829   5.029  0.1600  0.7362  0.3187
  548HK4    C1646002   9.278   9.071   4.857  0.9755 -0.0686 -0.0686
  548HK4    C1546003   9.255   9.187   4.781  0.2302  0.0782  0.3850
  548HK4     H746004   9.233   9.171   4.675 -0.2980 -0.4278  0.5719
  548HK4    C2046005   9.262   9.315   4.835 -0.0709  0.2009  0.1381
  548HK4     H946006   9.246   9.396   4.763  0.5458 -0.1702 -0.4197
  548HK4    C1946007   9.289   9.335   4.970  0.5710 -0.2813  0.0820
  548HK4    C1846008   9.321   9.216   5.046  0.3882 -0.3649  0.0267
  548HK4    C1746009   9.313   9.088   4.991  0.2719 -0.4157  0.1604
  548HK4     H846010   9.320   9.002   5.056  2.5854  0.9011  1.7185
  548HK4     N146011   9.366   9.256   5.173  0.8308 -0.3816 -0.1243
  548HK4    C2146012   9.345   9.394   5.186 -0.0464 -0.4626 -0.6813
  548HK4    C2246013   9.292   9.447   5.061 -0.6251  0.0195 -0.2368
  548HK4    C2646014   9.260   9.582   5.049 -0.0711  0.2173  0.3927
  548HK4    H1346015   9.202   9.615   4.962 -0.8181 -2.4604 -0.1641
  548HK4    C2546016   9.300   9.665   5.153 -0.2661  0.4549  0.2787
  548HK4    H1246017   9.273   9.770   5.141 -0.7440  0.2345 -0.6030
  548HK4    C2446018   9.354   9.617   5.272  0.2138 -0.5351 -0.3338
  548HK4    H1146019   9.377   9.681   5.358  2.1272 -0.7683 -0.6595
  548HK4    C2346020   9.375   9.481   5.291 -0.5841 -0.6694 -0.3536
  548HK4    H1046021   9.404   9.449   5.391  2.3726  1.1902 -0.5458
  548HK4    C3946022   9.363   9.176   5.288  0.2265 -0.4870 -0.2156
  548HK4    C4146023   9.273   9.069   5.310  0.0622 -0.3502 -0.2052
  548HK4    H2146024   9.181   9.066   5.249  1.6106  1.0196 -2.6770
  548HK4    C4246025   9.276   8.991   5.425 -0.2018 -0.4882 -0.2936
  548HK4    H2246026   9.195   8.919   5.445  0.3980 -1.9773 -2.9372
  548HK4    C4346027   9.364   9.020   5.529 -0.1623 -0.5203 -0.3173
  548HK4    H2346028   9.358   8.972   5.626  1.8791 -0.5710 -0.2030
  548HK4    C4446029   9.454   9.124   5.509 -0.5585 -0.1776 -0.3461
  548HK4    H2446030   9.534   9.147   5.582 -0.1672 -0.4030 -0.7077
  548HK4    C4546031   9.453   9.201   5.394 -0.6328  0.7017  0.2345
  548HK4    H2546032   9.548   9.250   5.369 -0.3829  0.3668  0.5400
  549HK4    H2846033  10.301   4.671   2.719  0.5713 -0.9541 -0.2900
  549HK4    C4846034  10.378   4.667   2.795 -0.1889 -0.5910  0.5104
  549HK4    C4746035  10.511   4.641   2.761 -0.2757 -0.1695 -0.1552
  549HK4    H2746036  10.540   4.632   2.655  0.8849  1.9648 -0.0452
  549HK4    C4646037  10.611   4.655   2.856 -0.4000  0.4159 -0.1086
  549HK4    H2646038  10.701   4.595   2.837 -1.2797 -1.3034  0.9853
  549HK4    C4046039  10.591   4.708   2.985  0.7599  0.8134 -0.0884
  549HK4    C5046040  10.455   4.729   3.014  0.5445 -0.2935 -0.2702
  549HK4    H3046041  10.426   4.776   3.109 -2.2528 -0.2617 -1.0720
  549HK4    C4946042  10.350   4.705   2.926 -0.0734  0.5817  0.2042
  549HK4    H2946043  10.247   4.713   2.961  0.7900  4.0228  2.1740
  549HK4     N246044  10.689   4.780   3.055  0.9399  0.0221  0.4846
  549HK4    C3046045  10.677   4.812   3.192  0.0853  0.0253  0.4099
  549HK4    C2946046  10.608   4.747   3.293  0.6239 -0.4308  0.4916
  549HK4    H1546047  10.561   4.654   3.263  1.4388 -0.4050 -0.8940
  549HK4    C2846048  10.584   4.803   3.418  0.1269 -0.1212  0.2584
  549HK4    C2746049  10.651   4.925   3.443 -0.0800  0.0464  0.0082
  549HK4    H1446050  10.668   4.957   3.547  1.3380 -1.5135  0.2741
  549HK4    C3246051  10.728   4.990   3.347 -0.2546  0.7303  0.3275
  549HK4    H1646052  10.800   5.065   3.380 -0.4415  0.7029  0.8004
  549HK4    C3146053  10.737   4.941   3.217  0.2726 -0.1129  0.6724
  549HK4    C3446054  10.798   4.988   3.094 -0.0273  0.0451  0.5830
  549HK4    C3346055  10.771   4.881   3.001  0.2634  0.3777  0.1172
  549HK4    C3546056  10.835   4.882   2.877 -0.1872 -0.0785 -0.1191
  549HK4    H1746057  10.835   4.796   2.810 -1.3936  1.1930 -1.7802
  549HK4    C3646058  10.919   4.987   2.845 -0.0734 -0.2086 -0.2457
  549HK4    H1846059  10.982   4.978   2.755  1.5092  0.5302  0.7561
  549HK4    C3746060  10.947   5.091   2.933 -0.5437 -0.1689 -0.1446
  549HK4    H1946061  11.013   5.170   2.899  2.3515 -2.5705 -0.2799
  549HK4    C3846062  10.890   5.087   3.060 -0.2700  0.0647 -0.0143
  549HK4    H2046063  10.894   5.183   3.111 -1.2424  0.8068 -1.2924
  549HK4    C1446064  10.459   4.774   3.490 -0.1023  0.0664 -0.0648
  549HK4     C946065  10.365   4.871   3.528 -0.5486 -0.3847 -0.0117
  549HK4     C846066  10.300   4.865   3.653 -0.1354 -0.6929  0.1873
  549HK4    C1146067  10.330   4.758   3.737  0.3192 -0.4764  0.2961
  549HK4     H446068  10.289   4.761   3.839 -0.5574 -2.7396  0.0355
  549HK4    C1246069  10.404   4.649   3.693 -0.6564 -0.9146 -0.2782
  549HK4     H546070  10.441   4.577   3.768  3.3593  0.6954 -0.5451
  549HK4    C1346071  10.467   4.657   3.569 -0.2629  0.0835 -0.0223
  549HK4     H646072  10.505   4.567   3.519  1.3108  0.2786  0.8026
  549HK4     C746073  10.201   4.968   3.690 -0.3090 -0.6163 -0.4638
  549HK4     O246074  10.176   4.988   3.809  0.1007 -0.1786 -0.4496
  549HK4     C446075  10.154   5.069   3.593 -0.1008  0.2827  0.3566
  549HK4     C346076  10.048   5.155   3.622 -0.0304  0.3813  0.3219
  549HK4     H346077  10.019   5.158   3.728  0.2710 -0.2919  0.4325
  549HK4     C246078   9.998   5.245   3.530  0.1512  0.0049 -0.1488
  549HK4     H246079   9.927   5.324   3.557 -0.0145 -0.6519  1.3487
  549HK4     C146080  10.068   5.264   3.411 -0.2457 -0.7027 -0.4993
  549HK4     H146081  10.052   5.349   3.343 -2.3840 -1.7965 -1.4129
  549HK4     C646082  10.177   5.181   3.379  0.1723 -0.2512 -0.2586
  549HK4     C546083  10.219   5.082   3.468 -0.0652  0.2109  0.3671
  549HK4    C1046084  10.312   4.972   3.432 -0.0120  0.2575  0.3727
  549HK4     O146085  10.288   4.927   3.320  0.7188 -0.3635  0.4557
  549HK4    C1646086  10.226   5.211   3.243  0.2670 -0.7160 -0.3241
  549HK4    C1546087  10.364   5.204   3.216  0.4921 -0.3560  0.6839
  549HK4     H746088  10.424   5.244   3.299  1.1185  2.3731 -1.0078
  549HK4    C2046089  10.420   5.168   3.094  0.0281 -0.1128  0.3970
  549HK4     H946090  10.527   5.171   3.069  0.0314 -1.1019  0.2509
  549HK4    C1946091  10.336   5.113   2.997  0.3485  0.1676 -0.0440
  549HK4    C1846092  10.193   5.117   3.018  0.3314  0.3246 -0.1895
  549HK4    C1746093  10.146   5.165   3.140 -0.2033 -0.1079 -0.2248
  549HK4     H846094  10.038   5.158   3.151 -0.3189  0.5438 -0.8376
  549HK4     N146095  10.122   5.052   2.915  0.0454 -0.0289  0.2296
  549HK4    C2146096  10.220   5.024   2.818 -0.0695 -0.2373  0.1733
  549HK4    C2246097  10.351   5.070   2.859 -0.2484  0.6704 -0.2650
  549HK4    C2646098  10.459   5.039   2.777 -0.5666  0.4498 -0.6017
  549HK4    H1346099  10.550   5.099   2.786 -0.3988  0.1156  0.0082
  549HK4    C2546100  10.438   4.973   2.657 -0.5132 -0.6189 -0.0312
  549HK4    H1246101  10.530   4.949   2.604  0.4378  2.8791 -0.0441
  549HK4    C2446102  10.313   4.936   2.609 -0.5780  0.5951 -0.8242
  549HK4    H1146103  10.298   4.874   2.519 -1.0119 -1.4029  0.5877
  549HK4    C2346104  10.206   4.965   2.692 -0.1024  0.5926 -0.2128
  549HK4    H1046105  10.106   4.929   2.671 -0.3921  0.1179  1.8082
  549HK4    C3946106  10.026   4.955   2.943  0.8358 -1.0393 -0.5242
  549HK4    C4146107   9.924   4.917   2.854 -0.3116  0.1632  0.2520
  549HK4    H2146108   9.890   4.992   2.781  1.5739 -0.1480 -0.9707
  549HK4    C4246109   9.848   4.802   2.875 -0.3299  0.0158 -0.6017
  549HK4    H2246110   9.768   4.779   2.802  0.4027 -0.6472 -1.2003
  549HK4    C4346111   9.859   4.723   2.989 -0.0293  0.5631 -0.2505
  549HK4    H2346112   9.829   4.618   2.985  1.7761  0.0110  0.2261
  549HK4    C4446113   9.955   4.762   3.082 -0.2007 -0.0677  0.1906
  549HK4    H2446114   9.968   4.698   3.170 -0.4425  0.0163  0.2889
  549HK4    C4546115  10.036   4.872   3.057  0.2303 -0.4319 -0.0294
  549HK4    H2546116  10.123   4.886   3.123  1.0161 -1.8137 -0.7678
  550HK4    H2846117   5.784   3.166   9.807  0.2946  1.5745 -1.0653
  550HK4    C4846118   5.869   3.113   9.762 -0.3421 -0.4430  0.0309
  550HK4    C4746119   5.902   3.122   9.628  0.0369  0.2175  0.1652
  550HK4    H2746120   5.812   3.126   9.564  0.1623 -1.4040 -0.1320
  550HK4    C4646121   6.029   3.098   9.577 -0.2580 -0.5314 -0.2358
  550HK4    H2646122   6.047   3.129   9.473 -0.5223  1.5956  0.3357
  550HK4    C4046123   6.134   3.065   9.666 -0.3175 -0.2095 -0.0448
  550HK4    C5046124   6.098   3.044   9.801 -0.4360 -0.0086 -0.0436
  550HK4    H3046125   6.178   3.022   9.873 -2.4431 -1.2862  1.8486
  550HK4    C4946126   5.970   3.071   9.847 -0.2613  0.2502  0.2885
  550HK4    H2946127   5.952   3.081   9.955 -1.1981  1.5198  0.0165
  550HK4     N246128   6.268   3.093   9.639 -0.3742 -0.0370 -0.1442
  550HK4    C3046129   6.371   3.018   9.700 -0.2557  0.4737  0.2783
  550HK4    C2946130   6.371   2.894   9.762 -0.2776  0.4075  0.1464
  550HK4    H1546131   6.281   2.832   9.756  0.6836 -1.0244  0.3916
  550HK4    C2846132   6.482   2.851   9.833 -0.3166 -0.1236 -0.1144
  550HK4    C2746133   6.602   2.925   9.825 -0.0405 -0.6605 -1.0405
  550HK4    H1446134   6.697   2.871   9.834  0.6691  0.7560  0.1002
  550HK4    C3246135   6.608   3.048   9.762  0.3352 -0.1317  0.0096
  550HK4    H1646136   6.694   3.114   9.771  0.0656  0.1956  0.2205
  550HK4    C3146137   6.496   3.091   9.690  0.2110 -0.3529  0.0691
  550HK4    C3446138   6.461   3.217   9.627  0.1263 -0.3518  0.1201
  550HK4    C3346139   6.320   3.216   9.595  0.1616 -0.2204 -0.0395
  550HK4    C3546140   6.259   3.315   9.518  0.6416  0.1784  0.0928
  550HK4    H1746141   6.153   3.312   9.493  0.7520 -0.4608 -0.3205
  550HK4    C3646142   6.344   3.412   9.467  0.3982  0.5234  0.3455
  550HK4    H1846143   6.305   3.510   9.434  0.1224  1.1333  2.4024
  550HK4    C3746144   6.479   3.414   9.497  0.4412  0.0588  0.1835
  550HK4    H1946145   6.534   3.499   9.457 -0.0861 -0.1168 -0.9355
  550HK4    C3846146   6.540   3.321   9.581  0.0904 -0.4141 -0.0815
  550HK4    H2046147   6.648   3.316   9.596  0.1432 -1.0528 -0.6750
  550HK4    C1446148   6.462   2.764   9.950 -0.1846  0.3563  0.2610
  550HK4     C946149   6.540   2.777  10.066  0.6753  0.2386 -0.2978
  550HK4     C846150   6.587   2.669  10.143 -0.5878  0.0467  0.2154
  550HK4    C1146151   6.547   2.543  10.102  0.1348 -0.0667 -0.1446
  550HK4     H446152   6.570   2.457  10.167 -1.6336 -0.7536 -0.3927
  550HK4    C1246153   6.453   2.528  10.000  0.1932 -0.6274 -0.1202
  550HK4     H546154   6.434   2.426   9.965  2.2074 -0.8340 -0.6735
  550HK4    C1346155   6.408   2.637   9.926  0.5463 -0.0156  0.5473
  550HK4     H646156   6.328   2.616   9.853  0.9621  3.3465 -0.9548
  550HK4     C746157   6.691   2.689  10.247 -0.0575 -0.0578 -0.2943
  550HK4     O246158   6.707   2.609  10.339  0.0507  0.1886 -0.1026
  550HK4     C446159   6.742   2.824  10.275 -0.1447 -0.1978  0.5344
  550HK4     C346160   6.850   2.845  10.361  0.3135 -0.3251 -0.0068
  550HK4     H346161   6.925   2.766  10.377 -1.1399 -2.0700 -1.6201
  550HK4     C246162   6.877   2.977  10.396 -0.6302 -0.0839 -0.1793
  550HK4     H246163   6.939   3.009  10.481  1.8138 -0.1090 -1.9112
  550HK4     C146164   6.816   3.086  10.337 -0.8483  0.1054  0.3981
  550HK4     H146165   6.835   3.179  10.393  1.1216  1.6468 -2.7333
  550HK4     C646166   6.720   3.066  10.235  0.1161 -0.1266 -0.4667
  550HK4     C546167   6.676   2.935  10.217  0.2485 -0.2380  0.0154
  550HK4    C1046168   6.561   2.912  10.126  0.1320  0.1656  0.0656
  550HK4     O146169   6.467   2.991  10.138 -0.0090 -0.0750  0.5098
  550HK4    C1646170   6.738   3.156  10.120  0.2489  0.0208 -0.3301
  550HK4    C1546171   6.863   3.187  10.063  0.1481  0.0180 -0.5600
  550HK4     H746172   6.957   3.143  10.101 -0.2716 -0.9427 -0.6258
  550HK4    C2046173   6.886   3.303   9.989  0.5036  0.6550  0.5328
  550HK4     H946174   6.985   3.331   9.954  0.1653  0.7358 -0.3548
  550HK4    C1946175   6.776   3.380   9.955  0.3175  0.1729  0.0306
  550HK4    C1846176   6.648   3.350  10.016  0.3085 -0.1720 -0.1582
  550HK4    C1746177   6.627   3.235  10.091  0.0645 -0.2290 -0.3100
  550HK4     H846178   6.537   3.240  10.151  0.4177  0.5488  0.1665
  550HK4     N146179   6.552   3.446   9.979  0.1760  0.0394  0.7480
  550HK4    C2146180   6.616   3.541   9.898 -0.0961 -0.0803  0.3919
  550HK4    C2246181   6.753   3.498   9.873 -0.2221 -0.1223 -0.2401
  550HK4    C2646182   6.829   3.566   9.779 -0.2817  0.9268  0.4566
  550HK4    H1346183   6.937   3.550   9.778 -0.0558  2.3021  0.9678
  550HK4    C2546184   6.775   3.672   9.707 -0.3666  0.6229  0.0731
  550HK4    H1246185   6.839   3.729   9.640 -0.2911  0.4398 -0.0086
  550HK4    C2446186   6.645   3.717   9.730 -0.4357  0.3389  0.2459
  550HK4    H1146187   6.597   3.808   9.691 -0.0892  0.3453 -0.1673
  550HK4    C2346188   6.568   3.646   9.821 -0.1470 -0.5197 -0.1750
  550HK4    H1046189   6.460   3.656   9.805 -0.1625 -1.1042 -0.4760
  550HK4    C3946190   6.414   3.431  10.002  0.0680  0.2382  0.2273
  550HK4    C4146191   6.330   3.543  10.019 -0.1607  0.1714 -0.4397
  550HK4    H2146192   6.369   3.624  10.082  1.0221  1.1394 -2.3761
  550HK4    C4246193   6.191   3.537  10.018 -0.1383 -0.3932 -0.4249
  550HK4    H2246194   6.128   3.627  10.023  0.4937  0.0897 -1.0153
  550HK4    C4346195   6.129   3.413  10.017 -0.7559 -0.0851 -0.3555
  550HK4    H2346196   6.021   3.396  10.005 -1.0483  0.4485  1.4187
  550HK4    C4446197   6.213   3.302  10.015 -0.0377  0.4544  0.0594
  550HK4    H2446198   6.164   3.204  10.014 -1.7930  1.3108 -1.3460
  550HK4    C4546199   6.350   3.306   9.993 -0.1582  0.4182 -0.7142
  550HK4    H2546200   6.396   3.223   9.936  1.0809  0.9426 -0.4815
  551HK4    H2846201   9.284   3.196   8.002 -0.3281 -0.1098  0.3575
  551HK4    C4846202   9.314   3.131   7.920 -0.2731  0.1052  0.2070
  551HK4    C4746203   9.449   3.127   7.888 -0.2318  0.0070  0.3852
  551HK4    H2746204   9.523   3.170   7.957 -0.3264  1.9154 -0.6510
  551HK4    C4646205   9.497   3.041   7.790 -0.8225  0.4752 -0.3222
  551HK4    H2646206   9.602   3.041   7.756 -0.8632 -2.1143 -0.5298
  551HK4    C4046207   9.408   2.961   7.715 -0.5265 -0.2005  0.0388
  551HK4    C5046208   9.271   2.975   7.743 -0.5054  0.5996 -0.2255
  551HK4    H3046209   9.199   2.898   7.709 -1.8894  1.3173  0.9831
  551HK4    C4946210   9.223   3.060   7.842 -0.3466  0.4878 -0.0526
  551HK4    H2946211   9.117   3.066   7.869 -0.6760 -2.4506 -0.5324
  551HK4     N246212   9.454   2.861   7.628  0.0126 -0.0229  0.1160
  551HK4    C3046213   9.393   2.825   7.507 -0.0154  0.1618  0.0727
  551HK4    C2946214   9.286   2.884   7.441  0.3937  0.3564 -0.4125
  551HK4    H1546215   9.248   2.985   7.460  1.2429  0.3909  1.1591
  551HK4    C2846216   9.242   2.829   7.321 -0.0685  0.2682 -0.2013
  551HK4    C2746217   9.311   2.715   7.275 -0.4458 -0.2461  0.5083
  551HK4    H1446218   9.271   2.678   7.180 -0.6235  1.3352 -0.0568
  551HK4    C3246219   9.424   2.657   7.331  0.3125  0.7483  0.0430
  551HK4    H1646220   9.468   2.583   7.264 -0.3325 -0.7071  1.1820
  551HK4    C3146221   9.462   2.709   7.454  0.0589  0.0456  0.4236
  551HK4    C3446222   9.561   2.669   7.553  0.1988 -0.1856  0.1928
  551HK4    C3346223   9.546   2.761   7.664 -0.4576 -0.3955  0.2840
  551HK4    C3546224   9.616   2.746   7.784 -0.0257  0.1006  0.1003
  551HK4    H1746225   9.646   2.832   7.843 -0.1882 -1.4939  2.5385
  551HK4    C3646226   9.692   2.630   7.792 -0.6985 -0.3512  0.0238
  551HK4    H1846227   9.744   2.609   7.887  2.0636  3.7050 -0.4522
  551HK4    C3746228   9.716   2.543   7.687  0.5302 -0.0640  0.0532
  551HK4    H1946229   9.791   2.466   7.702 -1.6211 -2.2946 -0.2419
  551HK4    C3846230   9.647   2.561   7.567  0.3017 -0.1053  0.1780
  551HK4    H2046231   9.676   2.505   7.478 -0.7133 -0.7944  0.2778
  551HK4    C1446232   9.114   2.876   7.266 -0.2070  0.5050  0.3087
  551HK4     C946233   9.019   2.794   7.204  0.0112  0.2006  0.3780
  551HK4     C846234   8.958   2.838   7.085  0.1276 -0.4127  0.0894
  551HK4    C1146235   8.982   2.965   7.033 -0.2499 -0.2580  0.2959
  551HK4     H446236   8.962   2.993   6.929 -0.7590 -1.1659  0.1428
  551HK4    C1246237   9.057   3.055   7.108  0.4396 -0.3378 -0.2982
  551HK4     H546238   9.050   3.162   7.082 -0.5263 -0.3715 -0.2113
  551HK4    C1346239   9.121   3.010   7.222  0.0768  0.4624  0.2242
  551HK4     H646240   9.197   3.082   7.258 -0.7277  1.4060  0.0563
  551HK4     C746241   8.874   2.747   7.003 -0.3034  0.0187  0.0479
  551HK4     O246242   8.827   2.775   6.893 -0.0515  0.3640  0.0255
  551HK4     C446243   8.844   2.616   7.065  0.7148 -0.1900  0.1214
  551HK4     C346244   8.771   2.524   6.990  0.0993 -0.0015  0.4801
  551HK4     H346245   8.777   2.524   6.880 -1.7108 -1.9228  0.3543
  551HK4     C246246   8.709   2.413   7.044 -0.1470 -0.0571  0.0918
  551HK4     H246247   8.658   2.337   6.983 -0.1904  2.3532 -2.9956
  551HK4     C146248   8.706   2.403   7.183 -0.1445 -0.3837  0.0707
  551HK4     H146249   8.680   2.307   7.230  0.6911 -0.2059  0.9093
  551HK4     C646250   8.766   2.502   7.263  0.5140 -0.4461 -0.3414
  551HK4     C546251   8.848   2.600   7.205 -0.2812  0.5653  0.2356
  551HK4    C1046252   8.960   2.674   7.270 -0.0177  0.1495  0.2584
  551HK4     O146253   9.020   2.623   7.365  0.4046  0.1809  0.0066
  551HK4    C1646254   8.742   2.490   7.408  0.2032  0.1737 -0.3392
  551HK4    C1546255   8.688   2.372   7.464 -0.3435  0.5062 -0.1600
  551HK4     H746256   8.711   2.274   7.421  3.7132  0.9940  0.6625
  551HK4    C2046257   8.624   2.369   7.588  0.1355 -0.2067  0.0705
  551HK4     H946258   8.609   2.274   7.640  0.5455 -1.5483 -2.1773
  551HK4    C1946259   8.597   2.489   7.652 -0.1061 -0.1203 -0.1906
  551HK4    C1846260   8.672   2.604   7.608 -0.1724  0.0545  0.1567
  551HK4    C1746261   8.733   2.606   7.484 -0.4355 -0.1075  0.0237
  551HK4     H846262   8.785   2.700   7.465 -1.4880  0.5150  0.1989
  551HK4     N146263   8.642   2.716   7.689 -0.2589 -0.0016  0.2020
  551HK4    C2146264   8.546   2.673   7.783  0.2868 -0.1775  0.6780
  551HK4    C2246265   8.520   2.531   7.767 -0.3325  0.0562 -0.4074
  551HK4    C2646266   8.441   2.461   7.858 -0.3122  0.3756 -0.1428
  551HK4    H1346267   8.411   2.359   7.833  2.6157 -0.3833 -0.7713
  551HK4    C2546268   8.389   2.525   7.970  0.2649  0.0367  0.3274
  551HK4    H1246269   8.321   2.474   8.038 -2.2438  0.6924 -1.6127
  551HK4    C2446270   8.420   2.659   7.990 -0.1321  0.1978 -0.1123
  551HK4    H1146271   8.387   2.722   8.074 -1.3229  0.2809 -0.6383
  551HK4    C2346272   8.504   2.728   7.904  0.2314  0.3972  0.3954
  551HK4    H1046273   8.519   2.836   7.910  0.0939  0.5179 -1.0391
  551HK4    C3946274   8.702   2.843   7.687 -0.1386 -0.0652 -0.2514
  551HK4    C4146275   8.635   2.964   7.711  0.3689  0.1332  0.1711
  551HK4    H2146276   8.525   2.964   7.709  0.3727  0.8167 -0.1639
  551HK4    C4246277   8.709   3.082   7.715  0.1148  0.3021 -0.0648
  551HK4    H2246278   8.663   3.166   7.770 -0.4234  0.3820 -0.6406
  551HK4    C4346279   8.847   3.088   7.700  0.0808  0.0243 -0.4766
  551HK4    H2346280   8.906   3.178   7.712  1.3910 -1.0662  1.5880
  551HK4    C4446281   8.913   2.970   7.664  0.3337  0.0196  0.0106
  551HK4    H2446282   9.008   2.978   7.609  0.5307 -1.4361  0.1241
  551HK4    C4546283   8.842   2.851   7.669 -0.0717  0.2784  0.3869
  551HK4    H2546284   8.903   2.761   7.684 -1.5414 -1.2210 -2.2444
  552HK4    H2846285   9.494  10.172   6.219 -0.0720 -1.2632  0.3330
  552HK4    C4846286   9.423  10.138   6.143  0.3545 -0.3449 -0.4791
  552HK4    C4746287   9.447  10.030   6.059  0.1782 -0.4769 -0.3630
  552HK4    H2746288   9.531   9.960   6.073  2.2852  1.9013 -0.7236
  552HK4    C4646289   9.368  10.024   5.945 -0.3308 -0.0747 -0.0322
  552HK4    H2646290   9.368   9.918   5.914  0.5038  0.0975 -0.6200
  552HK4    C4046291   9.265  10.113   5.909 -0.3345 -0.1687 -0.2577
  552HK4    C5046292   9.237  10.214   6.003  0.2362  0.1100 -0.3855
  552HK4    H3046293   9.138  10.263   6.001 -0.1855 -0.7253  0.1329
  552HK4    C4946294   9.315  10.223   6.117 -0.2669 -0.9752  0.0430
  552HK4    H2946295   9.288  10.294   6.196  0.7348 -0.4126 -0.1031
  552HK4     N246296   9.240  10.131   5.772  0.2380 -0.1883 -0.3647
  552HK4    C3046297   9.325  10.121   5.660  0.4410  0.3715 -0.2592
  552HK4    C2946298   9.462  10.101   5.656  0.4178  0.1029  0.1841
  552HK4    H1546299   9.511  10.069   5.748 -0.8957  2.6554  1.7919
  552HK4    C2846300   9.530  10.081   5.536  0.4117 -0.1113  0.2170
  552HK4    C2746301   9.458  10.092   5.416  0.5676  1.2439  0.2392
  552HK4    H1446302   9.504  10.058   5.322  1.9667  0.0794  1.3211
  552HK4    C3246303   9.321  10.114   5.410  0.3274 -0.2804  0.0576
  552HK4    H1646304   9.260  10.120   5.320 -0.8552 -2.1566  0.7073
  552HK4    C3146305   9.256  10.127   5.532 -0.0054 -0.6610 -0.0765
  552HK4    C3446306   9.117  10.136   5.570  0.0408  0.4021 -0.1200
  552HK4    C3346307   9.111  10.141   5.715  0.1695  0.4198 -0.1163
  552HK4    C3546308   8.986  10.145   5.775  0.1084  0.4359 -0.2467
  552HK4    H1746309   8.972  10.171   5.880 -0.5315  0.5262 -0.3523
  552HK4    C3646310   8.871  10.131   5.698  0.0515 -0.3057 -0.0293
  552HK4    H1846311   8.783  10.094   5.752  0.3821  1.1012  1.5273
  552HK4    C3746312   8.870  10.120   5.559 -0.2967 -0.2300 -0.0332
  552HK4    H1946313   8.774  10.101   5.512 -0.5438  0.2155  0.2829
  552HK4    C3846314   8.997  10.119   5.502 -0.1170 -0.5240  0.3714
  552HK4    H2046315   9.000  10.129   5.394  0.1261 -0.3985  0.3900
  552HK4    C1446316   9.672  10.120   5.535  0.4105 -0.1128  0.1090
  552HK4     C946317   9.719  10.210   5.439  0.2020  0.1798  0.2798
  552HK4     C846318   9.845  10.187   5.379 -0.1934  0.2669 -0.5952
  552HK4    C1146319   9.925  10.085   5.430  0.1611  1.0048  0.3454
  552HK4     H446320  10.022  10.060   5.385  0.7800  0.0174  2.1897
  552HK4    C1246321   9.893  10.024   5.550  0.2256 -0.0161 -0.1511
  552HK4     H546322   9.966   9.960   5.602  0.6944  1.0410  0.5154
  552HK4    C1346323   9.763  10.032   5.598  0.2892 -0.2691  0.0663
  552HK4     H646324   9.738   9.981   5.693 -0.4780 -3.2649 -1.6873
  552HK4     C746325   9.911  10.283   5.288  0.1826  0.0394 -0.5655
  552HK4     O246326  10.016  10.261   5.229  0.3684  0.0486 -0.2388
  552HK4     C446327   9.839  10.410   5.263 -0.3044 -0.2158 -0.4603
  552HK4     C346328   9.885  10.497   5.165  0.1002  0.1456  0.0446
  552HK4     H346329   9.943  10.461   5.078  1.9391  1.6192  0.6193
  552HK4     C246330   9.858  10.633   5.166  0.2420  0.1747 -0.0332
  552HK4     H246331   9.921  10.703   5.109  0.2759  0.8275  0.7966
  552HK4     C146332   9.780  10.678   5.272  0.9313 -0.1460  0.6201
  552HK4     H146333   9.776  10.786   5.291  2.0868 -0.2865  1.7039
  552HK4     C646334   9.724  10.593   5.370  0.3324 -0.2470  0.1963
  552HK4     C546335   9.747  10.455   5.361  0.2130 -0.2578  0.0483
  552HK4    C1046336   9.671  10.351   5.435 -0.2434  0.0228 -0.0250
  552HK4     O146337   9.557  10.378   5.472  0.0312 -0.0350  0.8544
  552HK4    C1646338   9.647  10.670   5.468 -0.4311 -0.4875 -0.2041
  552HK4    C1546339   9.589  10.798   5.451 -0.6368 -0.4948  0.4155
  552HK4     H746340   9.562  10.832   5.350 -0.1421  0.1096  0.4867
  552HK4    C2046341   9.565  10.886   5.556  0.3017  0.1720  0.0793
  552HK4     H946342   9.544  10.991   5.538  2.3052  0.7559  1.0936
  552HK4    C1946343   9.580  10.848   5.689  0.4364  0.1565  0.0593
  552HK4    C1846344   9.631  10.715   5.712 -0.7278 -0.3223 -0.0684
  552HK4    C1746345   9.668  10.639   5.602  0.2943  0.2574 -0.1347
  552HK4     H846346   9.729  10.551   5.623 -0.4010  0.2799  2.1351
  552HK4     N146347   9.658  10.693   5.849 -0.0307  0.3526 -0.0892
  552HK4    C2146348   9.611  10.808   5.915 -0.5828 -0.0540  0.2348
  552HK4    C2246349   9.567  10.909   5.820 -0.1991 -0.0297  0.0840
  552HK4    C2646350   9.506  11.027   5.859 -0.2226  0.0420 -0.1766
  552HK4    H1346351   9.468  11.096   5.784  0.4647 -0.6932 -1.2256
  552HK4    C2546352   9.503  11.052   5.995  0.8304 -0.0557 -0.1327
  552HK4    H1246353   9.473  11.152   6.028  0.0640 -0.7977  1.4760
  552HK4    C2446354   9.555  10.967   6.092  0.5081 -0.0542  0.0403
  552HK4    H1146355   9.555  11.008   6.194  2.4200 -0.1324  0.0830
  552HK4    C2346356   9.609  10.846   6.049  0.5291 -0.1286  0.2797
  552HK4    H1046357   9.621  10.765   6.121  0.0717 -1.0243 -0.6323
  552HK4    C3946358   9.669  10.565   5.904  0.0223  0.1782 -0.5117
  552HK4    C4146359   9.759  10.538   6.009 -0.2884 -0.1264 -0.3209
  552HK4    H2146360   9.821  10.619   6.051  2.3944 -0.2064 -3.8782
  552HK4    C4246361   9.784  10.409   6.056  0.0447  0.0563  0.0017
  552HK4    H2246362   9.840  10.380   6.146 -0.2496 -3.4728 -0.8871
  552HK4    C4346363   9.718  10.306   5.991  0.4020 -0.0768 -0.1531
  552HK4    H2346364   9.747  10.202   6.008 -3.2999 -1.2564 -0.5077
  552HK4    C4446365   9.625  10.325   5.889  0.9783  0.3918 -0.6009
  552HK4    H2446366   9.569  10.241   5.843 -0.2052  1.1300 -0.5324
  552HK4    C4546367   9.598  10.455   5.850  0.0533  0.2030 -0.6089
  552HK4    H2546368   9.511  10.477   5.787  1.8828  2.5878 -2.3841
  553HK4    H2846369   3.273   7.862   2.229 -3.1580 -3.1758 -0.6401
  553HK4    C4846370   3.226   7.884   2.325 -0.0124 -0.1796  0.3006
  553HK4    C4746371   3.187   7.774   2.400 -0.1073 -0.1904  0.2349
  553HK4    H2746372   3.212   7.675   2.360  2.2241 -0.3202  1.9367
  553HK4    C4646373   3.126   7.791   2.524  0.5960 -0.3673  0.6059
  553HK4    H2646374   3.113   7.704   2.591 -1.5921  0.9998  1.9911
  553HK4    C4046375   3.103   7.921   2.573  0.1067 -0.2130 -0.0295
  553HK4    C5046376   3.132   8.029   2.487 -0.5882 -0.1553 -0.1937
  553HK4    H3046377   3.066   8.117   2.485  0.3359  0.5545  0.2305
  553HK4    C4946378   3.194   8.013   2.364  0.5626 -0.0582  0.3727
  553HK4    H2946379   3.230   8.097   2.302  1.3942 -0.6400  0.0541
  553HK4     N246380   3.023   7.935   2.688 -0.4247  0.1003 -0.4326
  553HK4    C3046381   2.938   7.839   2.746  0.0831  0.2956  0.6445
  553HK4    C2946382   2.862   7.740   2.684  0.1161  0.5751  0.1583
  553HK4    H1546383   2.859   7.755   2.576 -2.3164  0.9314  0.2528
  553HK4    C2846384   2.772   7.656   2.747 -0.0125  0.4277 -0.2200
  553HK4    C2746385   2.738   7.694   2.879  0.3796 -0.2871  0.0902
  553HK4    H1446386   2.679   7.621   2.936 -0.2212  0.4966  0.4708
  553HK4    C3246387   2.801   7.801   2.942 -0.2183  0.1232 -0.0032
  553HK4    H1646388   2.754   7.822   3.038 -0.6385 -1.8761  0.2637
  553HK4    C3146389   2.901   7.875   2.881  0.1246  0.2173  0.6770
  553HK4    C3446390   2.974   7.997   2.913  0.0795  0.4509 -0.0872
  553HK4    C3346391   3.044   8.029   2.791 -0.1660 -0.0405 -0.3567
  553HK4    C3546392   3.121   8.144   2.788 -0.4442  0.1596  0.0443
  553HK4    H1746393   3.186   8.156   2.701  0.6282 -0.8276  0.7099
  553HK4    C3646394   3.132   8.218   2.906  0.2357 -0.1262  0.1633
  553HK4    H1846395   3.196   8.306   2.898 -1.5704  1.2963  0.9774
  553HK4    C3746396   3.060   8.189   3.021 -0.1105 -0.5988 -0.1649
  553HK4    H1946397   3.062   8.252   3.110 -0.0588  1.2300 -1.4266
  553HK4    C3846398   2.977   8.078   3.026 -0.5899 -0.2153  0.4198
  553HK4    H2046399   2.926   8.052   3.119 -1.9353  1.9223  0.3036
  553HK4    C1446400   2.683   7.559   2.681  0.1349 -0.1226  0.3806
  553HK4     C946401   2.551   7.520   2.707  0.0571 -0.0206  0.1439
  553HK4     C846402   2.497   7.403   2.650 -0.1600 -0.0298  0.3668
  553HK4    C1146403   2.582   7.325   2.572  0.1552  0.4964  0.1790
  553HK4     H446404   2.547   7.225   2.543 -1.2539  1.3571 -1.1751
  553HK4    C1246405   2.711   7.366   2.542  0.0537  0.5090 -0.2368
  553HK4     H546406   2.763   7.302   2.469 -2.4518 -1.3915 -0.4421
  553HK4    C1346407   2.765   7.481   2.597  0.2287  0.2651  0.1129
  553HK4     H646408   2.865   7.510   2.560  0.2591  1.1451  0.8651
  553HK4     C746409   2.355   7.365   2.670 -0.2161 -0.1644 -0.2809
  553HK4     O246410   2.309   7.268   2.610  0.3980 -0.8930  0.3981
  553HK4     C446411   2.269   7.451   2.753  0.2757  0.2946 -0.2446
  553HK4     C346412   2.134   7.423   2.771  0.1429  0.6697 -0.6534
  553HK4     H346413   2.070   7.361   2.707 -0.6032  0.6724  0.0809
  553HK4     C246414   2.054   7.496   2.859  0.2792  0.5422 -0.4222
  553HK4     H246415   1.949   7.470   2.875 -0.1129  1.6735 -1.0704
  553HK4     C146416   2.117   7.590   2.939  0.3633  0.6605 -0.6283
  553HK4     H146417   2.054   7.651   3.005 -3.4719 -2.2498 -1.4872
  553HK4     C646418   2.257   7.613   2.935  0.4963  0.0541  0.5069
  553HK4     C546419   2.326   7.556   2.828 -0.2638  0.6273 -0.2943
  553HK4    C1046420   2.457   7.610   2.780  0.2753 -0.0305  0.4395
  553HK4     O146421   2.451   7.729   2.752  0.4610 -0.0328  0.3866
  553HK4    C1646422   2.311   7.708   3.033 -0.3151  0.5700  0.4650
  553HK4    C1546423   2.443   7.694   3.083 -0.2542 -0.2387  0.0932
  553HK4     H746424   2.508   7.614   3.046 -0.8428  0.3980 -2.4696
  553HK4    C2046425   2.498   7.789   3.168 -0.0294  0.1187 -0.4494
  553HK4     H946426   2.606   7.793   3.185  0.2496  1.7057 -2.3047
  553HK4    C1946427   2.429   7.906   3.197  0.4488  0.2815  0.0369
  553HK4    C1846428   2.301   7.935   3.135  0.3813  0.2416  0.1552
  553HK4    C1746429   2.253   7.832   3.055 -0.4250  0.5623  0.2187
  553HK4     H846430   2.155   7.849   3.010 -0.5786  0.0310  0.3562
  553HK4     N146431   2.242   8.051   3.189  0.0319  0.2373 -0.2118
  553HK4    C2146432   2.320   8.084   3.303 -0.0483  0.0782 -0.1114
  553HK4    C2246433   2.441   8.005   3.303 -0.0882  0.0186  0.3456
  553HK4    C2646434   2.525   8.014   3.413  0.2006  1.1565  0.0355
  553HK4    H1346435   2.617   7.956   3.408  0.2007  1.2301 -0.8926
  553HK4    C2546436   2.489   8.089   3.525  0.6254  0.1860  0.8337
  553HK4    H1246437   2.557   8.080   3.610  0.4810 -0.8911  0.8424
  553HK4    C2446438   2.367   8.156   3.530  0.3429 -0.2838  0.3544
  553HK4    H1146439   2.339   8.211   3.621 -2.2262  2.2286 -1.8904
  553HK4    C2346440   2.285   8.152   3.418  0.5888 -0.0622  0.1657
  553HK4    H1046441   2.193   8.211   3.415  0.0155 -1.0208 -1.5214
  553HK4    C3946442   2.178   8.141   3.103  0.2777  0.1111 -0.5246
  553HK4    C4146443   2.117   8.256   3.158  0.3486 -0.2088  0.2395
  553HK4    H2146444   2.100   8.273   3.265 -0.7068  1.2361 -0.1393
  553HK4    C4246445   2.061   8.356   3.080  0.0207 -0.5019  0.0986
  553HK4    H2246446   2.018   8.444   3.130  0.2151 -0.6048  0.4479
  553HK4    C4346447   2.067   8.341   2.942  0.3038 -0.5274  0.1145
  553HK4    H2346448   2.034   8.421   2.876 -0.1157 -0.9996 -0.2565
  553HK4    C4446449   2.137   8.236   2.882  0.4168 -0.0486 -0.5992
  553HK4    H2446450   2.131   8.222   2.773 -3.4668  0.7111 -0.5322
  553HK4    C4546451   2.196   8.140   2.964  0.4330  0.0421 -0.5049
  553HK4    H2546452   2.273   8.075   2.920  0.9988 -0.4896  1.2689
  554HK4    H2846453   6.983   3.528   2.093  1.2377  1.7800 -0.1334
  554HK4    C4846454   7.010   3.522   2.198  0.4734 -1.1165 -0.0831
  554HK4    C4746455   6.914   3.525   2.298  0.4192  0.1515 -0.1744
  554HK4    H2746456   6.804   3.531   2.286  0.5119 -0.3970 -1.3640
  554HK4    C4646457   6.957   3.524   2.430  0.3167 -0.6138 -0.1458
  554HK4    H2646458   6.881   3.543   2.508  1.8627  1.9232  0.8127
  554HK4    C4046459   7.093   3.522   2.467  0.1362 -0.3280  0.5424
  554HK4    C5046460   7.183   3.528   2.359 -0.7120  1.0149 -0.1083
  554HK4    H3046461   7.292   3.527   2.378 -0.6417 -1.4768 -0.4634
  554HK4    C4946462   7.146   3.525   2.225  0.5165  0.7115 -0.4489
  554HK4    H2946463   7.218   3.526   2.142  0.6658 -1.3704 -0.3688
  554HK4     N246464   7.145   3.562   2.591  0.6287  0.4074  0.1020
  554HK4    C3046465   7.083   3.657   2.675  0.3559  0.3732 -0.0618
  554HK4    C2946466   6.995   3.760   2.642 -0.6013 -0.3696  0.1433
  554HK4    H1546467   6.983   3.782   2.536  0.9441  0.8682  0.2075
  554HK4    C2846468   6.945   3.842   2.743 -0.3744 -0.1756  0.0991
  554HK4    C2746469   6.983   3.817   2.876 -0.5035 -0.1091  0.1481
  554HK4    H1446470   6.919   3.858   2.955  0.0624  2.7527 -0.8419
  554HK4    C3246471   7.081   3.723   2.905  0.0943  0.4809  0.0631
  554HK4    H1646472   7.120   3.729   3.006  1.1150  0.8963 -0.3500
  554HK4    C3146473   7.140   3.642   2.807 -0.7477 -0.4687  0.3298
  554HK4    C3446474   7.233   3.531   2.805 -0.2722 -0.0706  0.1784
  554HK4    C3346475   7.240   3.489   2.667 -0.0917 -0.3560  0.2727
  554HK4    C3546476   7.329   3.390   2.628 -0.3759 -0.6124  0.2758
  554HK4    H1746477   7.313   3.336   2.534 -1.1834 -1.6692  1.0035
  554HK4    C3646478   7.414   3.328   2.718  0.3590 -0.1294 -0.0854
  554HK4    H1846479   7.500   3.263   2.696 -0.7344 -2.0485  1.1219
  554HK4    C3746480   7.398   3.357   2.853  0.2266 -0.3860 -0.0436
  554HK4    H1946481   7.482   3.328   2.917  2.1103  1.4314 -1.5994
  554HK4    C3846482   7.307   3.454   2.894 -0.2884 -0.7280 -0.3748
  554HK4    H2046483   7.311   3.492   2.996  0.2633  0.8228 -0.9513
  554HK4    C1446484   6.887   3.972   2.706  0.0290 -0.0497 -0.0960
  554HK4     C946485   6.895   4.089   2.783 -0.0397  0.0090 -0.1805
  554HK4     C846486   6.791   4.184   2.778 -0.3916 -0.3612  0.0298
  554HK4    C1146487   6.687   4.155   2.690  0.3221  0.0296 -0.9505
  554HK4     H446488   6.597   4.216   2.702 -2.3051 -3.6756 -1.0127
  554HK4    C1246489   6.679   4.043   2.607 -0.1202 -0.6327 -0.0253
  554HK4     H546490   6.596   4.037   2.535  0.2727 -2.3943 -0.3583
  554HK4    C1346491   6.783   3.951   2.614 -0.4104 -0.9202  0.5864
  554HK4     H646492   6.765   3.851   2.572  0.0938 -1.7821  2.4077
  554HK4     C746493   6.783   4.304   2.864 -0.0356 -0.3972  0.1143
  554HK4     O246494   6.681   4.373   2.862  0.0846 -0.2396 -0.6067
  554HK4     C446495   6.896   4.331   2.955 -0.1003  0.0830  0.0512
  554HK4     C346496   6.893   4.458   3.012 -0.4738  0.2148 -0.2563
  554HK4     H346497   6.808   4.526   2.998 -1.9400 -1.4015  0.5887
  554HK4     C246498   6.993   4.491   3.103 -0.4315 -0.5586 -0.0176
  554HK4     H246499   6.982   4.585   3.159  2.3441 -0.9879  1.3513
  554HK4     C146500   7.096   4.400   3.127 -0.2045 -0.1365  0.6204
  554HK4     H146501   7.186   4.432   3.182  1.7255  0.1804 -2.5836
  554HK4     C646502   7.088   4.271   3.072  0.1865  0.1646 -0.1425
  554HK4     C546503   6.999   4.236   2.969 -0.2872 -0.0806  0.3475
  554HK4    C1046504   7.008   4.122   2.874 -0.0997  0.4373 -0.2619
  554HK4     O146505   7.121   4.087   2.838 -0.1307 -0.1387  0.1924
  554HK4    C1646506   7.165   4.170   3.146  0.2901  0.1182 -0.3131
  554HK4    C1546507   7.129   4.036   3.168 -0.0694  0.3587  0.5504
  554HK4     H746508   7.026   4.008   3.141  0.7004 -2.4060  0.3129
  554HK4    C2046509   7.210   3.937   3.223 -0.2365 -0.1498 -0.1233
  554HK4     H946510   7.172   3.835   3.236  0.8098 -0.6633 -0.9621
  554HK4    C1946511   7.340   3.967   3.262 -0.3526 -0.2446  0.3406
  554HK4    C1846512   7.389   4.100   3.231  0.0440 -0.4152  0.2343
  554HK4    C1746513   7.299   4.191   3.178  0.2992 -0.3297 -0.0538
  554HK4     H846514   7.342   4.284   3.141  1.2408 -0.3304  0.9948
  554HK4     N146515   7.529   4.110   3.239  0.0476 -0.1234 -0.1917
  554HK4    C2146516   7.573   3.978   3.260 -0.3082 -0.2654 -0.3507
  554HK4    C2246517   7.461   3.895   3.298 -0.2355 -0.0744  0.2873
  554HK4    C2646518   7.479   3.764   3.340 -0.1734 -0.3196 -0.4958
  554HK4    H1346519   7.390   3.705   3.364  0.2548 -0.3445  1.0770
  554HK4    C2546520   7.607   3.711   3.351 -0.1979 -0.1765  0.4756
  554HK4    H1246521   7.619   3.603   3.342  0.1503 -0.0585 -0.4186
  554HK4    C2446522   7.715   3.791   3.317  0.1042 -0.8414 -0.1628
  554HK4    H1146523   7.810   3.739   3.334 -0.1225 -0.7151  1.6492
  554HK4    C2346524   7.699   3.921   3.268 -0.6145 -0.9209 -0.1587
  554HK4    H1046525   7.791   3.977   3.249  0.5368 -2.9362 -0.7481
  554HK4    C3946526   7.580   4.223   3.305  0.1595  0.0257 -0.5298
  554HK4    C4146527   7.505   4.309   3.389  0.2473 -0.2239 -0.1954
  554HK4    H2146528   7.416   4.263   3.434  1.3600 -3.2891 -0.9616
  554HK4    C4246529   7.540   4.440   3.414 -0.3613  0.0143 -0.5616
  554HK4    H2246530   7.461   4.508   3.451  1.4250  1.2260  1.1843
  554HK4    C4346531   7.659   4.495   3.367 -0.3596 -0.1719 -0.7730
  554HK4    H2346532   7.696   4.583   3.420 -2.0871 -0.2228  0.5548
  554HK4    C4446533   7.739   4.414   3.287  0.7035  0.3459 -0.2394
  554HK4    H2446534   7.835   4.453   3.252  0.7733 -0.1617 -0.6244
  554HK4    C4546535   7.698   4.284   3.258  0.1227  0.4789 -0.0310
  554HK4    H2546536   7.762   4.223   3.193 -0.5406  2.2972 -2.4517
  555HK4    H2846537   1.834  10.016   6.406  1.7693 -0.5908  0.8644
  555HK4    C4846538   1.794  10.063   6.495 -0.2100  0.3667 -0.4804
  555HK4    C4746539   1.659  10.091   6.511 -0.1354  0.6375 -0.3034
  555HK4    H2746540   1.594  10.076   6.423 -0.8237  0.2637  0.2572
  555HK4    C4646541   1.604  10.166   6.614 -0.1658  0.4022 -0.1478
  555HK4    H2646542   1.501  10.204   6.612  0.1449  1.2508 -0.2851
  555HK4    C4046543   1.696  10.220   6.707  0.0625  0.1940 -0.2528
  555HK4    C5046544   1.833  10.189   6.695  0.0246 -0.3046  0.5820
  555HK4    H3046545   1.906  10.234   6.764 -1.2092  2.4237  0.1835
  555HK4    C4946546   1.882  10.106   6.594 -0.4198  0.5950 -0.3933
  555HK4    H2946547   1.990  10.101   6.574 -0.3786  1.5664 -0.4131
  555HK4     N246548   1.660  10.334   6.780  0.0706 -0.4694  0.7937
  555HK4    C3046549   1.553  10.423   6.757  0.3343 -0.3527  0.0110
  555HK4    C2946550   1.503  10.464   6.634  0.0654  0.2917  0.3342
  555HK4    H1546551   1.532  10.411   6.543  0.0820 -0.3642  0.7235
  555HK4    C2846552   1.411  10.567   6.616 -0.3356 -0.1431 -0.1556
  555HK4    C2746553   1.372  10.633   6.735  0.2263  0.5204 -0.3323
  555HK4    H1446554   1.324  10.731   6.735 -0.4166  0.2106  0.6331
  555HK4    C3246555   1.419  10.595   6.861 -0.3255 -0.6464 -0.4698
  555HK4    H1646556   1.378  10.646   6.948 -0.4398 -1.3350 -0.1151
  555HK4    C3146557   1.519  10.500   6.875 -0.0915 -0.3498 -0.1146
  555HK4    C3446558   1.611  10.451   6.976  0.4519  0.7740 -0.0637
  555HK4    C3346559   1.697  10.352   6.915  0.4323  0.3510  0.5854
  555HK4    C3546560   1.773  10.275   7.002 -0.2603 -0.6679  0.2904
  555HK4    H1746561   1.857  10.221   6.959  2.3625  1.7642  2.1729
  555HK4    C3646562   1.773  10.287   7.141  0.4096  0.4114  0.2043
  555HK4    H1846563   1.854  10.246   7.202 -0.1187 -1.7820 -0.4760
  555HK4    C3746564   1.688  10.382   7.195  0.4116  0.5901 -0.1058
  555HK4    H1946565   1.675  10.390   7.303  1.8789  1.0645  0.0533
  555HK4    C3846566   1.607  10.461   7.115 -0.2940 -0.0467 -0.0220
  555HK4    H2046567   1.556  10.547   7.159  0.9619  0.6660  0.0847
  555HK4    C1446568   1.371  10.601   6.479 -0.7263  0.1460  0.0303
  555HK4     C946569   1.328  10.727   6.435 -0.1037  0.3665  0.0578
  555HK4     C846570   1.227  10.738   6.338 -0.2543  0.1362  0.1880
  555HK4    C1146571   1.179  10.619   6.284  0.3635  0.1614 -0.4272
  555HK4     H446572   1.094  10.626   6.214 -0.0039 -0.1349 -0.0107
  555HK4    C1246573   1.229  10.492   6.309 -1.0929 -0.2351  0.4853
  555HK4     H546574   1.207  10.405   6.246  1.6185 -0.3521 -0.3154
  555HK4    C1346575   1.323  10.487   6.412  0.0389  0.1467 -0.5285
  555HK4     H646576   1.367  10.388   6.430 -1.1082 -0.4202 -0.8036
  555HK4     C746577   1.195  10.864   6.267 -0.5518 -0.1348 -0.1609
  555HK4     O246578   1.081  10.892   6.228 -0.6124 -0.0943  0.0434
  555HK4     C446579   1.301  10.967   6.265 -0.2360 -0.4546  0.1099
  555HK4     C346580   1.292  11.067   6.170  0.5191 -0.3624  0.1281
  555HK4     H346581   1.194  11.101   6.131  1.7170 -1.4432 -4.0475
  555HK4     C246582   1.398  11.155   6.152  0.2987 -0.1241 -0.0053
  555HK4     H246583   1.405  11.216   6.060  0.9059 -0.4029 -0.1481
  555HK4     C146584   1.514  11.140   6.227  0.6480 -0.2436 -0.5672
  555HK4     H146585   1.593  11.215   6.211 -0.9466  1.4813 -0.6349
  555HK4     C646586   1.525  11.040   6.326  0.0296 -0.0728 -0.3239
  555HK4     C546587   1.412  10.961   6.352 -0.1265  0.2606  0.0169
  555HK4    C1046588   1.414  10.848   6.448 -0.0963  0.3565  0.1261
  555HK4     O146589   1.446  10.884   6.562 -0.1858 -0.0482  0.2814
  555HK4    C1646590   1.642  11.059   6.412  0.2330  0.2642 -0.6721
  555HK4    C1546591   1.698  11.185   6.443 -0.1351  0.2410  0.0952
  555HK4     H746592   1.635   0.021   6.477 -0.9596  0.2478 -1.3945
  555HK4    C2046593   1.835  11.204   6.441 -0.1101  0.0032 -0.7253
  555HK4     H946594   1.881   0.050   6.474 -0.6658  0.1864 -0.4668
  555HK4    C1946595   1.921  11.095   6.426 -0.3131 -0.2429 -0.1432
  555HK4    C1846596   1.866  10.961   6.430  0.1151 -0.4074  0.1648
  555HK4    C1746597   1.729  10.951   6.408  0.1172  0.1471 -0.1073
  555HK4     H846598   1.699  10.847   6.405 -1.8215  0.6332  1.2624
  555HK4     N146599   1.964  10.864   6.401  0.0637 -0.3805 -0.0997
  555HK4    C2146600   2.076  10.936   6.356  0.1935 -0.2955  0.3611
  555HK4    C2246601   2.058  11.078   6.384 -0.2550 -0.2945  0.0680
  555HK4    C2646602   2.158  11.164   6.339  0.4458 -0.7747  0.6907
  555HK4    H1346603   2.143   0.023   6.351 -1.1191 -0.8172 -0.6961
  555HK4    C2546604   2.274  11.118   6.277  0.5240 -0.0643  0.3124
  555HK4    H1246605   2.367  11.174   6.268  2.1111 -2.5651  0.6407
  555HK4    C2446606   2.284  10.984   6.243  0.3966 -0.0544  0.2288
  555HK4    H1146607   2.341  10.964   6.151  0.1110  0.7780 -0.1301
  555HK4    C2346608   2.190  10.892   6.289  0.2424  0.0861  0.1898
  555HK4    H1046609   2.209  10.786   6.272  0.4431  0.6894 -4.0091
  555HK4    C3946610   1.968  10.740   6.466 -0.1377 -0.2845  0.0977
  555HK4    C4146611   2.050  10.633   6.424 -0.0400 -0.2576  0.2205
  555HK4    H2146612   2.087  10.637   6.320  2.9905 -0.1174  1.2581
  555HK4    C4246613   2.071  10.528   6.512  0.5583 -0.2771  0.0571
  555HK4    H2246614   2.133  10.444   6.476 -0.5134 -1.4665  0.9245
  555HK4    C4346615   2.015  10.516   6.639  0.1679 -0.2622 -0.1156
  555HK4    H2346616   2.034  10.430   6.702  1.7035  0.3968  0.3477
  555HK4    C4446617   1.932  10.620   6.679  0.4671 -0.2877  0.5757
  555HK4    H2446618   1.887  10.618   6.779 -0.9505  0.8845 -0.0184
  555HK4    C4546619   1.913  10.730   6.596  0.1188 -0.6433  0.1818
  555HK4    H2546620   1.844  10.810   6.626  2.0650  1.1883 -0.0621
  556HK4    H2846621   4.690   3.113   9.226 -3.1309 -0.5167  0.7266
  556HK4    C4846622   4.688   3.204   9.286 -0.2558 -0.0135  0.1264
  556HK4    C4746623   4.801   3.260   9.343 -0.3065 -0.0141  0.2270
  556HK4    H2746624   4.894   3.201   9.346  0.7042  1.5414  0.0318
  556HK4    C4646625   4.798   3.382   9.409 -0.0221 -0.0085  0.2309
  556HK4    H2646626   4.877   3.407   9.482  0.8084  2.7019 -1.5341
  556HK4    C4046627   4.676   3.453   9.419  0.0163  0.1696 -0.5755
  556HK4    C5046628   4.564   3.399   9.353 -0.4023 -0.1509  0.3945
  556HK4    H3046629   4.473   3.458   9.333  0.5907  1.2981  0.1489
  556HK4    C4946630   4.567   3.272   9.295 -0.2589 -0.0173  0.1134
  556HK4    H2946631   4.472   3.218   9.290  0.3053 -1.0277  0.2228
  556HK4     N246632   4.670   3.582   9.473  0.1152  0.0810 -0.3563
  556HK4    C3046633   4.777   3.672   9.491  0.0700  0.0511  0.0503
  556HK4    C2946634   4.901   3.668   9.429  0.0834  0.0518  0.0782
  556HK4    H1546635   4.911   3.606   9.340  0.7811  0.4285 -0.1122
  556HK4    C2846636   5.015   3.727   9.484  0.1400  0.6135 -0.6329
  556HK4    C2746637   4.996   3.808   9.598  0.6816 -0.0847 -0.0472
  556HK4    H1446638   5.087   3.850   9.644  1.0753 -0.9596 -0.0187
  556HK4    C3246639   4.873   3.823   9.660  0.3728 -0.6671 -0.5115
  556HK4    H1646640   4.866   3.875   9.756  0.7652  0.7855 -1.2577
  556HK4    C3146641   4.763   3.755   9.610 -0.3995  0.3373 -0.2002
  556HK4    C3446642   4.629   3.723   9.656 -0.1778 -0.4340 -0.0845
  556HK4    C3346643   4.576   3.618   9.571 -0.0086 -0.3277 -0.3213
  556HK4    C3546644   4.451   3.567   9.606 -0.2034 -0.1072 -0.6958
  556HK4    H1746645   4.445   3.460   9.588 -0.2250 -0.5982  1.9851
  556HK4    C3646646   4.379   3.616   9.714 -0.3114 -0.0350 -0.7999
  556HK4    H1846647   4.292   3.560   9.751  0.0998  0.8457  1.6089
  556HK4    C3746648   4.423   3.723   9.792 -0.3404 -0.5241 -0.1032
  556HK4    H1946649   4.346   3.784   9.838 -2.3026 -1.8904 -1.5112
  556HK4    C3846650   4.547   3.774   9.756 -0.3569 -0.5362 -0.1778
  556HK4    H2046651   4.579   3.869   9.798 -0.3589 -0.2534 -0.8164
  556HK4    C1446652   5.145   3.710   9.417  0.3353  0.5315 -0.2295
  556HK4     C946653   5.264   3.711   9.490  0.0711 -0.2806  0.2231
  556HK4     C846654   5.376   3.775   9.432 -0.3199  0.4331  0.2567
  556HK4    C1146655   5.362   3.837   9.309  0.8664  0.2927  0.0496
  556HK4     H446656   5.437   3.912   9.281  1.3351 -0.0349  0.4096
  556HK4    C1246657   5.250   3.819   9.228  0.6897  0.1733  0.3262
  556HK4     H546658   5.261   3.843   9.122 -1.1814 -0.3474 -0.0048
  556HK4    C1346659   5.138   3.759   9.285  0.5821 -0.5678 -0.6542
  556HK4     H646660   5.056   3.727   9.219  0.7466  0.2905 -1.2815
  556HK4     C746661   5.512   3.737   9.475 -0.2500  0.0271 -0.3277
  556HK4     O246662   5.611   3.803   9.445  0.2201 -0.3338  0.4134
  556HK4     C446663   5.523   3.628   9.575  0.2483  0.6319  0.2883
  556HK4     C346664   5.645   3.565   9.599 -0.3220 -0.3532  0.6394
  556HK4     H346665   5.725   3.560   9.524 -0.6249  0.2777  0.2700
  556HK4     C246666   5.667   3.478   9.705  0.4365 -0.3186  0.5064
  556HK4     H246667   5.760   3.420   9.712  0.9505  0.5368  0.8535
  556HK4     C146668   5.562   3.461   9.793  0.0882 -0.2731  0.1035
  556HK4     H146669   5.580   3.380   9.866 -0.7115  1.2317  2.0266
  556HK4     C646670   5.444   3.538   9.787 -0.1204 -0.6103 -0.1561
  556HK4     C546671   5.418   3.600   9.664  0.1442 -0.5772 -0.2004
  556HK4    C1046672   5.283   3.616   9.603  0.0131 -0.3949  0.1355
  556HK4     O146673   5.207   3.521   9.622 -0.8040  0.2204 -0.0602
  556HK4    C1646674   5.393   3.577   9.920 -0.0217  0.0647 -0.3117
  556HK4    C1546675   5.480   3.583  10.030 -0.2309  0.1854 -0.1534
  556HK4     H746676   5.581   3.623  10.008  0.8804 -2.2487  0.3601
  556HK4    C2046677   5.442   3.562  10.162  0.2329 -0.3902 -0.1115
  556HK4     H946678   5.521   3.568  10.237  2.3693  0.0669 -2.3585
  556HK4    C1946679   5.308   3.537  10.191  0.0139  0.4687 -0.3483
  556HK4    C1846680   5.213   3.535  10.082  0.0243 -0.1669 -0.3525
  556HK4    C1746681   5.261   3.548   9.952  0.1305 -0.7170 -0.3689
  556HK4     H846682   5.186   3.524   9.878 -1.4649 -0.4994  1.1354
  556HK4     N146683   5.079   3.536  10.125  0.0953  0.1504 -0.1395
  556HK4    C2146684   5.087   3.519  10.265 -0.1001 -0.2996 -0.1819
  556HK4    C2246685   5.225   3.521  10.309  0.0291 -1.1108 -0.5353
  556HK4    C2646686   5.253   3.483  10.440 -0.6278  0.1818 -0.0113
  556HK4    H1346687   5.355   3.468  10.475  0.6091  2.4337 -2.5063
  556HK4    C2546688   5.149   3.453  10.528 -0.4347 -0.1309  0.1100
  556HK4    H1246689   5.152   3.458  10.636  1.4962 -1.2081  0.1209
  556HK4    C2446690   5.017   3.449  10.485 -0.5450  0.5081  0.3799
  556HK4    H1146691   4.933   3.414  10.547 -0.9520 -0.3979 -0.6623
  556HK4    C2346692   4.987   3.480  10.353 -0.1557  1.3182  0.4851
  556HK4    H1046693   4.884   3.490  10.319  0.3280  2.0744 -0.7951
  556HK4    C3946694   4.986   3.626  10.070  0.2273  0.4338  0.0984
  556HK4    C4146695   4.852   3.583  10.079  0.2331  0.3448 -0.2536
  556HK4    H2146696   4.823   3.477  10.083  1.7048 -0.0116  1.7158
  556HK4    C4246697   4.748   3.671  10.051 -0.0522  0.2131  0.3881
  556HK4    H2246698   4.652   3.630  10.016  0.0733  0.4483 -0.2294
  556HK4    C4346699   4.783   3.801  10.017 -0.2499  0.1428 -0.0776
  556HK4    H2346700   4.703   3.874  10.010 -0.7223 -0.4607 -1.1597
  556HK4    C4446701   4.915   3.840   9.996  0.0700 -0.5787  0.5723
  556HK4    H2446702   4.934   3.945   9.967 -2.8934 -0.0226  0.4777
  556HK4    C4546703   5.021   3.755  10.025  0.8801  0.0158 -0.6002
  556HK4    H2546704   5.120   3.797  10.045  0.3957  1.3288 -0.9472
  557HK4    H2846705   4.670   9.819   1.847 -1.5082 -0.1716  0.2891
  557HK4    C4846706   4.642   9.864   1.751 -0.7841 -0.4199 -0.0440
  557HK4    C4746707   4.627  10.002   1.744  0.5338 -0.2572  0.1541
  557HK4    H2746708   4.664  10.080   1.812 -1.3359  1.0008 -0.2418
  557HK4    C4646709   4.545  10.046   1.640  0.8908 -0.4034 -0.1901
  557HK4    H2646710   4.495  10.143   1.658  1.6596  0.2677 -1.5514
  557HK4    C4046711   4.498   9.968   1.533  0.1402 -0.0793 -0.1003
  557HK4    C5046712   4.531   9.831   1.539 -0.0722 -0.1213  0.1992
  557HK4    H3046713   4.505   9.761   1.459  2.0458  1.4029 -1.9201
  557HK4    C4946714   4.599   9.780   1.649 -0.4112 -0.7860  0.1012
  557HK4    H2946715   4.622   9.672   1.649 -2.5889 -1.2644 -0.2017
  557HK4     N246716   4.453  10.019   1.411  0.3227 -0.1205 -0.1841
  557HK4    C3046717   4.485  10.144   1.352 -0.5885  0.2933  0.1842
  557HK4    C2946718   4.568  10.245   1.400 -0.1972 -0.0281  0.1943
  557HK4    H1546719   4.626  10.228   1.490  1.0852  1.6096 -0.3040
  557HK4    C2846720   4.592  10.360   1.326 -0.5620  0.1623  0.3713
  557HK4    C2746721   4.524  10.376   1.203 -0.2593  0.5181  0.2495
  557HK4    H1446722   4.559  10.453   1.132 -2.7166  0.2187 -1.3312
  557HK4    C3246723   4.433  10.283   1.155  0.3895  0.1267 -0.2494
  557HK4    H1646724   4.345  10.318   1.101 -1.4128 -0.9615  1.8881
  557HK4    C3146725   4.408  10.170   1.232 -0.0132  0.2473 -0.1957
  557HK4    C3446726   4.304  10.069   1.232  0.2453 -0.0192  0.0858
  557HK4    C3346727   4.343   9.975   1.335  0.0299 -0.0106  0.1756
  557HK4    C3546728   4.259   9.865   1.344 -0.3553  0.3104  0.5176
  557HK4    H1746729   4.289   9.784   1.411 -1.0321 -0.0326  0.4109
  557HK4    C3646730   4.144   9.843   1.269  0.0455 -0.5471  0.1545
  557HK4    H1846731   4.070   9.769   1.302 -1.7641  1.8964  1.6928
  557HK4    C3746732   4.106   9.942   1.180  0.3864  0.3359  0.9861
  557HK4    H1946733   4.020   9.929   1.114 -0.0567  1.2057  1.3860
  557HK4    C3846734   4.185  10.056   1.162 -0.0619  0.5726  0.4944
  557HK4    H2046735   4.150  10.120   1.081 -0.1400 -1.8221 -1.4208
  557HK4    C1446736   4.657  10.477   1.387 -0.1686  0.0606  0.1543
  557HK4     C946737   4.613  10.603   1.346  0.0122  0.2313  0.4829
  557HK4     C846738   4.706  10.709   1.346 -0.0025  0.2479 -0.1835
  557HK4    C1146739   4.836  10.686   1.390 -0.1681  0.2673  0.3328
  557HK4     H446740   4.896  10.776   1.411  0.9361 -0.0384 -1.3416
  557HK4    C1246741   4.877  10.562   1.438 -0.0546  0.3242  0.3804
  557HK4     H546742   4.981  10.550   1.473 -0.3702 -3.2656  0.2382
  557HK4    C1346743   4.786  10.458   1.441 -0.0100  0.2712 -0.1477
  557HK4     H646744   4.801  10.360   1.488 -0.5892  0.0983 -0.3075
  557HK4     C746745   4.671  10.845   1.299 -0.4876  0.1789 -0.0225
  557HK4     O246746   4.762  10.926   1.282 -0.3178 -0.0319 -0.1309
  557HK4     C446747   4.530  10.871   1.265 -0.5263  0.0501  0.0344
  557HK4     C346748   4.493  10.994   1.211 -0.2571  0.0224 -0.2136
  557HK4     H346749   4.556  11.082   1.233  0.1955 -0.0211 -1.2782
  557HK4     C246750   4.375  11.022   1.143  0.1671  0.1783 -0.8845
  557HK4     H246751   4.351  11.124   1.107 -1.7963  0.5200  1.3102
  557HK4     C146752   4.287  10.916   1.132  0.0631  0.2659 -0.9029
  557HK4     H146753   4.187  10.927   1.087  0.9468  0.2982 -2.9235
  557HK4     C646754   4.317  10.791   1.190  0.1824  0.4322 -0.6099
  557HK4     C546755   4.432  10.770   1.268 -0.5655  0.0980  0.4053
  557HK4    C1046756   4.469  10.638   1.326  0.0343  0.2340  0.3282
  557HK4     O146757   4.387  10.581   1.397  0.1848  0.0437  0.3500
  557HK4    C1646758   4.244  10.681   1.127  0.1273 -0.0067  0.2079
  557HK4    C1546759   4.235  10.658   0.988  0.1992 -0.6081  0.3002
  557HK4     H746760   4.293  10.708   0.909  0.4821 -1.1283  0.1766
  557HK4    C2046761   4.145  10.566   0.935  0.1674 -0.1459 -0.4618
  557HK4     H946762   4.124  10.573   0.828 -2.0720  3.9828  0.1510
  557HK4    C1946763   4.067  10.484   1.015  0.7176 -0.2421 -0.0264
  557HK4    C1846764   4.071  10.507   1.158 -0.0125 -0.2474 -0.0044
  557HK4    C1746765   4.154  10.609   1.205 -0.1325 -0.0778 -0.1540
  557HK4     H846766   4.155  10.617   1.314  0.1537 -0.5621 -0.1155
  557HK4     N146767   3.999  10.405   1.223  0.6695 -0.5264  0.3179
  557HK4    C2146768   3.946  10.321   1.123  0.0928  0.0821  0.1119
  557HK4    C2246769   3.993  10.362   0.992  0.1754  0.0552  0.1342
  557HK4    C2646770   3.968  10.282   0.881 -0.2586  0.3062  0.0523
  557HK4    H1346771   3.993  10.311   0.778 -0.3411  2.1388  0.5255
  557HK4    C2546772   3.896  10.164   0.896  0.3169 -0.1059 -0.4044
  557HK4    H1246773   3.884  10.107   0.804  2.3297  0.3732 -0.9936
  557HK4    C2446774   3.845  10.124   1.019 -0.5476  0.7093 -0.4962
  557HK4    H1146775   3.781  10.036   1.028  1.3675 -0.6030  0.6200
  557HK4    C2346776   3.880  10.199   1.131 -0.3713  0.3005 -0.2802
  557HK4    H1046777   3.874  10.148   1.228  1.2676  1.6922  0.5759
  557HK4    C3946778   4.021  10.376   1.358 -0.1115 -0.1078  0.5373
  557HK4    C4146779   3.908  10.354   1.439 -0.2403 -0.1810  0.3368
  557HK4    H2146780   3.813  10.372   1.387  0.9913 -0.4012 -2.0543
  557HK4    C4246781   3.922  10.301   1.567  0.1004 -0.0942  0.3342
  557HK4    H2246782   3.833  10.283   1.629  0.6444  2.3653  1.8954
  557HK4    C4346783   4.049  10.263   1.608  0.2355  0.3714  0.3455
  557HK4    H2346784   4.066  10.214   1.704 -0.4344 -0.0143  0.2627
  557HK4    C4446785   4.160  10.275   1.525  0.1468  0.6207  0.2579
  557HK4    H2446786   4.256  10.233   1.561 -1.5640 -2.7727  1.1284
  557HK4    C4546787   4.148  10.331   1.399  0.1755  0.3237  0.1214
  557HK4    H2546788   4.245  10.361   1.356  0.1386 -0.9790 -0.8986
  558HK4    H2846789   6.496  10.254   8.249 -2.8048 -1.4240 -3.2407
  558HK4    C4846790   6.549  10.159   8.254 -0.1664  0.1164 -0.2560
  558HK4    C4746791   6.503  10.064   8.345 -0.1466 -0.0025 -0.3712
  558HK4    H2746792   6.413  10.093   8.402 -0.0176  0.8015 -0.5669
  558HK4    C4646793   6.572   9.943   8.351 -0.4658 -0.2020 -0.6952
  558HK4    H2646794   6.530   9.870   8.421  1.6843 -2.0985 -1.3336
  558HK4    C4046795   6.686   9.905   8.278  0.4770  0.3307  0.4982
  558HK4    C5046796   6.724  10.003   8.184 -0.2682 -0.2393 -0.4012
  558HK4    H3046797   6.808   9.984   8.116 -0.4011 -0.6570 -0.4509
  558HK4    C4946798   6.658  10.125   8.176  0.3524  0.1608  0.4410
  558HK4    H2946799   6.676  10.186   8.086 -1.3108 -0.4652 -0.3358
  558HK4     N246800   6.765   9.792   8.303  0.1785  0.0573  0.2129
  558HK4    C3046801   6.766   9.736   8.433 -0.7674 -0.3581  0.0442
  558HK4    C2946802   6.786   9.794   8.557 -0.1059 -0.3068 -0.0830
  558HK4    H1546803   6.806   9.901   8.552 -0.4397 -0.1772  1.1219
  558HK4    C2846804   6.793   9.721   8.675  0.1324  0.1517  0.1927
  558HK4    C2746805   6.786   9.580   8.661  0.4547  0.1584  0.0009
  558HK4    H1446806   6.804   9.511   8.745  0.8652 -1.4739 -1.4199
  558HK4    C3246807   6.781   9.518   8.537 -0.1674  0.0539  0.0776
  558HK4    H1646808   6.795   9.410   8.542  1.3565  0.2455  0.2645
  558HK4    C3146809   6.775   9.592   8.419  0.1811 -0.2819 -0.1553
  558HK4    C3446810   6.787   9.563   8.278 -0.0803 -0.1892 -0.1994
  558HK4    C3346811   6.781   9.690   8.207  0.0944  0.0494  0.2104
  558HK4    C3546812   6.819   9.707   8.075 -0.2000  0.5691  0.1901
  558HK4    H1746813   6.808   9.797   8.014 -0.8518  1.0970  1.0717
  558HK4    C3646814   6.864   9.591   8.012 -0.1498  0.7828 -0.1666
  558HK4    H1846815   6.880   9.610   7.905 -0.6606  1.2407 -0.1683
  558HK4    C3746816   6.878   9.470   8.079 -0.7414  0.6441 -0.2994
  558HK4    H1946817   6.911   9.383   8.023  0.9473  2.4559 -2.2126
  558HK4    C3846818   6.837   9.452   8.211 -0.4753 -0.2799 -0.3410
  558HK4    H2046819   6.839   9.355   8.261 -0.2013 -0.0881  0.0215
  558HK4    C1446820   6.816   9.792   8.801  0.0922  0.2258  0.1600
  558HK4     C946821   6.863   9.731   8.918  0.2368  0.0849  0.0273
  558HK4     C846822   6.830   9.770   9.050 -0.1008 -0.0860 -0.0102
  558HK4    C1146823   6.753   9.884   9.066  0.5296  0.3366  0.0582
  558HK4     H446824   6.730   9.928   9.165 -0.2154  1.1426 -0.4616
  558HK4    C1246825   6.705   9.952   8.955 -0.2266 -0.3307 -0.0215
  558HK4     H546826   6.626  10.029   8.958 -1.3943 -1.4923 -0.4940
  558HK4    C1346827   6.738   9.907   8.828 -0.6250 -0.1772 -0.1859
  558HK4     H646828   6.715   9.973   8.744 -0.5704 -1.2176 -1.0312
  558HK4     C746829   6.862   9.677   9.161 -0.2058  0.0520  0.1371
  558HK4     O246830   6.798   9.683   9.265  0.0290 -0.0777  0.2884
  558HK4     C446831   6.947   9.560   9.132  0.3215  0.5985 -0.5557
  558HK4     C346832   6.979   9.471   9.234  0.0290  0.3338 -0.6968
  558HK4     H346833   6.932   9.469   9.334 -0.6717 -0.3000 -1.0272
  558HK4     C246834   7.066   9.363   9.220  0.5143  0.6062  0.1883
  558HK4     H246835   7.104   9.307   9.306  3.5996  1.4726 -0.5474
  558HK4     C146836   7.102   9.328   9.090 -0.2538 -0.6373  0.3080
  558HK4     H146837   7.163   9.239   9.067 -0.0360 -0.6246  0.8104
  558HK4     C646838   7.065   9.402   8.977  0.2124 -0.1807  0.4543
  558HK4     C546839   6.999   9.522   9.006 -0.0914 -0.1045 -0.5183
  558HK4    C1046840   6.966   9.625   8.903 -0.3012 -0.3422 -0.6879
  558HK4     O146841   7.064   9.659   8.837 -0.0424  0.1779 -0.0396
  558HK4    C1646842   7.048   9.330   8.850  0.4962 -1.0587  0.9116
  558HK4    C1546843   7.002   9.197   8.855 -1.0284 -0.5558  0.4779
  558HK4     H746844   6.927   9.167   8.930 -0.6590  1.9226  1.9175
  558HK4    C2046845   7.035   9.094   8.768  0.1310 -0.1920  0.4927
  558HK4     H946846   7.017   8.990   8.793  2.5492 -0.9282 -0.6836
  558HK4    C1946847   7.118   9.129   8.662 -0.2305 -0.5012  0.1096
  558HK4    C1846848   7.171   9.263   8.650 -0.4821 -0.3620  0.5757
  558HK4    C1746849   7.130   9.360   8.741  0.0565 -0.3219  0.7797
  558HK4     H846850   7.150   9.465   8.720 -1.4486 -0.3532 -0.9186
  558HK4     N146851   7.256   9.282   8.539 -0.5789  0.3534  0.6204
  558HK4    C2146852   7.279   9.150   8.497  0.1546  0.6995 -0.0825
  558HK4    C2246853   7.184   9.057   8.555  0.4661  0.3892 -0.0676
  558HK4    C2646854   7.184   8.924   8.514  0.7112  0.1317  0.7500
  558HK4    H1346855   7.096   8.861   8.526 -0.4148  0.7478 -3.3042
  558HK4    C2546856   7.280   8.878   8.425 -0.3270 -0.5563 -0.0302
  558HK4    H1246857   7.303   8.772   8.434  1.3613 -0.2043  0.0278
  558HK4    C2446858   7.368   8.969   8.367 -0.6359 -0.0607  0.2843
  558HK4    H1146859   7.433   8.937   8.285 -2.8688 -0.8023 -1.2680
  558HK4    C2346860   7.375   9.102   8.408 -0.2496  0.0610 -0.1759
  558HK4    H1046861   7.441   9.166   8.351  2.4243 -2.1512  0.3003
  558HK4    C3946862   7.264   9.391   8.452  0.1157  0.2415  0.5482
  558HK4    C4146863   7.385   9.421   8.386 -0.2192  0.2900 -0.0515
  558HK4    H2146864   7.475   9.396   8.444 -1.1449  0.5208  1.5184
  558HK4    C4246865   7.392   9.488   8.264 -0.3116  0.0124 -0.2095
  558HK4    H2246866   7.490   9.486   8.215 -0.7708 -4.5452 -1.0896
  558HK4    C4346867   7.278   9.543   8.206 -0.3796  0.7668  0.6155
  558HK4    H2346868   7.283   9.620   8.130 -2.6073 -0.8208 -1.2453
  558HK4    C4446869   7.159   9.513   8.272 -0.5677 -0.3324 -0.1975
  558HK4    H2446870   7.070   9.518   8.206  1.2096  1.1012 -2.5854
  558HK4    C4546871   7.148   9.446   8.393  0.2994  0.2879  0.2255
  558HK4    H2546872   7.053   9.460   8.445 -1.8839  0.2584 -3.5782
  559HK4    H2846873   5.549   2.863   7.740 -1.2257  0.7504 -1.5538
  559HK4    C4846874   5.623   2.942   7.746 -0.6387  0.0907  0.2401
  559HK4    C4746875   5.614   3.051   7.659 -0.0290  0.2952  0.4310
  559HK4    H2746876   5.559   3.031   7.566 -0.3522  0.2648  0.6276
  559HK4    C4646877   5.679   3.170   7.689 -0.6691  0.5521  0.8283
  559HK4    H2646878   5.652   3.267   7.646  0.2046  1.1188  1.5432
  559HK4    C4046879   5.755   3.180   7.807  0.2430  0.0144  0.3006
  559HK4    C5046880   5.776   3.064   7.885 -0.5295  0.2159  0.8214
  559HK4    H3046881   5.820   3.077   7.985 -0.8449  0.5288  0.9235
  559HK4    C4946882   5.708   2.947   7.856 -0.6312  0.4209  0.2221
  559HK4    H2946883   5.722   2.854   7.913 -0.6224 -0.2209 -0.8251
  559HK4     N246884   5.847   3.283   7.830  0.1203  0.1540  0.1738
  559HK4    C3046885   5.928   3.341   7.730  0.2966  0.0725  0.2692
  559HK4    C2946886   5.967   3.311   7.600  0.0169 -0.0677  0.2182
  559HK4    H1546887   5.905   3.239   7.546 -1.6787  1.7263 -0.2881
  559HK4    C2846888   6.074   3.362   7.528 -0.0102 -0.2424  0.0523
  559HK4    C2746889   6.145   3.464   7.596 -0.0745 -0.2122  0.0720
  559HK4    H1446890   6.226   3.512   7.540 -1.5083  1.0308 -0.9843
  559HK4    C3246891   6.105   3.511   7.721  0.0320  0.9140 -0.3154
  559HK4    H1646892   6.152   3.606   7.746 -1.5013  1.3736  0.8233
  559HK4    C3146893   6.002   3.450   7.791  0.7464 -0.0383 -0.0763
  559HK4    C3446894   5.946   3.472   7.923  0.3029  0.0920 -0.2862
  559HK4    C3346895   5.858   3.360   7.948  0.0494  0.3620  0.0434
  559HK4    C3546896   5.773   3.373   8.057 -0.2478  0.1988 -0.1669
  559HK4    H1746897   5.696   3.297   8.067  0.5605 -0.7990 -1.3858
  559HK4    C3646898   5.764   3.487   8.137 -0.1730  0.1459 -0.0860
  559HK4    H1846899   5.705   3.484   8.230 -1.0802 -0.7469 -0.6764
  559HK4    C3746900   5.853   3.590   8.113  0.0470  0.0174  0.1680
  559HK4    H1946901   5.857   3.678   8.178  1.0002  1.6086 -1.9667
  559HK4    C3846902   5.945   3.582   8.009  0.1901 -0.3835  0.3276
  559HK4    H2046903   6.015   3.662   7.985 -0.5912  0.6533  1.4546
  559HK4    C1446904   6.134   3.292   7.414 -0.0631 -0.3880  0.1128
  559HK4     C946905   6.270   3.280   7.380 -0.1452 -0.8778 -0.0387
  559HK4     C846906   6.302   3.262   7.244 -0.0515  0.9344 -0.2743
  559HK4    C1146907   6.210   3.220   7.149 -0.3035  0.0767  0.3470
  559HK4     H446908   6.248   3.200   7.048 -0.8948  0.9740 -0.0553
  559HK4    C1246909   6.076   3.217   7.187 -0.4291  0.5376 -0.0359
  559HK4     H546910   6.002   3.186   7.111  1.4961 -1.0559 -1.3231
  559HK4    C1346911   6.040   3.262   7.314 -0.2586  0.5393  0.0127
  559HK4     H646912   5.931   3.250   7.327 -0.3969 -2.1701 -2.9666
  559HK4     C746913   6.445   3.280   7.208  0.0518  0.3270 -0.1789
  559HK4     O246914   6.470   3.306   7.091  0.9709 -0.0578 -0.0757
  559HK4     C446915   6.553   3.295   7.308 -0.1021 -1.2464  0.2454
  559HK4     C346916   6.685   3.313   7.268 -0.2051 -0.2357  0.3334
  559HK4     H346917   6.709   3.298   7.161 -0.2731 -0.4509  0.3479
  559HK4     C246918   6.787   3.332   7.360 -0.0464  0.3550  0.0384
  559HK4     H246919   6.889   3.303   7.333  0.0173  0.6779 -0.0723
  559HK4     C146920   6.751   3.341   7.494 -0.1951  0.0518  0.0208
  559HK4     H146921   6.825   3.363   7.572  1.0056  2.3269 -1.7026
  559HK4     C646922   6.616   3.340   7.535 -0.2279  0.2910 -0.0806
  559HK4     C546923   6.518   3.299   7.445  0.0351 -1.1513  0.2806
  559HK4    C1046924   6.376   3.273   7.484 -0.1825 -0.3455  0.0354
  559HK4     O146925   6.351   3.201   7.580 -0.2376 -0.5450 -0.1272
  559HK4    C1646926   6.582   3.438   7.640  0.4407 -0.0574  0.4698
  559HK4    C1546927   6.652   3.559   7.656 -0.3922  0.5152 -0.1616
  559HK4     H746928   6.695   3.605   7.566 -0.4506  0.7082 -0.0914
  559HK4    C2046929   6.653   3.631   7.776  0.0192  0.0307  0.1255
  559HK4     H946930   6.709   3.723   7.783  1.4197 -0.7810 -0.2190
  559HK4    C1946931   6.581   3.585   7.886  0.5069 -0.6366  0.1710
  559HK4    C1846932   6.508   3.461   7.870 -0.4219 -0.0309 -0.3070
  559HK4    C1746933   6.515   3.389   7.751 -0.5514 -0.2237 -0.1979
  559HK4     H846934   6.496   3.282   7.756 -0.6399 -0.2611 -1.2899
  559HK4     N146935   6.454   3.429   7.996 -0.3419 -0.0774 -0.2838
  559HK4    C2146936   6.487   3.529   8.091  0.4188 -0.3696 -0.2333
  559HK4    C2246937   6.570   3.627   8.024  0.7756 -0.4269  0.1284
  559HK4    C2646938   6.596   3.750   8.082 -0.3231 -0.1933  0.1313
  559HK4    H1346939   6.635   3.840   8.033 -1.0817 -0.7747 -1.5510
  559HK4    C2546940   6.554   3.771   8.213  0.1409  0.1767  0.2280
  559HK4    H1246941   6.582   3.864   8.262 -1.2556  0.5099  0.4198
  559HK4    C2446942   6.479   3.674   8.279  0.3412 -0.4525 -0.4541
  559HK4    H1146943   6.440   3.705   8.378 -0.0904 -1.0837 -0.4277
  559HK4    C2346944   6.433   3.560   8.215  0.0844 -0.3946 -0.3701
  559HK4    H1046945   6.361   3.492   8.262  0.7397 -0.5658  0.3817
  559HK4    C3946946   6.372   3.317   8.013 -0.0951 -0.1497  0.4633
  559HK4    C4146947   6.375   3.253   8.139 -0.2901 -0.4552  0.3134
  559HK4    H2146948   6.463   3.273   8.202 -1.1192  0.7065  1.1187
  559HK4    C4246949   6.276   3.168   8.185 -0.4295 -0.2212  0.4433
  559HK4    H2246950   6.296   3.115   8.280  0.1371  1.2428  1.1580
  559HK4    C4346951   6.171   3.135   8.099 -0.1335  0.5601 -0.2248
  559HK4    H2346952   6.105   3.055   8.132  2.8608 -2.7086 -1.7677
  559HK4    C4446953   6.173   3.190   7.972 -0.4602 -0.1392 -0.5314
  559HK4    H2446954   6.089   3.155   7.910 -2.1388 -2.2633  2.8196
  559HK4    C4546955   6.265   3.285   7.927  0.1607 -0.3781  0.2305
  559HK4    H2546956   6.256   3.324   7.825 -1.4904  0.8377  0.8280
  560HK4    H2846957   4.899   4.702   9.840  0.1473 -1.8234 -0.6732
  560HK4    C4846958   4.954   4.655   9.922  0.2888 -0.6348 -0.0680
  560HK4    C4746959   4.902   4.542   9.983  0.0527 -0.4318  0.1099
  560HK4    H2746960   4.793   4.538   9.971  0.1095 -1.2246 -0.1856
  560HK4    C4646961   4.967   4.481  10.090 -0.1289 -0.4665  0.1993
  560HK4    H2646962   4.931   4.386  10.133  2.8110 -1.4276  0.6326
  560HK4    C4046963   5.089   4.532  10.139 -0.3145  0.1810 -0.0076
  560HK4    C5046964   5.150   4.628  10.056  0.4749  0.0818  0.4537
  560HK4    H3046965   5.258   4.647  10.053  0.3920  0.4810 -0.2287
  560HK4    C4946966   5.083   4.696   9.955 -0.0363 -0.1588  0.6297
  560HK4    H2946967   5.137   4.765   9.889  1.3811 -1.1306  0.7333
  560HK4     N246968   5.142   4.512  10.267  0.1251  0.9361 -0.0692
  560HK4    C3046969   5.059   4.481  10.377  0.2959  0.0810 -0.1764
  560HK4    C2946970   4.924   4.504  10.400  0.2048 -0.2813 -0.3510
  560HK4    H1546971   4.871   4.556  10.320 -1.8917 -1.0343  0.5091
  560HK4    C2846972   4.852   4.449  10.506 -0.2095 -0.1010 -0.5346
  560HK4    C2746973   4.928   4.377  10.601 -0.1227  0.6528 -0.0333
  560HK4    H1446974   4.879   4.349  10.695 -0.5474  0.6585 -0.2462
  560HK4    C3246975   5.067   4.372  10.598 -0.1525  0.0656 -0.3621
  560HK4    H1646976   5.126   4.341  10.684  0.4669  0.7490 -0.5376
  560HK4    C3146977   5.133   4.423  10.487  0.2093 -0.1987 -0.2663
  560HK4    C3446978   5.269   4.424  10.437  0.1718 -0.2228 -0.3709
  560HK4    C3346979   5.274   4.475  10.301 -0.0185  0.3375 -0.1715
  560HK4    C3546980   5.390   4.456  10.228  0.0591  0.6599 -0.1317
  560HK4    H1746981   5.381   4.466  10.120  0.4350 -0.5963 -0.2886
  560HK4    C3646982   5.503   4.398  10.284 -0.4479 -0.0768  0.1282
  560HK4    H1846983   5.596   4.392  10.225 -0.0400 -1.2524  0.8701
  560HK4    C3746984   5.503   4.352  10.415 -0.0111 -0.0600  0.1342
  560HK4    H1946985   5.588   4.295  10.452 -0.6003  0.4501  2.3172
  560HK4    C3846986   5.387   4.370  10.488  0.1834  0.4506  0.3239
  560HK4    H2046987   5.394   4.346  10.594  1.1985 -0.3619  0.0844
  560HK4    C1446988   4.733   4.522  10.551  0.1362  0.5340 -0.6466
  560HK4     C946989   4.695   4.549  10.683  0.2325 -0.3033 -0.4469
  560HK4     C846990   4.560   4.542  10.723  0.1336 -0.1457 -0.7499
  560HK4    C1146991   4.462   4.544  10.625 -0.1161 -0.1477 -0.5005
  560HK4     H446992   4.357   4.545  10.660  0.1048  0.4865  0.1533
  560HK4    C1246993   4.495   4.527  10.491 -0.1229 -0.2631 -0.4866
  560HK4     H546994   4.422   4.487  10.419 -0.6128  2.5258 -1.6168
  560HK4    C1346995   4.629   4.518  10.456 -0.0897 -0.2215 -0.3726
  560HK4     H646996   4.650   4.521  10.348  2.9743  0.3814  0.1827
  560HK4     C746997   4.519   4.538  10.865  0.2671 -0.5974 -0.7212
  560HK4     O246998   4.401   4.544  10.901  0.4978 -0.2680 -0.0146
  560HK4     C446999   4.630   4.550  10.962 -0.5025  0.4634  0.0545
  560HK4     C347000   4.606   4.502  11.090  0.3512 -0.0557  0.0310
  560HK4     H347001   4.519   4.440  11.114  0.8095  0.0584  2.1206
  560HK4     C247002   4.687   4.544  11.195  0.3921 -0.2319  0.0684
  560HK4     H247003   4.681   4.495   0.045 -2.8856 -0.5241 -0.2109
  560HK4     C147004   4.793   4.627  11.161  0.1032  0.0493 -0.1610
  560HK4     H147005   4.849   4.671  11.245 -0.6441  0.0401  0.3380
  560HK4     C647006   4.828   4.667  11.031  0.3627 -0.3392 -0.2133
  560HK4     C547007   4.748   4.620  10.927 -0.0791 -0.2251  0.0814
  560HK4    C1047008   4.790   4.602  10.785 -0.4457  0.2275 -0.0878
  560HK4     O147009   4.882   4.672  10.741 -0.4104 -0.0174 -0.3999
  560HK4    C1647010   4.956   4.738  11.016  0.1835  0.0722  0.1827
  560HK4    C1547011   5.049   4.708  11.118 -0.3447 -0.2451  0.5696
  560HK4     H747012   5.082   4.604  11.133  0.9739  0.1320  0.3113
  560HK4    C2047013   5.126   4.812  11.168 -0.2090  0.0773 -0.2876
  560HK4     H947014   5.210   4.785  11.233  1.2832 -0.6754 -2.4786
  560HK4    C1947015   5.125   4.938  11.110  0.1835  0.3740  0.3361
  560HK4    C1847016   5.048   4.963  10.990 -0.4336  0.0787  0.6712
  560HK4    C1747017   4.960   4.862  10.952 -0.3532  0.1472  0.2941
  560HK4     H847018   4.883   4.890  10.881 -0.9202  1.7816  1.5331
  560HK4     N147019   5.036   5.101  10.961  0.3246 -0.0895 -0.4394
  560HK4    C2147020   5.107   5.161  11.067 -0.6159  0.0889  0.0846
  560HK4    C2247021   5.158   5.068  11.165  0.3585  0.4894 -0.0374
  560HK4    C2647022   5.224   5.114   0.030  0.6637 -0.1635  0.0506
  560HK4    H1347023   5.278   5.042   0.092  1.3117 -0.5030 -0.9040
  560HK4    C2547024   5.221   5.251   0.056  0.2741 -0.0579 -0.5461
  560HK4    H1247025   5.238   5.284   0.159  0.7800 -0.0704 -0.6250
  560HK4    C2447026   5.164   5.341  11.215 -0.2604  0.0254 -0.1193
  560HK4    H1147027   5.178   5.449  11.232 -1.3393  0.0263  0.8672
  560HK4    C2347028   5.108   5.297  11.096 -0.5070  0.1150 -0.0372
  560HK4    H1047029   5.075   5.378  11.030  0.9646  0.7902  0.0401
  560HK4    C3947030   5.010   5.151  10.833  0.2388 -0.1421 -0.4412
  560HK4    C4147031   4.951   5.277  10.812  0.0234 -0.1161  0.3287
  560HK4    H2147032   4.883   5.315  10.890  1.1050 -0.3635  1.4213
  560HK4    C4247033   4.931   5.324  10.683  0.0033 -0.0638  0.3494
  560HK4    H2247034   4.857   5.401  10.659  0.5902  0.2897 -0.3388
  560HK4    C4347035   4.989   5.253  10.578 -0.2961  0.4333 -0.1498
  560HK4    H2347036   5.007   5.307  10.485  0.5564  0.1698 -0.1412
  560HK4    C4447037   5.044   5.127  10.594 -0.3215  0.3960 -0.3473
  560HK4    H2447038   5.101   5.086  10.509  0.4074  0.5353  0.0692
  560HK4    C4547039   5.054   5.075  10.722  0.1634 -0.0234 -0.5533
  560HK4    H2547040   5.109   4.981  10.739  0.1549 -0.2308 -1.6283
  561HK4    H2847041   9.614   2.524  10.569 -0.9485 -1.8808  1.0446
  561HK4    C4847042   9.595   2.487  10.468  0.5379  0.3239 -0.0662
  561HK4    C4747043   9.656   2.371  10.420 -0.1587 -0.1590  0.2109
  561HK4    H2747044   9.751   2.331  10.457  0.0489  1.4952  1.5728
  561HK4    C4647045   9.618   2.318  10.298  0.2096  0.6916 -0.2790
  561HK4    H2647046   9.675   2.233  10.259 -2.0010 -1.2361  0.5912
  561HK4    C4047047   9.526   2.385  10.214  0.1232  0.2824 -0.5147
  561HK4    C5047048   9.478   2.511  10.258  0.1795  0.1998 -0.2141
  561HK4    H3047049   9.429   2.581  10.189  0.5161  0.3283 -0.3261
  561HK4    C4947050   9.504   2.554  10.387  0.1100 -0.2324 -0.0543
  561HK4    H2947051   9.448   2.636  10.434  0.2921  1.1166 -2.0868
  561HK4     N247052   9.492   2.339  10.086  0.2226 -0.0307 -0.4275
  561HK4    C3047053   9.572   2.249  10.013  0.0094 -0.4202 -0.1827
  561HK4    C2947054   9.709   2.237   9.995  0.0274 -0.4143 -0.0642
  561HK4    H1547055   9.774   2.289  10.066  1.2347 -0.9636 -0.7481
  561HK4    C2847056   9.772   2.154   9.903  0.6217 -0.0115 -0.0276
  561HK4    C2747057   9.686   2.077   9.822  0.1874 -0.3611  0.7592
  561HK4    H1447058   9.737   2.000   9.762 -0.5286 -1.9820  2.1593
  561HK4    C3247059   9.549   2.078   9.841  0.0858  0.2995 -0.0255
  561HK4    H1647060   9.487   1.992   9.814  0.2587 -0.1514  0.9791
  561HK4    C3147061   9.487   2.162   9.933 -0.4872  0.1078 -0.2303
  561HK4    C3447062   9.350   2.208   9.945 -0.4284  0.2516 -0.1089
  561HK4    C3347063   9.362   2.322  10.035 -0.0257 -0.0317  0.2007
  561HK4    C3547064   9.246   2.391  10.067 -0.0345  0.0447  0.0030
  561HK4    H1747065   9.240   2.452  10.158 -1.5353  0.1305 -0.1384
  561HK4    C3647066   9.124   2.346  10.018  0.2920 -0.5619 -0.2517
  561HK4    H1847067   9.036   2.367  10.081  0.3086  0.1662 -0.4753
  561HK4    C3747068   9.112   2.249   9.919 -0.7017 -0.5193 -0.1720
  561HK4    H1947069   9.015   2.222   9.877 -0.5831 -0.1130 -0.7108
  561HK4    C3847070   9.227   2.178   9.889 -0.3089  0.1856 -0.3357
  561HK4    H2047071   9.214   2.087   9.830 -3.4360  1.9126 -2.4541
  561HK4    C1447072   9.905   2.190   9.852  0.6100 -0.0880 -0.1126
  561HK4     C947073   9.942   2.204   9.718 -0.1250 -0.4061 -0.3542
  561HK4     C847074  10.052   2.133   9.665 -0.2667 -0.5455 -0.4627
  561HK4    C1147075  10.128   2.054   9.749  0.2827  0.2719 -0.1867
  561HK4     H447076  10.207   1.991   9.705 -0.1537 -0.1394 -0.3765
  561HK4    C1247077  10.108   2.055   9.887  0.1128 -0.0538 -0.2102
  561HK4     H547078  10.173   2.001   9.957 -0.7985 -0.0492  0.6438
  561HK4    C1347079  10.000   2.128   9.936  0.4138  0.0906  0.2398
  561HK4     H647080   9.995   2.149  10.044 -0.0760  0.6202  0.1186
  561HK4     C747081  10.101   2.154   9.526  0.3048 -0.7099 -0.2887
  561HK4     O247082  10.213   2.120   9.489  0.4243 -0.3458 -0.2519
  561HK4     C447083  10.005   2.218   9.434  0.5898  0.6623  0.3606
  561HK4     C347084  10.030   2.207   9.297  0.3121  0.3636  0.3355
  561HK4     H347085  10.122   2.158   9.263 -0.7757 -1.4006 -0.1371
  561HK4     C247086   9.952   2.277   9.205  0.3473 -0.1869 -0.1145
  561HK4     H247087   9.942   2.249   9.099  1.1954 -1.1990  0.0621
  561HK4     C147088   9.861   2.368   9.258 -0.2734 -1.1810  0.5512
  561HK4     H147089   9.798   2.418   9.183 -0.1141 -1.6774  0.0739
  561HK4     C647090   9.842   2.396   9.394  0.0959  0.0856  0.3475
  561HK4     C547091   9.913   2.314   9.482 -0.2625 -0.1740  0.3971
  561HK4    C1047092   9.887   2.309   9.629 -0.2448  0.1873  0.4117
  561HK4     O147093   9.874   2.422   9.676 -0.0148  0.1053  0.6709
  561HK4    C1647094   9.815   2.539   9.418  0.2554  0.1647  0.0623
  561HK4    C1547095   9.874   2.640   9.340  0.1949  0.0448 -0.1421
  561HK4     H747096   9.976   2.619   9.304  0.1064  0.8666 -0.9058
  561HK4    C2047097   9.812   2.757   9.297 -0.3463 -0.5527 -1.0179
  561HK4     H947098   9.876   2.837   9.259 -0.4868  0.0635  0.0129
  561HK4    C1947099   9.680   2.773   9.335  0.1228  0.0686  0.3717
  561HK4    C1847100   9.615   2.677   9.422 -0.2742 -0.1467 -0.1630
  561HK4    C1747101   9.687   2.566   9.465  0.3138  0.3410  0.1160
  561HK4     H847102   9.635   2.494   9.530 -0.1180  0.9794  0.4846
  561HK4     N147103   9.483   2.712   9.458 -0.2655 -0.2512 -0.0109
  561HK4    C2147104   9.468   2.833   9.386  0.4102  0.0498  0.3446
  561HK4    C2247105   9.583   2.879   9.312 -0.0623 -0.3160 -0.6370
  561HK4    C2647106   9.601   3.012   9.273  0.0251 -0.2843 -0.4908
  561HK4    H1347107   9.697   3.048   9.238  0.6586 -1.1873  0.2857
  561HK4    C2547108   9.504   3.102   9.314 -0.0502 -0.4739 -0.2477
  561HK4    H1247109   9.526   3.208   9.304 -3.4156  0.2254 -1.0965
  561HK4    C2447110   9.389   3.062   9.381 -0.5760  0.3672 -0.6352
  561HK4    H1147111   9.322   3.142   9.418  0.3564  0.3744  1.0731
  561HK4    C2347112   9.369   2.928   9.411  0.3356  0.2317 -0.6405
  561HK4    H1047113   9.275   2.895   9.455 -0.0760  0.9009 -1.0131
  561HK4    C3947114   9.406   2.663   9.563 -0.0888 -0.0265  0.2230
  561HK4    C4147115   9.265   2.658   9.554 -0.0968  0.3423  0.1071
  561HK4    H2147116   9.221   2.654   9.454  0.7553  1.5566 -0.3242
  561HK4    C4247117   9.182   2.604   9.652  0.0182  0.0060  0.0196
  561HK4    H2247118   9.074   2.599   9.633  0.3807 -2.1820 -1.5878
  561HK4    C4347119   9.235   2.570   9.776 -0.4943 -0.3144  0.1524
  561HK4    H2347120   9.172   2.566   9.865 -1.3754  1.5296 -0.3463
  561HK4    C4447121   9.372   2.591   9.790 -0.6078  0.5074  0.1220
  561HK4    H2447122   9.400   2.597   9.896  2.1311  1.1887 -0.5953
  561HK4    C4547123   9.458   2.639   9.692 -0.2611  0.3978  0.3726
  561HK4    H2547124   9.564   2.656   9.716 -0.1212 -1.4298  1.0768
  562HK4    H2847125   7.961   2.430   0.961 -1.1405  0.3463 -1.0761
  562HK4    C4847126   7.910   2.481   1.043  0.0788 -0.3891  0.1690
  562HK4    C4747127   7.891   2.402   1.156  0.0866  0.0271  0.4601
  562HK4    H2747128   7.905   2.293   1.149 -1.8012 -0.1570 -0.7628
  562HK4    C4647129   7.837   2.459   1.271  0.2169  0.1580  0.4572
  562HK4    H2647130   7.857   2.400   1.361  0.0272 -1.4425 -0.5120
  562HK4    C4047131   7.789   2.592   1.278 -0.2447  0.0288 -0.1172
  562HK4    C5047132   7.809   2.666   1.160  0.3891 -0.1390 -0.1181
  562HK4    H3047133   7.787   2.773   1.166 -2.3068 -0.6947  0.6936
  562HK4    C4947134   7.867   2.613   1.045 -0.3991 -0.5345 -0.3333
  562HK4    H2947135   7.867   2.672   0.953 -0.3512  1.3297  0.8435
  562HK4     N247136   7.675   2.627   1.351  0.1037  0.3837  0.2615
  562HK4    C3047137   7.578   2.542   1.408  0.7258 -0.3348  0.2686
  562HK4    C2947138   7.560   2.405   1.397 -0.1450 -0.1887 -0.2201
  562HK4    H1547139   7.630   2.353   1.331 -2.6915 -1.7755 -1.7459
  562HK4    C2847140   7.467   2.328   1.466  0.1842 -0.0601  0.3698
  562HK4    C2747141   7.387   2.400   1.558  0.0829 -0.0566  0.2802
  562HK4    H1447142   7.322   2.347   1.630  0.1256 -1.8796 -0.9751
  562HK4    C3247143   7.402   2.537   1.578  0.2653 -0.0357 -0.0013
  562HK4    H1647144   7.354   2.570   1.670 -0.4268  2.9723 -1.3765
  562HK4    C3147145   7.488   2.612   1.498 -0.0813 -0.2569 -0.5889
  562HK4    C3447146   7.522   2.752   1.484 -0.6713 -0.0659 -0.1502
  562HK4    C3347147   7.642   2.754   1.403 -0.6871  0.3577 -0.1651
  562HK4    C3547148   7.718   2.869   1.421 -0.0418 -0.1381  0.3397
  562HK4    H1747149   7.818   2.876   1.379  0.2688  0.2097  1.1358
  562HK4    C3647150   7.667   2.982   1.483 -0.0780  0.0925 -0.1075
  562HK4    H1847151   7.713   3.081   1.467 -0.5414  0.0478 -1.9046
  562HK4    C3747152   7.544   2.982   1.549  0.0765 -0.2399  0.1810
  562HK4    H1947153   7.512   3.069   1.606 -1.4205 -0.7920  0.2095
  562HK4    C3847154   7.470   2.864   1.548 -0.2134 -0.0592  0.2109
  562HK4    H2047155   7.369   2.865   1.588 -0.4694  0.8285 -0.4498
  562HK4    C1447156   7.432   2.192   1.425  0.0994  0.2081 -0.4569
  562HK4     C947157   7.297   2.153   1.429  0.1552  0.0849  0.2893
  562HK4     C847158   7.263   2.024   1.476 -0.2175 -0.0158 -0.2618
  562HK4    C1147159   7.363   1.934   1.509  0.1338  0.5037  0.0979
  562HK4     H447160   7.341   1.840   1.561  1.0317 -0.5319 -1.3618
  562HK4    C1247161   7.497   1.965   1.487  0.2061 -0.2384 -0.5444
  562HK4     H547162   7.577   1.891   1.497  1.4836  1.0156 -1.2090
  562HK4    C1347163   7.531   2.094   1.446 -0.1924 -0.0586 -0.3133
  562HK4     H647164   7.636   2.120   1.426  0.2798 -1.7212 -0.0573
  562HK4     C747165   7.118   1.994   1.474 -0.1879 -0.1456 -0.6712
  562HK4     O247166   7.079   1.886   1.519 -0.1717  0.0543 -0.1639
  562HK4     C447167   7.013   2.090   1.431  0.0284  0.3503 -0.1099
  562HK4     C347168   6.878   2.062   1.445  0.2403 -0.4244  0.4250
  562HK4     H347169   6.841   1.967   1.487 -2.1446 -0.7705 -2.3337
  562HK4     C247170   6.782   2.155   1.407  0.3152 -0.4339  0.2167
  562HK4     H247171   6.677   2.124   1.399 -0.1829  1.8584 -2.9580
  562HK4     C147172   6.826   2.280   1.364  0.2620 -0.5731 -0.2457
  562HK4     H147173   6.747   2.355   1.350 -0.4274 -1.1258  0.6367
  562HK4     C647174   6.961   2.318   1.354  0.0678  0.1142 -0.2785
  562HK4     C547175   7.053   2.215   1.378  0.2242  0.2920 -0.0991
  562HK4    C1047176   7.199   2.240   1.359  0.2863  0.0511  0.0613
  562HK4     O147177   7.236   2.312   1.267  0.5515 -0.4305 -0.2122
  562HK4    C1647178   6.992   2.452   1.407  0.3612  0.0303 -0.2340
  562HK4    C1547179   6.938   2.502   1.527 -0.5627  0.0388 -0.6479
  562HK4     H747180   6.884   2.430   1.589  1.7653 -0.0455  1.3624
  562HK4    C2047181   6.954   2.634   1.568  0.0381 -0.2678  0.1172
  562HK4     H947182   6.939   2.660   1.673  2.6018  0.0053  0.4364
  562HK4    C1947183   7.017   2.721   1.479  0.1247 -0.1794  0.2655
  562HK4    C1847184   7.081   2.675   1.357 -0.1991  0.2702 -0.0720
  562HK4    C1747185   7.062   2.541   1.327 -0.5954  0.4483 -0.6162
  562HK4     H847186   7.101   2.513   1.229 -0.9470 -1.9830 -0.0832
  562HK4     N147187   7.158   2.780   1.303 -0.0919  0.0478 -0.3487
  562HK4    C2147188   7.152   2.893   1.387 -0.3001 -0.4370  0.2908
  562HK4    C2247189   7.065   2.856   1.497 -0.1196 -0.1288  0.5341
  562HK4    C2647190   7.051   2.948   1.601 -0.1240  0.1172  0.3178
  562HK4    H1347191   6.977   2.919   1.676 -0.8399 -2.3793 -1.2770
  562HK4    C2547192   7.113   3.072   1.597 -0.0059  0.0512  0.1356
  562HK4    H1247193   7.095   3.141   1.679  1.5221  1.9774 -1.1142
  562HK4    C2447194   7.196   3.107   1.491  0.1745  0.1666  0.3169
  562HK4    H1147195   7.245   3.206   1.487  0.3815  0.1217  1.6277
  562HK4    C2347196   7.215   3.017   1.387 -0.3729 -0.4008  0.7098
  562HK4    H1047197   7.309   3.031   1.333 -1.2398  2.5335 -0.0926
  562HK4    C3947198   7.224   2.759   1.181  0.1171 -0.2106 -0.1908
  562HK4    C4147199   7.233   2.873   1.098  0.2119 -0.0134  0.0898
  562HK4    H2147200   7.138   2.923   1.077  1.3542  1.8766 -0.6250
  562HK4    C4247201   7.350   2.896   1.026 -0.0080 -0.3031 -0.3617
  562HK4    H2247202   7.352   2.997   0.983  0.3365 -0.7320 -1.3493
  562HK4    C4347203   7.456   2.807   1.027 -0.1353 -0.4614 -0.8403
  562HK4    H2347204   7.551   2.832   0.980 -1.0630  1.4815 -1.7356
  562HK4    C4447205   7.452   2.694   1.109  0.1376  0.2294  0.1382
  562HK4    H2447206   7.541   2.633   1.127 -0.3892 -0.9276 -1.0651
  562HK4    C4547207   7.334   2.670   1.179 -0.0469 -0.4113 -0.3810
  562HK4    H2547208   7.325   2.582   1.243  0.0478  0.5618  1.0006
  563HK4    H2847209   5.747   3.664   7.787 -0.9577  0.0420  1.4393
  563HK4    C4847210   5.668   3.601   7.745 -0.1573  0.0741 -0.1429
  563HK4    C4747211   5.563   3.549   7.820  0.3592 -0.2470  0.3658
  563HK4    H2747212   5.566   3.557   7.930  1.8057  1.2544  0.2428
  563HK4    C4647213   5.463   3.472   7.762  0.0228 -0.2473  0.9501
  563HK4    H2647214   5.374   3.458   7.826  0.2782  0.9733  1.5864
  563HK4    C4047215   5.460   3.457   7.622 -0.1937  0.5085  0.8712
  563HK4    C5047216   5.558   3.524   7.547 -0.5717  0.1109  0.0127
  563HK4    H3047217   5.557   3.519   7.437  1.2343  1.3719 -0.0908
  563HK4    C4947218   5.664   3.592   7.607 -0.3599 -0.0961 -0.1251
  563HK4    H2947219   5.752   3.627   7.551  0.2133  0.2498  0.9757
  563HK4     N247220   5.360   3.391   7.549  0.3948  0.6554 -0.0713
  563HK4    C3047221   5.374   3.326   7.425 -0.1059  0.9693 -0.2943
  563HK4    C2947222   5.491   3.276   7.369 -0.4897 -0.3542  0.0822
  563HK4    H1547223   5.582   3.311   7.419 -0.2953 -1.8277  0.7887
  563HK4    C2847224   5.497   3.204   7.251  0.1408 -0.7264  0.3377
  563HK4    C2747225   5.371   3.185   7.191  0.1121 -0.7576  0.4091
  563HK4    H1447226   5.364   3.118   7.104  1.3202 -0.5070  0.1163
  563HK4    C3247227   5.252   3.236   7.242  0.2609 -0.3433  0.3440
  563HK4    H1647228   5.158   3.214   7.191  0.3490  0.0840 -0.0012
  563HK4    C3147229   5.245   3.308   7.361 -0.2199 -0.3266  0.3068
  563HK4    C3447230   5.147   3.359   7.455  0.0100 -0.9331  0.8890
  563HK4    C3347231   5.221   3.405   7.570  0.3969  0.3733  0.1291
  563HK4    C3547232   5.145   3.462   7.671 -0.3927  0.0492 -0.2858
  563HK4    H1747233   5.199   3.533   7.733  3.3843 -0.1449 -3.1959
  563HK4    C3647234   5.006   3.474   7.662 -0.3971  0.2480  0.0660
  563HK4    H1847235   4.952   3.517   7.748 -1.4963  0.0860 -0.5443
  563HK4    C3747236   4.941   3.439   7.544  0.1223 -0.1507 -0.1033
  563HK4    H1947237   4.834   3.454   7.550 -0.1312 -2.0561  0.5973
  563HK4    C3847238   5.010   3.381   7.438  0.1903 -0.4032  0.0779
  563HK4    H2047239   4.963   3.376   7.340  1.2099 -2.0005 -0.3405
  563HK4    C1447240   5.633   3.183   7.198  0.1469 -0.4946  0.2608
  563HK4     C947241   5.661   3.174   7.061  0.5489  0.2374  0.2923
  563HK4     C847242   5.755   3.087   7.003 -0.1223 -0.2484 -0.0837
  563HK4    C1147243   5.818   3.001   7.092 -0.1365 -0.3616 -0.1839
  563HK4     H447244   5.863   2.911   7.046 -0.8085  0.2075 -1.9914
  563HK4    C1247245   5.797   3.009   7.229  0.7290 -0.0581 -0.0633
  563HK4     H547246   5.870   2.955   7.291 -1.6011 -0.2698  2.6234
  563HK4    C1347247   5.705   3.098   7.284  0.4587 -0.4213  0.0756
  563HK4     H647248   5.692   3.111   7.392 -0.9347 -2.2417  0.1574
  563HK4     C747249   5.787   3.088   6.858 -0.1126  0.1937 -0.0794
  563HK4     O247250   5.887   3.029   6.820 -0.4549 -0.6123  0.2587
  563HK4     C447251   5.699   3.166   6.768 -0.2378 -0.0710 -0.1844
  563HK4     C347252   5.724   3.175   6.632 -0.1472 -0.2190 -0.1798
  563HK4     H347253   5.820   3.134   6.597  0.7059 -0.9095  2.8403
  563HK4     C247254   5.640   3.242   6.543 -0.1431 -0.3040 -0.2467
  563HK4     H247255   5.654   3.223   6.435 -2.5257 -1.7710 -0.3276
  563HK4     C147256   5.533   3.313   6.597 -0.2491 -0.7209  0.0891
  563HK4     H147257   5.486   3.393   6.538  0.8820  0.0359  0.2086
  563HK4     C647258   5.499   3.303   6.733 -0.2744 -0.2621  0.1182
  563HK4     C547259   5.588   3.236   6.819 -0.0365  0.0385  0.1051
  563HK4    C1047260   5.592   3.265   6.965  0.4089 -0.0595  0.1122
  563HK4     O147261   5.591   3.385   6.992 -0.0725 -0.2276  0.8693
  563HK4    C1647262   5.356   3.329   6.757 -0.2887 -0.0558 -0.1963
  563HK4    C1547263   5.261   3.326   6.653 -0.3079  0.0404 -0.1809
  563HK4     H747264   5.288   3.259   6.570 -1.0328 -0.9154  0.3438
  563HK4    C2047265   5.138   3.390   6.655 -0.2661  0.1299 -0.3877
  563HK4     H947266   5.071   3.380   6.569 -0.4982  3.7685 -0.6842
  563HK4    C1947267   5.101   3.459   6.770 -0.0394  0.0256 -0.2516
  563HK4    C1847268   5.191   3.455   6.884 -0.5377 -0.1175  0.1423
  563HK4    C1747269   5.310   3.384   6.876 -0.4863  0.0136 -0.3034
  563HK4     H847270   5.350   3.343   6.969  0.3057 -0.2994 -0.7711
  563HK4     N147271   5.150   3.546   6.984 -0.3273 -0.1017  0.2159
  563HK4    C2147272   5.032   3.609   6.937 -0.4094 -0.5187 -0.1459
  563HK4    C2247273   5.001   3.558   6.805 -0.4386 -0.3968 -0.1860
  563HK4    C2647274   4.906   3.624   6.728  0.0416  0.4692 -0.0463
  563HK4    H1347275   4.875   3.583   6.632 -0.4858  3.0545 -1.0208
  563HK4    C2547276   4.852   3.744   6.774 -0.4271  0.5083 -0.6897
  563HK4    H1247277   4.781   3.802   6.716  0.0035  0.7439 -0.9838
  563HK4    C2447278   4.880   3.787   6.903 -0.3031 -0.3698 -0.4153
  563HK4    H1147279   4.838   3.885   6.930  0.4977  0.4441 -2.0324
  563HK4    C2347280   4.965   3.719   6.989 -0.0354 -0.1282 -0.4854
  563HK4    H1047281   4.970   3.752   7.092 -1.7703 -1.0377 -0.0793
  563HK4    C3947282   5.223   3.579   7.098 -0.0712  0.1913 -0.0338
  563HK4    C4147283   5.147   3.611   7.212 -0.3355 -0.0037 -0.1548
  563HK4    H2147284   5.044   3.579   7.236  0.1195  0.7678  2.9784
  563HK4    C4247285   5.200   3.689   7.314 -0.1684 -0.2095 -0.0853
  563HK4    H2247286   5.136   3.732   7.393 -0.4427 -0.6350 -0.0685
  563HK4    C4347287   5.334   3.725   7.318 -0.1160 -0.4660  0.6279
  563HK4    H2347288   5.376   3.787   7.397 -1.1989  0.7944  0.2369
  563HK4    C4447289   5.413   3.682   7.212 -0.5053  0.0994  0.1084
  563HK4    H2447290   5.522   3.693   7.221 -0.2282 -1.3443 -1.2850
  563HK4    C4547291   5.357   3.623   7.099 -0.0274  0.0613 -0.1088
  563HK4    H2547292   5.406   3.631   7.001 -3.6869  0.6927 -1.9877
  564HK4    H2847293   2.300   5.784   2.183 -1.0352  4.6443  1.0619
  564HK4    C4847294   2.352   5.820   2.094  0.1508  0.1997 -0.1813
  564HK4    C4747295   2.415   5.943   2.101 -0.2552  0.4076 -0.1685
  564HK4    H2747296   2.372   6.010   2.177  3.1910 -0.2622  2.5043
  564HK4    C4647297   2.490   5.988   1.993 -0.0151  0.0227 -0.1637
  564HK4    H2647298   2.539   6.086   2.006 -1.3485  0.8953 -1.5276
  564HK4    C4047299   2.494   5.919   1.870 -0.9060  0.6821 -0.5686
  564HK4    C5047300   2.421   5.799   1.869  0.0625  0.0824 -0.0996
  564HK4    H3047301   2.412   5.751   1.770  0.5951  0.9036 -0.5472
  564HK4    C4947302   2.343   5.751   1.974  0.7743 -0.5015  0.1671
  564HK4    H2947303   2.292   5.654   1.966  0.2841 -0.2138 -0.2375
  564HK4     N247304   2.593   5.945   1.775 -0.3012  0.3957 -0.0188
  564HK4    C3047305   2.723   5.995   1.797 -0.3139  0.4998 -0.1811
  564HK4    C2947306   2.810   5.994   1.906 -0.1166 -0.5481 -0.3538
  564HK4    H1547307   2.769   5.974   2.005 -0.4014 -0.5219 -0.4645
  564HK4    C2847308   2.944   6.030   1.897 -0.2588  0.1635  0.3038
  564HK4    C2747309   2.991   6.072   1.771 -0.5156 -0.3896  0.0212
  564HK4    H1447310   3.100   6.073   1.753 -0.0845  2.3253  2.5040
  564HK4    C3247311   2.909   6.074   1.658 -0.1258 -0.4301 -0.2653
  564HK4    H1647312   2.939   6.109   1.560 -1.7266 -0.9348 -0.9468
  564HK4    C3147313   2.775   6.038   1.669 -0.2394 -0.0320 -0.3281
  564HK4    C3447314   2.670   6.030   1.570 -0.4154  0.0832 -0.1511
  564HK4    C3347315   2.558   5.973   1.641 -0.1991 -0.4450 -0.2294
  564HK4    C3547316   2.432   5.972   1.583 -0.5165 -0.0876  0.4476
  564HK4    H1747317   2.341   5.943   1.637 -2.0635  0.7791 -1.6284
  564HK4    C3647318   2.423   6.015   1.451 -0.3405 -1.1743  0.0859
  564HK4    H1847319   2.329   6.008   1.394 -0.1711  0.1581 -0.3605
  564HK4    C3747320   2.529   6.075   1.383 -0.1597 -1.3047  0.2490
  564HK4    H1947321   2.512   6.131   1.291  0.1971 -1.5238  0.0487
  564HK4    C3847322   2.655   6.080   1.441  0.1079 -0.4051 -0.4020
  564HK4    H2047323   2.744   6.108   1.384 -0.5926 -1.4938 -2.0819
  564HK4    C1447324   3.022   6.075   2.013 -0.2928  0.1599  0.3285
  564HK4     C947325   3.098   6.192   2.026 -0.2915  0.2045 -0.0687
  564HK4     C847326   3.221   6.192   2.094  0.0173  0.0704 -0.6203
  564HK4    C1147327   3.255   6.078   2.167 -0.3606  0.0732 -0.4409
  564HK4     H447328   3.338   6.077   2.239 -0.9209 -2.0607  0.2108
  564HK4    C1247329   3.178   5.963   2.160  0.1436 -0.3026  0.1477
  564HK4     H547330   3.216   5.879   2.220  0.6942 -0.1949 -0.0485
  564HK4    C1347331   3.065   5.958   2.079  0.4057  0.0952 -0.2377
  564HK4     H647332   3.001   5.869   2.084 -0.9196  1.0550  0.2840
  564HK4     C747333   3.305   6.313   2.101  0.6595 -0.3668 -0.7139
  564HK4     O247334   3.424   6.295   2.125  0.5725 -0.1013 -0.0690
  564HK4     C447335   3.252   6.442   2.051 -0.1292 -0.1350  0.6814
  564HK4     C347336   3.336   6.550   2.026 -0.5102 -0.1798 -0.8324
  564HK4     H347337   3.443   6.536   2.046 -0.8692 -2.4218 -0.3114
  564HK4     C247338   3.293   6.671   1.973  0.0074  0.1757 -0.4446
  564HK4     H247339   3.371   6.745   1.949  0.3885 -0.5861 -1.5976
  564HK4     C147340   3.156   6.683   1.956  0.0113 -0.2728 -0.8084
  564HK4     H147341   3.118   6.762   1.889 -0.5418  0.5767  0.4815
  564HK4     C647342   3.070   6.586   2.012 -0.3875  0.2416 -0.5265
  564HK4     C547343   3.113   6.455   2.033  0.0149  0.4501 -0.0259
  564HK4    C1047344   3.040   6.328   2.004  0.1137  0.3877  0.0016
  564HK4     O147345   2.947   6.337   1.925  0.0636 -0.0267  0.0098
  564HK4    C1647346   2.961   6.648   2.089 -0.1702  0.0368 -0.0542
  564HK4    C1547347   2.960   6.786   2.118  0.3405 -0.0050  0.1712
  564HK4     H747348   3.047   6.850   2.100 -2.6184  4.1252 -0.1532
  564HK4    C2047349   2.844   6.854   2.154  0.0418 -0.2769 -0.2703
  564HK4     H947350   2.839   6.963   2.156  0.5667 -0.2503 -0.4943
  564HK4    C1947351   2.721   6.788   2.154  0.0726 -0.3419  0.8692
  564HK4    C1847352   2.718   6.649   2.116  0.2041 -0.0138 -0.3669
  564HK4    C1747353   2.838   6.583   2.092  0.1017 -0.4611  0.3325
  564HK4     H847354   2.830   6.474   2.091 -1.1477 -0.3817  1.2843
  564HK4     N147355   2.591   6.590   2.133  0.1250  0.0834 -0.6173
  564HK4    C2147356   2.517   6.697   2.188  0.0382 -0.0260 -0.5219
  564HK4    C2247357   2.587   6.823   2.197  0.0768 -0.1333  0.7157
  564HK4    C2647358   2.538   6.930   2.270  0.7842  0.4851  0.2976
  564HK4    H1347359   2.604   7.016   2.283  1.1298  0.7603 -2.9946
  564HK4    C2547360   2.416   6.922   2.338  0.4985 -0.7779 -0.3511
  564HK4    H1247361   2.380   7.005   2.399  1.8267 -1.1015  0.8880
  564HK4    C2447362   2.342   6.805   2.325 -0.4411 -0.2434  0.1812
  564HK4    H1147363   2.249   6.796   2.384 -1.5380  2.6085 -1.0197
  564HK4    C2347364   2.390   6.703   2.244  0.2609  0.2701 -0.0544
  564HK4    H1047365   2.314   6.638   2.202 -0.2047  0.6604  0.1817
  564HK4    C3947366   2.562   6.464   2.078  0.7731 -0.4729  0.2861
  564HK4    C4147367   2.445   6.397   2.120  0.2522  0.0475 -0.3067
  564HK4    H2147368   2.432   6.391   2.229 -0.6183  0.5797 -0.3776
  564HK4    C4247369   2.377   6.310   2.036  0.1357  0.1625 -0.3314
  564HK4    H2247370   2.286   6.268   2.082  0.1621  0.5726  0.1018
  564HK4    C4347371   2.415   6.290   1.904 -0.2798  0.8951 -0.5664
  564HK4    H2347372   2.348   6.244   1.833  1.2908 -0.4477 -1.2054
  564HK4    C4447373   2.532   6.352   1.861  0.2142  0.0018 -0.5118
  564HK4    H2447374   2.580   6.322   1.766  1.3170  0.9763 -0.2734
  564HK4    C4547375   2.606   6.429   1.949 -0.3015  0.2430 -0.2895
  564HK4    H2547376   2.706   6.463   1.915 -0.4102  0.1693 -0.6868
  565HK4    H2847377   6.299   6.073   0.312  1.5982 -1.9160 -2.1964
  565HK4    C4847378   6.201   6.045   0.274 -0.0318  0.2872  0.3303
  565HK4    C4747379   6.122   6.142   0.213 -0.2994  0.3591  0.7861
  565HK4    H2747380   6.137   6.249   0.235 -1.4543  0.5560  0.6415
  565HK4    C4647381   6.017   6.108   0.130  0.5019  0.1338 -0.1412
  565HK4    H2647382   5.975   6.181   0.059 -2.1351 -1.1628  0.0022
  565HK4    C4047383   5.976   5.974   0.111  0.1395  0.2889 -0.5001
  565HK4    C5047384   6.045   5.884   0.195 -0.2486  0.3195 -0.1483
  565HK4    H3047385   6.000   5.783   0.199 -1.3785  0.7397 -1.9075
  565HK4    C4947386   6.157   5.914   0.272  0.0386  0.2776 -0.5519
  565HK4    H2947387   6.200   5.842   0.343  1.1022  1.5031  0.0381
  565HK4     N247388   5.864   5.933   0.039  0.2409 -0.2302 -0.3678
  565HK4    C3047389   5.749   6.009   0.004  0.5407  0.2864 -0.2434
  565HK4    C2947390   5.695   6.113   0.079 -0.0843 -0.3935  0.2520
  565HK4    H1547391   5.757   6.186   0.130  1.2402  0.4846 -2.4954
  565HK4    C2847392   5.562   6.151   0.060 -0.0679 -0.4290  0.0677
  565HK4    C2747393   5.492   6.084  11.206 -0.0555  0.2834 -0.4123
  565HK4    H1447394   5.389   6.113  11.178 -0.0262 -0.0450 -0.8719
  565HK4    C3247395   5.544   5.984  11.124  0.2420  0.0545  0.0581
  565HK4    H1647396   5.474   5.926  11.064  1.9594  0.8473 -2.7933
  565HK4    C3147397   5.672   5.939  11.151  0.0889 -0.1762  0.4125
  565HK4    C3447398   5.742   5.814  11.130 -0.2248 -0.3027  0.1354
  565HK4    C3347399   5.865   5.818  11.206  0.1298 -0.1786 -0.4432
  565HK4    C3547400   5.951   5.710  11.188  0.3140 -0.2389  0.7520
  565HK4    H1747401   6.044   5.710  11.244 -1.2736  0.7127  3.4651
  565HK4    C3647402   5.922   5.607  11.099  0.1717  0.4160  0.0256
  565HK4    H1847403   5.980   5.514  11.113 -0.5174  0.0397  0.4368
  565HK4    C3747404   5.807   5.609  11.020  0.1277 -0.2129  0.0699
  565HK4    H1947405   5.768   5.518  10.975 -1.0773  0.2490  0.1734
  565HK4    C3847406   5.717   5.713  11.036  0.4743  0.1920 -0.5856
  565HK4    H2047407   5.647   5.729  10.954  0.7587 -0.0305 -0.8736
  565HK4    C1447408   5.497   6.239   0.158 -0.1227  0.1732 -0.4997
  565HK4     C947409   5.367   6.224   0.206  0.0319  0.1306 -0.0884
  565HK4     C847410   5.284   6.324   0.260  0.0191 -0.0170  0.1711
  565HK4    C1147411   5.347   6.446   0.280  0.1314 -0.0649  0.1081
  565HK4     H447412   5.293   6.532   0.323  0.4967 -0.0016  0.4507
  565HK4    C1247413   5.481   6.461   0.246  0.0555  0.3595 -0.0020
  565HK4     H547414   5.527   6.554   0.284  2.5792 -0.7327 -0.2692
  565HK4    C1347415   5.556   6.366   0.178 -0.2339  0.1525 -0.0289
  565HK4     H647416   5.651   6.396   0.132 -1.5494  2.4208 -1.3981
  565HK4     C747417   5.137   6.304   0.261  0.0901 -0.5412 -0.1336
  565HK4     O247418   5.072   6.389   0.321  0.1271 -0.1733 -0.6123
  565HK4     C447419   5.076   6.183   0.201 -0.1323 -0.7309  0.4697
  565HK4     C347420   4.942   6.175   0.167 -0.0123 -0.0699 -0.1688
  565HK4     H347421   4.880   6.250   0.218  0.6549  0.4541 -0.1170
  565HK4     C247422   4.889   6.054   0.125  0.1591 -0.0420 -0.4614
  565HK4     H247423   4.780   6.043   0.120  0.0565 -0.1110  1.7670
  565HK4     C147424   4.971   5.942   0.116  0.1363 -0.1027  0.0989
  565HK4     H147425   4.925   5.848   0.082 -3.0109  1.4267 -0.0578
  565HK4     C647426   5.110   5.948   0.136  0.1454 -0.8080  0.2337
  565HK4     C547427   5.160   6.071   0.180 -0.0515 -0.5135 -0.3640
  565HK4    C1047428   5.306   6.088   0.201 -0.1781  0.2226 -0.0639
  565HK4     O147429   5.364   6.010   0.277  0.6119  0.6658 -0.2006
  565HK4    C1647430   5.183   5.860   0.043 -0.1322 -0.7989  0.0046
  565HK4    C1547431   5.156   5.857  11.153  0.1047 -0.1717 -0.0615
  565HK4     H747432   5.072   5.918  11.117  1.1061  1.9732  1.2030
  565HK4    C2047433   5.232   5.784  11.062  0.3614  0.0212 -0.0026
  565HK4     H947434   5.212   5.795  10.956 -2.0579 -0.7682  0.3329
  565HK4    C1947435   5.333   5.703  11.113  0.3368 -0.3432 -0.5249
  565HK4    C1847436   5.360   5.696   0.008 -0.2979 -0.0298 -0.3867
  565HK4    C1747437   5.282   5.774   0.091 -0.1670 -0.6551  0.3339
  565HK4     H847438   5.292   5.769   0.199 -1.5849 -0.5134  0.4897
  565HK4     N147439   5.453   5.594   0.040 -0.4732 -0.0014  0.2060
  565HK4    C2147440   5.474   5.536  11.162 -0.3388 -0.0785  0.2620
  565HK4    C2247441   5.401   5.592  11.049 -0.0742 -0.7563 -0.2489
  565HK4    C2647442   5.416   5.545  10.919 -0.1980 -0.3168 -0.4203
  565HK4    H1347443   5.391   5.614  10.838 -0.1809 -1.6281 -1.5602
  565HK4    C2547444   5.501   5.438  10.893 -0.1300 -0.3058 -0.2469
  565HK4    H1247445   5.531   5.432  10.789  1.6513  0.6132  0.1969
  565HK4    C2447446   5.566   5.380  11.001 -0.2374 -0.0033 -0.0177
  565HK4    H1147447   5.640   5.299  10.985  2.5592  2.2459  1.0615
  565HK4    C2347448   5.552   5.425  11.132 -0.4292 -0.0674 -0.0181
  565HK4    H1047449   5.627   5.390  11.202 -0.1513 -2.9529 -1.6785
  565HK4    C3947450   5.545   5.606   0.145 -0.1179 -0.5784 -0.0418
  565HK4    C4147451   5.605   5.485   0.186 -0.2290 -0.3830  0.7030
  565HK4    H2147452   5.558   5.388   0.165 -1.1934  0.1335  0.4260
  565HK4    C4247453   5.711   5.486   0.276  0.4268 -0.3344 -0.0706
  565HK4    H2247454   5.750   5.390   0.310  0.1380  0.1196  1.5673
  565HK4    C4347455   5.771   5.605   0.316 -0.2941  0.2583 -0.7291
  565HK4    H2347456   5.855   5.595   0.384  0.3847 -1.3848 -1.7748
  565HK4    C4447457   5.712   5.726   0.280 -0.4239  0.5027  0.2864
  565HK4    H2447458   5.753   5.823   0.309 -1.2399  1.0809 -0.4809
  565HK4    C4547459   5.598   5.725   0.200 -0.2297 -0.5537  0.0121
  565HK4    H2547460   5.553   5.814   0.154 -1.9146 -1.5837 -0.3942
  566HK4    H2847461   9.612   4.210   5.020 -0.5749  2.1989 -0.5431
  566HK4    C4847462   9.713   4.248   5.007  0.1032  0.4537 -0.4431
  566HK4    C4747463   9.775   4.311   5.114 -0.1002  0.5378 -0.3742
  566HK4    H2747464   9.723   4.381   5.181 -2.0556  0.6779 -2.0217
  566HK4    C4647465   9.913   4.315   5.133 -0.1269 -0.4334  0.0826
  566HK4    H2647466   9.952   4.365   5.223  1.7929 -1.9258  0.1022
  566HK4    C4047467   9.996   4.257   5.036 -0.1439 -0.2323 -0.0513
  566HK4    C5047468   9.931   4.206   4.922 -0.0234  0.4317 -0.4227
  566HK4    H3047469   9.995   4.161   4.845  0.2892  0.6965 -0.3136
  566HK4    C4947470   9.793   4.193   4.907  0.0078 -0.4513 -0.0301
  566HK4    H2947471   9.752   4.159   4.811 -0.5504  2.0399 -0.7289
  566HK4     N247472  10.131   4.293   5.020 -0.1309 -0.2313  0.0419
  566HK4    C3047473  10.185   4.418   5.057 -0.0451 -0.1456 -0.3694
  566HK4    C2947474  10.125   4.543   5.050  0.5737  0.1972  0.3732
  566HK4    H1547475  10.018   4.554   5.036  0.4363  0.9698  1.8744
  566HK4    C2847476  10.203   4.658   5.052 -0.0157  0.6071  0.0097
  566HK4    C2747477  10.343   4.643   5.042 -0.0557 -0.0748  0.4228
  566HK4    H1447478  10.399   4.738   5.040 -1.0322  0.4987  0.1386
  566HK4    C3247479  10.408   4.521   5.048  0.0508 -0.0064  0.6594
  566HK4    H1647480  10.512   4.518   5.015  1.0338  4.2630  2.9470
  566HK4    C3147481  10.330   4.406   5.056 -0.0431 -0.0563 -0.9537
  566HK4    C3447482  10.359   4.272   5.010  0.3253  0.0296 -0.9761
  566HK4    C3347483  10.233   4.203   4.987  0.1176  0.0226  0.1178
  566HK4    C3547484  10.236   4.066   4.963  0.4184  0.0221  0.1550
  566HK4    H1747485  10.144   4.008   4.951  0.3759  0.0344  0.4288
  566HK4    C3647486  10.355   3.997   4.943 -0.0455 -0.8658  0.3977
  566HK4    H1847487  10.363   3.891   4.916 -0.0203 -0.4676 -1.1930
  566HK4    C3747488  10.476   4.065   4.954 -0.3463 -0.2391 -0.1085
  566HK4    H1947489  10.571   4.014   4.935  0.6681  1.3676  0.5322
  566HK4    C3847490  10.475   4.199   4.989  0.3402 -0.3250  0.2542
  566HK4    H2047491  10.570   4.253   4.988 -0.2902  0.7967 -0.7677
  566HK4    C1447492  10.143   4.785   5.096 -0.9503  0.2457 -0.2356
  566HK4     C947493  10.195   4.914   5.088 -0.1890 -0.0417  0.0024
  566HK4     C847494  10.189   5.009   5.192 -0.5126  0.0759 -0.1218
  566HK4    C1147495  10.112   4.980   5.304  0.2472 -0.4411  0.2706
  566HK4     H447496  10.112   5.053   5.386  2.3092  2.6181 -2.3255
  566HK4    C1247497  10.040   4.861   5.311 -0.1380 -0.2290 -0.0807
  566HK4     H547498   9.985   4.836   5.402  1.8234 -1.3053  0.8509
  566HK4    C1347499  10.065   4.767   5.212 -0.3704 -0.4324  0.0557
  566HK4     H647500  10.002   4.677   5.215 -1.6726  0.5392  3.1904
  566HK4     C747501  10.254   5.142   5.184 -0.1877 -0.0908 -0.2834
  566HK4     O247502  10.306   5.182   5.288 -0.4740 -0.0194 -0.1690
  566HK4     C447503  10.300   5.195   5.054  0.9251 -0.1987  0.0630
  566HK4     C347504  10.329   5.331   5.051  0.1646 -0.0354  0.1872
  566HK4     H347505  10.297   5.400   5.130 -1.4080  0.6968 -1.0646
  566HK4     C247506  10.386   5.384   4.936 -0.1363  0.1942  0.1404
  566HK4     H247507  10.418   5.489   4.931  1.8816 -0.3312  1.1532
  566HK4     C147508  10.413   5.294   4.834  0.2129  0.1441  0.2736
  566HK4     H147509  10.457   5.327   4.738  1.0416  0.1582  0.6548
  566HK4     C647510  10.383   5.156   4.838 -0.9645  0.3573 -0.6749
  566HK4     C547511  10.321   5.101   4.950  0.0681 -0.0166 -0.2771
  566HK4    C1047512  10.262   4.965   4.965  0.0273  0.0463  0.1559
  566HK4     O147513  10.226   4.906   4.863 -0.3178  0.4132  0.0686
  566HK4    C1647514  10.416   5.075   4.721 -0.8614 -0.1258 -0.3087
  566HK4    C1547515  10.420   5.131   4.592 -0.2450  0.0222 -0.2276
  566HK4     H747516  10.353   5.215   4.568  2.2505  1.6360 -1.8464
  566HK4    C2047517  10.517   5.098   4.497 -0.1238 -0.3526  0.0307
  566HK4     H947518  10.537   5.160   4.410 -0.5840  0.6478  0.6263
  566HK4    C1947519  10.601   4.989   4.516  0.0070 -0.1513  0.6165
  566HK4    C1847520  10.594   4.918   4.642  0.5115  0.2268  0.8587
  566HK4    C1747521  10.503   4.966   4.735  0.0181  0.6293  0.1602
  566HK4     H847522  10.506   4.915   4.831  3.0915 -0.0848 -0.2616
  566HK4     N147523  10.674   4.801   4.636  0.1551  0.0526 -0.5095
  566HK4    C2147524  10.742   4.811   4.513  0.3979  0.4283 -0.3443
  566HK4    C2247525  10.711   4.933   4.441 -0.6096  0.0976 -0.4766
  566HK4    C2647526  10.751   4.954   4.309  0.0526 -0.4576 -0.3649
  566HK4    H1347527  10.681   5.013   4.250 -1.0228 -0.9280  0.4237
  566HK4    C2547528  10.829   4.856   4.248  0.0452 -0.4225 -0.4314
  566HK4    H1247529  10.844   4.869   4.141 -1.2438  1.3547 -0.4191
  566HK4    C2447530  10.853   4.740   4.320  0.6012  0.0905  0.2273
  566HK4    H1147531  10.918   4.666   4.270 -0.2696  0.3457 -1.3003
  566HK4    C2347532  10.813   4.709   4.450  0.4903  0.1480  0.2054
  566HK4    H1047533  10.816   4.607   4.487  0.0089 -1.0354 -2.8711
  566HK4    C3947534  10.636   4.686   4.706  0.3465  0.3525  0.0865
  566HK4    C4147535  10.737   4.593   4.738  0.0046 -0.2251 -0.5148
  566HK4    H2147536  10.841   4.630   4.729 -0.1596  0.3385 -0.1031
  566HK4    C4247537  10.721   4.456   4.749 -0.0451 -0.1828 -0.0396
  566HK4    H2247538  10.790   4.412   4.823 -1.5871  0.5497  1.8459
  566HK4    C4347539  10.594   4.407   4.723 -0.2131  0.1720  0.1139
  566HK4    H2347540  10.581   4.299   4.718  0.4120  0.0282  1.2579
  566HK4    C4447541  10.491   4.494   4.690  0.0251  0.1884 -0.5893
  566HK4    H2447542  10.390   4.451   4.696  0.1323 -0.0284 -0.2908
  566HK4    C4547543  10.508   4.632   4.683  0.5542  0.1246 -0.5508
  566HK4    H2547544  10.424   4.702   4.676 -1.1193 -1.6919  0.8295
  567HK4    H2847545   3.113   0.661   1.114 -0.1760 -0.5916 -2.1477
  567HK4    C4847546   3.076   0.754   1.072  0.3596  0.6218 -0.0038
  567HK4    C4747547   3.133   0.811   0.959  0.1215  0.2487 -0.3143
  567HK4    H2747548   3.223   0.773   0.908  0.4433 -1.4170  1.4484
  567HK4    C4647549   3.078   0.922   0.897 -0.0354  0.4533  0.1916
  567HK4    H2647550   3.117   0.951   0.798 -1.5386 -0.0147 -0.5635
  567HK4    C4047551   2.966   0.986   0.955 -0.3372  0.0791  0.0278
  567HK4    C5047552   2.916   0.928   1.073 -0.0649 -0.8140 -0.2915
  567HK4    H3047553   2.817   0.963   1.107  0.3583 -0.3694  0.4994
  567HK4    C4947554   2.968   0.815   1.135  0.3539 -0.0950  0.6853
  567HK4    H2947555   2.942   0.775   1.234  0.8472 -0.2085  0.7707
  567HK4     N247556   2.901   1.091   0.889  0.1943  0.4323  0.0546
  567HK4    C3047557   2.911   1.112   0.750  0.2324 -0.0335 -0.0150
  567HK4    C2947558   2.924   1.027   0.641 -0.9886 -0.2869  0.0305
  567HK4    H1547559   2.935   0.921   0.664 -0.8878 -0.5197 -1.0737
  567HK4    C2847560   2.915   1.070   0.509  0.0263  0.2369  0.1304
  567HK4    C2747561   2.893   1.208   0.490  0.1788  0.1779 -0.4965
  567HK4    H1447562   2.897   1.251   0.389 -0.9106  1.1762 -0.1248
  567HK4    C3247563   2.885   1.302   0.592 -0.2242 -0.4132  0.0236
  567HK4    H1647564   2.860   1.407   0.573 -2.6548 -1.2796 -1.8552
  567HK4    C3147565   2.888   1.252   0.722  0.5021  0.0523  0.1890
  567HK4    C3447566   2.860   1.319   0.848 -0.3112 -0.1860  0.1362
  567HK4    C3347567   2.867   1.214   0.948 -0.0119  0.1693  0.4875
  567HK4    C3547568   2.894   1.253   1.079  0.0584 -0.1631  0.5709
  567HK4    H1747569   2.870   1.193   1.166 -0.9976  1.3675  1.3451
  567HK4    C3647570   2.924   1.384   1.112 -0.2183 -0.0047  0.2006
  567HK4    H1847571   2.953   1.408   1.216  1.3178  0.2714 -0.2790
  567HK4    C3747572   2.918   1.482   1.014  0.0146 -0.0289  0.1600
  567HK4    H1947573   2.927   1.586   1.048  2.0092  0.5859 -2.0991
  567HK4    C3847574   2.887   1.451   0.882 -0.2302 -0.2370  0.2672
  567HK4    H2047575   2.845   1.527   0.817 -0.7639 -1.1074 -0.4252
  567HK4    C1447576   2.984   0.985   0.411  0.4660  0.3621  0.3304
  567HK4     C947577   3.065   1.036   0.309  0.1453 -0.4214 -0.3240
  567HK4     C847578   3.071   0.979   0.180 -0.2296  0.3076 -0.6691
  567HK4    C1147579   2.999   0.863   0.157 -0.0437  0.0533  0.0019
  567HK4     H447580   2.989   0.830   0.052  2.1216  1.0161 -0.5355
  567HK4    C1247581   2.923   0.802   0.256 -0.0367  0.1178  0.0460
  567HK4     H547582   2.860   0.716   0.229 -0.5850 -0.0789  1.8982
  567HK4    C1347583   2.922   0.862   0.382  0.1620  0.6369 -0.1955
  567HK4     H647584   2.855   0.812   0.453  1.4324  1.5551  1.6747
  567HK4     C747585   3.149   1.044   0.072 -0.1024  0.2811 -0.5937
  567HK4     O247586   3.187   0.973  11.227 -0.6369 -0.0915 -0.5301
  567HK4     C447587   3.196   1.183   0.093  0.1668  0.0303  0.4947
  567HK4     C347588   3.249   1.251  11.233 -0.8800  0.2049  0.0846
  567HK4     H347589   3.269   1.196  11.140 -1.9654  1.0967 -0.6862
  567HK4     C247590   3.308   1.377  11.247  0.0189 -0.2333  0.2427
  567HK4     H247591   3.361   1.421  11.162  1.3151 -0.0134  1.1499
  567HK4     C147592   3.296   1.437   0.124 -0.0283  0.4740 -0.1022
  567HK4     H147593   3.347   1.534   0.138  1.1539 -0.2753  0.8915
  567HK4     C647594   3.233   1.379   0.236 -0.2316  0.1894 -0.3616
  567HK4     C547595   3.195   1.246   0.219  0.2042 -0.0525  0.5362
  567HK4    C1047596   3.143   1.162   0.331 -0.3123 -0.2217  0.1676
  567HK4     O147597   3.204   1.173   0.437 -0.2851 -0.1847  0.1475
  567HK4    C1647598   3.150   1.461   0.326 -0.2394  0.0605 -0.2524
  567HK4    C1547599   3.060   1.551   0.266 -0.0619  0.3253 -0.1246
  567HK4     H747600   3.030   1.535   0.161  0.5751  0.8556 -0.3944
  567HK4    C2047601   3.000   1.647   0.347 -0.2469 -0.3131  0.5041
  567HK4     H947602   2.940   1.723   0.296 -0.4561  0.4523  1.8588
  567HK4    C1947603   3.026   1.659   0.483  0.0314  0.1592  0.4109
  567HK4    C1847604   3.129   1.575   0.540 -0.0261  0.0181  0.3108
  567HK4    C1747605   3.190   1.482   0.457 -0.3202  0.3416 -0.2722
  567HK4     H847606   3.267   1.419   0.504 -1.7316 -0.6466  0.7844
  567HK4     N147607   3.168   1.618   0.669  0.3695 -0.0833  0.2268
  567HK4    C2147608   3.084   1.727   0.700  0.2561 -0.0797 -0.0890
  567HK4    C2247609   2.993   1.751   0.590 -0.4075 -0.0556  0.4602
  567HK4    C2647610   2.894   1.848   0.601 -0.7040 -0.2973 -0.0021
  567HK4    H1347611   2.837   1.883   0.516  0.4035 -0.0514 -0.6614
  567HK4    C2547612   2.874   1.911   0.724 -0.3248  0.1490 -0.1649
  567HK4    H1247613   2.796   1.984   0.744 -0.2758  0.0394  0.4296
  567HK4    C2447614   2.951   1.876   0.834 -0.2345  0.3774 -0.1563
  567HK4    H1147615   2.921   1.905   0.936  0.3546 -1.3503  0.5222
  567HK4    C2347616   3.063   1.794   0.820 -0.6015 -0.1116 -0.2177
  567HK4    H1047617   3.130   1.766   0.902  0.1439  0.4802 -0.6205
  567HK4    C3947618   3.237   1.534   0.757  0.6298  0.0532  0.1525
  567HK4    C4147619   3.307   1.586   0.868  0.2899  0.2292  0.2841
  567HK4    H2147620   3.326   1.694   0.859 -0.0287  0.1948 -0.9549
  567HK4    C4247621   3.331   1.516   0.985  0.3324 -0.4986 -0.1574
  567HK4    H2247622   3.381   1.564   1.071 -0.1152  1.0235 -0.7408
  567HK4    C4347623   3.289   1.384   0.994 -0.4049 -0.2325  0.3711
  567HK4    H2347624   3.270   1.339   1.092 -1.3102 -0.9897 -0.1410
  567HK4    C4447625   3.226   1.323   0.886 -0.1901  0.2570 -0.0291
  567HK4    H2447626   3.190   1.221   0.903  0.8575 -0.1254 -0.1000
  567HK4    C4547627   3.199   1.399   0.773 -0.4536  0.3523  0.0983
  567HK4    H2547628   3.148   1.347   0.690  0.4156 -1.2161  0.5274
  568HK4    H2847629   4.461   1.887   1.009  1.1899 -0.9902  1.6037
  568HK4    C4847630   4.547   1.951   0.988 -0.1864  0.5813  0.6264
  568HK4    C4747631   4.671   1.891   0.967 -0.4885  0.3185 -0.4193
  568HK4    H2747632   4.677   1.782   0.953  1.2468  0.1037  1.8605
  568HK4    C4647633   4.774   1.973   0.922 -0.3868  0.1291 -0.5348
  568HK4    H2647634   4.874   1.928   0.924  0.2051  1.3422 -1.7737
  568HK4    C4047635   4.760   2.111   0.894 -0.2810  0.2218 -0.1401
  568HK4    C5047636   4.632   2.163   0.923 -0.1350  0.4018  0.1837
  568HK4    H3047637   4.616   2.272   0.918 -0.8392  0.4487  2.8260
  568HK4    C4947638   4.525   2.086   0.966 -0.1887  0.5232  0.2666
  568HK4    H2947639   4.428   2.138   0.956  1.3016  2.9362 -2.4665
  568HK4     N247640   4.844   2.180   0.805 -0.2821  0.0857 -0.2468
  568HK4    C3047641   4.932   2.132   0.706  0.0271  0.4348 -0.1426
  568HK4    C2947642   4.969   2.002   0.672 -0.1329  0.3313  0.0837
  568HK4    H1547643   4.898   1.921   0.687  0.8499 -0.3477  1.1752
  568HK4    C2847644   5.075   1.976   0.586 -0.0307  0.1967  0.2490
  568HK4    C2747645   5.142   2.083   0.522  0.6115 -0.1507  0.3404
  568HK4    H1447646   5.220   2.068   0.446 -0.5268  0.0637 -0.8888
  568HK4    C3247647   5.103   2.213   0.551  0.3343 -0.1990  0.1934
  568HK4    H1647648   5.156   2.297   0.507  3.4943 -1.2674  1.7837
  568HK4    C3147649   5.008   2.241   0.649 -0.5528  0.4753 -0.8528
  568HK4    C3447650   4.960   2.361   0.715 -0.8849  0.2363 -0.6575
  568HK4    C3347651   4.864   2.319   0.815  0.1837 -0.0158  0.2843
  568HK4    C3547652   4.832   2.414   0.911  0.2457  0.4265 -0.1292
  568HK4    H1747653   4.777   2.374   0.996  1.3471 -1.2546 -0.1796
  568HK4    C3647654   4.870   2.548   0.905 -0.2947  0.5845  0.0017
  568HK4    H1847655   4.840   2.620   0.983  2.2872 -0.0888  1.6759
  568HK4    C3747656   4.960   2.588   0.808  0.3255 -0.0972  0.2921
  568HK4    H1947657   4.957   2.693   0.777 -3.4848 -0.2340 -0.0294
  568HK4    C3847658   5.002   2.494   0.715 -0.7693  0.2001 -0.5071
  568HK4    H2047659   5.064   2.525   0.631 -0.2189  2.1866  0.6018
  568HK4    C1447660   5.123   1.838   0.587  0.1103  0.2409 -0.3134
  568HK4     C947661   5.256   1.803   0.559 -0.0801 -0.5487 -0.2659
  568HK4     C847662   5.293   1.685   0.492 -0.1051 -0.7000 -0.0138
  568HK4    C1147663   5.187   1.596   0.475 -0.6574 -0.0115 -0.1995
  568HK4     H447664   5.219   1.496   0.443 -0.2643 -0.9248  2.8560
  568HK4    C1247665   5.054   1.620   0.508 -0.6671  0.2137 -0.4010
  568HK4     H547666   4.974   1.567   0.455 -0.6937 -1.5772  1.3856
  568HK4    C1347667   5.022   1.742   0.567  0.1308  0.0750  0.3413
  568HK4     H647668   4.914   1.760   0.582  0.7701  2.1971  2.6081
  568HK4     C747669   5.419   1.669   0.416 -0.2833  0.4883 -0.5713
  568HK4     O247670   5.465   1.560   0.382 -0.0789  0.4204 -0.0748
  568HK4     C447671   5.499   1.792   0.395  0.5398  0.0842  0.1684
  568HK4     C347672   5.600   1.790   0.300  0.2359 -0.2614 -0.1504
  568HK4     H347673   5.601   1.719   0.215  0.7929  1.2306 -1.4115
  568HK4     C247674   5.690   1.895   0.295 -0.0309 -0.0253  0.0034
  568HK4     H247675   5.779   1.889   0.229 -0.3802 -0.8364 -0.4016
  568HK4     C147676   5.664   2.009   0.369 -0.3215 -0.0628 -0.0403
  568HK4     H147677   5.707   2.101   0.327  0.2742 -0.9255 -1.3331
  568HK4     C647678   5.556   2.014   0.460 -0.0342 -0.0675  0.3038
  568HK4     C547679   5.478   1.901   0.482 -0.1937  0.0031  0.0979
  568HK4    C1047680   5.368   1.898   0.583 -0.1862 -0.5123  0.0954
  568HK4     O147681   5.396   1.919   0.701  0.0882  0.1142 -0.0765
  568HK4    C1647682   5.508   2.153   0.474  0.2132  0.1022 -0.5187
  568HK4    C1547683   5.492   2.243   0.366 -0.4174  0.0815 -0.4443
  568HK4     H747684   5.524   2.214   0.265 -0.6337 -0.4470 -0.3629
  568HK4    C2047685   5.436   2.368   0.388 -0.1804  0.1153 -0.0152
  568HK4     H947686   5.410   2.435   0.306 -1.5457  0.2253  0.4769
  568HK4    C1947687   5.408   2.413   0.517  0.2861 -0.3178  0.2386
  568HK4    C1847688   5.430   2.328   0.632 -0.9390 -0.5939  0.2755
  568HK4    C1747689   5.480   2.203   0.600  0.2603  0.0794 -0.4991
  568HK4     H847690   5.508   2.144   0.688 -3.4212  2.6587  2.5657
  568HK4     N147691   5.391   2.382   0.757 -0.5138 -0.3241  0.2933
  568HK4    C2147692   5.334   2.506   0.718  0.4242  0.1697  0.4794
  568HK4    C2247693   5.347   2.530   0.576  0.4071 -0.3316  0.3905
  568HK4    C2647694   5.319   2.652   0.515  0.0132 -0.6542 -0.0727
  568HK4    H1347695   5.302   2.655   0.407  2.0448 -0.4528 -0.3965
  568HK4    C2547696   5.284   2.756   0.600  0.2141 -0.1719 -0.5841
  568HK4    H1247697   5.250   2.845   0.547 -1.3791 -1.1652 -1.2681
  568HK4    C2447698   5.273   2.735   0.737  0.2923 -0.4389 -0.6186
  568HK4    H1147699   5.244   2.823   0.796 -0.7892 -1.8150  0.9404
  568HK4    C2347700   5.289   2.611   0.797 -0.4274 -0.0757  0.3301
  568HK4    H1047701   5.274   2.604   0.905 -1.0789 -1.0014  0.1824
  568HK4    C3947702   5.340   2.315   0.869 -0.1912 -0.4332  0.3725
  568HK4    C4147703   5.285   2.185   0.861 -0.6134 -0.2299 -0.0967
  568HK4    H2147704   5.263   2.136   0.765  0.9452  2.3082 -1.8273
  568HK4    C4247705   5.242   2.117   0.974  0.0332 -0.1594  0.1967
  568HK4    H2247706   5.202   2.017   0.952 -1.7602  0.5018  0.3317
  568HK4    C4347707   5.260   2.171   1.101  0.4106 -0.2220  0.1711
  568HK4    H2347708   5.236   2.109   1.187  1.6185  0.7789  1.2524
  568HK4    C4447709   5.323   2.294   1.117  0.7421 -0.3999  0.2312
  568HK4    H2447710   5.339   2.342   1.215  0.5965 -0.1158  0.1149
  568HK4    C4547711   5.363   2.359   1.001  0.1713 -0.0963  0.1994
  568HK4    H2547712   5.413   2.457   1.009 -0.0349  0.1295 -1.1744
  569HK4    H2847713   4.499  10.265  10.731  1.7805  3.0397  3.0566
  569HK4    C4847714   4.414  10.243  10.794 -0.1392 -0.1276 -0.4879
  569HK4    C4747715   4.320  10.342  10.821  0.0740 -0.1212  0.2279
  569HK4    H2747716   4.330  10.435  10.764  2.1396 -1.3627 -1.5464
  569HK4    C4647717   4.202  10.306  10.885 -0.1155 -0.0172 -0.0650
  569HK4    H2647718   4.132  10.391  10.878  0.6656  0.5952 -0.4746
  569HK4    C4047719   4.167  10.173  10.915 -0.3173 -0.0289 -0.3417
  569HK4    C5047720   4.266  10.075  10.889  0.3218  0.3991  0.4808
  569HK4    H3047721   4.240   9.969  10.903  0.6375 -0.1104 -2.3652
  569HK4    C4947722   4.389  10.112  10.836  0.1588 -0.1134 -0.2649
  569HK4    H2947723   4.463  10.032  10.828  0.6055  0.1434  1.0951
  569HK4     N247724   4.051  10.126  10.977 -0.3967 -0.0082 -0.4761
  569HK4    C3047725   3.979  10.197  11.074  0.1306 -0.1662  0.0321
  569HK4    C2947726   4.028  10.274  11.179 -0.2243 -0.3554  0.3406
  569HK4    H1547727   4.137  10.283  11.182 -0.1969 -0.5821  0.0221
  569HK4    C2847728   3.952  10.350   0.019  0.0284  0.0876  0.1773
  569HK4    C2747729   3.814  10.335  11.240 -0.0476 -0.0336  0.6220
  569HK4    H1447730   3.741  10.389   0.054 -0.8949 -0.6914  0.2179
  569HK4    C3247731   3.753  10.255  11.143  0.3473  0.2762  0.1147
  569HK4    H1647732   3.645  10.254  11.135  0.1517  1.2943  2.1908
  569HK4    C3147733   3.835  10.181  11.059  0.0850  0.6967 -0.5199
  569HK4    C3447734   3.817  10.081  10.955 -0.4761  0.7331 -0.4547
  569HK4    C3347735   3.952  10.044  10.919 -0.5994  0.0624 -0.2242
  569HK4    C3547736   3.973   9.944  10.824  0.1960 -0.0147  0.0226
  569HK4    H1747737   4.067   9.891  10.810 -0.1423 -0.4850 -0.4468
  569HK4    C3647738   3.868   9.897  10.746  0.2820  0.4581 -0.3760
  569HK4    H1847739   3.895   9.839  10.657  0.3381  0.2895 -0.2524
  569HK4    C3747740   3.739   9.936  10.782  0.1707  0.4786 -0.8029
  569HK4    H1947741   3.660   9.891  10.721 -0.6586 -1.4006  1.5862
  569HK4    C3847742   3.712  10.014  10.893  0.0103  0.0685 -0.5534
  569HK4    H2047743   3.613  10.019  10.938 -0.5733 -2.5983 -1.4474
  569HK4    C1447744   4.007  10.449   0.112  0.0530  0.1158  0.1314
  569HK4     C947745   3.930  10.511   0.211  0.4293 -0.2841  0.6809
  569HK4     C847746   3.947  10.650   0.234  0.5150 -0.2480  0.4096
  569HK4    C1147747   4.060  10.713   0.183 -0.1539  0.1819 -0.5524
  569HK4     H447748   4.078  10.818   0.212 -0.9000  0.3867 -0.7874
  569HK4    C1247749   4.155  10.638   0.115  0.0624  0.1017 -0.1605
  569HK4     H547750   4.250  10.681   0.080 -0.5512  0.4356 -1.4240
  569HK4    C1347751   4.130  10.508   0.075  0.0331  0.0603 -0.0196
  569HK4     H647752   4.197  10.457   0.004 -0.7952  1.3012 -1.7093
  569HK4     C747753   3.861  10.722   0.330 -0.2997 -0.1504 -0.3834
  569HK4     O247754   3.832  10.838   0.301  0.3833  0.1095 -0.0333
  569HK4     C447755   3.779  10.643   0.424  0.0587 -0.0612  0.0113
  569HK4     C347756   3.713  10.720   0.519 -0.1505 -0.2297  0.0054
  569HK4     H347757   3.715  10.830   0.526  0.7227 -0.2688  0.3773
  569HK4     C247758   3.631  10.663   0.616 -0.0892 -0.1759  0.0876
  569HK4     H247759   3.566  10.729   0.675 -0.9388  1.0991 -2.2008
  569HK4     C147760   3.620  10.525   0.609  0.3267 -0.2392  0.5713
  569HK4     H147761   3.555  10.485   0.688 -0.1565  1.0470  0.8448
  569HK4     C647762   3.690  10.441   0.520 -0.1040 -0.1634  0.1625
  569HK4     C547763   3.770  10.502   0.423 -0.5433 -0.0235 -0.1148
  569HK4    C1047764   3.849  10.440   0.313 -0.2548 -0.2087  0.1983
  569HK4     O147765   3.862  10.318   0.308 -0.6733 -0.2457 -0.0000
  569HK4    C1647766   3.665  10.298   0.544  0.2043 -0.3616 -0.6824
  569HK4    C1547767   3.652  10.249   0.675 -0.4190  0.3311 -0.4869
  569HK4     H747768   3.709  10.294   0.758  0.3250  0.0328 -0.8374
  569HK4    C2047769   3.562  10.147   0.702 -0.8044  0.8407  0.1863
  569HK4     H947770   3.548  10.123   0.808  0.9010  1.0735  0.4729
  569HK4    C1947771   3.490  10.081   0.603  0.3618  0.1834 -0.2237
  569HK4    C1847772   3.514  10.123   0.466 -0.4252  0.0609 -0.3981
  569HK4    C1747773   3.596  10.233   0.443 -0.0361 -0.2648 -0.5774
  569HK4     H847774   3.599  10.277   0.343 -2.0690 -0.2675 -0.6691
  569HK4     N147775   3.443  10.042   0.375 -0.1312 -0.6635  0.0157
  569HK4    C2147776   3.360   9.961   0.455 -0.6772  0.1129  0.2405
  569HK4    C2247777   3.385   9.982   0.596  0.8797 -0.3799  0.0399
  569HK4    C2647778   3.310   9.922   0.697  0.0566 -0.0675 -0.3827
  569HK4    H1347779   3.331   9.940   0.803 -0.0280 -0.2886 -0.3293
  569HK4    C2547780   3.213   9.834   0.652 -0.0497 -0.3159  0.3205
  569HK4    H1247781   3.168   9.771   0.729  1.6471 -1.3813  0.4639
  569HK4    C2447782   3.187   9.811   0.517 -0.1619 -0.2583  0.3325
  569HK4    H1147783   3.092   9.762   0.493  0.3450 -1.4424  0.7134
  569HK4    C2347784   3.260   9.872   0.416 -0.6333  0.0816  0.1951
  569HK4    H1047785   3.239   9.857   0.310 -2.4422  1.5008  0.3367
  569HK4    C3947786   3.493  10.006   0.249 -0.1633  0.0317 -0.1975
  569HK4    C4147787   3.409   9.964   0.144 -0.8142  0.2111  0.2465
  569HK4    H2147788   3.300   9.961   0.159 -0.7066 -2.6487  0.6587
  569HK4    C4247789   3.453   9.928   0.017  0.3680 -0.0643  0.7237
  569HK4    H2247790   3.381   9.874  11.202  0.2457  1.3859 -0.4111
  569HK4    C4347791   3.587   9.952  11.236  0.2070  0.2264  0.2179
  569HK4    H2347792   3.628   9.934  11.137 -2.7080 -0.9242 -0.8546
  569HK4    C4447793   3.677   9.991   0.086  0.0936 -0.6516  0.6765
  569HK4    H2447794   3.784   9.995   0.061  0.6683  0.7868  3.1695
  569HK4    C4547795   3.629  10.018   0.213  0.0079  0.1453  0.4761
  569HK4    H2547796   3.698  10.020   0.299  0.2056 -0.2179  0.3274
  570HK4    H2847797  11.243   8.798   0.509 -2.0191  0.7606 -0.7135
  570HK4    C4847798   0.005   8.896   0.557 -1.0367  0.4273 -0.2221
  570HK4    C4747799  11.218   8.911   0.691  0.0987  0.2620  0.0999
  570HK4    H2747800  11.185   8.823   0.747 -0.3942 -0.5105 -1.3785
  570HK4    C4647801  11.229   9.037   0.748  0.0939  0.3239 -0.0342
  570HK4    H2647802  11.208   9.049   0.855  0.0434  0.1473 -0.0251
  570HK4    C4047803   0.031   9.149   0.678  0.3475  0.1855 -0.0694
  570HK4    C5047804   0.059   9.129   0.541  0.0021  0.0840 -0.1243
  570HK4    H3047805   0.076   9.213   0.472  1.8344 -0.0108  0.1848
  570HK4    C4947806   0.040   9.006   0.479 -0.0245  0.1255 -0.2013
  570HK4    H2947807   0.035   8.999   0.370 -0.9976  3.2145 -0.4009
  570HK4     N247808   0.019   9.270   0.746  0.3168  0.0622  0.1458
  570HK4    C3047809  11.170   9.297   0.844  0.4263  0.1133  0.2372
  570HK4    C2947810  11.037   9.258   0.846  0.5181 -0.2097  0.2961
  570HK4    H1547811  11.008   9.191   0.765  0.2949 -2.1715  1.9404
  570HK4    C2847812  10.950   9.282   0.952  0.0388  0.3999 -0.2327
  570HK4    C2747813  11.009   9.343   1.064  0.1361 -0.4586  0.1842
  570HK4    H1447814  10.947   9.353   1.155 -1.7625 -1.1964 -1.0054
  570HK4    C3247815  11.138   9.393   1.058  0.1192 -0.3930  0.3528
  570HK4    H1647816  11.176   9.439   1.149  0.2109  0.9741 -0.3509
  570HK4    C3147817  11.222   9.386   0.946  0.1779  0.1113  0.3638
  570HK4    C3447818   0.107   9.423   0.904  0.1842 -0.4070 -0.0763
  570HK4    C3347819   0.129   9.351   0.780  1.0463 -1.0513  0.4416
  570HK4    C3547820   0.252   9.365   0.715  0.5383 -0.3421 -0.3704
  570HK4    H1747821   0.261   9.330   0.613 -0.9610 -0.9772 -0.3121
  570HK4    C3647822   0.354   9.439   0.775 -0.0972  0.3393 -0.1109
  570HK4    H1847823   0.454   9.437   0.729 -0.4248 -0.0908 -0.8320
  570HK4    C3747824   0.329   9.510   0.891 -0.2433  0.8208 -0.4356
  570HK4    H1947825   0.406   9.571   0.938  1.6034 -1.9763  0.3140
  570HK4    C3847826   0.206   9.506   0.956  0.0201 -0.2734  0.0167
  570HK4    H2047827   0.190   9.570   1.043  1.7738 -0.5184  0.5215
  570HK4    C1447828  10.805   9.274   0.926  0.1328 -0.0286 -0.6453
  570HK4     C947829  10.712   9.365   0.976  0.5436 -0.4917  0.9884
  570HK4     C847830  10.574   9.337   0.967  0.4496  0.0930  0.6098
  570HK4    C1147831  10.531   9.221   0.904  0.5640  0.5399 -0.3176
  570HK4     H447832  10.423   9.201   0.893  0.6756 -0.7489  0.8006
  570HK4    C1247833  10.620   9.133   0.844 -0.1788  0.0353 -0.6819
  570HK4     H547834  10.592   9.034   0.804 -0.1887  0.1810 -1.0390
  570HK4    C1347835  10.755   9.158   0.863 -0.1957  0.1529 -0.7174
  570HK4     H647836  10.822   9.077   0.830  1.3086  1.7733 -1.6766
  570HK4     C747837  10.484   9.401   1.065 -0.0146 -0.3699  0.4877
  570HK4     O247838  10.363   9.399   1.043 -0.0911  0.0026  0.8641
  570HK4     C447839  10.547   9.477   1.175 -0.3917  0.5372  0.0777
  570HK4     C347840  10.472   9.500   1.289 -0.0552  0.2117  0.3691
  570HK4     H347841  10.372   9.455   1.299  1.2263 -2.7943 -0.0035
  570HK4     C247842  10.528   9.570   1.395  0.1744  0.5669  0.0160
  570HK4     H247843  10.477   9.567   1.493 -0.0994 -0.1563 -0.1469
  570HK4     C147844  10.655   9.625   1.379  0.5138 -0.1648  0.2403
  570HK4     H147845  10.686   9.673   1.473 -2.6975  1.6167  0.4372
  570HK4     C647846  10.736   9.609   1.265 -0.0158 -0.6514 -0.0677
  570HK4     C547847  10.677   9.531   1.164 -0.2341  0.0450 -0.4796
  570HK4    C1047848  10.757   9.489   1.045  0.3053  0.2647 -0.1977
  570HK4     O147849  10.790   9.576   0.964  0.3794 -0.0659 -0.5237
  570HK4    C1647850  10.879   9.628   1.289 -0.1826 -0.0414  0.4449
  570HK4    C1547851  10.933   9.626   1.420  0.2264  0.1671  0.2808
  570HK4     H747852  10.888   9.554   1.490  0.3913 -0.3952 -0.1909
  570HK4    C2047853  11.057   9.672   1.462  0.1096  0.4542  0.3189
  570HK4     H947854  11.085   9.682   1.567  1.0092  1.4148 -0.0045
  570HK4    C1947855  11.146   9.724   1.369 -0.1167  0.2103 -0.0331
  570HK4    C1847856  11.096   9.737   1.233 -0.0153 -0.0115 -0.0921
  570HK4    C1747857  10.971   9.685   1.202 -0.1326 -0.0707  0.4783
  570HK4     H847858  10.963   9.670   1.095 -0.6353  0.4764  0.4425
  570HK4     N147859  11.201   9.782   1.149 -0.0611  0.2577 -0.0079
  570HK4    C2147860   0.063   9.801   1.235 -0.3178  0.3886  0.2930
  570HK4    C2247861   0.035   9.772   1.374 -0.0055 -0.1319  0.2466
  570HK4    C2647862   0.125   9.788   1.479  0.2161  0.0191  0.0319
  570HK4    H1347863   0.096   9.751   1.577 -0.5174 -1.1646 -0.6177
  570HK4    C2547864   0.250   9.843   1.451  0.0026  0.2818 -0.4141
  570HK4    H1247865   0.312   9.894   1.524 -1.6024  0.1098  1.0997
  570HK4    C2447866   0.280   9.869   1.318  0.0715  0.3501 -0.3858
  570HK4    H1147867   0.386   9.890   1.299 -0.2743  0.4857 -2.2696
  570HK4    C2347868   0.190   9.852   1.213 -0.2886  0.1693 -0.0500
  570HK4    H1047869   0.217   9.889   1.114  2.1220 -0.0353  0.5084
  570HK4    C3947870  11.189   9.853   1.029  0.0837  0.1020 -0.1155
  570HK4    C4147871   0.044   9.841   0.934 -0.4393 -0.3654 -0.6296
  570HK4    H2147872   0.116   9.758   0.941  1.6416  1.3773 -0.8557
  570HK4    C4247873   0.052   9.925   0.824  0.6238  0.8486  0.3514
  570HK4    H2247874   0.135   9.914   0.753  1.6551  3.4388  1.0859
  570HK4    C4347875  11.204  10.025   0.809 -0.2254 -0.0805 -0.4575
  570HK4    H2347876  11.229  10.111   0.747  1.6621 -0.2916 -0.0123
  570HK4    C4447877  11.091  10.028   0.890  0.2162  0.1261  0.1484
  570HK4    H2447878  11.002  10.073   0.843 -0.3230 -0.7765  0.3032
  570HK4    C4547879  11.087   9.947   1.003  0.1109  0.2277  0.2176
  570HK4    H2547880  11.011   9.955   1.083 -0.6337 -1.5180 -0.2869
  571HK4    H2847881   8.545   6.683   6.392  0.3189 -0.0596 -0.4012
  571HK4    C4847882   8.442   6.712   6.412  0.4814  0.2317  0.0101
  571HK4    C4747883   8.366   6.805   6.340  0.1152  0.0365  0.1390
  571HK4    H2747884   8.394   6.838   6.239  0.7599  0.5712  0.4910
  571HK4    C4647885   8.238   6.840   6.381  0.0320 -0.3456  0.2094
  571HK4    H2647886   8.168   6.905   6.327 -0.5785 -1.7832 -0.7674
  571HK4    C4047887   8.183   6.791   6.501  0.4862  0.0712  0.5865
  571HK4    C5047888   8.261   6.697   6.572  0.5715 -0.1638  0.1826
  571HK4    H3047889   8.224   6.663   6.670  0.8703 -2.4671 -0.4648
  571HK4    C4947890   8.388   6.661   6.529  0.3162 -0.4324 -0.3544
  571HK4    H2947891   8.445   6.592   6.594  1.4014  0.1991 -0.6177
  571HK4     N247892   8.084   6.858   6.573 -0.3499 -0.0370 -0.4620
  571HK4    C3047893   8.040   6.989   6.546  0.0280  0.1756 -0.0386
  571HK4    C2947894   8.115   7.100   6.508  0.0903 -0.0141 -0.4645
  571HK4    H1547895   8.223   7.088   6.511  0.0284 -0.2606  3.6511
  571HK4    C2847896   8.055   7.221   6.475 -0.0852  0.0063 -0.0678
  571HK4    C2747897   7.915   7.220   6.456 -0.0944 -0.1070 -0.0029
  571HK4    H1447898   7.864   7.306   6.410 -1.7409  0.0934  2.1483
  571HK4    C3247899   7.839   7.116   6.507 -0.2003  0.2390  0.5466
  571HK4    H1647900   7.735   7.136   6.532 -0.2468  0.9123 -0.1512
  571HK4    C3147901   7.897   7.003   6.564 -0.0514 -0.1688 -0.4080
  571HK4    C3447902   7.851   6.876   6.616 -0.2986 -0.2997 -0.9428
  571HK4    C3347903   7.969   6.792   6.622 -0.1173  0.0317  0.1713
  571HK4    C3547904   7.958   6.675   6.697  0.2119  0.5254  1.0068
  571HK4    H1747905   8.029   6.595   6.681  0.1512  0.2934  1.9162
  571HK4    C3647906   7.845   6.642   6.772  0.0744 -0.3909  0.4045
  571HK4    H1847907   7.850   6.573   6.857 -1.4281 -0.0791  0.7536
  571HK4    C3747908   7.732   6.722   6.761  0.4001  0.0146 -0.0685
  571HK4    H1947909   7.641   6.675   6.799  1.0194 -0.8544  0.3789
  571HK4    C3847910   7.736   6.836   6.683  0.1014  0.0430 -0.0422
  571HK4    H2047911   7.644   6.895   6.683 -0.9581 -1.5767  0.0247
  571HK4    C1447912   8.125   7.349   6.468  0.2121 -0.1255  0.4726
  571HK4     C947913   8.075   7.480   6.477  0.7569  0.0997  0.3105
  571HK4     C847914   8.127   7.586   6.401  0.4208  0.4718  0.5986
  571HK4    C1147915   8.241   7.567   6.323  0.1252 -0.0634  0.2946
  571HK4     H447916   8.300   7.647   6.277 -1.7559  1.0963 -0.1590
  571HK4    C1247917   8.304   7.443   6.324 -0.2182 -0.2409 -0.2562
  571HK4     H547918   8.411   7.442   6.298  0.1479 -1.0991  1.2561
  571HK4    C1347919   8.242   7.337   6.389 -0.1452 -0.1569 -0.0523
  571HK4     H647920   8.286   7.238   6.373 -1.4782 -0.5186 -1.6052
  571HK4     C747921   8.039   7.700   6.368 -0.1974 -0.1180  0.2117
  571HK4     O247922   8.091   7.803   6.325 -0.2082 -0.0048  0.4695
  571HK4     C447923   7.902   7.710   6.422 -0.5053 -0.6301 -0.4593
  571HK4     C347924   7.815   7.811   6.383  0.4368 -0.0778 -1.1433
  571HK4     H347925   7.850   7.899   6.327 -0.7965  0.4966 -1.0355
  571HK4     C247926   7.686   7.821   6.434  0.6873 -0.1262 -0.4944
  571HK4     H247927   7.617   7.899   6.400  1.4664  0.5637 -0.4840
  571HK4     C147928   7.647   7.722   6.524  0.2647  0.5914  0.1152
  571HK4     H147929   7.561   7.738   6.590  0.2298  0.1343  0.1809
  571HK4     C647930   7.723   7.606   6.553 -0.1550  0.1536 -0.5309
  571HK4     C547931   7.857   7.614   6.515  0.1395 -0.0305  0.4798
  571HK4    C1047932   7.953   7.508   6.558  0.3373 -0.1410 -0.2332
  571HK4     O147933   7.966   7.483   6.678  0.8997  0.1244 -0.2383
  571HK4    C1647934   7.643   7.485   6.578  0.1405  0.0583 -0.0480
  571HK4    C1547935   7.506   7.483   6.544  0.0582  0.7308  0.2260
  571HK4     H747936   7.476   7.567   6.480 -1.3196 -0.8320 -1.2325
  571HK4    C2047937   7.407   7.410   6.609  0.4369 -0.1274 -0.1551
  571HK4     H947938   7.301   7.414   6.582  0.2209 -1.5211  0.4346
  571HK4    C1947939   7.448   7.318   6.705  0.3413 -0.2196 -0.2023
  571HK4    C1847940   7.587   7.318   6.745  0.2931  0.0115 -0.0304
  571HK4    C1747941   7.681   7.392   6.674  0.2279 -0.2059 -0.3416
  571HK4     H847942   7.780   7.347   6.668  0.7367  0.9887 -1.1025
  571HK4     N147943   7.610   7.227   6.850  0.0625 -0.3783 -0.3192
  571HK4    C2147944   7.480   7.180   6.879 -0.2484  0.9475  0.4397
  571HK4    C2247945   7.376   7.222   6.786 -0.0461  0.0792 -0.1891
  571HK4    C2647946   7.242   7.219   6.823  0.0999  0.8237  0.4147
  571HK4    H1347947   7.166   7.244   6.749 -2.0004 -0.9052  1.9111
  571HK4    C2547948   7.210   7.178   6.952  0.0774 -0.7894 -0.1005
  571HK4    H1247949   7.107   7.191   6.984  0.5206  1.1529  0.6143
  571HK4    C2447950   7.304   7.129   7.042  0.1646  0.6902  0.6232
  571HK4    H1147951   7.282   7.104   7.147  0.8267  1.0948  0.8658
  571HK4    C2347952   7.437   7.132   7.002  0.0539  0.0926  0.2074
  571HK4    H1047953   7.510   7.101   7.076  0.2650 -0.4196 -0.2055
  571HK4    C3947954   7.731   7.214   6.919 -0.3613  0.2210  0.5429
  571HK4    C4147955   7.766   7.088   6.970 -0.4239  0.0620  0.1992
  571HK4    H2147956   7.724   7.001   6.918  0.6245  0.8822 -2.0883
  571HK4    C4247957   7.857   7.072   7.075  0.2718 -0.0461 -0.4135
  571HK4    H2247958   7.876   6.973   7.119  0.6844 -0.2518 -1.0358
  571HK4    C4347959   7.933   7.179   7.120  0.0060 -0.0002 -0.0728
  571HK4    H2347960   8.010   7.161   7.195 -0.3175 -0.4212  0.1659
  571HK4    C4447961   7.902   7.304   7.069 -0.6841 -0.5054 -0.9124
  571HK4    H2447962   7.971   7.383   7.103 -2.4395  0.3440  0.7486
  571HK4    C4547963   7.807   7.322   6.969 -0.9442  1.0792 -0.3932
  571HK4    H2547964   7.814   7.420   6.920 -0.0983  0.6574 -1.1299
  572HK4    H2847965   1.134   7.108   4.904  0.9463 -2.2310 -2.1555
  572HK4    C4847966   1.141   7.194   4.838  0.1976 -0.5440 -0.1080
  572HK4    C4747967   1.117   7.191   4.701  0.8022 -0.1458 -0.2299
  572HK4    H2747968   1.064   7.103   4.661 -1.0393  1.2539 -0.9847
  572HK4    C4647969   1.134   7.305   4.624  0.3694  0.0587 -0.0221
  572HK4    H2647970   1.104   7.293   4.519  0.6991  1.3398 -0.2810
  572HK4    C4047971   1.172   7.429   4.680  0.3340  0.2282 -0.3732
  572HK4    C5047972   1.189   7.430   4.820 -0.4385  0.0948 -0.2749
  572HK4    H3047973   1.223   7.521   4.871 -1.1609  0.3880 -0.3104
  572HK4    C4947974   1.178   7.315   4.897 -0.9244 -0.0077 -0.4964
  572HK4    H2947975   1.191   7.328   5.005  0.1592  1.3107 -0.7751
  572HK4     N247976   1.224   7.535   4.604  0.4544  0.4093 -0.0340
  572HK4    C3047977   1.281   7.530   4.475 -0.5315  0.0706 -0.4589
  572HK4    C2947978   1.360   7.430   4.419  0.3030  0.4037  0.1165
  572HK4    H1547979   1.370   7.339   4.477  2.6246  1.7824  1.9823
  572HK4    C2847980   1.430   7.443   4.300  0.3180  0.1503  0.0973
  572HK4    C2747981   1.418   7.569   4.237 -0.0862  0.0942  0.0570
  572HK4    H1447982   1.475   7.594   4.146  1.5444 -1.5146  0.5920
  572HK4    C3247983   1.337   7.671   4.285  0.3580  0.3447  0.2813
  572HK4    H1647984   1.331   7.766   4.232 -0.5057  0.3153  0.3145
  572HK4    C3147985   1.268   7.656   4.404 -0.0727  0.4012  0.0421
  572HK4    C3447986   1.216   7.752   4.500 -0.1217  0.5027 -0.0875
  572HK4    C3347987   1.187   7.671   4.617 -0.2705  0.2378 -0.3086
  572HK4    C3547988   1.146   7.735   4.733 -0.0279  0.1819 -0.1911
  572HK4    H1747989   1.090   7.673   4.803 -0.2641  1.3272  0.6476
  572HK4    C3647990   1.138   7.873   4.736  0.1381  0.1759  0.6260
  572HK4    H1847991   1.094   7.921   4.825 -0.1114 -1.4174  1.3723
  572HK4    C3747992   1.173   7.946   4.623 -0.3565 -0.2931  0.1635
  572HK4    H1947993   1.200   8.050   4.644 -1.4766  0.4647 -2.0042
  572HK4    C3847994   1.205   7.890   4.500 -0.2961  0.4903 -0.1815
  572HK4    H2047995   1.230   7.952   4.414 -3.1336  0.8254 -0.8305
  572HK4    C1447996   1.535   7.349   4.260  0.2486 -0.0600  0.4155
  572HK4     C947997   1.649   7.382   4.186 -0.1322  0.0208 -0.1414
  572HK4     C847998   1.694   7.301   4.079  0.2236 -0.0111  0.0309
  572HK4    C1147999   1.638   7.175   4.063 -0.3623  0.2786 -0.2153
  572HK4     H448000   1.645   7.124   3.966  0.1714 -0.5013  0.2311
  572HK4    C1248001   1.542   7.129   4.153  0.4122  0.1707  0.5595
  572HK4     H548002   1.505   7.025   4.156  1.0011 -0.0429  0.4832
  572HK4    C1348003   1.491   7.215   4.250 -0.6050  0.2527 -0.0431
  572HK4     H648004   1.414   7.176   4.318 -0.7544 -0.3344 -0.5463
  572HK4     C748005   1.812   7.339   3.999  0.1176  0.1030 -0.0715
  572HK4     O248006   1.873   7.257   3.930  0.1298 -0.4144  0.5486
  572HK4     C448007   1.870   7.474   4.017  0.4008 -0.0258 -0.0148
  572HK4     C348008   1.959   7.523   3.922  0.2469  0.2592 -0.0082
  572HK4     H348009   2.005   7.455   3.850 -0.4252 -2.7855  2.3350
  572HK4     C248010   2.001   7.656   3.923  0.5806  0.1542  0.0950
  572HK4     H248011   2.029   7.701   3.826 -1.1715  0.0653 -0.4646
  572HK4     C148012   1.949   7.739   4.021 -0.9083  0.3567 -0.8464
  572HK4     H148013   1.985   7.842   4.039  1.0392 -0.7831  2.2447
  572HK4     C648014   1.852   7.695   4.113  0.1757  0.0544  0.1713
  572HK4     C548015   1.821   7.559   4.118  0.5903 -0.0421  0.0915
  572HK4    C1048016   1.727   7.505   4.220 -0.1662  0.1445 -0.5116
  572HK4     O148017   1.750   7.519   4.340 -0.5021  0.3434 -0.4718
  572HK4    C1648018   1.751   7.795   4.152 -0.1791 -0.2019 -0.0841
  572HK4    C1548019   1.713   7.892   4.057  0.6217  0.2721  0.0745
  572HK4     H748020   1.744   7.883   3.951 -0.8361 -1.1848 -0.2454
  572HK4    C2048021   1.655   8.013   4.092 -0.0649 -0.0318 -0.0194
  572HK4     H948022   1.637   8.086   4.013  0.9535 -0.1505 -0.3686
  572HK4    C1948023   1.619   8.031   4.225 -0.3976  0.1722 -0.1363
  572HK4    C1848024   1.659   7.935   4.327  0.3267  0.8504  0.2211
  572HK4    C1748025   1.732   7.824   4.286 -0.1810  0.6902 -0.2736
  572HK4     H848026   1.781   7.765   4.364  1.7010  2.6779  0.1168
  572HK4     N148027   1.596   7.954   4.451 -0.3675 -0.2562  0.0467
  572HK4    C2148028   1.521   8.073   4.435  0.1171 -0.0047 -0.3860
  572HK4    C2248029   1.527   8.117   4.297 -0.5709  0.1720 -0.3562
  572HK4    C2648030   1.463   8.234   4.257 -0.0321  0.5348 -0.1757
  572HK4    H1348031   1.467   8.265   4.152 -1.2041  1.0109 -0.0773
  572HK4    C2548032   1.389   8.307   4.348 -0.0096  0.3455 -0.0082
  572HK4    H1248033   1.350   8.403   4.315 -0.6304 -0.3606 -1.3503
  572HK4    C2448034   1.392   8.276   4.484  0.0699  0.0482 -0.0770
  572HK4    H1148035   1.333   8.340   4.551  0.9977  0.1483  0.6364
  572HK4    C2348036   1.457   8.160   4.523  0.5631  0.2443 -0.3059
  572HK4    H1048037   1.434   8.122   4.622 -1.7356 -1.3694 -1.4182
  572HK4    C3948038   1.577   7.864   4.557  0.6139  0.1696  0.5935
  572HK4    C4148039   1.548   7.910   4.687  0.3410  0.2460  0.5061
  572HK4    H2148040   1.571   8.011   4.725 -1.0809 -1.1582  5.4491
  572HK4    C4248041   1.534   7.823   4.795  0.0477  0.0870  0.3389
  572HK4    H2248042   1.514   7.857   4.897  1.2063  1.1283  0.2328
  572HK4    C4348043   1.544   7.686   4.775  0.1966  0.1766 -0.2348
  572HK4    H2348044   1.542   7.621   4.863 -3.3294 -0.6367 -0.8262
  572HK4    C4448045   1.568   7.636   4.648 -0.1851  0.1414 -0.2945
  572HK4    H2448046   1.564   7.530   4.616  1.2878  0.1193 -0.4486
  572HK4    C4548047   1.583   7.724   4.542 -0.5916  0.2084 -0.2936
  572HK4    H2548048   1.579   7.678   4.442  0.4575  3.0198 -1.6841
  573HK4    H2848049   9.184   2.968   4.000  0.1944 -1.2058  0.4085
  573HK4    C4848050   9.090   2.969   3.944  0.2957 -0.2815  0.2394
  573HK4    C4748051   8.969   2.993   4.008  0.0652 -0.7422 -0.0181
  573HK4    H2748052   8.963   2.992   4.118  0.1710  2.0090  0.0431
  573HK4    C4648053   8.854   3.037   3.943  0.5112  0.6555  0.1182
  573HK4    H2648054   8.763   3.054   4.003  0.1579 -3.2504  0.8531
  573HK4    C4048055   8.861   3.046   3.803  0.0892 -0.0856  0.0437
  573HK4    C5048056   8.982   3.015   3.739 -0.1898  0.2351 -0.6496
  573HK4    H3048057   8.991   3.035   3.631  2.0232  1.5225 -0.2730
  573HK4    C4948058   9.100   2.982   3.806 -0.7012  0.1556  0.2066
  573HK4    H2948059   9.184   2.935   3.754  0.4092  0.5426  1.6139
  573HK4     N248060   8.754   3.105   3.735  0.0188 -0.2896 -0.0203
  573HK4    C3048061   8.712   3.065   3.606 -0.5446 -0.2310  0.1434
  573HK4    C2948062   8.751   2.958   3.526  0.1715  0.2171 -0.1083
  573HK4    H1548063   8.770   2.869   3.586  2.7909 -0.2864 -1.6261
  573HK4    C2848064   8.703   2.932   3.398  0.0230 -0.1573  0.0264
  573HK4    C2748065   8.617   3.029   3.341  0.3879 -0.0100 -0.2750
  573HK4    H1448066   8.551   3.019   3.254 -0.1974  2.2631 -0.1020
  573HK4    C3248067   8.580   3.145   3.408 -0.1859 -0.1624 -0.3259
  573HK4    H1648068   8.550   3.231   3.350  1.0024 -0.6371 -1.6644
  573HK4    C3148069   8.625   3.160   3.539 -0.2199 -0.2513 -0.3039
  573HK4    C3448070   8.619   3.272   3.631 -0.5453 -0.6993  0.2223
  573HK4    C3348071   8.688   3.229   3.751  0.1173 -0.2396  0.0089
  573HK4    C3548072   8.689   3.310   3.864  0.4102  0.1173 -0.2460
  573HK4    H1748073   8.747   3.278   3.950  0.1820  1.1749  0.3004
  573HK4    C3648074   8.629   3.436   3.859  0.7458  0.2631 -0.5621
  573HK4    H1848075   8.624   3.491   3.954  0.6762  0.1379 -0.4928
  573HK4    C3748076   8.562   3.478   3.745 -0.6827  0.1102  0.2154
  573HK4    H1948077   8.516   3.577   3.741 -1.2694 -0.2037 -0.9079
  573HK4    C3848078   8.560   3.398   3.632  0.0385 -0.4270  0.5807
  573HK4    H2048079   8.517   3.442   3.542 -0.0230 -0.0558  0.7948
  573HK4    C1448080   8.754   2.819   3.319  0.4333  0.1821 -0.1938
  573HK4     C948081   8.763   2.816   3.180  0.3021  0.0966 -0.2010
  573HK4     C848082   8.738   2.697   3.107  0.3737 -0.2597  0.3545
  573HK4    C1148083   8.716   2.582   3.181 -0.1473 -0.4118 -0.0335
  573HK4     H448084   8.699   2.483   3.135 -0.9222 -0.0298 -0.5816
  573HK4    C1248085   8.712   2.577   3.320  0.0232  0.3783 -0.0006
  573HK4     H548086   8.706   2.485   3.379  0.1672  1.2793  1.4380
  573HK4    C1348087   8.728   2.698   3.387 -0.8714  0.5282 -0.0608
  573HK4     H648088   8.722   2.702   3.497  0.1488 -2.1707  0.1186
  573HK4     C748089   8.705   2.703   2.963 -0.1207 -0.1966  0.4708
  573HK4     O248090   8.700   2.605   2.890 -0.0339  0.6341 -0.6664
  573HK4     C448091   8.696   2.837   2.900 -0.3542 -0.0609  0.7884
  573HK4     C348092   8.631   2.846   2.777  0.0666 -0.1254  0.5633
  573HK4     H348093   8.569   2.763   2.741  0.5315  0.5564 -1.9127
  573HK4     C248094   8.610   2.973   2.724 -0.2403 -0.5056 -0.2260
  573HK4     H248095   8.558   2.975   2.626  0.9209 -0.5051 -0.8440
  573HK4     C148096   8.652   3.088   2.790 -0.5740 -0.4158 -0.1696
  573HK4     H148097   8.615   3.184   2.753 -2.4414  0.0779  2.7726
  573HK4     C648098   8.729   3.083   2.908 -0.1019  0.4497 -0.4387
  573HK4     C548099   8.743   2.954   2.962 -0.7768  0.5474 -0.0269
  573HK4    C1048100   8.796   2.938   3.100  0.1285 -0.0067 -0.4313
  573HK4     O148101   8.899   2.991   3.141  0.3589 -0.5820 -0.2493
  573HK4    C1648102   8.806   3.205   2.935  0.3598  0.0863 -0.0918
  573HK4    C1548103   8.856   3.292   2.835 -0.1089  0.2046 -0.2238
  573HK4     H748104   8.911   3.243   2.753 -0.2870 -1.5812  0.6945
  573HK4    C2048105   8.881   3.426   2.861 -0.0159  0.2245 -0.4199
  573HK4     H948106   8.914   3.482   2.773 -1.2089  3.3838  1.0512
  573HK4    C1948107   8.873   3.479   2.989  0.1334 -0.4300 -0.1378
  573HK4    C1848108   8.840   3.387   3.095 -0.1572 -0.0274  0.1217
  573HK4    C1748109   8.799   3.258   3.063  0.5479 -0.2352  0.0508
  573HK4     H848110   8.739   3.207   3.138 -0.8402 -0.0570 -0.9165
  573HK4     N148111   8.837   3.450   3.221  0.2571  0.3558 -0.0614
  573HK4    C2148112   8.856   3.587   3.196  0.4168  0.3881  0.2217
  573HK4    C2248113   8.872   3.609   3.053  0.5979 -0.5427  0.0971
  573HK4    C2648114   8.869   3.737   2.999  0.3430 -0.5488  0.0952
  573HK4    H1348115   8.898   3.746   2.894  1.0788 -0.7853  0.2771
  573HK4    C2548116   8.833   3.846   3.078  1.0170 -0.4689  0.2963
  573HK4    H1248117   8.795   3.932   3.024  0.1267  0.6948  2.7410
  573HK4    C2448118   8.807   3.823   3.212 -0.4284  0.0752  0.1186
  573HK4    H1148119   8.761   3.901   3.274 -3.5637 -2.6173  1.3478
  573HK4    C2348120   8.828   3.699   3.273  0.0105  0.2357  0.2959
  573HK4    H1048121   8.856   3.694   3.378 -1.2066 -2.0365  0.5322
  573HK4    C3948122   8.885   3.385   3.336 -0.1696 -0.3646 -0.2892
  573HK4    C4148123   8.855   3.447   3.459  0.5562 -0.3942 -0.0954
  573HK4    H2148124   8.773   3.520   3.452  1.5568  0.6890 -0.8451
  573HK4    C4248125   8.923   3.423   3.578  0.4639  0.0313  0.0417
  573HK4    H2248126   8.911   3.493   3.662  0.0061  0.0673 -0.0503
  573HK4    C4348127   9.028   3.333   3.580 -0.0891 -0.5958  0.9150
  573HK4    H2348128   9.093   3.307   3.663  1.6451 -2.3659 -0.9201
  573HK4    C4448129   9.063   3.280   3.456 -0.6061  0.9508  0.0975
  573HK4    H2448130   9.138   3.200   3.456 -1.6432 -0.0323  0.0612
  573HK4    C4548131   8.996   3.297   3.335  0.0690 -0.0633 -0.4306
  573HK4    H2548132   9.003   3.222   3.256 -2.7846  1.4159 -2.1720
  574HK4    H2848133   6.617   1.191   7.598 -2.6137  0.5967  0.9587
  574HK4    C4848134   6.556   1.152   7.517 -0.4688 -0.2317 -0.3165
  574HK4    C4748135   6.419   1.142   7.541 -0.3721 -0.0752  0.3152
  574HK4    H2748136   6.366   1.183   7.628 -0.2783 -0.9613  0.7973
  574HK4    C4648137   6.342   1.067   7.453 -0.0283 -0.1819  0.1014
  574HK4    H2648138   6.235   1.060   7.481  0.1188 -0.4622  0.6019
  574HK4    C4048139   6.393   1.003   7.339 -0.2870 -0.1375 -0.0376
  574HK4    C5048140   6.532   1.015   7.320 -0.2380 -0.2563  0.2433
  574HK4    H3048141   6.571   0.961   7.233 -2.3634 -0.1037 -0.8229
  574HK4    C4948142   6.612   1.090   7.406 -0.0141  0.1061 -0.2759
  574HK4    H2948143   6.710   1.104   7.360  0.4687 -2.1703 -0.0162
  574HK4     N248144   6.307   0.973   7.232  0.3436  0.4631 -0.7148
  574HK4    C3048145   6.189   1.041   7.195 -0.1475 -0.0966 -0.1848
  574HK4    C2948146   6.149   1.173   7.209  0.0031 -0.0062 -0.5872
  574HK4    H1548147   6.206   1.229   7.284 -1.0196  0.8697 -0.4499
  574HK4    C2848148   6.027   1.220   7.163 -0.0727  0.1115 -0.2749
  574HK4    C2748149   5.955   1.134   7.077 -0.0684  0.1331 -0.2987
  574HK4    H1448150   5.853   1.162   7.048 -0.2949 -0.5078 -0.1389
  574HK4    C3248151   5.994   1.003   7.049 -0.7712 -0.2817  0.6241
  574HK4    H1648152   5.938   0.930   6.991  0.9855 -1.5484  0.5054
  574HK4    C3148153   6.106   0.954   7.114 -0.4165 -0.1328  0.1325
  574HK4    C3448154   6.185   0.834   7.095  0.0203  0.1584  0.1180
  574HK4    C3348155   6.309   0.847   7.170 -0.2706 -0.2324  0.6693
  574HK4    C3548156   6.407   0.749   7.157 -0.2226 -0.0720 -0.2030
  574HK4    H1748157   6.506   0.749   7.204  0.5108  2.1305 -1.6380
  574HK4    C3648158   6.382   0.648   7.065  0.0725 -0.2133 -0.1279
  574HK4    H1848159   6.457   0.568   7.053 -0.0753 -0.4445  0.4444
  574HK4    C3748160   6.266   0.637   6.990 -0.1603 -0.0893  0.2156
  574HK4    H1948161   6.250   0.547   6.931  0.8191  0.7997 -1.4238
  574HK4    C3848162   6.166   0.733   7.002  0.2508  0.3901 -0.1824
  574HK4    H2048163   6.099   0.759   6.919  2.5069  3.6155 -1.0947
  574HK4    C1448164   5.971   1.349   7.205  0.3221  0.1330  0.1876
  574HK4     C948165   5.838   1.387   7.223  0.0923 -0.1514 -0.8634
  574HK4     C848166   5.801   1.522   7.199  0.0683  0.0072  0.0608
  574HK4    C1148167   5.892   1.619   7.162  0.2498 -0.1406  0.1151
  574HK4     H448168   5.859   1.724   7.170  0.4610 -0.3576  4.9103
  574HK4    C1248169   6.026   1.582   7.158  0.2008 -0.2032 -1.1285
  574HK4     H548170   6.109   1.653   7.150  1.2579 -1.1885  0.6922
  574HK4    C1348171   6.067   1.451   7.185  0.3493  0.0390 -0.1690
  574HK4     H648172   6.175   1.430   7.189  0.2371 -0.2837  1.8599
  574HK4     C748173   5.658   1.557   7.187 -0.0096 -0.2663  0.1887
  574HK4     O248174   5.624   1.675   7.198 -0.0717 -0.2112 -0.5372
  574HK4     C448175   5.555   1.451   7.193 -0.1036 -0.1881 -0.0373
  574HK4     C348176   5.422   1.480   7.165  0.1018  0.2145 -0.6050
  574HK4     H348177   5.392   1.581   7.132  1.9299  1.3472  1.1463
  574HK4     C248178   5.317   1.393   7.196  0.2856  0.5956  1.1022
  574HK4     H248179   5.215   1.408   7.160  0.6462  2.8401  0.9194
  574HK4     C148180   5.355   1.281   7.268 -0.2061 -0.1893  0.1464
  574HK4     H148181   5.287   1.196   7.251  1.6143 -1.7752  0.4918
  574HK4     C648182   5.484   1.253   7.317 -0.0877 -0.1356 -0.1389
  574HK4     C548183   5.586   1.337   7.269 -0.0228 -0.0630  0.1209
  574HK4    C1048184   5.730   1.297   7.272  0.0531  0.1771 -0.3449
  574HK4     O148185   5.765   1.183   7.302  0.6786  0.4669  0.0334
  574HK4    C1648186   5.478   1.175   7.441 -0.5321 -0.5936 -0.4479
  574HK4    C1548187   5.358   1.122   7.492 -0.5242 -0.1108  0.0808
  574HK4     H748188   5.262   1.126   7.437 -1.6367  0.2573  1.9947
  574HK4    C2048189   5.343   1.052   7.611 -0.2150 -0.1174  0.1164
  574HK4     H948190   5.244   1.027   7.650 -0.4911  0.6002 -0.1145
  574HK4    C1948191   5.458   1.027   7.685  0.0956 -0.1881 -0.3844
  574HK4    C1848192   5.585   1.073   7.634  0.0347  0.5138  0.0952
  574HK4    C1748193   5.591   1.153   7.520 -0.6227  0.3602 -0.0499
  574HK4     H848194   5.661   1.236   7.522 -1.6783  1.2711 -0.4456
  574HK4     N148195   5.689   1.019   7.712 -0.1494  0.0115 -0.0086
  574HK4    C2148196   5.629   0.935   7.808  0.2298 -0.1042  0.1288
  574HK4    C2248197   5.484   0.944   7.802  0.2495 -0.0600 -0.3297
  574HK4    C2648198   5.398   0.900   7.901  0.7621  0.0475  0.1632
  574HK4    H1348199   5.291   0.923   7.897  0.4945 -0.8052  1.8732
  574HK4    C2548200   5.459   0.834   8.007  0.1433 -0.1758  0.3820
  574HK4    H1248201   5.395   0.807   8.091  0.2355 -2.4349 -0.2338
  574HK4    C2448202   5.596   0.815   8.011  0.2585  0.5251 -0.2581
  574HK4    H1148203   5.636   0.739   8.079  1.0268  2.2691  1.2902
  574HK4    C2348204   5.684   0.869   7.917  0.7735 -0.0203 -0.0940
  574HK4    H1048205   5.792   0.857   7.929  0.7458 -0.0672  0.1199
  574HK4    C3948206   5.823   1.013   7.671 -0.0827  0.6234  0.1194
  574HK4    C4148207   5.928   1.020   7.764  0.0223 -0.3945  0.0863
  574HK4    H2148208   5.907   1.057   7.866 -0.9704  0.4682 -0.4271
  574HK4    C4248209   6.058   0.984   7.729  0.1724  0.2587 -0.0415
  574HK4    H2248210   6.135   1.012   7.801 -2.2567  2.8139  1.6578
  574HK4    C4348211   6.081   0.916   7.610 -0.0946 -0.1440  0.1340
  574HK4    H2348212   6.177   0.866   7.597  0.7411  0.8110  2.3807
  574HK4    C4448213   5.981   0.911   7.513 -0.1064  0.1373  0.1298
  574HK4    H2448214   5.993   0.835   7.435 -0.7298  0.6567 -0.4849
  574HK4    C4548215   5.858   0.969   7.541  0.0753  0.4881  0.2077
  574HK4    H2548216   5.793   0.986   7.454  0.9476 -2.9934 -1.1768
  575HK4    H2848217   9.217   3.733   7.403  0.4320 -0.2721  0.1142
  575HK4    C4848218   9.273   3.810   7.456  0.1712  0.2311 -0.3405
  575HK4    C4748219   9.226   3.940   7.446  0.1513  0.2517  0.0436
  575HK4    H2748220   9.143   3.965   7.379  1.0055  1.1078 -0.7089
  575HK4    C4648221   9.287   4.041   7.519 -0.6542  0.2339  0.7474
  575HK4    H2648222   9.230   4.135   7.519 -1.1768 -0.0690 -0.6269
  575HK4    C4048223   9.404   4.021   7.595 -0.2010 -0.0478 -0.0199
  575HK4    C5048224   9.449   3.887   7.599  0.0136  0.0303  0.1993
  575HK4    H3048225   9.551   3.865   7.633 -0.4367 -1.0658  0.8487
  575HK4    C4948226   9.390   3.784   7.527 -0.0375  0.2014 -0.0023
  575HK4    H2948227   9.436   3.685   7.528  0.8460  0.6170  2.3174
  575HK4     N248228   9.485   4.129   7.632 -0.5554  0.1609  0.1406
  575HK4    C3048229   9.487   4.259   7.579 -0.2504  0.1173  0.0413
  575HK4    C2948230   9.448   4.295   7.451 -0.0400  0.0140 -0.0540
  575HK4    H1548231   9.405   4.217   7.387  1.8760 -1.5259  0.4927
  575HK4    C2848232   9.488   4.416   7.397 -0.3590  0.1085 -0.0822
  575HK4    C2748233   9.562   4.503   7.479  0.3431 -0.2713 -0.3122
  575HK4    H1448234   9.591   4.602   7.440 -0.9473 -0.4340 -1.7277
  575HK4    C3248235   9.595   4.474   7.611 -0.5650 -0.1215 -0.0506
  575HK4    H1648236   9.637   4.556   7.669 -1.6698  2.0323 -2.2059
  575HK4    C3148237   9.555   4.353   7.667 -0.2707 -0.0758  0.2615
  575HK4    C3448238   9.609   4.270   7.773  0.2604 -0.1323 -0.0527
  575HK4    C3348239   9.557   4.136   7.753  0.5222 -0.1757 -0.4695
  575HK4    C3548240   9.592   4.036   7.843 -0.2417  0.0700  0.1105
  575HK4    H1748241   9.533   3.945   7.858  0.9388 -0.4694  1.6275
  575HK4    C3648242   9.695   4.057   7.933 -0.2713 -0.0864  0.1815
  575HK4    H1848243   9.719   3.976   8.004  3.5129  0.6863 -0.1469
  575HK4    C3748244   9.759   4.180   7.942 -0.1675 -0.1080 -0.2669
  575HK4    H1948245   9.859   4.188   7.986 -0.5442 -0.1684  0.6283
  575HK4    C3848246   9.715   4.284   7.862 -0.0665  0.3432  0.2667
  575HK4    H2048247   9.780   4.371   7.850 -0.1241  0.1980 -1.2002
  575HK4    C1448248   9.473   4.450   7.254  0.3300 -0.4292 -0.2838
  575HK4     C948249   9.556   4.540   7.186 -0.2242  0.0107 -0.3766
  575HK4     C848250   9.504   4.631   7.090 -0.3067 -0.2784 -0.6064
  575HK4    C1148251   9.372   4.613   7.050 -0.4536 -0.1462 -0.1985
  575HK4     H448252   9.337   4.678   6.969  0.1436  0.7671  0.2674
  575HK4    C1248253   9.294   4.507   7.093 -0.0710 -0.4216 -0.1839
  575HK4     H548254   9.202   4.471   7.046  0.2728 -1.1194 -0.3417
  575HK4    C1348255   9.345   4.431   7.199  0.3510 -0.3735 -0.3546
  575HK4     H648256   9.287   4.351   7.245 -1.1467 -0.3859 -2.2077
  575HK4     C748257   9.592   4.731   7.026  0.3544  0.0140  0.7263
  575HK4     O248258   9.543   4.829   6.970  0.0124 -0.0797  0.8603
  575HK4     C448259   9.737   4.732   7.057  0.5107  0.3695  0.0112
  575HK4     C348260   9.814   4.827   6.992  0.3768  0.4319 -0.0537
  575HK4     H348261   9.764   4.904   6.931 -0.5958 -0.3737 -0.2918
  575HK4     C248262   9.946   4.841   7.033  0.3340 -0.0205  0.2497
  575HK4     H248263  10.021   4.875   6.960  0.5314  0.2761  0.5959
  575HK4     C148264   9.987   4.782   7.152  0.2562 -0.5956 -0.0061
  575HK4     H148265  10.096   4.781   7.159  0.3827 -0.2789 -1.6364
  575HK4     C648266   9.907   4.698   7.232 -0.0639 -0.6445 -0.3736
  575HK4     C548267   9.787   4.664   7.170 -0.6628  0.0873  0.3675
  575HK4    C1048268   9.701   4.551   7.217 -0.2238 -0.4866 -0.1995
  575HK4     O148269   9.763   4.448   7.241 -0.2748 -0.4944 -0.1010
  575HK4    C1648270   9.936   4.696   7.376 -0.1404  0.1643 -0.3437
  575HK4    C1548271   9.969   4.816   7.442 -0.5238 -0.0482  0.2431
  575HK4     H748272   9.940   4.910   7.393  0.8179 -0.0472 -0.5626
  575HK4    C2048273  10.008   4.814   7.575  0.3137 -0.3168 -0.0066
  575HK4     H948274  10.008   4.905   7.635 -1.8225 -0.0049 -0.4445
  575HK4    C1948275  10.040   4.695   7.639  0.6601 -0.1336  0.1655
  575HK4    C1848276  10.018   4.570   7.568  0.0716  0.0668 -0.0009
  575HK4    C1748277   9.968   4.575   7.439  0.2012  0.4107 -0.0374
  575HK4     H848278   9.984   4.488   7.375 -0.0528 -1.1346  1.9774
  575HK4     N148279  10.026   4.466   7.663  0.5015 -0.2492 -0.3811
  575HK4    C2148280  10.031   4.526   7.791  0.1496 -0.8451 -0.0855
  575HK4    C2248281  10.051   4.670   7.782  0.2026 -0.8431  0.0791
  575HK4    C2648282  10.093   4.747   7.889  0.4088 -0.8218 -0.0174
  575HK4    H1348283  10.115   4.852   7.868  0.8193 -0.9024 -0.0076
  575HK4    C2548284  10.105   4.695   8.017  0.1668  0.3897  0.5119
  575HK4    H1248285  10.125   4.759   8.102 -0.7464  1.7217 -0.2615
  575HK4    C2448286  10.074   4.560   8.030 -0.0573  0.3997  0.0888
  575HK4    H1148287  10.083   4.506   8.125 -0.9643  0.0677 -0.0074
  575HK4    C2348288  10.045   4.479   7.921 -0.4920  0.1855  0.3623
  575HK4    H1048289  10.022   4.374   7.938  1.0274 -0.1734  0.2572
  575HK4    C3948290   9.996   4.333   7.633 -0.2256 -0.3055  0.5330
  575HK4    C4148291  10.043   4.233   7.720  0.4498 -0.1368  0.3601
  575HK4    H2148292  10.142   4.244   7.768  0.6848 -0.3274 -0.0767
  575HK4    C4248293   9.993   4.104   7.719  0.3471 -0.0911 -0.2743
  575HK4    H2248294  10.027   4.023   7.785  1.9885  0.9655  0.1967
  575HK4    C4348295   9.894   4.066   7.629  0.3874 -0.4532 -0.1647
  575HK4    H2348296   9.830   3.984   7.664  1.7737 -0.6669  1.9312
  575HK4    C4448297   9.849   4.157   7.535 -0.4967 -0.4089  0.2895
  575HK4    H2448298   9.774   4.125   7.461  0.1288  1.1399 -1.0587
  575HK4    C4548299   9.897   4.287   7.543  0.4407 -0.7298  0.0043
  575HK4    H2548300   9.862   4.350   7.460  2.0204 -1.1899 -1.0395
  576HK4    H2848301   1.406   2.012   3.297 -1.2241 -0.6795 -1.7116
  576HK4    C4848302   1.340   2.092   3.329 -0.0408 -0.1592 -0.5500
  576HK4    C4748303   1.230   2.078   3.414  0.5967 -0.0735  0.2974
  576HK4    H2748304   1.199   1.979   3.451 -0.3779 -0.4682 -1.5228
  576HK4    C4648305   1.152   2.185   3.456 -0.1775 -0.5114 -0.0139
  576HK4    H2648306   1.047   2.177   3.487  0.2999 -1.7848  1.3485
  576HK4    C4048307   1.196   2.316   3.427 -0.3838 -0.4668 -0.1214
  576HK4    C5048308   1.298   2.330   3.331 -0.1848  0.1306  0.1824
  576HK4    H3048309   1.345   2.429   3.315 -1.0482  0.9286  2.4098
  576HK4    C4948310   1.369   2.220   3.285  0.3942  0.2299  0.8214
  576HK4    H2948311   1.430   2.240   3.195  0.8868  2.6474  1.6561
  576HK4     N248312   1.156   2.426   3.503  0.2565 -0.1322 -0.2639
  576HK4    C3048313   1.122   2.416   3.640 -0.5400  0.1085 -0.4405
  576HK4    C2948314   1.161   2.320   3.732 -0.9431  0.2720 -0.0993
  576HK4    H1548315   1.202   2.230   3.685  3.1713  1.4133  1.1059
  576HK4    C2848316   1.147   2.340   3.869 -0.4479 -0.4126  0.0563
  576HK4    C2748317   1.079   2.458   3.906  0.1127  0.0832 -0.4656
  576HK4    H1448318   1.088   2.491   4.010 -2.0158 -1.8653  0.3799
  576HK4    C3248319   1.028   2.552   3.817 -0.5468  0.4830  0.3217
  576HK4    H1648320   0.948   2.613   3.859 -0.7307  1.3104 -1.2070
  576HK4    C3148321   1.063   2.542   3.683 -0.2008 -0.0293  0.4481
  576HK4    C3448322   1.057   2.627   3.565 -0.3441 -0.3232  0.2428
  576HK4    C3348323   1.108   2.549   3.454 -0.2412 -0.1486  0.1684
  576HK4    C3548324   1.135   2.618   3.337  0.5447 -0.3043  0.2547
  576HK4    H1748325   1.154   2.566   3.243 -0.2989  0.4632 -0.3488
  576HK4    C3648326   1.123   2.756   3.327  0.4938 -0.2882  0.5681
  576HK4    H1848327   1.151   2.812   3.237 -0.6033 -0.7090 -0.0406
  576HK4    C3748328   1.082   2.834   3.436 -1.3074  0.0923 -0.3646
  576HK4    H1948329   1.051   2.937   3.419 -0.5744  0.3531 -0.1550
  576HK4    C3848330   1.047   2.765   3.551  0.1713 -0.3253 -0.1524
  576HK4    H2048331   0.997   2.822   3.629 -1.2106  2.6041 -3.0589
  576HK4    C1448332   1.200   2.247   3.969  0.2147 -0.4567 -0.3291
  576HK4     C948333   1.158   2.249   4.103 -0.1748 -0.5174 -0.4500
  576HK4     C848334   1.256   2.225   4.201 -0.1413 -0.3883 -0.4502
  576HK4    C1148335   1.385   2.186   4.165  0.0864  0.1583 -0.2283
  576HK4     H448336   1.462   2.182   4.244  0.4920  2.0891 -0.5022
  576HK4    C1248337   1.417   2.166   4.032  0.1772 -0.1474 -0.1612
  576HK4     H548338   1.521   2.160   3.996 -0.4118  0.4606 -2.0401
  576HK4    C1348339   1.322   2.187   3.932  0.5524  0.2922 -0.4264
  576HK4     H648340   1.344   2.169   3.826 -0.4236 -3.4517 -0.0683
  576HK4     C748341   1.223   2.212   4.345  0.2066 -0.4423 -0.3760
  576HK4     O248342   1.304   2.248   4.430 -0.2532  0.3224 -0.2583
  576HK4     C448343   1.083   2.177   4.380  0.1650 -0.1346 -0.2305
  576HK4     C348344   1.055   2.152   4.514  0.4580 -0.9794 -0.3261
  576HK4     H348345   1.129   2.095   4.572 -1.7853 -1.6556  1.9751
  576HK4     C248346   0.924   2.129   4.555  0.2905  0.0111 -0.2939
  576HK4     H248347   0.901   2.118   4.662 -3.5340  1.2856 -0.9183
  576HK4     C148348   0.825   2.121   4.457  0.2518 -0.3399 -0.2279
  576HK4     H148349   0.732   2.073   4.489 -0.2213 -0.9439 -2.4181
  576HK4     C648350   0.851   2.137   4.319  0.3159 -0.5373 -0.2385
  576HK4     C548351   0.981   2.176   4.284  0.2659 -0.4606 -0.3357
  576HK4    C1048352   1.018   2.231   4.150 -0.1877 -0.6495 -0.5394
  576HK4     O148353   0.927   2.288   4.091 -0.1325 -0.4455 -0.4263
  576HK4    C1648354   0.736   2.112   4.232 -0.1110  0.1194  0.1378
  576HK4    C1548355   0.605   2.127   4.281 -0.2164 -0.3654  0.0065
  576HK4     H748356   0.589   2.208   4.354  0.9093 -1.9556  2.0752
  576HK4    C2048357   0.499   2.056   4.226 -0.3823 -0.3466  0.2971
  576HK4     H948358   0.398   2.066   4.264 -1.2016  0.3199 -1.9466
  576HK4    C1948359   0.516   1.989   4.105  0.4448 -0.4569  0.4720
  576HK4    C1848360   0.647   1.987   4.044  0.2469 -0.0002  0.0304
  576HK4    C1748361   0.754   2.046   4.111  0.1307 -0.0642  0.2730
  576HK4     H848362   0.851   2.054   4.062  0.2482  1.1980  0.6853
  576HK4     N148363   0.648   1.910   3.926 -0.2578  0.4480 -0.2679
  576HK4    C2148364   0.517   1.860   3.910 -0.0155 -0.2926  0.0490
  576HK4    C2248365   0.434   1.903   4.021  0.2979 -0.0322  0.1807
  576HK4    C2648366   0.310   1.847   4.049 -0.2723  0.8914 -0.4503
  576HK4    H1348367   0.255   1.880   4.137 -1.3539 -1.6017 -0.1647
  576HK4    C2548368   0.262   1.736   3.980  0.2617  0.2145  0.2523
  576HK4    H1248369   0.158   1.706   3.980  0.6580 -1.5271 -3.8344
  576HK4    C2448370   0.340   1.697   3.872 -0.5178  0.5557 -0.4404
  576HK4    H1148371   0.294   1.623   3.805  0.4690  0.0693 -0.6031
  576HK4    C2348372   0.462   1.754   3.838 -0.3611  0.2204 -0.4471
  576HK4    H1048373   0.502   1.730   3.740 -0.4171 -1.0663 -0.1624
  576HK4    C3948374   0.734   1.923   3.816 -0.5987  0.0425 -0.5898
  576HK4    C4148375   0.800   2.044   3.785  0.1457 -0.0992  0.3838
  576HK4    H2148376   0.754   2.136   3.825 -0.0358 -0.8745  2.0067
  576HK4    C4248377   0.897   2.050   3.686  0.1020  0.3734  0.3670
  576HK4    H2248378   0.939   2.148   3.657  0.7382  0.5043  1.7176
  576HK4    C4348379   0.935   1.939   3.611 -0.3748  0.3557  0.1500
  576HK4    H2348380   1.009   1.943   3.531 -0.1283 -0.8678  0.3120
  576HK4    C4448381   0.869   1.820   3.638  0.1773  0.0398  0.1070
  576HK4    H2448382   0.893   1.731   3.578  0.2832  0.5875 -0.6757
  576HK4    C4548383   0.777   1.812   3.742 -0.2144 -0.0424 -0.2442
  576HK4    H2548384   0.714   1.721   3.741 -1.2063  0.6416 -2.4136
  577HK4    H2848385   6.502   1.920   4.762 -0.7630 -1.5922 -1.3073
  577HK4    C4848386   6.525   1.842   4.835 -0.2112 -0.3174 -0.0960
  577HK4    C4748387   6.553   1.877   4.967  0.0115 -0.5711 -0.0745
  577HK4    H2748388   6.565   1.982   4.994 -0.3651 -0.4698 -0.2868
  577HK4    C4648389   6.573   1.769   5.053 -0.2134 -0.3891  0.2043
  577HK4    H2648390   6.614   1.789   5.153 -2.9296 -0.6508  1.4055
  577HK4    C4048391   6.578   1.635   5.009  0.1990 -0.2751 -0.1047
  577HK4    C5048392   6.554   1.605   4.873  0.5830  0.0003 -0.2328
  577HK4    H3048393   6.566   1.504   4.833 -0.5458 -0.2110 -0.0463
  577HK4    C4948394   6.530   1.712   4.787  0.2356 -0.1998 -0.3813
  577HK4    H2948395   6.531   1.699   4.678  1.5663 -2.0735 -0.1829
  577HK4     N248396   6.556   1.530   5.098 -0.2410 -0.1836 -0.1013
  577HK4    C3048397   6.485   1.539   5.220  0.5883  0.0868  0.3650
  577HK4    C2948398   6.385   1.624   5.263  0.6964  0.1707  0.4495
  577HK4    H1548399   6.363   1.714   5.205 -0.1080  0.0989  0.6376
  577HK4    C2848400   6.305   1.593   5.373  0.3326  0.1838  0.1899
  577HK4    C2748401   6.338   1.478   5.449 -0.2832 -0.5349 -0.6141
  577HK4    H1448402   6.263   1.439   5.519 -0.7372 -1.0208 -1.3630
  577HK4    C3248403   6.452   1.403   5.425  0.2134 -0.0404  0.1586
  577HK4    H1648404   6.498   1.345   5.505  0.6621 -1.0867 -0.8497
  577HK4    C3148405   6.524   1.431   5.309  0.0782 -0.4154 -0.0166
  577HK4    C3448406   6.626   1.355   5.239  0.3239 -0.0996 -0.0019
  577HK4    C3348407   6.645   1.421   5.111  0.3386  0.3225  0.2166
  577HK4    C3548408   6.767   1.394   5.049  0.1066  0.1479 -0.1690
  577HK4    H1748409   6.785   1.443   4.954  1.2954 -0.2784 -0.1733
  577HK4    C3648410   6.860   1.299   5.090 -0.1580 -0.0916 -0.1240
  577HK4    H1848411   6.964   1.304   5.056 -0.8100 -2.1722 -2.5093
  577HK4    C3748412   6.836   1.238   5.213 -0.3100 -0.3536 -0.2838
  577HK4    H1948413   6.908   1.163   5.247  1.8888  2.1137  0.6611
  577HK4    C3848414   6.719   1.262   5.283 -0.1838 -0.6012  0.0174
  577HK4    H2048415   6.708   1.221   5.383 -0.1209 -1.2323 -0.2302
  577HK4    C1448416   6.215   1.695   5.428 -0.1781 -0.0532 -0.2052
  577HK4     C948417   6.196   1.717   5.565  0.5874 -0.3348 -0.0521
  577HK4     C848418   6.072   1.752   5.621  0.5034 -0.2374 -0.2942
  577HK4    C1148419   5.964   1.777   5.537  0.4000 -0.0295 -0.0999
  577HK4     H448420   5.858   1.767   5.564  0.7211 -2.7792  0.2471
  577HK4    C1248421   5.984   1.777   5.399  0.0601 -0.4679 -0.1492
  577HK4     H548422   5.908   1.818   5.331  1.2312 -0.0120 -1.1929
  577HK4    C1348423   6.105   1.732   5.348  0.1021  0.0800 -0.5279
  577HK4     H648424   6.115   1.721   5.239  0.7373 -0.7416 -0.3890
  577HK4     C748425   6.055   1.761   5.768 -0.1434  0.1448 -0.3897
  577HK4     O248426   5.942   1.772   5.816  0.1546  0.5551  0.2329
  577HK4     C448427   6.169   1.728   5.856 -0.0205  0.2939 -0.4914
  577HK4     C348428   6.147   1.733   5.993  0.1995  0.8076 -0.4733
  577HK4     H348429   6.059   1.786   6.034  1.0184  1.7702  0.0604
  577HK4     C248430   6.243   1.678   6.077 -0.1582  0.2376 -0.4369
  577HK4     H248431   6.236   1.705   6.183 -1.3199  0.5427 -0.5872
  577HK4     C148432   6.354   1.612   6.025  0.1416  0.3412  0.0676
  577HK4     H148433   6.411   1.560   6.104  0.2461  0.7197  0.2399
  577HK4     C648434   6.383   1.617   5.887  0.0908 -0.3932  0.0272
  577HK4     C548435   6.292   1.682   5.804  0.1992  0.0365  0.2389
  577HK4    C1048436   6.311   1.694   5.656  0.4001 -0.0371  0.2606
  577HK4     O148437   6.422   1.728   5.616  0.3314  0.5166  0.5351
  577HK4    C1648438   6.468   1.507   5.839  0.4286 -0.1675  0.1019
  577HK4    C1548439   6.439   1.373   5.874 -0.4050 -0.0276 -0.0448
  577HK4     H748440   6.337   1.341   5.902  0.1093  0.0067  1.9582
  577HK4    C2048441   6.535   1.274   5.857 -0.2970  0.1242 -0.3311
  577HK4     H948442   6.522   1.170   5.886  1.7566 -0.4658 -1.4437
  577HK4    C1948443   6.650   1.299   5.784 -0.0303 -0.7569 -0.2170
  577HK4    C1848444   6.675   1.435   5.740  0.3458 -0.5037  0.7547
  577HK4    C1748445   6.587   1.537   5.774  0.3883 -0.2147  0.0051
  577HK4     H848446   6.624   1.639   5.766  2.2829 -1.0079 -1.6625
  577HK4     N148447   6.789   1.443   5.658 -0.0380  0.0324  0.2666
  577HK4    C2148448   6.833   1.309   5.648 -0.5910 -0.1114 -0.2263
  577HK4    C2248449   6.760   1.218   5.733  0.4977 -0.4257  0.3799
  577HK4    C2648450   6.807   1.088   5.749  0.2064 -0.5678  0.0882
  577HK4    H1348451   6.754   1.013   5.807 -3.5060  0.0225 -2.3593
  577HK4    C2548452   6.921   1.045   5.682  0.3747  0.2830 -0.1813
  577HK4    H1248453   6.960   0.947   5.708 -1.0520 -0.1608  0.3246
  577HK4    C2448454   6.987   1.130   5.593  0.7935 -0.3421 -0.4733
  577HK4    H1148455   7.069   1.083   5.537  1.2566  0.0909 -0.1604
  577HK4    C2348456   6.939   1.259   5.574  0.0683 -0.3962  0.9053
  577HK4    H1048457   6.979   1.321   5.494 -1.2158 -0.2590  0.3693
  577HK4    C3948458   6.827   1.548   5.573 -0.1550 -0.0302  0.1389
  577HK4    C4148459   6.963   1.570   5.545 -0.0768 -0.7136 -0.0325
  577HK4    H2148460   7.037   1.512   5.604  1.1980 -0.5992 -1.4831
  577HK4    C4248461   6.998   1.653   5.440 -0.2765 -0.5012  0.0695
  577HK4    H2248462   7.105   1.663   5.413  0.2048 -0.7126  1.8456
  577HK4    C4348463   6.903   1.722   5.365  0.5241  0.0590 -0.4377
  577HK4    H2348464   6.941   1.778   5.279  0.3574 -2.6898 -2.3508
  577HK4    C4448465   6.768   1.705   5.390  0.5411  0.5621  0.0147
  577HK4    H2448466   6.690   1.751   5.327 -2.6105 -1.7570  2.0954
  577HK4    C4548467   6.734   1.620   5.494  0.4451  0.7165  0.1109
  577HK4    H2548468   6.628   1.598   5.511  0.5355 -1.5257 -1.9411
  578HK4    H2848469   9.975  10.896   2.603  1.1326 -1.3085  2.3048
  578HK4    C4848470   9.876  10.888   2.647  0.0610 -0.2179  0.1980
  578HK4    C4748471   9.834  10.980   2.742 -0.1963  0.2504 -0.3725
  578HK4    H2748472   9.902  11.057   2.781 -1.1942  0.5031  0.8973
  578HK4    C4648473   9.703  10.978   2.788  0.0987 -0.1293  0.4530
  578HK4    H2648474   9.692  11.031   2.884  0.4461  0.1720  0.3265
  578HK4    C4048475   9.605  10.890   2.736  0.3891  0.0571 -0.3988
  578HK4    C5048476   9.652  10.795   2.644 -0.0518 -0.5709  0.0219
  578HK4    H3048477   9.582  10.717   2.608 -0.5387 -0.2918  0.3631
  578HK4    C4948478   9.784  10.794   2.601  0.0130 -0.1787  0.2126
  578HK4    H2948479   9.816  10.708   2.540  0.6246 -0.8652  1.4837
  578HK4     N248480   9.468  10.914   2.750  0.3511 -0.0262 -0.5943
  578HK4    C3048481   9.365  10.818   2.745 -0.1180  0.4037  0.5169
  578HK4    C2948482   9.376  10.686   2.785 -0.3646  0.3296  0.3460
  578HK4    H1548483   9.477  10.643   2.793 -1.3034 -1.5938  2.4526
  578HK4    C2848484   9.262  10.611   2.810 -0.1301  0.1307  0.8224
  578HK4    C2748485   9.137  10.673   2.790 -0.1432 -0.1960 -0.1354
  578HK4    H1448486   9.048  10.608   2.790 -0.1949 -0.1227 -0.0755
  578HK4    C3248487   9.122  10.805   2.750 -0.1703 -0.2046 -0.1486
  578HK4    H1648488   9.018  10.838   2.747  0.4993  1.8729 -1.1945
  578HK4    C3148489   9.235  10.882   2.729 -0.2677 -0.0983 -0.2894
  578HK4    C3448490   9.264  11.024   2.735 -0.6713 -0.0487  0.6418
  578HK4    C3348491   9.408  11.041   2.737 -0.6299 -0.3658  0.4904
  578HK4    C3548492   9.451  11.174   2.732 -0.2177 -0.5285 -0.4936
  578HK4    H1748493   9.558  11.189   2.746 -0.3578 -0.1440  0.2207
  578HK4    C3648494   9.362   0.033   2.733  0.1859 -0.1933  0.7100
  578HK4    H1848495   9.406   0.132   2.751  0.3459 -0.2897  0.8539
  578HK4    C3748496   9.224   0.011   2.727  0.1013  0.4834  0.2357
  578HK4    H1948497   9.160   0.089   2.685 -2.4158 -1.7948 -0.2925
  578HK4    C3848498   9.175  11.130   2.739 -0.0079  0.5249  0.2456
  578HK4    H2048499   9.071  11.120   2.772 -0.2062 -0.9684 -0.8112
  578HK4    C1448500   9.280  10.472   2.856  0.3303 -0.1100 -0.0806
  578HK4     C948501   9.191  10.365   2.838 -0.2396  0.3381  0.0153
  578HK4     C848502   9.180  10.267   2.938 -0.3578  0.5022  0.1599
  578HK4    C1148503   9.265  10.269   3.048 -0.5731  0.7345  0.3230
  578HK4     H448504   9.244  10.208   3.136 -0.5135  1.3233  0.7484
  578HK4    C1248505   9.378  10.350   3.043  0.3812 -0.5884  0.2861
  578HK4     H548506   9.471  10.330   3.099  0.0357  0.6743  1.3179
  578HK4    C1348507   9.383  10.453   2.949 -0.4004 -0.1384  0.7291
  578HK4     H648508   9.452  10.532   2.981 -1.2491 -0.2707  2.9760
  578HK4     C748509   9.111  10.139   2.909  0.6841 -0.0277  0.0068
  578HK4     O248510   9.049  10.086   3.002 -0.6117  0.1749 -0.7302
  578HK4     C448511   9.099  10.096   2.768  0.0644  0.0383  0.0369
  578HK4     C348512   9.066   9.963   2.749 -0.0465  0.0480  0.1682
  578HK4     H348513   9.103   9.886   2.819  0.4152  1.6851  1.7636
  578HK4     C248514   8.995   9.929   2.634 -0.3531  0.0418  0.3614
  578HK4     H248515   9.003   9.823   2.607 -1.4114 -0.6182  2.4552
  578HK4     C148516   8.946  10.031   2.553  0.3073 -0.3219 -0.4993
  578HK4     H148517   8.882  10.007   2.467  0.7588 -0.2376 -0.8573
  578HK4     C648518   8.980  10.166   2.574 -0.7879 -0.2102  0.6674
  578HK4     C548519   9.073  10.198   2.674  0.1078 -0.1533 -0.1817
  578HK4    C1048520   9.132  10.331   2.705  0.2447 -0.2418 -0.0531
  578HK4     O148521   9.169  10.399   2.610 -0.5271  0.2407 -0.0050
  578HK4    C1648522   8.870  10.255   2.532 -0.1381  0.2520 -0.0700
  578HK4    C1548523   8.736  10.215   2.549 -0.1383 -0.0385 -0.7756
  578HK4     H748524   8.719  10.121   2.602  2.9346  0.9939  2.1877
  578HK4    C2048525   8.627  10.283   2.496 -0.4169  0.1984  0.0985
  578HK4     H948526   8.528  10.273   2.541 -0.1270 -1.7572  0.3440
  578HK4    C1948527   8.658  10.397   2.422 -0.3191  0.0442 -0.0998
  578HK4    C1848528   8.792  10.449   2.404 -0.1531 -0.6547 -0.9059
  578HK4    C1748529   8.891  10.377   2.469  0.0258  0.0723 -0.3644
  578HK4     H848530   8.993  10.413   2.460 -0.0206 -0.2285 -2.3600
  578HK4     N148531   8.796  10.571   2.332 -0.0470 -0.1690 -0.0812
  578HK4    C2148532   8.660  10.599   2.305  0.1295  0.3530 -0.4419
  578HK4    C2248533   8.573  10.494   2.355  0.1705  0.4915 -0.0720
  578HK4    C2648534   8.436  10.493   2.336  0.2558  0.0012 -0.6875
  578HK4    H1348535   8.385  10.405   2.375  0.2187 -0.1353 -1.0417
  578HK4    C2548536   8.378  10.599   2.267 -0.8158  0.0621  0.2917
  578HK4    H1248537   8.273  10.598   2.236 -0.7283  0.4913 -0.0344
  578HK4    C2448538   8.457  10.705   2.224 -0.1736 -0.3112  0.5484
  578HK4    H1148539   8.423  10.790   2.164  0.0382 -0.0032  0.8587
  578HK4    C2348540   8.595  10.702   2.239 -0.0562  0.2731 -0.3833
  578HK4    H1048541   8.651  10.786   2.196  1.1988  0.8668  2.2870
  578HK4    C3948542   8.907  10.618   2.262 -0.0874 -0.2879 -0.2236
  578HK4    C4148543   8.908  10.755   2.226  0.2334 -0.0297  0.7457
  578HK4    H2148544   8.849  10.830   2.282 -1.6586 -1.0794  0.2277
  578HK4    C4248545   8.977  10.808   2.119 -0.3076  0.1757  0.4961
  578HK4    H2248546   8.981  10.916   2.095 -0.0708  0.0380 -0.1234
  578HK4    C4348547   9.050  10.717   2.043 -0.5135  0.1292  0.3510
  578HK4    H2348548   9.101  10.748   1.952 -0.8317 -0.2786  0.0319
  578HK4    C4448549   9.071  10.587   2.088  0.0399  0.0789 -0.0512
  578HK4    H2448550   9.159  10.536   2.047 -0.0985 -0.0770 -0.1562
  578HK4    C4548551   9.006  10.538   2.201 -0.1661 -0.3020 -0.3353
  578HK4    H2548552   9.036  10.440   2.240  1.4355  0.1614 -0.3610
  579HK4    H2848553   9.254   9.205   9.279  1.5502 -1.8459 -1.4570
  579HK4    C4848554   9.325   9.286   9.265 -0.2311  0.0399  0.2127
  579HK4    C4748555   9.383   9.357   9.370 -0.0907 -0.0915  0.2229
  579HK4    H2748556   9.374   9.318   9.473 -0.6650 -0.4783  0.0302
  579HK4    C4648557   9.489   9.443   9.343  0.2486 -0.4741  0.3112
  579HK4    H2648558   9.535   9.497   9.427 -0.1575 -2.7186  2.0046
  579HK4    C4048559   9.545   9.463   9.215 -0.4261  0.3328  0.1374
  579HK4    C5048560   9.490   9.382   9.113 -0.0206 -0.3848  0.4883
  579HK4    H3048561   9.534   9.385   9.012 -1.8635 -0.1084 -0.3237
  579HK4    C4948562   9.383   9.298   9.139 -0.1818 -0.2642  0.2047
  579HK4    H2948563   9.350   9.224   9.065 -2.7355 -0.3960  1.3974
  579HK4     N248564   9.678   9.504   9.201 -0.2519 -0.1933  0.2603
  579HK4    C3048565   9.767   9.504   9.310  0.0437 -0.3986  0.0159
  579HK4    C2948566   9.778   9.424   9.423  0.6209 -0.8526 -0.3523
  579HK4    H1548567   9.723   9.332   9.406 -4.2178  2.1216 -1.8520
  579HK4    C2848568   9.860   9.457   9.531 -0.0806 -0.1252 -0.0367
  579HK4    C2748569   9.931   9.579   9.524  0.1643 -0.2832 -0.2934
  579HK4    H1448570   9.986   9.620   9.610  1.5802  0.1087 -1.3658
  579HK4    C3248571   9.936   9.652   9.406  0.2535 -0.5374 -0.4469
  579HK4    H1648572  10.007   9.735   9.403 -0.9193  0.4769 -0.8686
  579HK4    C3148573   9.857   9.617   9.297 -0.7435  0.2286  0.0157
  579HK4    C3448574   9.842   9.668   9.162 -0.9208  0.2926  0.0595
  579HK4    C3348575   9.731   9.593   9.106 -0.5840 -0.2090  0.0570
  579HK4    C3548576   9.712   9.612   8.969  0.1059 -0.7003 -0.1080
  579HK4    H1748577   9.640   9.544   8.925  0.1729 -0.4140 -0.6573
  579HK4    C3648578   9.790   9.691   8.885 -0.5278  0.2854  0.2238
  579HK4    H1848579   9.773   9.711   8.778  1.2715  0.3954 -0.0521
  579HK4    C3748580   9.897   9.757   8.945  0.0924 -0.8304  0.3461
  579HK4    H1948581   9.975   9.780   8.873  0.6710 -1.3917  0.7880
  579HK4    C3848582   9.924   9.744   9.081  0.4585 -0.9676  0.2597
  579HK4    H2048583  10.015   9.790   9.121 -1.4064  0.7783  2.6430
  579HK4    C1448584   9.881   9.364   9.643  0.0338 -0.2977 -0.2007
  579HK4     C948585   9.951   9.407   9.756  0.1932  0.4050 -0.5639
  579HK4     C848586  10.042   9.319   9.819 -0.2471  0.2698 -0.1201
  579HK4    C1148587  10.049   9.186   9.778 -0.5113  0.1466  0.2268
  579HK4     H448588  10.114   9.115   9.830 -0.8982  0.0127  0.5319
  579HK4    C1248589   9.969   9.143   9.672  0.0228  0.0500 -0.1365
  579HK4     H548590   9.952   9.034   9.669  0.3890 -0.0297  0.4589
  579HK4    C1348591   9.883   9.229   9.605 -0.3469 -0.3223 -0.1420
  579HK4     H648592   9.806   9.189   9.537 -0.0913 -0.6347 -0.2486
  579HK4     C748593  10.109   9.356   9.945 -0.4348 -0.4624  0.2039
  579HK4     O248594  10.215   9.304   9.980 -0.4050 -0.6556 -0.1873
  579HK4     C448595  10.050   9.469  10.020  0.5064  0.1302  0.0681
  579HK4     C348596  10.104   9.492  10.146  0.4998 -0.1258  0.1207
  579HK4     H348597  10.150   9.405  10.195 -0.9268 -1.3014 -0.5871
  579HK4     C248598  10.106   9.619  10.202 -0.8999 -0.2736  0.5267
  579HK4     H248599  10.191   9.646  10.267 -0.9440 -0.1768  0.5467
  579HK4     C148600  10.035   9.718  10.136  0.0875 -0.3738 -0.7055
  579HK4     H148601  10.029   9.819  10.181 -0.4554 -0.9060  0.4437
  579HK4     C648602   9.970   9.698  10.013 -0.0823 -0.2412 -0.6419
  579HK4     C548603   9.970   9.569   9.959  0.4830 -0.2735 -0.5617
  579HK4    C1048604   9.907   9.529   9.830 -0.7682 -0.3190  0.0618
  579HK4     O148605   9.801   9.584   9.799 -0.5000  0.4121  0.4287
  579HK4    C1648606   9.894   9.813   9.962  0.0538  0.2565  0.2900
  579HK4    C1548607   9.822   9.887  10.058 -0.5683 -0.0821  0.0882
  579HK4     H748608   9.795   9.834  10.150  1.7839 -1.4054  0.0642
  579HK4    C2048609   9.807  10.024  10.040 -0.7863 -0.1583 -0.3062
  579HK4     H948610   9.730  10.069  10.102  1.5207  1.7072  1.3069
  579HK4    C1948611   9.854  10.093   9.929 -0.3903  0.1743  0.0673
  579HK4    C1848612   9.904  10.011   9.820 -0.4047 -0.2887  0.4141
  579HK4    C1748613   9.936   9.878   9.846  0.3775 -0.1518  0.1765
  579HK4     H848614   9.989   9.813   9.777  0.6207 -0.4154  0.6050
  579HK4     N148615   9.927  10.095   9.710  0.9617 -0.5322  0.5035
  579HK4    C2148616   9.914  10.229   9.754  0.2842 -0.2594 -0.5161
  579HK4    C2248617   9.866  10.233   9.891 -0.0194 -0.0439 -0.6226
  579HK4    C2648618   9.878  10.352   9.961  0.8137 -0.3308 -0.2773
  579HK4    H1348619   9.837  10.353  10.062 -0.3242 -3.1721 -0.6539
  579HK4    C2548620   9.917  10.468   9.896  0.3800 -0.2360 -0.3718
  579HK4    H1248621   9.915  10.562   9.951  1.8191 -0.6903  0.5127
  579HK4    C2448622   9.952  10.469   9.762  0.0417 -0.1699 -0.4597
  579HK4    H1148623   9.965  10.558   9.698 -2.0128 -0.4223 -1.2669
  579HK4    C2348624   9.953  10.348   9.693  0.3107 -0.2069 -0.3897
  579HK4    H1048625   9.952  10.351   9.584 -0.9874 -0.8899 -0.4092
  579HK4    C3948626   9.915  10.047   9.579  0.5350 -0.1339  0.3961
  579HK4    C4148627   9.971  10.118   9.471  0.6178 -0.8348 -0.0167
  579HK4    H2148628  10.059  10.184   9.480 -0.4753  0.4152  1.9578
  579HK4    C4248629   9.929  10.096   9.340 -0.4892  0.4482  0.1064
  579HK4    H2248630   9.995  10.129   9.259 -0.1514 -1.2317 -0.3133
  579HK4    C4348631   9.835   9.997   9.315 -0.3891  0.2341  0.5740
  579HK4    H2348632   9.788   9.988   9.217  1.6009  0.1787 -0.3992
  579HK4    C4448633   9.781   9.922   9.419 -0.0246 -0.3542  0.3407
  579HK4    H2448634   9.708   9.843   9.393  0.6885 -0.4325 -1.4877
  579HK4    C4548635   9.823   9.945   9.550 -0.0642  0.4466  0.2119
  579HK4    H2548636   9.779   9.886   9.632 -0.1698 -1.8917 -1.4497
  580HK4    H2848637   0.935   2.090   5.567 -0.1558 -2.1185  1.1791
  580HK4    C4848638   0.863   2.048   5.497 -0.1654 -0.1302 -0.0248
  580HK4    C4748639   0.729   2.081   5.510 -0.1189 -0.0416  0.2303
  580HK4    H2748640   0.699   2.165   5.574 -2.7752  0.2022 -1.2751
  580HK4    C4648641   0.636   2.025   5.423  0.4236 -0.3506 -0.1490
  580HK4    H2648642   0.529   2.033   5.445  0.5964 -2.0411  1.4031
  580HK4    C4048643   0.675   1.941   5.316  0.1677 -0.4180 -0.1892
  580HK4    C5048644   0.813   1.917   5.299  0.1017 -0.5137 -0.6017
  580HK4    H3048645   0.856   1.867   5.211  0.0405  0.5453 -1.2419
  580HK4    C4948646   0.904   1.968   5.391 -0.5089  0.1139 -0.3414
  580HK4    H2948647   1.006   1.928   5.381 -0.0650  0.9935  0.5867
  580HK4     N248648   0.597   1.927   5.200 -0.2035 -0.3364  0.0507
  580HK4    C3048649   0.493   2.013   5.159  0.0264  0.0079  0.1774
  580HK4    C2948650   0.462   2.146   5.184  0.4498  0.1249  0.0736
  580HK4    H1548651   0.514   2.186   5.271  2.6636 -2.3748 -0.0318
  580HK4    C2848652   0.369   2.225   5.117  0.0587  0.0550  0.5356
  580HK4    C2748653   0.303   2.161   5.010  1.0154  0.7499 -0.4740
  580HK4    H1448654   0.230   2.212   4.945 -0.5017 -1.7463 -0.7875
  580HK4    C3248655   0.328   2.029   4.975  0.1082  0.3424  0.3988
  580HK4    H1648656   0.260   1.981   4.904 -0.0125  0.2620  0.5677
  580HK4    C3148657   0.417   1.954   5.050  0.0867  0.0378  0.1195
  580HK4    C3448658   0.476   1.823   5.029  0.0062 -0.0138  0.2170
  580HK4    C3348659   0.586   1.810   5.123 -0.0333 -0.4545  0.2045
  580HK4    C3548660   0.646   1.686   5.138  0.0146 -0.4577 -0.0083
  580HK4    H1748661   0.734   1.674   5.202 -0.2562 -1.2805  0.2205
  580HK4    C3648662   0.606   1.576   5.062 -0.4422 -0.1411 -0.2256
  580HK4    H1848663   0.649   1.478   5.085 -0.5287  0.1778  1.4154
  580HK4    C3748664   0.499   1.588   4.974 -0.8072 -1.1314  0.0792
  580HK4    H1948665   0.445   1.496   4.951 -1.9238 -0.8674  1.5794
  580HK4    C3848666   0.440   1.712   4.953  0.8306 -0.3111  0.2578
  580HK4    H2048667   0.353   1.718   4.887  0.3385 -0.0310  0.9277
  580HK4    C1448668   0.321   2.359   5.155 -0.0010  0.1212  0.2243
  580HK4     C948669   0.198   2.414   5.121 -0.0450  0.2768  0.6375
  580HK4     C848670   0.189   2.552   5.093  0.3147  0.0276 -0.7361
  580HK4    C1148671   0.294   2.638   5.124  0.2343  0.0260 -0.4572
  580HK4     H448672   0.286   2.747   5.113  0.0136  0.1665  0.9699
  580HK4    C1248673   0.405   2.586   5.191 -0.2777 -0.0615  0.3271
  580HK4     H548674   0.494   2.648   5.208  1.5849 -3.2132  2.5817
  580HK4    C1348675   0.422   2.448   5.197  0.0537 -0.0169  0.3863
  580HK4     H648676   0.523   2.411   5.219 -0.6026 -2.0478  0.1028
  580HK4     C748677   0.075   2.594   5.008  0.0662  0.1258 -0.3580
  580HK4     O248678   0.053   2.713   4.988  0.2790  0.1949 -0.1867
  580HK4     C448679  11.229   2.490   4.960  0.1459 -0.0236 -0.1929
  580HK4     C348680  11.139   2.517   4.857 -0.0838  0.1178  0.0453
  580HK4     H348681  11.155   2.612   4.803  2.2190 -1.2314 -1.7521
  580HK4     C248682  11.036   2.432   4.820 -0.0249  0.0529  0.0270
  580HK4     H248683  10.950   2.459   4.756 -0.8765 -2.5240  0.0085
  580HK4     C148684  11.027   2.316   4.895 -0.4107  0.2269  0.2512
  580HK4     H148685  10.954   2.242   4.859 -0.1614 -0.6752  1.5595
  580HK4     C648686  11.112   2.278   5.001 -0.2622  0.5145  0.2347
  580HK4     C548687  11.213   2.370   5.032  0.2788  0.0279 -0.0757
  580HK4    C1048688   0.075   2.329   5.124  0.0226  0.1659  0.2961
  580HK4     O148689   0.054   2.300   5.241 -0.4279  0.2559  0.2406
  580HK4    C1648690  11.065   2.170   5.089  0.1947  0.4781  0.4388
  580HK4    C1548691  10.925   2.156   5.094  0.2030  0.4736  0.7676
  580HK4     H748692  10.860   2.238   5.059  1.1407  0.5773 -0.7792
  580HK4    C2048693  10.867   2.040   5.143  0.3504  0.1032  0.0627
  580HK4     H948694  10.759   2.034   5.159  0.3989  2.1823  1.3116
  580HK4    C1948695  10.949   1.935   5.185 -0.3389 -0.3826  0.1935
  580HK4    C1848696  11.093   1.950   5.188 -0.4050  0.3177  0.0788
  580HK4    C1748697  11.146   2.068   5.139 -0.0164  0.1868  0.1807
  580HK4     H848698   0.002   2.077   5.107 -0.5556  0.0489 -1.7060
  580HK4     N148699  11.162   1.839   5.241  0.2572  0.3578 -0.6945
  580HK4    C2148700  11.063   1.739   5.254  0.2390  0.4368 -0.2489
  580HK4    C2248701  10.933   1.798   5.230 -0.2312 -0.3370  0.3699
  580HK4    C2648702  10.818   1.720   5.241 -0.3188 -0.1794  0.5608
  580HK4    H1348703  10.725   1.777   5.240  2.0618  3.9957  1.9279
  580HK4    C2548704  10.830   1.582   5.252 -0.2176 -0.2647 -0.6014
  580HK4    H1248705  10.744   1.521   5.224 -0.5495  0.8828 -2.1359
  580HK4    C2448706  10.955   1.526   5.274 -0.0905  0.3690  0.3306
  580HK4    H1148707  10.978   1.419   5.266 -0.6336  0.4469 -3.2384
  580HK4    C2348708  11.070   1.603   5.283 -0.0814  0.4243 -0.2304
  580HK4    H1048709  11.164   1.555   5.256  0.3829  1.5485 -0.6741
  580HK4    C3948710   0.033   1.853   5.313 -0.1679  0.1316  0.0526
  580HK4    C4148711   0.111   1.737   5.332 -0.1639  0.1207 -0.0309
  580HK4    H2148712   0.055   1.645   5.354 -0.6534  0.6703  1.0787
  580HK4    C4248713   0.244   1.735   5.372 -0.0740 -0.0418 -0.3383
  580HK4    H2248714   0.293   1.637   5.366  1.1642  0.6107 -1.2183
  580HK4    C4348715   0.309   1.855   5.400  0.1957 -0.2076 -0.2474
  580HK4    H2348716   0.399   1.844   5.461 -0.9771 -3.8303  0.9703
  580HK4    C4448717   0.235   1.973   5.387  0.2485 -0.1864 -0.3535
  580HK4    H2448718   0.302   2.056   5.361  0.2790 -0.2501 -0.4833
  580HK4    C4548719   0.102   1.971   5.347 -0.1119 -0.1231  0.8377
  580HK4    H2548720   0.039   2.061   5.358  0.1672  0.4743 -2.0277
  581HK4    H2848721   8.491  10.663  10.977  1.3466  0.7747 -2.5349
  581HK4    C4848722   8.560  10.582  11.000 -0.2798  0.3036  1.1863
  581HK4    C4748723   8.694  10.622  11.003  0.2066 -1.1323 -0.6429
  581HK4    H2748724   8.709  10.731  11.001 -0.7696 -0.9876 -0.4325
  581HK4    C4648725   8.794  10.527  11.019  0.8627 -0.2887  0.3281
  581HK4    H2648726   8.891  10.562  10.982 -0.0197 -0.2187 -2.0018
  581HK4    C4048727   8.763  10.390  11.031  0.0769 -0.2064 -0.6919
  581HK4    C5048728   8.628  10.356  11.006 -0.1488  0.0588  0.1607
  581HK4    H3048729   8.608  10.252  10.977  2.3913 -0.0688 -1.2899
  581HK4    C4948730   8.524  10.448  11.003 -0.0279  0.2281  0.9397
  581HK4    H2948731   8.422  10.414  10.981  1.0040 -0.6928 -2.7908
  581HK4     N248732   8.865  10.295  11.050  0.2060  0.0339 -0.1637
  581HK4    C3048733   8.999  10.313  11.013  0.1806  0.0124 -0.2631
  581HK4    C2948734   9.054  10.374  10.900  0.3130  0.5374  0.0813
  581HK4    H1548735   8.982  10.398  10.823 -1.4370 -0.1754  1.4471
  581HK4    C2848736   9.188  10.361  10.866  0.1801 -0.2161 -0.1616
  581HK4    C2748737   9.273  10.303  10.963  0.1231 -0.1136 -0.0554
  581HK4    H1448738   9.382  10.301  10.945  0.2246  0.1921  0.5199
  581HK4    C3248739   9.223  10.255  11.083  0.1334 -0.5147 -0.2111
  581HK4    H1648740   9.296  10.216  11.154  1.4649 -1.0966 -1.8577
  581HK4    C3148741   9.087  10.248  11.109  0.1005 -0.1407 -0.2920
  581HK4    C3448742   8.998  10.173  11.196  0.2416 -0.0340 -0.0546
  581HK4    C3348743   8.862  10.198  11.152  0.2405  0.4320  0.2150
  581HK4    C3548744   8.756  10.120  11.197  0.2927  0.1867 -0.0849
  581HK4    H1748745   8.654  10.157  11.188 -0.3007 -1.2604  0.7010
  581HK4    C3648746   8.782  10.014   0.035  0.1199  0.3253  0.1400
  581HK4    H1848747   8.700   9.954   0.076  0.5133  0.5399  1.2432
  581HK4    C3748748   8.912   9.981   0.072  0.3748  1.2960  0.1141
  581HK4    H1948749   8.928   9.878   0.102  2.9638  2.0245  1.3694
  581HK4    C3848750   9.017  10.059   0.025  1.1744  0.2468  0.1427
  581HK4    H2048751   9.120  10.031   0.046  2.1155  1.5698 -2.4661
  581HK4    C1448752   9.238  10.387  10.730  0.3238  0.4772  0.0243
  581HK4     C948753   9.358  10.336  10.679  0.0829  0.0600 -0.1209
  581HK4     C848754   9.441  10.423  10.605 -0.3338  0.0500 -0.5958
  581HK4    C1148755   9.394  10.551  10.577  0.8048  0.4233 -0.8078
  581HK4     H448756   9.456  10.633  10.539 -0.5793  1.7734 -0.2186
  581HK4    C1248757   9.263  10.588  10.604  0.7014 -0.6106  0.1314
  581HK4     H548758   9.229  10.682  10.559 -1.1123 -0.5803  1.4899
  581HK4    C1348759   9.181  10.506  10.681 -0.2401  0.1859 -0.0168
  581HK4     H648760   9.072  10.526  10.682 -0.2284  0.2451  1.8754
  581HK4     C748761   9.560  10.368  10.537  0.1096  0.0223  0.1845
  581HK4     O248762   9.641  10.450  10.495 -0.3469  0.2603 -0.2297
  581HK4     C448763   9.569  10.221  10.516 -0.2459 -0.0731  0.6842
  581HK4     C348764   9.682  10.185  10.445 -0.2507  0.0256  0.6220
  581HK4     H348765   9.766  10.253  10.424 -0.8171  0.3261 -0.7399
  581HK4     C248766   9.688  10.057  10.391 -0.0065  0.4590 -0.3988
  581HK4     H248767   9.778  10.026  10.335  0.0769  0.6327 -0.3642
  581HK4     C148768   9.578   9.977  10.416  0.1001  0.4443  0.0181
  581HK4     H148769   9.564   9.890  10.349  0.0370  0.0421  0.5453
  581HK4     C648770   9.469  10.005  10.502 -0.2149  0.1580 -0.2931
  581HK4     C548771   9.466  10.134  10.556 -0.3759 -0.0918  0.2997
  581HK4    C1048772   9.370  10.189  10.656  0.0087 -0.0759  0.6610
  581HK4     O148773   9.344  10.113  10.749  0.2315 -1.0762 -0.0837
  581HK4    C1648774   9.384   9.895  10.550  0.0949  0.3227  0.6355
  581HK4    C1548775   9.438   9.765  10.541 -0.5782  0.0953 -0.2347
  581HK4     H748776   9.548   9.756  10.536 -0.5124  0.7692 -0.0283
  581HK4    C2048777   9.364   9.648  10.525  0.1468 -0.3813 -0.1630
  581HK4     H948778   9.408   9.553  10.496  1.4587 -0.2497  1.3393
  581HK4    C1948779   9.226   9.661  10.528  0.1538 -0.4293  0.3658
  581HK4    C1848780   9.163   9.791  10.543  0.1200 -0.4219  0.1554
  581HK4    C1748781   9.246   9.903  10.545  0.0827 -0.3886 -0.2304
  581HK4     H848782   9.190   9.994  10.527  2.1485  1.0776  0.6441
  581HK4     N148783   9.024   9.776  10.558  0.0901  0.0451  0.3577
  581HK4    C2148784   8.992   9.639  10.554 -0.1460  0.0985  0.3908
  581HK4    C2248785   9.115   9.567  10.526 -0.2956  0.1131 -0.3287
  581HK4    C2648786   9.117   9.428  10.524 -0.5037  0.1063 -0.1619
  581HK4    H1348787   9.204   9.362  10.520  0.6340  1.2109  3.5293
  581HK4    C2548788   8.999   9.362  10.554 -0.4331  0.0592  0.0097
  581HK4    H1248789   8.986   9.253  10.558 -0.2726  0.0235 -0.3929
  581HK4    C2448790   8.880   9.431  10.575  0.1088  0.5622  1.4167
  581HK4    H1148791   8.782   9.383  10.592  0.0764  0.9039  2.2156
  581HK4    C2348792   8.875   9.569  10.582 -0.7482  0.6505 -0.7599
  581HK4    H1048793   8.794   9.618  10.636  1.3586  3.0727  0.3364
  581HK4    C3948794   8.934   9.869  10.612 -0.0274  0.5497 -0.7160
  581HK4    C4148795   8.803   9.868  10.559 -0.0911 -0.1611 -0.5598
  581HK4    H2148796   8.792   9.830  10.457  2.1268  2.0911 -1.6976
  581HK4    C4248797   8.709   9.947  10.625  0.1573 -0.1681 -0.2003
  581HK4    H2248798   8.609   9.955  10.580  0.4875  2.0614 -0.5492
  581HK4    C4348799   8.736  10.019  10.741 -0.0509 -0.1662 -0.1542
  581HK4    H2348800   8.654  10.080  10.777 -1.9170 -0.7137 -3.2891
  581HK4    C4448801   8.863  10.019  10.798 -0.1464 -0.4468  0.0636
  581HK4    H2448802   8.870  10.054  10.902 -2.2389 -0.0913  0.1035
  581HK4    C4548803   8.958   9.946  10.727 -0.1192 -0.0715 -0.2807
  581HK4    H2548804   9.065   9.965  10.745  0.1652 -2.6756  1.0707
  582HK4    H2848805   0.882   9.850   7.553 -1.0535 -0.1772 -0.7671
  582HK4    C4848806   0.880   9.786   7.641 -0.0396  0.5556 -0.1959
  582HK4    C4748807   1.002   9.749   7.696 -0.4659 -0.7929 -0.1480
  582HK4    H2748808   1.091   9.775   7.638 -2.2578  1.6656 -1.8959
  582HK4    C4648809   1.000   9.695   7.824 -0.0274  0.1930  0.2736
  582HK4    H2648810   1.092   9.678   7.881 -0.9966  0.7757  2.0743
  582HK4    C4048811   0.878   9.670   7.891 -0.2877 -0.6983 -0.5298
  582HK4    C5048812   0.756   9.705   7.829 -0.4027  0.2825  0.2457
  582HK4    H3048813   0.656   9.676   7.865 -1.3653  2.8660 -0.2356
  582HK4    C4948814   0.758   9.768   7.706  0.2235  0.1902  0.2037
  582HK4    H2948815   0.660   9.801   7.666  0.5482 -1.9755 -2.5965
  582HK4     N248816   0.880   9.598   8.011  0.3107  0.2609  0.0403
  582HK4    C3048817   0.975   9.502   8.052 -0.5236 -0.6476 -0.1356
  582HK4    C2948818   1.040   9.406   7.975 -0.3164 -0.4849 -0.1650
  582HK4    H1548819   1.031   9.414   7.867 -2.9087  0.1199  0.0601
  582HK4    C2848820   1.118   9.304   8.027 -0.2593 -0.3433  0.0247
  582HK4    C2748821   1.112   9.288   8.167  0.0456 -0.0026  0.0801
  582HK4    H1448822   1.193   9.230   8.215  0.9618  0.1912 -1.2070
  582HK4    C3248823   1.042   9.377   8.248 -0.2323  0.1140 -0.2879
  582HK4    H1648824   1.064   9.380   8.355  1.4475  0.5314 -0.6330
  582HK4    C3148825   0.978   9.489   8.196 -0.2092  0.2317 -0.0628
  582HK4    C3448826   0.874   9.578   8.244 -0.0097  0.4062  0.0453
  582HK4    C3348827   0.813   9.641   8.128 -0.1742 -0.0566 -0.1180
  582HK4    C3548828   0.719   9.741   8.146  0.4352  0.5431 -0.2474
  582HK4    H1748829   0.680   9.795   8.060  1.0168  0.3453 -0.6349
  582HK4    C3648830   0.678   9.777   8.274  0.3488  0.1785 -0.1698
  582HK4    H1848831   0.620   9.870   8.282 -1.9452 -1.0479 -1.8343
  582HK4    C3748832   0.738   9.718   8.384 -0.5852 -0.9970 -0.2821
  582HK4    H1948833   0.716   9.753   8.485 -1.2778 -1.1427 -0.3821
  582HK4    C3848834   0.832   9.616   8.371  0.5219 -0.0751  0.3666
  582HK4    H2048835   0.876   9.575   8.462  1.0326  0.4698  0.3656
  582HK4    C1448836   1.160   9.189   7.946  0.0721  0.1398 -0.4901
  582HK4     C948837   1.141   9.056   7.987 -0.1749  0.2367 -0.2887
  582HK4     C848838   1.226   8.957   7.935 -0.1005  0.1510 -0.0001
  582HK4    C1148839   1.323   8.990   7.841 -0.3105  0.1455 -0.2195
  582HK4     H448840   1.402   8.925   7.801 -1.4435 -1.4000  0.0164
  582HK4    C1248841   1.334   9.120   7.793  0.3966  0.1927  0.0488
  582HK4     H548842   1.398   9.141   7.706  0.5881 -0.0601  0.1279
  582HK4    C1348843   1.258   9.221   7.850 -0.2062  0.1863 -0.7567
  582HK4     H648844   1.256   9.320   7.802  0.5070 -1.7937 -5.1932
  582HK4     C748845   1.203   8.815   7.972 -0.4083  0.2378  0.1438
  582HK4     O248846   1.251   8.729   7.899 -0.2196  0.1446  0.3763
  582HK4     C448847   1.110   8.786   8.084 -0.0348 -0.2741  0.3171
  582HK4     C348848   1.109   8.661   8.145  0.4321 -0.6579 -0.4423
  582HK4     H348849   1.174   8.582   8.104  1.5989  0.0784 -0.0221
  582HK4     C248850   1.036   8.634   8.260  0.6219  0.5587 -0.0289
  582HK4     H248851   1.031   8.535   8.310  1.0818 -0.2138 -1.4943
  582HK4     C148852   0.954   8.733   8.313  0.3455  0.0861  0.4326
  582HK4     H148853   0.897   8.703   8.402  1.6136 -0.9864  0.9068
  582HK4     C648854   0.956   8.864   8.263  0.5067 -0.0213  0.1539
  582HK4     C548855   1.027   8.883   8.143 -0.5737 -0.2206 -0.5210
  582HK4    C1048856   1.030   9.017   8.078 -0.0305 -0.1028 -0.2587
  582HK4     O148857   0.919   9.062   8.049 -0.0677  0.0628  0.1389
  582HK4    C1648858   0.943   8.962   8.372  0.5758  0.4358 -0.2468
  582HK4    C1548859   1.018   8.961   8.491  0.2873 -0.6031 -0.0726
  582HK4     H748860   1.097   8.885   8.499  0.1408 -0.8999 -1.2936
  582HK4    C2048861   0.986   9.049   8.594 -0.7233 -0.6934 -0.2974
  582HK4     H948862   1.057   9.052   8.676  1.8636 -2.2875 -2.3771
  582HK4    C1948863   0.890   9.149   8.580  0.1062  0.1132 -0.2533
  582HK4    C1848864   0.810   9.153   8.460 -1.0465 -0.3469  0.4895
  582HK4    C1748865   0.842   9.057   8.365  0.5064  0.3976  0.2302
  582HK4     H848866   0.787   9.063   8.271  1.1281 -0.5016 -0.2021
  582HK4     N148867   0.710   9.251   8.470 -0.6240  0.1407 -0.0289
  582HK4    C2148868   0.728   9.313   8.595  0.0942  0.1969 -0.1584
  582HK4    C2248869   0.838   9.253   8.667 -0.2832 -0.2980  0.0086
  582HK4    C2648870   0.868   9.305   8.792  0.1889  0.2447 -0.3305
  582HK4    H1348871   0.968   9.284   8.830 -0.1180  0.8485  0.8303
  582HK4    C2548872   0.791   9.406   8.849  0.5861  0.4520 -0.1535
  582HK4    H1248873   0.810   9.432   8.953  1.1822  0.0022 -0.1451
  582HK4    C2448874   0.684   9.463   8.781  0.0271 -0.0527  0.3037
  582HK4    H1148875   0.631   9.545   8.832  0.5437  0.2891  0.2949
  582HK4    C2348876   0.661   9.421   8.651  0.4430  0.2701  0.1226
  582HK4    H1048877   0.611   9.488   8.581 -1.2412 -0.9950  0.0760
  582HK4    C3948878   0.631   9.309   8.369 -0.4164 -0.2004 -0.3848
  582HK4    C4148879   0.509   9.378   8.389  0.0239  0.1286  1.2297
  582HK4    H2148880   0.456   9.367   8.485 -2.6316  2.5016  0.0937
  582HK4    C4248881   0.431   9.435   8.289  1.1530  0.3841  0.4868
  582HK4    H2248882   0.334   9.477   8.317  0.9478  1.5733 -1.8832
  582HK4    C4348883   0.474   9.435   8.157 -0.1064 -0.1410  0.0761
  582HK4    H2348884   0.408   9.457   8.073  0.6816 -0.2371 -0.5694
  582HK4    C4448885   0.597   9.373   8.136  0.0967  0.3071 -0.0546
  582HK4    H2448886   0.644   9.391   8.038 -1.9694 -0.4127 -1.2140
  582HK4    C4548887   0.670   9.307   8.234  0.4867  0.6035 -0.1453
  582HK4    H2548888   0.767   9.261   8.208  0.7920 -1.0681  3.6679
  583HK4    H2848889   3.218   1.922   3.255 -0.7885  1.2761  2.4279
  583HK4    C4848890   3.307   1.983   3.236 -0.0590 -0.2511  0.8319
  583HK4    C4748891   3.309   2.106   3.301  0.7031  0.1675  0.0259
  583HK4    H2748892   3.226   2.141   3.363  1.2970  0.9493  0.3875
  583HK4    C4648893   3.430   2.174   3.301  0.3139  0.8737 -0.9045
  583HK4    H2648894   3.434   2.277   3.339  0.4782  0.7628 -0.6145
  583HK4    C4048895   3.546   2.118   3.244  0.2351  0.3138 -0.5195
  583HK4    C5048896   3.535   1.995   3.176 -0.6173 -0.2239  0.5701
  583HK4    H3048897   3.618   1.964   3.111 -0.4982  0.6396  0.2934
  583HK4    C4948898   3.414   1.928   3.166 -0.4544 -0.4943  0.4153
  583HK4    H2948899   3.426   1.830   3.117  2.1128 -0.4045  0.8172
  583HK4     N248900   3.672   2.177   3.264  0.4749 -0.3738  0.0531
  583HK4    C3048901   3.708   2.253   3.377 -0.5497  0.1304  0.0516
  583HK4    C2948902   3.652   2.252   3.505 -0.4757  0.0058  0.0835
  583HK4    H1548903   3.576   2.175   3.521 -0.5120  0.2554  1.1252
  583HK4    C2848904   3.699   2.339   3.603  0.0667 -0.2803  0.0779
  583HK4    C2748905   3.801   2.429   3.565 -0.2362 -0.1274 -0.3726
  583HK4    H1448906   3.835   2.498   3.644 -0.3749 -2.4444  1.7908
  583HK4    C3248907   3.862   2.432   3.441  0.2233 -0.2213 -0.1465
  583HK4    H1648908   3.925   2.516   3.413  0.7313 -0.4397  0.3215
  583HK4    C3148909   3.814   2.345   3.343 -0.1784 -0.2782  0.0995
  583HK4    C3448910   3.831   2.340   3.199 -0.1980  0.3777  0.0746
  583HK4    C3348911   3.744   2.232   3.157  0.7637 -0.4550  0.2068
  583HK4    C3548912   3.749   2.185   3.026  0.2315 -0.6588  0.2590
  583HK4    H1748913   3.714   2.086   3.000  1.2446 -0.9980  0.1513
  583HK4    C3648914   3.836   2.240   2.932  0.0572  0.0729  0.5167
  583HK4    H1848915   3.826   2.208   2.827  0.4405 -0.5133  0.6540
  583HK4    C3748916   3.909   2.351   2.973  0.2802  0.0619  0.1549
  583HK4    H1948917   3.952   2.417   2.898 -0.5123  1.4470  0.9134
  583HK4    C3848918   3.911   2.401   3.103  0.3720 -0.1282  0.2266
  583HK4    H2048919   3.975   2.486   3.123  2.0754 -1.1341 -0.7890
  583HK4    C1448920   3.606   2.371   3.712 -0.6410 -0.2878 -0.5224
  583HK4     C948921   3.557   2.498   3.743 -0.3351 -0.2577 -0.1706
  583HK4     C848922   3.530   2.533   3.877 -0.2526  0.1606 -0.2605
  583HK4    C1148923   3.534   2.430   3.971 -0.0037 -0.0013 -0.4468
  583HK4     H448924   3.508   2.453   4.076  0.7412 -1.2938  0.0270
  583HK4    C1248925   3.577   2.301   3.943 -0.0841 -0.1827  0.2468
  583HK4     H548926   3.604   2.239   4.029  1.5147  2.4284  1.7092
  583HK4    C1348927   3.617   2.273   3.813  0.0342  0.4590  0.1407
  583HK4     H648928   3.631   2.165   3.796  2.4611  0.9758 -1.3933
  583HK4     C748929   3.489   2.671   3.911  0.1694  0.2408 -0.0734
  583HK4     O248930   3.512   2.719   4.022  0.2002 -0.0246  0.0358
  583HK4     C448931   3.454   2.768   3.804 -0.2277  0.0798 -0.0922
  583HK4     C348932   3.387   2.884   3.839  0.3034  0.1734  0.6293
  583HK4     H348933   3.354   2.897   3.943  0.4261 -4.3535  1.3132
  583HK4     C248934   3.379   2.985   3.743  0.7201 -0.5242 -0.1455
  583HK4     H248935   3.330   3.078   3.774  1.4816 -0.0361 -0.3917
  583HK4     C148936   3.443   2.969   3.621 -0.1866  0.3772 -0.7471
  583HK4     H148937   3.461   3.061   3.563 -0.4312 -0.2316 -1.7937
  583HK4     C648938   3.503   2.847   3.584 -0.1618  0.1059  0.1705
  583HK4     C548939   3.496   2.739   3.673  0.1043 -0.0228  0.0354
  583HK4    C1048940   3.526   2.598   3.637  0.0882 -0.0027 -0.0580
  583HK4     O148941   3.475   2.553   3.534 -0.2766 -0.4462  0.3161
  583HK4    C1648942   3.567   2.842   3.452 -0.0994 -0.1557  0.2112
  583HK4    C1548943   3.675   2.755   3.426 -0.2624 -0.0876 -0.7289
  583HK4     H748944   3.734   2.715   3.510  1.3195  2.7474 -0.4131
  583HK4    C2048945   3.735   2.739   3.302 -0.0319 -0.8344 -0.5244
  583HK4     H948946   3.829   2.685   3.290 -0.4704 -1.9242  0.8409
  583HK4    C1948947   3.686   2.812   3.194  0.0979  0.5170  0.3177
  583HK4    C1848948   3.571   2.898   3.216 -0.1802  0.2165  0.0455
  583HK4    C1748949   3.509   2.903   3.341 -0.0329 -0.2282  0.1379
  583HK4     H848950   3.412   2.952   3.348 -0.7034 -1.6197  0.6801
  583HK4     N148951   3.547   2.982   3.106 -0.2318 -0.1285 -0.2089
  583HK4    C2148952   3.651   2.960   3.013 -0.2808 -0.1219 -0.2636
  583HK4    C2248953   3.737   2.857   3.066  0.2413  0.6692  0.4290
  583HK4    C2648954   3.863   2.832   3.014 -0.1328 -0.1795 -0.0733
  583HK4    H1348955   3.915   2.740   3.042 -0.9592 -0.3593  0.8679
  583HK4    C2548956   3.911   2.921   2.918 -0.2408  0.2331  0.2556
  583HK4    H1248957   4.017   2.914   2.893  0.0670 -0.7433  1.7465
  583HK4    C2448958   3.830   3.021   2.865  0.0772  0.4565  0.1897
  583HK4    H1148959   3.862   3.092   2.787  2.0595 -1.7559 -1.1062
  583HK4    C2348960   3.701   3.043   2.913 -0.0184  0.1408  0.0875
  583HK4    H1048961   3.623   3.103   2.866 -0.5525  0.3447  1.2207
  583HK4    C3948962   3.423   3.037   3.072 -0.1361 -0.0150 -0.3818
  583HK4    C4148963   3.423   3.158   3.001  0.2557 -0.2151 -0.7267
  583HK4    H2148964   3.495   3.235   3.032 -0.2997  0.0821 -0.1587
  583HK4    C4248965   3.306   3.194   2.933 -0.2829 -0.1179  0.2407
  583HK4    H2248966   3.306   3.296   2.891 -1.3120  0.3236  1.3099
  583HK4    C4348967   3.193   3.114   2.932  0.1663 -0.7543 -1.0161
  583HK4    H2348968   3.101   3.141   2.879  0.3361  0.8650 -0.5198
  583HK4    C4448969   3.196   2.991   2.997 -0.2514 -0.2847 -0.0918
  583HK4    H2448970   3.110   2.922   2.997 -1.1973  0.8853  0.2102
  583HK4    C4548971   3.307   2.956   3.073 -0.2963  0.2198  0.2052
  583HK4    H2548972   3.303   2.859   3.125  0.9965  0.8644  1.5498
  584HK4    H2848973   2.646   7.883   0.702 -0.4721 -0.7482  0.1661
  584HK4    C4848974   2.625   7.881   0.595 -0.1674 -0.3307  0.0962
  584HK4    C4748975   2.661   7.772   0.517  0.1856 -0.1776  0.0439
  584HK4    H2748976   2.746   7.711   0.551  0.0373  0.8573  2.3180
  584HK4    C4648977   2.592   7.746   0.398  0.7819  0.1958 -0.3865
  584HK4    H2648978   2.594   7.649   0.346 -0.9281  1.7291 -3.4106
  584HK4    C4048979   2.490   7.830   0.348  0.4572 -0.0185 -0.0920
  584HK4    C5048980   2.459   7.942   0.427  0.8098  0.2177 -0.2872
  584HK4    H3048981   2.411   8.028   0.378 -3.2005 -0.8850  1.5167
  584HK4    C4948982   2.522   7.962   0.549  0.0021 -0.0717  0.1786
  584HK4    H2948983   2.473   8.032   0.618 -1.0722  0.5666 -1.2062
  584HK4     N248984   2.458   7.840   0.212  0.0238  0.3336  0.0366
  584HK4    C3048985   2.534   7.793   0.103 -0.5332  0.0316 -0.2256
  584HK4    C2948986   2.670   7.762   0.097 -0.4892  0.2638 -0.4079
  584HK4    H1548987   2.736   7.773   0.183 -0.8649  0.8164 -0.1859
  584HK4    C2848988   2.729   7.724  11.225 -0.1941 -0.3094 -0.0808
  584HK4    C2748989   2.652   7.724  11.107  0.2630  0.5110 -0.3823
  584HK4    H1448990   2.699   7.728  11.007 -0.9438  0.6273 -0.9538
  584HK4    C3248991   2.515   7.747  11.111  0.1933  0.0595 -0.1489
  584HK4    H1648992   2.455   7.750  11.020  1.5525 -0.9581 -1.1009
  584HK4    C3148993   2.454   7.779  11.232 -0.2015  0.8232 -0.5443
  584HK4    C3448994   2.323   7.832   0.014 -0.6552 -0.5643 -0.0056
  584HK4    C3348995   2.330   7.861   0.156  0.0858  0.1352 -0.1836
  584HK4    C3548996   2.207   7.882   0.216  0.2927 -0.1077  0.3259
  584HK4    H1748997   2.209   7.865   0.324  0.3211 -1.2310  0.1543
  584HK4    C3648998   2.087   7.882   0.146  0.1602  0.0117  0.5516
  584HK4    H1848999   1.998   7.846   0.200  0.2811 -0.5947  0.3472
  584HK4    C3749000   2.087   7.868   0.008 -0.5192 -0.0293  0.5548
  584HK4    H1949001   1.995   7.895  11.204  0.3441  1.2744 -0.3165
  584HK4    C3849002   2.204   7.833  11.190 -0.6269  0.7521 -0.0544
  584HK4    H2049003   2.205   7.817  11.082 -0.3796  0.0596  0.0457
  584HK4    C1449004   2.874   7.701  11.218 -0.0813  0.1989  0.5398
  584HK4     C949005   2.956   7.722  11.106  0.5340  0.0395  0.9630
  584HK4     C849006   3.054   7.625  11.076  0.3547  0.1549  0.0174
  584HK4    C1149007   3.074   7.521  11.166  0.7842  0.0233 -0.2296
  584HK4     H449008   3.127   7.431  11.132 -0.7496 -1.3228  0.8884
  584HK4    C1249009   3.005   7.507   0.038  0.5263  0.6403 -0.3040
  584HK4     H549010   3.019   7.419   0.102 -2.4023 -0.6942 -1.4260
  584HK4    C1349011   2.912   7.606   0.067  0.1981  0.1381  0.3731
  584HK4     H649012   2.880   7.614   0.172  0.5702  1.1571  0.4193
  584HK4     C749013   3.123   7.628  10.945  0.0379  0.5496 -0.1452
  584HK4     O249014   3.154   7.524  10.885 -0.6595  0.5635 -0.5317
  584HK4     C449015   3.112   7.754  10.869 -0.0705  0.7192  0.1572
  584HK4     C349016   3.215   7.784  10.781  0.0178 -0.3936 -0.1228
  584HK4     H349017   3.311   7.730  10.778  0.3312  0.1905 -1.0163
  584HK4     C249018   3.211   7.909  10.719 -0.0296 -0.2080  0.2535
  584HK4     H249019   3.294   7.945  10.657  0.0010  1.2654  1.1264
  584HK4     C149020   3.094   7.983  10.726  0.3397  0.3622  0.3864
  584HK4     H149021   3.096   8.089  10.695 -0.4480  0.6666  1.3425
  584HK4     C649022   2.977   7.944  10.795  0.2386  0.6173  0.3641
  584HK4     C549023   3.005   7.844  10.890 -0.2606  0.4522  0.3353
  584HK4    C1049024   2.933   7.841  11.020  0.5979 -0.0675  0.7999
  584HK4     O149025   2.912   7.946  11.080 -0.9248 -0.0830  0.3027
  584HK4    C1649026   2.849   7.997  10.748 -0.1887 -1.0730 -0.4021
  584HK4    C1549027   2.725   7.971  10.811 -0.1058  0.0620  0.2217
  584HK4     H749028   2.713   7.905  10.898 -1.4559 -0.8783 -0.6751
  584HK4    C2049029   2.607   8.027  10.765  0.0253 -0.1348 -0.3509
  584HK4     H949030   2.513   8.008  10.816 -1.5190  0.8411 -2.7223
  584HK4    C1949031   2.614   8.113  10.656  0.1006 -0.0914 -0.3092
  584HK4    C1849032   2.739   8.143  10.589  0.1131 -0.0571 -0.2709
  584HK4    C1749033   2.853   8.078  10.635 -0.1987 -0.3104  0.1397
  584HK4     H849034   2.934   8.081  10.562 -1.2042  1.2304 -0.9363
  584HK4     N149035   2.727   8.257  10.506  0.2280  0.3870  0.3254
  584HK4    C2149036   2.593   8.299  10.521  0.1361  0.0705  0.3971
  584HK4    C2249037   2.525   8.223  10.624 -0.0332 -0.0536  0.1932
  584HK4    C2649038   2.394   8.249  10.663  0.0790  0.4398  0.2400
  584HK4    H1349039   2.358   8.213  10.760 -1.3257  2.8740  0.6679
  584HK4    C2549040   2.327   8.350  10.596 -0.0973  0.2679  0.1601
  584HK4    H1249041   2.221   8.358  10.619 -0.4032 -0.6414 -0.8789
  584HK4    C2449042   2.386   8.415  10.488  0.0579 -0.2993 -0.1003
  584HK4    H1149043   2.336   8.502  10.443 -2.6392 -2.2579 -0.9610
  584HK4    C2349044   2.515   8.386  10.446 -0.0980 -0.7234 -0.2850
  584HK4    H1049045   2.575   8.429  10.366  1.4238  0.6195  1.5125
  584HK4    C3949046   2.795   8.269  10.385  0.2636  0.1218  0.3198
  584HK4    C4149047   2.851   8.161  10.314 -0.1262 -0.0860  0.3299
  584HK4    H2149048   2.819   8.058  10.334 -1.3358  0.4411  1.2028
  584HK4    C4249049   2.943   8.176  10.211 -0.0942  0.0639  0.3780
  584HK4    H2249050   2.990   8.086  10.170 -1.1913 -0.1307 -0.4751
  584HK4    C4349051   2.973   8.305  10.169 -0.2830  0.1256  0.4324
  584HK4    H2349052   3.029   8.318  10.076 -1.4107 -0.9211 -0.4034
  584HK4    C4449053   2.922   8.414  10.239 -0.5911  0.2030  0.0921
  584HK4    H2449054   2.966   8.509  10.205  1.7116 -0.6455  0.5538
  584HK4    C4549055   2.835   8.399  10.346 -0.6569  0.3296  0.0549
  584HK4    H2549056   2.819   8.485  10.412  1.3536  0.9428 -0.2324
  585HK4    H2849057   5.585   0.693   5.554 -1.2107 -0.4966 -0.7906
  585HK4    C4849058   5.617   0.772   5.486 -0.3020 -0.1895 -0.0136
  585HK4    C4749059   5.693   0.731   5.377 -0.0022 -0.0491  0.1422
  585HK4    H2749060   5.681   0.626   5.347  1.8667 -0.4024  0.5581
  585HK4    C4649061   5.770   0.828   5.314 -0.2367  0.4098  0.5621
  585HK4    H2649062   5.848   0.780   5.253 -0.5032 -2.3767  2.3159
  585HK4    C4049063   5.770   0.966   5.342  0.0778  0.4678  0.2827
  585HK4    C5049064   5.684   1.003   5.448 -0.2600 -0.2415  0.2623
  585HK4    H3049065   5.668   1.111   5.465 -0.1084 -0.3511  1.1174
  585HK4    C4949066   5.609   0.907   5.515 -0.8432 -0.1646 -0.2862
  585HK4    H2949067   5.533   0.949   5.582 -1.4090 -1.0213 -0.3908
  585HK4     N249068   5.792   1.060   5.241 -0.2481  0.3042  0.0599
  585HK4    C3049069   5.773   1.037   5.103  0.6201 -0.4353  0.0570
  585HK4    C2949070   5.731   0.927   5.030  0.4516 -0.4203  0.1307
  585HK4    H1549071   5.685   0.846   5.087 -3.4306  0.5747 -1.4278
  585HK4    C2849072   5.736   0.923   4.892  0.7063 -0.2538  0.1353
  585HK4    C2749073   5.780   1.039   4.825  0.3012 -0.0628  0.2002
  585HK4    H1449074   5.761   1.044   4.717  1.5322 -0.3197 -0.0401
  585HK4    C3249075   5.830   1.150   4.892 -0.5963  0.3655  0.1723
  585HK4    H1649076   5.841   1.242   4.834  1.4857  0.3228  0.4610
  585HK4    C3149077   5.823   1.153   5.031  0.2704 -0.1721  0.2332
  585HK4    C3449078   5.868   1.250   5.128  0.2904  0.0934 -0.0424
  585HK4    C3349079   5.844   1.190   5.258  0.3555  0.0790 -0.0376
  585HK4    C3549080   5.907   1.248   5.367 -0.1460  0.3381  0.1207
  585HK4    H1749081   5.886   1.195   5.461 -0.5685  0.7416  0.2549
  585HK4    C3649082   6.008   1.343   5.355  0.0642  0.1089  0.0585
  585HK4    H1849083   6.044   1.397   5.444  1.0804 -0.9610  0.3118
  585HK4    C3749084   6.039   1.385   5.227 -0.1887 -0.1647 -0.0940
  585HK4    H1949085   6.133   1.438   5.210 -0.0919 -0.3580 -0.1537
  585HK4    C3849086   5.967   1.347   5.114 -0.0629  0.4081 -0.3697
  585HK4    H2049087   5.974   1.398   5.018 -1.1605  0.8436 -0.2289
  585HK4    C1449088   5.731   0.790   4.828 -0.6463  0.1081 -0.5300
  585HK4     C949089   5.805   0.753   4.714 -0.1533 -0.2025 -0.1110
  585HK4     C849090   5.756   0.657   4.624 -0.1725 -0.3968  0.1052
  585HK4    C1149091   5.640   0.590   4.662 -0.1014 -0.2644  0.5573
  585HK4     H449092   5.613   0.491   4.625  2.8119  0.0275 -2.6367
  585HK4    C1249093   5.565   0.624   4.773 -0.8509  0.2791 -0.1062
  585HK4     H549094   5.479   0.562   4.804  0.8771 -1.8287  0.6386
  585HK4    C1349095   5.611   0.724   4.858 -0.3236 -0.1708  0.1387
  585HK4     H649096   5.542   0.752   4.939  2.3157  1.7790  1.7752
  585HK4     C749097   5.808   0.637   4.486 -0.2317 -0.1608  0.0489
  585HK4     O249098   5.791   0.526   4.437  0.0911 -0.2823  0.2105
  585HK4     C449099   5.913   0.732   4.442  0.2318 -0.5424  0.3225
  585HK4     C349100   5.942   0.741   4.306 -0.7635 -0.0068  0.1408
  585HK4     H349101   5.895   0.674   4.233  1.5769  1.1956 -2.5309
  585HK4     C249102   6.030   0.837   4.260 -0.2743 -0.1097  0.8572
  585HK4     H249103   6.042   0.854   4.152 -1.1959  1.8116  1.0321
  585HK4     C149104   6.086   0.924   4.353  0.5523  0.2888 -0.0043
  585HK4     H149105   6.170   0.984   4.315 -0.2165  0.6165 -1.1980
  585HK4     C649106   6.058   0.922   4.491 -0.5220  0.0995 -0.2242
  585HK4     C549107   5.974   0.818   4.535  0.0922 -0.2462  0.1398
  585HK4    C1049108   5.934   0.819   4.678 -0.1728 -0.0657  0.0640
  585HK4     O149109   6.021   0.821   4.764 -0.4593 -0.4422  0.3680
  585HK4    C1649110   6.060   1.056   4.551 -0.2463 -0.1403  0.3120
  585HK4    C1549111   5.982   1.162   4.498 -0.1220 -0.0204  0.3686
  585HK4     H749112   5.906   1.135   4.423 -1.2719 -0.2929  1.6116
  585HK4    C2049113   5.981   1.293   4.545  0.0790  0.0760  0.1057
  585HK4     H949114   5.905   1.368   4.526 -1.0901 -1.4797 -1.5719
  585HK4    C1949115   6.060   1.317   4.657  0.1242 -0.2628  0.1499
  585HK4    C1849116   6.124   1.207   4.727 -0.5733 -0.4770  0.4558
  585HK4    C1749117   6.142   1.087   4.659 -0.0701 -0.2662  0.2146
  585HK4     H849118   6.228   1.027   4.685 -1.5164 -1.5647  2.1374
  585HK4     N149119   6.193   1.254   4.841  0.1715  0.1589 -0.2475
  585HK4    C2149120   6.177   1.394   4.837  0.0970  0.1426 -0.5874
  585HK4    C2249121   6.090   1.438   4.731 -0.3606  0.0915 -0.2342
  585HK4    C2649122   6.061   1.574   4.715 -0.7335  0.0623  0.1716
  585HK4    H1349123   5.993   1.605   4.636 -0.1936 -2.2921 -1.3027
  585HK4    C2549124   6.127   1.664   4.797  0.0767 -0.3568 -0.0081
  585HK4    H1249125   6.134   1.770   4.770 -1.3585 -0.5348 -1.0957
  585HK4    C2449126   6.207   1.627   4.904 -0.2855  0.2365  0.4755
  585HK4    H1149127   6.235   1.701   4.980 -0.7673 -0.0404  0.9284
  585HK4    C2349128   6.232   1.491   4.920 -0.3739  0.1308 -0.2636
  585HK4    H1049129   6.314   1.463   4.987  2.5032  1.8046 -2.9885
  585HK4    C3949130   6.225   1.175   4.952 -0.0016 -0.2680 -0.4985
  585HK4    C4149131   6.328   1.215   5.040 -0.4044  0.0865 -0.1841
  585HK4    H2149132   6.413   1.276   5.007 -0.0612 -1.7834 -2.9180
  585HK4    C4249133   6.335   1.159   5.167  0.2974  0.0042 -0.2553
  585HK4    H2249134   6.383   1.216   5.248  2.1591 -1.6227 -0.1804
  585HK4    C4349135   6.250   1.058   5.211  0.8386 -0.3908 -0.1201
  585HK4    H2349136   6.239   1.035   5.317  1.2387  0.5445  0.1258
  585HK4    C4449137   6.156   1.009   5.121 -0.0373  0.2864  0.4281
  585HK4    H2449138   6.091   0.930   5.161 -2.1661  1.4908 -0.5174
  585HK4    C4549139   6.146   1.066   4.994 -0.2014  0.2264  0.4140
  585HK4    H2549140   6.064   1.025   4.934  1.0387 -0.1507 -1.0268
  586HK4    H2849141   1.932   1.753   8.266 -0.1504  1.3583 -1.4600
  586HK4    C4849142   1.855   1.693   8.217 -0.2590  0.2109  0.1112
  586HK4    C4749143   1.770   1.760   8.131  0.2732  0.7912  0.0330
  586HK4    H2749144   1.792   1.861   8.093  0.4138 -0.2791 -2.9336
  586HK4    C4649145   1.659   1.694   8.079  0.4187  0.0576  0.6407
  586HK4    H2649146   1.598   1.744   8.002 -0.9808 -1.3984  0.7594
  586HK4    C4049147   1.621   1.563   8.116 -0.0593  0.1960  0.6453
  586HK4    C5049148   1.705   1.503   8.212 -0.0489 -0.0810  0.4632
  586HK4    H3049149   1.676   1.405   8.250  1.3985 -0.1302  1.5094
  586HK4    C4949150   1.820   1.566   8.261 -0.4708  0.4812  0.7396
  586HK4    H2949151   1.895   1.501   8.308  0.7171  3.0700  2.5020
  586HK4     N249152   1.502   1.504   8.072  0.0666  0.1630  0.3528
  586HK4    C3049153   1.389   1.570   8.020  0.3170  0.0346 -0.3723
  586HK4    C2949154   1.338   1.691   8.067 -0.3053 -0.5079  0.3704
  586HK4    H1549155   1.400   1.756   8.129  2.7010 -1.6833 -1.2477
  586HK4    C2849156   1.211   1.727   8.023  0.0084 -0.0064 -0.1358
  586HK4    C2749157   1.133   1.642   7.942 -0.1371 -0.3458  0.3629
  586HK4    H1449158   1.044   1.683   7.892 -0.7479 -2.4952 -0.3392
  586HK4    C3249159   1.187   1.522   7.898  0.8588  0.3713 -0.3828
  586HK4    H1649160   1.135   1.467   7.820  1.2307 -0.5792  0.0356
  586HK4    C3149161   1.314   1.479   7.936  0.7095 -0.1759 -0.4962
  586HK4    C3449162   1.383   1.352   7.932  0.3021 -0.4189  0.1219
  586HK4    C3349163   1.497   1.373   8.019  0.0005  0.1527  0.3840
  586HK4    C3549164   1.584   1.264   8.024 -0.2813 -0.0795  0.2474
  586HK4    H1749165   1.676   1.271   8.082  0.7001 -5.1390 -0.4936
  586HK4    C3649166   1.578   1.157   7.936 -0.1940  0.1470 -0.0331
  586HK4    H1849167   1.657   1.083   7.951  0.0307  0.5457  0.7718
  586HK4    C3749168   1.471   1.144   7.848  0.3931  0.1693 -0.7527
  586HK4    H1949169   1.465   1.062   7.776 -0.5985  0.8135 -1.4256
  586HK4    C3849170   1.369   1.238   7.854 -0.2061 -0.5390  0.3867
  586HK4    H2049171   1.278   1.226   7.796 -1.6303 -3.5521  3.0916
  586HK4    C1449172   1.140   1.840   8.085  0.1395 -0.1779  0.3316
  586HK4     C949173   1.001   1.855   8.092  0.0904 -0.3035 -0.3308
  586HK4     C849174   0.943   1.984   8.090 -0.0546 -0.3456  1.0102
  586HK4    C1149175   1.027   2.094   8.100 -0.1069 -0.1968 -0.2315
  586HK4     H449176   0.982   2.188   8.137 -1.9488 -0.8620 -0.7185
  586HK4    C1249177   1.165   2.083   8.097 -0.0834  0.0879 -0.2042
  586HK4     H549178   1.233   2.170   8.085  0.5673 -0.4002 -0.0998
  586HK4    C1349179   1.220   1.956   8.096 -0.1585  0.0542  0.0663
  586HK4     H649180   1.326   1.946   8.067 -0.0725  1.6088 -0.1607
  586HK4     C749181   0.798   2.003   8.070  0.1616  0.2448 -0.0169
  586HK4     O249182   0.745   2.114   8.082 -0.0560  0.0933  0.4238
  586HK4     C449183   0.720   1.882   8.038 -0.1732  0.3943  0.2310
  586HK4     C349184   0.587   1.894   8.000  0.1975  0.4905 -1.0573
  586HK4     H349185   0.544   1.986   8.043  2.5945  0.5566  1.2983
  586HK4     C249186   0.509   1.786   7.961  0.1272  0.2645 -0.3078
  586HK4     H249187   0.404   1.798   7.929 -0.8099 -1.4222  1.9858
  586HK4     C149188   0.565   1.659   7.969  0.0313  0.2476  0.1020
  586HK4     H149189   0.502   1.569   7.957  0.7119 -0.1547 -0.4641
  586HK4     C649190   0.696   1.634   8.013  0.1578  0.2020 -0.2965
  586HK4     C549191   0.768   1.750   8.049 -0.3528  0.3348  0.3034
  586HK4    C1049192   0.905   1.742   8.105 -0.3244  0.1060  0.2069
  586HK4     O149193   0.937   1.660   8.191  0.3291  0.1524  0.0100
  586HK4    C1649194   0.772   1.524   7.952  0.4569  0.3787 -0.2478
  586HK4    C1549195   0.760   1.487   7.816  0.8012  0.1581 -0.2176
  586HK4     H749196   0.682   1.545   7.765  0.2422 -1.8276 -1.6738
  586HK4    C2049197   0.813   1.370   7.762 -0.3244 -0.2940 -0.3507
  586HK4     H949198   0.798   1.344   7.657 -0.7388 -0.1704 -0.3230
  586HK4    C1949199   0.871   1.277   7.847 -0.0779  0.2466  0.0752
  586HK4    C1849200   0.886   1.315   7.986  0.0415  0.1941  0.0774
  586HK4    C1749201   0.830   1.431   8.037 -0.0139  0.2369 -0.0808
  586HK4     H849202   0.808   1.442   8.144 -0.1138  1.5051 -0.2233
  586HK4     N149203   0.962   1.218   8.054  0.0139  0.1617  0.0609
  586HK4    C2149204   0.983   1.115   7.959  0.0359 -0.0010  0.2417
  586HK4    C2249205   0.927   1.145   7.829  0.2226  0.3508  0.2397
  586HK4    C2649206   0.955   1.060   7.722 -0.7046  0.0865  0.1999
  586HK4    H1349207   0.910   1.087   7.627 -2.6056 -1.3196  0.6664
  586HK4    C2549208   1.044   0.954   7.735  0.5084  0.9692 -0.8243
  586HK4    H1249209   1.086   0.896   7.652  1.2150 -1.6325  1.2766
  586HK4    C2449210   1.095   0.925   7.861  0.3386  0.1340 -0.9465
  586HK4    H1149211   1.141   0.827   7.881 -2.4773 -0.8076  1.2836
  586HK4    C2349212   1.071   1.008   7.970 -0.4453 -0.4874 -0.6386
  586HK4    H1049213   1.140   0.997   8.054  1.5325 -1.3963 -2.3474
  586HK4    C3949214   1.022   1.247   8.177  0.5080  0.0010 -0.1380
  586HK4    C4149215   1.052   1.139   8.264 -0.0696  0.4361  0.6107
  586HK4    H2149216   0.991   1.048   8.269  0.0874  0.3405  0.7841
  586HK4    C4249217   1.165   1.143   8.345 -0.2857  0.2281  0.9176
  586HK4    H2249218   1.196   1.059   8.409  1.3908  0.6191  0.6497
  586HK4    C4349219   1.250   1.253   8.341 -0.3672  0.2798  0.6353
  586HK4    H2349220   1.348   1.250   8.390  2.1329  0.8992 -4.0037
  586HK4    C4449221   1.218   1.359   8.257 -0.4017 -0.4339 -0.2697
  586HK4    H2449222   1.275   1.451   8.276  2.3079 -1.5448 -2.5774
  586HK4    C4549223   1.101   1.364   8.183 -0.3397  0.5837 -0.3135
  586HK4    H2549224   1.075   1.456   8.130 -1.7076  1.5080  1.9206
  587HK4    H2849225   2.350  10.424   3.170  1.7427  1.2790  1.7598
  587HK4    C4849226   2.364  10.332   3.228 -0.5173 -0.2784 -0.0438
  587HK4    C4749227   2.449  10.233   3.181  0.3902  0.3106  0.3422
  587HK4    H2749228   2.476  10.234   3.074  1.5244 -0.0641  0.6271
  587HK4    C4649229   2.469  10.121   3.261  0.7806  0.4796  0.4867
  587HK4    H2649230   2.554  10.060   3.226  0.9908  1.1202 -0.1267
  587HK4    C4049231   2.399  10.095   3.380  0.6407  0.1544  0.3364
  587HK4    C5049232   2.311  10.199   3.420  0.3910 -0.0350  0.2794
  587HK4    H3049233   2.256  10.191   3.514  0.0806  0.8004  0.1698
  587HK4    C4949234   2.296  10.317   3.348  0.0168 -0.0799  0.2821
  587HK4    H2949235   2.214  10.384   3.378  0.0275 -0.5386  1.3748
  587HK4     N249236   2.377   9.965   3.427  0.2112  0.0840 -0.0566
  587HK4    C3049237   2.366   9.848   3.350 -0.1729 -0.0182  0.1539
  587HK4    C2949238   2.335   9.829   3.215 -0.5462  0.0474  0.2304
  587HK4    H1549239   2.329   9.922   3.159 -2.6882  0.5784  1.2932
  587HK4    C2849240   2.330   9.703   3.158  1.0139  0.1582 -0.1766
  587HK4    C2749241   2.368   9.598   3.244  0.1853 -0.2909 -0.3550
  587HK4    H1449242   2.400   9.504   3.197 -1.9218 -0.8202 -0.7890
  587HK4    C3249243   2.388   9.609   3.381 -0.5527 -0.1307 -0.2553
  587HK4    H1649244   2.405   9.518   3.439 -0.0779 -0.0864 -0.3219
  587HK4    C3149245   2.373   9.734   3.439  0.2257 -0.1394 -0.0276
  587HK4    C3449246   2.380   9.789   3.573  0.1826  0.2710 -0.1943
  587HK4    C3349247   2.391   9.933   3.563 -0.3199  0.3288  0.0546
  587HK4    C3549248   2.420  10.010   3.675  0.9014  0.3138 -0.2535
  587HK4    H1749249   2.457  10.113   3.664 -0.1749  1.0152  2.2556
  587HK4    C3649250   2.434   9.946   3.797 -0.5029 -0.3704 -0.4542
  587HK4    H1849251   2.465  10.006   3.884  0.7202  0.2310 -1.3111
  587HK4    C3749252   2.427   9.807   3.809 -0.1136 -0.3813 -0.3391
  587HK4    H1949253   2.425   9.766   3.910  0.5084 -0.5056 -0.3801
  587HK4    C3849254   2.399   9.730   3.697  0.5944 -0.3378 -0.5484
  587HK4    H2049255   2.369   9.625   3.695 -0.2132 -0.1199 -0.0103
  587HK4    C1449256   2.276   9.676   3.024 -0.1767 -0.0613  0.3346
  587HK4     C949257   2.250   9.547   2.977  0.1745 -0.0577  0.1209
  587HK4     C849258   2.264   9.522   2.839 -1.2132  0.4087 -0.1081
  587HK4    C1149259   2.317   9.617   2.752 -0.3695  0.0739  0.0449
  587HK4     H449260   2.369   9.593   2.658  0.1328 -0.3910  0.4335
  587HK4    C1249261   2.338   9.747   2.796  0.8738 -0.2020  0.3066
  587HK4     H549262   2.381   9.823   2.729 -1.5683 -0.0004 -1.0870
  587HK4    C1349263   2.309   9.776   2.929  0.7905 -0.3795  0.3276
  587HK4     H649264   2.292   9.881   2.957 -2.5768 -0.9393  0.5367
  587HK4     C749265   2.221   9.390   2.787  0.4707 -0.2320  0.0949
  587HK4     O249266   2.210   9.373   2.666 -0.1341 -0.1837  0.1395
  587HK4     C449267   2.171   9.284   2.878 -0.3728  0.1322  0.0681
  587HK4     C349268   2.119   9.165   2.828  0.3435 -0.1817  0.0775
  587HK4     H349269   2.161   9.125   2.734 -0.4404 -0.7780 -0.0181
  587HK4     C249270   2.044   9.075   2.903 -0.2322  0.4996  0.3196
  587HK4     H249271   1.969   9.018   2.847  1.8735 -0.3954 -1.6500
  587HK4     C149272   2.041   9.101   3.039  0.2473  0.0582  0.4128
  587HK4     H149273   1.955   9.059   3.093  2.6090 -3.4432  1.6186
  587HK4     C649274   2.115   9.205   3.100  0.3007  0.3042 -0.0656
  587HK4     C549275   2.158   9.308   3.016 -0.1854  0.5714  0.0120
  587HK4    C1049276   2.185   9.446   3.065  0.5048  0.2028  0.6643
  587HK4     O149277   2.099   9.488   3.142 -0.3681  0.0188 -0.1986
  587HK4    C1649278   2.145   9.184   3.243 -0.1555 -0.3683 -0.0648
  587HK4    C1549279   2.221   9.276   3.318 -0.1947  0.0177 -0.4951
  587HK4     H749280   2.295   9.333   3.260  0.1952  0.1116  0.0921
  587HK4    C2049281   2.218   9.295   3.456 -0.0140  0.2137 -0.5184
  587HK4     H949282   2.249   9.389   3.502 -2.3863 -1.2920  4.5135
  587HK4    C1949283   2.145   9.208   3.537  0.1150  0.6025  0.0195
  587HK4    C1849284   2.072   9.108   3.462  0.7896  0.0889  0.0460
  587HK4    C1749285   2.070   9.099   3.323 -0.0176 -0.3539  0.0818
  587HK4     H849286   2.009   9.022   3.277 -2.1172  2.2340 -1.6023
  587HK4     N149287   2.006   9.022   3.552 -0.0750  0.4956 -0.1973
  587HK4    C2149288   2.050   9.065   3.678 -0.5778  0.3216  0.0378
  587HK4    C2249289   2.137   9.181   3.679 -0.4157  0.2001 -0.0888
  587HK4    C2649290   2.193   9.231   3.796  0.2071  0.0928 -0.3376
  587HK4    H1349291   2.268   9.309   3.787 -0.7300  0.8672 -1.6763
  587HK4    C2549292   2.168   9.172   3.919 -0.5778  0.0583 -0.5059
  587HK4    H1249293   2.206   9.202   4.017 -0.6487 -0.9932 -0.1390
  587HK4    C2449294   2.082   9.063   3.921  0.0736 -0.4575  0.1640
  587HK4    H1149295   2.063   9.008   4.014 -1.6593 -0.5470 -0.2185
  587HK4    C2349296   2.023   9.014   3.805 -0.3234  0.2550  0.0637
  587HK4    H1049297   1.945   8.939   3.816  1.4019 -1.6244 -0.2123
  587HK4    C3949298   1.877   8.970   3.530 -0.2465  0.5833  0.6059
  587HK4    C4149299   1.837   8.854   3.598  0.5073 -0.1519 -0.1867
  587HK4    H2149300   1.909   8.794   3.655 -0.7459  0.6287  2.2927
  587HK4    C4249301   1.712   8.796   3.578 -0.0251  0.9779 -0.1451
  587HK4    H2249302   1.662   8.744   3.660 -0.6463  1.5182 -0.1796
  587HK4    C4349303   1.624   8.853   3.486 -0.2017  0.0046 -0.5835
  587HK4    H2349304   1.534   8.805   3.448  0.9030 -0.9326 -2.0919
  587HK4    C4449305   1.659   8.967   3.415  0.7562 -0.2328 -0.5035
  587HK4    H2449306   1.590   9.009   3.340 -0.5032 -0.7457  0.3533
  587HK4    C4549307   1.781   9.027   3.444  0.0372  0.8093  0.4408
  587HK4    H2549308   1.802   9.122   3.391 -2.1728  1.5816  0.8935
  588HK4    H2849309   5.953   3.567   8.404 -0.0452  0.8441  0.0707
  588HK4    C4849310   5.940   3.483   8.472  0.3946  0.7385  0.0245
  588HK4    C4749311   6.014   3.366   8.455 -1.0920 -0.1058 -0.7246
  588HK4    H2749312   6.076   3.358   8.364  0.1564  0.6140  0.0400
  588HK4    C4649313   6.013   3.269   8.554  0.1442  0.3175 -0.2939
  588HK4    H2649314   6.077   3.181   8.539  1.0445  1.0728 -1.0241
  588HK4    C4049315   5.944   3.283   8.676  0.7179  0.6966 -0.0075
  588HK4    C5049316   5.861   3.397   8.681  0.0063  0.1862 -0.1323
  588HK4    H3049317   5.775   3.402   8.749  0.0115  0.9104 -0.1762
  588HK4    C4949318   5.863   3.499   8.586  0.0507  0.1875 -0.1284
  588HK4    H2949319   5.816   3.595   8.612 -0.7288 -0.5922  1.4065
  588HK4     N249320   5.951   3.195   8.785 -0.5692  0.2045 -0.3266
  588HK4    C3049321   5.985   3.058   8.779  0.1243  0.3628 -0.0084
  588HK4    C2949322   5.987   2.974   8.668 -0.3159  0.4043 -0.0522
  588HK4    H1549323   5.920   3.002   8.587  0.0746  1.9340  0.1292
  588HK4    C2849324   6.029   2.842   8.668 -0.0956  0.4710 -0.5695
  588HK4    C2749325   6.077   2.800   8.793 -0.2383  0.5583 -0.4839
  588HK4    H1449326   6.137   2.708   8.805  1.9387  2.0799  0.6705
  588HK4    C3249327   6.068   2.872   8.912  0.0094 -0.0118 -0.1154
  588HK4    H1649328   6.112   2.831   9.003 -0.7339 -0.9911 -0.1902
  588HK4    C3149329   6.022   3.003   8.908 -0.3560 -0.1387 -0.0807
  588HK4    C3449330   6.024   3.120   8.992  0.0730  0.0175 -0.3057
  588HK4    C3349331   5.961   3.230   8.921 -0.4542 -0.2290 -0.2210
  588HK4    C3549332   5.950   3.352   8.986  0.5770 -0.3338  0.1579
  588HK4    H1749333   5.867   3.415   8.955  3.7511  2.4694 -3.0756
  588HK4    C3649334   6.000   3.362   9.115 -0.0875  0.5025  0.3535
  588HK4    H1849335   5.962   3.450   9.170  1.5511  0.6914  1.1967
  588HK4    C3749336   6.061   3.257   9.182 -0.7108 -0.0715  0.0263
  588HK4    H1949337   6.126   3.271   9.269 -2.4798  0.2585  1.3200
  588HK4    C3849338   6.078   3.134   9.120  0.3404  0.3014 -0.4444
  588HK4    H2049339   6.129   3.058   9.178 -1.9770  0.7012  2.2434
  588HK4    C1449340   6.047   2.749   8.556 -0.0436 -0.1264 -0.0680
  588HK4     C949341   6.077   2.612   8.569  0.2595 -0.0685 -0.1354
  588HK4     C849342   6.167   2.551   8.480  0.2944 -0.1770 -0.0251
  588HK4    C1149343   6.217   2.619   8.370 -0.2226  0.0198 -0.1440
  588HK4     H449344   6.293   2.566   8.310 -0.1941 -0.2533  0.1292
  588HK4    C1249345   6.183   2.751   8.346 -0.0034  0.0384 -0.3604
  588HK4     H549346   6.179   2.793   8.244  1.6808  0.1717 -0.3946
  588HK4    C1349347   6.102   2.811   8.442  0.2804 -0.2138  0.0407
  588HK4     H649348   6.087   2.920   8.437 -3.1541 -0.5648  1.5716
  588HK4     C749349   6.214   2.413   8.508  0.0238 -0.2202  0.2252
  588HK4     O249350   6.273   2.348   8.423  0.3442  0.5437 -0.1451
  588HK4     C449351   6.160   2.340   8.625 -0.0661  0.0572  0.3618
  588HK4     C349352   6.218   2.219   8.663  0.2674  0.0643 -0.1161
  588HK4     H349353   6.305   2.176   8.610 -2.2486 -0.5317 -3.9353
  588HK4     C249354   6.171   2.142   8.768  0.1922  0.0024 -0.1953
  588HK4     H249355   6.231   2.056   8.801  0.9008  0.1656 -1.0438
  588HK4     C149356   6.056   2.189   8.831  0.0736 -0.1298 -0.3153
  588HK4     H149357   6.028   2.140   8.925  2.9015 -0.8215  0.1982
  588HK4     C649358   5.998   2.315   8.804  0.5179  0.3036  0.7556
  588HK4     C549359   6.049   2.388   8.696 -0.0829  0.0754  0.3223
  588HK4    C1049360   5.996   2.522   8.656 -0.0542 -0.1569 -0.5178
  588HK4     O149361   5.876   2.546   8.662  0.1493  0.8450 -0.2878
  588HK4    C1649362   5.882   2.339   8.890 -0.2291  0.0863 -0.1858
  588HK4    C1549363   5.806   2.232   8.940 -0.1149  0.2022  0.2376
  588HK4     H749364   5.800   2.147   8.870 -0.9686  1.2875 -1.0230
  588HK4    C2049365   5.714   2.253   9.043 -0.6405  0.0179 -0.1955
  588HK4     H949366   5.647   2.169   9.062 -0.0842 -0.4537 -0.3231
  588HK4    C1949367   5.697   2.375   9.107 -0.2354  0.1701 -0.3716
  588HK4    C1849368   5.771   2.489   9.058  0.1482  0.0734 -0.0213
  588HK4    C1749369   5.856   2.462   8.951  0.2560  0.0648  0.0640
  588HK4     H849370   5.902   2.548   8.903  1.2328 -0.3188  0.2980
  588HK4     N149371   5.753   2.608   9.131 -0.3408  0.0436 -0.0939
  588HK4    C2149372   5.657   2.568   9.226  0.4238 -0.2963  0.5505
  588HK4    C2249373   5.620   2.428   9.218 -0.3003 -0.0603 -0.3079
  588HK4    C2649374   5.514   2.378   9.293 -0.8205  0.6848 -0.5308
  588HK4    H1349375   5.509   2.269   9.287 -1.0783  0.6587  0.1535
  588HK4    C2549376   5.442   2.464   9.374 -0.0632  0.2001  0.6749
  588HK4    H1249377   5.344   2.427   9.404  0.1947 -0.9737  0.0747
  588HK4    C2449378   5.470   2.600   9.372  0.0152  0.1799  0.4198
  588HK4    H1149379   5.416   2.675   9.432 -0.2267 -0.0431  0.4793
  588HK4    C2349380   5.580   2.653   9.305  0.1272 -0.2759  0.2462
  588HK4    H1049381   5.596   2.760   9.293 -2.3287  0.3979  2.4959
  588HK4    C3949382   5.773   2.736   9.077 -0.1146  0.0304 -0.0398
  588HK4    C4149383   5.796   2.840   9.170  0.0828 -0.1751  0.1382
  588HK4    H2149384   5.870   2.825   9.250  0.0032  0.5292  0.3439
  588HK4    C4249385   5.767   2.969   9.128 -0.1715 -0.2866 -0.0235
  588HK4    H2249386   5.808   3.048   9.192  0.0389 -1.2089  0.9900
  588HK4    C4349387   5.713   3.002   9.004  0.2212  0.1320 -0.0838
  588HK4    H2349388   5.681   3.105   8.989  0.8497  0.3576  0.1042
  588HK4    C4449389   5.683   2.897   8.918  0.1814  0.3429 -0.3286
  588HK4    H2449390   5.670   2.925   8.813  0.7270  0.0259 -0.4819
  588HK4    C4549391   5.717   2.766   8.952 -0.0904  0.3637  0.0246
  588HK4    H2549392   5.714   2.692   8.870 -1.2607 -0.4366  0.7822
  589HK4    H2849393   7.510   2.698   9.797 -0.2351 -0.2859 -0.2175
  589HK4    C4849394   7.439   2.615   9.796 -0.4057 -0.1364 -0.6075
  589HK4    C4749395   7.444   2.515   9.700  0.1717  0.3062 -1.0438
  589HK4    H2749396   7.537   2.479   9.654  1.7038  2.8789 -0.0747
  589HK4    C4649397   7.337   2.428   9.684 -0.3928  0.8515 -0.2798
  589HK4    H2649398   7.346   2.352   9.605 -1.5494 -1.4428  1.7336
  589HK4    C4049399   7.220   2.436   9.763  0.0462  0.1589  0.4538
  589HK4    C5049400   7.217   2.534   9.864 -0.4916  0.5545  0.0545
  589HK4    H3049401   7.128   2.547   9.927 -0.6630 -0.9633  0.1271
  589HK4    C4949402   7.327   2.618   9.878 -0.1128  0.1059 -0.2157
  589HK4    H2949403   7.346   2.671   9.973  0.5128  0.3637 -0.4781
  589HK4     N249404   7.130   2.329   9.773  0.1456  0.0435  0.1211
  589HK4    C3049405   7.158   2.195   9.740  0.1826  0.0306  0.2085
  589HK4    C2949406   7.267   2.117   9.778  0.3370 -0.0316 -0.3546
  589HK4    H1549407   7.363   2.164   9.799  0.1620  0.8827 -1.5123
  589HK4    C2849408   7.258   1.979   9.781  0.2016 -0.0193 -0.1898
  589HK4    C2749409   7.134   1.922   9.744  0.3023  0.2040 -0.8794
  589HK4    H1449410   7.112   1.819   9.774 -1.9505  0.1932 -2.4569
  589HK4    C3249411   7.025   1.994   9.698 -0.1821  0.4068  0.5697
  589HK4    H1649412   6.932   1.948   9.664 -0.8621  0.8140  1.8467
  589HK4    C3149413   7.031   2.132   9.708  0.0585  0.4458 -0.1145
  589HK4    C3449414   6.923   2.228   9.720 -0.3153 -0.0818  0.7696
  589HK4    C3349415   6.992   2.350   9.759  0.1742 -0.0210 -0.2599
  589HK4    C3549416   6.903   2.450   9.796  0.2460  0.0900 -0.3886
  589HK4    H1749417   6.945   2.550   9.790  0.9938 -0.0827  1.4505
  589HK4    C3649418   6.766   2.430   9.810  0.2782 -0.1357 -0.3911
  589HK4    H1849419   6.705   2.508   9.858  0.7899 -0.3199  0.5496
  589HK4    C3749420   6.705   2.311   9.771 -0.7413  0.2044  0.1494
  589HK4    H1949421   6.597   2.301   9.785 -0.4508  0.5036  2.8559
  589HK4    C3849422   6.785   2.212   9.715 -0.3541  0.2878  0.5567
  589HK4    H2049423   6.741   2.118   9.684  2.1228 -0.7995  0.1893
  589HK4    C1449424   7.376   1.896   9.809  0.3411  0.3685  0.3842
  589HK4     C949425   7.406   1.773   9.748  0.4283  0.5828 -0.0036
  589HK4     C849426   7.499   1.682   9.802 -0.5401 -0.0242  0.6562
  589HK4    C1149427   7.584   1.726   9.904  0.2226  0.2464 -0.0881
  589HK4     H449428   7.654   1.653   9.946 -0.4871 -0.8888 -0.8428
  589HK4    C1249429   7.561   1.849   9.965  0.6587  0.2680  0.0306
  589HK4     H549430   7.637   1.891  10.032  0.7390  0.6467 -0.2985
  589HK4    C1349431   7.462   1.932   9.914  0.2347  0.0913  0.5689
  589HK4     H649432   7.462   2.036   9.950  2.8306  0.2115  0.2809
  589HK4     C749433   7.504   1.540   9.763  0.1891  0.0575  0.4427
  589HK4     O249434   7.590   1.461   9.802  0.3113 -0.0220  0.0148
  589HK4     C449435   7.395   1.492   9.676  0.3296  0.2794  0.1416
  589HK4     C349436   7.372   1.355   9.665  0.5259  0.2864 -0.3843
  589HK4     H349437   7.407   1.280   9.737  1.3856  1.8216  0.8156
  589HK4     C249438   7.290   1.305   9.564 -0.3786  0.6653  0.1586
  589HK4     H249439   7.260   1.200   9.567 -1.7385  1.0757  1.8258
  589HK4     C149440   7.233   1.394   9.473  0.3657  0.4738 -0.4976
  589HK4     H149441   7.197   1.353   9.377 -1.9238  0.5844  0.2750
  589HK4     C649442   7.248   1.533   9.486  0.0301  0.4388  0.2725
  589HK4     C549443   7.336   1.581   9.584  0.1808  0.2636  0.2209
  589HK4    C1049444   7.351   1.725   9.618 -0.0383  0.2660  0.3083
  589HK4     O149445   7.362   1.807   9.527  0.2078 -0.0404  0.0612
  589HK4    C1649446   7.139   1.602   9.416 -0.0800  0.1897  0.1970
  589HK4    C1549447   7.008   1.551   9.407 -0.1004  0.1394  0.7707
  589HK4     H749448   6.972   1.491   9.492  0.2955 -2.7103 -0.9830
  589HK4    C2049449   6.916   1.588   9.310  0.0492  0.2427  0.6671
  589HK4     H949450   6.829   1.523   9.296 -0.2979  1.2708 -2.4503
  589HK4    C1949451   6.947   1.695   9.226 -0.2561  0.0877  0.3556
  589HK4    C1849452   7.083   1.745   9.227 -0.0855 -0.3479 -0.3865
  589HK4    C1749453   7.173   1.700   9.322 -0.3094  0.1443  0.0658
  589HK4     H849454   7.278   1.722   9.302 -0.2845 -0.3091 -0.3208
  589HK4     N149455   7.098   1.857   9.142 -0.4529 -0.2235 -0.2923
  589HK4    C2149456   6.971   1.879   9.086 -0.4321  0.1744 -0.1854
  589HK4    C2249457   6.874   1.786   9.141 -0.0861 -0.0304  0.0825
  589HK4    C2649458   6.738   1.812   9.129 -0.0465  0.1454  0.0179
  589HK4    H1349459   6.667   1.753   9.186  0.3247 -0.6637 -0.3613
  589HK4    C2549460   6.698   1.927   9.060 -0.1512  0.4380  0.5663
  589HK4    H1249461   6.592   1.951   9.061  0.0903  1.5394  0.6604
  589HK4    C2449462   6.790   2.019   9.012 -0.0197  0.1020  0.1751
  589HK4    H1149463   6.751   2.115   8.976 -0.3442  0.1041  0.5271
  589HK4    C2349464   6.926   1.994   9.022  0.0559  0.3418 -0.2299
  589HK4    H1049465   6.997   2.060   8.972 -0.0186  0.4460 -0.1940
  589HK4    C3949466   7.219   1.905   9.090 -0.1896 -0.4477  0.1039
  589HK4    C4149467   7.252   2.040   9.066 -0.1787 -0.4957 -0.1496
  589HK4    H2149468   7.178   2.117   9.096  0.4333  1.3589 -3.1572
  589HK4    C4249469   7.366   2.087   9.002 -0.0488 -0.1915  0.3013
  589HK4    H2249470   7.377   2.194   8.982 -1.2821 -0.1416 -0.1375
  589HK4    C4349471   7.469   2.000   8.968 -0.0909 -0.2059  0.2114
  589HK4    H2349472   7.542   2.029   8.893  1.1104 -0.0336  1.4429
  589HK4    C4449473   7.441   1.867   8.999  0.0061 -0.0682  0.8944
  589HK4    H2449474   7.525   1.797   9.008  1.4364  1.7546  2.0679
  589HK4    C4549475   7.322   1.818   9.051 -0.2831 -0.4540 -0.1260
  589HK4    H2549476   7.305   1.709   9.060  0.2923 -0.6537 -1.2394
  590HK4    H2849477  10.298   7.866  10.278 -0.3946 -0.0207  0.0802
  590HK4    C4849478  10.330   7.762  10.275  0.3586  0.2074  0.0549
  590HK4    C4749479  10.268   7.664  10.199  0.3309  0.1587  0.1392
  590HK4    H2749480  10.191   7.688  10.123  0.1071 -2.0156 -0.3821
  590HK4    C4649481  10.321   7.535  10.192  0.1751  0.0878  0.2472
  590HK4    H2649482  10.270   7.465  10.124  1.6032  0.2549 -1.0259
  590HK4    C4049483  10.438   7.499  10.261 -0.1834 -0.5590  0.5113
  590HK4    C5049484  10.497   7.601  10.338 -0.6365  0.1279 -0.0373
  590HK4    H3049485  10.544   7.558  10.428 -2.4035 -0.8508  0.4393
  590HK4    C4949486  10.447   7.730  10.342  0.1699  0.4281  0.4915
  590HK4    H2949487  10.496   7.809  10.401  1.6697 -1.7732  2.2692
  590HK4     N249488  10.486   7.368  10.253  0.3408 -0.3509  0.2595
  590HK4    C3049489  10.419   7.261  10.191  0.4545 -0.0502 -0.3803
  590HK4    C2949490  10.295   7.204  10.218  0.0809  0.8123 -0.2645
  590HK4    H1549491  10.234   7.249  10.297  0.3163 -0.1306  0.4722
  590HK4    C2849492  10.252   7.078  10.178  0.6074  0.3254  0.6613
  590HK4    C2749493  10.334   6.999  10.094 -0.2838 -0.3157  0.3889
  590HK4    H1449494  10.308   6.899  10.058 -0.1898 -1.0369  2.2729
  590HK4    C3249495  10.459   7.052  10.065 -0.0780 -0.6439  0.6680
  590HK4    H1649496  10.520   7.000   9.990 -2.1131  1.1978 -2.4023
  590HK4    C3149497  10.508   7.168  10.124  0.2084 -0.0233 -0.7458
  590HK4    C3449498  10.640   7.214  10.160  0.0645 -0.3922  0.3007
  590HK4    C3349499  10.623   7.336  10.236  0.3598  0.0278 -0.2961
  590HK4    C3549500  10.733   7.382  10.308  0.1586  0.2823 -0.1587
  590HK4    H1749501  10.718   7.463  10.380  0.5517 -0.7514  1.0898
  590HK4    C3649502  10.856   7.320  10.300 -0.0122 -0.1036  0.1617
  590HK4    H1849503  10.942   7.366  10.351  1.2218 -2.7939  0.6588
  590HK4    C3749504  10.872   7.201  10.229  0.0595 -0.1280  0.2204
  590HK4    H1949505  10.943   7.125  10.262 -0.4552 -1.5677 -1.9023
  590HK4    C3849506  10.764   7.150  10.159  0.4628  0.3630 -0.7767
  590HK4    H2049507  10.778   7.075  10.082  1.9697  0.1597 -0.3157
  590HK4    C1449508  10.134   7.021  10.244  0.2672  0.2402 -0.0143
  590HK4     C949509  10.125   6.883  10.264  0.2231  0.2699  0.1812
  590HK4     C849510  10.000   6.820  10.252  0.1575  0.4469 -0.0635
  590HK4    C1149511   9.886   6.893  10.217 -0.2429 -0.2305 -0.1874
  590HK4     H449512   9.794   6.836  10.199  0.3104 -0.7644 -1.4377
  590HK4    C1249513   9.891   7.032  10.211  0.1940 -0.2340  0.0541
  590HK4     H549514   9.800   7.092  10.201  2.0773  2.7907  0.2386
  590HK4    C1349515  10.015   7.094  10.224  0.0656 -0.0149  0.2427
  590HK4     H649516  10.013   7.204  10.216  0.6935 -0.0531 -0.5396
  590HK4     C749517   9.983   6.674  10.271  0.5417  0.4492  0.2895
  590HK4     O249518   9.875   6.627  10.306  0.4560  0.0002 -0.5595
  590HK4     C449519  10.103   6.591  10.296  0.2166 -0.1182 -0.0354
  590HK4     C349520  10.100   6.453  10.284  0.4765 -0.0575 -0.8155
  590HK4     H349521  10.004   6.402  10.269  0.9632 -1.8421  1.7425
  590HK4     C249522  10.211   6.372  10.306  0.0455 -0.6010 -0.6175
  590HK4     H249523  10.210   6.273  10.259  1.4072 -1.1603  0.5107
  590HK4     C149524  10.333   6.436  10.330 -0.4300  0.0168  0.1698
  590HK4     H149525  10.425   6.378  10.346 -1.5047 -1.8667 -0.2055
  590HK4     C649526  10.343   6.576  10.333 -0.0278 -0.0136  0.2312
  590HK4     C549527  10.227   6.654  10.319  0.0751  0.1136  0.1197
  590HK4    C1049528  10.240   6.802  10.315  0.1981  0.0980 -0.0363
  590HK4     O149529  10.304   6.855  10.405  0.0821  0.2861 -0.0661
  590HK4    C1649530  10.470   6.620  10.273 -0.1839  0.0204 -0.0818
  590HK4    C1549531  10.527   6.561  10.158  0.0338  0.3464 -0.1426
  590HK4     H749532  10.451   6.534  10.084  0.2403 -1.6016  0.3358
  590HK4    C2049533  10.662   6.579  10.131 -0.0019  0.4170 -0.2771
  590HK4     H949534  10.710   6.535  10.043  1.1099  0.0421  0.5072
  590HK4    C1949535  10.739   6.660  10.212 -0.3389  0.8374 -0.3726
  590HK4    C1849536  10.677   6.729  10.324 -0.1536 -0.0214  0.2577
  590HK4    C1749537  10.546   6.697  10.360 -0.2667  0.0820 -0.0657
  590HK4     H849538  10.521   6.721  10.463 -2.8153  0.9987 -0.8586
  590HK4     N149539  10.770   6.806  10.396  0.1782 -0.3745  0.2082
  590HK4    C2149540  10.896   6.785  10.335  0.1137  0.2432 -0.1432
  590HK4    C2249541  10.879   6.699  10.220 -0.0324 -0.4170  0.3692
  590HK4    C2649542  10.989   6.674  10.139 -0.7622 -0.6559 -0.5553
  590HK4    H1349543  10.968   6.635  10.040  1.8897  0.7786 -1.7208
  590HK4    C2549544  11.117   6.719  10.169 -1.0814 -0.1443  0.0453
  590HK4    H1249545  11.201   6.673  10.116  0.2776 -0.0892  2.0899
  590HK4    C2449546  11.130   6.797  10.284 -0.1635 -0.2414  0.0142
  590HK4    H1149547  11.230   6.840  10.299  1.1677 -2.6866 -1.4897
  590HK4    C2349548  11.023   6.831  10.366  0.0800  0.1241  0.1747
  590HK4    H1049549  11.035   6.893  10.455  2.0599  0.8002 -0.5407
  590HK4    C3949550  10.749   6.898  10.500 -0.3566 -0.0459 -0.1910
  590HK4    C4149551  10.831   6.910  10.614 -0.3498 -0.1183 -0.1882
  590HK4    H2149552  10.915   6.840  10.628  0.9929  1.0967 -1.7741
  590HK4    C4249553  10.809   7.012  10.705  0.3642  0.2783 -0.4552
  590HK4    H2249554  10.863   7.017  10.801  1.6589 -0.5273 -1.1188
  590HK4    C4349555  10.722   7.116  10.674  0.0064  0.0293 -0.2778
  590HK4    H2349556  10.724   7.207  10.734 -1.4205  0.5058 -0.9154
  590HK4    C4449557  10.637   7.110  10.564 -0.5051  0.0915  0.1100
  590HK4    H2449558  10.599   7.205  10.524 -0.5817 -0.6670 -1.6446
  590HK4    C4549559  10.652   6.999  10.482 -0.0515  0.2725 -0.0555
  590HK4    H2549560  10.583   6.979  10.399  1.1228  1.5347 -1.3461
  591HK4    H2849561   7.362   8.462   8.564 -0.3896  0.0859  0.0482
  591HK4    C4849562   7.420   8.529   8.628 -0.1637 -0.1173  0.0583
  591HK4    C4749563   7.544   8.491   8.676 -0.1506 -0.0493  0.0823
  591HK4    H2749564   7.587   8.389   8.678 -1.2162 -0.4774  2.5845
  591HK4    C4649565   7.619   8.589   8.740 -0.1330 -0.2104  0.3094
  591HK4    H2649566   7.724   8.570   8.769  0.1091  1.9381  0.9358
  591HK4    C4049567   7.573   8.718   8.773  0.0263 -0.1539  0.3124
  591HK4    C5049568   7.440   8.746   8.735 -0.0085 -0.5809  0.1133
  591HK4    H3049569   7.381   8.824   8.785  0.8801  0.4021 -0.3484
  591HK4    C4949570   7.367   8.652   8.664 -0.3471 -0.1501 -0.1120
  591HK4    H2949571   7.257   8.665   8.658 -0.5966 -1.8591  0.5314
  591HK4     N249572   7.647   8.814   8.842 -0.2270 -0.0663  0.4654
  591HK4    C3049573   7.760   8.789   8.923 -0.0648  0.8489  0.5271
  591HK4    C2949574   7.799   8.673   8.990  0.1007  0.8557  0.4475
  591HK4    H1549575   7.741   8.581   8.981  2.4909 -0.6431 -0.1787
  591HK4    C2849576   7.913   8.676   9.068  0.1414 -0.4272  0.4473
  591HK4    C2749577   7.991   8.794   9.069 -0.2628 -0.1551  0.1568
  591HK4    H1449578   8.073   8.799   9.142 -0.5814  0.2039  0.4901
  591HK4    C3249579   7.959   8.911   9.003  0.3213 -0.0619  0.0402
  591HK4    H1649580   8.039   8.979   8.972  0.0999 -0.6846 -1.9805
  591HK4    C3149581   7.836   8.911   8.938  0.6362  0.5559 -0.5680
  591HK4    C3449582   7.762   9.014   8.869  0.2580  0.3020 -0.5422
  591HK4    C3349583   7.646   8.951   8.808 -0.2176 -0.0133  0.6745
  591HK4    C3549584   7.558   9.029   8.734 -0.0102 -0.0852  0.3535
  591HK4    H1749585   7.504   8.990   8.648  1.5997  1.6709 -1.4792
  591HK4    C3649586   7.575   9.166   8.729  0.3644 -0.1554 -0.4781
  591HK4    H1849587   7.505   9.223   8.666  1.4507  0.0763 -1.4908
  591HK4    C3749588   7.690   9.227   8.779 -0.3563  0.6161  0.2434
  591HK4    H1949589   7.705   9.335   8.769 -2.7386  1.0862  1.2216
  591HK4    C3849590   7.778   9.152   8.855 -0.2332  0.4071 -0.1091
  591HK4    H2049591   7.871   9.194   8.892  0.1877 -1.2194  0.7546
  591HK4    C1449592   7.932   8.572   9.171 -0.0891 -0.6991  0.2130
  591HK4     C949593   7.983   8.594   9.300 -0.4317 -0.1037  0.2526
  591HK4     C849594   8.064   8.498   9.364 -0.3889  0.0178  0.3785
  591HK4    C1149595   8.071   8.373   9.303 -0.5474  0.0721  0.2465
  591HK4     H449596   8.136   8.298   9.352 -0.4616 -1.2077 -1.7896
  591HK4    C1249597   8.017   8.341   9.179  0.1126 -0.0755 -0.0010
  591HK4     H549598   8.023   8.242   9.132  1.7593 -0.3146  0.6625
  591HK4    C1349599   7.950   8.444   9.114  0.0464 -0.3931 -0.4448
  591HK4     H649600   7.931   8.424   9.008  0.2877  0.4618 -0.6526
  591HK4     C749601   8.134   8.519   9.492  0.0894  0.2176  0.0884
  591HK4     O249602   8.239   8.459   9.513 -0.2420 -0.1679  0.6491
  591HK4     C449603   8.107   8.646   9.564 -0.0513 -0.1300  0.6482
  591HK4     C349604   8.172   8.668   9.685  0.4873 -0.0598  0.3442
  591HK4     H349605   8.265   8.614   9.707  1.0321  0.5149 -0.5404
  591HK4     C249606   8.140   8.774   9.769 -0.4031  0.3342 -0.4777
  591HK4     H249607   8.182   8.788   9.870  0.8210 -1.8761 -0.6529
  591HK4     C149608   8.065   8.875   9.710  0.0904  0.7569 -0.3739
  591HK4     H149609   8.066   8.973   9.760 -1.5205  1.4501 -1.6501
  591HK4     C649610   8.003   8.862   9.584 -0.2054  0.1055 -0.1610
  591HK4     C549611   8.018   8.743   9.512  0.4267  0.0176  0.1143
  591HK4    C1049612   7.952   8.714   9.382  0.0795 -0.0026  0.2932
  591HK4     O149613   7.837   8.755   9.368  0.0080 -0.3188 -0.0441
  591HK4    C1649614   8.003   8.990   9.511  0.2510  0.0411 -0.2794
  591HK4    C1549615   8.111   9.079   9.523  0.2513  0.1007 -0.7905
  591HK4     H749616   8.208   9.029   9.537 -0.1315 -1.7142 -3.9760
  591HK4    C2049617   8.092   9.215   9.501  0.1335  0.1362 -0.4826
  591HK4     H949618   8.173   9.286   9.516  2.2657 -2.1404 -0.9466
  591HK4    C1949619   7.966   9.269   9.475  0.0202  0.1882  0.1802
  591HK4    C1849620   7.857   9.178   9.448  0.2357  0.2611 -0.9599
  591HK4    C1749621   7.881   9.042   9.470  0.2988  0.4359  0.0790
  591HK4     H849622   7.795   8.976   9.465  1.5091 -1.1168 -0.6288
  591HK4     N149623   7.742   9.248   9.407 -0.2432 -0.1685 -0.3661
  591HK4    C2149624   7.777   9.385   9.412 -0.0401 -0.2433  0.5557
  591HK4    C2249625   7.913   9.403   9.458 -0.0672  0.1913  0.4665
  591HK4    C2649626   7.982   9.524   9.457  0.4100 -0.0782 -0.0203
  591HK4    H1349627   8.079   9.542   9.504  0.8460  0.1365 -0.9983
  591HK4    C2549628   7.911   9.632   9.407  0.4807  0.0056  0.0691
  591HK4    H1249629   7.961   9.728   9.393 -0.4162  0.3711 -0.7025
  591HK4    C2449630   7.779   9.620   9.366  0.3388  0.3035  0.4320
  591HK4    H1149631   7.722   9.712   9.346  0.0232  0.2230  0.9507
  591HK4    C2349632   7.712   9.498   9.364  0.6781  0.1184  0.4397
  591HK4    H1049633   7.622   9.489   9.302  1.5130 -0.7684 -0.6758
  591HK4    C3949634   7.633   9.200   9.334 -0.5841 -0.2126  0.1660
  591HK4    C4149635   7.506   9.261   9.340 -0.2567  0.5035 -0.1575
  591HK4    H2149636   7.483   9.303   9.439  0.4846 -0.2348  0.3333
  591HK4    C4249637   7.407   9.227   9.249 -0.1503 -0.0623 -0.0666
  591HK4    H2249638   7.306   9.272   9.249  0.6514  1.7613 -1.4098
  591HK4    C4349639   7.440   9.131   9.154  0.1954  0.3001 -0.3074
  591HK4    H2349640   7.354   9.116   9.089 -0.4282  1.9310  0.1000
  591HK4    C4449641   7.566   9.074   9.143  0.2734  0.4584 -0.2487
  591HK4    H2449642   7.568   8.982   9.084 -2.5080 -1.7888  2.9139
  591HK4    C4549643   7.668   9.111   9.230 -0.0271 -0.3515  0.4687
  591HK4    H2549644   7.770   9.078   9.206 -0.1078 -0.2054 -0.1022
  592HK4    H2849645   1.011  10.029   4.023 -1.9060 -2.3976 -1.9732
  592HK4    C4849646   1.071   9.945   4.055  0.0917 -0.3199 -0.0514
  592HK4    C4749647   1.110   9.941   4.188 -0.2633 -0.2137  0.0592
  592HK4    H2749648   1.053  10.003   4.259 -2.1354 -0.7424 -0.9805
  592HK4    C4649649   1.177   9.827   4.231 -0.2076 -0.2757 -0.2001
  592HK4    H2649650   1.204   9.819   4.338 -1.8965 -2.3759  0.1140
  592HK4    C4049651   1.207   9.714   4.151  0.1512 -0.3562  0.0382
  592HK4    C5049652   1.168   9.729   4.016 -0.1880  0.2828  0.2047
  592HK4    H3049653   1.189   9.649   3.944  0.9367 -1.3604  2.2956
  592HK4    C4949654   1.101   9.841   3.968 -0.3674 -0.1072 -0.4591
  592HK4    H2949655   1.049   9.828   3.872 -1.5604 -0.2401  0.1969
  592HK4     N249656   1.265   9.603   4.212  0.3915 -0.1036  0.2683
  592HK4    C3049657   1.335   9.499   4.146  0.1186  0.0429 -0.2579
  592HK4    C2949658   1.389   9.497   4.018  0.0395  0.5062 -0.3005
  592HK4    H1549659   1.386   9.591   3.962 -1.2549  0.0982 -0.9376
  592HK4    C2849660   1.433   9.379   3.959 -0.6337  0.0552  0.0912
  592HK4    C2749661   1.427   9.265   4.042 -0.0687 -0.5248 -0.6534
  592HK4    H1449662   1.440   9.164   4.000 -2.4566 -1.0405 -0.2019
  592HK4    C3249663   1.389   9.265   4.176 -0.1757  0.5040 -0.6729
  592HK4    H1649664   1.372   9.168   4.224  0.1924 -0.2796 -2.0880
  592HK4    C3149665   1.342   9.383   4.232  0.1684  0.2895  0.0730
  592HK4    C3449666   1.282   9.418   4.359  0.7538  0.6525  0.2495
  592HK4    C3349667   1.224   9.548   4.335 -0.4849  0.0668  0.0527
  592HK4    C3549668   1.149   9.602   4.439 -0.0495  0.4160  0.1846
  592HK4    H1749669   1.082   9.685   4.419  0.2462  0.5427 -0.2954
  592HK4    C3649670   1.137   9.534   4.559  0.5490 -0.0122  0.0066
  592HK4    H1849671   1.059   9.565   4.631 -0.0488 -1.2762 -0.0858
  592HK4    C3749672   1.189   9.406   4.575  0.7154  0.0652  0.0900
  592HK4    H1949673   1.168   9.344   4.662  0.9072 -0.4613 -0.2396
  592HK4    C3849674   1.266   9.345   4.477  0.7481  0.2488  0.0001
  592HK4    H2049675   1.306   9.243   4.480  0.9477  0.3244 -0.0412
  592HK4    C1449676   1.415   9.364   3.814 -0.0589  0.8221 -0.0658
  592HK4     C949677   1.340   9.258   3.762  0.3473  0.5164 -0.0266
  592HK4     C849678   1.385   9.180   3.653  0.3157  0.3557  0.0734
  592HK4    C1149679   1.502   9.223   3.592  0.5057 -0.3020 -0.0245
  592HK4     H449680   1.535   9.167   3.503  2.8207 -1.9507  1.8332
  592HK4    C1249681   1.573   9.337   3.627 -0.4455  0.2191  0.2159
  592HK4     H549682   1.665   9.367   3.575  0.3005  1.4202  2.1338
  592HK4    C1349683   1.527   9.405   3.740  0.1315  0.7055  0.1581
  592HK4     H649684   1.575   9.502   3.759  0.5380  0.2290  1.6478
  592HK4     C749685   1.302   9.071   3.597  0.1393  0.4681  0.1103
  592HK4     O249686   1.325   9.027   3.484 -0.2097  0.1250  0.1735
  592HK4     C449687   1.175   9.034   3.663  0.0391  0.1705 -0.2510
  592HK4     C349688   1.096   8.936   3.602  0.1285  0.0434 -0.1643
  592HK4     H349689   1.119   8.902   3.500 -0.7160  1.7818 -0.9704
  592HK4     C249690   0.988   8.888   3.674 -0.0005  0.2088 -0.2463
  592HK4     H249691   0.914   8.823   3.626 -1.7424  0.7941  1.5795
  592HK4     C149692   0.962   8.936   3.802  0.5061 -0.2436  0.0317
  592HK4     H149693   0.869   8.901   3.849  0.8136  0.4818  1.2249
  592HK4     C649694   1.039   9.036   3.865  0.1431  0.1545 -0.1564
  592HK4     C549695   1.138   9.094   3.785  0.0221  0.2012 -0.2718
  592HK4    C1049696   1.207   9.222   3.818  0.3803  0.0112 -0.2716
  592HK4     O149697   1.139   9.321   3.843  0.8824  0.1151  0.7109
  592HK4    C1649698   1.002   9.069   4.004  0.0938  0.3491 -0.2149
  592HK4    C1549699   1.101   9.107   4.097 -0.1586  0.3944  0.0376
  592HK4     H749700   1.203   9.124   4.059 -0.1305 -0.9163 -0.5097
  592HK4    C2049701   1.080   9.143   4.229  0.0576  0.0912  0.1556
  592HK4     H949702   1.154   9.201   4.285 -1.1822  0.2835  1.6114
  592HK4    C1949703   0.952   9.152   4.281 -0.0645 -0.2891 -0.0873
  592HK4    C1849704   0.847   9.129   4.183 -0.1972  0.1545 -0.0495
  592HK4    C1749705   0.874   9.088   4.053  0.1548  0.1509  0.0236
  592HK4     H849706   0.789   9.084   3.985 -0.2129 -0.2254  0.5005
  592HK4     N149707   0.720   9.161   4.236 -0.4936 -0.3705 -0.4399
  592HK4    C2149708   0.742   9.219   4.362 -0.2892  0.3333 -0.7952
  592HK4    C2249709   0.884   9.215   4.392 -0.3658  0.0571 -0.4638
  592HK4    C2649710   0.928   9.268   4.513 -0.9262  0.1259 -0.2923
  592HK4    H1349711   1.015   9.219   4.557 -0.9580  0.3224 -0.0127
  592HK4    C2549712   0.843   9.346   4.591  0.0029  0.5219  0.3332
  592HK4    H1249713   0.879   9.423   4.659 -0.2190  0.0409  0.9996
  592HK4    C2449714   0.708   9.356   4.559  0.0587 -0.4054 -0.2262
  592HK4    H1149715   0.640   9.408   4.629  0.2838 -1.3883  0.7387
  592HK4    C2349716   0.659   9.292   4.446 -0.2705 -0.5321 -0.0109
  592HK4    H1049717   0.551   9.293   4.435 -0.4038  0.2751  1.3061
  592HK4    C3949718   0.607   9.080   4.215 -0.2919 -0.6848 -0.3156
  592HK4    C4149719   0.483   9.146   4.223 -0.0090 -0.2559  0.5750
  592HK4    H2149720   0.481   9.254   4.201  0.5178 -0.3521  0.0429
  592HK4    C4249721   0.363   9.076   4.225 -0.1850  0.0336  0.2725
  592HK4    H2249722   0.269   9.126   4.250  0.6791  0.7557  2.1842
  592HK4    C4349723   0.373   8.937   4.218 -0.2081  0.0867 -0.8934
  592HK4    H2349724   0.285   8.875   4.230  0.4256 -0.6099  0.1770
  592HK4    C4449725   0.495   8.871   4.208  0.1406  0.7294 -0.9480
  592HK4    H2449726   0.495   8.762   4.192  0.0808  1.0778 -3.4742
  592HK4    C4549727   0.615   8.940   4.222  0.8390 -0.6214 -0.1661
  592HK4    H2549728   0.713   8.889   4.217  0.7809 -0.7665  0.1483
  593HK4    H2849729   6.730   2.772   9.619  0.5567 -0.6161  0.0789
  593HK4    C4849730   6.669   2.707   9.556 -0.1537 -0.3987  0.5312
  593HK4    C4749731   6.555   2.646   9.606 -0.3055 -0.3552  0.2368
  593HK4    H2749732   6.548   2.636   9.716  1.4949 -0.0641  0.3884
  593HK4    C4649733   6.464   2.578   9.525  0.0391 -0.3726 -0.1289
  593HK4    H2649734   6.380   2.527   9.573 -2.3349  3.7207  0.3100
  593HK4    C4049735   6.484   2.577   9.385 -0.3773 -0.1640 -0.1939
  593HK4    C5049736   6.593   2.649   9.331 -0.0447  0.0251  0.7208
  593HK4    H3049737   6.597   2.667   9.223 -3.2924 -0.3325  0.4821
  593HK4    C4949738   6.684   2.708   9.418  0.0907  0.0533  0.5575
  593HK4    H2949739   6.780   2.736   9.373 -1.1435  1.8417 -1.0352
  593HK4     N249740   6.390   2.519   9.300 -0.2422 -0.2547 -0.2785
  593HK4    C3049741   6.254   2.492   9.326 -0.3659 -0.0998 -0.7500
  593HK4    C2949742   6.169   2.559   9.412  0.3221  0.0551 -0.1865
  593HK4    H1549743   6.210   2.649   9.458 -0.4688  0.5495 -0.4422
  593HK4    C2849744   6.035   2.523   9.417  0.4585 -0.4462 -0.1394
  593HK4    C2749745   5.983   2.427   9.328  0.1612 -0.0099 -0.4378
  593HK4    H1449746   5.876   2.402   9.333  0.3174 -0.9546 -1.5335
  593HK4    C3249747   6.071   2.352   9.250 -0.2582 -0.7063 -0.2502
  593HK4    H1649748   6.029   2.285   9.175 -2.6081 -0.0603  0.4443
  593HK4    C3149749   6.207   2.379   9.248 -0.2803 -0.5801 -0.1176
  593HK4    C3449750   6.321   2.336   9.168 -0.1574 -0.3005 -0.0920
  593HK4    C3349751   6.430   2.425   9.203 -0.2531 -0.0129 -0.5198
  593HK4    C3549752   6.550   2.412   9.134  0.3687  0.1444  0.5124
  593HK4    H1749753   6.646   2.458   9.157  1.2661 -0.5100 -1.7966
  593HK4    C3649754   6.563   2.315   9.034 -0.7216  0.5394 -0.0251
  593HK4    H1849755   6.664   2.294   8.995  0.2085  4.2810  0.1641
  593HK4    C3749756   6.455   2.236   8.997 -0.0696 -0.4450  0.1527
  593HK4    H1949757   6.463   2.171   8.911 -1.9534  1.2458 -1.3466
  593HK4    C3849758   6.332   2.249   9.061 -0.3816  0.3007 -0.6048
  593HK4    H2049759   6.252   2.177   9.041 -1.0270  0.6824  0.5398
  593HK4    C1449760   5.960   2.559   9.538 -0.3123  0.3856 -0.8536
  593HK4     C949761   5.864   2.480   9.603  0.3848  0.5800  0.4411
  593HK4     C849762   5.750   2.540   9.661 -0.3522  0.2542 -0.6514
  593HK4    C1149763   5.749   2.677   9.681  0.2234  0.1705 -0.0379
  593HK4     H449764   5.678   2.722   9.752  0.0736  1.9715 -1.2792
  593HK4    C1249765   5.855   2.754   9.632  0.5445  0.3861  0.9790
  593HK4     H549766   5.856   2.863   9.645 -0.7838  0.2934  1.9063
  593HK4    C1349767   5.958   2.698   9.556 -0.3406  0.3015 -0.1948
  593HK4     H649768   6.047   2.758   9.532 -0.7423  1.4123  0.9920
  593HK4     C749769   5.629   2.457   9.681 -0.0357 -0.0581 -0.0143
  593HK4     O249770   5.528   2.511   9.726 -0.0696 -0.1021 -0.0403
  593HK4     C449771   5.624   2.322   9.622 -0.0715  0.1938 -0.5929
  593HK4     C349772   5.505   2.250   9.616 -0.5874  0.9686  0.2204
  593HK4     H349773   5.411   2.286   9.661  0.4925  1.8592  1.7785
  593HK4     C249774   5.502   2.118   9.572  0.6507  1.0780 -0.2079
  593HK4     H249775   5.408   2.062   9.583  1.5172 -0.1099  1.3377
  593HK4     C149776   5.619   2.064   9.520 -0.2074  0.1333 -1.1826
  593HK4     H149777   5.620   1.956   9.500 -0.4716 -0.1037  0.0634
  593HK4     C649778   5.743   2.131   9.518 -0.2078  0.1758 -0.0172
  593HK4     C549779   5.741   2.257   9.577  0.3067 -0.3217  1.0861
  593HK4    C1049780   5.869   2.331   9.593 -0.0683  0.5975 -0.0855
  593HK4     O149781   5.955   2.281   9.666 -0.0073 -0.1477 -0.6585
  593HK4    C1649782   5.836   2.094   9.410  0.2692  0.4694  0.2872
  593HK4    C1549783   5.780   2.042   9.292  0.3289 -0.0620  0.4902
  593HK4     H749784   5.672   2.061   9.281  0.3797 -0.8426 -1.7893
  593HK4    C2049785   5.856   1.978   9.195  0.0175  0.1857  0.0827
  593HK4     H949786   5.815   1.953   9.097 -0.6301  1.9191 -0.0956
  593HK4    C1949787   5.992   1.964   9.222 -0.1140 -0.4493  0.4181
  593HK4    C1849788   6.052   2.007   9.346  0.5004 -0.0716 -0.0093
  593HK4    C1749789   5.969   2.068   9.440  0.3113  0.0496 -0.2536
  593HK4     H849790   5.989   2.078   9.547 -3.6110  2.9604  0.2953
  593HK4     N149791   6.192   1.990   9.341  0.4981 -0.1071  0.0204
  593HK4    C2149792   6.224   1.941   9.212  0.2514 -0.6296  0.1520
  593HK4    C2249793   6.101   1.911   9.142  0.0039 -0.1204  0.3672
  593HK4    C2649794   6.106   1.844   9.020  0.7465  1.0054 -0.2382
  593HK4    H1349795   6.018   1.839   8.956  2.2003 -1.7881 -2.1192
  593HK4    C2549796   6.227   1.804   8.964  0.5598 -0.3198  0.2891
  593HK4    H1249797   6.227   1.717   8.899 -1.6899 -0.4345  0.3785
  593HK4    C2449798   6.345   1.841   9.027  0.8824 -0.6331 -0.1403
  593HK4    H1149799   6.441   1.803   8.988  0.9099 -1.2198  0.4967
  593HK4    C2349800   6.343   1.911   9.147  0.0492 -0.0146 -0.5049
  593HK4    H1049801   6.429   1.976   9.168 -2.4215  3.4090 -0.5693
  593HK4    C3949802   6.289   2.020   9.437  0.0383 -0.5529  0.6298
  593HK4    C4149803   6.420   1.968   9.425  0.2178 -0.1220  0.7132
  593HK4    H2149804   6.438   1.861   9.406  2.3872  0.5378 -1.2077
  593HK4    C4249805   6.530   2.038   9.472  0.0908  0.3548  0.2987
  593HK4    H2249806   6.625   1.983   9.483  1.5964  2.0641 -3.1492
  593HK4    C4349807   6.512   2.162   9.532 -0.1374  0.0127  0.9412
  593HK4    H2349808   6.599   2.226   9.545  1.2927 -1.7530  0.2153
  593HK4    C4449809   6.384   2.208   9.561 -0.2577  0.0371  0.3888
  593HK4    H2449810   6.370   2.300   9.620  1.9155 -1.0969  2.7732
  593HK4    C4549811   6.275   2.137   9.513  0.0199 -0.5052  0.5497
  593HK4    H2549812   6.174   2.181   9.516 -0.3165 -1.2502  0.1617
  594HK4    H2849813   9.555   1.591   9.428 -0.8840 -0.1662 -0.6602
  594HK4    C4849814   9.540   1.538   9.522 -0.0600  0.1985 -0.3206
  594HK4    C4749815   9.441   1.440   9.523 -0.2254  0.3707  0.4974
  594HK4    H2749816   9.363   1.432   9.446  1.8748 -0.5612 -1.6080
  594HK4    C4649817   9.437   1.357   9.634 -0.4845  0.1263  0.3038
  594HK4    H2649818   9.362   1.278   9.620 -0.7859  0.4604  0.0373
  594HK4    C4049819   9.531   1.368   9.739  0.1650 -0.4335 -0.2053
  594HK4    C5049820   9.630   1.468   9.732 -0.8932  0.6904  0.5716
  594HK4    H3049821   9.696   1.487   9.818 -1.7033  2.0644  0.9131
  594HK4    C4949822   9.636   1.552   9.621 -0.3343 -0.1085 -0.0116
  594HK4    H2949823   9.714   1.629   9.616  0.6022 -0.9413  1.4135
  594HK4     N249824   9.488   1.316   9.862  0.4620  0.7571  0.4132
  594HK4    C3049825   9.361   1.296   9.919  0.3666  0.1621 -0.0045
  594HK4    C2949826   9.240   1.352   9.881 -0.0482 -0.3448  0.5685
  594HK4    H1549827   9.250   1.449   9.834  1.0815 -0.5098  0.4617
  594HK4    C2849828   9.125   1.315   9.951 -0.2743 -0.0163  0.3698
  594HK4    C2749829   9.130   1.226  10.060 -0.0682  0.3242  0.6390
  594HK4    H1449830   9.037   1.180  10.098 -0.1964  0.1514  0.1200
  594HK4    C3249831   9.254   1.179  10.102 -0.2035 -0.1343  0.5438
  594HK4    H1649832   9.256   1.112  10.188  0.1293 -0.3766  0.3438
  594HK4    C3149833   9.372   1.210  10.036 -0.6059 -0.3011 -0.2499
  594HK4    C3449834   9.510   1.170  10.049 -0.5187 -0.0206 -0.2711
  594HK4    C3349835   9.578   1.244   9.943  0.0956 -0.0686  0.0870
  594HK4    C3549836   9.711   1.215   9.919  0.0187  0.0552 -0.4995
  594HK4    H1749837   9.768   1.275   9.848  1.0271 -1.1992 -0.7735
  594HK4    C3649838   9.773   1.115   9.994  0.0680  0.2585 -0.2669
  594HK4    H1849839   9.879   1.091   9.980 -0.1891 -1.2894  0.3110
  594HK4    C3749840   9.706   1.050  10.097 -0.1978 -0.0034 -0.6021
  594HK4    H1949841   9.753   0.967  10.149  0.6248 -0.8516 -2.6777
  594HK4    C3849842   9.574   1.078  10.131 -0.0436  0.3195 -0.2554
  594HK4    H2049843   9.511   1.024  10.202 -2.2602  1.1400 -1.5298
  594HK4    C1449844   9.001   1.387   9.921 -0.2612 -0.2221 -0.1995
  594HK4     C949845   8.899   1.397  10.016 -0.1037 -0.0305 -0.0554
  594HK4     C849846   8.769   1.404   9.960 -0.0380  0.1254 -0.1926
  594HK4    C1149847   8.756   1.419   9.823 -0.2148 -0.7122 -0.2634
  594HK4     H449848   8.657   1.446   9.783  0.3348  0.8661 -0.5720
  594HK4    C1249849   8.858   1.415   9.729  0.0736  0.7122 -0.0066
  594HK4     H549850   8.844   1.443   9.624 -0.8936  1.3462  0.2869
  594HK4    C1349851   8.986   1.403   9.782  0.0851 -0.2134 -0.2354
  594HK4     H649852   9.077   1.389   9.722  1.4343  0.1354  1.6818
  594HK4     C749853   8.652   1.380  10.047  0.0536  0.0041 -0.1062
  594HK4     O249854   8.538   1.375  10.001  0.0450 -0.1351 -0.0735
  594HK4     C449855   8.683   1.349  10.188  0.1214 -0.9716 -0.3351
  594HK4     C349856   8.574   1.307  10.265 -0.1461  0.1030 -0.1277
  594HK4     H349857   8.509   1.229  10.224  0.0731  0.7082 -1.6689
  594HK4     C249858   8.571   1.317  10.403 -0.0632 -0.4100 -0.0916
  594HK4     H249859   8.499   1.259  10.464  0.2145 -1.1124 -0.4209
  594HK4     C149860   8.688   1.365  10.459 -0.0727 -0.2565 -0.2065
  594HK4     H149861   8.688   1.342  10.566 -0.6441 -3.5324 -0.8836
  594HK4     C649862   8.808   1.396  10.391 -0.0632  0.1488 -0.0055
  594HK4     C549863   8.803   1.386  10.252 -0.2777 -0.2976  0.0355
  594HK4    C1049864   8.920   1.414  10.163 -0.2310 -0.5252  0.0230
  594HK4     O149865   9.006   1.493  10.201 -0.0592 -0.8624  0.3362
  594HK4    C1649866   8.909   1.464  10.474 -0.1065  0.4654 -0.2056
  594HK4    C1549867   8.874   1.565  10.566 -0.9140 -0.2680  0.3053
  594HK4     H749868   8.770   1.589  10.593 -1.1005  0.7423 -1.2452
  594HK4    C2049869   8.972   1.615  10.651 -0.2652 -0.3934 -0.3668
  594HK4     H949870   8.943   1.689  10.726  0.9911  0.3239 -0.5756
  594HK4    C1949871   9.103   1.571  10.660 -0.1412  0.0088 -0.1945
  594HK4    C1849872   9.136   1.459  10.574 -0.2487 -0.0788 -0.1230
  594HK4    C1749873   9.038   1.416  10.485 -0.1965  0.2075 -0.3246
  594HK4     H849874   9.053   1.333  10.416 -0.7804  1.2468 -1.7225
  594HK4     N149875   9.266   1.410  10.599 -0.1644  0.1130 -0.1946
  594HK4    C2149876   9.318   1.483  10.707 -0.0540 -0.1832 -0.0482
  594HK4    C2249877   9.221   1.584  10.745  0.1281  0.1977 -0.5916
  594HK4    C2649878   9.247   1.674  10.847 -0.2099 -0.1959 -0.1527
  594HK4    H1349879   9.181   1.760  10.853 -2.8446 -2.2932  2.3664
  594HK4    C2549880   9.369   1.676  10.914 -0.1936 -0.2575 -0.1774
  594HK4    H1249881   9.399   1.746  10.992 -0.5165  2.8162 -2.6724
  594HK4    C2449882   9.465   1.585  10.872 -0.4912 -0.4580 -0.4205
  594HK4    H1149883   9.567   1.588  10.915  0.4453  0.4176 -2.6403
  594HK4    C2349884   9.444   1.498  10.766  0.4045  0.1382 -1.0928
  594HK4    H1049885   9.523   1.442  10.716  0.2529  0.4222 -1.6526
  594HK4    C3949886   9.350   1.367  10.495  0.3463  0.4655  0.0668
  594HK4    C4149887   9.452   1.275  10.526 -0.6095 -0.6611 -0.0849
  594HK4    H2149888   9.444   1.215  10.618  0.0589 -1.8448 -0.7904
  594HK4    C4249889   9.557   1.260  10.437  0.2989  0.4240  0.7908
  594HK4    H2249890   9.637   1.188  10.460 -1.1532 -1.5384 -0.1892
  594HK4    C4349891   9.561   1.342  10.325 -0.0921  0.8218  1.0672
  594HK4    H2349892   9.645   1.326  10.258 -2.3720  1.0734 -1.9366
  594HK4    C4449893   9.462   1.435  10.293 -0.4523 -0.1438 -0.6871
  594HK4    H2449894   9.480   1.496  10.204  2.1786 -0.2044 -0.2647
  594HK4    C4549895   9.352   1.444  10.377 -0.0069  0.1728 -0.1303
  594HK4    H2549896   9.272   1.508  10.335  0.2369 -0.6728 -1.9398
  595HK4    H2849897   4.345   0.015   4.572 -2.2009  0.0282 -2.0092
  595HK4    C4849898   4.288  11.216   4.653  0.6707  0.0790  0.1045
  595HK4    C4749899   4.231   0.042   4.756 -1.0201 -0.2677 -0.5626
  595HK4    H2749900   4.280   0.137   4.784 -2.3814 -0.4812  2.7836
  595HK4    C4649901   4.142  11.233   4.847 -0.2623  0.2501  0.5182
  595HK4    H2649902   4.076   0.042   4.914  0.8903  1.1199  0.9253
  595HK4    C4049903   4.112  11.096   4.839  0.5876  0.0878  0.0502
  595HK4    C5049904   4.171  11.023   4.734  0.0781 -0.2545 -0.0011
  595HK4    H3049905   4.165  10.913   4.723  1.3347 -0.4668  1.3215
  595HK4    C4949906   4.254  11.082   4.639 -0.2186  0.3056  0.0918
  595HK4    H2949907   4.291  11.025   4.553  0.8561  1.4114 -0.1911
  595HK4     N249908   4.055  11.017   4.940 -0.1247  0.5296 -0.0127
  595HK4    C3049909   4.051  11.039   5.079 -0.2203  0.3378  0.0169
  595HK4    C2949910   4.120  11.127   5.162  0.5608 -0.4574  0.2147
  595HK4    H1549911   4.218  11.154   5.121  0.3808 -0.7592 -0.4236
  595HK4    C2849912   4.077  11.163   5.289 -0.2423 -0.0566 -0.1726
  595HK4    C2749913   3.973  11.085   5.343 -0.6983  0.4187 -0.3515
  595HK4    H1449914   3.936  11.101   5.445 -1.2908 -1.5175 -0.2425
  595HK4    C3249915   3.909  10.986   5.269 -0.4163  0.0984 -0.1711
  595HK4    H1649916   3.855  10.911   5.326  0.2468  0.7190  1.2837
  595HK4    C3149917   3.941  10.964   5.135 -0.0523  0.0229 -0.0718
  595HK4    C3449918   3.883  10.882   5.031 -0.2695  0.1578 -0.0586
  595HK4    C3349919   3.960  10.916   4.913  0.1123  0.2476  0.2155
  595HK4    C3549920   3.921  10.851   4.796 -0.4614  0.3337  0.3552
  595HK4    H1749921   3.964  10.877   4.700 -3.1319  0.5273 -0.8170
  595HK4    C3649922   3.817  10.759   4.791 -0.2179  0.0767 -0.0710
  595HK4    H1849923   3.787  10.717   4.694 -2.0690 -0.9770  0.9409
  595HK4    C3749924   3.751  10.724   4.909 -0.1233  0.1227 -0.0047
  595HK4    H1949925   3.653  10.680   4.895 -0.3230  0.8444 -0.9670
  595HK4    C3849926   3.786  10.782   5.030  0.2386 -0.3437  0.1153
  595HK4    H2049927   3.724  10.763   5.117 -2.7130  0.1251 -1.8161
  595HK4    C1449928   4.121   0.040   5.353 -0.5421  0.1080 -0.2835
  595HK4     C949929   4.082   0.080   5.481  0.0963 -0.1727  0.0021
  595HK4     C849930   4.040   0.212   5.505  0.1041 -0.2045  0.1986
  595HK4    C1149931   4.067   0.309   5.409  0.0814 -0.2294  0.1668
  595HK4     H449932   4.014   0.405   5.410 -0.9914 -0.7386 -2.6614
  595HK4    C1249933   4.138   0.274   5.294  0.2548 -0.4014  0.3258
  595HK4     H549934   4.192   0.356   5.245  1.0149 -0.4330  1.0896
  595HK4    C1349935   4.163   0.140   5.264 -0.3329 -0.2969 -0.6426
  595HK4     H649936   4.240   0.122   5.187 -1.8903  0.6294 -2.4690
  595HK4     C749937   3.990   0.245   5.640  0.0893  0.1963  0.0966
  595HK4     O249938   3.917   0.343   5.654 -0.3442 -0.0941 -0.0904
  595HK4     C449939   4.010   0.150   5.752  0.2729  0.1219 -0.0012
  595HK4     C349940   3.949   0.171   5.875  0.2278  0.7807 -0.1344
  595HK4     H349941   3.886   0.260   5.887 -1.8035 -0.8249  1.3472
  595HK4     C249942   3.968   0.089   5.986  0.0088  0.0925 -0.6060
  595HK4     H249943   3.891   0.078   6.063  1.6275 -0.3824  0.9598
  595HK4     C149944   4.066  11.239   5.975 -0.3293 -0.3200  0.1216
  595HK4     H149945   4.100  11.195   6.070  0.0092 -1.9427 -0.7380
  595HK4     C649946   4.141  11.224   5.857  0.2039  0.7454  0.3223
  595HK4     C549947   4.098   0.041   5.741 -0.1644 -0.2219 -0.0855
  595HK4    C1049948   4.122  11.247   5.600  0.5895  0.0205 -0.0324
  595HK4     O149949   4.158  11.131   5.582  0.0287 -0.1578 -0.0192
  595HK4    C1649950   4.260  11.137   5.866  0.1208  0.7015  1.0530
  595HK4    C1549951   4.281  11.036   5.962 -0.1494  0.0135  0.3947
  595HK4     H749952   4.189  10.979   5.980 -0.7808  0.8717 -0.1111
  595HK4    C2049953   4.408  10.995   6.000 -0.0614  0.0517  0.1544
  595HK4     H949954   4.427  10.907   6.062  1.7381  0.0818 -0.3321
  595HK4    C1949955   4.520  11.063   5.954 -0.0319 -0.2717 -0.2396
  595HK4    C1849956   4.505  11.159   5.846 -0.0932 -0.1306 -0.1072
  595HK4    C1749957   4.375  11.190   5.809 -0.0911  0.2445  0.1922
  595HK4     H849958   4.375   0.013   5.726  0.2413 -2.0403 -1.8498
  595HK4     N149959   4.627  11.223   5.814  0.0410 -0.4545 -0.2433
  595HK4    C2149960   4.719  11.174   5.908 -0.0121 -0.8961 -0.4225
  595HK4    C2249961   4.657  11.079   5.999 -0.1848 -0.1898  0.2025
  595HK4    C2649962   4.736  11.009   6.089 -0.3634 -0.6709 -0.0108
  595HK4    H1349963   4.693  10.937   6.159  1.8474 -1.7465  0.3056
  595HK4    C2549964   4.874  11.030   6.090 -0.4502 -0.1176  0.0866
  595HK4    H1249965   4.944  10.969   6.146  0.5762  1.2358  0.2951
  595HK4    C2449966   4.932  11.129   6.012 -0.4234 -0.0361  0.2083
  595HK4    H1149967   5.039  11.149   6.025 -0.1915  0.9102 -2.6371
  595HK4    C2349968   4.855  11.199   5.919 -0.1724 -0.1589 -0.0906
  595HK4    H1049969   4.892   0.035   5.860  1.1437 -0.3661  0.4270
  595HK4    C3949970   4.663   0.007   5.683 -0.8872  1.0869 -0.1399
  595HK4    C4149971   4.769   0.094   5.650  0.2060 -0.0029  0.4588
  595HK4    H2149972   4.807   0.171   5.718  0.6773 -0.4483  0.7070
  595HK4    C4249973   4.805   0.107   5.516 -0.0108  0.3777  0.4387
  595HK4    H2249974   4.904   0.154   5.502 -1.0177  1.5320 -3.1480
  595HK4    C4349975   4.745   0.040   5.410  0.8789 -0.0204  0.1815
  595HK4    H2349976   4.776   0.057   5.307  0.4511  2.3999  0.4333
  595HK4    C4449977   4.637  11.208   5.443  0.7873 -0.0289 -0.1511
  595HK4    H2449978   4.579  11.155   5.365 -2.4091  1.1986  1.2925
  595HK4    C4549979   4.596  11.194   5.575  0.2252  0.1379 -0.3059
  595HK4    H2549980   4.524  11.112   5.588  1.0129 -0.3009  1.4676
  596HK4    H2849981  10.406   8.008   8.962  0.3972  2.0428 -0.8783
  596HK4    C4849982  10.303   8.037   8.983 -0.0173 -0.0542  0.1191
  596HK4    C4749983  10.239   8.112   8.884 -0.0469 -0.1867  0.0437
  596HK4    H2749984  10.281   8.112   8.783 -0.8721  2.7918 -0.3534
  596HK4    C4649985  10.121   8.181   8.907 -0.4004 -0.6815 -0.2712
  596HK4    H2649986  10.075   8.215   8.813  2.2290  1.1410 -0.9659
  596HK4    C4049987  10.061   8.185   9.034 -0.2144 -0.8743 -0.1774
  596HK4    C5049988  10.130   8.113   9.134  0.0174 -0.4384 -0.0169
  596HK4    H3049989  10.085   8.105   9.234 -0.8048 -0.8136 -0.4130
  596HK4    C4949990  10.250   8.046   9.111 -0.0750 -0.6610  0.1449
  596HK4    H2949991  10.322   8.033   9.192  1.4087 -0.7337 -1.1628
  596HK4     N249992   9.960   8.273   9.074  0.0586 -0.4081 -0.5179
  596HK4    C3049993   9.948   8.405   9.024 -0.3550 -0.2852 -0.1046
  596HK4    C2949994  10.036   8.484   8.951 -0.6073  0.0164 -0.0786
  596HK4    H1549995  10.122   8.430   8.911 -0.8626 -0.5084  0.0758
  596HK4    C2849996  10.006   8.614   8.913 -0.3887  0.1213  0.1127
  596HK4    C2749997   9.880   8.668   8.946 -0.5818 -0.2502 -0.0143
  596HK4    H1449998   9.851   8.764   8.899 -2.4616 -1.4808 -1.4669
  596HK4    C3249999   9.786   8.594   9.018 -0.6241 -0.3683 -0.1947
  596HK4    H1650000   9.685   8.633   9.033 -0.3635 -0.2044  1.1958
  596HK4    C3150001   9.823   8.468   9.061 -0.7216 -0.6004 -0.7823
  596HK4    C3450002   9.758   8.363   9.138 -0.0448 -0.2720  0.2389
  596HK4    C3350003   9.848   8.251   9.157 -0.0765 -0.4628 -0.7156
  596HK4    C3550004   9.797   8.148   9.234 -0.1269  0.0053 -0.1278
  596HK4    H1750005   9.830   8.049   9.203  1.3172  0.6121 -0.5249
  596HK4    C3650006   9.677   8.157   9.305 -0.1451  0.1052 -0.1709
  596HK4    H1850007   9.639   8.087   9.381 -0.4500  0.9122  0.4282
  596HK4    C3750008   9.592   8.265   9.285 -0.0932  0.2190  0.2207
  596HK4    H1950009   9.495   8.276   9.334  1.4002 -0.8549  3.5700
  596HK4    C3850010   9.633   8.364   9.197 -0.0249  0.2451  0.2809
  596HK4    H2050011   9.555   8.437   9.172 -0.2071  0.2474  0.8447
  596HK4    C1450012  10.108   8.699   8.851 -0.2013 -0.1885 -0.0014
  596HK4     C950013  10.122   8.837   8.867  0.3573 -0.2498  0.0496
  596HK4     C850014  10.168   8.921   8.763  1.3330 -0.1282  0.5617
  596HK4    C1150015  10.210   8.861   8.644 -0.2683 -0.1982  0.0147
  596HK4     H450016  10.235   8.917   8.553  0.7916  1.6497  1.3945
  596HK4    C1250017  10.217   8.723   8.633 -0.0512 -0.1871  0.0428
  596HK4     H550018  10.242   8.681   8.535 -2.1842 -2.5355  0.4711
  596HK4    C1350019  10.155   8.644   8.730 -0.2735 -0.1317 -0.0554
  596HK4     H650020  10.135   8.538   8.708  0.4771  0.1481 -2.2051
  596HK4     C750021  10.150   9.067   8.769  0.4069 -0.2096 -0.0886
  596HK4     O250022  10.231   9.131   8.703 -0.2999  0.1690 -0.5999
  596HK4     C450023  10.071   9.130   8.877  0.8217  0.3002 -0.0838
  596HK4     C350024  10.036   9.265   8.867 -0.7366 -0.0805  0.0162
  596HK4     H350025  10.067   9.320   8.777  0.1931 -1.2301 -0.3869
  596HK4     C250026   9.964   9.324   8.970 -0.8624 -0.1904 -0.0069
  596HK4     H250027   9.976   9.433   8.975 -0.4363 -0.2901  1.3201
  596HK4     C150028   9.929   9.246   9.079  0.2155 -0.2153  0.3169
  596HK4     H150029   9.867   9.300   9.153  1.3181 -1.2715  2.0521
  596HK4     C650030   9.958   9.109   9.089 -0.0633 -0.3395 -0.5971
  596HK4     C550031  10.038   9.051   8.989 -0.2963 -0.2784 -0.8180
  596HK4    C1050032  10.072   8.906   8.989  0.6416 -0.0566  0.0573
  596HK4     O150033  10.128   8.868   9.092 -0.2118 -0.1820  0.4849
  596HK4    C1650034   9.857   9.028   9.159  0.0694 -0.1702 -0.2124
  596HK4    C1550035   9.721   9.066   9.158  0.1619  0.1899  0.2200
  596HK4     H750036   9.680   9.128   9.077  0.1637  0.4294  0.4076
  596HK4    C2050037   9.641   9.041   9.269 -0.0153  0.0839  0.0695
  596HK4     H950038   9.534   9.062   9.271 -0.5752 -2.4937 -0.5044
  596HK4    C1950039   9.686   8.975   9.383 -0.3253  0.1256  0.2151
  596HK4    C1850040   9.823   8.927   9.384 -0.3567  0.0314  0.1897
  596HK4    C1750041   9.899   8.960   9.273 -0.3318  0.4985  0.3456
  596HK4     H850042  10.004   8.930   9.281 -0.2390  0.1527 -1.8144
  596HK4     N150043   9.855   8.849   9.497  0.3021  0.0736  0.0308
  596HK4    C2150044   9.736   8.855   9.572  0.5136  0.1943  0.3609
  596HK4    C2250045   9.630   8.932   9.509  0.0343 -0.6713  0.1020
  596HK4    C2650046   9.515   8.972   9.576  0.2593 -0.1737  0.1930
  596HK4    H1350047   9.433   9.023   9.525  0.2872  1.0446  1.3198
  596HK4    C2550048   9.501   8.944   9.712 -0.0798  0.1647  0.2306
  596HK4    H1250049   9.421   8.984   9.774 -0.0146 -0.6527  0.8493
  596HK4    C2450050   9.600   8.872   9.777 -0.0107 -0.1064 -0.1781
  596HK4    H1150051   9.584   8.831   9.877  2.5730 -1.4579 -0.2636
  596HK4    C2350052   9.712   8.828   9.706  0.3316  0.0043  0.2886
  596HK4    H1050053   9.788   8.785   9.771  0.7911  0.9047  0.3556
  596HK4    C3950054   9.932   8.732   9.494 -0.0583 -0.1542 -0.4705
  596HK4    C4150055   9.988   8.696   9.618  0.2046  0.3352 -0.4501
  596HK4    H2150056  10.018   8.761   9.701  1.7276 -0.5152 -0.3060
  596HK4    C4250057  10.039   8.567   9.619 -0.1846  0.1802 -0.4457
  596HK4    H2250058  10.054   8.513   9.713  1.4761 -1.1108 -1.4229
  596HK4    C4350059  10.035   8.486   9.506 -0.4993 -0.7436  0.2268
  596HK4    H2350060  10.110   8.406   9.506  0.0083 -0.3705 -3.6715
  596HK4    C4450061   9.994   8.523   9.378  0.1851  0.0280  0.2258
  596HK4    H2450062  10.003   8.454   9.293 -0.9666  0.6619 -0.4144
  596HK4    C4550063   9.936   8.649   9.380  0.6186  0.2464 -0.7372
  596HK4    H2550064   9.885   8.685   9.289 -0.0189  0.3391 -0.3435
  597HK4    H2850065   0.092   2.265   4.710 -0.6254 -1.7724  0.6875
  597HK4    C4850066   0.072   2.236   4.606 -0.1002  0.3354 -0.0209
  597HK4    C4750067   0.171   2.243   4.509  0.2015 -1.0038  0.1768
  597HK4    H2750068   0.270   2.285   4.534  0.9035 -0.8007 -2.7104
  597HK4    C4650069   0.147   2.205   4.378  0.2288  0.4078 -0.2496
  597HK4    H2650070   0.233   2.201   4.310  0.5173  0.6999  0.0992
  597HK4    C4050071   0.022   2.152   4.338  0.3608 -0.0002 -0.1182
  597HK4    C5050072  11.176   2.137   4.441  0.1250  0.3782 -0.2792
  597HK4    H3050073  11.072   2.128   4.406  0.1120 -1.8271  0.2639
  597HK4    C4950074  11.199   2.176   4.573  0.0091  0.2249 -0.2118
  597HK4    H2950075  11.138   2.128   4.650 -0.8159  0.5705 -0.6466
  597HK4     N250076  11.224   2.131   4.207 -0.0309  0.5742 -0.0716
  597HK4    C3050077   0.049   2.178   4.096  0.3944  0.1287  0.0122
  597HK4    C2950078   0.108   2.304   4.088  0.4177  0.1606  0.7147
  597HK4    H1550079   0.099   2.371   4.173  0.2914 -1.5734  2.0999
  597HK4    C2850080   0.142   2.359   3.965 -0.7715  0.2566  0.4166
  597HK4    C2750081   0.129   2.274   3.854 -0.3068 -0.4776  0.9191
  597HK4    H1450082   0.179   2.306   3.761 -1.0734 -0.3046  0.5597
  597HK4    C3250083   0.069   2.149   3.854 -0.5878 -0.3477 -0.1733
  597HK4    H1650084   0.061   2.084   3.767  0.5519 -0.9342  0.1462
  597HK4    C3150085   0.020   2.102   3.975  0.2466 -0.1707  0.2368
  597HK4    C3450086  11.183   1.991   4.015  0.2030 -0.1370  0.2347
  597HK4    C3350087  11.156   2.020   4.154  0.2965  0.2555  0.1748
  597HK4    C3550088  11.076   1.927   4.220  0.6108 -0.2270 -0.1178
  597HK4    H1750089  11.024   1.967   4.307  1.8740 -1.2381  1.1057
  597HK4    C3650090  11.019   1.819   4.154  0.3337 -0.2945  0.2328
  597HK4    H1850091  10.940   1.758   4.200 -0.0527 -1.0201 -1.3654
  597HK4    C3750092  11.043   1.792   4.020 -0.8995 -0.0111 -0.0542
  597HK4    H1950093  10.980   1.718   3.971 -0.1830 -0.6347 -0.0544
  597HK4    C3850094  11.133   1.876   3.955  0.0402 -0.3546  0.7857
  597HK4    H2050095  11.147   1.850   3.850 -0.8156  1.5655  0.1651
  597HK4    C1450096   0.152   2.506   3.954 -0.1536  0.2174  0.4338
  597HK4     C950097   0.123   2.588   3.845 -0.0384 -0.3716 -0.0466
  597HK4     C850098   0.195   2.707   3.822 -0.2684 -0.2355 -0.0648
  597HK4    C1150099   0.290   2.751   3.914  0.1367 -0.1295 -0.5343
  597HK4     H450100   0.341   2.847   3.902 -1.0304  0.7131  1.0936
  597HK4    C1250101   0.314   2.676   4.028 -0.0903  0.2294 -0.2497
  597HK4     H550102   0.360   2.727   4.114  0.4334 -1.5678  0.5589
  597HK4    C1350103   0.247   2.555   4.046  0.3525  0.0221  0.0164
  597HK4     H650104   0.288   2.492   4.127  0.5065  0.2152  0.0882
  597HK4     C750105   0.170   2.779   3.695  0.1078  0.1296  0.0657
  597HK4     O250106   0.240   2.879   3.678  0.4576 -0.2031 -0.4855
  597HK4     C450107   0.071   2.733   3.595  0.3000  0.0901 -0.1062
  597HK4     C350108   0.070   2.778   3.464 -0.6379 -0.0859 -0.1648
  597HK4     H350109   0.144   2.858   3.445 -1.7238  1.1875  0.9046
  597HK4     C250110   0.003   2.712   3.361 -0.0514 -0.1085 -0.5377
  597HK4     H250111   0.038   2.733   3.259 -0.9831 -0.3653 -0.9098
  597HK4     C150112  11.157   2.618   3.402 -0.0638 -0.1009 -0.5490
  597HK4     H150113  11.107   2.562   3.322  0.0233 -2.0390  0.7354
  597HK4     C650114  11.147   2.573   3.535 -0.2031  0.4897 -0.3559
  597HK4     C550115  11.231   2.629   3.631 -0.2360  0.4696 -0.3162
  597HK4    C1050116   0.003   2.558   3.761  0.0245  0.3765 -0.4067
  597HK4     O150117  11.153   2.527   3.828 -0.0024  0.0287 -0.6059
  597HK4    C1650118  11.101   2.434   3.549 -0.1189  0.4576 -0.4058
  597HK4    C1550119  10.995   2.398   3.635  0.5314  0.3292  0.3498
  597HK4     H750120  10.938   2.486   3.668 -0.3943  0.0633 -0.4928
  597HK4    C2050121  10.957   2.267   3.663  0.8636  0.1997  0.2015
  597HK4     H950122  10.878   2.245   3.735  0.8931 -0.1788  0.1166
  597HK4    C1950123  11.042   2.170   3.612 -0.0300 -0.1203 -0.6968
  597HK4    C1850124  11.141   2.201   3.510  0.4578  0.1808 -0.1369
  597HK4    C1750125  11.175   2.334   3.486  0.1952  0.3108  0.2024
  597HK4     H850126   0.016   2.345   3.425  2.4233 -0.2394  3.2507
  597HK4     N150127  11.200   2.092   3.445 -0.2452 -0.2499 -0.0611
  597HK4    C2150128  11.129   1.985   3.505  0.3748 -0.2346  0.7153
  597HK4    C2250129  11.034   2.025   3.606  0.0458 -0.1720  0.3849
  597HK4    C2650130  10.947   1.932   3.662 -0.4182  0.0398  0.0151
  597HK4    H1350131  10.857   1.967   3.712 -2.7329  0.4594 -4.2232
  597HK4    C2550132  10.962   1.796   3.636 -0.0162  0.0291  0.3001
  597HK4    H1250133  10.905   1.725   3.694  0.3108 -1.2791 -0.9423
  597HK4    C2450134  11.055   1.754   3.541 -0.0946  0.0468  0.2167
  597HK4    H1150135  11.062   1.647   3.516  0.0934 -0.1694  1.1693
  597HK4    C2350136  11.135   1.849   3.478 -0.4503 -0.0598 -0.3974
  597HK4    H1050137  11.217   1.811   3.417  0.5436  0.8001  0.3948
  597HK4    C3950138  11.231   2.083   3.309 -0.1360  0.6816 -0.0981
  597HK4    C4150139   0.078   1.988   3.264 -0.2931  0.3459  0.2790
  597HK4    H2150140   0.162   1.972   3.333 -0.1423  0.8853  0.2241
  597HK4    C4250141   0.062   1.924   3.142 -0.5020  0.0248  0.4725
  597HK4    H2250142   0.137   1.846   3.125  0.5499  0.7264  1.8185
  597HK4    C4350143  11.206   1.957   3.056  0.1371 -0.0362 -0.3308
  597HK4    H2350144  11.205   1.926   2.951 -1.2190  0.2894 -0.4293
  597HK4    C4450145  11.115   2.055   3.093  0.2805  0.1013 -0.3440
  597HK4    H2450146  11.047   2.094   3.016  1.6994  2.8670 -0.2411
  597HK4    C4550147  11.127   2.112   3.219 -0.3498 -0.2023 -0.1416
  597HK4    H2550148  11.045   2.180   3.247  0.9285  0.7424  1.3725
  598HK4    H2850149   8.618   1.221   0.721 -2.4996 -1.2668  1.2354
  598HK4    C4850150   8.579   1.322   0.729 -0.5667 -0.4272  0.2908
  598HK4    C4750151   8.534   1.367   0.853 -0.2858  0.0875  0.2085
  598HK4    H2750152   8.537   1.294   0.935 -1.2708 -1.1996 -0.8806
  598HK4    C4650153   8.510   1.502   0.873  0.3328  0.2073  0.1530
  598HK4    H2650154   8.512   1.536   0.978  1.0075  1.9358 -0.3867
  598HK4    C4050155   8.524   1.596   0.769 -0.4017 -0.0017 -0.1325
  598HK4    C5050156   8.563   1.546   0.643  0.4726 -0.3517  0.2779
  598HK4    H3050157   8.553   1.611   0.555  0.5991  0.0556  0.5636
  598HK4    C4950158   8.590   1.411   0.623 -0.6430 -0.5644  0.1682
  598HK4    H2950159   8.630   1.374   0.528 -1.0384  2.3619 -1.2075
  598HK4     N250160   8.462   1.720   0.786 -0.1492  0.0198  0.6311
  598HK4    C3050161   8.343   1.749   0.857 -0.2546 -0.2790  0.5736
  598HK4    C2950162   8.237   1.668   0.896  0.4377 -0.9774  1.0381
  598HK4    H1550163   8.235   1.564   0.862  1.5223 -0.3737 -0.9369
  598HK4    C2850164   8.133   1.718   0.974 -0.2695 -0.2929 -0.3275
  598HK4    C2750165   8.129   1.858   0.992  0.2941 -0.3067 -0.0614
  598HK4    H1450166   8.038   1.912   1.024  1.4658  2.0810 -0.6740
  598HK4    C3250167   8.226   1.946   0.946  0.2596 -0.1383  0.1823
  598HK4    H1650168   8.217   2.054   0.953  0.8216 -0.2425  2.9719
  598HK4    C3150169   8.338   1.891   0.884  0.2951 -0.2060  0.2998
  598HK4    C3450170   8.448   1.954   0.814 -0.0442 -0.0764 -0.1258
  598HK4    C3350171   8.517   1.844   0.749  0.1663 -0.2137  0.3222
  598HK4    C3550172   8.623   1.879   0.665 -0.2226 -0.0154 -0.0848
  598HK4    H1750173   8.668   1.795   0.611 -1.3620 -0.4396 -0.3967
  598HK4    C3650174   8.668   2.009   0.651  0.2739 -0.0625  1.0311
  598HK4    H1850175   8.763   2.026   0.597  0.9982 -0.9800  1.9829
  598HK4    C3750176   8.605   2.115   0.716 -0.3567  0.3298 -0.2000
  598HK4    H1950177   8.626   2.213   0.674 -3.1759  0.8310 -0.4989
  598HK4    C3850178   8.498   2.083   0.799 -0.0659 -0.0493  0.0350
  598HK4    H2050179   8.475   2.168   0.863 -0.5117  1.0573 -1.5639
  598HK4    C1450180   8.030   1.627   1.025 -0.3927 -0.2051 -0.4216
  598HK4     C950181   7.910   1.678   1.075 -0.3686 -0.2269 -0.3359
  598HK4     C850182   7.877   1.639   1.206 -0.0307 -0.5168 -0.3381
  598HK4    C1150183   7.946   1.536   1.270 -0.0326 -0.5738 -0.4272
  598HK4     H450184   7.917   1.502   1.371 -0.6695 -2.8836 -1.3496
  598HK4    C1250185   8.036   1.456   1.202  0.5332 -0.5261  0.2610
  598HK4     H550186   8.095   1.375   1.247  1.4735  0.1106  0.2014
  598HK4    C1350187   8.076   1.504   1.077 -0.6087 -0.0791  0.0612
  598HK4     H650188   8.136   1.442   1.009  0.1535  0.9658 -0.2459
  598HK4     C750189   7.745   1.676   1.262  0.1917  0.0537 -0.1956
  598HK4     O250190   7.747   1.701   1.383 -1.0270  0.0441 -0.1658
  598HK4     C450191   7.644   1.727   1.167  0.0057  0.5551  0.2656
  598HK4     C350192   7.514   1.740   1.214 -0.3940 -0.0991 -0.6608
  598HK4     H350193   7.480   1.664   1.286 -1.3464 -1.5184 -2.5632
  598HK4     C250194   7.422   1.824   1.152 -0.2648  0.2896 -0.3280
  598HK4     H250195   7.320   1.800   1.185  1.1842 -3.4750  1.8394
  598HK4     C150196   7.459   1.888   1.035 -0.5379  0.1059 -0.5164
  598HK4     H150197   7.377   1.916   0.967 -1.7232  0.5388  1.0566
  598HK4     C650198   7.595   1.889   0.996 -0.4149  0.0956 -0.0924
  598HK4     C550199   7.683   1.795   1.049 -0.3401  0.1812 -0.0668
  598HK4    C1050200   7.812   1.750   0.989 -0.0943  0.6707  0.0893
  598HK4     O150201   7.818   1.762   0.867  0.3982  0.1340  0.0557
  598HK4    C1650202   7.649   2.024   0.977  0.7132 -0.3082  0.2262
  598HK4    C1550203   7.595   2.122   1.063 -0.5256 -0.3036 -0.5441
  598HK4     H750204   7.542   2.088   1.152  0.7663  0.1479  0.4162
  598HK4    C2050205   7.599   2.258   1.032 -0.0740 -0.2600 -0.2983
  598HK4     H950206   7.605   2.329   1.114 -2.0327 -0.1431 -0.2350
  598HK4    C1950207   7.640   2.295   0.905  0.5263  0.3001  0.0508
  598HK4    C1850208   7.700   2.197   0.816  0.1625  0.2215 -0.1113
  598HK4    C1750209   7.702   2.063   0.854  0.4542  0.3429  0.3170
  598HK4     H850210   7.709   1.989   0.774 -0.3954  0.2873  0.2815
  598HK4     N150211   7.752   2.255   0.699  1.1396  0.4263  0.4142
  598HK4    C2150212   7.707   2.389   0.707 -0.2842 -0.0197  0.0153
  598HK4    C2250213   7.634   2.418   0.829 -0.2496  0.2204 -0.0223
  598HK4    C2650214   7.595   2.550   0.850  0.2826  0.3516  0.1594
  598HK4    H1350215   7.614   2.591   0.949  0.0280  0.5914  0.1113
  598HK4    C2550216   7.614   2.643   0.749 -0.7587 -0.5503 -0.8835
  598HK4    H1250217   7.601   2.750   0.768  3.2208 -0.4692  1.9503
  598HK4    C2450218   7.669   2.610   0.625  0.4576  0.0014 -0.4948
  598HK4    H1150219   7.656   2.680   0.541  1.4509  2.2035  1.1292
  598HK4    C2350220   7.722   2.483   0.606 -0.1887 -0.3096 -0.2427
  598HK4    H1050221   7.763   2.453   0.509 -0.9433 -1.9633 -0.0616
  598HK4    C3950222   7.852   2.192   0.625  0.3971 -0.1224 -0.1393
  598HK4    C4150223   7.883   2.239   0.496 -0.0636  0.0081 -0.2036
  598HK4    H2150224   7.800   2.278   0.436  1.0052  1.7206 -0.6004
  598HK4    C4250225   8.010   2.239   0.438  0.1293  0.3467  0.2200
  598HK4    H2250226   8.028   2.282   0.339  0.7114  1.4779  0.8105
  598HK4    C4350227   8.115   2.187   0.513  0.0677  0.2279  0.2223
  598HK4    H2350228   8.220   2.209   0.491  0.5654  1.2610  3.4214
  598HK4    C4450229   8.085   2.131   0.637 -0.2115 -0.2063 -0.0366
  598HK4    H2450230   8.165   2.074   0.686 -2.4705 -1.4403  2.3166
  598HK4    C4550231   7.960   2.136   0.697 -0.0136 -0.2443  0.3801
  598HK4    H2550232   7.947   2.098   0.800  0.8745  0.7175  0.8497
  599HK4    H2850233   0.892   4.200   8.255 -0.4271  1.7073  1.2246
  599HK4    C4850234   0.977   4.254   8.213  0.3254  0.1196  0.6643
  599HK4    C4750235   0.966   4.390   8.189 -0.5476 -0.1852 -0.7513
  599HK4    H2750236   0.880   4.449   8.224  0.5487  1.5119 -0.8489
  599HK4    C4650237   1.078   4.453   8.138 -0.6352  0.0283 -0.6832
  599HK4    H2650238   1.063   4.559   8.112 -0.1160 -0.2500 -2.2135
  599HK4    C4050239   1.199   4.388   8.106 -0.4155  0.0658  0.0745
  599HK4    C5050240   1.202   4.248   8.125 -0.4406  0.1292  0.5531
  599HK4    H3050241   1.293   4.191   8.104 -0.5114  0.6477 -1.2064
  599HK4    C4950242   1.091   4.183   8.178 -0.3359 -0.5786 -0.1017
  599HK4    H2950243   1.095   4.074   8.197 -1.1361 -0.7562 -0.9290
  599HK4     N250244   1.321   4.457   8.100 -0.4283  0.0624 -0.2009
  599HK4    C3050245   1.347   4.583   8.159  0.0389 -0.0087 -0.2575
  599HK4    C2950246   1.310   4.641   8.280 -0.1368  0.1570 -0.3896
  599HK4    H1550247   1.229   4.599   8.340  1.3064 -0.2987  1.2878
  599HK4    C2850248   1.376   4.754   8.326 -0.1273  0.0637 -0.1806
  599HK4    C2750249   1.471   4.811   8.239 -0.0067  0.0714 -0.0420
  599HK4    H1450250   1.546   4.872   8.292  1.2677 -0.3955 -1.2846
  599HK4    C3250251   1.495   4.766   8.110 -0.1945  0.0637 -0.0734
  599HK4    H1650252   1.550   4.826   8.038 -0.1300  1.4951  1.1364
  599HK4    C3150253   1.437   4.648   8.066  0.1094 -0.0357 -0.2090
  599HK4    C3450254   1.474   4.565   7.953 -0.5090 -0.1563 -0.3249
  599HK4    C3350255   1.404   4.443   7.987  0.0565 -0.3371  0.2041
  599HK4    C3550256   1.429   4.331   7.909  0.4606  0.0198 -0.1831
  599HK4    H1750257   1.369   4.241   7.919  1.6692 -0.6192  1.5090
  599HK4    C3650258   1.526   4.346   7.810  0.5159 -0.1390 -0.1529
  599HK4    H1850259   1.576   4.255   7.774  2.9290  0.8153  0.7369
  599HK4    C3750260   1.587   4.464   7.771  0.7006 -0.2507 -0.1949
  599HK4    H1950261   1.639   4.476   7.675 -0.1861 -0.3893 -0.6928
  599HK4    C3850262   1.562   4.578   7.846 -0.5919 -0.3846 -0.4208
  599HK4    H2050263   1.607   4.675   7.825 -1.6022  0.0364 -0.6832
  599HK4    C1450264   1.345   4.826   8.450  0.3797 -0.0090 -0.0067
  599HK4     C950265   1.364   4.962   8.476 -0.0629  0.0666 -0.0762
  599HK4     C850266   1.386   5.005   8.609 -0.1890  0.3871 -0.1540
  599HK4    C1150267   1.374   4.911   8.711 -0.1694 -0.1452 -0.6362
  599HK4     H450268   1.396   4.937   8.815  0.3782  0.8530 -0.9933
  599HK4    C1250269   1.341   4.778   8.688  0.5682 -0.4035 -0.1972
  599HK4     H550270   1.341   4.710   8.774  1.1887 -0.3037 -0.1102
  599HK4    C1350271   1.324   4.736   8.557  0.2329 -0.2173 -0.2155
  599HK4     H650272   1.282   4.638   8.531 -1.9503  0.3222  1.1344
  599HK4     C750273   1.438   5.142   8.632 -0.0683  0.2887  0.1721
  599HK4     O250274   1.478   5.167   8.745 -0.0066 -0.4967  0.3280
  599HK4     C450275   1.465   5.235   8.520 -0.1191 -0.0422 -0.1193
  599HK4     C350276   1.537   5.352   8.540 -0.3104  0.1317 -0.4358
  599HK4     H350277   1.552   5.392   8.642 -2.1990  0.6830 -0.3570
  599HK4     C250278   1.572   5.433   8.433  0.9092 -0.1568 -0.2587
  599HK4     H250279   1.645   5.514   8.446  1.7370 -0.8951 -0.2519
  599HK4     C150280   1.514   5.407   8.309  0.1164 -0.2471  0.1356
  599HK4     H150281   1.532   5.477   8.227 -0.4676  0.2661  0.4399
  599HK4     C650282   1.426   5.298   8.289 -0.5241  0.3202 -0.1464
  599HK4     C550283   1.411   5.206   8.393 -0.2803  0.2962 -0.1292
  599HK4    C1050284   1.357   5.069   8.372 -0.1103  0.1994  0.0670
  599HK4     O150285   1.267   5.055   8.289  0.1430 -0.1223 -0.1512
  599HK4    C1650286   1.335   5.323   8.176 -0.5076 -0.7569 -0.3977
  599HK4    C1550287   1.268   5.446   8.162 -0.3228 -0.6908 -0.7201
  599HK4     H750288   1.268   5.520   8.244 -2.8651  2.1609 -3.1592
  599HK4    C2050289   1.218   5.496   8.042 -0.3264  0.3969 -0.2780
  599HK4     H950290   1.187   5.600   8.036 -2.0702 -0.2727 -4.1494
  599HK4    C1950291   1.231   5.418   7.928 -0.2808  0.2486 -0.1706
  599HK4    C1850292   1.291   5.286   7.937  0.2199  0.4680 -0.2376
  599HK4    C1750293   1.347   5.249   8.059  0.4104 -0.3418 -0.5676
  599HK4     H850294   1.395   5.152   8.071  1.3380  0.0273 -1.2712
  599HK4     N150295   1.300   5.230   7.808  0.5337 -0.1407  0.0453
  599HK4    C2150296   1.249   5.328   7.721  0.5180 -0.3825 -0.2182
  599HK4    C2250297   1.213   5.451   7.788  0.4640 -0.2975 -0.4056
  599HK4    C2650298   1.173   5.566   7.719  0.3838 -0.1553 -0.1260
  599HK4    H1350299   1.185   5.661   7.771  0.8223 -0.3690  0.1714
  599HK4    C2550300   1.154   5.559   7.582 -1.0402 -0.3593  0.0783
  599HK4    H1250301   1.102   5.626   7.514 -1.1729 -0.9528 -0.4123
  599HK4    C2450302   1.185   5.438   7.522 -0.9016 -0.0981 -0.3801
  599HK4    H1150303   1.170   5.428   7.413  0.3828 -2.6740 -0.3732
  599HK4    C2350304   1.220   5.319   7.585  0.1892  0.3152 -0.2003
  599HK4    H1050305   1.260   5.238   7.523 -0.1600  0.4537 -0.6009
  599HK4    C3950306   1.319   5.095   7.775 -0.9882 -0.2751 -0.3183
  599HK4    C4150307   1.368   5.053   7.649 -0.0319  0.2705 -0.1368
  599HK4    H2150308   1.448   5.109   7.599 -0.4269  1.2225  0.2846
  599HK4    C4250309   1.357   4.918   7.617 -0.2209  0.2304  0.0879
  599HK4    H2250310   1.396   4.883   7.520  0.2037  2.3771 -0.5520
  599HK4    C4350311   1.311   4.826   7.710  0.7752 -0.6015 -0.2452
  599HK4    H2350312   1.318   4.718   7.692 -1.0099 -0.9207  0.9152
  599HK4    C4450313   1.267   4.864   7.836  0.1564  0.0663 -0.6574
  599HK4    H2450314   1.249   4.783   7.909 -1.1997  0.3419 -0.6814
  599HK4    C4550315   1.278   4.998   7.869 -0.5872 -0.0514  0.0881
  599HK4    H2550316   1.260   5.019   7.975 -2.3118 -0.5722 -0.0736
  600HK4    H2850317   2.082   7.411   4.332  1.5827 -1.0172 -0.6393
  600HK4    C4850318   2.143   7.500   4.347  0.5459 -0.4981  0.5277
  600HK4    C4750319   2.153   7.566   4.469  0.1068  0.0267  0.2785
  600HK4    H2750320   2.099   7.525   4.556 -0.5100 -0.4574 -0.3304
  600HK4    C4650321   2.229   7.682   4.481 -0.1804  0.2496 -0.0490
  600HK4    H2650322   2.255   7.730   4.576  0.5168 -0.0331 -0.0977
  600HK4    C4050323   2.291   7.737   4.367 -0.7191  0.2792 -0.3291
  600HK4    C5050324   2.276   7.674   4.242 -0.2923  0.6076 -0.5468
  600HK4    H3050325   2.295   7.720   4.143 -0.0991 -1.8853 -1.7000
  600HK4    C4950326   2.202   7.557   4.235  0.4177  0.0741  0.7502
  600HK4    H2950327   2.179   7.515   4.135 -0.3272  0.0965  0.9084
  600HK4     N250328   2.319   7.874   4.364  0.3337  0.0636 -0.5094
  600HK4    C3050329   2.264   7.975   4.446  0.4185 -0.3064  0.0054
  600HK4    C2950330   2.141   7.981   4.510  0.1115 -0.1122 -0.6061
  600HK4    H1550331   2.079   7.892   4.522 -1.1246  1.2313  3.8413
  600HK4    C2850332   2.084   8.103   4.545 -0.0459 -0.2692 -0.3109
  600HK4    C2750333   2.150   8.223   4.513  0.3318 -0.2500  0.5421
  600HK4    H1450334   2.117   8.320   4.554 -1.7779 -0.5867 -0.3187
  600HK4    C3250335   2.280   8.221   4.462  0.3403  0.1381  0.5424
  600HK4    H1650336   2.330   8.314   4.438  2.9737 -1.1863  0.7360
  600HK4    C3150337   2.336   8.099   4.424 -0.1643  0.0463  0.0802
  600HK4    C3450338   2.438   8.071   4.326 -0.3922  0.5215 -0.2973
  600HK4    C3350339   2.430   7.929   4.297  0.4448  0.4214 -0.0391
  600HK4    C3550340   2.535   7.862   4.235  0.1634 -0.2640  0.2082
  600HK4    H1750341   2.517   7.767   4.186 -2.4188  0.9622 -1.3540
  600HK4    C3650342   2.649   7.935   4.199 -0.1030 -0.0243 -0.1541
  600HK4    H1850343   2.727   7.879   4.145  0.7843  1.3962 -0.3568
  600HK4    C3750344   2.655   8.072   4.221 -0.2178 -0.0476  0.0315
  600HK4    H1950345   2.732   8.128   4.167 -0.5962 -0.9760 -1.5023
  600HK4    C3850346   2.552   8.139   4.286 -0.3190  0.2938 -0.4813
  600HK4    H2050347   2.548   8.248   4.280 -2.6785  0.1698 -1.4995
  600HK4    C1450348   1.945   8.108   4.594  0.3095  0.4988  0.6186
  600HK4     C950349   1.861   8.219   4.580 -0.0126  0.1886  0.0774
  600HK4     C850350   1.769   8.252   4.682  0.2075  0.3339  0.2284
  600HK4    C1150351   1.750   8.168   4.791  0.0441 -0.2417 -0.2365
  600HK4     H450352   1.708   8.207   4.885  1.6981 -0.2260  0.5186
  600HK4    C1250353   1.819   8.048   4.796 -0.0453 -0.2761  0.3183
  600HK4     H550354   1.799   7.974   4.875 -0.8823 -0.3279  0.0617
  600HK4    C1350355   1.921   8.024   4.704  0.0017  0.1284  0.2657
  600HK4     H650356   1.964   7.923   4.707 -1.4667 -0.6706 -3.4759
  600HK4     C750357   1.681   8.370   4.673 -0.7651 -0.4291 -0.3799
  600HK4     O250358   1.670   8.438   4.775  0.2545 -0.6691 -0.1131
  600HK4     C450359   1.665   8.438   4.543  0.1651  0.1996 -0.1671
  600HK4     C350360   1.578   8.546   4.537 -0.4500 -0.2630  0.3664
  600HK4     H350361   1.498   8.558   4.612 -0.9283  0.8698 -0.3111
  600HK4     C250362   1.575   8.627   4.424  0.0956 -0.4531  0.2144
  600HK4     H250363   1.517   8.720   4.420  1.3590  0.2729 -1.5251
  600HK4     C150364   1.659   8.589   4.320  0.0937  0.1370  0.0009
  600HK4     H150365   1.659   8.651   4.228  0.2149 -2.7947 -2.0351
  600HK4     C650366   1.752   8.484   4.325 -0.1247 -0.0702 -0.1979
  600HK4     C550367   1.754   8.403   4.439  0.2923  0.1562 -0.0422
  600HK4    C1050368   1.842   8.283   4.447 -0.0349 -0.0877 -0.0536
  600HK4     O150369   1.841   8.204   4.353 -0.0523 -0.2162  0.0565
  600HK4    C1650370   1.865   8.496   4.231  0.5045 -0.0782  0.5599
  600HK4    C1550371   1.916   8.625   4.205  0.0504  0.0664  0.3806
  600HK4     H750372   1.916   8.699   4.286 -1.5243  0.2467  0.2238
  600HK4    C2050373   1.980   8.662   4.087  0.4548  0.0830  0.6049
  600HK4     H950374   2.018   8.764   4.080  0.2727  0.0135 -2.0908
  600HK4    C1950375   1.998   8.566   3.988 -0.6951  0.3075  0.1751
  600HK4    C1850376   1.961   8.429   4.019 -0.7416  0.1237 -0.6823
  600HK4    C1750377   1.885   8.401   4.132  0.4104  0.3259  0.1576
  600HK4     H850378   1.816   8.317   4.139 -0.0771  0.6821 -0.2027
  600HK4     N150379   1.996   8.340   3.916  0.0938  0.0440 -0.3256
  600HK4    C2150380   2.064   8.423   3.824 -0.2625  0.5398 -0.1417
  600HK4    C2250381   2.068   8.563   3.861 -0.1652  0.3770  0.4645
  600HK4    C2650382   2.160   8.654   3.810 -0.5579  0.3769 -0.2582
  600HK4    H1350383   2.178   8.757   3.842  1.5115  0.4941 -1.6828
  600HK4    C2550384   2.242   8.615   3.706  0.0033  0.1491  0.2653
  600HK4    H1250385   2.315   8.674   3.651  0.0119 -0.5242 -0.4576
  600HK4    C2450386   2.228   8.484   3.661 -0.6582  0.4914 -0.5543
  600HK4    H1150387   2.289   8.447   3.577 -1.4071  1.4000 -1.5095
  600HK4    C2350388   2.144   8.388   3.716  0.3028  0.1773  0.3924
  600HK4    H1050389   2.156   8.283   3.690 -0.9467 -0.1771  1.1836
  600HK4    C3950390   2.021   8.203   3.930  0.8206  0.1940 -0.0698
  600HK4    C4150391   2.009   8.126   3.812 -0.3810 -0.3937  0.4389
  600HK4    H2150392   1.957   8.166   3.724  2.0467 -0.2508 -0.9475
  600HK4    C4250393   2.082   8.010   3.788 -0.1541 -0.2179  0.2763
  600HK4    H2250394   2.057   7.955   3.696 -0.2911  1.8777 -0.9808
  600HK4    C4350395   2.181   7.972   3.878 -0.3624 -0.4101  0.4224
  600HK4    H2350396   2.262   7.911   3.837  1.2213  2.1119 -0.3228
  600HK4    C4450397   2.189   8.042   3.997  0.4394  0.3486 -0.0714
  600HK4    H2450398   2.250   7.997   4.077 -1.3730 -0.7132  0.7565
  600HK4    C4550399   2.114   8.156   4.025  0.0867 -0.0278  0.5385
  600HK4    H2550400   2.114   8.185   4.131  0.7119 -0.3958  0.6408
  601HK4    H2850401   0.705   2.683   9.066 -0.3868 -0.5325  2.0155
  601HK4    C4850402   0.753   2.587   9.044  0.3036  0.2689 -0.1037
  601HK4    C4750403   0.835   2.525   9.138 -0.1973 -0.2643 -0.0158
  601HK4    H2750404   0.861   2.567   9.236  1.2087 -1.0718 -0.0357
  601HK4    C4650405   0.894   2.404   9.104  0.5227  0.0326  0.1663
  601HK4    H2650406   0.952   2.354   9.182 -0.0974  0.5350  0.9618
  601HK4    C4050407   0.874   2.336   8.982 -0.2655 -0.0995  0.3630
  601HK4    C5050408   0.791   2.407   8.893 -0.5245 -0.0539  0.6439
  601HK4    H3050409   0.758   2.356   8.801  0.3519  0.9347 -0.2297
  601HK4    C4950410   0.726   2.527   8.922 -0.3337  0.1880  0.0738
  601HK4    H2950411   0.672   2.580   8.842  2.4626  1.7743 -0.8304
  601HK4     N250412   0.940   2.218   8.945 -0.0639  0.3129 -0.6102
  601HK4    C3050413   1.070   2.184   8.987  0.0844  0.4632 -0.9467
  601HK4    C2950414   1.174   2.263   9.036 -0.1210  0.1924 -0.0579
  601HK4    H1550415   1.150   2.365   9.065 -0.7037 -0.2592  1.0979
  601HK4    C2850416   1.307   2.228   9.053 -0.1248  0.0685 -0.2673
  601HK4    C2750417   1.337   2.098   9.011 -0.0914  0.0594 -0.2170
  601HK4    H1450418   1.439   2.058   9.022  1.2587  2.5827 -2.9143
  601HK4    C3250419   1.242   2.011   8.957  0.2549 -0.0313 -0.6904
  601HK4    H1650420   1.261   1.908   8.927 -2.8571 -1.5436  2.2133
  601HK4    C3150421   1.112   2.054   8.936  0.0249 -0.1304  0.4958
  601HK4    C3450422   1.002   2.009   8.854  0.4211 -0.0256 -0.0915
  601HK4    C3350423   0.897   2.108   8.867  0.3094 -0.1287 -0.1996
  601HK4    C3550424   0.773   2.083   8.811  0.2930  0.0342 -0.2344
  601HK4    H1750425   0.704   2.168   8.807  1.7414  1.3394  1.8006
  601HK4    C3650426   0.740   1.962   8.751 -0.0602 -0.1415  0.3140
  601HK4    H1850427   0.653   1.967   8.684  1.2928  1.2816 -1.3749
  601HK4    C3750428   0.843   1.870   8.738 -0.0415 -0.0404 -0.2422
  601HK4    H1950429   0.819   1.784   8.676  1.0436 -0.7021  0.2314
  601HK4    C3850430   0.972   1.893   8.783 -0.0911  0.1733 -0.2092
  601HK4    H2050431   1.052   1.819   8.771  0.1805  0.7676 -2.3025
  601HK4    C1450432   1.414   2.322   9.091  0.1435 -0.1121 -0.5787
  601HK4     C950433   1.545   2.319   9.041  0.3437 -0.1805 -0.0534
  601HK4     C850434   1.655   2.368   9.114  0.0368 -0.2520  0.4624
  601HK4    C1150435   1.635   2.433   9.235  0.1610  0.4196  0.1260
  601HK4     H450436   1.716   2.469   9.301  0.4954  0.0341 -0.0744
  601HK4    C1250437   1.504   2.437   9.281  0.2082  0.3203  0.2671
  601HK4     H550438   1.485   2.509   9.362  0.1856  1.8809 -1.1120
  601HK4    C1350439   1.394   2.383   9.216  0.8602 -0.2134 -0.4105
  601HK4     H650440   1.291   2.385   9.255  1.5733  0.2329  1.5282
  601HK4     C750441   1.792   2.347   9.063  0.0411  1.3457 -0.2429
  601HK4     O250442   1.879   2.323   9.146 -0.3633  0.1595 -0.1464
  601HK4     C450443   1.813   2.296   8.925 -0.2273 -0.1904  0.2721
  601HK4     C350444   1.940   2.298   8.869 -0.1959 -0.3287  0.3385
  601HK4     H350445   2.018   2.333   8.937 -0.8072  0.8517  0.4441
  601HK4     C250446   1.976   2.247   8.744  0.0687 -0.0682  0.3100
  601HK4     H250447   2.081   2.240   8.711 -0.4252 -1.8680 -0.9057
  601HK4     C150448   1.867   2.198   8.674  0.2439  0.2445 -0.1890
  601HK4     H150449   1.887   2.156   8.574  0.1198 -1.0413  0.3061
  601HK4     C650450   1.735   2.187   8.722  0.2666  0.3503 -0.1032
  601HK4     C550451   1.708   2.243   8.847 -0.1124  0.0511 -0.0457
  601HK4    C1050452   1.573   2.277   8.901 -0.1982 -0.0429 -0.2043
  601HK4     O150453   1.500   2.330   8.817 -0.5168 -0.4360 -0.1759
  601HK4    C1650454   1.650   2.078   8.671  0.2151  0.3029  0.0854
  601HK4    C1550455   1.722   1.965   8.628 -0.0605  0.0967  0.1706
  601HK4     H750456   1.829   1.943   8.638 -0.1003 -0.2564 -0.1470
  601HK4    C2050457   1.656   1.854   8.576 -0.1611  0.1104  0.2692
  601HK4     H950458   1.705   1.770   8.526 -0.8976  0.4494 -1.0370
  601HK4    C1950459   1.517   1.861   8.570 -0.1844  0.0738  0.7427
  601HK4    C1850460   1.454   1.991   8.578 -0.0982  0.1711 -0.1529
  601HK4    C1750461   1.517   2.100   8.636  0.0754 -0.1787  0.3182
  601HK4     H850462   1.502   2.204   8.609  2.2574  0.0823 -0.0061
  601HK4     N150463   1.318   1.974   8.544 -0.1103 -0.1039  0.0344
  601HK4    C2150464   1.292   1.836   8.536 -0.3010 -0.1036  0.6089
  601HK4    C2250465   1.415   1.760   8.550 -0.0454  0.1327 -0.3084
  601HK4    C2650466   1.416   1.621   8.548  0.5190  0.1143  0.8591
  601HK4    H1350467   1.507   1.567   8.575  0.5305 -0.1966  0.1991
  601HK4    C2550468   1.294   1.559   8.526  0.3049  1.0080 -0.4711
  601HK4    H1250469   1.288   1.450   8.535 -0.1612  0.9516 -1.3160
  601HK4    C2450470   1.175   1.627   8.500 -0.1890  0.3213 -0.0443
  601HK4    H1150471   1.083   1.578   8.467 -0.3862  1.0128 -0.5288
  601HK4    C2350472   1.175   1.766   8.509 -0.2827  0.3677 -0.7289
  601HK4    H1050473   1.088   1.819   8.470  0.8666  3.1302  0.3343
  601HK4    C3950474   1.219   2.073   8.538 -0.1804 -0.1666  0.1428
  601HK4    C4150475   1.108   2.080   8.452 -0.1722  0.0465  0.1490
  601HK4    H2150476   1.089   2.004   8.375  2.1272 -1.7483  1.2812
  601HK4    C4250477   1.013   2.181   8.454 -0.0131  0.1967  0.1674
  601HK4    H2250478   0.951   2.193   8.364 -0.4479  0.2700  0.4760
  601HK4    C4350479   1.017   2.282   8.550 -0.4695  0.3524  0.0258
  601HK4    H2350480   0.937   2.355   8.555 -0.1729  0.7501 -0.8586
  601HK4    C4450481   1.127   2.282   8.635 -0.4098 -0.1662 -0.0460
  601HK4    H2450482   1.139   2.359   8.713 -0.0372 -0.1156 -0.1529
  601HK4    C4550483   1.220   2.180   8.631 -0.2082  0.0179 -0.0683
  601HK4    H2550484   1.292   2.180   8.714 -0.6714 -1.6682  0.3576
  602HK4    H2850485   1.535   5.574   8.022  2.0274  2.0019  1.1034
  602HK4    C4850486   1.563   5.619   7.927 -0.0743 -0.0069 -0.5105
  602HK4    C4750487   1.639   5.734   7.920  0.3211 -0.2432 -0.0840
  602HK4    H2750488   1.645   5.801   8.007 -1.3302 -1.4737  0.9996
  602HK4    C4650489   1.690   5.775   7.797  0.4243 -0.2390 -0.0401
  602HK4    H2650490   1.746   5.869   7.791  1.2050 -0.7072 -0.2284
  602HK4    C4050491   1.660   5.718   7.672 -0.1843  0.1966 -0.0954
  602HK4    C5050492   1.589   5.596   7.684  0.5574 -0.2392 -0.0958
  602HK4    H3050493   1.550   5.548   7.593 -0.1336 -1.4432  0.8174
  602HK4    C4950494   1.542   5.552   7.807 -0.0546 -0.2982 -0.3509
  602HK4    H2950495   1.504   5.449   7.811  0.7877 -0.5626  1.1206
  602HK4     N250496   1.707   5.762   7.548 -0.0343 -0.5315 -0.3026
  602HK4    C3050497   1.829   5.831   7.532 -0.0287 -0.5248 -0.2245
  602HK4    C2950498   1.944   5.819   7.609 -0.2764  0.2751  0.2779
  602HK4    H1550499   1.937   5.770   7.706 -1.5373 -0.6914 -0.2841
  602HK4    C2850500   2.062   5.882   7.571 -0.3033  0.3496  0.3208
  602HK4    C2750501   2.061   5.951   7.448 -0.3949 -0.0294  0.1093
  602HK4    H1450502   2.148   6.013   7.422 -0.3497  0.0144  0.3643
  602HK4    C3250503   1.950   5.975   7.369 -0.2465  0.0540 -0.0760
  602HK4    H1650504   1.953   6.020   7.270  0.6796  0.7240  0.2618
  602HK4    C3150505   1.833   5.912   7.412 -0.1092 -0.1238  0.0392
  602HK4    C3450506   1.704   5.889   7.350  0.2189 -0.4092 -0.5531
  602HK4    C3350507   1.631   5.795   7.433  0.1457 -0.1419 -0.3103
  602HK4    C3550508   1.500   5.759   7.406  0.0046  0.3298 -0.2452
  602HK4    H1750509   1.450   5.685   7.468  2.3757  0.9007  2.4458
  602HK4    C3650510   1.437   5.816   7.296 -0.3783 -0.3612 -0.3866
  602HK4    H1850511   1.332   5.795   7.273 -0.3518 -0.6425 -0.2533
  602HK4    C3750512   1.505   5.900   7.208 -0.1051  0.2759  0.4243
  602HK4    H1950513   1.468   5.913   7.106 -2.6241  1.3859  1.4247
  602HK4    C3850514   1.637   5.932   7.236 -0.0266  0.4257 -0.1049
  602HK4    H2050515   1.697   5.989   7.165  0.6857  0.7822  0.7753
  602HK4    C1450516   2.179   5.879   7.661  0.1038 -0.3034 -0.2225
  602HK4     C950517   2.287   5.969   7.663  0.1542 -0.3658 -0.2073
  602HK4     C850518   2.407   5.934   7.728  0.1301  0.4100  0.2622
  602HK4    C1150519   2.415   5.813   7.797  0.0634  0.4702  0.3783
  602HK4     H450520   2.508   5.796   7.853 -0.6076 -0.5103  1.2113
  602HK4    C1250521   2.312   5.720   7.796  0.1090  0.4224  0.1292
  602HK4     H550522   2.311   5.645   7.876  0.8398  0.3874  0.1017
  602HK4    C1350523   2.199   5.754   7.722 -0.2483 -0.0256  0.4669
  602HK4     H650524   2.126   5.676   7.695 -0.1436  0.1743 -0.4088
  602HK4     C750525   2.536   5.999   7.698  0.0289  0.6361  0.3199
  602HK4     O250526   2.621   6.012   7.787  0.2272  0.0037  0.2285
  602HK4     C450527   2.527   6.094   7.585 -0.4713  0.2338  0.0197
  602HK4     C350528   2.651   6.127   7.532 -0.5237  0.3849 -0.0114
  602HK4     H350529   2.733   6.053   7.536 -0.0086  0.9221 -0.5420
  602HK4     C250530   2.654   6.234   7.444  0.2116  0.3058 -0.0864
  602HK4     H250531   2.751   6.286   7.450 -0.7289  1.9752  1.3525
  602HK4     C150532   2.541   6.305   7.405  0.1803  0.5247  0.4005
  602HK4     H150533   2.555   6.394   7.342 -0.4339  0.1089 -0.3339
  602HK4     C650534   2.417   6.273   7.465  0.0168  0.2073 -0.1074
  602HK4     C550535   2.410   6.167   7.555 -0.4256  0.2701 -0.0678
  602HK4    C1050536   2.283   6.105   7.604 -0.1359 -0.2900 -0.0171
  602HK4     O150537   2.186   6.167   7.647 -0.0597  0.1988 -0.5493
  602HK4    C1650538   2.303   6.325   7.388  0.1615  0.2688 -0.2804
  602HK4    C1550539   2.315   6.349   7.249 -0.0358 -0.4796 -0.4278
  602HK4     H750540   2.401   6.311   7.193 -0.3567  1.2187 -2.1068
  602HK4    C2050541   2.225   6.429   7.180 -0.2131 -0.0799  0.2644
  602HK4     H950542   2.240   6.473   7.082 -0.6733  0.3719  0.3922
  602HK4    C1950543   2.114   6.474   7.250 -0.4156 -0.4457  0.1825
  602HK4    C1850544   2.096   6.459   7.393 -0.1258 -0.0131  0.2659
  602HK4    C1750545   2.195   6.382   7.453  0.5187  0.6090  0.0218
  602HK4     H850546   2.196   6.384   7.562  1.0558  0.0199  0.0301
  602HK4     N150547   2.002   6.548   7.450 -0.6911 -0.3203 -0.1872
  602HK4    C2150548   1.961   6.628   7.341 -0.1817  0.1226 -0.0537
  602HK4    C2250549   2.017   6.578   7.217  0.3086  0.2185  0.1292
  602HK4    C2650550   1.968   6.614   7.093  0.7886  0.3286 -0.0308
  602HK4    H1350551   2.000   6.562   7.002 -0.8388 -0.0662 -0.4003
  602HK4    C2550552   1.864   6.706   7.094 -0.0753 -0.6438 -0.0440
  602HK4    H1250553   1.822   6.725   6.995  0.7203 -1.3832 -0.5318
  602HK4    C2450554   1.804   6.754   7.210 -0.1722  0.0083 -0.3610
  602HK4    H1150555   1.705   6.799   7.192 -0.0410  0.9566  1.2164
  602HK4    C2350556   1.854   6.716   7.334 -0.2236  0.0494 -0.3296
  602HK4    H1050557   1.792   6.730   7.423  1.9134  0.4089  1.1252
  602HK4    C3950558   1.929   6.518   7.565  0.4259 -0.0610  0.5975
  602HK4    C4150559   1.863   6.623   7.631 -0.1542  0.2096 -0.4078
  602HK4    H2150560   1.916   6.719   7.639 -1.1227  0.6499  1.0234
  602HK4    C4250561   1.739   6.610   7.695  0.0060  0.0828 -0.1220
  602HK4    H2250562   1.677   6.693   7.731 -2.8507 -1.7669 -0.6362
  602HK4    C4350563   1.677   6.486   7.709  0.2691  0.0192  0.4744
  602HK4    H2350564   1.601   6.474   7.786 -0.2371  1.2514  0.1816
  602HK4    C4450565   1.734   6.381   7.639 -0.3338  0.1119 -0.1575
  602HK4    H2450566   1.672   6.290   7.627  0.5998 -0.5942  0.2782
  602HK4    C4550567   1.854   6.399   7.571 -0.0351  0.2176  0.3914
  602HK4    H2550568   1.883   6.318   7.501 -1.0656  0.1270  0.0590
  603HK4    H2850569   8.558   0.387   7.549 -1.8057  1.4319  0.9752
  603HK4    C4850570   8.528   0.292   7.594  0.3864  0.2306 -0.0215
  603HK4    C4750571   8.613   0.205   7.660 -0.4742 -0.0549  0.7160
  603HK4    H2750572   8.702   0.262   7.688 -1.8293  1.6225  1.6951
  603HK4    C4650573   8.559   0.088   7.714 -0.8862 -0.4007 -0.4323
  603HK4    H2650574   8.619   0.036   7.790 -2.8145  0.1282  1.5282
  603HK4    C4050575   8.427   0.041   7.698 -1.2679  0.3343  0.4882
  603HK4    C5050576   8.348   0.130   7.622 -0.4106  0.6681 -0.0193
  603HK4    H3050577   8.239   0.117   7.616 -0.4647 -0.0954  2.1975
  603HK4    C4950578   8.397   0.251   7.574  0.2963  0.4432  0.1215
  603HK4    H2950579   8.322   0.314   7.524  1.5573  2.0436  0.2416
  603HK4     N250580   8.402  11.154   7.669 -0.3100  0.2772 -0.0861
  603HK4    C3050581   8.484  11.066   7.595 -0.2051  0.5501 -0.2930
  603HK4    C2950582   8.571  11.091   7.489  0.0533 -0.0585 -0.2194
  603HK4    H1550583   8.602  11.195   7.486 -0.7364  0.3016  2.4793
  603HK4    C2850584   8.618  10.989   7.406  0.3879 -0.0638 -0.0223
  603HK4    C2750585   8.589  10.855   7.438  0.5179 -0.0140  0.3149
  603HK4    H1450586   8.646  10.778   7.384 -2.3016 -2.0890  0.1836
  603HK4    C3250587   8.508  10.826   7.547  0.1634  0.3461  0.1493
  603HK4    H1650588   8.473  10.726   7.571 -1.5142  0.5453 -1.4134
  603HK4    C3150589   8.452  10.928   7.624 -0.2251  0.5346 -0.3824
  603HK4    C3450590   8.346  10.937   7.722 -0.0816 -0.2418 -0.1433
  603HK4    C3350591   8.314  11.077   7.746  0.0386 -0.2082 -0.1721
  603HK4    C3550592   8.194  11.113   7.807 -0.1848 -0.2514 -0.5822
  603HK4    H1750593   8.186  11.215   7.844  1.2087 -0.5384  0.5637
  603HK4    C3650594   8.102  11.014   7.838 -0.7173  0.2082 -0.6769
  603HK4    H1850595   8.004  11.043   7.879 -0.1786 -2.6533  2.9378
  603HK4    C3750596   8.135  10.879   7.828  0.1928  0.3792 -0.0600
  603HK4    H1950597   8.060  10.804   7.853  1.2373  0.0054  1.9817
  603HK4    C3850598   8.253  10.843   7.763  0.0668 -0.2865  0.0776
  603HK4    H2050599   8.268  10.743   7.724  0.2018 -1.9078  4.0092
  603HK4    C1450600   8.664  11.023   7.271  0.4332 -0.5459 -0.1284
  603HK4     C950601   8.637  10.946   7.157  0.1147 -0.4435 -0.1232
  603HK4     C850602   8.736  10.934   7.058  0.3615  0.1828  0.0410
  603HK4    C1150603   8.852  11.010   7.066  0.1670  0.5106 -0.2516
  603HK4     H450604   8.929  11.008   6.988 -1.4656  1.2030 -1.9005
  603HK4    C1250605   8.872  11.100   7.170  0.1819 -0.4348  0.5719
  603HK4     H550606   8.942  11.184   7.162  1.8233 -1.7380  0.9265
  603HK4    C1350607   8.775  11.110   7.270 -0.0374  0.0689  0.3150
  603HK4     H650608   8.774  11.202   7.330 -3.9795 -1.8560  3.4874
  603HK4     C750609   8.712  10.845   6.941  0.2677  0.1160  0.1113
  603HK4     O250610   8.772  10.871   6.837 -0.6456  0.5784 -0.3001
  603HK4     C450611   8.586  10.768   6.938  0.0864  0.4026  0.3119
  603HK4     C350612   8.583  10.662   6.848  0.0616  0.3237  0.4047
  603HK4     H350613   8.669  10.643   6.783  0.8161 -3.0297  2.2366
  603HK4     C250614   8.486  10.562   6.856  0.0579  0.3117  0.2106
  603HK4     H250615   8.504  10.466   6.804 -0.5366  0.3703 -0.1073
  603HK4     C150616   8.398  10.567   6.963 -0.1376 -0.3310  0.0801
  603HK4     H150617   8.315  10.495   6.971  1.2640 -2.3762 -3.0696
  603HK4     C650618   8.396  10.672   7.057  0.0982 -0.2133 -0.0471
  603HK4     C550619   8.491  10.773   7.042  0.4121 -0.3994  0.6562
  603HK4    C1050620   8.502  10.884   7.142 -0.1430  0.0198  0.2549
  603HK4     O150621   8.404  10.955   7.161 -0.3673 -0.1803 -0.1445
  603HK4    C1650622   8.352  10.641   7.194  0.9941  0.0742  0.3100
  603HK4    C1550623   8.398  10.523   7.257  0.6340  0.0674  0.5618
  603HK4     H750624   8.491  10.477   7.221 -0.1091 -0.7467 -0.3381
  603HK4    C2050625   8.347  10.480   7.379 -0.5402  0.1725  0.1150
  603HK4     H950626   8.368  10.376   7.406  3.6370  1.1190  0.7646
  603HK4    C1950627   8.252  10.558   7.443 -0.0889  0.6993  0.1413
  603HK4    C1850628   8.205  10.680   7.380 -0.4081  0.2334 -0.5279
  603HK4    C1750629   8.253  10.717   7.255  0.1729 -0.3591 -0.4815
  603HK4     H850630   8.223  10.812   7.210 -0.7053 -0.1738  0.4851
  603HK4     N150631   8.079  10.714   7.434 -0.1049  0.2449  0.1606
  603HK4    C2150632   8.045  10.622   7.535 -0.6355 -0.2766 -0.4955
  603HK4    C2250633   8.151  10.523   7.540 -0.0237  0.4036  0.1031
  603HK4    C2650634   8.163  10.438   7.649 -0.1455  0.1003 -0.1208
  603HK4    H1350635   8.253  10.376   7.654 -0.7257 -0.7781 -0.4558
  603HK4    C2550636   8.071  10.447   7.753 -0.0029 -0.2112  0.0348
  603HK4    H1250637   8.075  10.382   7.840 -0.7232  0.3325  0.4806
  603HK4    C2450638   7.971  10.544   7.749  0.1068 -0.0995 -0.0989
  603HK4    H1150639   7.900  10.551   7.832 -1.6124 -0.1649 -1.5430
  603HK4    C2350640   7.955  10.631   7.641  0.2325  0.2921  0.1996
  603HK4    H1050641   7.897  10.720   7.664  0.1632 -0.2004  2.0667
  603HK4    C3950642   8.030  10.845   7.433  0.0629  0.3054 -0.1876
  603HK4    C4150643   7.894  10.864   7.466  0.2152 -0.0413  0.6443
  603HK4    H2150644   7.822  10.789   7.431 -0.1425 -0.1685  1.6518
  603HK4    C4250645   7.853  10.990   7.510 -0.0854 -0.1797  0.7539
  603HK4    H2250646   7.745  11.000   7.528 -0.2105 -0.6114  0.2609
  603HK4    C4350647   7.940  11.098   7.520  0.2769 -0.3512 -0.4306
  603HK4    H2350648   7.904  11.200   7.524  0.0376 -0.3743 -2.0000
  603HK4    C4450649   8.075  11.077   7.493  0.4161  0.0943 -0.0787
  603HK4    H2450650   8.149  11.158   7.506  0.0768  0.8824 -2.6162
  603HK4    C4550651   8.120  10.952   7.453  0.3144  0.1031 -0.2216
  603HK4    H2550652   8.227  10.945   7.429  0.5967 -1.2220  1.3205
  604HK4    H2850653  10.543   8.552   8.565  0.2629  0.3219  1.6334
  604HK4    C4850654  10.558   8.645   8.510  0.1069 -0.6271 -0.0426
  604HK4    C4750655  10.511   8.766   8.558 -0.2824 -0.7189 -0.1987
  604HK4    H2750656  10.499   8.783   8.666  2.6327 -0.0693  0.0531
  604HK4    C4650657  10.513   8.875   8.472  0.0298 -0.0987  0.5923
  604HK4    H2650658  10.487   8.971   8.521  0.5206  0.1689  0.3368
  604HK4    C4050659  10.550   8.869   8.336 -0.2666  0.1573  0.4993
  604HK4    C5050660  10.593   8.743   8.291  0.4613  0.3707  0.5879
  604HK4    H3050661  10.623   8.737   8.186 -0.2947  1.8066  0.2756
  604HK4    C4950662  10.598   8.633   8.377  0.6296 -0.0348  0.0550
  604HK4    H2950663  10.644   8.544   8.332 -1.3756  0.6281 -3.5214
  604HK4     N250664  10.569   8.988   8.265 -0.1506 -0.0284  0.2219
  604HK4    C3050665  10.624   9.113   8.301  0.4634 -0.2085 -0.0776
  604HK4    C2950666  10.703   9.142   8.412  0.5507 -0.4439 -0.0770
  604HK4    H1550667  10.745   9.055   8.463 -0.0825  0.2228  1.6530
  604HK4    C2850668  10.755   9.268   8.436 -0.6253  0.0081  0.1305
  604HK4    C2750669  10.722   9.370   8.343 -0.6230  0.2671  0.4087
  604HK4    H1450670  10.750   9.476   8.351 -1.3248  0.5457 -0.7991
  604HK4    C3250671  10.632   9.346   8.241 -0.5639 -0.3420  0.4903
  604HK4    H1650672  10.580   9.427   8.189  0.3007 -0.5558 -0.7254
  604HK4    C3150673  10.581   9.220   8.213 -0.3877 -0.3444  0.1721
  604HK4    C3450674  10.492   9.157   8.117  0.0864 -0.3031 -0.2990
  604HK4    C3350675  10.497   9.015   8.147 -0.3317 -0.1973  0.2955
  604HK4    C3550676  10.447   8.928   8.051 -0.8376 -0.0142  0.3929
  604HK4    H1750677  10.448   8.820   8.062  1.6809 -0.2616 -1.7575
  604HK4    C3650678  10.399   8.979   7.930 -0.1897 -0.6442 -0.1331
  604HK4    H1850679  10.355   8.910   7.856  1.6471  2.2047 -4.0442
  604HK4    C3750680  10.394   9.115   7.904  0.4455 -0.5102  0.4226
  604HK4    H1950681  10.355   9.148   7.808  1.1760  0.9060  0.5988
  604HK4    C3850682  10.445   9.206   7.996  0.3313  0.1854 -0.1963
  604HK4    H2050683  10.461   9.311   7.971  0.7919  0.0191 -0.6234
  604HK4    C1450684  10.814   9.299   8.567 -0.1479 -0.3611  0.0043
  604HK4     C950685  10.817   9.426   8.626  0.1270 -0.4849  0.2556
  604HK4     C850686  10.925   9.471   8.704  0.2673  0.2294 -0.3397
  604HK4    C1150687  11.024   9.379   8.736 -0.3699 -0.2104  0.3729
  604HK4     H450688  11.117   9.407   8.788  0.0321  0.4022 -0.6466
  604HK4    C1250689  11.010   9.245   8.700 -0.5134 -0.0410 -0.2005
  604HK4     H550690  11.085   9.172   8.733 -0.9924 -0.0145  0.9668
  604HK4    C1350691  10.910   9.206   8.612 -0.4597 -0.6797  0.0230
  604HK4     H650692  10.890   9.100   8.592  0.9493 -1.4074  2.2587
  604HK4     C750693  10.938   9.605   8.765  0.1644  0.1301 -0.0991
  604HK4     O250694  11.048   9.647   8.801 -0.1478  0.9805 -0.1202
  604HK4     C450695  10.819   9.693   8.764  0.0792  0.0320  0.7667
  604HK4     C350696  10.826   9.828   8.796  0.2200  0.0744  0.5705
  604HK4     H350697  10.924   9.877   8.787  1.0178 -1.8827 -1.7613
  604HK4     C250698  10.710   9.906   8.799  0.2009  0.1136 -0.6317
  604HK4     H250699  10.720  10.015   8.788  0.4159  0.0852 -0.7392
  604HK4     C150700  10.590   9.836   8.796  0.3560 -0.1642 -0.4048
  604HK4     H150701  10.497   9.895   8.791  1.0878  1.1381  0.8507
  604HK4     C650702  10.582   9.696   8.786  0.2694 -0.2485  0.7630
  604HK4     C550703  10.697   9.625   8.750  0.2050 -0.0918  0.2487
  604HK4    C1050704  10.697   9.509   8.656  0.3677 -0.1722  0.3434
  604HK4     O150705  10.590   9.487   8.599  0.2942  0.2113  0.3333
  604HK4    C1650706  10.464   9.629   8.844 -0.3720  0.2615  0.0591
  604HK4    C1550707  10.354   9.694   8.903 -0.2073  0.3095  0.3156
  604HK4     H750708  10.329   9.800   8.883 -1.1599  0.3787  1.7512
  604HK4    C2050709  10.269   9.629   8.992 -0.5306 -0.0459 -0.2561
  604HK4     H950710  10.188   9.695   9.022 -0.2837  0.6285 -1.0344
  604HK4    C1950711  10.289   9.494   9.019 -0.5414  0.0732  0.3459
  604HK4    C1850712  10.400   9.422   8.959 -0.0292  0.5098  0.7577
  604HK4    C1750713  10.482   9.494   8.872  0.0385  0.4573  0.7820
  604HK4     H850714  10.572   9.438   8.846  0.7927  2.2732 -0.6320
  604HK4     N150715  10.420   9.295   9.017  0.0910  0.3260  0.3161
  604HK4    C2150716  10.323   9.286   9.119 -0.0393  0.2259  0.1842
  604HK4    C2250717  10.241   9.405   9.123 -0.1460  0.1369  0.5885
  604HK4    C2650718  10.153   9.421   9.229 -0.0049 -0.2136  0.7601
  604HK4    H1350719  10.108   9.521   9.237 -0.3121 -0.1934 -0.9963
  604HK4    C2550720  10.138   9.321   9.324  0.2192 -0.2192  0.7875
  604HK4    H1250721  10.074   9.335   9.411 -1.0212  1.1491 -0.3294
  604HK4    C2450722  10.211   9.202   9.317  0.0088 -0.3029 -0.1279
  604HK4    H1150723  10.212   9.133   9.403 -1.1362 -0.2906 -0.0960
  604HK4    C2350724  10.299   9.186   9.212 -0.1343 -0.1714 -0.2688
  604HK4    H1050725  10.336   9.084   9.197  2.1062  0.3378  1.4133
  604HK4    C3950726  10.500   9.187   8.979  0.2833  0.4635  0.3221
  604HK4    C4150727  10.528   9.160   8.843  0.0861 -0.4118  0.4528
  604HK4    H2150728  10.477   9.222   8.768  1.8919 -0.1511 -0.5647
  604HK4    C4250729  10.623   9.067   8.804  0.3385  0.1425 -0.2654
  604HK4    H2250730  10.664   9.070   8.702  0.9839 -2.5863 -0.1424
  604HK4    C4350731  10.693   8.990   8.896 -0.3985  0.4681  0.5761
  604HK4    H2350732  10.780   8.930   8.870 -2.4793 -2.0638 -0.8376
  604HK4    C4450733  10.660   9.009   9.029  0.3313  0.5628  0.7480
  604HK4    H2450734  10.720   8.952   9.101  1.6809  2.7469  1.4063
  604HK4    C4550735  10.573   9.110   9.071 -0.0947  0.3050  0.4902
  604HK4    H2550736  10.604   9.155   9.167  1.2663 -0.3985  0.3913
  605HK4    H2850737   1.223   4.174   2.276 -2.3390  0.3667  0.1077
  605HK4    C4850738   1.206   4.152   2.381 -0.0300 -0.4325  0.3235
  605HK4    C4750739   1.312   4.112   2.462  0.1474 -0.0224  0.2946
  605HK4    H2750740   1.404   4.079   2.412 -0.3677  0.5872 -1.0528
  605HK4    C4650741   1.293   4.096   2.599 -0.4351  0.6213  0.2921
  605HK4    H2650742   1.383   4.056   2.648  0.2079  2.1027  0.3177
  605HK4    C4050743   1.172   4.131   2.662 -0.6397  0.1156  0.1829
  605HK4    C5050744   1.071   4.180   2.576 -0.4498  0.1360 -0.0281
  605HK4    H3050745   0.979   4.218   2.622  0.0558  0.9932  0.3069
  605HK4    C4950746   1.083   4.182   2.437  0.1829  0.9809  0.0340
  605HK4    H2950747   0.997   4.206   2.372 -0.8432 -0.4027  0.8465
  605HK4     N250748   1.153   4.143   2.800 -0.1443 -0.4664  0.3038
  605HK4    C3050749   1.029   4.131   2.866 -0.1516 -0.0901  0.3579
  605HK4    C2950750   0.925   4.051   2.819  0.1880 -0.3860  0.1156
  605HK4    H1550751   0.936   3.990   2.728  1.3243 -0.1145  0.0631
  605HK4    C2850752   0.803   4.045   2.885  0.0800 -0.3384 -0.0787
  605HK4    C2750753   0.800   4.115   3.007 -0.1687  0.4210 -0.5149
  605HK4    H1450754   0.707   4.107   3.065 -1.2418 -1.3174 -2.4242
  605HK4    C3250755   0.905   4.188   3.062 -0.2971  0.0080  0.2854
  605HK4    H1650756   0.899   4.241   3.157 -1.8887 -0.5542  0.5241
  605HK4    C3150757   1.022   4.206   2.990 -0.2883 -0.0016  0.2979
  605HK4    C3450758   1.159   4.246   3.014 -0.1596 -0.2129 -0.0723
  605HK4    C3350759   1.232   4.212   2.893 -0.4282  1.1703 -0.6428
  605HK4    C3550760   1.369   4.233   2.892 -0.2420  0.0883  0.3170
  605HK4    H1750761   1.419   4.223   2.795 -0.1956 -0.0022  0.3500
  605HK4    C3650762   1.439   4.283   3.001 -0.0673 -0.3501  0.4077
  605HK4    H1850763   1.548   4.282   2.989 -0.3162 -0.2658 -2.1410
  605HK4    C3750764   1.370   4.315   3.117 -0.1301  0.5811  0.1157
  605HK4    H1950765   1.425   4.349   3.205 -1.0578 -0.7895  1.2388
  605HK4    C3850766   1.232   4.296   3.121 -0.0777  0.1122 -0.2777
  605HK4    H2050767   1.171   4.332   3.204  0.9466  0.6125  0.2667
  605HK4    C1450768   0.680   4.042   2.804 -0.0459 -0.1628  0.1060
  605HK4     C950769   0.571   4.127   2.824  0.0976  0.1841 -0.5784
  605HK4     C850770   0.440   4.080   2.798  0.0152 -0.3293  0.7489
  605HK4    C1150771   0.424   3.951   2.749  0.4114  0.1434 -0.6474
  605HK4     H450772   0.321   3.918   2.727 -0.3771  0.4303  2.3454
  605HK4    C1250773   0.529   3.862   2.732  0.1979 -0.4553  1.0130
  605HK4     H550774   0.509   3.757   2.706  4.2604 -1.3478  1.1840
  605HK4    C1350775   0.657   3.910   2.761  0.3749 -0.1066 -0.2996
  605HK4     H650776   0.740   3.849   2.724 -0.0327 -0.5567 -0.4835
  605HK4     C750777   0.323   4.168   2.818  0.1144 -0.2691  1.0859
  605HK4     O250778   0.211   4.116   2.816 -0.2033  0.4360  0.0614
  605HK4     C450779   0.344   4.312   2.842  0.3370  0.0178 -0.7233
  605HK4     C350780   0.232   4.394   2.856  0.3609 -0.0083 -0.3726
  605HK4     H350781   0.141   4.379   2.796  0.1687 -0.4779  0.0361
  605HK4     C250782   0.238   4.499   2.947 -0.4885 -0.1811 -0.1193
  605HK4     H250783   0.147   4.540   2.994  1.0794  0.4757  2.4390
  605HK4     C150784   0.357   4.536   3.007 -0.2947 -0.7625 -0.1423
  605HK4     H150785   0.370   4.644   3.025 -1.1170 -0.8862  1.2588
  605HK4     C650786   0.475   4.460   2.992  0.1371 -0.1209 -0.0115
  605HK4     C550787   0.464   4.352   2.904 -0.0407 -0.2777  0.2030
  605HK4    C1050788   0.582   4.269   2.866  0.0887  0.0425 -0.0864
  605HK4     O150789   0.677   4.333   2.820  0.2599  0.0069  0.2163
  605HK4    C1650790   0.595   4.496   3.069  0.3722  0.0632 -0.4593
  605HK4    C1550791   0.628   4.630   3.097  0.5511 -0.1582  0.3938
  605HK4     H750792   0.596   4.705   3.024  0.5519 -1.1476 -0.6443
  605HK4    C2050793   0.692   4.670   3.214  0.3846  0.3305  0.3199
  605HK4     H950794   0.718   4.772   3.241  1.1549  0.6166 -1.4211
  605HK4    C1950795   0.729   4.573   3.307  0.3298 -0.0281 -0.0345
  605HK4    C1850796   0.696   4.433   3.286  0.6028 -0.0229 -0.5221
  605HK4    C1750797   0.638   4.403   3.163 -0.3970  0.0939 -0.0796
  605HK4     H850798   0.630   4.297   3.140 -2.0016 -0.2564  1.9232
  605HK4     N150799   0.742   4.345   3.386 -0.5964 -0.0312  0.0241
  605HK4    C2150800   0.809   4.434   3.473 -0.2295 -0.3425  0.0561
  605HK4    C2250801   0.798   4.573   3.434 -0.5005 -0.2635  0.4171
  605HK4    C2650802   0.870   4.670   3.504 -0.5216  0.1848 -0.1787
  605HK4    H1350803   0.873   4.771   3.464 -5.0690 -0.3461 -2.1532
  605HK4    C2550804   0.945   4.641   3.617 -0.4057 -0.1490 -0.3412
  605HK4    H1250805   1.022   4.709   3.654  0.0296 -0.0069 -1.4879
  605HK4    C2450806   0.957   4.506   3.648 -0.4957 -0.1303 -0.2174
  605HK4    H1150807   1.026   4.480   3.730  0.2369  1.2522 -0.3838
  605HK4    C2350808   0.895   4.403   3.577  0.8745 -0.5050 -0.8883
  605HK4    H1050809   0.901   4.304   3.622  0.9963  0.6596  1.7742
  605HK4    C3950810   0.682   4.222   3.414 -0.1484 -0.3223 -0.3027
  605HK4    C4150811   0.748   4.135   3.503 -0.0104  0.2340  0.1439
  605HK4    H2150812   0.857   4.126   3.490 -0.0412  1.1154 -0.8128
  605HK4    C4250813   0.684   4.041   3.583  0.0153 -0.1551 -0.2914
  605HK4    H2250814   0.740   3.999   3.667 -1.2847  0.3505  0.8482
  605HK4    C4350815   0.547   4.020   3.567 -0.0818 -0.0743  0.4026
  605HK4    H2350816   0.484   3.964   3.636 -1.4532  1.0960  0.1210
  605HK4    C4450817   0.482   4.093   3.468  0.8695  0.3395  0.0795
  605HK4    H2450818   0.377   4.071   3.449  1.6910 -2.6086 -1.2825
  605HK4    C4550819   0.545   4.194   3.395 -0.1611  0.2002 -1.0084
  605HK4    H2550820   0.486   4.254   3.325 -0.3184 -0.2246 -1.2435
  606HK4    H2850821   7.641   6.981   0.729  0.7550  2.9410 -1.1495
  606HK4    C4850822   7.721   6.944   0.664  0.2294 -0.3757  0.0164
  606HK4    C4750823   7.734   6.996   0.536 -0.1602 -0.3259 -0.0033
  606HK4    H2750824   7.688   7.093   0.509  1.3850 -0.0325 -1.6524
  606HK4    C4650825   7.784   6.913   0.437  0.6002 -0.0136  0.1161
  606HK4    H2650826   7.774   6.945   0.332 -2.5407 -1.1558 -0.0003
  606HK4    C4050827   7.840   6.786   0.461 -0.2524 -0.4068  0.0555
  606HK4    C5050828   7.837   6.747   0.597 -0.0912 -0.2835  0.0945
  606HK4    H3050829   7.905   6.667   0.630  1.6358  1.5984  1.1582
  606HK4    C4950830   7.777   6.821   0.698 -0.0311 -0.4356  0.2415
  606HK4    H2950831   7.759   6.788   0.801 -2.1688 -1.1727 -0.3347
  606HK4     N250832   7.924   6.720   0.371 -0.3012 -0.1656 -0.1667
  606HK4    C3050833   7.932   6.579   0.365  0.2723 -0.1197 -0.4985
  606HK4    C2950834   7.825   6.495   0.337 -0.3111  0.2080  0.7238
  606HK4    H1550835   7.729   6.534   0.371 -0.8778  0.9905 -1.7149
  606HK4    C2850836   7.850   6.365   0.295 -0.1383  0.4371  0.1087
  606HK4    C2750837   7.983   6.323   0.271 -0.1999  0.6314 -0.5821
  606HK4    H1450838   7.994   6.223   0.227 -1.1295  0.0401  0.4955
  606HK4    C3250839   8.089   6.411   0.291  0.2075  0.0885 -0.3338
  606HK4    H1650840   8.187   6.383   0.253  0.4613 -0.8560  0.9844
  606HK4    C3150841   8.070   6.539   0.342  0.3701  0.0787 -0.2510
  606HK4    C3450842   8.151   6.659   0.339 -0.1678  0.4363 -0.7649
  606HK4    C3350843   8.055   6.767   0.347 -0.4584  0.1512 -0.4036
  606HK4    C3550844   8.096   6.896   0.317  0.0159  0.0785 -0.0585
  606HK4    H1750845   8.026   6.976   0.294  0.0006 -0.0546 -0.4797
  606HK4    C3650846   8.232   6.920   0.295 -0.0448  0.0814 -0.4410
  606HK4    H1850847   8.268   7.024   0.300  1.4086 -0.4991  1.9395
  606HK4    C3750848   8.323   6.815   0.290 -0.3649 -0.2105 -0.1064
  606HK4    H1950849   8.427   6.836   0.267 -0.2393  1.0100  1.4332
  606HK4    C3850850   8.285   6.683   0.309  0.1534 -0.3408  0.0355
  606HK4    H2050851   8.362   6.606   0.303 -0.0395 -0.6093  0.9239
  606HK4    C1450852   7.732   6.281   0.275 -0.0570  0.3818 -0.1337
  606HK4     C950853   7.728   6.141   0.282  0.4420  0.3569 -0.3269
  606HK4     C850854   7.664   6.062   0.183  0.0720  0.3571 -0.0861
  606HK4    C1150855   7.605   6.121   0.072  0.0565  0.0629 -0.2319
  606HK4     H450856   7.616   6.062  11.228  0.9203 -0.8666  0.4519
  606HK4    C1250857   7.599   6.259   0.073 -0.0889  0.0531  0.0006
  606HK4     H550858   7.560   6.311  11.232  0.1878 -3.5973 -2.3599
  606HK4    C1350859   7.643   6.336   0.181 -0.1120  0.2715 -0.1458
  606HK4     H650860   7.622   6.444   0.182 -1.7716  0.0038 -2.0855
  606HK4     C750861   7.679   5.915   0.184 -0.1641  0.3331  0.0951
  606HK4     O250862   7.634   5.846   0.093 -0.6976  0.5036  0.2281
  606HK4     C450863   7.743   5.848   0.299  0.2152  0.2820 -0.1434
  606HK4     C350864   7.750   5.709   0.296 -0.2439  0.2396  0.6147
  606HK4     H350865   7.726   5.644   0.211 -0.4315 -1.0341  1.6256
  606HK4     C250866   7.813   5.645   0.402 -0.1492 -0.2181  0.2783
  606HK4     H250867   7.819   5.535   0.395  1.9496 -0.0833 -0.4510
  606HK4     C150868   7.874   5.725   0.498  0.4778 -0.1282 -0.1888
  606HK4     H150869   7.920   5.687   0.591  1.6275  0.4227 -0.5299
  606HK4     C650870   7.891   5.864   0.489  0.0326 -0.0530  0.1050
  606HK4     C550871   7.805   5.927   0.398  0.2967  0.0939 -0.0430
  606HK4    C1050872   7.787   6.075   0.402 -0.5584 -0.0074 -0.0308
  606HK4     O150873   7.766   6.132   0.509  0.0313 -0.1182  0.1430
  606HK4    C1650874   8.018   5.918   0.540  0.0136 -0.3100  0.4252
  606HK4    C1550875   8.133   5.837   0.537  0.5029  0.4048 -0.2377
  606HK4     H750876   8.125   5.730   0.514 -1.4752 -0.1914  2.9008
  606HK4    C2050877   8.256   5.883   0.583  0.6264  0.3276 -0.4792
  606HK4     H950878   8.344   5.822   0.565  0.5330 -0.2294  0.9239
  606HK4    C1950879   8.275   6.010   0.637 -0.0319  0.2803 -0.1340
  606HK4    C1850880   8.154   6.090   0.643  0.0410  0.3570  0.2650
  606HK4    C1750881   8.031   6.042   0.601  0.2672 -0.3013  0.3529
  606HK4     H850882   7.943   6.082   0.651 -0.4512 -0.4821 -0.7310
  606HK4     N150883   8.181   6.206   0.719  0.1267  0.6651 -0.2376
  606HK4    C2150884   8.320   6.204   0.740 -0.0228 -0.5671  0.7121
  606HK4    C2250885   8.383   6.079   0.704  0.1345 -0.3619  0.2562
  606HK4    C2650886   8.521   6.066   0.717  0.2833 -0.3534 -1.2122
  606HK4    H1350887   8.559   5.965   0.720 -0.8556 -0.7465  2.2297
  606HK4    C2550888   8.605   6.167   0.763 -0.2891 -0.5301  0.2563
  606HK4    H1250889   8.711   6.143   0.766 -0.6928 -2.2727  1.2766
  606HK4    C2450890   8.537   6.285   0.790 -0.0890 -0.4956  0.6005
  606HK4    H1150891   8.598   6.370   0.824 -0.3202 -0.7363  1.6598
  606HK4    C2350892   8.401   6.311   0.779  0.0755 -0.1494 -0.6179
  606HK4    H1050893   8.363   6.412   0.790 -1.5642 -0.7273 -0.7155
  606HK4    C3950894   8.099   6.314   0.754 -0.3821  0.2037  0.0008
  606HK4    C4150895   8.117   6.381   0.877 -0.4137  0.7347 -0.2815
  606HK4    H2150896   8.198   6.356   0.948 -1.3786 -2.6479 -0.3174
  606HK4    C4250897   8.022   6.474   0.918 -0.5626  0.4686 -0.0273
  606HK4    H2250898   8.045   6.544   1.000 -1.7113  0.8681 -0.0421
  606HK4    C4350899   7.909   6.488   0.839 -0.5389 -0.7965 -0.2963
  606HK4    H2350900   7.830   6.545   0.887 -0.9077 -1.0977 -0.5396
  606HK4    C4450901   7.891   6.429   0.715  0.0500  0.0552 -0.7894
  606HK4    H2450902   7.797   6.441   0.658 -1.2947  1.0586  1.5989
  606HK4    C4550903   7.991   6.345   0.668  0.0085 -0.0979 -0.6011
  606HK4    H2550904   7.994   6.327   0.560 -0.1249 -0.5030 -0.5399
  607HK4    H2850905   4.402   5.178   0.843 -0.4719 -1.3520  1.4011
  607HK4    C4850906   4.351   5.261   0.891  0.2810  0.0617 -0.1981
  607HK4    C4750907   4.392   5.394   0.885 -0.0451  0.1922  0.4345
  607HK4    H2750908   4.493   5.417   0.847  0.0153 -0.9325 -0.0985
  607HK4    C4650909   4.319   5.503   0.931 -0.5540 -0.0907  0.2916
  607HK4    H2650910   4.352   5.601   0.895  1.8221 -0.7802  0.4862
  607HK4    C4050911   4.196   5.483   0.998 -0.4728 -0.2668  0.3903
  607HK4    C5050912   4.172   5.349   1.033  0.1691 -0.3825  0.4063
  607HK4    H3050913   4.105   5.326   1.117  0.4200  0.1074  0.7450
  607HK4    C4950914   4.242   5.243   0.975  0.8597 -0.0076  0.5486
  607HK4    H2950915   4.205   5.141   0.989 -2.2502  1.2590  2.1434
  607HK4     N250916   4.119   5.591   1.043 -0.2701  0.0441 -0.0113
  607HK4    C3050917   4.162   5.725   1.039  0.1619 -0.0953 -0.0081
  607HK4    C2950918   4.288   5.783   1.046 -0.0794  0.4378 -0.0171
  607HK4    H1550919   4.368   5.725   1.092  0.4300  0.5438 -0.7593
  607HK4    C2850920   4.305   5.920   1.025  0.0716  0.5300  0.7021
  607HK4    C2750921   4.195   6.004   1.003  0.0182  0.2555 -0.0870
  607HK4    H1450922   4.212   6.113   1.003  1.2600  0.0809 -1.8376
  607HK4    C3250923   4.068   5.949   0.993  0.4927 -0.7394 -0.7356
  607HK4    H1650924   3.999   6.000   0.926  0.4447 -1.8156 -1.5255
  607HK4    C3150925   4.049   5.815   1.026 -0.1017 -0.3199  0.7136
  607HK4    C3450926   3.931   5.731   1.021 -0.4448  0.2048 -0.0335
  607HK4    C3350927   3.978   5.595   1.032 -0.2956  0.2936  0.4082
  607HK4    C3550928   3.886   5.492   1.016  0.0866  0.1804 -1.1487
  607HK4    H1750929   3.908   5.392   1.053 -2.0297 -0.0398 -0.3959
  607HK4    C3650930   3.753   5.511   0.981 -0.2069  0.0460 -0.1461
  607HK4    H1850931   3.683   5.429   0.959 -0.1377 -0.0663  0.0506
  607HK4    C3750932   3.715   5.644   0.970 -0.1258  0.0298 -0.6328
  607HK4    H1950933   3.610   5.671   0.957  0.0049  0.6485 -0.4167
  607HK4    C3850934   3.797   5.754   0.990 -0.4349  0.1654 -0.1070
  607HK4    H2050935   3.768   5.859   1.001  2.2225  0.9654 -0.4755
  607HK4    C1450936   4.440   5.976   1.039  0.2294  0.3435 -0.0403
  607HK4     C950937   4.466   6.111   1.069 -0.5933  0.5465 -0.2444
  607HK4     C850938   4.564   6.181   0.997  0.1616  0.0905  0.3290
  607HK4    C1150939   4.630   6.104   0.902 -0.1974  0.0430  0.1188
  607HK4     H450940   4.689   6.165   0.832  1.8874 -0.4672  1.3871
  607HK4    C1250941   4.629   5.966   0.883 -0.3392  0.0792 -0.1467
  607HK4     H550942   4.693   5.915   0.809 -1.7006  1.1771 -2.1280
  607HK4    C1350943   4.531   5.904   0.959  0.0347 -0.1293  0.1669
  607HK4     H650944   4.507   5.798   0.940 -0.6315 -0.1952  1.3141
  607HK4     C750945   4.576   6.328   1.001 -0.6057  0.1749 -0.1942
  607HK4     O250946   4.649   6.394   0.926 -0.6802  0.4011 -0.0683
  607HK4     C450947   4.496   6.394   1.107 -0.3050  0.0044  0.1415
  607HK4     C350948   4.484   6.532   1.109  0.0180  0.0325  0.2335
  607HK4     H350949   4.512   6.593   1.023  2.2565  1.9017  2.2210
  607HK4     C250950   4.432   6.592   1.224  0.1882  0.0671  0.2912
  607HK4     H250951   4.415   6.700   1.226  0.7946  0.1476  1.4331
  607HK4     C150952   4.399   6.516   1.336 -0.0666  0.0777  0.2222
  607HK4     H150953   4.346   6.566   1.418  0.2073 -2.0305  1.6987
  607HK4     C650954   4.428   6.378   1.344 -0.4588  0.0025  0.3624
  607HK4     C550955   4.457   6.319   1.220 -0.0838  0.2088  0.3514
  607HK4    C1050956   4.421   6.177   1.195 -0.7336  0.4776 -0.2577
  607HK4     O150957   4.334   6.120   1.260  0.0581 -0.3574  0.0814
  607HK4    C1650958   4.449   6.325   1.479 -0.0331 -0.1394  0.2426
  607HK4    C1550959   4.425   6.400   1.596 -0.4187  0.1850 -0.0419
  607HK4     H750960   4.347   6.478   1.598  0.6945  1.3426 -0.9530
  607HK4    C2050961   4.481   6.362   1.718  0.5384  0.6384 -0.3350
  607HK4     H950962   4.483   6.436   1.797 -0.5017 -0.5179  0.8013
  607HK4    C1950963   4.556   6.246   1.730  0.1475  0.4032 -0.1720
  607HK4    C1850964   4.576   6.162   1.614  0.5648  0.2357  0.0173
  607HK4    C1750965   4.521   6.207   1.494  0.4378  0.1215  0.0321
  607HK4     H850966   4.509   6.132   1.416  1.8192 -0.6891  0.5660
  607HK4     N150967   4.628   6.035   1.648  0.1215  0.0284 -0.0730
  607HK4    C2150968   4.650   6.041   1.787 -0.4078  0.2901  0.0028
  607HK4    C2250969   4.604   6.167   1.842  0.6731  0.7562 -0.1461
  607HK4    C2650970   4.636   6.197   1.974  0.1456  0.3617  0.0736
  607HK4    H1350971   4.583   6.282   2.017 -0.5850  0.0756 -0.2707
  607HK4    C2550972   4.715   6.109   2.047 -0.3506 -0.5102 -0.4361
  607HK4    H1250973   4.751   6.130   2.148  0.9872 -1.1583 -0.7614
  607HK4    C2450974   4.756   5.986   1.997 -0.1342 -0.5117 -0.2547
  607HK4    H1150975   4.791   5.902   2.059 -2.3855  0.0967  1.9130
  607HK4    C2350976   4.723   5.952   1.866 -0.0401  0.1791 -0.4582
  607HK4    H1050977   4.755   5.853   1.833  1.3703  0.5163 -0.1457
  607HK4    C3950978   4.655   5.928   1.562 -0.6136  0.0850 -0.3763
  607HK4    C4150979   4.670   5.794   1.602 -0.4191  0.0990 -0.3993
  607HK4    H2150980   4.621   5.765   1.697  0.5585  0.7115  0.2995
  607HK4    C4250981   4.728   5.696   1.524 -0.0031  0.0630 -0.0468
  607HK4    H2250982   4.726   5.593   1.563 -2.3004  0.8099  1.9518
  607HK4    C4350983   4.771   5.725   1.395  0.1992  0.2278  0.0583
  607HK4    H2350984   4.827   5.645   1.346  0.5225 -0.8401  2.1369
  607HK4    C4450985   4.756   5.856   1.350  0.0886  0.1736 -0.0680
  607HK4    H2450986   4.777   5.870   1.243 -0.1103  0.0286 -0.1253
  607HK4    C4550987   4.709   5.956   1.435  0.8076  0.2431  0.2547
  607HK4    H2550988   4.746   6.057   1.411 -0.7707  1.0831  1.3127
  608HK4    H2850989   2.344   3.352   1.000  3.7451  0.5199  0.5712
  608HK4    C4850990   2.340   3.432   0.926 -0.0691 -0.6674 -0.6696
  608HK4    C4750991   2.464   3.459   0.870  0.2046 -0.6976 -0.0862
  608HK4    H2750992   2.543   3.384   0.885  1.8504  1.3438  1.9004
  608HK4    C4650993   2.485   3.572   0.791  0.0914 -0.4795  0.1946
  608HK4    H2650994   2.583   3.579   0.741 -0.1667 -2.2435 -0.6174
  608HK4    C4050995   2.382   3.665   0.767  0.1198 -0.5164 -0.0832
  608HK4    C5050996   2.261   3.635   0.833  0.3244 -0.2728  0.4056
  608HK4    H3050997   2.178   3.707   0.833  0.4546 -0.0991 -1.2881
  608HK4    C4950998   2.235   3.521   0.909 -0.0485 -0.5317 -0.1110
  608HK4    H2950999   2.140   3.496   0.958 -0.3537  0.1602 -0.3446
  608HK4     N251000   2.375   3.730   0.644 -0.7945 -0.3682  0.0421
  608HK4    C3051001   2.423   3.680   0.521  0.3698  0.4401  0.1536
  608HK4    C2951002   2.470   3.554   0.487 -0.4558  0.2533 -0.3177
  608HK4    H1551003   2.449   3.476   0.561  2.2649  0.1160  0.3770
  608HK4    C2851004   2.506   3.519   0.357  0.0072  0.1323 -0.1594
  608HK4    C2751005   2.497   3.619   0.258 -0.9492 -0.0566 -0.2714
  608HK4    H1451006   2.536   3.593   0.159  0.0980  0.2344  0.0603
  608HK4    C3251007   2.451   3.746   0.291  0.3432  0.2961  0.2036
  608HK4    H1651008   2.439   3.821   0.212  2.5115  0.0608 -0.3839
  608HK4    C3151009   2.420   3.785   0.421 -0.2442  0.3329  0.0549
  608HK4    C3451010   2.378   3.902   0.495 -0.1167  0.2474  0.2629
  608HK4    C3351011   2.347   3.868   0.633  0.2966 -0.1190  0.2686
  608HK4    C3551012   2.274   3.954   0.715  0.0420  0.1793 -0.2629
  608HK4    H1751013   2.232   3.918   0.809 -2.4985  0.6977 -1.1736
  608HK4    C3651014   2.245   4.082   0.671  0.0019  0.3671  0.3160
  608HK4    H1851015   2.240   4.161   0.748 -0.1601 -1.9187  2.7173
  608HK4    C3751016   2.273   4.113   0.539 -0.1993  0.2868  0.2544
  608HK4    H1951017   2.257   4.217   0.510 -1.2364 -0.1742 -0.9019
  608HK4    C3851018   2.336   4.026   0.450 -0.6682  0.0282  0.1749
  608HK4    H2051019   2.378   4.064   0.357 -0.5828  0.1525  0.2640
  608HK4    C1451020   2.580   3.393   0.339  1.0016  0.5852  0.6975
  608HK4     C951021   2.663   3.369   0.228 -0.4023  0.1714 -0.2773
  608HK4     C851022   2.677   3.241   0.173  0.8093  0.0593  0.2834
  608HK4    C1151023   2.617   3.133   0.237 -0.3868  0.1010 -0.7597
  608HK4     H451024   2.590   3.042   0.181 -1.7528 -0.1249  0.2533
  608HK4    C1251025   2.552   3.148   0.359 -0.0929 -0.0720 -0.5819
  608HK4     H551026   2.519   3.065   0.422 -0.3472 -0.9980 -1.9149
  608HK4    C1351027   2.538   3.278   0.407  0.4548 -0.0003 -0.6082
  608HK4     H651028   2.461   3.298   0.484 -1.2530 -0.5145 -2.1433
  608HK4     C751029   2.763   3.212   0.055  0.4137 -0.1867  0.0532
  608HK4     O251030   2.748   3.108  11.239 -0.0816 -0.2590  0.2790
  608HK4     C451031   2.864   3.312   0.015  0.5652 -0.4010 -0.0988
  608HK4     C351032   2.948   3.295  11.153  0.5439 -0.2788 -0.1332
  608HK4     H351033   2.944   3.200  11.098  0.0354 -0.9664  1.0726
  608HK4     C251034   3.035   3.388  11.098 -0.2308  0.4466 -0.1495
  608HK4     H251035   3.093   3.368  11.007 -0.0330 -1.0842  0.2974
  608HK4     C151036   3.028   3.513  11.160  0.1614  0.3254  0.1437
  608HK4     H151037   3.078   3.598  11.112  0.4354 -0.4798 -1.0099
  608HK4     C651038   2.946   3.540   0.024 -0.0838 -0.1026  0.0693
  608HK4     C551039   2.861   3.440   0.074 -0.0541 -0.3182 -0.3064
  608HK4    C1051040   2.763   3.470   0.182 -0.1652 -0.1449 -0.4529
  608HK4     O151041   2.802   3.534   0.279 -0.4784  0.3664 -0.6643
  608HK4    C1651042   2.931   3.683   0.052 -0.3500 -0.1160 -0.0062
  608HK4    C1551043   2.875   3.772  11.206  0.0916 -0.1787 -0.3305
  608HK4     H751044   2.815   3.734  11.122 -0.1593  0.1693 -0.3092
  608HK4    C2051045   2.885   3.910  11.221 -0.3570 -0.1165 -0.5599
  608HK4     H951046   2.821   3.980  11.168  1.7010  1.6337 -0.8220
  608HK4    C1951047   2.953   3.957   0.086 -0.4046 -0.1688 -0.5084
  608HK4    C1851048   3.007   3.865   0.184 -0.5978  0.0762 -0.1723
  608HK4    C1751049   3.002   3.728   0.162 -0.0694  0.0694 -0.2620
  608HK4     H851050   3.059   3.660   0.226  0.1936  1.7231  1.3153
  608HK4     N151051   3.059   3.938   0.293 -0.7780  0.0019 -0.0377
  608HK4    C2151052   3.035   4.075   0.270 -0.7342 -0.0405 -0.3349
  608HK4    C2251053   2.968   4.090   0.142 -0.6058 -0.1838 -0.4190
  608HK4    C2651054   2.912   4.211   0.104 -0.5273  0.1430  0.4843
  608HK4    H1351055   2.847   4.226   0.017  1.5263  3.2187 -0.6179
  608HK4    C2551056   2.924   4.314   0.196  0.2283  0.5601 -0.0789
  608HK4    H1251057   2.866   4.404   0.177 -0.3872  0.0491 -0.6029
  608HK4    C2451058   2.987   4.306   0.320 -0.6367 -0.0537  0.3251
  608HK4    H1151059   2.962   4.379   0.399  2.0827  0.2025  0.9964
  608HK4    C2351060   3.040   4.183   0.357  0.2453  0.0690 -0.5174
  608HK4    H1051061   3.049   4.164   0.464 -0.2709 -2.9536 -0.9782
  608HK4    C3951062   3.106   3.888   0.415  0.3617 -0.0704 -0.5030
  608HK4    C4151063   3.213   3.952   0.481  0.1218 -0.6096  0.4263
  608HK4    H2151064   3.270   4.031   0.428 -0.0087 -0.4702  0.4940
  608HK4    C4251065   3.240   3.940   0.617 -1.0740  0.1751  0.7380
  608HK4    H2251066   3.316   3.996   0.674 -0.0953  0.4764 -0.8157
  608HK4    C4351067   3.161   3.856   0.694 -0.8061  0.0103  0.8343
  608HK4    H2351068   3.182   3.850   0.800 -0.3364  1.1896  0.8155
  608HK4    C4451069   3.056   3.791   0.629 -0.0418 -0.5782  0.1662
  608HK4    H2451070   2.991   3.725   0.689  1.3357 -0.4414  1.8286
  608HK4    C4551071   3.031   3.798   0.493  0.2384  0.5967  0.1640
  608HK4    H2551072   2.951   3.737   0.447  1.0100 -0.6214  0.4059
  609HK4    H2851073   4.606   3.212   4.016  1.1023  1.5646  1.0336
  609HK4    C4851074   4.516   3.239   4.071  0.1825  0.6131  0.0137
  609HK4    C4751075   4.538   3.306   4.191 -0.1333 -0.3645  0.6243
  609HK4    H2751076   4.634   3.298   4.246  0.3167 -1.0427 -0.2480
  609HK4    C4651077   4.422   3.337   4.261 -0.3562 -0.5084  0.3176
  609HK4    H2651078   4.439   3.386   4.357  0.1401  0.7158 -0.3859
  609HK4    C4051079   4.289   3.313   4.219 -0.1372 -0.2006 -0.5590
  609HK4    C5051080   4.280   3.246   4.095 -0.2565 -0.6068 -0.3300
  609HK4    H3051081   4.183   3.213   4.057 -0.1222  0.9753 -2.0944
  609HK4    C4951082   4.391   3.211   4.018  0.2672 -0.0287  0.1527
  609HK4    H2951083   4.381   3.159   3.922  0.1126  0.4570 -0.0963
  609HK4     N251084   4.183   3.296   4.308  0.3564 -0.6027 -0.0492
  609HK4    C3051085   4.183   3.280   4.448 -0.0575  0.1082  0.0374
  609HK4    C2951086   4.286   3.227   4.527  0.0434  0.5048  0.1712
  609HK4    H1551087   4.374   3.195   4.472 -1.3109  0.3169 -1.9643
  609HK4    C2851088   4.270   3.213   4.664  0.6214  1.1427  0.3086
  609HK4    C2751089   4.149   3.251   4.726 -0.0142  0.0368 -0.2287
  609HK4    H1451090   4.130   3.243   4.835 -1.1142  0.2895 -0.3988
  609HK4    C3251091   4.045   3.301   4.650 -0.1328  0.2895  0.0958
  609HK4    H1651092   3.947   3.319   4.695 -1.6988 -0.3865 -2.9275
  609HK4    C3151093   4.058   3.315   4.512  0.0985  0.4914  0.1351
  609HK4    C3451094   3.973   3.352   4.400  0.0864  0.2625  0.0667
  609HK4    C3351095   4.051   3.336   4.279  0.4085 -0.1525  0.3270
  609HK4    C3551096   3.981   3.351   4.160 -0.2149  0.0207  0.7108
  609HK4    H1751097   4.038   3.350   4.066 -0.6706 -2.5649  0.4284
  609HK4    C3651098   3.845   3.378   4.150 -0.0913  0.3754 -0.0806
  609HK4    H1851099   3.799   3.382   4.050  0.8683 -1.9150 -0.6501
  609HK4    C3751100   3.775   3.391   4.269 -0.3647  0.0527 -0.2060
  609HK4    H1951101   3.667   3.404   4.258 -0.5158 -0.4027  0.6973
  609HK4    C3851102   3.840   3.390   4.391  0.0376 -0.0158 -0.4212
  609HK4    H2051103   3.790   3.436   4.476  0.0533 -0.5296 -0.1305
  609HK4    C1451104   4.368   3.150   4.754  0.1756 -0.6307 -0.4363
  609HK4     C951105   4.345   3.055   4.855  0.1860 -0.3381 -0.1590
  609HK4     C851106   4.429   3.044   4.968 -0.0049 -0.1862 -0.0021
  609HK4    C1151107   4.544   3.121   4.981 -0.2675  0.1676  0.2408
  609HK4     H451108   4.607   3.112   5.070 -1.0092  0.8199  0.8408
  609HK4    C1251109   4.580   3.203   4.874 -0.1260 -0.1145  0.0695
  609HK4     H551110   4.664   3.273   4.876 -0.0056 -0.2834  1.0529
  609HK4    C1351111   4.493   3.214   4.766 -0.2095  0.0063  0.1484
  609HK4     H651112   4.521   3.274   4.679  4.6532 -0.8264  1.0247
  609HK4     C751113   4.387   2.961   5.083 -0.4437  0.2387  0.1461
  609HK4     O251114   4.470   2.933   5.169 -0.2282 -0.0863 -0.1684
  609HK4     C451115   4.251   2.901   5.087 -0.3356 -0.0236 -0.0270
  609HK4     C351116   4.199   2.845   5.203  0.2227 -0.8852 -0.1864
  609HK4     H351117   4.277   2.813   5.274  1.2252 -1.3900 -1.5062
  609HK4     C251118   4.070   2.796   5.215 -0.0939 -0.0245 -0.0336
  609HK4     H251119   4.028   2.741   5.301  0.1740  2.4391  1.7383
  609HK4     C151120   3.986   2.827   5.109  0.0348  0.2928 -0.0432
  609HK4     H151121   3.877   2.812   5.114 -0.1927  1.9750  0.3820
  609HK4     C651122   4.031   2.882   4.987 -0.2226 -0.4803 -0.4908
  609HK4     C551123   4.168   2.909   4.974 -0.3443  0.4057  0.0081
  609HK4    C1051124   4.225   2.968   4.849 -0.0102 -0.0729 -0.0677
  609HK4     O151125   4.193   2.921   4.740 -0.4257  0.4274 -0.1664
  609HK4    C1651126   3.935   2.974   4.924 -0.3363 -0.2326  0.0412
  609HK4    C1551127   3.865   3.068   5.002 -0.6342 -0.0704 -0.4198
  609HK4     H751128   3.866   3.061   5.112 -1.9934 -0.9409 -0.4584
  609HK4    C2051129   3.781   3.158   4.939 -1.0348 -0.1276  0.0303
  609HK4     H951130   3.716   3.219   5.003 -0.2671  0.0431  0.6516
  609HK4    C1951131   3.764   3.147   4.801  0.2146  0.2955 -0.1605
  609HK4    C1851132   3.827   3.045   4.719  0.5038  0.4210 -0.0956
  609HK4    C1751133   3.907   2.956   4.789  0.2812  0.1819 -0.1425
  609HK4     H851134   3.936   2.871   4.727 -0.6057  0.9871 -1.6894
  609HK4     N151135   3.763   3.032   4.594 -0.1079 -0.2054  0.2803
  609HK4    C2151136   3.670   3.138   4.588  0.1287 -0.0210 -0.1491
  609HK4    C2251137   3.669   3.211   4.713  0.0504  0.0292 -0.1784
  609HK4    C2651138   3.599   3.331   4.722  0.0310 -0.0611  0.9602
  609HK4    H1351139   3.606   3.381   4.818 -1.1997  0.7094  0.6498
  609HK4    C2551140   3.527   3.372   4.610 -0.1716 -1.3753  0.5945
  609HK4    H1251141   3.504   3.478   4.600 -0.4560 -1.2828  2.1192
  609HK4    C2451142   3.519   3.298   4.493  0.2870  0.0994 -0.3894
  609HK4    H1151143   3.479   3.344   4.401  0.9927  1.5018 -0.0030
  609HK4    C2351144   3.588   3.178   4.483  0.0419 -0.0664 -0.0965
  609HK4    H1051145   3.576   3.117   4.393 -1.1771 -0.7059  0.4812
  609HK4    C3951146   3.821   2.967   4.484  0.2917  0.1345  0.2889
  609HK4    C4151147   3.749   2.919   4.373  0.4598  0.0949  0.1974
  609HK4    H2151148   3.643   2.894   4.389  1.1876 -3.1682  0.1647
  609HK4    C4251149   3.808   2.888   4.251 -0.3864 -0.5036 -0.0652
  609HK4    H2251150   3.761   2.852   4.158  1.0754 -1.2953 -0.5218
  609HK4    C4351151   3.947   2.897   4.242 -0.4225  0.3029  0.1499
  609HK4    H2351152   3.998   2.863   4.151 -1.2813  3.9221 -1.7789
  609HK4    C4451153   4.020   2.942   4.351 -0.4344  0.3767  0.1276
  609HK4    H2451154   4.127   2.956   4.327  0.2676  0.0037  2.9172
  609HK4    C4551155   3.962   2.969   4.474  0.3166 -0.0500  0.5822
  609HK4    H2551156   4.022   2.992   4.563  0.1945  1.7450  0.2113
  610HK4    H2851157   0.212   0.495  10.013  2.5473 -3.1974 -2.1649
  610HK4    C4851158   0.278   0.575   9.979  0.1525 -0.3514 -0.3973
  610HK4    C4751159   0.410   0.572  10.021  0.2079 -0.0274 -0.5478
  610HK4    H2751160   0.455   0.485  10.071 -0.1749 -0.9408 -1.7689
  610HK4    C4651161   0.484   0.684   9.985  0.2734  0.0547 -0.1663
  610HK4    H2651162   0.585   0.680  10.026 -0.3916  1.7643  1.7308
  610HK4    C4051163   0.438   0.799   9.916 -0.2440 -0.1608 -0.1870
  610HK4    C5051164   0.302   0.794   9.878 -0.2316  0.4701 -0.3063
  610HK4    H3051165   0.250   0.872   9.820 -3.0232 -0.6474  0.6123
  610HK4    C4951166   0.225   0.683   9.908  0.5428 -0.0443 -0.2208
  610HK4    H2951167   0.124   0.671   9.867  0.1924  2.9292 -0.3117
  610HK4     N251168   0.519   0.895   9.854  0.5055 -0.3053  0.5597
  610HK4    C3051169   0.655   0.880   9.823  0.5728  0.3464  0.5297
  610HK4    C2951170   0.729   0.762   9.813  0.6323  0.4104  0.2204
  610HK4    H1551171   0.678   0.668   9.833  0.3653  0.6574  0.7010
  610HK4    C2851172   0.859   0.766   9.766  0.4767  0.2615 -0.2239
  610HK4    C2751173   0.909   0.892   9.726  0.4236  0.5213  0.5248
  610HK4    H1451174   0.998   0.897   9.662 -0.3914  1.2733 -0.5581
  610HK4    C3251175   0.841   1.012   9.738  0.1964  0.4861 -0.3554
  610HK4    H1651176   0.864   1.098   9.674 -1.4645  0.5943 -0.8124
  610HK4    C3151177   0.715   1.009   9.795  0.5110  0.3346  0.3484
  610HK4    C3451178   0.605   1.104   9.793  0.1722 -0.0521  0.6087
  610HK4    C3351179   0.485   1.030   9.829  0.1900 -0.5520 -0.3474
  610HK4    C3551180   0.374   1.110   9.849  0.3517 -0.3035 -0.4459
  610HK4    H1751181   0.281   1.065   9.884 -0.8801  0.1260 -2.9978
  610HK4    C3651182   0.376   1.249   9.837  0.4215 -0.2452  0.2431
  610HK4    H1851183   0.305   1.301   9.904  0.3906 -1.3973  1.1292
  610HK4    C3751184   0.488   1.313   9.786  0.3237 -0.4301 -0.2016
  610HK4    H1951185   0.477   1.409   9.734 -0.3120 -0.6277 -0.4397
  610HK4    C3851186   0.606   1.242   9.774  0.6167 -0.0691  0.5205
  610HK4    H2051187   0.698   1.291   9.742  0.5307  0.3072  0.8539
  610HK4    C1451188   0.949   0.656   9.804  0.1327  0.0718  0.0416
  610HK4     C951189   1.087   0.674   9.824  0.1406 -0.0783  0.1252
  610HK4     C851190   1.169   0.571   9.776  0.0531  0.1393 -0.4899
  610HK4    C1151191   1.126   0.445   9.736 -0.5049  0.1163  0.1944
  610HK4     H451192   1.197   0.373   9.694 -0.3366  0.2789  0.2031
  610HK4    C1251193   0.989   0.420   9.737 -0.4359 -0.2572  0.8649
  610HK4     H551194   0.957   0.324   9.694 -1.0604  0.0086  0.7410
  610HK4    C1351195   0.906   0.527   9.766 -0.1702  0.2472 -0.2078
  610HK4     H651196   0.798   0.515   9.784 -0.3740  1.6922 -0.3563
  610HK4     C751197   1.314   0.597   9.761  0.1182 -0.1222 -0.3174
  610HK4     O251198   1.371   0.566   9.656  0.5020  0.2189 -0.2125
  610HK4     C451199   1.373   0.711   9.835  0.0363 -0.3559  0.1059
  610HK4     C351200   1.509   0.715   9.866  0.0723 -0.5386 -0.0252
  610HK4     H351201   1.574   0.630   9.843  0.2315 -1.0965  2.3592
  610HK4     C251202   1.567   0.834   9.907  0.1813 -0.4245 -0.5033
  610HK4     H251203   1.662   0.840   9.961 -0.5622  0.3831  0.7515
  610HK4     C151204   1.491   0.951   9.914 -0.1362 -0.6890  0.5732
  610HK4     H151205   1.538   1.049   9.922 -1.1212 -0.2755  1.4000
  610HK4     C651206   1.355   0.949   9.876  0.0896 -0.3489 -0.2637
  610HK4     C551207   1.293   0.826   9.853  0.0099 -0.3512 -0.0420
  610HK4    C1051208   1.150   0.797   9.881 -0.0798  0.1054 -0.0234
  610HK4     O151209   1.112   0.838   9.991 -0.2442  0.2580 -0.1382
  610HK4    C1651210   1.300   1.078   9.830  0.1678 -0.1841  0.1017
  610HK4    C1551211   1.390   1.174   9.780 -0.1449  0.2403  0.3532
  610HK4     H751212   1.482   1.131   9.738 -0.0874  1.2607 -0.5913
  610HK4    C2051213   1.373   1.312   9.775 -0.3571  0.1821 -0.7496
  610HK4     H951214   1.452   1.374   9.732  0.5917 -1.0729 -0.8624
  610HK4    C1951215   1.254   1.362   9.826 -0.1050  0.2184 -0.1910
  610HK4    C1851216   1.155   1.267   9.873  0.3085 -0.1084  0.0266
  610HK4    C1751217   1.181   1.131   9.877  0.4012 -0.0752  0.5753
  610HK4     H851218   1.086   1.076   9.874  0.4380 -0.0215 -3.0442
  610HK4     N151219   1.049   1.331   9.941  0.3146 -0.3775  0.2883
  610HK4    C2151220   1.085   1.467   9.947 -0.3440 -0.1678 -0.3583
  610HK4    C2251221   1.202   1.492   9.865 -0.7014  0.1536 -0.7699
  610HK4    C2651222   1.270   1.612   9.880 -0.2447 -0.1809 -0.1316
  610HK4    H1351223   1.345   1.626   9.802 -1.6789  0.5217 -1.4101
  610HK4    C2551224   1.228   1.711   9.969  0.2020 -0.0001 -0.1203
  610HK4    H1251225   1.269   1.812   9.968 -3.5202  1.6082 -0.4897
  610HK4    C2451226   1.117   1.683  10.048  0.1663  0.0908 -0.1372
  610HK4    H1151227   1.063   1.763  10.100 -0.6363 -1.6113  1.6979
  610HK4    C2351228   1.044   1.565  10.037  0.3275 -0.0015 -0.2240
  610HK4    H1051229   0.948   1.548  10.087 -0.0852  1.6247 -0.4501
  610HK4    C3951230   0.935   1.274   9.999 -0.1638 -0.0768 -0.3364
  610HK4    C4151231   0.824   1.354  10.030 -0.0367  0.1084 -0.3580
  610HK4    H2151232   0.804   1.454   9.988 -1.6932 -0.3097 -0.6247
  610HK4    C4251233   0.728   1.314  10.122  0.5575 -0.1849  0.1324
  610HK4    H2251234   0.651   1.386  10.156 -0.3744 -0.1426 -2.0058
  610HK4    C4351235   0.734   1.192  10.188 -0.0331 -0.2875 -0.0062
  610HK4    H2351236   0.655   1.160  10.257  2.8424 -0.7217  3.1944
  610HK4    C4451237   0.848   1.114  10.169 -0.1263 -0.2991 -0.5281
  610HK4    H2451238   0.871   1.026  10.231  4.2318 -0.1562 -1.7839
  610HK4    C4551239   0.943   1.157  10.078  0.3258  0.3407  0.2374
  610HK4    H2551240   1.033   1.093  10.078  1.1991  1.5393 -0.6623
  611HK4    H2851241   1.873   1.363   9.511  1.5598  0.9302 -0.5032
  611HK4    C4851242   1.864   1.388   9.617  0.3503 -0.1724 -0.3298
  611HK4    C4751243   1.945   1.487   9.672 -0.0945  0.4066 -0.7168
  611HK4    H2751244   2.005   1.547   9.602 -0.3332 -0.0530 -1.3230
  611HK4    C4651245   1.936   1.531   9.804 -0.5412  0.1277 -0.6516
  611HK4    H2651246   1.992   1.621   9.831 -0.2956 -0.2269  0.0260
  611HK4    C4051247   1.833   1.480   9.887 -0.3283  0.5606 -0.1238
  611HK4    C5051248   1.753   1.380   9.828 -0.5865  0.8745 -0.3093
  611HK4    H3051249   1.672   1.333   9.886  1.6455 -1.7255  0.7863
  611HK4    C4951250   1.767   1.332   9.699  0.2018  0.4564 -0.0716
  611HK4    H2951251   1.724   1.236   9.667  0.1704  0.7948 -1.0537
  611HK4     N251252   1.837   1.485  10.027  0.3957 -0.1076 -0.1189
  611HK4    C3051253   1.942   1.461  10.118  0.2611 -0.0336  0.0549
  611HK4    C2951254   2.074   1.420  10.099  0.4242  0.6175 -0.2537
  611HK4    H1551255   2.103   1.405   9.996  0.0815 -1.6509 -0.0428
  611HK4    C2851256   2.166   1.401  10.202  0.0833  0.4336  0.0161
  611HK4    C2751257   2.117   1.422  10.333  0.1578 -0.0307  0.1189
  611HK4    H1451258   2.183   1.397  10.417  0.0130  0.6460  0.4314
  611HK4    C3251259   1.983   1.448  10.359  0.0471 -0.3039 -0.1683
  611HK4    H1651260   1.951   1.436  10.463  2.4165 -0.8202  0.5403
  611HK4    C3151261   1.894   1.469  10.254  0.1152  0.6738 -0.0340
  611HK4    C3451262   1.757   1.514  10.245 -0.1200 -0.0297 -0.0374
  611HK4    C3351263   1.724   1.519  10.104  0.4822  0.2936 -0.1676
  611HK4    C3551264   1.595   1.558  10.071  0.2568 -0.0638  0.2814
  611HK4    H1751265   1.577   1.559   9.963  3.3960  2.2833 -0.3101
  611HK4    C3651266   1.501   1.593  10.167  0.0314 -0.5952  0.2496
  611HK4    H1851267   1.401   1.624  10.130  0.9012  1.7977 -0.1569
  611HK4    C3751268   1.535   1.596  10.301 -0.6091  0.0260  0.4014
  611HK4    H1951269   1.461   1.626  10.376 -1.4654 -1.2747  0.0966
  611HK4    C3851270   1.661   1.553  10.339 -0.4807 -0.2311 -0.3209
  611HK4    H2051271   1.688   1.557  10.444  0.9180  0.3914 -0.6841
  611HK4    C1451272   2.293   1.339  10.164 -0.0009  0.2097  0.1007
  611HK4     C951273   2.373   1.264  10.250 -0.2260  0.5900  0.6393
  611HK4     C851274   2.514   1.266  10.249 -0.2267  0.3069  0.1569
  611HK4    C1151275   2.571   1.329  10.139 -0.1699 -0.0594 -0.0261
  611HK4     H451276   2.678   1.353  10.128 -1.2142  5.8406  0.5506
  611HK4    C1251277   2.496   1.402  10.047  0.3540  0.2792 -0.1878
  611HK4     H551278   2.544   1.447   9.959 -0.4943 -0.7879 -1.2188
  611HK4    C1351279   2.358   1.408  10.060  0.3082 -0.5836 -0.2399
  611HK4     H651280   2.306   1.475   9.990  0.5671  0.8468  0.9329
  611HK4     C751281   2.598   1.208  10.356  0.1859  0.6621  0.0301
  611HK4     O251282   2.720   1.219  10.348  0.2275  0.1173 -0.0987
  611HK4     C451283   2.524   1.157  10.473 -0.2155  0.1340 -0.4559
  611HK4     C351284   2.599   1.124  10.586 -0.4610 -0.2046 -0.3892
  611HK4     H351285   2.708   1.128  10.576 -0.5905 -0.7653 -2.2016
  611HK4     C251286   2.544   1.057  10.695  0.0618 -0.3587 -0.2155
  611HK4     H251287   2.606   1.032  10.782 -0.3963 -1.5324 -0.2251
  611HK4     C151288   2.406   1.037  10.684 -0.0397  0.1986  0.0238
  611HK4     H151289   2.359   0.979  10.765  1.6707 -0.5159  0.5265
  611HK4     C651290   2.318   1.074  10.580 -0.2543 -0.2846  0.0366
  611HK4     C551291   2.386   1.128  10.471 -0.0771 -0.5950 -0.0083
  611HK4    C1051292   2.312   1.169  10.347  0.1663 -0.4241 -0.0984
  611HK4     O151293   2.234   1.089  10.295 -0.0018 -0.1563 -0.2571
  611HK4    C1651294   2.186   1.123  10.624 -0.0860  0.2719 -0.0762
  611HK4    C1551295   2.184   1.209  10.736  0.0920  1.2025 -0.7806
  611HK4     H751296   2.271   1.258  10.780  0.2486 -0.6234  1.0243
  611HK4    C2051297   2.060   1.258  10.773 -0.0120  0.3622  0.0031
  611HK4     H951298   2.061   1.336  10.849 -0.0621 -0.1307  0.5150
  611HK4    C1951299   1.944   1.224  10.705 -0.2331  0.0949  0.5101
  611HK4    C1851300   1.945   1.122  10.601  0.0778  0.2655  0.3445
  611HK4    C1751301   2.070   1.077  10.562 -0.0774  0.0881  0.0469
  611HK4     H851302   2.079   1.007  10.479  0.3407  1.8090 -1.3931
  611HK4     N151303   1.823   1.117  10.531  0.3968  0.5395 -0.2279
  611HK4    C2151304   1.742   1.214  10.593  0.1870  0.0639  0.2357
  611HK4    C2251305   1.811   1.283  10.700 -0.1731  0.2187  0.3711
  611HK4    C2651306   1.751   1.377  10.783 -0.2242  0.1935  0.3613
  611HK4    H1351307   1.816   1.426  10.856 -1.4327  1.1572  0.8044
  611HK4    C2551308   1.620   1.415  10.757 -0.0170  0.4953 -0.2382
  611HK4    H1251309   1.566   1.492  10.813 -1.3875 -0.3769 -0.3613
  611HK4    C2451310   1.552   1.347  10.657  0.3768  0.2105 -0.3169
  611HK4    H1151311   1.444   1.366  10.646  0.5162  2.5087  1.6743
  611HK4    C2351312   1.610   1.253  10.573 -0.0105 -0.5659  0.2790
  611HK4    H1051313   1.550   1.220  10.489 -1.4998  0.2558  1.0066
  611HK4    C3951314   1.802   1.104  10.393 -0.4310  0.0274 -0.0596
  611HK4    C4151315   1.907   1.129  10.302 -0.0320 -0.5158  0.2514
  611HK4    H2151316   2.009   1.156  10.336  0.0054  0.7911 -0.8846
  611HK4    C4251317   1.877   1.131  10.167 -0.7151 -0.5851  0.3994
  611HK4    H2251318   1.960   1.158  10.101 -0.1922 -0.6021  1.0492
  611HK4    C4351319   1.750   1.116  10.111 -0.5211  0.3004 -0.2736
  611HK4    H2351320   1.735   1.142  10.006  0.6500 -2.0297 -1.0525
  611HK4    C4451321   1.648   1.085  10.200 -0.5218 -0.8720 -0.6889
  611HK4    H2451322   1.547   1.057  10.166 -0.9818 -0.2037  0.1151
  611HK4    C4551323   1.676   1.077  10.336 -0.0641 -0.2614 -0.7428
  611HK4    H2551324   1.604   1.039  10.410  1.1021 -2.7326 -0.8222
  612HK4    H2851325  10.671   8.101  10.343  0.9318  0.8134  2.2813
  612HK4    C4851326  10.737   8.015  10.331 -0.0781  0.2350  0.7839
  612HK4    C4751327  10.788   7.943  10.438 -0.4762 -0.4863  0.4917
  612HK4    H2751328  10.790   7.982  10.541  2.0902 -0.8820  0.6273
  612HK4    C4651329  10.853   7.824  10.408 -0.5145 -0.4728  0.3618
  612HK4    H2651330  10.867   7.754  10.492  1.3253 -1.2055 -0.5275
  612HK4    C4051331  10.888   7.784  10.277  0.0405  0.3815  0.2429
  612HK4    C5051332  10.826   7.854  10.172 -0.4054 -0.0246  0.2368
  612HK4    H3051333  10.843   7.817  10.070  0.6473 -0.6882  0.6564
  612HK4    C4951334  10.755   7.970  10.200  0.0142  0.0881  0.8436
  612HK4    H2951335  10.696   8.024  10.124 -0.2709  0.7740  1.5360
  612HK4     N251336  11.004   7.712  10.247 -0.3162 -0.1501  0.1515
  612HK4    C3051337  11.106   7.691  10.342 -0.3297  0.5846  0.3300
  612HK4    C2951338  11.149   7.769  10.449  0.4303  0.1643  0.3389
  612HK4    H1551339  11.078   7.843  10.488 -1.0835 -1.3750  0.5574
  612HK4    C2851340   0.017   7.743  10.520  0.7113  0.4432 -0.0150
  612HK4    C2751341   0.095   7.632  10.482  0.2716  0.3662 -0.6879
  612HK4    H1451342   0.195   7.612  10.522 -0.8287 -1.5479  1.2048
  612HK4    C3251343   0.055   7.548  10.379 -1.3330 -0.4021  0.5348
  612HK4    H1651344   0.115   7.460  10.353  3.0858  2.7142 -0.5229
  612HK4    C3151345  11.186   7.574  10.309 -0.6939  0.4888 -0.2139
  612HK4    C3451346  11.128   7.520  10.188 -0.6009 -0.1293  0.0197
  612HK4    C3351347  11.014   7.604  10.157 -0.4364  0.0506 -0.1033
  612HK4    C3551348  10.910   7.556  10.078 -0.2667 -0.2116 -0.1682
  612HK4    H1751349  10.808   7.593  10.083 -0.0429  0.7573 -2.2960
  612HK4    C3651350  10.934   7.437  10.011 -0.4565 -0.3972  0.0904
  612HK4    H1851351  10.872   7.415   9.923 -0.2740  0.4359 -0.2511
  612HK4    C3751352  11.044   7.354  10.031 -0.4908 -0.2256  0.9711
  612HK4    H1951353  11.040   7.258   9.981 -1.2510  1.6092 -2.6360
  612HK4    C3851354  11.139   7.396  10.124  0.7677  0.2462 -0.4998
  612HK4    H2051355  11.208   7.317  10.153  1.1203  1.3702  1.8261
  612HK4    C1451356   0.056   7.846  10.618 -0.0200  0.6616  0.0531
  612HK4     C951357   0.187   7.889  10.646  0.0555  0.2853  0.2815
  612HK4     C851358   0.209   7.957  10.767 -0.3774  0.0482  0.4960
  612HK4    C1151359   0.107   7.982  10.858 -0.2890  0.6727  0.4234
  612HK4     H451360   0.138   8.004  10.961  0.8841 -0.6392  0.3564
  612HK4    C1251361  11.223   7.947  10.830 -0.0889 -0.0207  0.3440
  612HK4     H551362  11.135   7.973  10.891 -0.6961  0.4471 -0.7063
  612HK4    C1351363  11.203   7.877  10.711  0.0707 -0.2838  0.4714
  612HK4     H651364  11.098   7.865  10.684  0.0766  1.2999 -0.2863
  612HK4     C751365   0.339   8.017  10.805  0.3098 -0.9040 -0.3064
  612HK4     O251366   0.363   8.065  10.915  0.5030 -0.4518 -0.5454
  612HK4     C451367   0.444   8.029  10.701  0.6031 -0.0880  0.0781
  612HK4     C351368   0.552   8.111  10.730  0.1129  0.6091 -0.0545
  612HK4     H351369   0.582   8.140  10.832  1.3143 -1.4174  0.2015
  612HK4     C251370   0.639   8.144  10.626  0.5428 -0.2375  0.0324
  612HK4     H251371   0.720   8.216  10.640  0.6531 -0.1529 -0.9724
  612HK4     C151372   0.624   8.076  10.505 -0.4285 -0.3178  0.1908
  612HK4     H151373   0.668   8.123  10.416 -1.5160  1.1032  0.3892
  612HK4     C651374   0.539   7.964  10.489 -0.6455 -0.0282 -0.7122
  612HK4     C551375   0.431   7.962  10.578  0.0476 -0.0967  0.1410
  612HK4    C1051376   0.299   7.900  10.548 -0.1218  0.2912  0.0763
  612HK4     O151377   0.275   7.880  10.429  0.0341 -0.1883  0.1244
  612HK4    C1651378   0.604   7.857  10.413  0.2493  0.0528 -0.0773
  612HK4    C1551379   0.735   7.869  10.363  0.4151 -0.2024  0.2963
  612HK4     H751380   0.795   7.946  10.414  1.0039 -1.6203  1.8137
  612HK4    C2051381   0.806   7.776  10.288  0.5848 -0.1805  0.4301
  612HK4     H951382   0.914   7.772  10.282  0.5465  1.1861 -1.6511
  612HK4    C1951383   0.734   7.661  10.256  0.4313 -0.1074  0.5051
  612HK4    C1851384   0.600   7.637  10.306  0.3083  0.3294  0.3891
  612HK4    C1751385   0.542   7.735  10.386  0.1178 -0.0668  0.7411
  612HK4     H851386   0.450   7.713  10.439 -2.1745  0.7329 -2.6943
  612HK4     N151387   0.561   7.504  10.283  0.0303  0.5618 -0.4899
  612HK4    C2151388   0.679   7.441  10.236 -0.0939 -0.3631  0.4225
  612HK4    C2251389   0.786   7.534  10.208 -0.4029 -0.1936 -0.1841
  612HK4    C2651390   0.905   7.494  10.148 -0.3970  0.3744 -0.5630
  612HK4    H1351391   0.979   7.571  10.128  1.4134 -1.6133 -1.7469
  612HK4    C2551392   0.921   7.357  10.127 -0.4098  0.3228 -0.2538
  612HK4    H1251393   1.020   7.315  10.108 -0.7734 -0.9249  0.5589
  612HK4    C2451394   0.824   7.266  10.167  0.3851 -0.1247  0.6750
  612HK4    H1151395   0.861   7.162  10.167 -0.5094 -0.4626 -1.0654
  612HK4    C2351396   0.701   7.305  10.217 -0.0769 -0.2468 -0.3669
  612HK4    H1051397   0.636   7.231  10.263 -2.6224  2.1333  0.0482
  612HK4    C3951398   0.434   7.461  10.242 -0.2641  0.2038  0.7853
  612HK4    C4151399   0.395   7.328  10.267  0.5451 -0.1831  0.0084
  612HK4    H2151400   0.423   7.282  10.362 -1.1253 -0.5749  0.3382
  612HK4    C4251401   0.298   7.267  10.188 -0.0456  0.1378  0.4878
  612HK4    H2251402   0.272   7.162  10.203 -1.3550  0.2559 -0.8178
  612HK4    C4351403   0.231   7.339  10.089  0.5710 -0.1790 -0.1617
  612HK4    H2351404   0.160   7.283  10.028 -0.8025  0.0264  1.2139
  612HK4    C4451405   0.263   7.472  10.070  0.0512  0.0553  0.5603
  612HK4    H2451406   0.199   7.526   9.998  0.1865  1.4230  1.4481
  612HK4    C4551407   0.364   7.533  10.144  0.3197  0.0167  0.2268
  612HK4    H2551408   0.389   7.639  10.124  2.0879  0.0143  2.3084
  613HK4    H2851409   7.958   6.025   6.608  0.4387 -0.6313  0.1833
  613HK4    C4851410   7.863   5.971   6.597  0.0540  0.1008 -0.1402
  613HK4    C4751411   7.852   5.901   6.477 -0.2508  0.1174 -0.1221
  613HK4    H2751412   7.937   5.862   6.419 -0.6136 -2.7842  1.1937
  613HK4    C4651413   7.725   5.861   6.437 -0.1795 -0.3041  0.0699
  613HK4    H2651414   7.716   5.797   6.348  2.5572 -0.3736 -0.1799
  613HK4    C4051415   7.609   5.900   6.508  0.0513 -0.3359  0.4675
  613HK4    C5051416   7.625   5.977   6.625 -0.0800  0.8824 -0.3023
  613HK4    H3051417   7.545   6.000   6.696 -0.8191  1.1255 -1.2147
  613HK4    C4951418   7.753   6.002   6.675  0.0250  0.1624 -0.2055
  613HK4    H2951419   7.775   6.015   6.782  1.6385  1.5875 -0.7007
  613HK4     N251420   7.487   5.870   6.447  0.1484 -0.1735  0.1905
  613HK4    C3051421   7.465   5.883   6.308  0.2276 -0.5388  0.1435
  613HK4    C2951422   7.546   5.944   6.213  0.0715 -0.8291 -0.1745
  613HK4    H1551423   7.622   6.016   6.244  0.4304 -1.1068 -0.4080
  613HK4    C2851424   7.521   5.937   6.076 -0.1333 -0.0963 -0.1759
  613HK4    C2751425   7.397   5.882   6.037 -0.2933  0.1976 -0.0868
  613HK4    H1451426   7.363   5.893   5.933  1.6882 -0.9372 -0.8941
  613HK4    C3251427   7.308   5.829   6.129 -0.1745  0.9199  0.4494
  613HK4    H1651428   7.208   5.803   6.094  0.2725 -0.1825 -0.0510
  613HK4    C3151429   7.342   5.821   6.264  0.0401 -0.3032  0.3360
  613HK4    C3451430   7.293   5.760   6.386  0.0053 -0.4396  0.2545
  613HK4    C3351431   7.375   5.802   6.499 -0.6240  1.0594  0.1639
  613HK4    C3551432   7.350   5.758   6.628  0.1336 -0.1859 -0.1012
  613HK4    H1751433   7.402   5.803   6.713  2.0698  0.7467 -1.7285
  613HK4    C3651434   7.257   5.656   6.642 -0.3263  0.2899  0.3430
  613HK4    H1851435   7.255   5.594   6.732  0.9539 -0.7732 -0.3360
  613HK4    C3751436   7.171   5.623   6.537 -0.7342  0.8675  0.4914
  613HK4    H1951437   7.102   5.539   6.547 -0.8954  0.7270 -1.7229
  613HK4    C3851438   7.187   5.674   6.409  0.3437 -0.9637 -0.1282
  613HK4    H2051439   7.108   5.675   6.333  0.1609 -0.9250  0.0599
  613HK4    C1451440   7.604   6.022   5.989 -0.1365  0.0782 -0.0065
  613HK4     C951441   7.569   6.089   5.871  0.1906  0.4323  0.0958
  613HK4     C851442   7.661   6.097   5.765  0.1646  0.1186  0.0507
  613HK4    C1151443   7.791   6.050   5.779  0.1267 -0.0400 -0.1366
  613HK4     H451444   7.851   6.029   5.689 -1.1436  0.0822 -1.0216
  613HK4    C1251445   7.828   5.992   5.900 -0.2105 -0.0172 -0.0220
  613HK4     H551446   7.934   5.976   5.925 -1.1680 -1.3030  3.5144
  613HK4    C1351447   7.738   5.981   6.006 -0.3236 -0.6096 -0.1785
  613HK4     H651448   7.781   5.958   6.104  1.2855 -2.2733 -1.2202
  613HK4     C751449   7.631   6.193   5.656 -0.2298 -0.1142 -0.0486
  613HK4     O251450   7.699   6.191   5.554 -0.4341  0.0840 -0.1884
  613HK4     C451451   7.506   6.272   5.656 -0.1756 -0.0264  0.1349
  613HK4     C351452   7.484   6.378   5.569  0.4658  0.2408  0.2888
  613HK4     H351453   7.572   6.418   5.516 -0.5469  0.8597 -0.9726
  613HK4     C251454   7.358   6.434   5.552  0.3122 -0.0947  0.3067
  613HK4     H251455   7.344   6.519   5.484 -1.0988 -0.6478 -0.1084
  613HK4     C151456   7.253   6.376   5.621  0.1531  0.3069  0.4048
  613HK4     H151457   7.152   6.419   5.617 -0.7444 -1.8867 -1.8145
  613HK4     C651458   7.268   6.259   5.699  0.2320 -0.0138 -0.0923
  613HK4     C551459   7.398   6.214   5.725  0.0324 -0.5146  0.0478
  613HK4    C1051460   7.436   6.154   5.856 -0.1668 -0.2643  0.2202
  613HK4     O151461   7.372   6.188   5.955 -0.4415 -0.0069 -0.0419
  613HK4    C1651462   7.145   6.202   5.756  0.2075 -0.0074 -0.1386
  613HK4    C1551463   7.133   6.065   5.787  0.1133 -0.0398 -0.3217
  613HK4     H751464   7.217   5.998   5.766  1.6183  1.1824  1.5904
  613HK4    C2051465   7.025   6.007   5.853  0.2795  0.2221  0.1801
  613HK4     H951466   7.017   5.899   5.859 -0.3757  0.3167  1.3018
  613HK4    C1951467   6.926   6.094   5.897  0.6170  0.7523 -0.1057
  613HK4    C1851468   6.949   6.237   5.891  0.0110  0.8705  0.2953
  613HK4    C1751469   7.052   6.289   5.813 -0.0076 -0.0836 -0.3719
  613HK4     H851470   7.064   6.396   5.796 -1.9946 -0.4083 -4.3634
  613HK4     N151471   6.855   6.305   5.971 -0.2492  0.5733  0.2435
  613HK4    C2151472   6.765   6.209   6.020  0.8570 -0.3272  0.5194
  613HK4    C2251473   6.799   6.079   5.966  0.3024  0.0837 -0.8303
  613HK4    C2651474   6.715   5.973   5.999  0.3758  0.4193  0.4557
  613HK4    H1351475   6.748   5.874   5.971  1.3444  0.6057  0.9243
  613HK4    C2551476   6.599   5.990   6.074  0.1488  0.7116  0.0415
  613HK4    H1251477   6.529   5.907   6.087  1.0058  0.2783  2.1159
  613HK4    C2451478   6.565   6.114   6.127  0.2193  0.3559  0.9280
  613HK4    H1151479   6.478   6.117   6.194  0.2576  0.6476  0.9602
  613HK4    C2351480   6.646   6.220   6.091  0.2920 -0.1612 -0.4562
  613HK4    H1051481   6.592   6.315   6.089  1.9336  0.7970 -1.0015
  613HK4    C3951482   6.889   6.424   6.038  0.3060  0.3209  0.4188
  613HK4    C4151483   6.791   6.517   6.079  0.3295  0.7227 -0.4149
  613HK4    H2151484   6.687   6.510   6.047  0.5010  1.0338 -1.0412
  613HK4    C4251485   6.818   6.626   6.162  0.1231  0.2796  0.2425
  613HK4    H2251486   6.730   6.687   6.188 -2.6932 -2.0181 -3.3329
  613HK4    C4351487   6.951   6.657   6.185  0.2521  0.1817 -0.3516
  613HK4    H2351488   6.973   6.739   6.254  0.5782 -0.9328  0.8883
  613HK4    C4451489   7.053   6.572   6.144  0.0764 -0.2094  0.0238
  613HK4    H2451490   7.156   6.584   6.183 -0.7178  0.0667  2.1260
  613HK4    C4551491   7.021   6.454   6.077  0.5429 -0.4599  0.2340
  613HK4    H2551492   7.106   6.389   6.054  2.2906  1.3730  1.3548
  614HK4    H2851493  10.492   5.338   0.701 -0.2736  1.6423  1.2955
  614HK4    C4851494  10.524   5.264   0.775  0.0240  0.0522 -0.3820
  614HK4    C4751495  10.657   5.227   0.773  0.0696  0.2055 -0.2338
  614HK4    H2751496  10.695   5.222   0.670 -1.4861  3.4952 -1.0290
  614HK4    C4651497  10.715   5.151   0.874 -0.2303 -0.3162 -0.4530
  614HK4    H2651498  10.824   5.131   0.871  0.6862  4.2163 -1.6391
  614HK4    C4051499  10.648   5.110   0.991 -0.0876 -0.3305 -0.3781
  614HK4    C5051500  10.523   5.172   1.006  0.1055 -0.0936  0.2902
  614HK4    H3051501  10.466   5.167   1.100 -1.5546  1.6574 -0.5878
  614HK4    C4951502  10.465   5.240   0.899  0.5870 -0.4800 -0.2183
  614HK4    H2951503  10.371   5.292   0.920  0.3864 -0.2342 -1.6837
  614HK4     N251504  10.701   5.018   1.082  0.2096 -0.1111 -0.3298
  614HK4    C3051505  10.806   4.927   1.058  0.5747  0.0852  0.4794
  614HK4    C2951506  10.858   4.880   0.938 -0.2303 -0.2609  0.2601
  614HK4    H1551507  10.798   4.902   0.850 -0.0910  1.0020  0.4732
  614HK4    C2851508  10.945   4.772   0.925 -0.2352 -0.1859 -0.4146
  614HK4    C2751509  10.995   4.718   1.045 -0.2269  0.1719 -0.2588
  614HK4    H1451510  11.082   4.652   1.045 -2.5885 -3.0869  0.1799
  614HK4    C3251511  10.945   4.760   1.168  0.0183 -0.4638  0.0562
  614HK4    H1651512  10.988   4.698   1.247  0.5640 -1.5734 -1.0943
  614HK4    C3151513  10.853   4.864   1.180  0.4050 -0.1601  0.4178
  614HK4    C3451514  10.769   4.920   1.284 -0.1633 -0.1449 -0.0492
  614HK4    C3351515  10.677   5.012   1.221  0.0426 -0.1453 -0.3600
  614HK4    C3551516  10.591   5.080   1.307  0.0070 -0.4254 -0.1784
  614HK4    H1751517  10.525   5.158   1.270 -0.1443 -1.1120 -1.3852
  614HK4    C3651518  10.595   5.069   1.446 -0.7806 -0.0333 -0.1197
  614HK4    H1851519  10.531   5.132   1.509  0.6752  1.3326  0.0245
  614HK4    C3751520  10.686   4.977   1.498 -0.5058  0.0053 -0.5318
  614HK4    H1951521  10.700   4.970   1.606  1.2487  0.8538 -0.6812
  614HK4    C3851522  10.773   4.901   1.421 -0.1066 -0.0431 -0.0374
  614HK4    H2051523  10.829   4.819   1.466 -0.1859 -1.3592 -2.2876
  614HK4    C1451524  10.966   4.719   0.789 -0.4595 -0.7195 -0.2427
  614HK4     C951525  11.015   4.589   0.774  0.6926 -0.3108 -0.0717
  614HK4     C851526  11.102   4.567   0.665  0.5563  0.0379 -0.2547
  614HK4    C1151527  11.135   4.667   0.574  0.0254  0.1560 -0.3183
  614HK4     H451528  11.201   4.644   0.490 -1.5627 -2.4448 -0.9170
  614HK4    C1251529  11.091   4.797   0.593  0.1700  0.2080 -0.3262
  614HK4     H551530  11.119   4.879   0.526  2.2106  1.8625  2.4353
  614HK4    C1351531  10.997   4.818   0.694  0.5426 -0.6100  0.1942
  614HK4     H651532  10.945   4.915   0.699  1.7164 -0.0080  1.0026
  614HK4     C751533  11.154   4.430   0.643  0.2303 -0.0753 -0.3369
  614HK4     O251534  11.203   4.394   0.536 -0.3429 -0.3445 -0.5080
  614HK4     C451535  11.141   4.324   0.745  0.1423 -0.2058 -0.4824
  614HK4     C351536  11.203   4.200   0.733  0.0895 -0.2762 -0.0450
  614HK4     H351537   0.001   4.163   0.640  3.0038  0.7328  0.9335
  614HK4     C251538  11.189   4.104   0.832  0.4208  0.1746  0.4444
  614HK4     H251539  11.233   4.003   0.822 -2.2398 -1.3000  3.0653
  614HK4     C151540  11.123   4.136   0.950 -0.0732 -0.3434  0.3120
  614HK4     H151541  11.137   4.068   1.035  1.3539  0.5651  0.8263
  614HK4     C651542  11.064   4.262   0.969  0.2647 -0.0891 -0.2987
  614HK4     C551543  11.060   4.348   0.858  0.3630 -0.1358 -0.3371
  614HK4    C1051544  10.983   4.475   0.864  0.5353 -0.0521  0.2003
  614HK4     O151545  10.862   4.462   0.885  0.4319  0.2159 -0.2046
  614HK4    C1651546  11.054   4.303   1.110  0.2286  0.4571 -0.4599
  614HK4    C1551547  11.159   4.266   1.196 -0.0878  0.6081 -0.0120
  614HK4     H751548   0.007   4.236   1.153 -0.8789 -0.9846 -0.7030
  614HK4    C2051549  11.142   4.246   1.333  0.4073 -0.1036 -0.0534
  614HK4     H951550  11.226   4.201   1.385  1.9445  1.4286 -1.1568
  614HK4    C1951551  11.021   4.276   1.394  0.3201 -0.2026 -0.1758
  614HK4    C1851552  10.914   4.327   1.310 -0.0133 -0.4004  0.1299
  614HK4    C1751553  10.934   4.336   1.173  0.4000 -0.1804  0.2038
  614HK4     H851554  10.848   4.365   1.112  1.5215  1.0068 -0.8406
  614HK4     N151555  10.785   4.319   1.367 -0.0692 -0.0082  0.0552
  614HK4    C2151556  10.810   4.266   1.496  0.1542  0.0541  0.0378
  614HK4    C2251557  10.952   4.246   1.518  0.2039  0.1807 -0.1462
  614HK4    C2651558  10.999   4.206   1.643  0.0672 -0.2897 -0.2446
  614HK4    H1351559  11.089   4.146   1.645 -0.0696 -0.4724  0.7389
  614HK4    C2551560  10.913   4.189   1.751 -0.0368  0.3121 -0.2337
  614HK4    H1251561  10.948   4.173   1.853  0.8969  1.0947 -0.4211
  614HK4    C2451562  10.777   4.201   1.725 -0.1437 -0.4457 -0.0486
  614HK4    H1151563  10.704   4.172   1.802 -1.2053 -1.2504 -1.3404
  614HK4    C2351564  10.725   4.241   1.603  0.0783 -0.4041 -0.1305
  614HK4    H1051565  10.620   4.231   1.576  0.2876  1.3789 -1.7586
  614HK4    C3951566  10.674   4.399   1.339 -0.0664  0.0765  0.2791
  614HK4    C4151567  10.542   4.351   1.352 -0.0550 -0.0681 -0.0807
  614HK4    H2151568  10.525   4.243   1.351 -0.0588 -0.1226  2.0535
  614HK4    C4251569  10.439   4.443   1.370 -0.1118 -0.0259 -0.6311
  614HK4    H2251570  10.334   4.408   1.374  0.2940 -1.3810 -1.7131
  614HK4    C4351571  10.458   4.580   1.371 -0.6214  0.0449 -0.2471
  614HK4    H2351572  10.370   4.644   1.378 -1.2877 -0.8584 -0.2963
  614HK4    C4451573  10.586   4.628   1.345 -0.4210 -0.2214  0.2724
  614HK4    H2451574  10.592   4.738   1.345 -0.1718 -0.2011  2.7579
  614HK4    C4551575  10.692   4.539   1.338 -0.1573  0.0883  0.3281
  614HK4    H2551576  10.790   4.589   1.345 -0.6431  1.2792 -1.1319
  615HK4    H2851577   1.709   3.340   4.719  0.1501 -0.2800  0.0879
  615HK4    C4851578   1.765   3.313   4.629 -0.5166 -0.2493 -0.3361
  615HK4    C4751579   1.771   3.396   4.517  0.4591  0.1781  0.0267
  615HK4    H2751580   1.691   3.471   4.508 -0.2949 -0.6728 -0.4571
  615HK4    C4651581   1.869   3.372   4.422  0.4346 -0.2868  0.1177
  615HK4    H2651582   1.879   3.438   4.334 -0.9836  0.7177  0.6896
  615HK4    C4051583   1.970   3.275   4.440  0.3989 -0.2542  0.4831
  615HK4    C5051584   1.959   3.195   4.556 -0.0413 -0.5852  0.2097
  615HK4    H3051585   2.009   3.097   4.547  1.0694 -0.0300  0.3043
  615HK4    C4951586   1.855   3.209   4.647  0.1669  0.4420  0.2916
  615HK4    H2951587   1.841   3.144   4.734  1.4187 -0.6883 -0.3413
  615HK4     N251588   2.070   3.245   4.347 -0.1475 -0.2278 -0.1160
  615HK4    C3051589   2.054   3.265   4.208 -0.0046  0.5476 -0.0266
  615HK4    C2951590   1.937   3.274   4.134  0.0702  0.4327 -0.1585
  615HK4    H1551591   1.843   3.233   4.171 -0.5029 -0.3580 -2.3975
  615HK4    C2851592   1.932   3.313   4.001 -0.1924 -0.0471 -0.2934
  615HK4    C2751593   2.059   3.323   3.941 -0.2604  0.4720 -0.3593
  615HK4    H1451594   2.060   3.352   3.835 -1.2162  0.9958 -0.2218
  615HK4    C3251595   2.181   3.314   4.008 -0.5849 -0.4276  0.1198
  615HK4    H1651596   2.277   3.341   3.965  0.8996 -0.8956  3.0074
  615HK4    C3151597   2.182   3.288   4.145  0.1631  0.5021  0.2950
  615HK4    C3451598   2.282   3.274   4.249  0.0608 -0.2745  0.2911
  615HK4    C3351599   2.209   3.251   4.372 -0.1948 -0.2108  0.1512
  615HK4    C3551600   2.277   3.243   4.493  0.0002  0.6712  0.1022
  615HK4    H1751601   2.219   3.231   4.584  0.4779 -0.7504  0.2267
  615HK4    C3651602   2.416   3.254   4.492  0.0373  0.2017 -0.0859
  615HK4    H1851603   2.468   3.245   4.589  0.7111 -0.6045 -0.5168
  615HK4    C3751604   2.488   3.273   4.375  0.0523  0.0817 -0.0978
  615HK4    H1951605   2.593   3.299   4.385  0.5697 -1.6828 -0.9516
  615HK4    C3851606   2.420   3.291   4.255  0.1204 -0.5510 -0.2307
  615HK4    H2051607   2.470   3.347   4.176 -0.8004  0.3388 -0.2014
  615HK4    C1451608   1.808   3.311   3.922 -0.3692  0.4444 -0.0331
  615HK4     C951609   1.807   3.283   3.785  0.6348  0.4710 -0.0478
  615HK4     C851610   1.725   3.368   3.708  0.5006  0.3315 -0.0593
  615HK4    C1151611   1.643   3.466   3.762 -0.3322 -0.3056 -0.1529
  615HK4     H451612   1.558   3.503   3.703  1.2807  0.8990 -1.8149
  615HK4    C1251613   1.636   3.479   3.900 -0.5636 -0.7446 -0.1244
  615HK4     H551614   1.562   3.547   3.943 -0.2682 -1.2706  1.2417
  615HK4    C1351615   1.711   3.395   3.981 -0.5612 -0.1463  0.4968
  615HK4     H651616   1.707   3.407   4.090  2.9100 -0.1146  0.6859
  615HK4     C751617   1.702   3.334   3.566  0.2661 -0.1591  0.0955
  615HK4     O251618   1.642   3.408   3.487 -0.1337 -0.3326  0.2331
  615HK4     C451619   1.754   3.207   3.510  0.1589 -0.1516 -0.0228
  615HK4     C351620   1.706   3.159   3.389 -0.2241  0.5196 -0.1429
  615HK4     H351621   1.602   3.181   3.360 -0.6514  0.5046  1.3382
  615HK4     C251622   1.770   3.058   3.319 -0.0487  0.4656  0.0975
  615HK4     H251623   1.729   3.011   3.228 -2.7848  1.9184  0.5621
  615HK4     C151624   1.894   3.023   3.372 -0.3420 -0.4116  0.2139
  615HK4     H151625   1.959   2.975   3.298 -1.0047  0.7883 -1.1600
  615HK4     C651626   1.942   3.059   3.500  0.0642 -0.2084  0.0049
  615HK4     C551627   1.866   3.150   3.574  0.2456 -0.0120 -0.0515
  615HK4    C1051628   1.878   3.168   3.721 -0.1809 -0.0511 -0.0125
  615HK4     O151629   1.923   3.081   3.795 -0.3661  0.1041  0.2843
  615HK4    C1651630   2.055   2.976   3.544  0.3298  0.1948  0.0793
  615HK4    C1551631   2.064   2.839   3.512 -0.7871 -0.0040  0.6098
  615HK4     H751632   1.972   2.797   3.469 -0.4346 -0.4807  0.3182
  615HK4    C2051633   2.183   2.769   3.508 -0.3247  0.7738  0.5082
  615HK4     H951634   2.187   2.664   3.479  0.0546  0.6671  0.9271
  615HK4    C1951635   2.299   2.839   3.540  0.0606  0.3790 -0.0246
  615HK4    C1851636   2.291   2.976   3.587  0.0965  0.1016  0.8009
  615HK4    C1751637   2.168   3.042   3.592  0.3668  0.7389 -0.7512
  615HK4     H851638   2.158   3.121   3.666 -1.0567  1.3101 -1.5447
  615HK4     N151639   2.416   3.033   3.616  0.4894 -0.5052  0.2948
  615HK4    C2151640   2.505   2.937   3.563  0.4764 -0.4525  0.1781
  615HK4    C2251641   2.441   2.810   3.532 -0.0418 -0.1631  0.0644
  615HK4    C2651642   2.504   2.721   3.447 -0.4920 -0.5087  0.0926
  615HK4    H1351643   2.463   2.620   3.438  0.7123 -0.9815 -0.3675
  615HK4    C2551644   2.622   2.757   3.383 -0.5633 -0.4405 -0.0018
  615HK4    H1251645   2.659   2.691   3.304  0.6490 -0.9693  0.9954
  615HK4    C2451646   2.687   2.876   3.416 -0.6045 -0.3534 -0.2297
  615HK4    H1151647   2.788   2.881   3.374 -0.0044 -0.7699  1.1382
  615HK4    C2351648   2.626   2.968   3.501  0.0187  0.2122 -0.3941
  615HK4    H1051649   2.665   3.070   3.502 -0.9824  0.6092  1.6755
  615HK4    C3951650   2.440   3.101   3.735 -0.1910 -0.2049  0.2578
  615HK4    C4151651   2.549   3.190   3.742 -0.1732 -0.2036 -0.0416
  615HK4    H2151652   2.600   3.213   3.647 -1.9172  1.1385 -0.6962
  615HK4    C4251653   2.599   3.240   3.862 -0.2010  0.1222 -0.1652
  615HK4    H2251654   2.674   3.320   3.854  0.5985 -0.6507 -0.3929
  615HK4    C4351655   2.550   3.187   3.981 -0.0595  0.2869 -0.0323
  615HK4    H2351656   2.592   3.206   4.079  3.0396  0.2847 -1.2864
  615HK4    C4451657   2.453   3.087   3.976 -0.4736  0.7001 -0.3374
  615HK4    H2451658   2.411   3.064   4.075 -1.5615  1.8994 -0.5008
  615HK4    C4551659   2.396   3.046   3.857 -0.8656 -0.0229  0.0993
  615HK4    H2551660   2.309   2.978   3.859 -0.2887 -0.7599  0.5710
  616HK4    H2851661   3.253   9.795   2.528 -1.4847 -1.8942  0.0517
  616HK4    C4851662   3.288   9.783   2.631  0.2970  0.1551 -0.2948
  616HK4    C4751663   3.309   9.653   2.675  0.3614  0.3003  0.1063
  616HK4    H2751664   3.297   9.571   2.603  0.5595 -0.4806  0.9639
  616HK4    C4651665   3.341   9.630   2.808 -0.4246  0.2564  0.2879
  616HK4    H2651666   3.342   9.529   2.851  2.2446  0.5293  0.9293
  616HK4    C4051667   3.372   9.736   2.895  0.1045  0.2527  0.1059
  616HK4    C5051668   3.367   9.865   2.840 -0.2648  0.1427 -0.1151
  616HK4    H3051669   3.394   9.947   2.908 -0.5933  0.5631 -0.4856
  616HK4    C4951670   3.323   9.892   2.710 -0.5790  0.2228  0.0072
  616HK4    H2951671   3.306   9.996   2.680 -0.1215  0.1573 -0.4803
  616HK4     N251672   3.418   9.715   3.026 -0.3366 -0.2122  0.1882
  616HK4    C3051673   3.405   9.804   3.135  0.0760 -0.2522  0.2683
  616HK4    C2951674   3.308   9.901   3.159  0.2501  0.0144 -0.0917
  616HK4    H1551675   3.266   9.940   3.066  0.1431  1.8589  0.7134
  616HK4    C2851676   3.294   9.970   3.278 -0.0631  0.0084 -0.1225
  616HK4    C2751677   3.393   9.946   3.376  0.0721  0.1964 -0.2117
  616HK4    H1451678   3.408  10.027   3.448  0.8804 -1.4391  1.5211
  616HK4    C3251679   3.493   9.850   3.362  0.1000  0.1729  0.1567
  616HK4    H1651680   3.583   9.852   3.423  0.3264 -0.4651 -0.1536
  616HK4    C3151681   3.495   9.775   3.245  0.4484  0.2607  0.1038
  616HK4    C3451682   3.571   9.661   3.196 -0.2295 -0.0836 -0.1536
  616HK4    C3351683   3.515   9.623   3.068  0.2929  0.1542 -0.4545
  616HK4    C3551684   3.566   9.509   3.007  0.2575  0.0973 -0.3836
  616HK4    H1751685   3.538   9.492   2.903  1.0774  2.4695 -1.0202
  616HK4    C3651686   3.660   9.427   3.068  0.3930  0.1874 -0.4730
  616HK4    H1851687   3.667   9.323   3.031 -2.3591  0.2201 -1.1662
  616HK4    C3751688   3.707   9.464   3.193 -0.1256 -0.0477 -0.2068
  616HK4    H1951689   3.794   9.413   3.234 -0.5755 -0.8871 -0.2943
  616HK4    C3851690   3.672   9.585   3.253 -0.2421 -0.1064 -0.1596
  616HK4    H2051691   3.712   9.606   3.352 -1.0224  3.0463 -0.4746
  616HK4    C1451692   3.178  10.058   3.300 -0.2385 -0.2092 -0.1871
  616HK4     C951693   3.178  10.171   3.382 -0.3667 -0.0417 -0.4155
  616HK4     C851694   3.059  10.204   3.451 -0.2637  0.7183 -0.6009
  616HK4    C1151695   2.941  10.136   3.425 -0.1275  0.0780  0.4234
  616HK4     H451696   2.847  10.177   3.465 -0.0466 -0.6538  1.3753
  616HK4    C1251697   2.942  10.034   3.331 -0.1318 -0.2744  0.8061
  616HK4     H551698   2.847   9.991   3.297  1.1952 -2.9971  0.3739
  616HK4    C1351699   3.058   9.991   3.268 -0.5022  0.3080 -0.2866
  616HK4     H651700   3.048   9.911   3.192 -1.8981  1.2906 -1.1424
  616HK4     C751701   3.061  10.302   3.562 -0.4472 -0.4717  0.4571
  616HK4     O251702   2.956  10.361   3.587 -0.1820  0.2902 -0.2177
  616HK4     C451703   3.192  10.345   3.614 -0.2522 -0.1516 -0.2918
  616HK4     C351704   3.200  10.406   3.739 -0.0415 -0.8590  0.0454
  616HK4     H351705   3.128  10.377   3.817 -1.8807  0.3513 -1.1777
  616HK4     C251706   3.314  10.474   3.781 -0.4956  0.0817 -0.2380
  616HK4     H251707   3.314  10.527   3.877 -3.3011 -0.5274  0.1342
  616HK4     C151708   3.422  10.474   3.694 -0.4414 -0.1459 -0.1719
  616HK4     H151709   3.516  10.514   3.736 -0.4355 -1.1180  0.7453
  616HK4     C651710   3.428  10.402   3.573 -0.0871 -0.5433  0.0794
  616HK4     C551711   3.308  10.340   3.534 -0.3514  0.2990 -0.4608
  616HK4    C1051712   3.298  10.253   3.413 -0.2062 -0.4475  0.0594
  616HK4     O151713   3.368  10.274   3.314 -0.2425 -0.5529  0.0124
  616HK4    C1651714   3.559  10.410   3.506  0.1026 -0.5459  0.4530
  616HK4    C1551715   3.653  10.512   3.532 -0.1652 -0.1935  0.0391
  616HK4     H751716   3.618  10.602   3.584  1.5858  0.5193  0.0076
  616HK4    C2051717   3.788  10.504   3.497 -0.2607  0.1058 -0.4027
  616HK4     H951718   3.853  10.581   3.538 -0.3449 -0.5742  1.0214
  616HK4    C1951719   3.830  10.389   3.431  0.0001  0.0625 -0.1619
  616HK4    C1851720   3.742  10.275   3.413  0.4273 -0.4187  0.7731
  616HK4    C1751721   3.611  10.292   3.457  0.1997 -0.3396  0.0614
  616HK4     H851722   3.552  10.201   3.465 -2.4751  1.3827  0.2156
  616HK4     N151723   3.806  10.166   3.351 -0.3146 -0.3696 -0.0992
  616HK4    C2151724   3.942  10.204   3.347 -0.4375  0.0522 -0.2352
  616HK4    C2251725   3.961  10.341   3.390 -0.0223 -0.0456 -0.1093
  616HK4    C2651726   4.087  10.394   3.413 -0.0600 -0.0426  0.1019
  616HK4    H1351727   4.105  10.500   3.426  1.9519 -0.3906  0.4062
  616HK4    C2551728   4.198  10.311   3.402 -0.4260 -0.5847  0.4713
  616HK4    H1251729   4.302  10.340   3.421 -0.1707 -0.9126 -0.4157
  616HK4    C2451730   4.177  10.179   3.363  0.1730 -0.6097  0.2178
  616HK4    H1151731   4.261  10.108   3.370  1.1423  0.5259  0.3397
  616HK4    C2351732   4.053  10.121   3.337 -0.3122  0.0589  1.0035
  616HK4    H1051733   4.046  10.024   3.288 -0.4903 -0.2463  1.6313
  616HK4    C3951734   3.744  10.097   3.246  0.3395 -0.0808 -0.6807
  616HK4    C4151735   3.778   9.963   3.220 -0.4401 -0.4873  0.3311
  616HK4    H2151736   3.834   9.915   3.302  1.5060  0.8779 -0.1669
  616HK4    C4251737   3.754   9.909   3.095  0.3833  0.2343 -0.1458
  616HK4    H2251738   3.770   9.801   3.081 -1.3053 -0.4574  2.8391
  616HK4    C4351739   3.690   9.978   2.992 -0.8676 -0.3569  0.2285
  616HK4    H2351740   3.670   9.936   2.894  1.6233 -0.2493 -0.3496
  616HK4    C4451741   3.653  10.110   3.018  0.1949 -0.0212  0.0295
  616HK4    H2451742   3.600  10.160   2.936  1.8612  0.0919 -1.0170
  616HK4    C4551743   3.679  10.166   3.142 -0.2513  0.3415 -0.0422
  616HK4    H2551744   3.668  10.275   3.148  0.3026  0.5141 -1.7613
  617HK4    H2851745  10.308   8.300   8.321 -2.6802  0.3108  0.8506
  617HK4    C4851746  10.358   8.302   8.417 -0.3485  0.2427 -0.3336
  617HK4    C4751747  10.294   8.353   8.530  0.3683  0.4556 -0.0171
  617HK4    H2751748  10.211   8.423   8.512  0.8349  0.9170 -0.4208
  617HK4    C4651749  10.354   8.336   8.654 -0.2184 -0.3918  0.1601
  617HK4    H2651750  10.301   8.373   8.743  0.2233 -3.4832  1.7546
  617HK4    C4051751  10.485   8.288   8.673  0.0531  0.3408  0.1697
  617HK4    C5051752  10.556   8.257   8.555 -0.4566  0.4752 -0.1748
  617HK4    H3051753  10.661   8.233   8.575 -0.9423 -1.1727  0.4335
  617HK4    C4951754  10.488   8.255   8.434 -0.7310 -0.7118 -0.0078
  617HK4    H2951755  10.544   8.214   8.348 -0.0411  0.4892 -0.1427
  617HK4     N251756  10.555   8.308   8.793  0.1615 -0.1365  0.1858
  617HK4    C3051757  10.660   8.225   8.837  1.1513  0.3922 -1.1333
  617HK4    C2951758  10.664   8.086   8.834 -0.8432  0.2759  0.5124
  617HK4    H1551759  10.635   8.037   8.741  0.7178  0.5841 -0.1469
  617HK4    C2851760  10.744   8.009   8.917 -0.4912 -0.1303 -0.1978
  617HK4    C2751761  10.832   8.076   9.005 -0.3968 -0.4629 -0.0357
  617HK4    H1451762  10.915   8.019   9.048 -0.6920  0.0937  1.2901
  617HK4    C3251763  10.836   8.215   9.009 -0.3206 -0.4401 -0.7779
  617HK4    H1651764  10.926   8.264   9.046 -1.3616  1.5290 -0.7731
  617HK4    C3151765  10.743   8.290   8.937 -0.0256  0.4892 -0.2061
  617HK4    C3451766  10.688   8.423   8.952  0.1345  0.5731 -0.3507
  617HK4    C3351767  10.571   8.426   8.867 -0.0653  0.0754 -0.1019
  617HK4    C3551768  10.500   8.544   8.851 -0.3119 -0.0010  0.4553
  617HK4    H1751769  10.397   8.543   8.814 -0.3972  0.5917  0.6644
  617HK4    C3651770  10.547   8.660   8.913  0.3254 -0.3780  0.6826
  617HK4    H1851771  10.476   8.744   8.901 -1.1723 -1.8216 -0.9587
  617HK4    C3751772  10.657   8.655   8.996  0.0744 -0.3781  1.0188
  617HK4    H1951773  10.687   8.746   9.049 -1.4950  2.0005 -2.0204
  617HK4    C3851774  10.730   8.538   9.017  0.6767 -0.0974  0.5018
  617HK4    H2051775  10.828   8.547   9.064  1.0881 -1.7392 -0.0117
  617HK4    C1451776  10.705   7.873   8.956  0.2700 -0.2802  0.0477
  617HK4     C951777  10.713   7.818   9.085  0.3073  0.2696  0.2809
  617HK4     C851778  10.727   7.679   9.103  0.2749  0.2548  0.1922
  617HK4    C1151779  10.711   7.596   8.993  0.1507  0.0877  0.3360
  617HK4     H451780  10.734   7.489   9.006  3.8114  0.9075  1.1722
  617HK4    C1251781  10.690   7.644   8.864 -1.4643 -0.3242  0.4372
  617HK4     H551782  10.672   7.577   8.779 -2.4404 -0.8934  1.0748
  617HK4    C1351783  10.688   7.782   8.849 -0.1330 -0.3297  0.1540
  617HK4     H651784  10.680   7.820   8.746  0.1169 -0.4551  0.0880
  617HK4     C751785  10.731   7.624   9.240  0.0106  0.2005  0.1802
  617HK4     O251786  10.712   7.504   9.257  0.0622  0.3406  1.2859
  617HK4     C451787  10.763   7.715   9.353  0.1438 -0.0533  0.3456
  617HK4     C351788  10.790   7.667   9.480 -0.0408 -0.3489  0.2785
  617HK4     H351789  10.811   7.559   9.489  0.7372 -0.3771 -1.6880
  617HK4     C251790  10.799   7.752   9.590  0.5383  0.0350 -0.0660
  617HK4     H251791  10.833   7.707   9.684  1.0175 -1.2999 -0.8510
  617HK4     C151792  10.792   7.889   9.570  0.0684  0.0154 -0.0468
  617HK4     H151793  10.807   7.954   9.658 -0.3070 -0.5252  0.4196
  617HK4     C651794  10.763   7.947   9.445 -0.5900 -0.0605  0.0722
  617HK4     C551795  10.738   7.853   9.343 -0.5355 -0.1901  0.1768
  617HK4    C1051796  10.693   7.898   9.209 -0.2984  0.2005  0.2261
  617HK4     O151797  10.603   7.982   9.201 -0.6157 -0.2061 -0.6620
  617HK4    C1651798  10.812   8.084   9.426 -0.3943 -0.1130  0.2032
  617HK4    C1551799  10.933   8.122   9.488 -0.0138  0.3915 -0.8264
  617HK4     H751800  10.997   8.041   9.525 -0.1166  1.2390  1.2787
  617HK4    C2051801  10.965   8.253   9.522 -0.0414  0.1066  0.3369
  617HK4     H951802  11.060   8.281   9.567  0.0039 -1.6597  1.3731
  617HK4    C1951803  10.865   8.348   9.498  0.0898  0.2426  0.3157
  617HK4    C1851804  10.739   8.309   9.437  0.6791 -0.2505 -0.6012
  617HK4    C1751805  10.712   8.177   9.404 -0.2985 -0.1293 -0.2973
  617HK4     H851806  10.611   8.135   9.400 -1.6989  3.2238 -2.0873
  617HK4     N151807  10.652   8.419   9.425  0.4524 -0.3832 -0.1627
  617HK4    C2151808  10.723   8.528   9.480 -0.0317 -0.0359 -0.2206
  617HK4    C2251809  10.856   8.490   9.523  0.0657  0.3318 -0.1964
  617HK4    C2651810  10.936   8.578   9.595 -0.3442  0.6148 -0.0767
  617HK4    H1351811  11.033   8.537   9.624 -0.1169 -0.2737 -2.0024
  617HK4    C2551812  10.891   8.707   9.618  0.4389  0.8443  0.2044
  617HK4    H1251813  10.960   8.775   9.668  0.0561 -1.3390  3.8876
  617HK4    C2451814  10.771   8.750   9.561  0.3525 -0.1773 -0.3947
  617HK4    H1151815  10.758   8.859   9.554  2.0457  0.0832  0.1484
  617HK4    C2351816  10.689   8.663   9.491  0.0879  0.0020 -0.3145
  617HK4    H1051817  10.599   8.708   9.450 -1.0050 -1.2222  0.6733
  617HK4    C3951818  10.532   8.422   9.353  0.2111  0.4636  0.2634
  617HK4    C4151819  10.431   8.516   9.382  0.0037  0.5195 -0.6275
  617HK4    H2151820  10.433   8.572   9.477  1.4740  0.0175 -0.3495
  617HK4    C4251821  10.323   8.523   9.294 -0.2909  0.3940 -0.2791
  617HK4    H2251822  10.245   8.599   9.311 -1.0084  0.3826 -3.2213
  617HK4    C4351823  10.311   8.441   9.183  0.1341 -0.5633  0.3748
  617HK4    H2351824  10.212   8.443   9.137  0.9833  0.6278 -1.4803
  617HK4    C4451825  10.410   8.350   9.148  0.3647 -0.2688  0.2602
  617HK4    H2451826  10.375   8.280   9.071 -1.5424 -0.6046  1.3938
  617HK4    C4551827  10.520   8.348   9.233  0.7013  1.0095 -0.1273
  617HK4    H2551828  10.605   8.282   9.212  0.5747  0.0743  2.0956
  618HK4    H2851829   2.540   7.987  10.337 -0.5104 -0.2440 -0.5460
  618HK4    C4851830   2.441   7.968  10.379 -0.0397 -0.1202  0.6525
  618HK4    C4751831   2.420   7.897  10.497 -0.1900 -0.7656  0.2431
  618HK4    H2751832   2.484   7.811  10.519 -0.4387 -0.6670  1.3672
  618HK4    C4651833   2.308   7.920  10.576 -0.0294 -0.0273  0.2511
  618HK4    H2651834   2.317   7.883  10.679 -1.7556 -2.7268 -0.5106
  618HK4    C4051835   2.209   8.014  10.538  0.0296  0.0907  0.3911
  618HK4    C5051836   2.221   8.066  10.408 -0.0735 -0.3873  0.1845
  618HK4    H3051837   2.127   8.092  10.356  0.4393  1.4638  0.1434
  618HK4    C4951838   2.337   8.049  10.334  0.1950  0.0872  0.4889
  618HK4    H2951839   2.340   8.102  10.238  2.2817 -1.0559 -0.1105
  618HK4     N251840   2.085   8.008  10.602  0.0597  0.0018  0.4404
  618HK4    C3051841   2.043   7.914  10.699 -0.1879 -0.2155  0.1243
  618HK4    C2951842   2.099   7.792  10.736  0.5568  0.2744  0.6385
  618HK4    H1551843   2.147   7.733  10.658  0.4517  0.7864  0.1822
  618HK4    C2851844   2.059   7.724  10.850 -0.2434 -0.0536  0.1744
  618HK4    C2751845   1.960   7.790  10.925 -0.6344 -0.3794 -0.0563
  618HK4    H1451846   1.967   7.766  11.032  1.1422 -1.8671 -0.5019
  618HK4    C3251847   1.887   7.902  10.888  0.5588  0.4329  0.0163
  618HK4    H1651848   1.802   7.945  10.942  1.6770  0.6881  1.5840
  618HK4    C3151849   1.924   7.960  10.767 -0.6878 -0.2597 -0.7121
  618HK4    C3451850   1.887   8.085  10.704  0.2924  0.1534 -0.4816
  618HK4    C3351851   1.989   8.111  10.604  0.0694  0.0355 -0.7422
  618HK4    C3551852   2.007   8.239  10.554  0.4855  0.2746  0.0091
  618HK4    H1751853   2.053   8.254  10.456  0.1199  2.8740  0.1818
  618HK4    C3651854   1.922   8.339  10.600 -0.0496 -0.1460 -0.0780
  618HK4    H1851855   1.935   8.438  10.555 -0.1061 -0.1243 -0.0472
  618HK4    C3751856   1.822   8.316  10.694  0.3263  0.2224  0.4153
  618HK4    H1951857   1.757   8.399  10.719 -0.8847 -0.7258  0.4973
  618HK4    C3851858   1.804   8.189  10.748  0.1098 -0.0624 -0.3229
  618HK4    H2051859   1.740   8.178  10.835  1.0183  3.9043  0.9334
  618HK4    C1451860   2.086   7.580  10.867 -0.4387 -0.2352 -1.0532
  618HK4     C951861   1.990   7.489  10.912  0.0111 -0.0044  0.3963
  618HK4     C851862   2.036   7.380  10.989  0.1310 -0.5873 -0.4859
  618HK4    C1151863   2.171   7.359  11.015  0.1215 -0.2674 -0.1622
  618HK4     H451864   2.200   7.276  11.081  0.1381 -1.7836 -2.0131
  618HK4    C1251865   2.268   7.448  10.971 -0.3796  0.1908 -0.3400
  618HK4     H551866   2.374   7.428  10.992 -0.5147  0.9729  1.2407
  618HK4    C1351867   2.221   7.557  10.899 -0.5280  0.0377 -0.4751
  618HK4     H651868   2.292   7.622  10.845  0.5176 -1.1802 -0.5942
  618HK4     C751869   1.941   7.281  11.043  0.2500 -0.0876  0.6597
  618HK4     O251870   1.984   7.174  11.087 -0.0374 -0.2659  0.5107
  618HK4     C451871   1.795   7.300  11.031  0.2706  0.1968  0.8609
  618HK4     C351872   1.712   7.191  11.053  0.0682  0.0327 -0.6184
  618HK4     H351873   1.759   7.092  11.055 -0.6892 -0.3150  1.7791
  618HK4     C251874   1.574   7.205  11.039 -0.0205 -0.3071 -0.1141
  618HK4     H251875   1.505   7.128  11.075 -1.2931  0.4217 -0.9419
  618HK4     C151876   1.523   7.326  10.992  0.2332 -0.1891 -0.0870
  618HK4     H151877   1.417   7.351  11.007  0.5484  0.3693  1.2255
  618HK4     C651878   1.610   7.429  10.952 -0.0721  0.2984  0.5135
  618HK4     C551879   1.748   7.414  10.961 -0.1254 -0.4366  0.0875
  618HK4    C1051880   1.845   7.494  10.880 -0.0250 -0.0924  0.5471
  618HK4     O151881   1.810   7.511  10.763 -0.1860  0.0585  0.6183
  618HK4    C1651882   1.539   7.556  10.928 -0.3829  0.0973  0.3556
  618HK4    C1551883   1.588   7.685  10.960 -0.1911  0.1940 -0.3127
  618HK4     H751884   1.683   7.685  11.015  0.3053 -2.5723 -1.0907
  618HK4    C2051885   1.553   7.804  10.898  0.6193  0.0987 -0.9599
  618HK4     H951886   1.600   7.898  10.929 -1.4149 -0.2732  3.6998
  618HK4    C1951887   1.465   7.795  10.791 -0.5999 -0.4233  0.0866
  618HK4    C1851888   1.409   7.667  10.752 -1.0495 -0.2142  0.0443
  618HK4    C1751889   1.446   7.555  10.825 -0.0418  0.1181  0.0492
  618HK4     H851890   1.391   7.465  10.797 -0.3824  0.9773 -2.1729
  618HK4     N151891   1.346   7.679  10.627  0.1321  0.0637 -0.5257
  618HK4    C2151892   1.348   7.816  10.594  0.1147  0.1569 -0.1396
  618HK4    C2251893   1.427   7.891  10.689 -0.2474 -0.0387  0.3163
  618HK4    C2651894   1.443   8.029  10.688  0.1877 -0.0906 -0.1609
  618HK4    H1351895   1.506   8.068  10.768 -0.1395 -0.4599  0.2774
  618HK4    C2551896   1.389   8.090  10.575 -0.7385  0.3863  0.5350
  618HK4    H1251897   1.372   8.198  10.582 -0.8914  0.4037 -0.0846
  618HK4    C2451898   1.319   8.025  10.474  0.0113  0.3359  0.0438
  618HK4    H1151899   1.294   8.075  10.379  0.6549 -0.8292 -0.7577
  618HK4    C2351900   1.295   7.889  10.488  0.6976  0.1665 -0.4275
  618HK4    H1051901   1.252   7.836  10.402 -1.0033  0.8493 -0.0251
  618HK4    C3951902   1.342   7.583  10.525  0.1889  0.1997 -0.6564
  618HK4    C4151903   1.230   7.575  10.440 -0.2414  0.0123 -0.0683
  618HK4    H2151904   1.138   7.635  10.450 -0.5052 -0.2704 -0.7802
  618HK4    C4251905   1.227   7.483  10.336  0.5013 -0.4882  0.3478
  618HK4    H2251906   1.139   7.476  10.270  0.3743 -0.6487  0.5311
  618HK4    C4351907   1.329   7.391  10.314  0.0863 -0.7474 -0.5177
  618HK4    H2351908   1.332   7.333  10.222 -1.1566  0.7109 -1.5129
  618HK4    C4451909   1.437   7.397  10.401 -0.1350 -0.1298 -0.2767
  618HK4    H2451910   1.526   7.338  10.372  0.5630  0.2379  1.0633
  618HK4    C4551911   1.443   7.487  10.506 -0.1284 -0.2280 -0.1914
  618HK4    H2551912   1.535   7.493  10.567  1.0685  2.8351 -2.1882
  619HK4    H2851913   0.235  10.956   3.369 -1.6786  3.1184  0.8304
  619HK4    C4851914   0.219  10.946   3.262  0.1511  0.2505  0.7703
  619HK4    C4751915   0.094  10.956   3.202  0.3488 -1.0521  0.1229
  619HK4    H2751916   0.010  10.988   3.266 -0.8810  2.5994 -3.1671
  619HK4    C4651917   0.072  10.923   3.069 -0.2758  1.1980 -0.3546
  619HK4    H2651918  11.227  10.944   3.016 -1.3107  2.2334  1.8166
  619HK4    C4051919   0.177  10.871   2.990 -0.3550  0.0834  0.2697
  619HK4    C5051920   0.303  10.862   3.053  0.1445  0.3346 -0.6890
  619HK4    H3051921   0.379  10.801   3.004  0.2594  0.6610 -0.9204
  619HK4    C4951922   0.326  10.904   3.184 -0.7960  0.0398 -0.4260
  619HK4    H2951923   0.427  10.891   3.225  1.0572  1.1010 -4.4525
  619HK4     N251924   0.146  10.781   2.887  0.0213 -0.1731  0.3762
  619HK4    C3051925   0.031  10.700   2.871 -0.2644  0.3793 -0.4318
  619HK4    C2951926  11.195  10.644   2.966  0.3642  0.3270  0.1015
  619HK4    H1551927  11.226  10.610   3.064 -0.6585  0.9212  0.6523
  619HK4    C2851928  11.065  10.603   2.939  0.5109 -0.0760  0.0117
  619HK4    C2751929  11.038  10.597   2.800 -0.2764  1.1008  0.1106
  619HK4    H1451930  10.933  10.586   2.770 -0.0740  0.2111 -0.2677
  619HK4    C3251931  11.125  10.629   2.697 -0.6645  0.2583 -0.4798
  619HK4    H1651932  11.097  10.618   2.592  0.5197 -1.0462 -0.6687
  619HK4    C3151933  11.245  10.691   2.730 -0.6278  0.1038 -0.3264
  619HK4    C3451934   0.102  10.759   2.657 -0.1403 -0.2063  0.0785
  619HK4    C3351935   0.194  10.809   2.757 -0.0667 -0.6630  0.2387
  619HK4    C3551936   0.306  10.875   2.710 -0.0500 -0.6423  0.3041
  619HK4    H1751937   0.393  10.889   2.774  0.2260 -0.5895 -0.0749
  619HK4    C3651938   0.320  10.898   2.573  0.1647 -0.4497  0.3572
  619HK4    H1851939   0.410  10.951   2.539 -0.6950  0.5548 -0.4194
  619HK4    C3751940   0.232  10.850   2.476  0.3994  0.2175 -0.1905
  619HK4    H1951941   0.233  10.887   2.374 -0.9790 -0.6140 -0.5172
  619HK4    C3851942   0.118  10.786   2.522  0.4535  0.4503  0.2748
  619HK4    H2051943   0.049  10.736   2.453  0.9025  0.0254  0.1281
  619HK4    C1451944  10.982  10.550   3.048 -0.3066  0.2065 -0.4703
  619HK4     C951945  10.884  10.450   3.051 -0.0567 -0.0341 -0.2926
  619HK4     C851946  10.810  10.419   3.167 -0.1152  1.0161 -0.0455
  619HK4    C1151947  10.837  10.493   3.282  0.0146  0.2836  0.3981
  619HK4     H451948  10.820  10.443   3.378  0.2945 -0.7794 -0.0981
  619HK4    C1251949  10.931  10.595   3.280 -0.0058  0.2924 -0.1407
  619HK4     H551950  10.963  10.619   3.383  0.8688 -1.2732 -0.0346
  619HK4    C1351951  11.001  10.627   3.165 -0.1065 -0.0851 -0.3108
  619HK4     H651952  11.081  10.703   3.166  0.0941 -0.3090  2.1383
  619HK4     C751953  10.674  10.363   3.150  0.2300  0.2494 -0.3229
  619HK4     O251954  10.628  10.298   3.243  0.3746  0.4048 -0.1445
  619HK4     C451955  10.626  10.324   3.015 -0.5442  0.1339 -0.0168
  619HK4     C351956  10.490  10.306   2.997 -0.4668 -0.8048  0.2665
  619HK4     H351957  10.415  10.319   3.076 -0.1432  0.4860  0.3797
  619HK4     C251958  10.439  10.267   2.874 -0.2729  0.6888 -0.3013
  619HK4     H251959  10.330  10.257   2.860 -0.0470 -0.3340 -1.4591
  619HK4     C151960  10.533  10.242   2.774  0.7157  0.2780  0.7198
  619HK4     H151961  10.500  10.207   2.675  3.6745  1.4152 -0.7233
  619HK4     C651962  10.672  10.257   2.790  0.7675  0.8131 -0.1997
  619HK4     C551963  10.721  10.301   2.914 -0.1290  0.4275  0.3020
  619HK4    C1051964  10.854  10.366   2.932  0.0484  0.3164 -0.5686
  619HK4     O151965  10.959  10.321   2.885 -0.0277 -0.2029 -0.2539
  619HK4    C1651966  10.742  10.239   2.662  0.7510 -0.2956 -0.0582
  619HK4    C1551967  10.695  10.289   2.539 -0.2675 -0.1285  0.3976
  619HK4     H751968  10.617  10.367   2.534  0.9285  0.9937 -1.6610
  619HK4    C2051969  10.749  10.253   2.417 -0.4458 -0.2196  0.3452
  619HK4     H951970  10.716  10.289   2.319 -0.2905  0.5903  0.5906
  619HK4    C1951971  10.855  10.162   2.416  0.0722  0.3750 -0.2024
  619HK4    C1851972  10.911  10.113   2.540  0.1572  0.8060 -0.0745
  619HK4    C1751973  10.843  10.144   2.658  0.0362 -1.0848  0.3684
  619HK4     H851974  10.876  10.096   2.750  0.7015  1.4910  1.5332
  619HK4     N151975  11.015  10.019   2.522 -0.4591  0.0793  0.1146
  619HK4    C2151976  11.029  10.015   2.382  0.5164  0.9381  0.1856
  619HK4    C2251977  10.935  10.100   2.312 -0.0123  0.1115 -0.1121
  619HK4    C2651978  10.947  10.130   2.177  0.5260 -0.5421 -0.2128
  619HK4    H1351979  10.853  10.167   2.133 -1.1079 -1.2228  2.6090
  619HK4    C2551980  11.048  10.069   2.104  0.3372 -0.7937 -0.2650
  619HK4    H1251981  11.029  10.066   1.997 -1.7156 -1.9813  0.1102
  619HK4    C2451982  11.142   9.985   2.164  0.4467 -0.6188 -0.1896
  619HK4    H1151983  11.215   9.939   2.095  0.7470  0.0355 -0.3176
  619HK4    C2351984  11.129   9.964   2.300  0.0396  0.4002 -0.0609
  619HK4    H1051985  11.193   9.881   2.333 -2.7408 -1.4857  0.7624
  619HK4    C3951986  11.052   9.932   2.625 -0.3246  0.0162  0.0140
  619HK4    C4151987  11.180   9.875   2.632 -0.0988  0.4757 -0.3185
  619HK4    H2151988   0.008   9.922   2.569  1.1002 -1.7388 -0.5826
  619HK4    C4251989  11.209   9.757   2.700 -0.3537  0.3415 -0.4409
  619HK4    H2251990   0.066   9.733   2.722 -1.0448 -0.8944  1.6319
  619HK4    C4351991  11.107   9.682   2.756  0.3480 -0.0010  0.3872
  619HK4    H2351992  11.140   9.609   2.830 -1.1143  0.4063  1.4660
  619HK4    C4451993  10.975   9.721   2.735  0.4825  0.1167 -0.2409
  619HK4    H2451994  10.898   9.669   2.794  0.0597 -0.0113 -0.9058
  619HK4    C4551995  10.953   9.846   2.677 -0.3733  0.1629  0.1659
  619HK4    H2551996  10.849   9.880   2.674 -0.7263 -0.8233  0.7504
  620HK4    H2851997   4.464  10.136   8.040 -1.7513  2.5676 -0.1818
  620HK4    C4851998   4.487  10.149   8.146  0.2093  0.2650 -0.2750
  620HK4    C4751999   4.382  10.159   8.237  0.3334  0.2030 -0.1244
  620HK4    H2752000   4.281  10.190   8.206  0.3601  0.5131  0.0890
  620HK4    C4652001   4.404  10.145   8.373  0.6261  0.5948 -0.1339
  620HK4    H2652002   4.313  10.165   8.431 -0.4395 -0.8295 -1.3055
  620HK4    C4052003   4.533  10.124   8.426  0.3486 -0.1518  0.2608
  620HK4    C5052004   4.636  10.132   8.330  0.0398  0.0952 -0.0499
  620HK4    H3052005   4.741  10.122   8.361  0.5211  0.5659 -1.5087
  620HK4    C4952006   4.617  10.141   8.192  0.1417  0.5220 -0.0354
  620HK4    H2952007   4.695  10.103   8.124 -0.2969 -1.0178  0.3007
  620HK4     N252008   4.550  10.146   8.564  0.1321 -0.0319  0.2688
  620HK4    C3052009   4.462  10.210   8.652  0.3118  0.2189  0.2650
  620HK4    C2952010   4.376  10.319   8.639  0.0248 -0.0678 -0.2718
  620HK4    H1552011   4.335  10.352   8.544 -0.7047 -0.1682  0.0007
  620HK4    C2852012   4.299  10.367   8.745  0.4221  0.0138 -0.0210
  620HK4    C2752013   4.307  10.302   8.870  0.0527  0.2846  0.1458
  620HK4    H1452014   4.232  10.324   8.948 -2.0486 -3.3297 -0.7470
  620HK4    C3252015   4.402  10.203   8.891  0.1727  0.4365  0.3277
  620HK4    H1652016   4.422  10.171   8.993 -2.6121  2.0334  1.4305
  620HK4    C3152017   4.485  10.162   8.787 -0.0235  0.1322  0.2917
  620HK4    C3452018   4.597  10.071   8.779 -0.1942 -0.0635  0.1288
  620HK4    C3352019   4.636  10.063   8.639 -0.2031 -0.4896  0.1496
  620HK4    C3552020   4.717   9.954   8.608 -0.0892 -0.2256 -0.4853
  620HK4    H1752021   4.771   9.949   8.514 -0.5594  1.5164 -0.8701
  620HK4    C3652022   4.752   9.856   8.700  0.2906  0.4664  0.1097
  620HK4    H1852023   4.809   9.771   8.661 -0.0814  1.0229 -1.7061
  620HK4    C3752024   4.703   9.869   8.830 -0.4337  0.1599 -0.1310
  620HK4    H1952025   4.707   9.785   8.899 -0.9608  1.8762  2.0194
  620HK4    C3852026   4.627   9.976   8.876 -0.0213  0.2361  0.3702
  620HK4    H2052027   4.565   9.970   8.965 -0.9386 -0.5081 -0.3133
  620HK4    C1452028   4.219  10.489   8.733 -0.0112 -0.2160  0.5257
  620HK4     C952029   4.186  10.561   8.848 -0.4423  0.3305  0.0664
  620HK4     C852030   4.055  10.609   8.873 -0.3155  0.4109  0.5733
  620HK4    C1152031   3.966  10.608   8.767  0.1658  0.0802  0.1729
  620HK4     H452032   3.858  10.622   8.783  0.1600 -0.8902  0.9905
  620HK4    C1252033   4.005  10.561   8.642 -0.2757 -0.4363  0.2284
  620HK4     H552034   3.950  10.596   8.553 -1.8657 -0.5260  1.1593
  620HK4    C1352035   4.127  10.496   8.626  0.3756  0.7705  0.2464
  620HK4     H652036   4.147  10.441   8.533  0.8589  1.1652  0.1211
  620HK4     C752037   4.012  10.636   9.012 -0.2748  0.1625  0.6351
  620HK4     O252038   3.892  10.644   9.037 -0.3899  0.8291 -0.1477
  620HK4     C452039   4.116  10.648   9.117  0.0058 -0.6397  0.4556
  620HK4     C352040   4.081  10.694   9.243 -0.3094 -0.0013  0.1358
  620HK4     H352041   3.981  10.732   9.268  0.2067  1.1278  0.4964
  620HK4     C252042   4.172  10.681   9.347  0.3304 -0.2241 -0.4529
  620HK4     H252043   4.144  10.712   9.449 -1.6482 -3.4296  0.0366
  620HK4     C152044   4.296  10.620   9.329  0.7640  0.5415 -0.1091
  620HK4     H152045   4.367  10.645   9.409  1.4194 -1.6162  0.0056
  620HK4     C652046   4.335  10.569   9.203  0.2296  0.7490 -0.3596
  620HK4     C552047   4.247  10.599   9.098 -0.1024 -0.5907 -0.4669
  620HK4    C1052048   4.287  10.585   8.955  0.2368 -0.5135 -0.3822
  620HK4     O152049   4.389  10.644   8.922  0.2149 -0.4762 -0.3848
  620HK4    C1652050   4.426  10.454   9.205  0.0146  0.5851  0.1463
  620HK4    C1552051   4.474  10.398   9.325 -0.0552 -0.1448 -0.1588
  620HK4     H752052   4.394  10.365   9.394  2.0778 -2.7751  1.1410
  620HK4    C2052053   4.595  10.333   9.340  0.3481  0.6115 -0.0784
  620HK4     H952054   4.617  10.277   9.431 -3.0433  2.1214  1.7806
  620HK4    C1952055   4.684  10.327   9.233  0.0844 -0.1617 -0.2575
  620HK4    C1852056   4.642  10.381   9.105  0.2232  0.2531 -0.1255
  620HK4    C1752057   4.512  10.430   9.098  0.2087  0.2854  0.3672
  620HK4     H852058   4.466  10.425   9.000  0.5714  0.4838  0.1883
  620HK4     N152059   4.736  10.372   9.001  0.1323 -0.8061 -0.1164
  620HK4    C2152060   4.845  10.308   9.063  0.4622 -0.1896 -0.0616
  620HK4    C2252061   4.816  10.277   9.202  0.1208 -0.1551 -0.1249
  620HK4    C2652062   4.913  10.229   9.290  0.1457  0.0660 -0.0354
  620HK4    H1352063   4.885  10.240   9.394  0.5820  3.2339 -0.1867
  620HK4    C2552064   5.042  10.206   9.246  0.1800  0.3272 -0.0761
  620HK4    H1252065   5.121  10.166   9.309 -0.1407 -0.6370 -0.2794
  620HK4    C2452066   5.073  10.238   9.114 -0.1388  0.4285 -0.1262
  620HK4    H1152067   5.173  10.215   9.074 -0.8808  0.4908 -2.0894
  620HK4    C2352068   4.977  10.283   9.024  0.0888 -0.7606 -0.9857
  620HK4    H1052069   5.006  10.285   8.920 -3.5215 -1.3244 -2.0922
  620HK4    C3952070   4.734  10.448   8.884  0.5225 -0.1440  0.3113
  620HK4    C4152071   4.785  10.396   8.763  0.4205  0.5190 -0.0258
  620HK4    H2152072   4.818  10.291   8.755 -2.1894 -0.3137 -0.2080
  620HK4    C4252073   4.792  10.464   8.643 -0.6084 -0.2051 -0.5005
  620HK4    H2252074   4.851  10.425   8.558 -0.3138 -1.0243  0.0816
  620HK4    C4352075   4.739  10.593   8.641  0.1957  0.1497  0.8389
  620HK4    H2352076   4.742  10.652   8.550 -2.0030  0.5704  1.0115
  620HK4    C4452077   4.684  10.651   8.755 -0.1331  0.7182  0.3964
  620HK4    H2452078   4.620  10.740   8.750 -1.4788 -0.1850  1.3154
  620HK4    C4552079   4.693  10.583   8.876  0.5492 -0.1602 -0.1360
  620HK4    H2552080   4.645  10.633   8.962 -0.7530 -0.9715 -0.3742
  621HK4    H2852081   5.163   9.491   7.099  1.5076  1.3796 -2.8371
  621HK4    C4852082   5.072   9.523   7.048 -0.8195 -0.1026  0.2479
  621HK4    C4752083   5.077   9.649   6.989  0.1117 -0.0785  0.3695
  621HK4    H2752084   5.175   9.684   6.954  0.8996 -1.2390  1.3533
  621HK4    C4652085   4.959   9.711   6.949  0.4750 -0.2383 -0.9413
  621HK4    H2652086   4.958   9.820   6.938 -2.4371 -0.0398  1.0531
  621HK4    C4052087   4.839   9.638   6.950  0.2309  0.1760 -0.2667
  621HK4    C5052088   4.839   9.508   7.005 -0.6841  0.5803  0.7029
  621HK4    H3052089   4.764   9.433   6.976 -1.6503  1.6391  0.4291
  621HK4    C4952090   4.954   9.451   7.059 -0.6974 -0.3859 -0.2729
  621HK4    H2952091   4.960   9.350   7.103  1.0355 -0.1992 -0.0680
  621HK4     N252092   4.742   9.661   6.852  0.0023 -0.6408 -0.2443
  621HK4    C3052093   4.757   9.708   6.720 -0.5263 -0.3180 -0.1949
  621HK4    C2952094   4.870   9.765   6.662 -0.3971  0.1657  0.5388
  621HK4    H1552095   4.970   9.726   6.683 -0.3292 -0.6297 -1.1765
  621HK4    C2852096   4.855   9.828   6.539  0.1910 -0.4144  0.1687
  621HK4    C2752097   4.733   9.825   6.469  0.3919 -0.2029 -0.1902
  621HK4    H1452098   4.727   9.835   6.359 -2.1995 -1.8423 -0.2486
  621HK4    C3252099   4.619   9.771   6.528  0.2216  0.2474 -0.1063
  621HK4    H1652100   4.523   9.777   6.476 -1.2123  3.9307  2.7288
  621HK4    C3152101   4.628   9.715   6.654 -0.5910  0.3291 -0.0073
  621HK4    C3452102   4.530   9.681   6.756 -0.2960 -0.5368 -0.0068
  621HK4    C3352103   4.603   9.657   6.878  0.0098 -0.4391 -0.1683
  621HK4    C3552104   4.538   9.613   6.993  0.0004 -0.3691 -0.1481
  621HK4    H1752105   4.583   9.589   7.089 -1.5647 -0.4206  0.5859
  621HK4    C3652106   4.399   9.612   6.996  0.0044 -0.8471 -0.1713
  621HK4    H1852107   4.342   9.564   7.077  1.6223  0.9346  2.0437
  621HK4    C3752108   4.330   9.650   6.881  0.5597 -0.4794 -0.3828
  621HK4    H1952109   4.235   9.701   6.899  1.3976  1.1391 -0.4223
  621HK4    C3852110   4.392   9.671   6.758 -0.3245 -0.3958 -0.8170
  621HK4    H2052111   4.334   9.648   6.669 -0.8460  0.4213 -0.6997
  621HK4    C1452112   4.965   9.918   6.504 -0.0130 -0.1133  0.2982
  621HK4     C952113   4.936  10.041   6.445  0.1429 -0.0998  0.2491
  621HK4     C852114   5.010  10.087   6.334 -0.2323  0.0978  0.0753
  621HK4    C1152115   5.118  10.012   6.289 -0.3404 -0.2673  0.4235
  621HK4     H452116   5.159  10.023   6.188  0.5404 -1.3536  0.6494
  621HK4    C1252117   5.157   9.893   6.351  0.3759 -0.1016  0.2902
  621HK4     H552118   5.251   9.847   6.319 -1.1252 -1.3491 -2.4243
  621HK4    C1352119   5.081   9.850   6.459  0.0500  0.0990  0.1420
  621HK4     H652120   5.093   9.748   6.499 -0.6963 -0.7088 -1.6538
  621HK4     C752121   4.973  10.218   6.276  0.2060  0.2211  0.0686
  621HK4     O252122   5.020  10.242   6.165 -0.0256  0.1849 -0.0379
  621HK4     C452123   4.874  10.306   6.343  0.3516  0.0651  0.4888
  621HK4     C352124   4.856  10.438   6.304 -0.7732 -0.1654  0.2198
  621HK4     H352125   4.926  10.492   6.239  0.0363  0.7719  1.8606
  621HK4     C252126   4.750  10.513   6.351 -0.9961 -0.1347 -0.3245
  621HK4     H252127   4.732  10.614   6.311 -1.2514 -0.6575 -1.5295
  621HK4     C152128   4.656  10.458   6.438 -0.7578 -0.2571 -0.1441
  621HK4     H152129   4.563  10.517   6.446 -0.3712  0.4657 -0.9475
  621HK4     C652130   4.668  10.322   6.475 -0.1535 -0.2209 -0.1942
  621HK4     C552131   4.784  10.254   6.439 -0.2661 -0.3517 -0.3116
  621HK4    C1052132   4.830  10.128   6.504 -0.3254 -0.3367 -0.2429
  621HK4     O152133   4.833  10.122   6.627 -0.8035  0.0632 -0.2101
  621HK4    C1652134   4.557  10.265   6.553  0.1056 -0.1656  0.2133
  621HK4    C1552135   4.535  10.125   6.560 -0.2076 -0.0903  0.7952
  621HK4     H752136   4.564  10.073   6.468  0.3757  0.5271  0.6215
  621HK4    C2052137   4.457  10.059   6.654 -0.8861 -0.7410 -0.2271
  621HK4     H952138   4.460   9.950   6.657  2.4279 -0.7205 -1.1161
  621HK4    C1952139   4.381  10.140   6.737 -0.5909  0.1301 -0.7989
  621HK4    C1852140   4.394  10.284   6.733  0.4070  0.0566 -0.2513
  621HK4    C1752141   4.481  10.341   6.641  0.2633  0.4185 -0.1616
  621HK4     H852142   4.502  10.448   6.649 -1.9655  0.7690  1.4909
  621HK4     N152143   4.334  10.346   6.844 -0.1574 -0.5223 -0.2328
  621HK4    C2152144   4.275  10.242   6.919 -0.0307 -0.3369  0.1244
  621HK4    C2252145   4.303  10.114   6.857  0.0448 -0.0554 -0.4238
  621HK4    C2652146   4.267   9.993   6.916 -0.1631  0.2031 -0.0243
  621HK4    H1352147   4.324   9.905   6.887  1.1859  0.7585  0.9408
  621HK4    C2552148   4.193  10.002   7.034  0.0748 -0.0267  0.1422
  621HK4    H1252149   4.168   9.912   7.091  2.1965  0.5556  2.0368
  621HK4    C2452150   4.160  10.121   7.097  0.0383 -0.0401  0.1461
  621HK4    H1152151   4.078  10.120   7.170  0.4623 -1.4253  0.6237
  621HK4    C2352152   4.199  10.240   7.035 -0.0429 -0.0248  0.1226
  621HK4    H1052153   4.162  10.333   7.078  3.3062  2.2676 -1.7111
  621HK4    C3952154   4.285  10.476   6.853  0.5060 -0.2914  0.0800
  621HK4    C4152155   4.273  10.544   6.976  0.0594  0.0294 -0.1380
  621HK4    H2152156   4.294  10.492   7.071  0.2040  1.7165  0.7690
  621HK4    C4252157   4.250  10.681   6.984 -0.5929 -0.1122  0.5540
  621HK4    H2252158   4.265  10.742   7.074  0.4024  2.9130 -1.5767
  621HK4    C4352159   4.220  10.756   6.871  0.2981  0.1554  0.4963
  621HK4    H2352160   4.197  10.862   6.883 -3.5725 -0.6593  0.7629
  621HK4    C4452161   4.221  10.688   6.749 -0.5796 -0.0614  0.6121
  621HK4    H2452162   4.223  10.750   6.659  3.6814 -2.0540 -0.7980
  621HK4    C4552163   4.248  10.552   6.740  0.0742  0.0761  0.4626
  621HK4    H2552164   4.241  10.491   6.649  0.4284 -1.5547  1.5102
  622HK4    H2852165   8.270   0.806   3.051  0.2291  0.4099 -0.5209
  622HK4    C4852166   8.245   0.905   3.014 -0.3960  0.1877 -0.7052
  622HK4    C4752167   8.344   0.986   2.957 -0.0544  0.7309  0.6477
  622HK4    H2752168   8.448   0.952   2.962  0.3909  2.0485  0.3118
  622HK4    C4652169   8.311   1.109   2.903 -0.0566  0.4217 -0.0594
  622HK4    H2652170   8.400   1.158   2.860  0.3910 -0.1419  0.2187
  622HK4    C4052171   8.179   1.160   2.898 -0.1633  0.0898 -0.7474
  622HK4    C5052172   8.083   1.080   2.962 -0.1207  0.2423 -0.4961
  622HK4    H3052173   7.974   1.094   2.955 -0.0558  1.0176 -0.0593
  622HK4    C4952174   8.115   0.955   3.013 -0.4284  0.1047 -0.6347
  622HK4    H2952175   8.045   0.907   3.083 -0.5805  3.3426  1.5392
  622HK4     N252176   8.158   1.293   2.864 -0.4793  0.2571  0.0899
  622HK4    C3052177   8.233   1.410   2.885 -0.1722  0.0925 -0.1013
  622HK4    C2952178   8.362   1.428   2.935 -0.2241  0.8117 -0.2153
  622HK4    H1552179   8.407   1.350   2.996 -0.3742  0.7161 -0.2251
  622HK4    C2852180   8.427   1.550   2.917  0.6628  0.3585 -0.0556
  622HK4    C2752181   8.355   1.659   2.864  0.3353  0.1850  0.0329
  622HK4    H1452182   8.408   1.752   2.842  1.5019 -0.1701  1.2361
  622HK4    C3252183   8.222   1.646   2.826  0.2792  0.2314  0.2103
  622HK4    H1652184   8.189   1.736   2.774  1.3035  0.8629  0.6181
  622HK4    C3152185   8.161   1.522   2.827  0.2161  0.2600 -0.2699
  622HK4    C3452186   8.042   1.473   2.758  0.5127  0.0717 -0.6512
  622HK4    C3352187   8.043   1.332   2.790 -0.1276  0.0878 -0.5530
  622HK4    C3552188   7.937   1.258   2.741 -0.2031 -0.2835  0.1640
  622HK4    H1752189   7.959   1.154   2.719 -1.0436 -0.1575 -1.3444
  622HK4    C3652190   7.830   1.321   2.677 -0.2241 -0.4385  0.0466
  622HK4    H1852191   7.746   1.257   2.645  1.4485 -1.4599 -2.4229
  622HK4    C3752192   7.826   1.459   2.665  0.3391 -0.3891  0.4182
  622HK4    H1952193   7.731   1.502   2.635  0.1786 -1.9233 -1.3180
  622HK4    C3852194   7.936   1.538   2.698  0.3663 -0.0407 -0.5142
  622HK4    H2052195   7.926   1.647   2.698 -0.3379 -0.0971 -0.9981
  622HK4    C1452196   8.535   1.577   3.014  0.3853  0.1258  0.3202
  622HK4     C952197   8.556   1.702   3.072  0.2759  0.1358  0.3381
  622HK4     C852198   8.689   1.744   3.093  0.2864  0.0560  0.4335
  622HK4    C1152199   8.795   1.654   3.084 -0.0083 -0.2782  0.2739
  622HK4     H452200   8.895   1.691   3.112 -0.9445  1.1934  1.7926
  622HK4    C1252201   8.770   1.526   3.037 -0.1513 -0.3672  0.5907
  622HK4     H552202   8.856   1.464   3.005 -1.0381 -0.4745 -1.6695
  622HK4    C1352203   8.642   1.487   3.000 -0.0947 -0.4813  0.5166
  622HK4     H652204   8.625   1.393   2.944 -0.5877 -0.4312  0.5785
  622HK4     C752205   8.711   1.885   3.129 -0.1959  0.1876  0.2214
  622HK4     O252206   8.812   1.945   3.089  0.1569 -0.5051  0.0568
  622HK4     C452207   8.595   1.970   3.162 -0.2518 -0.0007  0.5015
  622HK4     C352208   8.608   2.096   3.219  0.6468  0.3404 -0.4445
  622HK4     H352209   8.706   2.137   3.247  1.3085 -3.3847  3.2595
  622HK4     C252210   8.505   2.185   3.249  0.5647  0.1272 -0.0981
  622HK4     H252211   8.524   2.272   3.313 -0.9671 -0.4552  1.1899
  622HK4     C152212   8.377   2.138   3.220  0.6449 -0.3879  0.3648
  622HK4     H152213   8.290   2.192   3.259  2.1862  2.0059  0.5728
  622HK4     C652214   8.356   2.019   3.147 -0.2894 -0.0795  0.1266
  622HK4     C552215   8.462   1.928   3.138 -0.1846  0.0517  0.0269
  622HK4    C1052216   8.440   1.782   3.122  0.1409 -0.0233  0.2751
  622HK4     O152217   8.354   1.717   3.181 -0.2993  0.2944 -0.0187
  622HK4    C1652218   8.247   2.041   3.052 -0.1716  0.0858  0.0322
  622HK4    C1552219   8.195   2.163   3.003 -0.7464 -0.2303 -0.1524
  622HK4     H752220   8.250   2.258   2.994 -0.2256 -0.6013 -0.9376
  622HK4    C2052221   8.065   2.175   2.957 -0.6937  0.3431 -0.1676
  622HK4     H952222   8.023   2.269   2.920 -1.3474 -0.0612 -0.4627
  622HK4    C1952223   7.981   2.064   2.953 -0.2698 -0.0116  0.9306
  622HK4    C1852224   8.030   1.934   2.995 -0.0164  0.0237  0.7441
  622HK4    C1752225   8.165   1.931   3.028 -0.0142 -0.1782  0.7181
  622HK4     H852226   8.215   1.835   3.016  2.5016  1.0915  0.6299
  622HK4     N152227   7.932   1.833   2.981  0.2050 -0.0721 -0.1766
  622HK4    C2152228   7.824   1.902   2.923 -0.1541 -0.3073  0.2130
  622HK4    C2252229   7.854   2.039   2.889  0.0396 -0.2973  0.4186
  622HK4    C2652230   7.776   2.120   2.806 -0.4092 -0.2875  0.8484
  622HK4    H1352231   7.797   2.224   2.782 -0.4441 -0.2747  0.8717
  622HK4    C2552232   7.656   2.068   2.759 -0.1832  0.4128 -0.5299
  622HK4    H1252233   7.603   2.126   2.684 -0.6529  1.6944  0.7761
  622HK4    C2452234   7.621   1.937   2.789  0.1153  0.5607  0.4924
  622HK4    H1152235   7.524   1.900   2.751  0.4614 -0.8367  0.9484
  622HK4    C2352236   7.701   1.860   2.872  0.0062 -0.2923 -0.1861
  622HK4    H1052237   7.647   1.786   2.931  2.0643 -1.4003  0.3596
  622HK4    C3952238   7.927   1.702   3.029 -0.5575  0.2240  0.5712
  622HK4    C4152239   7.825   1.609   2.999 -0.0898 -0.0154 -0.2957
  622HK4    H2152240   7.764   1.623   2.909  1.8354 -1.7229 -1.9142
  622HK4    C4252241   7.820   1.484   3.059 -0.6781  0.3278  0.3796
  622HK4    H2252242   7.727   1.425   3.058 -0.2056 -0.4216 -0.6433
  622HK4    C4352243   7.926   1.440   3.138 -0.4700  0.3817  0.1327
  622HK4    H2352244   7.932   1.333   3.156  2.8459  0.3011 -1.1679
  622HK4    C4452245   8.029   1.527   3.169 -0.2819  0.1714  0.0939
  622HK4    H2452246   8.120   1.480   3.210  0.0417  2.2239  1.8167
  622HK4    C4552247   8.026   1.657   3.119  0.2279 -0.0006 -0.3934
  622HK4    H2552248   8.090   1.737   3.159 -2.9346  1.1275  2.6385
  623HK4    H2852249   1.073   8.724   1.981 -1.2999  2.6835  1.0882
  623HK4    C4852250   1.133   8.773   1.905 -0.4729 -0.0464 -0.0569
  623HK4    C4752251   1.254   8.718   1.866 -0.2399  0.2273  0.2723
  623HK4    H2752252   1.264   8.608   1.875 -3.1226  0.0375  1.7984
  623HK4    C4652253   1.354   8.791   1.802  0.0880 -0.3625  0.1042
  623HK4    H2652254   1.445   8.747   1.760 -0.2176 -1.8547  0.9602
  623HK4    C4052255   1.337   8.928   1.773 -0.2719 -0.4192  0.0369
  623HK4    C5052256   1.211   8.979   1.811 -0.0732  0.1962 -0.1407
  623HK4    H3052257   1.195   9.088   1.820  1.0093  0.2960  0.8052
  623HK4    C4952258   1.109   8.906   1.871  0.1381  0.1054  0.1092
  623HK4    H2952259   1.012   8.955   1.878  0.6755  1.8524 -3.4903
  623HK4     N252260   1.449   9.009   1.753 -0.6407  0.1057  0.1063
  623HK4    C3052261   1.583   8.984   1.788 -0.6354 -0.2428 -0.1543
  623HK4    C2952262   1.637   8.879   1.861  0.2304  0.1168 -0.2588
  623HK4    H1552263   1.572   8.844   1.942  0.8876  0.1090  0.2647
  623HK4    C2852264   1.773   8.850   1.861  0.3223  0.5245  0.5041
  623HK4    C2752265   1.854   8.941   1.790 -0.1028  0.3751 -0.1784
  623HK4    H1452266   1.959   8.911   1.772 -0.5903 -1.2870 -0.3082
  623HK4    C3252267   1.811   9.062   1.738  0.0688  0.3498 -0.3801
  623HK4    H1652268   1.880   9.132   1.692  1.3287 -0.1613  0.7148
  623HK4    C3152269   1.674   9.087   1.741 -0.0702 -0.4791  0.4103
  623HK4    C3452270   1.584   9.187   1.687  0.0077 -0.5868  0.0847
  623HK4    C3352271   1.449   9.134   1.688 -0.1726 -0.1409 -0.3788
  623HK4    C3552272   1.349   9.215   1.635 -0.7512 -0.6956 -0.1310
  623HK4    H1752273   1.250   9.174   1.613 -0.7960  0.1205 -1.4817
  623HK4    C3652274   1.382   9.342   1.591  0.0750 -0.9019 -0.1160
  623HK4    H1852275   1.297   9.404   1.559 -0.5844 -2.0278 -0.5889
  623HK4    C3752276   1.512   9.391   1.587 -0.1678 -0.1965  0.5417
  623HK4    H1952277   1.527   9.491   1.547 -1.9079  0.7597  2.1858
  623HK4    C3852278   1.615   9.313   1.637 -0.2264 -0.4594  0.2492
  623HK4    H2052279   1.716   9.335   1.602  0.3391 -1.7306  1.0502
  623HK4    C1452280   1.833   8.772   1.970 -0.2988 -0.0614  0.4288
  623HK4     C952281   1.955   8.803   2.032  0.0898  0.1037 -0.4116
  623HK4     C852282   2.035   8.693   2.069  0.1303  0.3638  0.2782
  623HK4    C1152283   1.982   8.564   2.066  0.0557  0.4018 -0.0628
  623HK4     H452284   2.039   8.484   2.114 -1.7771 -0.5078  0.6692
  623HK4    C1252285   1.855   8.535   2.017  0.2996 -0.1875 -0.3474
  623HK4     H552286   1.819   8.431   2.011  1.4982 -0.6711  0.7109
  623HK4    C1352287   1.777   8.642   1.974  0.0604 -0.2288 -0.0237
  623HK4     H652288   1.669   8.627   1.965 -0.3832  3.1329 -1.1795
  623HK4     C752289   2.171   8.717   2.122  0.2547 -0.2198  0.2318
  623HK4     O252290   2.248   8.625   2.145  0.3323 -0.1980  0.0596
  623HK4     C452291   2.218   8.856   2.136 -0.3874  0.0412 -0.1421
  623HK4     C352292   2.352   8.879   2.169 -0.0302 -0.0425 -1.5026
  623HK4     H352293   2.401   8.794   2.219 -1.2445 -0.0598 -0.3002
  623HK4     C252294   2.407   9.006   2.173 -0.1586 -0.0236  0.0750
  623HK4     H252295   2.513   9.028   2.194 -0.3274 -0.3347  1.2936
  623HK4     C152296   2.328   9.109   2.125 -0.3638 -0.1915  0.0579
  623HK4     H152297   2.367   9.212   2.119  1.4160 -0.8248  0.6949
  623HK4     C652298   2.196   9.090   2.080 -0.3665 -0.0394  0.0015
  623HK4     C552299   2.136   8.965   2.101 -0.5631  0.1605  0.6253
  623HK4    C1052300   1.995   8.944   2.058 -0.3102  0.1808 -0.2163
  623HK4     O152301   1.905   9.020   2.093 -0.2632  0.3123 -0.3802
  623HK4    C1652302   2.158   9.188   1.977 -0.1722  0.1407  0.1030
  623HK4    C1552303   2.243   9.223   1.871 -0.0973 -0.0437  0.1039
  623HK4     H752304   2.345   9.182   1.879  0.1283  0.3663 -0.6079
  623HK4    C2052305   2.211   9.311   1.769  0.0477 -0.5056 -0.3453
  623HK4     H952306   2.264   9.326   1.674  0.5751 -1.7727 -0.2621
  623HK4    C1952307   2.085   9.369   1.777  0.2208 -0.1995  0.1685
  623HK4    C1852308   1.999   9.347   1.891  0.1607  0.9304  0.3488
  623HK4    C1752309   2.038   9.258   1.990  0.3712  1.0367  0.3593
  623HK4     H852310   1.998   9.254   2.092  0.1341 -1.5513  0.1946
  623HK4     N152311   1.877   9.416   1.874 -0.0812  0.3722 -0.1829
  623HK4    C2152312   1.880   9.480   1.749 -0.1169 -0.4422 -0.6088
  623HK4    C2252313   2.006   9.448   1.685 -0.0390 -0.9125 -0.2177
  623HK4    C2652314   2.028   9.498   1.557  0.0528  0.3539  0.2942
  623HK4    H1352315   2.119   9.474   1.502 -0.7805 -1.5644 -0.2790
  623HK4    C2552316   1.937   9.583   1.495 -0.2061 -0.0599  0.1005
  623HK4    H1252317   1.977   9.654   1.423  1.3341 -0.1970  0.8122
  623HK4    C2452318   1.817   9.615   1.559 -0.3659  0.5534 -0.4966
  623HK4    H1152319   1.743   9.673   1.504 -1.7537 -1.2979 -0.6205
  623HK4    C2352320   1.788   9.562   1.684  0.6725  0.8570 -0.1158
  623HK4    H1052321   1.704   9.598   1.745 -0.4247  1.0302 -1.7128
  623HK4    C3952322   1.792   9.445   1.981  0.1904  0.0534  0.1206
  623HK4    C4152323   1.658   9.473   1.947  0.2561  0.2158 -0.0068
  623HK4    H2152324   1.609   9.412   1.870 -0.9278 -0.6305  1.3841
  623HK4    C4252325   1.582   9.549   2.035 -0.0879  0.0323 -0.1420
  623HK4    H2252326   1.482   9.580   2.003 -0.8632 -1.2242  1.0056
  623HK4    C4352327   1.634   9.593   2.156  0.4725  0.3539 -0.4961
  623HK4    H2352328   1.557   9.628   2.226  1.8904 -0.3240  1.4356
  623HK4    C4452329   1.767   9.572   2.191  0.1200 -0.3135  0.4697
  623HK4    H2452330   1.820   9.598   2.283 -2.6905  0.8456  1.8165
  623HK4    C4552331   1.845   9.503   2.099  0.0671 -0.0529  0.2276
  623HK4    H2552332   1.954   9.502   2.114 -0.1659  2.2898  2.3399
  624HK4    H2852333   8.761   0.313   0.478 -1.6998  0.0517 -0.3856
  624HK4    C4852334   8.809   0.402   0.517 -0.4098 -0.7344 -0.1592
  624HK4    C4752335   8.903   0.465   0.436 -0.6209 -0.1915  0.0152
  624HK4    H2752336   8.945   0.413   0.349  2.1361 -1.6428  2.1563
  624HK4    C4652337   8.942   0.595   0.469  0.1382 -0.5513  0.5291
  624HK4    H2652338   9.006   0.637   0.390 -6.4917  2.2861 -3.7355
  624HK4    C4052339   8.901   0.666   0.583 -0.4970  0.2741 -0.2138
  624HK4    C5052340   8.795   0.605   0.654 -0.7047  0.4136 -0.4005
  624HK4    H3052341   8.756   0.645   0.749 -0.7003 -2.9606  1.0947
  624HK4    C4952342   8.751   0.479   0.618  0.2014  0.1074 -0.4431
  624HK4    H2952343   8.662   0.438   0.668 -0.5400  0.8653 -1.1123
  624HK4     N252344   8.979   0.772   0.632 -0.0095 -0.2914  0.2342
  624HK4    C3052345   9.116   0.794   0.605 -0.0520 -0.0989  0.1630
  624HK4    C2952346   9.224   0.713   0.572 -0.3083 -0.2188 -0.3932
  624HK4    H1552347   9.209   0.605   0.562 -3.0068 -0.0578  1.3403
  624HK4    C2852348   9.352   0.764   0.554 -0.2256 -0.3475 -0.1770
  624HK4    C2752349   9.375   0.902   0.574 -0.1058 -0.3458 -0.3224
  624HK4    H1452350   9.468   0.955   0.549  0.0438 -0.0965  0.7413
  624HK4    C3252351   9.273   0.987   0.616 -0.0026 -0.4422  0.1171
  624HK4    H1652352   9.300   1.091   0.633  2.6358 -1.1192  0.2940
  624HK4    C3152353   9.146   0.933   0.634 -0.0881 -0.1453  0.4195
  624HK4    C3452354   9.025   0.991   0.687  0.0360  0.0425  0.5018
  624HK4    C3352355   8.924   0.887   0.693  0.0521 -0.0145 -0.2363
  624HK4    C3552356   8.805   0.913   0.759  0.2087  0.3054 -0.0768
  624HK4    H1752357   8.717   0.853   0.737  1.6687 -0.8221 -3.0852
  624HK4    C3652358   8.786   1.035   0.823 -0.0041 -0.1746  0.7858
  624HK4    H1852359   8.689   1.053   0.872 -0.6972  0.4290 -0.7614
  624HK4    C3752360   8.880   1.136   0.814 -0.2863  0.0671  0.5590
  624HK4    H1952361   8.861   1.220   0.881 -2.8166  0.8509 -1.0733
  624HK4    C3852362   9.002   1.113   0.750 -0.7331  0.3940 -0.4343
  624HK4    H2052363   9.082   1.186   0.750  0.8560 -1.3069 -1.2418
  624HK4    C1452364   9.462   0.667   0.561  0.0802  0.0112  0.0472
  624HK4     C952365   9.573   0.691   0.643 -0.0577  0.0102  0.2336
  624HK4     C852366   9.703   0.664   0.596 -0.1773 -0.6667  0.2861
  624HK4    C1152367   9.722   0.596   0.476 -0.4592 -0.2340 -0.0053
  624HK4     H452368   9.823   0.563   0.450  0.1395  0.4147  1.4056
  624HK4    C1252369   9.610   0.559   0.403 -0.0587  0.0693 -0.7809
  624HK4     H552370   9.623   0.512   0.304 -0.2105 -0.3072 -0.6236
  624HK4    C1352371   9.481   0.594   0.442  0.1594 -0.1561  0.1621
  624HK4     H652372   9.392   0.574   0.381  0.0707  0.3852  0.1106
  624HK4     C752373   9.821   0.702   0.676 -0.0380 -0.2776 -0.1036
  624HK4     O252374   9.936   0.684   0.635 -0.0733 -0.2983 -0.1936
  624HK4     C452375   9.794   0.765   0.807 -0.3527 -0.0889 -0.2601
  624HK4     C352376   9.907   0.792   0.884 -0.6864  0.1108  0.1642
  624HK4     H352377  10.003   0.742   0.863 -0.8345 -0.2289  0.2919
  624HK4     C252378   9.896   0.871   0.997  0.1026 -0.0402  0.3490
  624HK4     H252379   9.990   0.881   1.054 -0.8695 -1.1103  2.1891
  624HK4     C152380   9.775   0.928   1.032  0.0010  0.1317 -0.2883
  624HK4     H152381   9.775   1.009   1.107  0.4723 -0.4400  0.3342
  624HK4     C652382   9.659   0.902   0.957  0.0762  0.5633 -0.5610
  624HK4     C552383   9.668   0.812   0.849 -0.3820 -0.9159  0.6059
  624HK4    C1052384   9.552   0.753   0.777 -0.6972  0.5026 -0.0858
  624HK4     O152385   9.478   0.697   0.858 -0.8392  0.1489 -0.4614
  624HK4    C1652386   9.535   0.969   1.000  0.2334  0.4256  0.1069
  624HK4    C1552387   9.430   1.003   0.912  0.3012  0.2936 -0.0237
  624HK4     H752388   9.447   1.005   0.804 -1.3186  0.4825 -0.2761
  624HK4    C2052389   9.312   1.057   0.960  0.3127  0.1488  0.1757
  624HK4     H952390   9.235   1.088   0.889 -1.3431 -1.3147  1.2782
  624HK4    C1952391   9.287   1.062   1.097  0.1035 -0.4401  0.1575
  624HK4    C1852392   9.391   1.016   1.187  0.4621  0.6688  0.3123
  624HK4    C1752393   9.514   0.976   1.137  0.0523 -0.3856  0.1240
  624HK4     H852394   9.596   0.969   1.208 -0.5223 -1.9416  0.6431
  624HK4     N152395   9.354   1.038   1.322 -0.4054  0.4658  0.1124
  624HK4    C2152396   9.226   1.096   1.317 -0.2961  0.6669 -0.4639
  624HK4    C2252397   9.179   1.111   1.181 -0.1936  0.1302 -0.5571
  624HK4    C2652398   9.045   1.133   1.151 -0.2490 -0.1891 -0.5539
  624HK4    H1352399   9.023   1.133   1.045  1.7549 -0.8784 -0.9977
  624HK4    C2552400   8.948   1.129   1.251 -0.4147 -0.5472 -0.7313
  624HK4    H1252401   8.846   1.135   1.212  0.3198  0.0565 -2.6357
  624HK4    C2452402   8.993   1.110   1.381  0.2469 -0.6423 -0.9713
  624HK4    H1152403   8.919   1.123   1.462 -2.9415 -0.6719 -3.7504
  624HK4    C2352404   9.127   1.095   1.415  0.1629  0.7375  0.0035
  624HK4    H1052405   9.144   1.076   1.521 -2.1780  2.8523  0.8180
  624HK4    C3952406   9.399   0.967   1.433  0.6352  0.6413 -0.1892
  624HK4    C4152407   9.392   1.030   1.559  0.2243 -0.2129  0.2174
  624HK4    H2152408   9.379   1.139   1.558  0.6962 -0.1635 -1.1226
  624HK4    C4252409   9.405   0.955   1.675  0.0582 -0.3729  0.1345
  624HK4    H2252410   9.426   1.002   1.773  0.5530 -0.4067  0.0465
  624HK4    C4352411   9.399   0.816   1.668  0.1535 -0.3550 -0.2876
  624HK4    H2352412   9.382   0.752   1.754  0.6408  2.1797  1.7776
  624HK4    C4452413   9.401   0.756   1.543  0.0719 -0.2978 -0.3169
  624HK4    H2452414   9.434   0.651   1.543 -0.9642 -0.6655  2.5539
  624HK4    C4552415   9.403   0.826   1.423  0.4157  0.6058  0.2133
  624HK4    H2552416   9.461   0.786   1.339  1.5235 -0.2617  1.3658
  625HK4    H2852417   3.239   8.082  10.071 -1.1081 -1.6920  0.3167
  625HK4    C4852418   3.231   8.044   9.969  0.0147  0.5655 -0.6575
  625HK4    C4752419   3.120   7.967   9.936  0.3439  0.1396 -0.7785
  625HK4    H2752420   3.055   7.954  10.024  1.1728 -4.2713 -0.7194
  625HK4    C4652421   3.095   7.917   9.809 -0.3766 -0.2833 -0.4739
  625HK4    H2652422   3.026   7.831   9.803 -1.2008  0.3292  0.1498
  625HK4    C4052423   3.184   7.941   9.702  0.3341  0.1383  0.2058
  625HK4    C5052424   3.301   8.012   9.738  0.3447  0.5776 -0.6689
  625HK4    H3052425   3.388   8.006   9.671  0.6300  1.5045 -0.3839
  625HK4    C4952426   3.321   8.065   9.865  0.5272 -0.1960 -0.3729
  625HK4    H2952427   3.421   8.104   9.885  0.3663 -0.1261  0.3242
  625HK4     N252428   3.192   7.868   9.583 -0.0019  0.1449  0.1824
  625HK4    C3052429   3.171   7.730   9.557  0.5084  0.0999  0.0190
  625HK4    C2952430   3.180   7.615   9.635  0.7404 -0.1113 -0.3241
  625HK4    H1552431   3.197   7.625   9.742 -1.7420  0.8616  0.0092
  625HK4    C2852432   3.169   7.485   9.586 -0.0944 -0.0953 -0.1830
  625HK4    C2752433   3.160   7.465   9.447  0.0851  0.3860 -0.2682
  625HK4    H1452434   3.176   7.371   9.394  1.8582  1.0682 -0.9759
  625HK4    C3252435   3.153   7.576   9.363  0.3568  0.2284 -0.4943
  625HK4    H1652436   3.121   7.555   9.261 -0.3051  0.0332 -0.2483
  625HK4    C3152437   3.163   7.705   9.415 -0.3177  0.0531  0.0700
  625HK4    C3452438   3.172   7.835   9.351  0.2337 -0.1598 -0.2824
  625HK4    C3352439   3.195   7.931   9.457 -0.2774 -0.2936 -0.0477
  625HK4    C3552440   3.167   8.063   9.424  0.8102 -0.1011 -0.2222
  625HK4    H1752441   3.169   8.135   9.506 -1.3047 -0.9437  0.6134
  625HK4    C3652442   3.114   8.103   9.302  0.3627 -0.3799 -0.1215
  625HK4    H1852443   3.068   8.203   9.297  0.8507 -0.0194  1.8801
  625HK4    C3752444   3.108   8.014   9.196  0.0293 -0.4001 -0.0839
  625HK4    H1952445   3.071   8.047   9.099 -1.2159  0.0931  0.5525
  625HK4    C3852446   3.132   7.880   9.226  0.0742 -0.4512 -0.3392
  625HK4    H2052447   3.162   7.820   9.141 -0.7261 -2.3894  0.7058
  625HK4    C1452448   3.171   7.371   9.678  0.7342  0.2448  0.2294
  625HK4     C952449   3.226   7.247   9.646 -0.2621 -0.0707 -0.2694
  625HK4     C852450   3.193   7.131   9.719 -0.4609  0.0807 -0.1216
  625HK4    C1152451   3.102   7.146   9.823  0.3103  0.5069  0.4943
  625HK4     H452452   3.069   7.058   9.881  4.7041 -0.5773  1.5537
  625HK4    C1252453   3.042   7.267   9.854 -0.1584  0.4577 -0.2132
  625HK4     H552454   2.959   7.274   9.926  0.2943  1.7312  0.1944
  625HK4    C1352455   3.075   7.381   9.781 -0.1669  0.2092 -0.6072
  625HK4     H652456   3.035   7.479   9.810  0.8384  0.5305 -0.3254
  625HK4     C752457   3.226   6.994   9.673 -0.1539  0.0501  0.1838
  625HK4     O252458   3.247   6.899   9.748  0.1895 -0.1807 -0.2043
  625HK4     C452459   3.291   6.982   9.541  0.3511 -0.2374  0.4563
  625HK4     C352460   3.296   6.858   9.478  0.0478  0.2295 -0.4865
  625HK4     H352461   3.294   6.767   9.540 -0.0438  1.5676  1.5064
  625HK4     C252462   3.332   6.845   9.344 -0.3444 -0.1783 -0.5571
  625HK4     H252463   3.341   6.744   9.301  0.8370 -0.9462  1.3901
  625HK4     C152464   3.367   6.957   9.270  0.4789 -0.0280  0.0476
  625HK4     H152465   3.385   6.945   9.162 -0.3961 -0.2817 -0.0675
  625HK4     C652466   3.368   7.083   9.334  0.2275 -0.1596  0.3093
  625HK4     C552467   3.338   7.095   9.470  0.0334 -0.2189  0.2734
  625HK4    C1052468   3.325   7.228   9.536 -0.3688  0.0691 -0.3888
  625HK4     O152469   3.434   7.284   9.548 -0.1148 -0.5715  0.3173
  625HK4    C1652470   3.345   7.195   9.242  0.2839 -0.3228  0.0980
  625HK4    C1552471   3.251   7.197   9.138  0.4788 -0.2165 -0.0784
  625HK4     H752472   3.198   7.103   9.116 -1.0988  0.1410  2.0518
  625HK4    C2052473   3.230   7.307   9.055  0.9302 -0.4886 -0.5529
  625HK4     H952474   3.167   7.296   8.967 -1.2065  3.3823  0.3895
  625HK4    C1952475   3.308   7.420   9.072 -0.1483  0.2072 -0.2079
  625HK4    C1852476   3.411   7.422   9.174 -0.5318  0.0743  0.1863
  625HK4    C1752477   3.423   7.309   9.254 -0.3317  0.0907  0.1793
  625HK4     H852478   3.525   7.299   9.292  0.2753  0.4348 -1.3400
  625HK4     N152479   3.487   7.541   9.165 -0.0817 -0.2040  0.2680
  625HK4    C2152480   3.422   7.623   9.071  0.7106 -0.4249 -0.4800
  625HK4    C2252481   3.311   7.552   9.011 -0.3229  0.4652  0.3341
  625HK4    C2652482   3.235   7.604   8.907 -0.4152  0.3685  0.3506
  625HK4    H1352483   3.145   7.550   8.878 -0.8157  0.6309  1.0718
  625HK4    C2552484   3.259   7.734   8.863 -0.2077  0.1724 -0.1087
  625HK4    H1252485   3.176   7.783   8.813 -0.9609 -1.0853 -0.0956
  625HK4    C2452486   3.370   7.797   8.917  0.0611 -0.6876  0.3375
  625HK4    H1152487   3.383   7.893   8.866  0.1230 -0.5731  0.5690
  625HK4    C2352488   3.453   7.748   9.019  0.4003  0.0326  0.4110
  625HK4    H1052489   3.517   7.814   9.076  0.0353  0.8396 -0.0983
  625HK4    C3952490   3.574   7.586   9.265  0.2984 -0.5346  0.0896
  625HK4    C4152491   3.689   7.660   9.232 -0.4289  0.6572  0.1544
  625HK4    H2152492   3.717   7.675   9.127  3.0604  0.4090  0.9924
  625HK4    C4252493   3.755   7.730   9.332 -0.0699  0.4032  0.0958
  625HK4    H2252494   3.838   7.794   9.301  0.8257 -0.8518 -0.1607
  625HK4    C4352495   3.704   7.739   9.461 -0.0420  0.1429  0.1283
  625HK4    H2352496   3.764   7.792   9.536  1.5379 -1.6670  0.1883
  625HK4    C4452497   3.587   7.671   9.492 -0.0202  0.0175 -0.0675
  625HK4    H2452498   3.527   7.690   9.582 -2.2078 -1.8179 -1.0961
  625HK4    C4552499   3.522   7.593   9.397  0.1795 -0.2704  0.0310
  625HK4    H2552500   3.441   7.523   9.421  0.8969 -1.2610 -0.3840
  626HK4    H2852501   6.381  10.593  10.366  0.1296  0.4616  1.3059
  626HK4    C4852502   6.483  10.575  10.399  0.4526 -0.4164 -0.1018
  626HK4    C4752503   6.597  10.612  10.328 -0.0646 -0.0968 -0.7648
  626HK4    H2752504   6.589  10.665  10.232 -0.1564 -0.0856 -0.7532
  626HK4    C4652505   6.721  10.560  10.360 -0.0307  0.4001 -0.0798
  626HK4    H2652506   6.814  10.602  10.318 -0.7751  1.9518 -0.2203
  626HK4    C4052507   6.736  10.463  10.461 -0.1081  0.4814  0.0106
  626HK4    C5052508   6.619  10.422  10.527  0.1951  0.0530  0.2885
  626HK4    H3052509   6.625  10.345  10.605 -2.3285 -2.4509 -1.8438
  626HK4    C4952510   6.495  10.479  10.499  0.0697 -0.3588  0.0068
  626HK4    H2952511   6.406  10.415  10.506 -0.8048  0.9992  1.7248
  626HK4     N252512   6.859  10.415  10.508 -0.0747  0.0444 -0.5193
  626HK4    C3052513   6.984  10.480  10.499 -0.1528  0.2322 -0.2186
  626HK4    C2952514   7.022  10.612  10.481  0.3471  0.1108 -0.0737
  626HK4    H1552515   6.948  10.690  10.462  0.0327 -0.1637  0.0408
  626HK4    C2852516   7.152  10.660  10.489  0.3380  0.2170 -0.5350
  626HK4    C2752517   7.250  10.565  10.526  0.1093  0.1512 -0.0932
  626HK4    H1452518   7.348  10.607  10.550 -0.0331  1.9833 -2.4851
  626HK4    C3252519   7.220  10.431  10.551 -0.0617  0.3109  0.5550
  626HK4    H1652520   7.295  10.368  10.600 -1.5549 -1.1332  0.9972
  626HK4    C3152521   7.088  10.390  10.547 -0.0355  0.3120 -0.3288
  626HK4    C3452522   7.025  10.262  10.576  0.2844  0.3012  0.3188
  626HK4    C3352523   6.885  10.281  10.544  0.2701  0.3583  0.4146
  626HK4    C3552524   6.802  10.169  10.549  0.0439  0.5109  0.0515
  626HK4    H1752525   6.718  10.162  10.480 -0.0008  0.0463  0.1551
  626HK4    C3652526   6.853  10.045  10.586  0.4779  0.5536 -0.3787
  626HK4    H1852527   6.784   9.969  10.627  2.5941  0.3865  3.0718
  626HK4    C3752528   6.990  10.026  10.603  0.3325  0.0390  0.2438
  626HK4    H1952529   7.033   9.928  10.622  0.2948  0.0296  0.2843
  626HK4    C3852530   7.075  10.135  10.602  0.1664  0.1668 -0.1250
  626HK4    H2052531   7.180  10.113  10.619  0.2590  1.8557  1.6785
  626HK4    C1452532   7.182  10.783  10.414  0.0318  0.0993 -0.8450
  626HK4     C952533   7.294  10.795  10.331  0.2071  0.1805 -0.5969
  626HK4     C852534   7.366  10.915  10.317  0.3466  0.2343  0.5424
  626HK4    C1152535   7.310  11.027  10.379  0.9569  0.6033  0.4324
  626HK4     H452536   7.366  11.121  10.381  1.6966  0.3023 -2.7358
  626HK4    C1252537   7.183  11.026  10.434  0.8314 -0.0554  0.1446
  626HK4     H552538   7.124  11.119  10.432 -0.7559 -1.0566 -0.6774
  626HK4    C1352539   7.124  10.902  10.460  0.3432  0.0669 -0.3648
  626HK4     H652540   7.033  10.905  10.521  1.9871  2.6099  2.1229
  626HK4     C752541   7.494  10.916  10.243 -0.2042  0.0145 -0.4189
  626HK4     O252542   7.540  11.027  10.221 -0.3415  0.1816  0.1323
  626HK4     C452543   7.547  10.790  10.185 -0.3018 -0.2708  0.1144
  626HK4     C352544   7.671  10.792  10.122 -0.3292 -0.2270  0.0627
  626HK4     H352545   7.710  10.892  10.100 -1.2335  0.5017  1.6690
  626HK4     C252546   7.727  10.675  10.073 -0.2210  0.2440 -0.9562
  626HK4     H252547   7.824  10.674  10.022 -0.1209  1.7534 -0.8070
  626HK4     C152548   7.654  10.557  10.087  0.1578  0.1253  0.0465
  626HK4     H152549   7.685  10.464  10.037  2.9063  0.9061  0.1955
  626HK4     C652550   7.533  10.549  10.158  0.0241 -0.5394 -0.2449
  626HK4     C552551   7.475  10.670  10.199  0.1046 -0.5440 -0.1159
  626HK4    C1052552   7.334  10.677  10.249 -0.0927  0.1958 -0.7726
  626HK4     O152553   7.246  10.629  10.178 -0.3273 -0.2434 -0.1816
  626HK4    C1652554   7.516  10.424  10.233  0.1156 -0.3477  0.0934
  626HK4    C1552555   7.623  10.336  10.259  0.0565 -0.0114  1.5448
  626HK4     H752556   7.724  10.379  10.258 -1.0155  2.5476  1.0793
  626HK4    C2052557   7.613  10.198  10.273 -0.3485 -0.2119 -0.4924
  626HK4     H952558   7.702  10.135  10.269 -0.2327 -0.2282  1.6483
  626HK4    C1952559   7.486  10.142  10.272 -0.3475 -0.2176 -0.4515
  626HK4    C1852560   7.372  10.231  10.260 -0.1041  0.1101 -0.3159
  626HK4    C1752561   7.390  10.368  10.252 -0.1443  0.1217 -0.2378
  626HK4     H852562   7.301  10.419  10.289  1.0331  2.1478 -0.1412
  626HK4     N152563   7.251  10.162  10.237  0.1803 -0.5881  0.2598
  626HK4    C2152564   7.290  10.026  10.239  0.0310 -0.6586 -0.8947
  626HK4    C2252565   7.431  10.008  10.270 -0.1922 -0.2970  0.3705
  626HK4    C2652566   7.494   9.892  10.228  0.2398 -0.1100  0.5078
  626HK4    H1352567   7.598   9.884  10.262  0.2689 -1.5339  0.1190
  626HK4    C2552568   7.417   9.793  10.169  0.2207  0.4879 -0.4858
  626HK4    H1252569   7.467   9.702  10.135  0.3561  0.8829 -1.3544
  626HK4    C2452570   7.279   9.798  10.154  0.0516 -0.3478  0.7432
  626HK4    H1152571   7.218   9.708  10.134 -2.3612  1.5208 -0.5654
  626HK4    C2352572   7.219   9.919  10.187 -0.5987 -0.1652 -1.0555
  626HK4    H1052573   7.115   9.938  10.160  0.0718  2.2193 -2.0536
  626HK4    C3952574   7.127  10.209  10.192  0.5920 -0.2034 -0.4789
  626HK4    C4152575   7.004  10.145  10.214  0.1824  0.6732 -0.1897
  626HK4    H2152576   6.984  10.110  10.316 -0.6444  0.9311 -0.2602
  626HK4    C4252577   6.890  10.180  10.142 -0.2974  0.1847  0.3274
  626HK4    H2252578   6.809  10.106  10.128 -0.3144  0.1220  0.7723
  626HK4    C4352579   6.886  10.289  10.056 -0.3254 -0.0816 -0.0157
  626HK4    H2352580   6.797  10.336  10.015  0.4849 -1.0760 -3.0648
  626HK4    C4452581   7.007  10.355  10.038 -0.3506  0.0253  0.2079
  626HK4    H2452582   7.010  10.461  10.009  0.2268 -0.1687 -0.4633
  626HK4    C4552583   7.125  10.316  10.100 -0.1825  0.1970 -0.0024
  626HK4    H2552584   7.220  10.366  10.074 -0.0571 -1.1968 -2.3732
  627HK4    H2852585   1.221   6.776  10.185  0.2746  0.7621  0.5137
  627HK4    C4852586   1.267   6.688  10.139 -0.6923  0.2858  0.4441
  627HK4    C4752587   1.196   6.574  10.106  0.3815 -0.1932 -0.2563
  627HK4    H2752588   1.087   6.573  10.126  0.5541  0.4254  0.7569
  627HK4    C4652589   1.270   6.461  10.071 -0.1557 -0.6361  0.0158
  627HK4    H2652590   1.215   6.383  10.016  0.7755 -0.0124 -1.8254
  627HK4    C4052591   1.410   6.453  10.085 -0.1735  0.0514  0.6199
  627HK4    C5052592   1.479   6.568  10.128 -0.0053  0.2854 -0.2591
  627HK4    H3052593   1.589   6.577  10.134 -0.0639  2.3040 -1.5831
  627HK4    C4952594   1.406   6.685  10.148 -0.7070 -0.2725  0.4644
  627HK4    H2952595   1.453   6.781  10.123  2.8170 -1.8534  0.6973
  627HK4     N252596   1.475   6.330  10.077 -0.7148 -0.2066  0.1649
  627HK4    C3052597   1.606   6.317  10.029 -0.5438  0.2821  0.4941
  627HK4    C2952598   1.665   6.385   9.923 -0.0539 -0.5686  0.2159
  627HK4    H1552599   1.621   6.480   9.894  0.2194 -0.0538  1.4865
  627HK4    C2852600   1.779   6.342   9.855  0.5374  0.5017  0.5394
  627HK4    C2752601   1.849   6.239   9.922  0.3554  0.2507  0.3358
  627HK4    H1452602   1.930   6.187   9.869 -0.3510 -0.8874  0.3422
  627HK4    C3252603   1.792   6.166  10.026 -0.0337 -0.1184 -0.1303
  627HK4    H1652604   1.850   6.090  10.077 -0.7420 -2.2291 -2.3872
  627HK4    C3152605   1.664   6.192  10.075  0.2690  0.5837  0.3038
  627HK4    C3452606   1.563   6.126  10.155  0.1178  0.0479 -0.3192
  627HK4    C3352607   1.449   6.215  10.155 -0.0421 -0.1528  0.4719
  627HK4    C3552608   1.335   6.178  10.227 -0.3058  0.1967  0.2380
  627HK4    H1752609   1.265   6.258  10.250 -0.9464 -0.3242  0.0978
  627HK4    C3652610   1.327   6.058  10.297  0.2166  0.0133 -0.0118
  627HK4    H1852611   1.243   6.035  10.363  0.3796  0.7875  0.4679
  627HK4    C3752612   1.435   5.970  10.291 -0.2917 -0.6054 -0.1154
  627HK4    H1952613   1.428   5.876  10.345 -0.1082  0.1691  1.2731
  627HK4    C3852614   1.551   6.005  10.223 -0.5440  0.2243 -0.1210
  627HK4    H2052615   1.642   5.947  10.234 -0.2372  0.8774  0.8206
  627HK4    C1452616   1.786   6.360   9.710  0.0135 -0.0262  0.4469
  627HK4     C952617   1.841   6.266   9.622 -0.0642  0.1657  0.1933
  627HK4     C852618   1.906   6.305   9.503 -0.6012  0.4230 -0.0150
  627HK4    C1152619   1.922   6.441   9.478  0.1022  0.3499  0.0313
  627HK4     H452620   1.992   6.467   9.398 -0.2512 -2.2952 -1.2010
  627HK4    C1252621   1.849   6.533   9.553 -0.3805 -0.0278  0.0330
  627HK4     H552622   1.848   6.635   9.512 -0.4523  0.0416  0.2094
  627HK4    C1352623   1.776   6.493   9.665  0.0222 -0.0834  0.2801
  627HK4     H652624   1.705   6.566   9.707 -0.0590 -0.6183  1.0800
  627HK4     C752625   1.980   6.203   9.426 -0.0428  0.2090  0.8060
  627HK4     O252626   2.005   6.231   9.309  0.1477 -0.2783  0.7272
  627HK4     C452627   1.988   6.063   9.473 -0.2418 -0.0300  0.1294
  627HK4     C352628   2.076   5.978   9.408  0.4349  0.3880  0.4964
  627HK4     H352629   2.137   6.007   9.321 -0.3545 -2.7378 -1.1806
  627HK4     C252630   2.106   5.853   9.460 -0.2334  0.0053 -0.0463
  627HK4     H252631   2.196   5.802   9.421  0.7055  1.2777  0.4462
  627HK4     C152632   2.025   5.804   9.562  0.1088 -0.3912  0.0403
  627HK4     H152633   2.036   5.697   9.584  0.6928 -0.9267 -2.6796
  627HK4     C652634   1.927   5.885   9.624  0.7110  0.0080  0.4777
  627HK4     C552635   1.910   6.017   9.581 -0.0049 -0.1547  0.2520
  627HK4    C1052636   1.821   6.119   9.644  0.0692  0.1082 -0.0741
  627HK4     O152637   1.703   6.092   9.662  0.1616  0.2554  0.7478
  627HK4    C1652638   1.885   5.832   9.754 -0.1341 -0.2734  0.0972
  627HK4    C1552639   1.973   5.762   9.839  0.1551  0.4099  0.3636
  627HK4     H752640   2.077   5.798   9.833  0.3361 -0.4352 -2.2715
  627HK4    C2052641   1.925   5.700   9.953 -0.4175 -0.8650 -0.5644
  627HK4     H952642   1.980   5.622  10.006  1.4429  0.4783 -0.4845
  627HK4    C1952643   1.792   5.700   9.994 -0.2224  0.6770  0.0881
  627HK4    C1852644   1.698   5.765   9.904 -0.5085  0.7884  0.4664
  627HK4    C1752645   1.751   5.827   9.791 -0.0345  0.6666  0.6172
  627HK4     H852646   1.679   5.866   9.719  1.5160  1.5540 -0.4671
  627HK4     N152647   1.568   5.752   9.955 -0.6140 -0.6335 -0.1396
  627HK4    C2152648   1.582   5.702  10.086 -0.2126 -0.0774  0.0277
  627HK4    C2252649   1.721   5.672  10.117 -0.1984 -0.1202 -0.0815
  627HK4    C2652650   1.756   5.627  10.243 -0.5707 -0.2478 -0.0210
  627HK4    H1352651   1.849   5.661  10.290 -0.5516 -1.6007  0.9504
  627HK4    C2552652   1.657   5.609  10.339 -0.3241 -0.1988  0.2444
  627HK4    H1252653   1.684   5.592  10.443  1.2141  2.2945  0.2889
  627HK4    C2452654   1.523   5.626  10.305 -0.1307  0.2219 -0.3082
  627HK4    H1152655   1.454   5.611  10.388 -0.1004 -2.1392 -0.6781
  627HK4    C2352656   1.484   5.676  10.181 -0.5541 -0.2756 -0.3809
  627HK4    H1052657   1.382   5.713  10.171 -0.4886 -0.6205 -2.4907
  627HK4    C3952658   1.458   5.816   9.897 -0.3114  0.2764  0.2921
  627HK4    C4152659   1.331   5.756   9.916  0.1134 -0.5079  0.6638
  627HK4    H2152660   1.330   5.655   9.958  1.2526 -0.7354  0.1708
  627HK4    C4252661   1.211   5.818   9.883  0.4551 -0.4438 -0.4910
  627HK4    H2252662   1.113   5.770   9.887  0.5291 -0.7024 -1.5564
  627HK4    C4352663   1.214   5.951   9.842  0.2532 -0.3340 -0.1452
  627HK4    H2352664   1.117   6.001   9.843  0.6690  0.4776  0.2750
  627HK4    C4452665   1.340   6.010   9.832 -0.1264  0.5484  0.2201
  627HK4    H2452666   1.343   6.099   9.767 -2.1087  0.9650  0.6597
  627HK4    C4552667   1.463   5.952   9.858 -0.1955  0.0059 -0.6365
  627HK4    H2552668   1.559   6.002   9.838 -0.2288 -0.2404 -1.4135
  628HK4    H2852669   1.179   7.790  10.865 -1.7840  2.4638 -1.6173
  628HK4    C4852670   1.155   7.853  10.951  0.0908  0.2599  0.5893
  628HK4    C4752671   1.093   7.796  11.061 -0.8699 -0.3760 -0.2799
  628HK4    H2752672   1.073   7.688  11.056 -0.8320 -0.4674  1.4683
  628HK4    C4652673   1.034   7.879  11.154 -0.4524 -0.3229 -0.0621
  628HK4    H2652674   0.988   7.830  11.242 -1.9526 -0.3410 -0.8403
  628HK4    C4052675   1.037   8.020  11.145 -0.4921 -0.3245 -0.1165
  628HK4    C5052676   1.107   8.075  11.035 -0.0370  0.3165  0.4887
  628HK4    H3052677   1.139   8.179  11.046  0.1940  0.4286 -1.1028
  628HK4    C4952678   1.168   7.991  10.942 -0.4128  0.2868  0.2680
  628HK4    H2952679   1.235   8.031  10.864  0.2009 -1.5130 -0.1344
  628HK4     N252680   0.966   8.109  11.227 -0.1900 -0.2491  0.0587
  628HK4    C3052681   0.939   8.070   0.112  0.2788  0.4233  0.3543
  628HK4    C2952682   1.021   8.001   0.200  0.4447  0.2548  0.0686
  628HK4    H1552683   1.125   7.980   0.176 -0.5883 -2.6784 -2.0816
  628HK4    C2852684   0.974   7.965   0.326 -0.3571 -0.7383 -0.5085
  628HK4    C2752685   0.844   8.011   0.354 -0.0625  0.0465 -0.4063
  628HK4    H1452686   0.805   7.987   0.454 -2.1780  3.0750 -0.4631
  628HK4    C3252687   0.757   8.080   0.270 -0.1363  0.1209 -0.2692
  628HK4    H1652688   0.681   8.136   0.324  0.3816 -0.0900  0.6853
  628HK4    C3152689   0.804   8.112   0.143 -0.1135 -0.2889 -0.3670
  628HK4    C3452690   0.752   8.191   0.034 -0.6773 -0.2383 -0.0641
  628HK4    C3352691   0.861   8.192  11.185 -0.2697 -0.1864  0.3926
  628HK4    C3552692   0.848   8.279  11.077  0.1917 -0.3329  0.2214
  628HK4    H1752693   0.940   8.307  11.024  0.6130 -1.8930  0.0898
  628HK4    C3652694   0.737   8.361  11.068 -0.4261 -1.1558  0.2830
  628HK4    H1852695   0.717   8.418  10.976  1.4550  0.5433  0.8930
  628HK4    C3752696   0.640   8.366  11.168 -0.3432  0.3448  0.2928
  628HK4    H1952697   0.540   8.399  11.139  0.5869  3.0259 -0.0399
  628HK4    C3852698   0.644   8.278   0.027 -0.7421 -0.3288 -0.2422
  628HK4    H2052699   0.579   8.288   0.114 -1.6858  1.7899 -1.1580
  628HK4    C1452700   1.023   7.845   0.395  0.2895  0.0369  0.4018
  628HK4     C952701   0.942   7.754   0.464 -0.3178  0.6732  0.5186
  628HK4     C852702   0.990   7.689   0.580 -0.5861  0.0695  0.2937
  628HK4    C1152703   1.123   7.709   0.614 -0.5053 -0.0830  0.0718
  628HK4     H452704   1.149   7.682   0.718 -0.8652 -0.7588 -0.0139
  628HK4    C1252705   1.213   7.789   0.544 -0.4551 -0.0137  0.2119
  628HK4     H552706   1.323   7.789   0.549 -0.4499 -0.3378  0.1012
  628HK4    C1352707   1.160   7.851   0.431  0.3572  0.4536  0.0806
  628HK4     H652708   1.228   7.915   0.373 -0.8342  0.8828 -0.8767
  628HK4     C752709   0.918   7.577   0.644 -0.7781  0.3373  0.5504
  628HK4     O252710   0.956   7.539   0.755 -0.4552  0.0520  0.3451
  628HK4     C452711   0.793   7.534   0.578 -0.4913  0.2707  0.0457
  628HK4     C352712   0.737   7.411   0.610  0.1260 -0.0529 -0.1056
  628HK4     H352713   0.792   7.339   0.672  0.7521  0.8571  0.4161
  628HK4     C252714   0.609   7.379   0.567  0.1828 -0.2379 -0.1369
  628HK4     H252715   0.559   7.281   0.571  1.3586 -0.9073 -1.5123
  628HK4     C152716   0.531   7.483   0.518  0.1194 -0.4352 -0.4535
  628HK4     H152717   0.422   7.467   0.522 -0.3803  2.7495  0.5360
  628HK4     C652718   0.579   7.613   0.493 -0.6917  0.0429  0.4433
  628HK4     C552719   0.717   7.631   0.509 -0.6051 -0.0179 -0.2351
  628HK4    C1052720   0.803   7.719   0.425 -0.0356 -0.1234  0.2328
  628HK4     O152721   0.769   7.731   0.307 -0.5147  0.2127  0.4022
  628HK4    C1652722   0.490   7.721   0.446 -0.9558 -0.1905  0.4083
  628HK4    C1552723   0.509   7.855   0.485 -0.0207 -0.0763 -0.4283
  628HK4     H752724   0.546   7.874   0.587 -1.5264  0.1768  0.0791
  628HK4    C2052725   0.461   7.962   0.410 -0.4783 -0.0236 -0.0548
  628HK4     H952726   0.467   8.063   0.450  1.2368 -0.6579  1.3672
  628HK4    C1952727   0.396   7.935   0.290 -0.9721  0.0168  0.2023
  628HK4    C1852728   0.386   7.798   0.245  0.4477 -0.0181 -0.0169
  628HK4    C1752729   0.424   7.692   0.328 -0.1758 -0.2465 -0.0179
  628HK4     H852730   0.405   7.587   0.309 -1.7744  0.0083  0.0966
  628HK4     N152731   0.342   7.791   0.111 -0.4500  0.1448  0.2686
  628HK4    C2152732   0.319   7.925   0.073  0.4247  0.0900 -0.4702
  628HK4    C2252733   0.345   8.017   0.182 -0.0981 -0.0273 -0.2480
  628HK4    C2652734   0.323   8.154   0.168  0.0924 -0.0022 -0.3072
  628HK4    H1352735   0.361   8.220   0.246 -2.2221 -1.5503  2.2153
  628HK4    C2552736   0.260   8.196   0.051 -0.1612 -0.1245 -0.2136
  628HK4    H1252737   0.230   8.301   0.053  1.2882  0.3083 -0.7975
  628HK4    C2452738   0.235   8.107  11.196  0.2381 -0.6843  0.1708
  628HK4    H1152739   0.162   8.148  11.125  0.6765 -0.8687 -0.3887
  628HK4    C2352740   0.267   7.972  11.201 -0.0721 -0.7896 -0.6015
  628HK4    H1052741   0.219   7.898  11.136 -1.6403 -1.0268  0.7953
  628HK4    C3952742   0.274   7.684   0.053  0.6496 -0.4035 -0.0070
  628HK4    C4152743   0.299   7.651  11.166  0.0086 -0.7180 -0.0518
  628HK4    H2152744   0.383   7.708  11.122  0.5587  0.6240  2.5985
  628HK4    C4252745   0.251   7.534  11.109 -1.1876 -0.2064 -0.1132
  628HK4    H2252746   0.296   7.522  11.009  2.6803  1.0759  1.3693
  628HK4    C4352747   0.179   7.438  11.179 -0.5014 -0.7393 -0.1355
  628HK4    H2352748   0.143   7.345  11.136 -0.4623 -1.6656  1.7809
  628HK4    C4452749   0.154   7.468   0.065  0.0176  0.2389 -0.2495
  628HK4    H2452750   0.103   7.387   0.119 -3.0834  1.1024 -1.7758
  628HK4    C4552751   0.196   7.587   0.121 -0.0026  0.1284  0.0040
  628HK4    H2552752   0.162   7.606   0.224 -0.8653  0.9251 -0.4180
  629HK4    H2852753   0.929   7.227   3.025  1.9604 -1.1151 -0.5782
  629HK4    C4852754   0.902   7.140   2.965 -0.0814 -0.7705 -0.2211
  629HK4    C4752755   0.843   7.029   3.023 -0.0037 -0.5093  0.3623
  629HK4    H2752756   0.819   7.034   3.130  2.3420 -0.1765  0.9020
  629HK4    C4652757   0.812   6.917   2.947  0.0421 -0.4119  0.1993
  629HK4    H2652758   0.735   6.846   2.981 -2.0618  0.8711 -1.7487
  629HK4    C4052759   0.843   6.912   2.810 -0.6330 -0.1993  0.0364
  629HK4    C5052760   0.903   7.027   2.753 -0.4583 -0.1861  0.2460
  629HK4    H3052761   0.888   7.038   2.644 -1.7429 -1.2917  0.2961
  629HK4    C4952762   0.931   7.139   2.829 -0.2598  0.1146 -0.2675
  629HK4    H2952763   0.984   7.223   2.782  0.2576  0.4272  0.8545
  629HK4     N252764   0.886   6.799   2.739 -0.0877 -0.0968  0.1995
  629HK4    C3052765   0.953   6.685   2.787  0.2170 -0.1278 -0.2887
  629HK4    C2952766   0.985   6.658   2.920  0.3684  0.0095 -0.2960
  629HK4    H1552767   0.968   6.737   2.993 -0.6072 -2.9426  2.8618
  629HK4    C2852768   1.043   6.536   2.952  0.2604 -0.0820 -0.4482
  629HK4    C2752769   1.057   6.439   2.850  0.5173 -0.5259  0.0067
  629HK4    H1452770   1.089   6.338   2.881 -2.3441 -1.2548  0.6837
  629HK4    C3252771   1.025   6.462   2.717  0.6630 -0.0235  0.0574
  629HK4    H1652772   1.048   6.384   2.645 -3.8990 -0.5654 -0.9784
  629HK4    C3152773   0.971   6.586   2.683 -0.2203 -0.4373 -0.0721
  629HK4    C3452774   0.914   6.646   2.564  0.3643  0.2768  0.0044
  629HK4    C3352775   0.854   6.772   2.604 -0.3474 -0.1421  0.2690
  629HK4    C3552776   0.779   6.843   2.511 -0.2115 -0.5238 -0.1365
  629HK4    H1752777   0.740   6.943   2.533  0.1625 -0.0214 -1.6846
  629HK4    C3652778   0.769   6.797   2.381  0.3593  0.1069 -0.4071
  629HK4    H1852779   0.703   6.853   2.313  1.0895  1.3001 -0.1435
  629HK4    C3752780   0.819   6.673   2.342  0.0800 -0.1085 -0.0850
  629HK4    H1952781   0.820   6.648   2.236  3.0919 -0.8146  0.0503
  629HK4    C3852782   0.890   6.599   2.436 -0.7500 -0.2826  0.4116
  629HK4    H2052783   0.910   6.493   2.415 -0.0529  0.1097 -1.0364
  629HK4    C1452784   1.137   6.530   3.065  0.1403  0.6638 -0.3071
  629HK4     C952785   1.267   6.483   3.044  0.0137  0.1978 -0.0509
  629HK4     C852786   1.322   6.402   3.146  0.0380 -0.2400 -0.4112
  629HK4    C1152787   1.258   6.395   3.269  0.1533 -0.9906 -0.3915
  629HK4     H452788   1.322   6.379   3.357  0.8541  1.7178 -0.3675
  629HK4    C1252789   1.133   6.449   3.296  0.6168  0.0844 -0.3766
  629HK4     H552790   1.087   6.446   3.396 -0.1327 -0.3771 -0.7239
  629HK4    C1352791   1.069   6.504   3.186  0.4649  0.2380 -0.2122
  629HK4     H652792   0.960   6.521   3.195  0.2739 -0.0873 -1.6613
  629HK4     C752793   1.451   6.334   3.124  0.2238 -0.0627  0.1212
  629HK4     O252794   1.491   6.252   3.207  0.1614 -0.4596 -0.2396
  629HK4     C452795   1.519   6.370   2.997 -0.0347  0.0212  0.0077
  629HK4     C352796   1.627   6.286   2.969 -0.2961 -0.2180 -0.2867
  629HK4     H352797   1.644   6.194   3.027 -0.2597  0.4319  0.7497
  629HK4     C252798   1.724   6.326   2.878  0.3414 -0.2660  0.3665
  629HK4     H252799   1.802   6.260   2.838 -1.2125 -1.0705 -1.4121
  629HK4     C152800   1.704   6.452   2.821 -0.2958 -0.5499 -0.0493
  629HK4     H152801   1.776   6.472   2.741 -0.3991  1.2028  0.2825
  629HK4     C652802   1.602   6.543   2.855  0.1517 -0.0348 -0.0862
  629HK4     C552803   1.500   6.497   2.939  0.1220 -0.0085 -0.1073
  629HK4    C1052804   1.362   6.551   2.952  0.2716  0.2792  0.2735
  629HK4     O152805   1.323   6.647   2.885 -0.2348 -0.1020  0.0197
  629HK4    C1652806   1.607   6.680   2.801  0.2582 -0.0297 -0.0636
  629HK4    C1552807   1.629   6.703   2.664 -0.8360 -0.3129 -0.2932
  629HK4     H752808   1.618   6.616   2.598 -2.2627  0.5239 -1.2003
  629HK4    C2052809   1.672   6.827   2.619 -0.8331 -0.0936  0.3123
  629HK4     H952810   1.663   6.855   2.514 -0.4387  1.3245  0.6390
  629HK4    C1952811   1.701   6.924   2.714 -0.5213 -0.0396  0.1649
  629HK4    C1852812   1.661   6.910   2.853 -0.1617  0.2043  0.2947
  629HK4    C1752813   1.630   6.781   2.894  1.3245 -0.2777 -0.0560
  629HK4     H852814   1.634   6.765   3.001  1.9132  0.7225  0.0738
  629HK4     N152815   1.660   7.033   2.922  0.0962  0.3882 -0.0245
  629HK4    C2152816   1.699   7.128   2.826  0.5198  0.1555 -0.0870
  629HK4    C2252817   1.725   7.066   2.697 -0.6019 -0.0700 -0.2102
  629HK4    C2652818   1.765   7.148   2.593 -0.0172 -0.2435 -0.1282
  629HK4    H1352819   1.805   7.091   2.509  0.2560  0.8818 -0.7745
  629HK4    C2552820   1.770   7.287   2.600 -0.2951 -0.2167 -0.3984
  629HK4    H1252821   1.817   7.345   2.521 -0.7393  1.9026  0.8392
  629HK4    C2452822   1.742   7.346   2.723  0.9845 -0.1777 -0.1153
  629HK4    H1152823   1.744   7.456   2.724 -0.7459 -0.1320  0.8218
  629HK4    C2352824   1.712   7.266   2.833 -0.0255  0.2086 -0.1112
  629HK4    H1052825   1.715   7.315   2.931 -0.4704  2.2259 -1.0674
  629HK4    C3952826   1.568   7.056   3.025 -0.0712  0.1653 -0.1235
  629HK4    C4152827   1.610   7.150   3.121  0.0843  0.3679 -0.3899
  629HK4    H2152828   1.709   7.199   3.119 -0.3043  1.2305  0.6443
  629HK4    C4252829   1.516   7.186   3.217  0.2445 -0.7480  0.1943
  629HK4    H2252830   1.543   7.266   3.288 -3.7888 -0.9010  2.0118
  629HK4    C4352831   1.389   7.129   3.221 -0.1241  0.0569  0.1115
  629HK4    H2352832   1.329   7.160   3.306  2.6855  2.7745  1.2107
  629HK4    C4452833   1.346   7.037   3.126  0.0404  0.3779 -0.2799
  629HK4    H2452834   1.242   7.001   3.132 -0.2365  1.1155 -0.6609
  629HK4    C4552835   1.437   7.004   3.027  0.2225 -0.5663  0.1914
  629HK4    H2552836   1.400   6.945   2.942 -2.1283  0.4440  0.4818
  630HK4    H2852837   1.479   9.628   9.900  2.4814 -1.5737 -0.4290
  630HK4    C4852838   1.463   9.635   9.792  0.3355  0.5772 -0.0176
  630HK4    C4752839   1.368   9.732   9.759  0.2044  0.4765  0.0594
  630HK4    H2752840   1.345   9.817   9.824 -1.3137  1.2328 -1.4411
  630HK4    C4652841   1.323   9.739   9.627 -0.3551 -0.4612  0.1966
  630HK4    H2652842   1.239   9.806   9.606 -0.1168  0.1720  1.2497
  630HK4    C4052843   1.361   9.646   9.528 -0.4851 -0.3801  0.0700
  630HK4    C5052844   1.466   9.559   9.562  0.1199  0.3081 -0.0456
  630HK4    H3052845   1.534   9.515   9.488  0.7545  1.2304 -0.0229
  630HK4    C4952846   1.514   9.553   9.693  0.2241  0.5744 -0.0732
  630HK4    H2952847   1.584   9.476   9.729 -0.9854 -1.9143 -2.7994
  630HK4     N252848   1.307   9.636   9.399  0.1576  0.2466 -0.2505
  630HK4    C3052849   1.302   9.524   9.314  0.5663  0.0874 -0.0621
  630HK4    C2952850   1.307   9.389   9.346  0.2719 -0.0595 -0.5978
  630HK4    H1552851   1.347   9.362   9.444  0.2028  0.5548 -0.3991
  630HK4    C2852852   1.275   9.283   9.263 -0.4579 -0.0162 -0.3718
  630HK4    C2752853   1.224   9.323   9.138 -0.3350  0.0253 -0.4045
  630HK4    H1452854   1.173   9.244   9.081 -1.2540  0.5171 -0.2733
  630HK4    C3252855   1.226   9.455   9.092 -0.1316  0.0127 -0.4488
  630HK4    H1652856   1.192   9.468   8.989  0.7657  0.5926 -0.6735
  630HK4    C3152857   1.269   9.557   9.177 -0.1668 -0.3573  0.0112
  630HK4    C3452858   1.255   9.701   9.182  0.7885 -0.2457 -0.4265
  630HK4    C3352859   1.278   9.747   9.317 -0.3023  0.0625 -0.3376
  630HK4    C3552860   1.285   9.883   9.344  0.6704  0.0131 -0.3286
  630HK4    H1752861   1.325   9.925   9.436 -0.0322  0.2977 -0.1543
  630HK4    C3652862   1.273   9.978   9.243 -0.0024  0.2734  0.0009
  630HK4    H1852863   1.249  10.081   9.275  0.8425  0.2506  0.7240
  630HK4    C3752864   1.255   9.934   9.113  0.6846  0.1791 -0.0614
  630HK4    H1952865   1.274  10.007   9.033  0.9418 -0.3890 -0.5264
  630HK4    C3852866   1.248   9.798   9.083 -0.3350  0.1965  0.0773
  630HK4    H2052867   1.251   9.764   8.979  1.4164  3.7940 -1.1623
  630HK4    C1452868   1.318   9.146   9.295 -0.3014  0.0069 -0.4854
  630HK4     C952869   1.345   9.040   9.207  0.3868 -0.1704 -0.0633
  630HK4     C852870   1.326   8.906   9.248  0.6841 -0.1671  0.0964
  630HK4    C1152871   1.302   8.878   9.382 -0.9036  0.0693 -0.1176
  630HK4     H452872   1.295   8.777   9.426 -0.1612 -0.3658 -0.9696
  630HK4    C1252873   1.279   8.983   9.470 -0.4721 -0.1344  0.2406
  630HK4     H552874   1.233   8.945   9.563  1.6083 -0.6526  1.0751
  630HK4    C1352875   1.284   9.115   9.428  0.0712 -0.3835 -0.4770
  630HK4     H652876   1.236   9.180   9.503 -0.7063 -2.9155  1.2870
  630HK4     C752877   1.307   8.798   9.149  0.5596 -0.0397 -0.0141
  630HK4     O252878   1.319   8.681   9.184 -0.2842  0.0289  0.4988
  630HK4     C452879   1.326   8.830   9.006 -0.3681 -0.0899 -0.1519
  630HK4     C352880   1.272   8.747   8.908  0.5179 -0.6788 -0.1547
  630HK4     H352881   1.218   8.656   8.937 -2.3501  0.5773 -1.4056
  630HK4     C252882   1.304   8.768   8.775  0.8461  0.0437  0.0325
  630HK4     H252883   1.250   8.712   8.697  0.4559  0.0652  0.2898
  630HK4     C152884   1.402   8.863   8.747  0.3769  0.5257  0.0324
  630HK4     H152885   1.461   8.838   8.658  0.9826  0.5287  0.4325
  630HK4     C652886   1.455   8.951   8.844 -0.0253  0.3519  0.4118
  630HK4     C552887   1.403   8.944   8.974 -0.0108 -0.1795  0.3927
  630HK4    C1052888   1.395   9.059   9.068  0.0049  0.2566 -0.1434
  630HK4     O152889   1.445   9.167   9.038  0.4572  0.1265  0.1368
  630HK4    C1652890   1.581   9.019   8.814 -0.1324  0.3351 -0.0889
  630HK4    C1552891   1.608   9.045   8.679 -0.3543  0.0940 -0.1778
  630HK4     H752892   1.523   9.048   8.609  0.0334 -3.0128 -0.8344
  630HK4    C2052893   1.736   9.074   8.632 -0.2674  0.0901  0.0598
  630HK4     H952894   1.755   9.111   8.531 -2.9158  1.5794  0.0635
  630HK4    C1952895   1.837   9.075   8.727 -0.0354 -0.5436 -0.1805
  630HK4    C1852896   1.810   9.063   8.869 -0.1688  0.1186 -0.1488
  630HK4    C1752897   1.681   9.033   8.911 -0.0562 -0.2727 -0.0783
  630HK4     H852898   1.653   9.008   9.013  0.5142 -0.2866  0.0726
  630HK4     N152899   1.928   9.090   8.941 -0.2596  0.0766  0.0216
  630HK4    C2152900   2.029   9.129   8.850 -0.3385 -0.0031 -0.1029
  630HK4    C2252901   1.978   9.107   8.716  0.0471 -0.8787 -0.1138
  630HK4    C2652902   2.070   9.097   8.612  0.6420  0.7778  0.2255
  630HK4    H1352903   2.035   9.070   8.512 -0.5730 -1.7036  1.2755
  630HK4    C2552904   2.207   9.114   8.631  0.8293 -0.3453 -0.0872
  630HK4    H1252905   2.272   9.136   8.546 -0.5136  0.6539 -0.8708
  630HK4    C2452906   2.255   9.140   8.758  0.1825  0.2148  0.0474
  630HK4    H1152907   2.363   9.142   8.781  0.6855  1.0089 -2.2642
  630HK4    C2352908   2.165   9.157   8.862 -0.4342  0.6690 -0.5557
  630HK4    H1052909   2.191   9.205   8.956 -1.7536 -0.2385  0.2954
  630HK4    C3952910   1.928   9.128   9.075 -0.0114  0.1354  0.0043
  630HK4    C4152911   2.045   9.120   9.153 -0.1486 -0.0413  0.1917
  630HK4    H2152912   2.133   9.063   9.117 -0.0923 -0.1012  0.4293
  630HK4    C4252913   2.062   9.209   9.259 -0.2559 -0.1646  0.3133
  630HK4    H2252914   2.158   9.200   9.312  0.0684 -0.2313 -0.2731
  630HK4    C4352915   1.965   9.296   9.307 -0.4434 -0.0412 -0.2845
  630HK4    H2352916   1.968   9.341   9.406 -0.5591  2.2429 -1.3108
  630HK4    C4452917   1.848   9.299   9.232 -0.8109 -0.2889  0.2719
  630HK4    H2452918   1.769   9.367   9.269 -0.3356 -0.2852  1.3069
  630HK4    C4552919   1.829   9.218   9.121 -0.1094  0.0936 -0.1303
  630HK4    H2552920   1.736   9.238   9.066  0.5924  0.0106 -1.3614
  631HK4    H2852921   7.295   2.478   3.290  0.4945  1.0640  1.6086
  631HK4    C4852922   7.264   2.582   3.293 -0.2470  0.9234 -0.3173
  631HK4    C4752923   7.307   2.669   3.194  0.9173  0.7170  0.0042
  631HK4    H2752924   7.393   2.635   3.135  0.6083 -0.2574  0.1059
  631HK4    C4652925   7.242   2.791   3.174 -0.3067 -0.0204 -0.5734
  631HK4    H2652926   7.286   2.851   3.093 -0.2329 -0.6033 -0.9712
  631HK4    C4052927   7.122   2.823   3.240 -0.1238 -0.2439 -0.1236
  631HK4    C5052928   7.087   2.734   3.343  0.2269  0.3622  0.5213
  631HK4    H3052929   7.002   2.744   3.411 -0.4356  1.1361 -0.4150
  631HK4    C4952930   7.151   2.613   3.368 -0.0550  0.1643  0.2859
  631HK4    H2952931   7.101   2.530   3.422  0.3204 -0.8437 -0.8943
  631HK4     N252932   7.049   2.939   3.211  0.0681  0.0580  0.6071
  631HK4    C3052933   6.914   2.949   3.252  0.0667  0.0618  0.5992
  631HK4    C2952934   6.816   2.851   3.255 -0.1037  0.2243  0.3487
  631HK4    H1552935   6.835   2.748   3.223  0.6340 -0.0088  1.4997
  631HK4    C2852936   6.686   2.892   3.280 -0.2738  0.2141 -0.4809
  631HK4    C2752937   6.659   3.028   3.308  0.1326  0.3154 -0.5816
  631HK4    H1452938   6.553   3.057   3.309 -0.3599 -1.4526  0.3262
  631HK4    C3252939   6.757   3.126   3.319 -0.1726  0.6546 -0.8522
  631HK4    H1652940   6.741   3.214   3.381  1.1226  1.3827 -1.5417
  631HK4    C3152941   6.887   3.085   3.292 -0.1297  0.1947  0.0124
  631HK4    C3452942   7.007   3.160   3.262  0.2723 -0.1448  0.7797
  631HK4    C3352943   7.103   3.069   3.203 -0.2418  0.1207 -0.4652
  631HK4    C3552944   7.221   3.118   3.147 -0.2075  0.1810 -0.3412
  631HK4    H1752945   7.303   3.056   3.111 -0.3363  0.2715 -0.7952
  631HK4    C3652946   7.247   3.254   3.154  0.1519  0.0768  0.3909
  631HK4    H1852947   7.352   3.287   3.145  0.2420 -0.1715  0.5210
  631HK4    C3752948   7.155   3.340   3.212  0.3081  0.5792 -0.1017
  631HK4    H1952949   7.196   3.437   3.241 -0.9634  0.9802  0.4001
  631HK4    C3852950   7.034   3.297   3.265  0.4912 -0.1616 -0.2864
  631HK4    H2052951   6.967   3.375   3.302  1.1221 -1.2928  3.4973
  631HK4    C1452952   6.577   2.797   3.252  0.1613 -0.2729 -0.5222
  631HK4     C952953   6.450   2.838   3.210  0.0480 -0.0017  0.0786
  631HK4     C852954   6.336   2.762   3.244  0.0146  0.1519  0.3085
  631HK4    C1152955   6.345   2.640   3.311  0.6621  0.0450  0.0302
  631HK4     H452956   6.262   2.569   3.323  0.4684  0.1733 -0.5253
  631HK4    C1252957   6.470   2.595   3.353  0.5152 -0.3445  0.0598
  631HK4     H552958   6.490   2.503   3.409  0.3320  1.5543  3.3516
  631HK4    C1352959   6.578   2.679   3.328  0.1755  0.0977  0.0567
  631HK4     H652960   6.675   2.658   3.376 -0.0702  2.0563  1.4822
  631HK4     C752961   6.202   2.809   3.204  0.0431 -0.0728 -0.0629
  631HK4     O252962   6.101   2.769   3.262  0.2485  0.1122  0.4289
  631HK4     C452963   6.186   2.930   3.120  0.3672  0.2170  0.2933
  631HK4     C352964   6.057   2.970   3.088  0.3212 -0.5747 -0.5396
  631HK4     H352965   5.989   2.892   3.052 -1.1261 -0.1688  1.2557
  631HK4     C252966   6.040   3.099   3.039  0.2748 -0.1550  0.5810
  631HK4     H252967   5.945   3.135   2.997  0.0547 -2.0757 -0.6003
  631HK4     C152968   6.153   3.178   3.021  0.4256 -0.5232 -0.0869
  631HK4     H152969   6.139   3.268   2.960 -0.4667  1.0307  2.3241
  631HK4     C652970   6.287   3.141   3.045  0.5292  0.0265  0.1941
  631HK4     C552971   6.299   3.010   3.090  0.4830  0.1192  0.4718
  631HK4    C1052972   6.434   2.952   3.115  0.5108 -0.0495 -0.0582
  631HK4     O152973   6.512   2.965   3.021  0.0549  0.4802 -0.3670
  631HK4    C1652974   6.379   3.248   3.085  0.4784  0.1033  0.1065
  631HK4    C1552975   6.334   3.339   3.183  0.9385  0.0386  0.3788
  631HK4     H752976   6.234   3.317   3.223  0.4878  0.9591 -0.2226
  631HK4    C2052977   6.409   3.450   3.221 -0.0101  0.6617  0.4573
  631HK4     H952978   6.364   3.516   3.296 -0.1119  0.0307  0.9560
  631HK4    C1952979   6.536   3.466   3.166  0.0333 -0.6637  0.1688
  631HK4    C1852980   6.584   3.374   3.064  0.3470 -0.8847  0.5139
  631HK4    C1752981   6.503   3.269   3.025  0.4604 -0.7054 -0.2100
  631HK4     H852982   6.534   3.214   2.936  1.7377 -3.3392  1.7833
  631HK4     N152983   6.718   3.399   3.027  0.1940 -0.0889  0.4765
  631HK4    C2152984   6.754   3.516   3.097 -0.5988  0.2908  0.2586
  631HK4    C2252985   6.647   3.557   3.185 -0.9352  0.6314 -0.3049
  631HK4    C2652986   6.671   3.661   3.274 -0.1851  0.3647 -0.1923
  631HK4    H1352987   6.597   3.699   3.345  1.9259  0.7294  1.8890
  631HK4    C2552988   6.789   3.734   3.276  0.0150  0.0435 -0.2947
  631HK4    H1252989   6.790   3.833   3.322 -3.5159  0.8937 -1.8543
  631HK4    C2452990   6.891   3.690   3.192 -0.1544  0.3531 -0.6635
  631HK4    H1152991   6.991   3.734   3.208  0.3138 -0.5156 -1.1456
  631HK4    C2352992   6.876   3.581   3.108 -0.5210  0.2834 -0.5083
  631HK4    H1052993   6.962   3.555   3.046  1.0826 -2.5734  2.7358
  631HK4    C3952994   6.796   3.313   2.949 -0.4173 -0.1012 -0.1282
  631HK4    C4152995   6.891   3.359   2.855  0.0565 -0.1251  0.3379
  631HK4    H2152996   6.883   3.463   2.819 -0.4591 -0.1136  0.4796
  631HK4    C4252997   6.989   3.279   2.798  0.1098  0.0141  0.2342
  631HK4    H2252998   7.062   3.320   2.727 -0.4281 -1.4585 -1.1944
  631HK4    C4352999   6.981   3.143   2.828 -0.0326  0.0105  0.1796
  631HK4    H2353000   7.011   3.071   2.751 -0.8718 -0.3595  0.2010
  631HK4    C4453001   6.894   3.089   2.921  0.1581  0.1577  0.4420
  631HK4    H2453002   6.896   2.984   2.951 -0.4651  0.3328  1.1044
  631HK4    C4553003   6.805   3.176   2.984 -0.4578 -0.0907 -0.0788
  631HK4    H2553004   6.745   3.134   3.065 -1.5933  3.0600  0.8101
  632HK4    H2853005   9.864   2.545   4.230 -1.2265 -3.6423  1.1360
  632HK4    C4853006   9.799   2.555   4.144  0.1862 -0.3135  0.3971
  632HK4    C4753007   9.851   2.594   4.021 -0.0431 -0.7655  0.1552
  632HK4    H2753008   9.954   2.633   4.015  0.1885 -1.4336 -0.2817
  632HK4    C4653009   9.770   2.580   3.908  0.1286  0.4284 -0.1220
  632HK4    H2653010   9.807   2.631   3.818  0.8323 -0.3420 -0.2684
  632HK4    C4053011   9.645   2.515   3.908  0.4455 -0.1845 -0.1967
  632HK4    C5053012   9.600   2.477   4.037  0.0932 -0.1218 -0.3020
  632HK4    H3053013   9.494   2.449   4.044 -0.8280  2.5011 -2.5515
  632HK4    C4953014   9.669   2.505   4.154  0.0395 -0.0820 -0.2805
  632HK4    H2953015   9.615   2.530   4.246 -0.3630  2.6836 -1.2253
  632HK4     N253016   9.556   2.512   3.800 -0.2138  0.1872  0.3299
  632HK4    C3053017   9.554   2.603   3.692 -0.0645 -0.3961 -0.1697
  632HK4    C2953018   9.598   2.735   3.692 -0.4119 -0.2829 -0.3227
  632HK4    H1553019   9.620   2.783   3.787  1.3158 -1.5523 -0.0634
  632HK4    C2853020   9.590   2.817   3.580  0.1071 -0.2759 -0.3543
  632HK4    C2753021   9.551   2.753   3.461 -0.3382 -0.2228 -0.2377
  632HK4    H1453022   9.575   2.805   3.367 -2.7597  0.1288 -0.6908
  632HK4    C3253023   9.498   2.624   3.463 -0.2292 -0.2744 -0.6840
  632HK4    H1653024   9.461   2.584   3.368 -0.9450 -1.1889 -0.0248
  632HK4    C3153025   9.487   2.546   3.577 -0.1659  0.1556 -0.3846
  632HK4    C3453026   9.448   2.411   3.614  0.2154  0.3114  0.6197
  632HK4    C3353027   9.500   2.394   3.748 -0.7718  0.1647  0.9869
  632HK4    C3553028   9.483   2.269   3.807 -0.2223 -0.3497  0.0599
  632HK4    H1753029   9.540   2.250   3.898 -2.6954 -2.5658  1.2164
  632HK4    C3653030   9.422   2.165   3.737 -0.6755 -0.0752  0.0480
  632HK4    H1853031   9.431   2.069   3.789  0.2303 -0.7596 -1.3555
  632HK4    C3753032   9.364   2.187   3.613 -0.2305 -0.4261 -0.2227
  632HK4    H1953033   9.329   2.101   3.556  2.0429 -1.6839  0.2086
  632HK4    C3853034   9.373   2.311   3.552  0.3231  0.0751  0.8736
  632HK4    H2053035   9.346   2.326   3.447  0.0949  1.4598  1.1143
  632HK4    C1453036   9.609   2.963   3.591  0.1292 -0.3188  0.1776
  632HK4     C953037   9.551   3.055   3.503 -0.2569 -0.0865  0.6701
  632HK4     C853038   9.611   3.182   3.484 -0.4216 -0.0593  0.3280
  632HK4    C1153039   9.713   3.217   3.571  0.3980  0.0394 -0.6683
  632HK4     H453040   9.771   3.309   3.553  0.2228  0.3166  0.1630
  632HK4    C1253041   9.763   3.133   3.669 -0.5195  0.3686  0.0853
  632HK4     H553042   9.852   3.157   3.729  1.5647 -3.2636 -1.4105
  632HK4    C1353043   9.715   3.002   3.675  0.3229  0.0434 -0.2387
  632HK4     H653044   9.785   2.931   3.721 -1.6193 -0.7472  1.5353
  632HK4     C753045   9.561   3.282   3.387 -0.2601  0.1214  0.4349
  632HK4     O253046   9.635   3.374   3.352 -0.1547  0.0100  0.3612
  632HK4     C453047   9.441   3.248   3.308 -0.3417  0.0423  0.5922
  632HK4     C353048   9.381   3.341   3.223 -0.2836 -0.7057 -0.2705
  632HK4     H353049   9.406   3.447   3.233  0.4630 -0.8288 -0.7544
  632HK4     C253050   9.285   3.304   3.129 -0.5266  0.3105 -0.4316
  632HK4     H253051   9.239   3.383   3.069 -0.3952  0.1413 -0.7523
  632HK4     C153052   9.263   3.168   3.109 -0.3490  0.1909  0.1775
  632HK4     H153053   9.183   3.137   3.040 -1.5181  0.3882  1.4294
  632HK4     C653054   9.325   3.069   3.189 -0.4661  0.3365  0.4494
  632HK4     C553055   9.399   3.114   3.298  0.0391 -0.0524  0.2671
  632HK4    C1053056   9.431   3.032   3.418 -0.0245 -0.0028  0.3170
  632HK4     O153057   9.326   2.999   3.474 -0.4168 -0.3844 -0.6307
  632HK4    C1653058   9.353   2.941   3.122 -0.5454  0.4822  0.1323
  632HK4    C1553059   9.358   2.933   2.982  0.1508  0.3158  0.1643
  632HK4     H753060   9.405   3.016   2.926  1.4566  0.1956  1.0822
  632HK4    C2053061   9.315   2.818   2.917 -0.7453  0.7509 -0.0247
  632HK4     H953062   9.317   2.817   2.808  0.4205  1.4464 -0.0144
  632HK4    C1953063   9.263   2.709   2.985  0.6985 -0.0069 -0.1117
  632HK4    C1853064   9.266   2.712   3.130  0.4927 -0.1721 -0.1021
  632HK4    C1753065   9.309   2.829   3.192  0.0119  0.0578 -0.1969
  632HK4     H853066   9.328   2.818   3.299 -1.1891  0.8038  0.0953
  632HK4     N153067   9.202   2.601   3.188  0.3656 -0.0163  0.0553
  632HK4    C2153068   9.155   2.522   3.081  0.1409  0.0077  0.1363
  632HK4    C2253069   9.198   2.582   2.957  0.2652  0.1345  0.2398
  632HK4    C2653070   9.160   2.512   2.843  0.4350 -0.1948  0.3862
  632HK4    H1353071   9.186   2.559   2.748  0.4834  1.3864  1.1621
  632HK4    C2553072   9.086   2.395   2.847  0.0054  0.0542 -0.2463
  632HK4    H1253073   9.051   2.348   2.755  0.1224 -2.2584  0.8481
  632HK4    C2453074   9.048   2.340   2.969 -0.0956  0.1823 -0.2186
  632HK4    H1153075   9.002   2.242   2.989  0.6642 -0.2927 -0.7849
  632HK4    C2353076   9.081   2.404   3.087 -0.4462  0.3532 -0.2107
  632HK4    H1053077   9.034   2.362   3.176 -1.7190 -2.1431 -2.0218
  632HK4    C3953078   9.142   2.595   3.315 -0.4858 -0.1004 -0.3438
  632HK4    C4153079   9.129   2.476   3.390  0.2280  0.0361  0.0061
  632HK4    H2153080   9.158   2.382   3.340 -0.4472 -0.7301  1.0398
  632HK4    C4253081   9.083   2.470   3.521 -0.0252  0.9102 -0.0448
  632HK4    H2253082   9.087   2.375   3.576  0.5389 -0.0991 -1.7857
  632HK4    C4353083   9.062   2.591   3.587  0.4356  0.5665  0.7445
  632HK4    H2353084   9.028   2.591   3.690  0.4912 -1.8907  0.7763
  632HK4    C4453085   9.071   2.709   3.514 -0.1232 -0.1527 -0.5144
  632HK4    H2453086   9.048   2.802   3.569 -1.5892 -0.2541 -0.9215
  632HK4    C4553087   9.102   2.714   3.379 -0.1288  0.1083 -0.5072
  632HK4    H2553088   9.061   2.798   3.321 -0.9211 -1.0260 -1.6152
  633HK4    H2853089   3.588   9.466   2.479  1.4258 -1.1091 -1.5282
  633HK4    C4853090   3.521   9.385   2.509  0.6439  0.0179 -0.1625
  633HK4    C4753091   3.496   9.360   2.643  0.1922  0.0506 -0.2398
  633HK4    H2753092   3.563   9.404   2.718 -0.0437  0.8494 -0.5004
  633HK4    C4653093   3.393   9.280   2.691 -0.0175  0.4358 -0.0429
  633HK4    H2653094   3.357   9.284   2.795 -1.2597 -0.4316 -0.4189
  633HK4    C4053095   3.319   9.203   2.598  0.3538 -0.0314  0.0442
  633HK4    C5053096   3.350   9.218   2.462 -0.0676  0.0802 -0.0418
  633HK4    H3053097   3.295   9.165   2.383 -1.4850  0.3978  0.7323
  633HK4    C4953098   3.446   9.310   2.419  0.1029  0.0459  0.2669
  633HK4    H2953099   3.472   9.318   2.313 -0.2899  1.0611  0.2352
  633HK4     N253100   3.197   9.150   2.642  0.4439 -0.0073  0.3274
  633HK4    C3053101   3.117   9.191   2.751 -0.4729 -0.1402 -0.2873
  633HK4    C2953102   3.096   9.316   2.809  0.0008 -0.3847  0.4220
  633HK4    H1553103   3.143   9.404   2.765  1.2736 -1.5726 -0.6424
  633HK4    C2853104   3.000   9.342   2.906  0.0956  0.0014  0.4126
  633HK4    C2753105   2.916   9.235   2.941  0.1538  0.0629  0.7291
  633HK4    H1453106   2.838   9.254   3.017 -0.6101 -1.6980  0.4098
  633HK4    C3253107   2.936   9.108   2.889  0.5110  0.0889  0.8020
  633HK4    H1653108   2.866   9.027   2.907 -1.4965  1.6925  0.3303
  633HK4    C3153109   3.034   9.080   2.794 -0.9607  0.0496 -0.7317
  633HK4    C3453110   3.061   8.968   2.706  0.0557 -0.3053  0.0200
  633HK4    C3353111   3.153   9.021   2.607  0.0106  0.1680  0.2281
  633HK4    C3553112   3.210   8.928   2.522  0.5896 -0.0251  0.8216
  633HK4    H1753113   3.274   8.963   2.441  0.6079  0.5810  1.0994
  633HK4    C3653114   3.183   8.791   2.526 -0.0268  0.0373 -0.6858
  633HK4    H1853115   3.234   8.725   2.455  1.3730  2.2509 -1.8114
  633HK4    C3753116   3.095   8.741   2.621  0.1188 -0.0657 -0.6046
  633HK4    H1953117   3.082   8.633   2.627  1.4361 -0.2599 -1.0711
  633HK4    C3853118   3.036   8.831   2.708  0.4494 -0.3752 -0.0520
  633HK4    H2053119   2.955   8.797   2.773 -1.1219 -1.0457 -2.3064
  633HK4    C1453120   2.999   9.469   2.980  0.1880  0.0710  0.2988
  633HK4     C953121   2.944   9.492   3.106 -0.5486 -0.4776  0.0758
  633HK4     C853122   2.889   9.611   3.158  0.6088  0.0370  0.1070
  633HK4    C1153123   2.906   9.721   3.075 -0.2548 -0.0014 -0.1213
  633HK4     H453124   2.872   9.819   3.113 -0.6840  0.0772 -0.6963
  633HK4    C1253125   2.970   9.711   2.952  0.7972 -0.0928  0.4338
  633HK4     H553126   2.976   9.791   2.877 -3.4531 -1.3639 -1.4034
  633HK4    C1353127   3.017   9.588   2.907  0.4417 -0.0991  0.0842
  633HK4     H653128   3.065   9.584   2.808 -0.2694 -0.6713 -0.2445
  633HK4     C753129   2.817   9.609   3.287 -0.3562 -0.0827 -0.4347
  633HK4     O253130   2.755   9.709   3.323 -0.7046 -0.2930 -0.4521
  633HK4     C453131   2.803   9.480   3.358 -0.0768  0.1476  0.0413
  633HK4     C353132   2.703   9.467   3.455 -0.1913  0.1879 -0.0710
  633HK4     H353133   2.656   9.553   3.504  0.3287  0.3822  0.0886
  633HK4     C253134   2.673   9.346   3.515  0.0557  0.0949 -0.1329
  633HK4     H253135   2.590   9.329   3.586 -0.6929 -0.0761 -1.0469
  633HK4     C153136   2.743   9.236   3.466 -0.1240  0.0442 -0.2768
  633HK4     H153137   2.721   9.142   3.518 -3.5653  1.2989  0.6871
  633HK4     C653138   2.841   9.237   3.364 -0.0955 -0.3613 -0.2531
  633HK4     C553139   2.873   9.365   3.318 -0.1925 -0.0765  0.4651
  633HK4    C1053140   2.965   9.379   3.201 -0.1734 -0.0727  0.4796
  633HK4     O153141   3.082   9.347   3.221 -0.2918 -0.6397  0.2703
  633HK4    C1653142   2.865   9.110   3.294  0.0940 -0.4370 -0.0572
  633HK4    C1553143   2.754   9.026   3.270 -0.2222 -0.0703  0.1212
  633HK4     H753144   2.654   9.068   3.288  0.1420  0.5781  0.6338
  633HK4    C2053145   2.769   8.901   3.211 -0.1949 -0.0415  0.0632
  633HK4     H953146   2.679   8.846   3.183 -0.1245  0.9290 -2.1595
  633HK4    C1953147   2.894   8.852   3.178 -0.0869  0.5202 -0.3508
  633HK4    C1853148   3.008   8.941   3.191  0.4155 -0.1741  0.0011
  633HK4    C1753149   2.990   9.057   3.265  0.2441  0.3288 -0.8244
  633HK4     H853150   3.081   9.104   3.303  1.3568 -1.8396 -0.7412
  633HK4     N153151   3.124   8.884   3.135  0.3152 -0.1472 -0.2312
  633HK4    C2153152   3.085   8.760   3.079 -0.3337  0.1432 -0.4280
  633HK4    C2253153   2.947   8.733   3.113 -0.3739  0.4096 -0.3797
  633HK4    C2653154   2.894   8.607   3.087  0.6720 -0.1862  0.3422
  633HK4    H1353155   2.800   8.567   3.126 -0.4668  2.6482  0.6772
  633HK4    C2553156   2.963   8.523   3.002  0.3315  0.3159 -0.4372
  633HK4    H1253157   2.923   8.424   2.981 -0.0678 -0.0337  1.8800
  633HK4    C2453158   3.092   8.556   2.961  0.4847 -0.0997 -0.2975
  633HK4    H1153159   3.131   8.512   2.868  0.0334 -1.7781  0.2927
  633HK4    C2353160   3.158   8.671   3.002 -0.0614  0.1914 -0.2278
  633HK4    H1053161   3.247   8.711   2.954  1.2180  0.2940  2.1666
  633HK4    C3953162   3.253   8.938   3.134  0.3918 -0.3230  0.0808
  633HK4    C4153163   3.365   8.854   3.122  0.5092 -0.0878 -0.4876
  633HK4    H2153164   3.353   8.748   3.153 -0.7848  1.0523  3.2310
  633HK4    C4253165   3.484   8.901   3.068  0.5736 -0.0503 -0.3125
  633HK4    H2253166   3.577   8.842   3.075  0.4748 -0.0291  1.4750
  633HK4    C4353167   3.501   9.035   3.037 -0.1996  0.0206 -0.4255
  633HK4    H2353168   3.597   9.066   2.995  0.7400 -2.3014 -0.0520
  633HK4    C4453169   3.394   9.122   3.053 -0.3598 -0.2383 -0.0974
  633HK4    H2453170   3.424   9.226   3.037  2.0904 -0.6742  1.4076
  633HK4    C4553171   3.273   9.074   3.101 -0.1792 -0.1444  0.4584
  633HK4    H2553172   3.184   9.139   3.097 -1.0466 -1.2800  1.1021
  634HK4    H2853173   9.370   4.277   4.877 -1.7748  0.0686 -1.4695
  634HK4    C4853174   9.380   4.192   4.810  0.5531 -0.6057 -0.3012
  634HK4    C4753175   9.479   4.204   4.713  0.2139  0.7871 -0.4816
  634HK4    H2753176   9.563   4.270   4.736 -0.3988  0.9930  1.2830
  634HK4    C4653177   9.468   4.145   4.587  0.0989  0.1446 -0.1738
  634HK4    H2653178   9.547   4.167   4.514  2.4329 -1.4261  1.8052
  634HK4    C4053179   9.353   4.068   4.561 -0.0740  0.2548  0.2350
  634HK4    C5053180   9.257   4.050   4.662 -0.2509 -0.2232 -0.0180
  634HK4    H3053181   9.171   3.982   4.647  0.4703 -1.1338 -0.0662
  634HK4    C4953182   9.272   4.108   4.787 -0.3195  0.5372 -0.3597
  634HK4    H2953183   9.188   4.095   4.857 -2.2354 -0.4894 -2.7531
  634HK4     N253184   9.320   4.029   4.430  0.2337  0.0227  0.2248
  634HK4    C3053185   9.352   4.106   4.316 -0.6525 -0.0413 -0.0667
  634HK4    C2953186   9.346   4.244   4.295 -0.7340 -0.0641 -0.1995
  634HK4    H1553187   9.303   4.296   4.381  0.4424  0.7438 -0.0893
  634HK4    C2853188   9.385   4.303   4.176  0.2788 -0.1740  0.0760
  634HK4    C2753189   9.425   4.212   4.076 -0.3556 -0.0408 -0.2980
  634HK4    H1453190   9.468   4.246   3.981 -0.9772  1.5348 -0.0425
  634HK4    C3253191   9.417   4.074   4.086  0.4251 -0.0776 -0.1818
  634HK4    H1653192   9.425   4.016   3.994  2.4991 -1.6597  0.9515
  634HK4    C3153193   9.378   4.016   4.206 -0.2316  0.2655 -0.2235
  634HK4    C3453194   9.330   3.885   4.249  0.1539  0.1365 -0.1819
  634HK4    C3353195   9.303   3.895   4.391 -0.4406  0.2601 -0.3020
  634HK4    C3553196   9.245   3.792   4.464 -0.5743  0.2890 -0.3680
  634HK4    H1753197   9.217   3.806   4.569 -0.8801  2.9389 -0.7745
  634HK4    C3653198   9.226   3.676   4.391 -0.6460  0.1811 -0.1791
  634HK4    H1853199   9.229   3.580   4.445  0.8321 -0.6427 -1.6567
  634HK4    C3753200   9.250   3.663   4.254  0.1885 -0.3205  0.0110
  634HK4    H1953201   9.220   3.572   4.202 -2.4719 -0.2975  1.4098
  634HK4    C3853202   9.301   3.769   4.180 -0.0662 -0.0494  0.2251
  634HK4    H2053203   9.331   3.748   4.077  1.0685  1.2199  0.2953
  634HK4    C1453204   9.341   4.440   4.143  0.0537 -0.2427  0.0872
  634HK4     C953205   9.304   4.495   4.019 -0.6351  0.1346  0.4588
  634HK4     C853206   9.312   4.634   4.003 -0.3123  0.0477 -0.1285
  634HK4    C1153207   9.346   4.723   4.104  0.4067  0.0659 -0.3834
  634HK4     H453208   9.358   4.832   4.098  5.5458 -0.2348  1.8743
  634HK4    C1253209   9.371   4.668   4.229 -0.5014 -0.2915 -0.3533
  634HK4     H553210   9.392   4.737   4.313 -0.2428  2.0697 -2.3143
  634HK4    C1353211   9.376   4.530   4.245  0.0976 -0.2248  0.0574
  634HK4     H653212   9.444   4.500   4.327 -2.1867  0.4809  2.2710
  634HK4     C753213   9.292   4.692   3.868  0.2355  0.0146 -0.2283
  634HK4     O253214   9.300   4.814   3.859  0.1454  0.0893  0.6389
  634HK4     C453215   9.254   4.608   3.752 -0.0923 -0.1157 -0.0281
  634HK4     C353216   9.244   4.666   3.626  0.4494 -0.1296 -0.0799
  634HK4     H353217   9.224   4.774   3.621  1.5331  0.0697 -0.2661
  634HK4     C253218   9.224   4.590   3.511 -0.3735 -0.2207  0.1169
  634HK4     H253219   9.229   4.640   3.414 -0.0009  0.7834  0.6444
  634HK4     C153220   9.222   4.452   3.529  0.6022 -0.2978 -0.3258
  634HK4     H153221   9.184   4.396   3.442 -2.1352  1.4279 -0.3054
  634HK4     C653222   9.245   4.390   3.653 -0.6763 -0.2764 -0.0781
  634HK4     C553223   9.254   4.468   3.769 -0.8706 -0.1338 -0.1587
  634HK4    C1053224   9.264   4.408   3.905 -0.5632  0.5429  0.1206
  634HK4     O153225   9.192   4.312   3.933  0.3180 -0.1880 -0.1063
  634HK4    C1653226   9.284   4.249   3.642 -0.0374 -0.1466  0.5163
  634HK4    C1553227   9.400   4.216   3.569 -0.6045 -0.2713 -0.3303
  634HK4     H753228   9.472   4.291   3.531 -0.6815  0.4798  0.9762
  634HK4    C2053229   9.448   4.086   3.557  0.0163 -0.1260  0.5074
  634HK4     H953230   9.554   4.066   3.548  0.2051  1.5331 -1.3416
  634HK4    C1953231   9.369   3.984   3.609 -0.6309 -0.1020 -0.4009
  634HK4    C1853232   9.237   4.014   3.660 -0.4516  0.2666 -0.1394
  634HK4    C1753233   9.197   4.146   3.677 -0.4102  0.1887  0.5613
  634HK4     H853234   9.095   4.169   3.708 -0.0732 -0.9673  2.6403
  634HK4     N153235   9.165   3.896   3.685 -0.0195 -0.0956 -0.6144
  634HK4    C2153236   9.249   3.791   3.642 -0.0373 -0.2275 -0.3248
  634HK4    C2253237   9.378   3.840   3.599 -0.2204 -0.0577 -0.6762
  634HK4    C2653238   9.472   3.759   3.536  0.2049 -0.2796  0.2395
  634HK4    H1353239   9.578   3.784   3.529  0.7874 -1.9512  2.4065
  634HK4    C2553240   9.438   3.627   3.508  0.0393 -0.1063 -0.3906
  634HK4    H1253241   9.518   3.565   3.468  0.8330  0.7882 -0.2098
  634HK4    C2453242   9.315   3.577   3.550 -0.5811  1.0238 -0.8602
  634HK4    H1153243   9.277   3.481   3.513 -1.8119  2.1055 -2.4648
  634HK4    C2353244   9.227   3.654   3.625 -0.7902 -0.1669  0.1388
  634HK4    H1053245   9.140   3.598   3.659  0.0433 -1.5353  0.0008
  634HK4    C3953246   9.026   3.882   3.693  0.0531 -0.2862  0.3365
  634HK4    C4153247   8.973   3.776   3.770  0.2192 -0.4622  0.2085
  634HK4    H2153248   9.040   3.732   3.845  1.5610  1.9333  0.4642
  634HK4    C4253249   8.841   3.737   3.747 -0.1637  0.7195  0.3638
  634HK4    H2253250   8.798   3.654   3.804  1.2270 -0.0528  0.3204
  634HK4    C4353251   8.768   3.802   3.648  0.1245  0.2454 -0.1627
  634HK4    H2353252   8.665   3.768   3.646  0.7107 -1.8261  2.0568
  634HK4    C4453253   8.812   3.909   3.572  0.4668  0.0891 -0.1859
  634HK4    H2453254   8.754   3.971   3.502 -0.7589 -1.0054 -0.1549
  634HK4    C4553255   8.943   3.948   3.600  0.1753  0.4175  0.7234
  634HK4    H2553256   8.977   4.042   3.555  0.0710 -0.0627 -0.3769
  635HK4    H2853257   2.256   4.598   9.651 -3.2842  1.4135 -3.1801
  635HK4    C4853258   2.176   4.614   9.724 -0.7155  0.3691 -0.0008
  635HK4    C4753259   2.154   4.742   9.773  0.1927  0.5091  0.0596
  635HK4    H2753260   2.242   4.806   9.792 -0.0904  1.3441 -1.3828
  635HK4    C4653261   2.051   4.756   9.866 -0.2595 -0.3130 -0.3140
  635HK4    H2653262   2.012   4.854   9.896 -1.2792 -1.0154  0.7183
  635HK4    C4053263   1.973   4.649   9.915  0.2938 -0.4012  0.3770
  635HK4    C5053264   1.999   4.524   9.855  0.4589 -0.3257  0.2932
  635HK4    H3053265   1.936   4.436   9.876  0.3262 -0.3269 -0.1174
  635HK4    C4953266   2.102   4.504   9.764  0.2157 -0.2649  0.0055
  635HK4    H2953267   2.128   4.403   9.729 -1.5793 -1.1155  1.0234
  635HK4     N253268   1.915   4.648  10.042  0.1125 -0.2092  0.3010
  635HK4    C3053269   1.941   4.734  10.151  0.1253  0.2221 -0.0445
  635HK4    C2953270   2.053   4.812  10.177 -0.0361  0.3730  0.2122
  635HK4    H1553271   2.132   4.827  10.103  2.7832  0.7576  3.1852
  635HK4    C2853272   2.065   4.893  10.289  0.0615 -0.2184  0.6340
  635HK4    C2753273   1.947   4.901  10.366 -0.2128  0.1544  0.1839
  635HK4    H1453274   1.945   5.000  10.414  0.1958  0.4384 -0.3809
  635HK4    C3253275   1.836   4.820  10.350  0.3550 -0.5696 -0.1287
  635HK4    H1653276   1.745   4.856  10.398  0.2342 -0.2353 -0.5980
  635HK4    C3153277   1.827   4.734  10.241 -0.2707  0.0035 -0.5426
  635HK4    C3453278   1.726   4.650  10.179 -0.8215  0.5466 -0.3835
  635HK4    C3353279   1.789   4.589  10.064  0.1116 -0.1432  0.4772
  635HK4    C3553280   1.719   4.493   9.991 -0.5493  0.7052 -0.0131
  635HK4    H1753281   1.746   4.468   9.889  3.1287 -0.1661  1.1087
  635HK4    C3653282   1.596   4.452  10.040 -0.2321 -0.6728 -0.3697
  635HK4    H1853283   1.546   4.367   9.990  0.1254 -0.7639 -0.5644
  635HK4    C3753284   1.534   4.499  10.156  0.2941 -0.1477 -0.3005
  635HK4    H1953285   1.444   4.459  10.201 -0.5577  0.9613 -1.0110
  635HK4    C3853286   1.603   4.601  10.221 -0.6282  0.3272 -0.0670
  635HK4    H2053287   1.550   4.651  10.301 -0.8557  1.1206 -0.7131
  635HK4    C1453288   2.200   4.926  10.335  0.2140 -0.1805  0.1592
  635HK4     C953289   2.225   4.940  10.472  0.0190  0.3681  0.1426
  635HK4     C853290   2.313   5.040  10.518  0.1005  0.3044  0.1246
  635HK4    C1153291   2.392   5.113  10.430  0.1063  0.1758  0.0222
  635HK4     H453292   2.453   5.199  10.463  0.6614  0.6830 -2.2423
  635HK4    C1253293   2.382   5.091  10.293  0.4737 -0.6049  0.1140
  635HK4     H553294   2.437   5.137  10.210 -0.6561  0.1561 -0.2236
  635HK4    C1353295   2.288   4.998  10.251  0.1231 -0.2173  0.0348
  635HK4     H653296   2.262   5.000  10.144 -1.7297 -2.2289  0.4087
  635HK4     C753297   2.324   5.063  10.664  0.7800 -0.6135  0.2251
  635HK4     O253298   2.385   5.162  10.705 -0.4121  0.1205  0.2555
  635HK4     C453299   2.249   4.973  10.754 -0.1152  0.0128  0.1082
  635HK4     C353300   2.243   5.016  10.886  0.3036 -0.3058  0.2330
  635HK4     H353301   2.276   5.117  10.916  0.3979  0.4263 -2.2191
  635HK4     C253302   2.174   4.942  10.982  0.4890 -0.5333  0.1863
  635HK4     H253303   2.150   4.983  11.081 -2.5147 -3.7013  0.8434
  635HK4     C153304   2.116   4.824  10.939 -0.0870 -0.1839  0.0043
  635HK4     H153305   2.068   4.757  11.012 -0.1057 -1.2790 -0.9892
  635HK4     C653306   2.131   4.772  10.809 -0.2266 -0.1439 -0.0301
  635HK4     C553307   2.190   4.852  10.711 -0.2797  0.0862  0.1273
  635HK4    C1053308   2.183   4.830  10.564  0.2396  0.2330  0.0797
  635HK4     O153309   2.186   4.716  10.518  0.0974 -0.0581  0.7928
  635HK4    C1653310   2.137   4.625  10.804  0.0965 -0.1412  0.2872
  635HK4    C1553311   2.195   4.561  10.915  0.1854 -0.9396 -0.2182
  635HK4     H753312   2.279   4.615  10.962 -0.4915  2.1144 -2.3662
  635HK4    C2053313   2.158   4.435  10.961 -0.6483 -0.4417  0.4909
  635HK4     H953314   2.208   4.397  11.050  0.0630 -1.5231 -0.3578
  635HK4    C1953315   2.063   4.360  10.893 -0.5020 -0.2911  0.1207
  635HK4    C1853316   2.008   4.421  10.774  0.4026 -0.2762 -0.2960
  635HK4    C1753317   2.036   4.553  10.742  0.2000 -0.1330  0.1117
  635HK4     H853318   1.996   4.586  10.646  0.7254 -0.1886 -0.1283
  635HK4     N153319   1.926   4.325  10.711  0.1754 -0.1287 -0.2259
  635HK4    C2153320   1.923   4.212  10.795 -0.3260  0.0940  0.0588
  635HK4    C2253321   2.016   4.223  10.905 -0.5408 -0.2644  0.2809
  635HK4    C2653322   2.069   4.112  10.970  0.1601 -0.0522  0.0765
  635HK4    H1353323   2.138   4.112  11.054 -0.7898 -0.6220  0.8702
  635HK4    C2553324   2.019   3.988  10.930  0.1186  0.1537 -0.5241
  635HK4    H1253325   2.076   3.898  10.952  2.9290  2.3660  1.9102
  635HK4    C2453326   1.918   3.975  10.836 -0.5576  0.0382  0.2126
  635HK4    H1153327   1.870   3.877  10.820 -1.4306  0.6085 -0.7086
  635HK4    C2353328   1.874   4.085  10.764 -0.1708  0.0511 -0.0065
  635HK4    H1053329   1.799   4.068  10.687  0.8042  0.2265 -1.0185
  635HK4    C3953330   1.893   4.329  10.575  0.5210  0.2170 -0.2993
  635HK4    C4153331   1.772   4.278  10.524  0.6780 -0.5106  0.0508
  635HK4    H2153332   1.676   4.296  10.575  1.0495 -0.6585  0.8153
  635HK4    C4253333   1.763   4.238  10.391  0.2581  0.1807 -0.1357
  635HK4    H2253334   1.691   4.163  10.357  0.0113  1.3829 -2.3573
  635HK4    C4353335   1.871   4.252  10.305 -0.0033  0.0476 -0.4862
  635HK4    H2353336   1.870   4.207  10.206 -2.5998 -2.0486  0.4405
  635HK4    C4453337   1.986   4.312  10.355  0.2730 -0.7254 -0.1844
  635HK4    H2453338   2.078   4.311  10.294 -0.5603  0.8290 -1.4919
  635HK4    C4553339   1.997   4.361  10.485  0.3842  0.0932 -0.5001
  635HK4    H2553340   2.075   4.432  10.515  2.0355 -2.1931  0.7879
  636HK4    H2853341   2.741   6.753  10.978  1.3600 -1.0882 -1.9866
  636HK4    C4853342   2.643   6.723  10.941  0.2079  0.3564 -0.1622
  636HK4    C4753343   2.583   6.608  10.991 -0.6329  0.6375 -0.5195
  636HK4    H2753344   2.631   6.545  11.067 -2.5255 -1.5288 -1.0825
  636HK4    C4653345   2.457   6.563  10.953 -0.6530 -0.1038  0.4197
  636HK4    H2653346   2.393   6.505  11.021 -1.5016 -0.8004 -0.9653
  636HK4    C4053347   2.393   6.629  10.846 -0.0579 -0.1654  0.0264
  636HK4    C5053348   2.464   6.730  10.778 -0.1194 -0.3575 -0.3223
  636HK4    H3053349   2.447   6.735  10.669 -1.9204 -0.1022 -0.0504
  636HK4    C4953350   2.580   6.783  10.833 -0.4369 -0.0069  0.0076
  636HK4    H2953351   2.627   6.874  10.791 -0.9521 -0.2400 -1.1078
  636HK4     N253352   2.284   6.571  10.780 -0.0370  0.2448 -0.3764
  636HK4    C3053353   2.246   6.435  10.783 -0.1460  0.2672 -0.7359
  636HK4    C2953354   2.320   6.319  10.798 -0.6467  0.1114  0.6307
  636HK4    H1553355   2.426   6.330  10.823 -0.1393  1.3535 -1.8832
  636HK4    C2853356   2.273   6.192  10.767 -0.1403 -0.0275  0.4138
  636HK4    C2753357   2.137   6.182  10.730  0.0921 -0.3679 -0.3568
  636HK4    H1453358   2.094   6.081  10.732  1.1330 -0.8146  2.2646
  636HK4    C3253359   2.061   6.295  10.703  0.1872 -0.2303 -0.0499
  636HK4    H1653360   1.962   6.293  10.657 -0.2768 -0.3989  0.9400
  636HK4    C3153361   2.113   6.422  10.726 -0.3526  0.0217 -0.1988
  636HK4    C3453362   2.070   6.556  10.691 -0.1276  0.2191  0.2696
  636HK4    C3353363   2.180   6.646  10.721  0.1801  0.2114 -0.8005
  636HK4    C3553364   2.168   6.782  10.699  0.5074  0.4974  0.7723
  636HK4    H1753365   2.258   6.845  10.692  1.6076 -1.1892 -0.5900
  636HK4    C3653366   2.054   6.829  10.636  0.4893 -0.7262 -0.1221
  636HK4    H1853367   2.046   6.936  10.611  1.1135 -1.1413 -2.0961
  636HK4    C3753368   1.950   6.745  10.599 -0.2340  0.0854  0.0413
  636HK4    H1953369   1.852   6.785  10.571  0.4893  2.5221  0.8375
  636HK4    C3853370   1.962   6.608  10.621 -0.1226  0.1195  0.1883
  636HK4    H2053371   1.881   6.541  10.595  1.0082 -1.8997  1.7585
  636HK4    C1453372   2.371   6.088  10.731 -0.4224 -0.0355 -0.3366
  636HK4     C953373   2.352   6.003  10.622 -0.4269 -0.2160 -0.1951
  636HK4     C853374   2.416   5.877  10.620 -0.0490 -0.0237 -0.2144
  636HK4    C1153375   2.505   5.848  10.722 -0.0502  0.0482 -0.1956
  636HK4     H453376   2.565   5.756  10.715 -1.5359 -0.9711 -0.0506
  636HK4    C1253377   2.527   5.931  10.831  0.1108  0.1513 -0.3062
  636HK4     H553378   2.609   5.909  10.901  0.2516 -0.2433 -0.5961
  636HK4    C1353379   2.460   6.053  10.835 -0.6846 -0.2852 -0.1984
  636HK4     H653380   2.472   6.109  10.928 -0.6815 -2.4958  1.1692
  636HK4     C753381   2.382   5.786  10.508 -0.2397  0.0350 -0.2068
  636HK4     O253382   2.413   5.667  10.517  0.4901  0.2636  0.3444
  636HK4     C453383   2.290   5.827  10.400  0.3006  0.5862 -0.4613
  636HK4     C353384   2.243   5.735  10.307 -0.7420 -0.2989  0.9277
  636HK4     H353385   2.313   5.662  10.262 -0.4060  0.7767 -0.3017
  636HK4     C253386   2.125   5.753  10.237 -0.1681 -0.4408 -0.0708
  636HK4     H253387   2.085   5.681  10.164  0.3832 -1.9549  1.0968
  636HK4     C153388   2.058   5.874  10.251 -0.6462 -0.8268  1.0182
  636HK4     H153389   1.968   5.893  10.191  0.6376 -0.2678 -0.7937
  636HK4     C653390   2.116   5.978  10.327 -0.6209 -0.6237  0.7236
  636HK4     C553391   2.234   5.957  10.399  0.5250  0.6837 -0.7303
  636HK4    C1053392   2.285   6.055  10.499  0.3839  0.3973 -0.3776
  636HK4     O153393   2.301   6.169  10.458 -0.0404  0.7793  0.5106
  636HK4    C1653394   2.022   6.084  10.366 -0.0222  0.2688 -0.2366
  636HK4    C1553395   1.892   6.072  10.420  0.3578  0.1141  0.6546
  636HK4     H753396   1.854   5.970  10.429  2.2757 -0.8060 -1.1484
  636HK4    C2053397   1.806   6.181  10.428  0.0979  0.0215 -0.7023
  636HK4     H953398   1.703   6.161  10.457  0.2489 -0.8055 -0.7394
  636HK4    C1953399   1.840   6.303  10.370 -0.2091 -0.0548 -1.0485
  636HK4    C1853400   1.971   6.315  10.307  0.4349 -0.0468  0.2688
  636HK4    C1753401   2.055   6.205  10.306  0.4499 -0.0233 -0.5697
  636HK4     H853402   2.145   6.214  10.245 -0.3295  2.2350 -1.4340
  636HK4     N153403   1.989   6.442  10.248 -0.2045  0.1075  0.3956
  636HK4    C2153404   1.862   6.503  10.264 -0.0443  0.5225  0.0879
  636HK4    C2253405   1.770   6.428  10.347 -0.1800  0.0728 -0.4664
  636HK4    C2653406   1.673   6.491  10.423  0.4178  0.2331  0.1622
  636HK4    H1353407   1.616   6.433  10.495 -0.4490  0.8691 -0.0045
  636HK4    C2553408   1.650   6.628  10.416 -0.2956  0.0864 -0.4675
  636HK4    H1253409   1.606   6.687  10.497  2.5011 -0.4125  1.5225
  636HK4    C2453410   1.721   6.697  10.318  0.5338  0.1160  0.1415
  636HK4    H1153411   1.685   6.798  10.295 -2.2113 -0.4987  1.4081
  636HK4    C2353412   1.827   6.636  10.252  0.7139  0.7102 -0.1109
  636HK4    H1053413   1.901   6.702  10.205  1.4669 -1.1234 -1.5648
  636HK4    C3953414   2.108   6.515  10.249 -0.3544  0.3487  0.3861
  636HK4    C4153415   2.125   6.628  10.166 -0.9378  0.4200  0.3501
  636HK4    H2153416   2.119   6.620  10.056 -2.9809  0.0841  0.4704
  636HK4    C4253417   2.202   6.736  10.207 -0.6286  0.0872  0.6551
  636HK4    H2253418   2.202   6.831  10.152  0.6372  0.1514  0.7555
  636HK4    C4353419   2.280   6.729  10.322  0.5664 -0.2525 -0.1769
  636HK4    H2353420   2.341   6.815  10.351 -0.1332  0.1755  0.0249
  636HK4    C4453421   2.267   6.616  10.401 -0.1809  0.3994  0.6334
  636HK4    H2453422   2.336   6.614  10.487  0.0622  0.7071  0.4469
  636HK4    C4553423   2.183   6.510  10.368  0.3557  0.1850 -0.0662
  636HK4    H2553424   2.198   6.410  10.411  0.3286  0.3794  0.4109
  637HK4    H2853425  10.996   4.533   8.779 -0.1225  0.6380 -0.0638
  637HK4    C4853426  11.085   4.484   8.816 -0.6348  0.1033  0.4743
  637HK4    C4753427  11.162   4.548   8.913  0.8008 -0.3298 -0.3519
  637HK4    H2753428  11.149   4.656   8.928  0.1659 -0.0531 -2.7302
  637HK4    C4653429   0.008   4.472   8.982 -0.0813 -0.2293  0.9897
  637HK4    H2653430   0.079   4.518   9.052  0.4150  0.8305 -0.1820
  637HK4    C4053431   0.036   4.337   8.951  0.2617  0.1068 -0.1863
  637HK4    C5053432  11.216   4.279   8.842  0.3249  0.6209 -0.5067
  637HK4    H3053433  11.236   4.174   8.816  1.0627  1.1490 -2.1287
  637HK4    C4953434  11.117   4.353   8.779 -0.2197  0.3349  0.0083
  637HK4    H2953435  11.061   4.303   8.699  2.1756 -1.4203 -0.6207
  637HK4     N253436   0.112   4.252   9.032 -0.3838 -0.1032  0.2022
  637HK4    C3053437   0.126   4.260   9.172  0.3479 -0.5813  0.1626
  637HK4    C2953438   0.056   4.340   9.261 -0.1289 -0.0018 -0.7351
  637HK4    H1553439  11.205   4.381   9.239 -0.2561 -0.6552 -1.4093
  637HK4    C2853440   0.099   4.359   9.391 -0.0980 -0.3934 -0.6890
  637HK4    C2753441   0.214   4.289   9.432  0.1562  0.2832 -0.2326
  637HK4    H1453442   0.233   4.272   9.539 -5.1515 -0.1617  0.7708
  637HK4    C3253443   0.290   4.207   9.349  0.7340  0.3642  0.2109
  637HK4    H1653444   0.374   4.146   9.383  1.6878  1.3352 -0.3806
  637HK4    C3153445   0.244   4.190   9.219  0.0174 -0.8469  0.6079
  637HK4    C3453446   0.290   4.122   9.100 -0.3165 -0.0511  0.0183
  637HK4    C3353447   0.209   4.160   8.986 -0.3772 -0.0289  0.0703
  637HK4    C3553448   0.242   4.111   8.860  0.6959  0.3361  0.1996
  637HK4    H1753449   0.194   4.160   8.775 -1.9916 -1.6526  0.4811
  637HK4    C3653450   0.343   4.018   8.839 -0.3355 -0.8362  0.3653
  637HK4    H1853451   0.375   3.986   8.739 -0.3277 -0.3736  0.2231
  637HK4    C3753452   0.412   3.975   8.952  0.4201  0.0406  0.2353
  637HK4    H1953453   0.462   3.878   8.946  2.7642  1.0928  1.6933
  637HK4    C3853454   0.392   4.030   9.078  0.6407  1.0282 -0.1457
  637HK4    H2053455   0.465   4.001   9.155 -2.7455 -0.4965  2.6517
  637HK4    C1453456   0.065   4.484   9.461  0.5451 -0.7331  0.2518
  637HK4     C953457   0.149   4.546   9.554  0.0144  0.1024  0.1794
  637HK4     C853458   0.091   4.608   9.667 -0.0883  0.1222  0.1181
  637HK4    C1153459  11.201   4.625   9.677 -0.0699  0.2453  0.1627
  637HK4     H453460  11.153   4.684   9.756  0.3348  1.7179 -0.6765
  637HK4    C1253461  11.114   4.578   9.579  0.4456  0.0271 -0.1912
  637HK4     H553462  11.011   4.617   9.576 -0.2342 -1.7843 -1.6648
  637HK4    C1353463  11.174   4.505   9.477  0.6238  0.1006 -0.1399
  637HK4     H653464  11.104   4.455   9.408  0.5182  0.9989 -0.6880
  637HK4     C753465   0.174   4.651   9.782 -0.0143 -0.8383  0.4282
  637HK4     O253466   0.117   4.725   9.862 -0.3543 -0.2272 -0.3681
  637HK4     C453467   0.316   4.614   9.793 -0.0819 -1.1575  0.2319
  637HK4     C353468   0.393   4.646   9.904  0.3586  0.2479 -0.4645
  637HK4     H353469   0.344   4.693   9.991  0.0351 -2.3615  0.8034
  637HK4     C253470   0.529   4.620   9.906  0.2343 -0.3687  0.1614
  637HK4     H253471   0.594   4.646   9.991  1.1898 -1.9344 -0.0796
  637HK4     C153472   0.584   4.542   9.805  0.1771 -0.1805 -0.0130
  637HK4     H153473   0.677   4.488   9.829  2.2322  2.9869 -0.5165
  637HK4     C653474   0.509   4.503   9.692  0.0935  0.0957 -0.0536
  637HK4     C553475   0.378   4.551   9.682 -0.0093 -0.2239 -0.2637
  637HK4    C1053476   0.298   4.545   9.557  0.0241  0.1510 -0.3014
  637HK4     O153477   0.354   4.580   9.453 -0.5770  0.5058 -0.5121
  637HK4    C1653478   0.545   4.375   9.628 -0.3577 -0.0492 -0.0221
  637HK4    C1553479   0.592   4.272   9.711  0.5475  0.0782 -0.3707
  637HK4     H753480   0.592   4.285   9.821  4.2459  1.3507 -0.4451
  637HK4    C2053481   0.669   4.168   9.659  0.3617 -0.4852  0.4624
  637HK4     H953482   0.713   4.095   9.727  1.4121  2.2886  2.9210
  637HK4    C1953483   0.694   4.160   9.523  0.1085  0.1844  0.3725
  637HK4    C1853484   0.643   4.262   9.434 -0.4685 -0.3719  0.0656
  637HK4    C1753485   0.575   4.368   9.493  1.0190  0.4821  0.2475
  637HK4     H853486   0.547   4.444   9.420  0.6115 -0.3438 -0.4666
  637HK4     N153487   0.663   4.241   9.296  0.5722 -0.0852  0.1705
  637HK4    C2153488   0.726   4.115   9.295 -1.0086 -0.8881  0.2569
  637HK4    C2253489   0.750   4.064   9.429 -0.5271 -0.2373  0.4212
  637HK4    C2653490   0.824   3.949   9.448  0.2823  0.2944  0.5173
  637HK4    H1353491   0.849   3.921   9.551 -0.8727  1.6115  1.1615
  637HK4    C2553492   0.872   3.882   9.336 -0.5886 -0.1481  0.4040
  637HK4    H1253493   0.942   3.799   9.346 -0.3823 -0.1544 -1.0499
  637HK4    C2453494   0.855   3.930   9.207 -0.1432 -0.6264  0.1669
  637HK4    H1153495   0.892   3.875   9.119  0.2566 -0.1329  0.0246
  637HK4    C2353496   0.785   4.049   9.188 -0.5134 -0.7972  0.4710
  637HK4    H1053497   0.768   4.086   9.087  0.1965 -0.3845  0.5029
  637HK4    C3953498   0.687   4.335   9.195 -0.2199  0.1271  0.1752
  637HK4    C4153499   0.685   4.301   9.058  0.5208 -0.9183  0.4176
  637HK4    H2153500   0.618   4.220   9.028  1.6394 -1.4858 -0.5976
  637HK4    C4253501   0.765   4.360   8.960 -0.3112  0.3542  0.4957
  637HK4    H2253502   0.781   4.314   8.862  0.6154  0.5141  0.5707
  637HK4    C4353503   0.840   4.471   8.999 -0.1594  0.5141 -0.2531
  637HK4    H2353504   0.908   4.513   8.925 -0.1796  1.5997  0.3345
  637HK4    C4453505   0.842   4.517   9.130  0.1678 -0.4523  0.0846
  637HK4    H2453506   0.902   4.606   9.155 -1.4738  0.4223  0.9248
  637HK4    C4553507   0.765   4.450   9.224  0.1759 -0.1688  0.2930
  637HK4    H2553508   0.772   4.484   9.328  0.9158 -0.4418  0.3363
  638HK4    H2853509   4.213   2.311   2.925 -1.3703 -0.3598  0.4358
  638HK4    C4853510   4.212   2.234   3.002  0.4629 -0.5649  0.2870
  638HK4    C4753511   4.209   2.099   2.969  0.1982 -0.3810 -0.4509
  638HK4    H2753512   4.182   2.070   2.866  0.7377  1.5864 -1.1606
  638HK4    C4653513   4.198   2.007   3.072  0.7232  0.1239  0.0581
  638HK4    H2653514   4.209   1.901   3.046 -0.9781  0.1723 -0.9207
  638HK4    C4053515   4.193   2.034   3.211 -0.2677  0.0021  0.0536
  638HK4    C5053516   4.203   2.173   3.233  0.3991 -0.0553  0.1412
  638HK4    H3053517   4.201   2.200   3.339 -1.2200  1.5454 -0.2704
  638HK4    C4953518   4.207   2.272   3.136 -0.2806 -0.0478  0.1170
  638HK4    H2953519   4.246   2.371   3.164  1.9625 -1.3871  1.9124
  638HK4     N253520   4.248   1.949   3.307  0.0096 -0.0980 -0.1890
  638HK4    C3053521   4.347   1.850   3.290  0.2000  0.1292 -0.3868
  638HK4    C2953522   4.440   1.828   3.189  0.2547  0.0866 -0.3283
  638HK4    H1553523   4.449   1.890   3.100  1.0794  4.0434  2.3518
  638HK4    C2853524   4.525   1.718   3.196  0.3528  0.1830  0.0087
  638HK4    C2753525   4.521   1.631   3.307  0.4786  0.7092  0.4312
  638HK4    H1453526   4.588   1.543   3.306  0.9121  1.0274 -1.3767
  638HK4    C3253527   4.432   1.655   3.410  0.1588  0.6629  0.1674
  638HK4    H1653528   4.428   1.586   3.494  0.0107 -1.8431 -1.8334
  638HK4    C3153529   4.340   1.759   3.403 -0.8130 -0.2431 -0.7464
  638HK4    C3453530   4.247   1.817   3.498 -0.2846 -0.2475 -0.2238
  638HK4    C3353531   4.180   1.926   3.429  0.0680  0.0282 -0.1321
  638HK4    C3553532   4.068   1.981   3.491  0.7267  0.4812  0.6699
  638HK4    H1753533   4.009   2.047   3.428 -1.2975 -0.5903  1.3987
  638HK4    C3653534   4.025   1.945   3.618  0.1863 -0.2388  0.2848
  638HK4    H1853535   3.941   1.997   3.665  0.3469  0.4359 -0.1754
  638HK4    C3753536   4.102   1.850   3.684  0.2800 -0.4858 -0.1753
  638HK4    H1953537   4.082   1.843   3.791 -1.0439  0.2771 -0.3673
  638HK4    C3853538   4.206   1.778   3.625  0.8303 -0.0161  0.2173
  638HK4    H2053539   4.236   1.680   3.661 -0.2872 -0.3657  0.2168
  638HK4    C1453540   4.585   1.673   3.070 -0.1945 -0.0161 -0.1816
  638HK4     C953541   4.595   1.539   3.030 -0.1023 -0.1197  0.1915
  638HK4     C853542   4.706   1.481   2.965 -0.1512  0.3411 -0.3147
  638HK4    C1153543   4.805   1.570   2.927 -0.3902  0.6603 -0.1840
  638HK4     H453544   4.900   1.543   2.879 -1.5708 -2.1296 -1.0592
  638HK4    C1253545   4.785   1.707   2.943 -0.2181  0.6889 -0.2175
  638HK4     H553546   4.856   1.777   2.897  1.3979 -1.4606 -1.0891
  638HK4    C1353547   4.680   1.762   3.015  0.4316  0.1627  1.1670
  638HK4     H653548   4.673   1.872   3.016  2.6432  0.3158  0.6717
  638HK4     C753549   4.724   1.335   2.949 -0.2805  0.3419 -0.4706
  638HK4     O253550   4.820   1.289   2.887 -0.0538  0.3318 -0.1188
  638HK4     C453551   4.620   1.247   3.007  0.2137  0.0602  0.0068
  638HK4     C353552   4.651   1.113   3.027  0.0111  0.0156  0.0251
  638HK4     H353553   4.729   1.062   2.969 -0.6255  0.3299 -1.1267
  638HK4     C253554   4.587   1.033   3.121  0.2009 -0.1827 -0.0155
  638HK4     H253555   4.641   0.940   3.148  1.2649  0.2475 -0.6313
  638HK4     C153556   4.480   1.086   3.191  0.5021  0.0561  0.2680
  638HK4     H153557   4.422   1.018   3.256 -1.3862  1.0421 -0.3327
  638HK4     C653558   4.442   1.220   3.174 -0.0750 -0.1802 -0.3315
  638HK4     C553559   4.509   1.298   3.078  0.1409 -0.0192 -0.0503
  638HK4    C1053560   4.487   1.445   3.070  0.1048  0.0488  1.1680
  638HK4     O153561   4.370   1.476   3.047  0.2017 -0.3723  0.0510
  638HK4    C1653562   4.377   1.268   3.296  0.2717 -0.2675 -0.1133
  638HK4    C1553563   4.419   1.230   3.425  0.5000  0.0610 -0.0889
  638HK4     H753564   4.514   1.175   3.431 -1.3777 -3.3047 -0.1507
  638HK4    C2053565   4.358   1.258   3.547 -0.1207  0.1048 -0.4082
  638HK4     H953566   4.387   1.209   3.640 -1.2132 -2.3521 -1.3294
  638HK4    C1953567   4.245   1.340   3.544 -0.3247 -0.1599 -0.0219
  638HK4    C1853568   4.200   1.383   3.413  0.5186  0.1624 -0.2074
  638HK4    C1753569   4.258   1.340   3.294  0.3805 -0.0882 -0.1834
  638HK4     H853570   4.213   1.373   3.200 -1.0740 -1.1770  0.1070
  638HK4     N153571   4.070   1.432   3.433  0.3610 -0.1866 -0.3662
  638HK4    C2153572   4.029   1.423   3.568  0.3064 -0.4613 -0.4009
  638HK4    C2253573   4.143   1.373   3.642  0.1268  0.1893  0.3335
  638HK4    C2653574   4.127   1.325   3.771  0.3086  0.0961  0.3219
  638HK4    H1353575   4.208   1.268   3.816  2.4665  1.7348 -1.3627
  638HK4    C2553576   4.004   1.332   3.835  0.1044  0.5109 -0.1131
  638HK4    H1253577   3.990   1.311   3.941 -0.0452 -0.3798 -0.3096
  638HK4    C2453578   3.892   1.382   3.769 -0.2547  0.1161  0.1943
  638HK4    H1153579   3.796   1.401   3.820 -0.8622  0.1949 -0.9557
  638HK4    C2353580   3.908   1.423   3.637  0.6201 -0.3803  0.1486
  638HK4    H1053581   3.826   1.471   3.584  2.5050  0.8602 -1.7410
  638HK4    C3953582   3.994   1.499   3.337  0.2149 -0.2254 -0.2785
  638HK4    C4153583   3.853   1.504   3.344  0.2616  0.3420  0.2782
  638HK4    H2153584   3.798   1.415   3.377  1.5281 -0.6850 -0.3668
  638HK4    C4253585   3.780   1.610   3.291 -0.5261 -0.3899 -0.0973
  638HK4    H2253586   3.670   1.614   3.294 -0.4699  1.1127  0.3461
  638HK4    C4353587   3.839   1.710   3.215 -0.0848  0.0821  0.8676
  638HK4    H2353588   3.784   1.801   3.189  0.0699  0.5099  1.9891
  638HK4    C4453589   3.978   1.707   3.206 -0.1633  0.0279 -0.4290
  638HK4    H2453590   4.036   1.780   3.149 -0.5169  0.8797  0.2867
  638HK4    C4553591   4.052   1.608   3.269 -0.2750  0.0173 -0.3119
  638HK4    H2553592   4.161   1.620   3.282 -0.5431  1.6088  0.5455
  639HK4    H2853593   4.864   3.644   3.779  0.9187  0.6268 -1.3512
  639HK4    C4853594   4.863   3.542   3.742  1.1914 -0.0492  0.4322
  639HK4    C4753595   4.871   3.521   3.604 -0.2337 -0.7294  0.4381
  639HK4    H2753596   4.928   3.598   3.550 -2.2426  0.1609 -0.4469
  639HK4    C4653597   4.846   3.395   3.553 -0.4762 -0.2695 -0.5835
  639HK4    H2653598   4.836   3.388   3.443 -0.3552  0.6198 -0.6538
  639HK4    C4053599   4.827   3.283   3.636 -0.2256 -0.1239 -0.3288
  639HK4    C5053600   4.824   3.309   3.775  0.1274 -0.2041 -0.3050
  639HK4    H3053601   4.808   3.223   3.842  0.5243 -0.8079 -0.9741
  639HK4    C4953602   4.842   3.436   3.829 -0.0596 -0.2577 -0.1155
  639HK4    H2953603   4.878   3.450   3.932 -0.4174  2.4064 -0.3262
  639HK4     N253604   4.835   3.150   3.592  0.0324 -0.1888 -0.0861
  639HK4    C3053605   4.903   3.110   3.476 -0.0089  0.0335 -0.1885
  639HK4    C2953606   4.978   3.183   3.385 -0.3321  0.3271 -0.2158
  639HK4    H1553607   5.022   3.275   3.423 -1.6010  0.3720  1.1920
  639HK4    C2853608   5.023   3.132   3.264 -0.1179 -0.1934  0.0817
  639HK4    C2753609   4.983   3.001   3.233  0.1845 -0.2069 -0.2665
  639HK4    H1453610   5.016   2.961   3.136 -0.4148  3.4729 -2.0560
  639HK4    C3253611   4.914   2.922   3.325  0.3331 -0.2657 -0.2069
  639HK4    H1653612   4.886   2.819   3.300  1.4021 -0.5461 -0.2930
  639HK4    C3153613   4.868   2.973   3.445 -0.2184  0.1826 -0.6084
  639HK4    C3453614   4.766   2.931   3.540 -0.2770 -0.1254 -0.8069
  639HK4    C3353615   4.749   3.044   3.628  0.2165 -0.4233 -0.3311
  639HK4    C3553616   4.676   3.025   3.745 -0.4637  0.4285 -0.6160
  639HK4    H1753617   4.660   3.113   3.807 -1.2384  0.9820 -1.5827
  639HK4    C3653618   4.616   2.903   3.775  0.5362  0.1166  0.1425
  639HK4    H1853619   4.539   2.901   3.853 -0.3369 -1.3925 -0.7349
  639HK4    C3753620   4.633   2.796   3.688  0.4815  0.0060  0.2692
  639HK4    H1953621   4.573   2.705   3.697 -0.3287  0.4231 -0.9580
  639HK4    C3853622   4.708   2.809   3.572 -0.1963  0.0041 -0.1715
  639HK4    H2053623   4.695   2.738   3.490 -1.2762  0.0437 -0.0392
  639HK4    C1453624   5.110   3.209   3.173 -0.2585 -0.1283  0.0004
  639HK4     C953625   5.117   3.189   3.034  0.0226  0.2266 -0.0373
  639HK4     C853626   5.242   3.205   2.973  0.1680  0.1490  0.2393
  639HK4    C1153627   5.356   3.248   3.041  0.3720  0.5019 -0.3163
  639HK4     H453628   5.459   3.254   3.003  1.0263  0.8579  1.4551
  639HK4    C1253629   5.343   3.286   3.174 -0.1016  0.0358 -0.2264
  639HK4     H553630   5.427   3.343   3.217 -0.4482  0.7776 -0.5254
  639HK4    C1353631   5.223   3.260   3.239 -0.1143 -0.0686 -0.2902
  639HK4     H653632   5.218   3.245   3.348 -1.0393 -0.0617 -0.3277
  639HK4     C753633   5.267   3.168   2.832  0.2676 -0.2364  0.3580
  639HK4     O253634   5.363   3.216   2.773  0.2464  0.1343  0.6267
  639HK4     C453635   5.155   3.107   2.756  0.2480 -0.1731  0.3351
  639HK4     C353636   5.173   3.073   2.623  0.1336 -0.0271  0.2814
  639HK4     H353637   5.264   3.093   2.565 -1.0505  1.7795 -0.9752
  639HK4     C253638   5.087   2.985   2.558 -0.0400  0.0279  0.4354
  639HK4     H253639   5.122   2.941   2.463 -1.1086  1.8771 -0.8452
  639HK4     C153640   4.970   2.947   2.623  0.0166 -0.5532  0.2017
  639HK4     H153641   4.904   2.881   2.564 -1.1552 -0.6195  1.5598
  639HK4     C653642   4.942   2.987   2.755 -0.0196 -0.3876  0.1452
  639HK4     C553643   5.035   3.069   2.820 -0.0278 -0.1358 -0.1603
  639HK4    C1053644   5.006   3.134   2.951  0.2097  0.2288 -0.2876
  639HK4     O153645   4.900   3.195   2.966  0.2022  0.1020  0.1985
  639HK4    C1653646   4.841   2.899   2.816 -0.1996 -0.2072  0.1004
  639HK4    C1553647   4.823   2.764   2.781 -0.3906 -0.1208 -0.1417
  639HK4     H753648   4.909   2.703   2.749  0.9423  1.1189  1.0001
  639HK4    C2053649   4.705   2.692   2.799 -0.2693 -0.3119 -0.0988
  639HK4     H953650   4.700   2.593   2.754 -0.3154 -0.6471  0.6387
  639HK4    C1953651   4.599   2.757   2.862  0.0763  0.2849 -0.1298
  639HK4    C1853652   4.618   2.892   2.911  0.0167  0.1661  0.2141
  639HK4    C1753653   4.731   2.963   2.872  0.1936  0.0767  0.5530
  639HK4     H853654   4.721   3.067   2.841 -1.8741  1.3544  5.0315
  639HK4     N153655   4.511   2.944   2.988 -0.0696 -0.3810  0.4692
  639HK4    C2153656   4.423   2.834   2.999 -0.3299 -0.2014  0.1879
  639HK4    C2253657   4.474   2.721   2.924  0.4430 -0.0219  0.4349
  639HK4    C2653658   4.403   2.602   2.910  0.0931  0.2384 -0.0078
  639HK4    H1353659   4.418   2.533   2.828  0.2602 -0.7579  0.8500
  639HK4    C2553660   4.283   2.592   2.980 -0.2320  0.3750 -0.5410
  639HK4    H1253661   4.225   2.501   2.964  1.6243 -1.2029  1.4305
  639HK4    C2453662   4.231   2.703   3.047 -0.0695 -0.2487  0.6210
  639HK4    H1153663   4.125   2.689   3.072  0.0272  0.5196  1.5011
  639HK4    C2353664   4.302   2.821   3.066 -0.6178  0.2229 -0.2403
  639HK4    H1053665   4.246   2.906   3.105 -1.7452 -0.8063  0.4305
  639HK4    C3953666   4.517   3.053   3.075  0.2022  0.1578 -0.2155
  639HK4    C4153667   4.402   3.133   3.093  0.0604 -0.0288 -0.2981
  639HK4    H2153668   4.315   3.119   3.027 -0.6962  1.2118  0.4277
  639HK4    C4253669   4.377   3.214   3.203  0.5996  0.1524 -0.3047
  639HK4    H2253670   4.286   3.274   3.222 -1.5007 -2.2418 -2.3566
  639HK4    C4353671   4.465   3.208   3.310 -0.1115 -0.3451  0.2595
  639HK4    H2353672   4.460   3.272   3.398  0.8425 -1.4830  1.1532
  639HK4    C4453673   4.576   3.125   3.298  0.1407 -0.0325  0.4644
  639HK4    H2453674   4.650   3.130   3.380  0.5390 -0.2872  0.1251
  639HK4    C4553675   4.607   3.052   3.184 -0.1346  0.4733  0.0656
  639HK4    H2553676   4.704   3.000   3.178 -0.0458  0.2898  2.4887
  640HK4    H2853677   4.938   4.228   1.659  0.6547 -0.0768  0.7077
  640HK4    C4853678   4.976   4.302   1.589 -0.3073 -0.0571  0.1937
  640HK4    C4753679   5.063   4.398   1.640  0.2265 -0.5377  0.2018
  640HK4    H2753680   5.074   4.399   1.750  0.9601 -1.3102  0.1360
  640HK4    C4653681   5.111   4.494   1.552 -0.5470  0.0413  0.4055
  640HK4    H2653682   5.183   4.570   1.585  0.5299 -0.7420 -0.1191
  640HK4    C4053683   5.068   4.508   1.419 -0.1857  0.3602  0.3215
  640HK4    C5053684   4.979   4.406   1.377  0.5607 -0.0921 -0.1794
  640HK4    H3053685   4.908   4.438   1.299 -0.3957 -0.8755  0.3596
  640HK4    C4953686   4.935   4.301   1.456  0.3055  0.1479 -0.0004
  640HK4    H2953687   4.891   4.211   1.410 -1.0741 -0.0488  1.6583
  640HK4     N253688   5.091   4.622   1.341 -0.6409  0.2643  0.0418
  640HK4    C3053689   5.126   4.747   1.395  0.2609  0.1316 -0.2183
  640HK4    C2953690   5.065   4.810   1.503  0.4943  0.1235 -0.0817
  640HK4    H1553691   4.998   4.752   1.566 -0.9576  1.5430 -0.2822
  640HK4    C2853692   5.079   4.948   1.518 -0.3760  0.1694  0.3665
  640HK4    C2753693   5.171   5.017   1.436  0.0038 -0.2933  0.3967
  640HK4    H1453694   5.195   5.123   1.455 -0.8095 -0.2788  1.4118
  640HK4    C3253695   5.228   4.958   1.324  0.2564  0.1038  0.3153
  640HK4    H1653696   5.281   5.017   1.249  0.5491 -1.2520 -0.5556
  640HK4    C3153697   5.197   4.826   1.297  0.2964  0.1884 -0.1455
  640HK4    C3453698   5.200   4.744   1.177 -0.2028  0.2347 -0.1868
  640HK4    C3353699   5.127   4.622   1.204  0.0923  0.1490  0.2280
  640HK4    C3553700   5.085   4.546   1.095 -0.5137  0.0580  0.5211
  640HK4    H1753701   5.011   4.467   1.108  1.7481 -1.9252  1.5634
  640HK4    C3653702   5.125   4.582   0.967 -0.4481  0.1012  0.5541
  640HK4    H1853703   5.075   4.539   0.879 -3.4922  0.3759  2.0971
  640HK4    C3753704   5.209   4.691   0.945 -0.1919 -0.2537 -0.2244
  640HK4    H1953705   5.241   4.716   0.844 -0.0430  1.4586  0.2330
  640HK4    C3853706   5.243   4.777   1.049  0.2878 -0.4651 -0.2044
  640HK4    H2053707   5.296   4.871   1.043 -1.8728  0.8433  0.5203
  640HK4    C1453708   4.985   5.018   1.607 -0.6651  0.1180  0.1018
  640HK4     C953709   4.962   5.156   1.599 -0.5796  0.1137 -0.2360
  640HK4     C853710   4.926   5.226   1.716  0.2387  0.2690 -0.0750
  640HK4    C1153711   4.911   5.168   1.841 -0.0868  0.2075 -0.1427
  640HK4     H453712   4.870   5.216   1.931 -1.2415 -2.8262  1.0351
  640HK4    C1253713   4.937   5.031   1.846 -0.5421  0.1163 -0.2025
  640HK4     H553714   4.933   4.977   1.941 -1.9296  0.4928 -0.0251
  640HK4    C1353715   4.978   4.959   1.735  0.7061  0.1789  0.2135
  640HK4     H653716   4.990   4.850   1.745 -2.4448  0.1311  4.8457
  640HK4     C753717   4.944   5.373   1.717 -0.2439  0.3330 -0.5724
  640HK4     O253718   4.891   5.438   1.807  0.4616  0.1070  0.0104
  640HK4     C453719   5.000   5.442   1.599  0.1511  0.6426 -0.2063
  640HK4     C353720   5.030   5.577   1.616 -0.6967  0.7819  0.1924
  640HK4     H353721   5.027   5.635   1.710  1.1814  2.1889 -0.5820
  640HK4     C253722   5.086   5.642   1.507 -0.4295  0.4647  0.1387
  640HK4     H253723   5.086   5.752   1.504  0.3652  0.4419 -1.3231
  640HK4     C153724   5.114   5.570   1.392  0.4631  0.4356  0.3691
  640HK4     H153725   5.160   5.621   1.306 -3.2243  1.8231 -0.8884
  640HK4     C653726   5.079   5.434   1.372  0.5380  0.4255  0.3118
  640HK4     C553727   5.014   5.371   1.478  0.0483  0.3397 -0.0385
  640HK4    C1053728   4.971   5.228   1.469  0.1116  0.3222 -0.0724
  640HK4     O153729   4.898   5.192   1.377 -0.0243  0.5618 -0.0592
  640HK4    C1653730   5.170   5.362   1.282  0.0083  0.7464 -0.4880
  640HK4    C1553731   5.308   5.391   1.287  0.1092  0.0990  0.5302
  640HK4     H753732   5.352   5.449   1.370 -0.8326  1.6309 -0.0225
  640HK4    C2053733   5.392   5.363   1.180 -0.2667  0.1444  0.2258
  640HK4     H953734   5.496   5.392   1.189 -0.2185  0.4054 -1.1007
  640HK4    C1953735   5.345   5.292   1.070 -0.0384  0.2866  0.0395
  640HK4    C1853736   5.205   5.258   1.067  0.1031 -0.3197  0.2221
  640HK4    C1753737   5.119   5.300   1.168 -0.1110  0.4821 -0.2908
  640HK4     H853738   5.011   5.294   1.156 -0.2184 -0.8223  1.2148
  640HK4     N153739   5.183   5.163   0.965 -0.1660  0.0048 -0.0210
  640HK4    C2153740   5.309   5.135   0.907 -0.2790  0.6868 -0.6066
  640HK4    C2253741   5.414   5.211   0.971 -0.2040 -0.1505  0.2800
  640HK4    C2653742   5.543   5.164   0.949 -0.2758 -0.4949  0.5843
  640HK4    H1353743   5.626   5.232   0.967 -1.0054  0.6634 -0.3469
  640HK4    C2553744   5.573   5.053   0.871 -0.2556  0.2505 -0.4697
  640HK4    H1253745   5.677   5.027   0.852 -0.2446  1.5216 -2.3354
  640HK4    C2453746   5.469   4.980   0.814 -0.3199  0.1070 -0.1661
  640HK4    H1153747   5.488   4.881   0.770 -0.9827  1.1305 -2.8420
  640HK4    C2353748   5.339   5.025   0.828 -0.2943  0.0447  0.2758
  640HK4    H1053749   5.264   4.970   0.770  2.1027 -2.3352 -0.6449
  640HK4    C3953750   5.066   5.088   0.950 -0.0125 -0.2122 -0.1421
  640HK4    C4153751   5.033   5.037   0.823 -0.0096  0.0558 -0.2516
  640HK4    H2153752   5.079   5.083   0.735 -2.4946 -0.2245 -1.7334
  640HK4    C4253753   4.940   4.935   0.802  0.0000  0.0089 -0.0675
  640HK4    H2253754   4.909   4.897   0.704  0.0345 -0.7891  0.2295
  640HK4    C4353755   4.879   4.880   0.914 -0.3072  0.1571 -0.1627
  640HK4    H2353756   4.818   4.790   0.900 -0.4160  0.1193  0.5554
  640HK4    C4453757   4.914   4.923   1.041 -0.3365  0.3695 -0.2274
  640HK4    H2453758   4.861   4.879   1.127 -0.0788 -0.1522 -0.3373
  640HK4    C4553759   5.006   5.025   1.061  0.4799 -0.4118  0.0083
  640HK4    H2553760   5.034   5.059   1.162 -1.1801  1.2852 -0.0989
  641HK4    H2853761   9.320   8.067   6.278  0.3710  0.2524 -0.0972
  641HK4    C4853762   9.299   8.173   6.262 -0.0867  0.1792  0.0106
  641HK4    C4753763   9.339   8.274   6.349 -0.3626  0.1159  0.2167
  641HK4    H2753764   9.394   8.267   6.444  0.7742 -2.7529 -0.5811
  641HK4    C4653765   9.312   8.406   6.316  0.0372  0.1629  0.0754
  641HK4    H2653766   9.359   8.482   6.381  2.4447 -0.0816 -1.3212
  641HK4    C4053767   9.246   8.444   6.198 -0.1684 -0.2508  0.0552
  641HK4    C5053768   9.203   8.340   6.113 -0.2773  0.0412 -0.2462
  641HK4    H3053769   9.155   8.359   6.016  1.6601 -0.6571 -1.3535
  641HK4    C4953770   9.228   8.208   6.148 -0.2487  0.1359  0.0978
  641HK4    H2953771   9.179   8.137   6.080  1.0855  0.9009 -1.6799
  641HK4     N253772   9.192   8.571   6.168 -0.0952 -0.2723 -0.1712
  641HK4    C3053773   9.149   8.666   6.262  0.3008 -0.1315 -0.1305
  641HK4    C2953774   9.101   8.639   6.390  0.3816  0.3462  0.0044
  641HK4    H1553775   9.099   8.532   6.410  0.8460  0.2599 -0.3926
  641HK4    C2853776   9.035   8.732   6.469  0.1653  0.1824  0.0166
  641HK4    C2753777   9.006   8.857   6.409 -0.1417 -0.1783 -0.5966
  641HK4    H1453778   8.933   8.923   6.456  2.0052  1.1553  0.9584
  641HK4    C3253779   9.049   8.883   6.280 -0.0532 -0.5408 -0.6445
  641HK4    H1653780   9.017   8.975   6.230  1.4297 -0.8704 -2.2546
  641HK4    C3153781   9.126   8.797   6.203  0.9655 -0.0410 -0.1916
  641HK4    C3453782   9.163   8.780   6.064 -0.0457  0.3171 -0.5105
  641HK4    C3353783   9.196   8.640   6.046 -1.0815  0.0130 -0.0415
  641HK4    C3553784   9.222   8.591   5.918  0.0449  0.5834 -0.0356
  641HK4    H1753785   9.270   8.494   5.908  0.3748  0.5234  1.9430
  641HK4    C3653786   9.209   8.677   5.809  0.7713 -0.0567 -0.6326
  641HK4    H1853787   9.236   8.647   5.707  1.4048  1.9950 -1.0759
  641HK4    C3753788   9.178   8.811   5.827  0.3034 -0.2396 -0.0383
  641HK4    H1953789   9.142   8.868   5.742  1.1108 -1.5767 -1.2815
  641HK4    C3853790   9.165   8.866   5.955 -0.7265  0.4355 -0.4281
  641HK4    H2053791   9.194   8.970   5.967  1.7024 -0.4561  1.9296
  641HK4    C1453792   9.017   8.706   6.612 -0.0789  0.1094 -0.0282
  641HK4     C953793   8.936   8.786   6.693 -0.0770 -0.2387  0.3232
  641HK4     C853794   8.967   8.814   6.828  0.0055  0.0287  0.2475
  641HK4    C1153795   9.072   8.746   6.889  0.1815  0.1663  0.1031
  641HK4     H453796   9.093   8.747   6.997  2.7655 -2.4756 -0.3283
  641HK4    C1253797   9.154   8.661   6.817 -0.1452  0.0158 -0.0978
  641HK4     H553798   9.250   8.628   6.860 -1.2203 -1.6131  1.1588
  641HK4    C1353799   9.125   8.648   6.682  0.2839  0.5277 -0.2427
  641HK4     H653800   9.172   8.568   6.623 -1.4064  1.2017 -2.5686
  641HK4     C753801   8.888   8.913   6.904  0.1590  0.2587  0.1089
  641HK4     O253802   8.908   8.935   7.024  0.7772  0.4923 -0.0336
  641HK4     C453803   8.768   8.974   6.841  0.1628 -0.0267 -0.1760
  641HK4     C353804   8.703   9.076   6.909  0.4861  0.3046 -0.3662
  641HK4     H353805   8.725   9.097   7.014  2.0294  1.1245 -0.8244
  641HK4     C253806   8.590   9.137   6.856  0.1670  0.1062  0.0806
  641HK4     H253807   8.548   9.230   6.897 -3.3379 -1.7155  0.7880
  641HK4     C153808   8.546   9.091   6.732  0.0671 -0.0878  0.1893
  641HK4     H153809   8.448   9.132   6.705  1.4729  3.0450 -0.4159
  641HK4     C653810   8.606   8.987   6.658  0.1537  0.2050 -0.1487
  641HK4     C553811   8.718   8.928   6.718 -0.0615 -0.1065 -0.0537
  641HK4    C1053812   8.798   8.823   6.649  0.0761 -0.0504  0.0130
  641HK4     O153813   8.733   8.728   6.605  0.3820 -0.1861 -0.1455
  641HK4    C1653814   8.543   8.934   6.536  0.2724 -0.0242 -0.1096
  641HK4    C1553815   8.404   8.912   6.538  0.0297  1.4004 -0.3526
  641HK4     H753816   8.362   8.885   6.636  0.3371  1.4821 -0.1973
  641HK4    C2053817   8.331   8.892   6.421  0.1529 -0.7815 -0.0749
  641HK4     H953818   8.223   8.880   6.416 -0.0451  0.6788  0.5522
  641HK4    C1953819   8.396   8.902   6.299  0.2942 -0.2273  0.0467
  641HK4    C1853820   8.539   8.929   6.294  0.1372  0.6309  0.1381
  641HK4    C1753821   8.608   8.946   6.413  0.6004 -0.4345  0.0234
  641HK4     H853822   8.716   8.942   6.402  0.6445 -0.8153  0.5423
  641HK4     N153823   8.595   8.916   6.166 -0.2526  0.0939  0.0192
  641HK4    C2153824   8.484   8.876   6.089 -0.2732  0.1138  0.0377
  641HK4    C2253825   8.363   8.857   6.165 -0.2299  0.0417  0.0873
  641HK4    C2653826   8.247   8.809   6.104 -0.2491 -0.2759  0.3632
  641HK4    H1353827   8.159   8.789   6.165  0.1989  1.0732  1.4682
  641HK4    C2553828   8.249   8.796   5.966  0.2988  0.1041  0.3316
  641HK4    H1253829   8.152   8.780   5.919  0.4115  1.8948 -0.5557
  641HK4    C2453830   8.364   8.817   5.891  0.0251  0.0941 -0.0926
  641HK4    H1153831   8.352   8.783   5.787 -1.4673 -0.8787  0.3840
  641HK4    C2353832   8.484   8.853   5.952  0.1100 -0.5774  0.1490
  641HK4    H1053833   8.554   8.900   5.882  0.1337 -1.1992 -0.2494
  641HK4    C3953834   8.700   8.994   6.115  0.0382  0.2288  0.8135
  641HK4    C4153835   8.783   8.953   6.009 -0.3998  0.0968  0.5234
  641HK4    H2153836   8.765   8.851   5.971 -3.1375  1.2625 -1.4751
  641HK4    C4253837   8.869   9.042   5.946 -0.1855 -0.2971  0.2592
  641HK4    H2253838   8.935   9.014   5.863 -0.6613 -0.6029 -0.0227
  641HK4    C4353839   8.877   9.174   5.986  0.0603 -0.2708  0.1322
  641HK4    H2353840   8.931   9.252   5.932 -1.5031 -0.8069 -2.2388
  641HK4    C4453841   8.798   9.225   6.089  0.5451  0.5426  0.1053
  641HK4    H2453842   8.809   9.329   6.122 -1.3185  0.4131  1.2179
  641HK4    C4553843   8.713   9.131   6.146  0.6088  0.3782 -0.0579
  641HK4    H2553844   8.640   9.169   6.219  0.5164  2.4502 -1.1939
  642HK4    H2853845   0.096   8.234   4.656  0.2168  0.9733 -2.4935
  642HK4    C4853846   0.084   8.335   4.695  0.1663 -0.1382  0.4908
  642HK4    C4753847  11.207   8.390   4.725  0.0068 -0.0992 -0.2197
  642HK4    H2753848  11.120   8.323   4.729 -0.6387  0.8079  3.9918
  642HK4    C4653849  11.199   8.524   4.759  0.0867 -0.0446 -0.4205
  642HK4    H2653850  11.095   8.560   4.772 -0.2755 -0.9125 -0.8993
  642HK4    C4053851   0.060   8.610   4.780 -0.0878  0.0390  0.1509
  642HK4    C5053852   0.182   8.550   4.742 -0.2748 -0.3093  0.1053
  642HK4    H3053853   0.274   8.608   4.732 -1.2229  1.5660  1.8986
  642HK4    C4953854   0.196   8.417   4.703  0.2649 -0.2266  0.0243
  642HK4    H2953855   0.297   8.384   4.675  0.4218  1.3721 -1.3621
  642HK4     N253856   0.041   8.748   4.796 -0.2086  0.0251  0.1125
  642HK4    C3053857  11.177   8.824   4.756 -0.0657  0.1613 -0.0320
  642HK4    C2953858  11.080   8.805   4.658  0.3897 -0.1748 -0.4159
  642HK4    H1553859  11.100   8.727   4.584  0.6589  0.2397 -0.7850
  642HK4    C2853860  10.992   8.906   4.625  0.6163  0.1597 -0.0071
  642HK4    C2753861  10.999   9.029   4.695  0.3060  0.0723  0.1816
  642HK4    H1453862  10.930   9.110   4.669 -0.2538 -0.1820  0.8631
  642HK4    C3253863  11.092   9.045   4.797 -0.1313  0.4502  0.5181
  642HK4    H1653864  11.086   9.138   4.853  4.5224  2.6856 -2.4168
  642HK4    C3153865  11.187   8.949   4.829 -0.2083  0.1789 -0.0426
  642HK4    C3453866   0.063   8.955   4.903 -0.0039  0.2030 -0.3883
  642HK4    C3353867   0.127   8.828   4.875  0.0095  0.1857 -0.2891
  642HK4    C3553868   0.237   8.798   4.954 -0.2935  0.1327  0.1132
  642HK4    H1753869   0.292   8.705   4.943 -2.0819 -0.7421 -1.5237
  642HK4    C3653870   0.284   8.889   5.049  0.5426 -0.0183 -0.1486
  642HK4    H1853871   0.371   8.850   5.103  0.7157 -0.3638 -0.6776
  642HK4    C3753872   0.218   9.008   5.079  0.3844 -0.0830 -0.2367
  642HK4    H1953873   0.258   9.078   5.152  0.2097 -0.5995  0.3604
  642HK4    C3853874   0.103   9.039   5.007  0.0165 -0.4895  0.1708
  642HK4    H2053875   0.049   9.132   5.026 -1.2399 -1.2902  0.5938
  642HK4    C1453876  10.926   8.904   4.493  0.5026 -0.1267  0.0552
  642HK4     C953877  10.891   9.019   4.421 -0.3096 -0.1428  0.4151
  642HK4     C853878  10.767   9.022   4.355 -0.4125  0.1576  0.6253
  642HK4    C1153879  10.698   8.902   4.342  0.0154 -0.0034 -0.1898
  642HK4     H453880  10.596   8.902   4.303  0.3683  1.7705 -1.1416
  642HK4    C1253881  10.752   8.780   4.384  0.0321 -0.0254 -0.2818
  642HK4     H553882  10.692   8.688   4.374  2.2265 -1.3999 -1.1127
  642HK4    C1353883  10.870   8.780   4.458 -0.2803  0.1827  0.2166
  642HK4     H653884  10.917   8.687   4.492  2.3046  1.2361 -0.3991
  642HK4     C753885  10.696   9.145   4.314  0.6902  0.4004 -0.5858
  642HK4     O253886  10.608   9.150   4.229  0.3103 -0.4939 -0.2579
  642HK4     C453887  10.752   9.270   4.371 -0.2217  0.1602  0.8794
  642HK4     C353888  10.679   9.388   4.362 -0.2736  0.0873  0.2800
  642HK4     H353889  10.569   9.386   4.359 -0.2958  0.7347  0.4953
  642HK4     C253890  10.738   9.509   4.398 -0.6838  0.3063  0.2246
  642HK4     H253891  10.696   9.602   4.358 -1.4677 -0.3509 -0.4739
  642HK4     C153892  10.868   9.512   4.449 -0.3257 -0.6355 -0.6308
  642HK4     H153893  10.927   9.604   4.449  1.5902 -1.8113  0.9084
  642HK4     C653894  10.942   9.394   4.470  0.3504 -0.1137 -0.0633
  642HK4     C553895  10.883   9.276   4.423 -0.2382 -0.2403  0.9738
  642HK4    C1053896  10.962   9.150   4.426 -0.1482 -0.2165  0.0389
  642HK4     O153897  11.075   9.158   4.379 -0.2358  0.4597 -0.0655
  642HK4    C1653898  11.007   9.401   4.601  0.5441 -0.1115 -0.1605
  642HK4    C1553899  10.952   9.466   4.714 -0.0230  0.1413 -0.5842
  642HK4     H753900  10.853   9.513   4.707 -0.3411 -0.1691  1.5600
  642HK4    C2053901  11.015   9.481   4.836 -0.2319  0.3669 -0.5053
  642HK4     H953902  10.960   9.527   4.918 -0.2363  0.0900 -0.3559
  642HK4    C1953903  11.146   9.435   4.841 -0.3710 -0.0085 -0.2135
  642HK4    C1853904  11.212   9.381   4.724  0.3779  0.6217 -0.0899
  642HK4    C1753905  11.142   9.368   4.605  0.6040  0.1401 -0.1739
  642HK4     H853906  11.199   9.364   4.512 -0.2898  0.2322 -0.7295
  642HK4     N153907   0.100   9.354   4.752  0.1264  0.1999  0.7308
  642HK4    C2153908   0.119   9.377   4.890 -0.1108  0.3286  0.7412
  642HK4    C2253909  11.244   9.429   4.948 -0.5800  0.0798 -0.0164
  642HK4    C2653910  11.235   9.468   5.081 -0.5139 -0.2992  0.0992
  642HK4    H1353911  11.161   9.537   5.122  0.6336  0.9761  0.0667
  642HK4    C2553912   0.102   9.452   5.157 -0.2862 -0.0919 -0.2012
  642HK4    H1253913   0.097   9.511   5.249 -0.5305 -0.5139  0.0560
  642HK4    C2453914   0.222   9.401   5.109  0.0044 -0.1298  0.5616
  642HK4    H1153915   0.309   9.393   5.176 -0.3015  1.8830  1.2387
  642HK4    C2353916   0.226   9.361   4.976  0.1440  0.3288  0.4259
  642HK4    H1053917   0.324   9.335   4.935 -1.1871 -0.8312 -2.0990
  642HK4    C3953918   0.180   9.275   4.670 -0.1445  0.2419  0.4243
  642HK4    C4153919   0.321   9.286   4.673 -0.1285  0.4315 -0.7821
  642HK4    H2153920   0.378   9.370   4.716  0.3335 -1.1523  1.7765
  642HK4    C4253921   0.399   9.181   4.626  0.0011 -0.1854  0.7861
  642HK4    H2253922   0.509   9.180   4.627 -0.0011 -0.2352  0.9048
  642HK4    C4353923   0.339   9.064   4.582 -0.5767  0.3034  0.2702
  642HK4    H2353924   0.399   8.997   4.521  2.3506  0.6012  2.7160
  642HK4    C4453925   0.201   9.048   4.584 -0.4805 -0.6332 -0.5867
  642HK4    H2453926   0.165   8.965   4.520 -2.1417 -0.3595 -0.0227
  642HK4    C4553927   0.122   9.156   4.621  0.6892  0.2010 -0.5073
  642HK4    H2553928   0.014   9.148   4.601  0.4006  2.4894  0.0464
  643HK4    H2853929   6.921   2.456   5.049 -0.2159 -0.1455  0.2261
  643HK4    C4853930   6.819   2.491   5.065 -0.1827  0.1361 -0.1877
  643HK4    C4753931   6.727   2.464   4.965 -0.0730 -0.1785 -0.2052
  643HK4    H2753932   6.764   2.386   4.897  0.0863 -2.7301  2.6948
  643HK4    C4653933   6.601   2.524   4.962 -0.2220 -0.4995 -0.4284
  643HK4    H2653934   6.532   2.504   4.879  0.5762  1.2249 -1.5395
  643HK4    C4053935   6.566   2.616   5.062 -0.2455 -0.6219 -0.3228
  643HK4    C5053936   6.663   2.642   5.162 -0.4455 -0.3529 -0.1981
  643HK4    H3053937   6.648   2.724   5.234 -2.2143 -1.1659  0.3815
  643HK4    C4953938   6.788   2.582   5.165 -0.0828  0.3759 -0.3727
  643HK4    H2953939   6.841   2.580   5.261  0.9732 -1.3008 -0.9701
  643HK4     N253940   6.429   2.627   5.091 -0.0296 -0.5404  0.6992
  643HK4    C3053941   6.374   2.744   5.148 -0.0678 -0.2360  0.0497
  643HK4    C2953942   6.412   2.877   5.147  0.3434 -0.3504  0.1388
  643HK4    H1553943   6.501   2.900   5.089  0.3004  0.7635  0.5017
  643HK4    C2853944   6.337   2.984   5.196  0.0194 -0.1928 -0.6910
  643HK4    C2753945   6.213   2.956   5.257  0.4774 -0.2378  0.2292
  643HK4    H1453946   6.143   3.033   5.294  0.7703  0.4840 -0.7104
  643HK4    C3253947   6.166   2.825   5.260 -0.4155  0.0776  0.0126
  643HK4    H1653948   6.074   2.798   5.312  1.1341  0.0910  2.8104
  643HK4    C3153949   6.246   2.722   5.213  0.1027  0.2353  0.5466
  643HK4    C3453950   6.227   2.579   5.196 -0.2792  0.3615 -0.1168
  643HK4    C3353951   6.339   2.524   5.121 -0.3063 -0.3892  0.3921
  643HK4    C3553952   6.340   2.385   5.113  0.0179 -0.3937  0.5208
  643HK4    H1753953   6.428   2.335   5.073 -1.6645 -1.1638 -2.3644
  643HK4    C3653954   6.243   2.304   5.170  0.2836 -0.7617  0.4565
  643HK4    H1853955   6.241   2.194   5.165 -0.7445 -0.7930  1.2989
  643HK4    C3753956   6.136   2.357   5.241  0.5768  0.0663  0.2864
  643HK4    H1953957   6.055   2.294   5.279  0.9428 -0.6277 -0.0943
  643HK4    C3853958   6.130   2.496   5.251  0.2122  0.0525  0.2884
  643HK4    H2053959   6.029   2.533   5.264 -0.9147 -3.8248  3.1487
  643HK4    C1453960   6.413   3.107   5.225 -0.3480 -0.0136 -0.4853
  643HK4     C953961   6.398   3.186   5.339  0.5274  0.0530 -0.4156
  643HK4     C853962   6.408   3.326   5.338  0.0678  0.0929  0.0660
  643HK4    C1153963   6.444   3.388   5.218 -0.3181  0.1504 -0.0190
  643HK4     H453964   6.485   3.490   5.220  1.9497 -0.7344 -0.3919
  643HK4    C1253965   6.466   3.312   5.104 -0.1166 -0.3873  0.3744
  643HK4     H553966   6.477   3.360   5.006  2.6348  0.0274  0.8642
  643HK4    C1353967   6.455   3.173   5.108  0.1239 -0.4346 -0.5549
  643HK4     H653968   6.490   3.111   5.024  0.4577 -2.0087  0.7267
  643HK4     C753969   6.371   3.415   5.450  1.2290  0.1858  0.3887
  643HK4     O253970   6.344   3.534   5.431 -1.0214 -0.3812 -0.1426
  643HK4     C453971   6.339   3.355   5.582 -0.6226 -0.1780 -0.2094
  643HK4     C353972   6.326   3.432   5.697  0.2464 -0.2809 -0.0392
  643HK4     H353973   6.374   3.531   5.701 -0.0129 -0.0108 -2.4563
  643HK4     C253974   6.277   3.377   5.814  0.3361 -0.4848 -0.0976
  643HK4     H253975   6.253   3.443   5.899 -0.2702  0.5554 -1.0643
  643HK4     C153976   6.240   3.243   5.809 -0.8808 -0.1744  0.5492
  643HK4     H153977   6.195   3.210   5.904 -0.1377 -2.7506  0.0382
  643HK4     C653978   6.247   3.159   5.697 -0.3131  0.5065  0.0712
  643HK4     C553979   6.306   3.218   5.585  0.1251 -0.3558 -0.1620
  643HK4    C1053980   6.359   3.134   5.473 -0.2127  0.0469 -0.6299
  643HK4     O153981   6.425   3.038   5.513 -0.4851  0.1421  0.0566
  643HK4    C1653982   6.146   3.053   5.682  0.0085  0.1691  0.2870
  643HK4    C1553983   6.034   3.045   5.767  0.4414 -0.2150  0.8306
  643HK4     H753984   5.958   3.116   5.732 -0.0583 -1.9067 -1.6881
  643HK4    C2053985   5.975   2.932   5.823 -0.2283 -0.3289 -0.0985
  643HK4     H953986   5.878   2.943   5.871 -2.0301 -0.2945 -3.5561
  643HK4    C1953987   6.020   2.806   5.784 -0.3426 -0.3561 -0.1378
  643HK4    C1853988   6.131   2.809   5.691  0.2021  0.3237  0.5199
  643HK4    C1753989   6.187   2.926   5.642  0.3463  0.2250  0.4504
  643HK4     H853990   6.243   2.912   5.549 -0.3533  0.2120  0.0279
  643HK4     N153991   6.169   2.676   5.661 -0.5271  0.2884 -0.2938
  643HK4    C2153992   6.091   2.588   5.738  0.2877 -0.1419  0.0487
  643HK4    C2253993   5.994   2.666   5.812  0.1010 -0.3935  0.0716
  643HK4    C2653994   5.915   2.603   5.908  0.3053 -0.1680  0.3926
  643HK4    H1353995   5.882   2.670   5.988 -0.8569  0.6106 -0.7152
  643HK4    C2553996   5.922   2.466   5.930 -0.1136 -0.1691  0.5198
  643HK4    H1253997   5.851   2.418   5.996 -0.6088 -1.1178 -0.6696
  643HK4    C2453998   6.013   2.389   5.858 -0.2531  0.2179 -0.0745
  643HK4    H1153999   6.025   2.282   5.876 -2.0627 -0.1981 -1.2661
  643HK4    C2354000   6.094   2.451   5.764  0.3378 -0.1090  0.2177
  643HK4    H1054001   6.156   2.381   5.707 -1.3432 -0.1462 -1.6182
  643HK4    C3954002   6.279   2.633   5.585 -0.1277 -0.4153  0.6838
  643HK4    C4154003   6.287   2.503   5.530 -0.3647 -0.2716  0.3063
  643HK4    H2154004   6.200   2.437   5.526  0.7268 -1.7269 -0.0776
  643HK4    C4254005   6.405   2.453   5.477 -0.3700 -0.0835  0.1127
  643HK4    H2254006   6.407   2.350   5.436  1.2738 -0.4564  1.0484
  643HK4    C4354007   6.516   2.535   5.457 -0.2302 -0.4225 -0.5322
  643HK4    H2354008   6.598   2.500   5.396 -0.6768  0.6240 -1.7514
  643HK4    C4454009   6.505   2.669   5.492 -0.6795 -0.4923 -0.3954
  643HK4    H2454010   6.589   2.737   5.471  1.2640 -2.5732  0.4449
  643HK4    C4554011   6.394   2.711   5.564 -0.2189 -0.3943  0.2683
  643HK4    H2554012   6.406   2.809   5.613  2.9257  1.5319 -3.9752
  644HK4    H2854013   2.992   2.805   6.413  0.5467 -0.4460 -1.5267
  644HK4    C4854014   2.989   2.711   6.468 -0.0978 -0.0659 -0.8979
  644HK4    C4754015   3.110   2.648   6.495 -0.3370 -0.1645 -0.0441
  644HK4    H2754016   3.202   2.708   6.481  0.8486 -1.8364  0.4329
  644HK4    C4654017   3.113   2.521   6.551  0.4086  0.1330  0.6133
  644HK4    H2654018   3.210   2.483   6.586 -0.2999 -1.3638  1.0082
  644HK4    C4054019   2.998   2.447   6.586  0.2430  0.1690  0.1501
  644HK4    C5054020   2.878   2.515   6.555 -0.0919 -0.3629  0.2705
  644HK4    H3054021   2.776   2.482   6.580 -1.3870  2.1359 -1.4804
  644HK4    C4954022   2.872   2.640   6.493  0.3212 -0.3778  0.2023
  644HK4    H2954023   2.778   2.680   6.453  1.0972 -0.3589 -1.6501
  644HK4     N254024   2.991   2.308   6.593 -0.0199  0.1790  0.0975
  644HK4    C3054025   3.069   2.221   6.515  0.0369  0.1866  0.1459
  644HK4    C2954026   3.154   2.245   6.407 -0.3056  0.2619 -0.1106
  644HK4    H1554027   3.164   2.347   6.370 -0.0026 -0.5890 -2.4219
  644HK4    C2854028   3.222   2.139   6.348  0.1834  0.3368  0.3076
  644HK4    C2754029   3.217   2.010   6.404  0.3458  0.0514 -0.3332
  644HK4    H1454030   3.300   1.942   6.379 -0.3680 -1.2391  0.6888
  644HK4    C3254031   3.133   1.981   6.511 -0.1794  0.3117 -0.6698
  644HK4    H1654032   3.137   1.879   6.549 -0.1385  0.4761 -0.2252
  644HK4    C3154033   3.062   2.086   6.568  0.1054  0.1340  0.0216
  644HK4    C3454034   2.975   2.095   6.684  0.3858  0.4918  0.2075
  644HK4    C3354035   2.929   2.232   6.695  0.5510  0.5102  0.6978
  644HK4    C3554036   2.829   2.259   6.788  0.0383  0.3369  0.2017
  644HK4    H1754037   2.757   2.337   6.766  1.8693  2.2189  0.7847
  644HK4    C3654038   2.797   2.166   6.886  0.5537 -0.0377  0.0203
  644HK4    H1854039   2.712   2.184   6.953  1.6395 -2.3878  2.1021
  644HK4    C3754040   2.854   2.039   6.890 -0.1628 -0.3504  0.3496
  644HK4    H1954041   2.842   1.977   6.979  1.4688  1.5639  1.9472
  644HK4    C3854042   2.934   2.005   6.781 -0.0766  0.6025  0.1105
  644HK4    H2054043   2.976   1.905   6.785  1.0683  1.0347 -1.1436
  644HK4    C1454044   3.245   2.156   6.204 -0.0661  0.1511  0.2457
  644HK4     C954045   3.205   2.069   6.101 -0.1793  0.3515  0.1205
  644HK4     C854046   3.293   2.051   5.992  0.6324 -0.7940  0.9541
  644HK4    C1154047   3.408   2.128   5.982  0.1955 -0.2381  0.1180
  644HK4     H454048   3.487   2.101   5.910  0.9839  2.8948 -0.2630
  644HK4    C1254049   3.440   2.225   6.076 -0.0156 -0.0942  0.0389
  644HK4     H554050   3.526   2.290   6.056 -1.3399  1.6333 -0.1717
  644HK4    C1354051   3.360   2.236   6.189  0.0470 -0.0433  0.0782
  644HK4     H654052   3.385   2.311   6.265  1.6828 -0.9033  0.4264
  644HK4     C754053   3.261   1.955   5.884  0.5972 -0.4257  0.6386
  644HK4     O254054   3.315   1.964   5.774  0.1848 -1.0225  0.3842
  644HK4     C454055   3.134   1.880   5.896  0.6488 -0.5459  0.4277
  644HK4     C354056   3.107   1.775   5.809 -0.3397 -0.3832  0.5309
  644HK4     H354057   3.183   1.732   5.743 -0.2184 -0.7047  0.8808
  644HK4     C254058   2.981   1.717   5.796 -0.4983  0.0306  0.2082
  644HK4     H254059   2.968   1.628   5.733 -2.3150  1.4340 -1.4355
  644HK4     C154060   2.874   1.778   5.860 -0.4976  0.0984  0.1443
  644HK4     H154061   2.769   1.748   5.846 -0.7879  0.7908  0.7496
  644HK4     C654062   2.899   1.892   5.940  0.2745  0.2615 -0.3309
  644HK4     C554063   3.029   1.933   5.973  0.3619 -0.0354 -0.3031
  644HK4    C1054064   3.065   2.018   6.091 -0.2281  0.6249 -0.5921
  644HK4     O154065   2.991   2.024   6.188  0.9127  0.6237  0.2910
  644HK4    C1654066   2.784   1.958   6.003  0.4456 -0.0442  0.3080
  644HK4    C1554067   2.667   1.887   6.038  0.2788  0.0339 -0.0789
  644HK4     H754068   2.692   1.790   6.083 -2.1847 -1.5385 -2.0039
  644HK4    C2054069   2.540   1.938   6.063  0.2772  0.0501 -0.1197
  644HK4     H954070   2.455   1.875   6.087 -0.6631  0.9999 -0.9172
  644HK4    C1954071   2.528   2.076   6.059  0.0563  0.0197 -0.5296
  644HK4    C1854072   2.649   2.150   6.029  0.2500 -0.0173  0.1412
  644HK4    C1754073   2.772   2.096   5.992  0.1447 -0.1006 -0.0913
  644HK4     H854074   2.843   2.149   5.929 -0.6358  0.0734 -0.8313
  644HK4     N154075   2.630   2.288   6.051 -0.1587  0.0071 -0.3561
  644HK4    C2154076   2.497   2.297   6.099  0.0615 -0.1679  0.2955
  644HK4    C2254077   2.433   2.168   6.120  0.2701 -0.2767  0.2633
  644HK4    C2654078   2.303   2.167   6.169  0.0328 -0.2831 -0.3600
  644HK4    H1354079   2.249   2.072   6.171  2.9982 -2.0325  1.2979
  644HK4    C2554080   2.234   2.282   6.202  0.1872 -0.3762  0.2823
  644HK4    H1254081   2.125   2.275   6.205  0.1600  0.3886  1.5903
  644HK4    C2454082   2.300   2.405   6.202 -0.3214 -0.1060 -0.6311
  644HK4    H1154083   2.266   2.482   6.273 -1.7786 -1.0864 -0.2239
  644HK4    C2354084   2.426   2.407   6.145  0.0731 -0.1377  0.2414
  644HK4    H1054085   2.492   2.490   6.171 -0.3462  0.8392 -1.7269
  644HK4    C3954086   2.730   2.386   6.058 -0.2690  0.0748  0.3032
  644HK4    C4154087   2.696   2.520   6.031  0.0329  0.0776 -0.0611
  644HK4    H2154088   2.610   2.542   5.966 -0.6942  0.1704  0.9135
  644HK4    C4254089   2.774   2.631   6.062  0.0300  0.2754 -0.7690
  644HK4    H2254090   2.736   2.731   6.036 -0.9325 -0.0168 -0.4874
  644HK4    C4354091   2.901   2.607   6.113 -0.3007 -0.1740 -0.1498
  644HK4    H2354092   2.980   2.681   6.099 -1.0856  0.9651  1.2924
  644HK4    C4454093   2.945   2.478   6.138 -0.5603 -0.3163 -0.4129
  644HK4    H2454094   3.053   2.459   6.153 -0.5924  0.4578  0.8349
  644HK4    C4554095   2.857   2.372   6.117 -0.3871 -0.6248  0.4035
  644HK4    H2554096   2.896   2.270   6.127  0.5006 -0.4824 -1.3787
  645HK4    H2854097  10.833   1.888   1.085  0.9426  1.6918 -1.5144
  645HK4    C4854098  10.914   1.907   1.156  0.0508  0.0705 -0.0149
  645HK4    C4754099  10.961   2.037   1.171 -0.5474  0.2661  0.1825
  645HK4    H2754100  10.962   2.100   1.081 -1.9305  0.9095  0.5956
  645HK4    C4654101  11.049   2.061   1.276 -0.0173 -1.0420  0.0457
  645HK4    H2654102  11.110   2.152   1.267  0.0131 -1.2330 -1.9776
  645HK4    C4054103  11.084   1.962   1.369  0.2445 -0.7475  0.2597
  645HK4    C5054104  11.014   1.840   1.360  0.0228 -0.6064  0.0957
  645HK4    H3054105  11.017   1.773   1.447  1.0680 -3.0875 -1.7955
  645HK4    C4954106  10.937   1.807   1.249  0.2276 -0.0717 -0.2095
  645HK4    H2954107  10.889   1.708   1.253 -0.8507  0.3981 -1.1683
  645HK4     N254108  11.195   1.970   1.454  0.2326 -0.3272  0.2390
  645HK4    C3054109   0.055   2.058   1.432  0.5561 -0.7368  0.1752
  645HK4    C2954110   0.107   2.113   1.316 -0.3100  0.4572  0.3456
  645HK4    H1554111   0.068   2.078   1.221  2.0706 -0.8419 -0.1907
  645HK4    C2854112   0.208   2.209   1.304  0.1700 -0.1479 -0.5145
  645HK4    C2754113   0.258   2.252   1.428 -0.0906  0.1000 -0.4948
  645HK4    H1454114   0.329   2.336   1.425 -0.2297  0.2801  0.7040
  645HK4    C3254115   0.220   2.200   1.552  0.5103 -0.4249 -0.5318
  645HK4    H1654116   0.260   2.249   1.641 -2.3093 -0.9698  1.0828
  645HK4    C3154117   0.117   2.107   1.554  0.3531 -0.2369  0.0792
  645HK4    C3454118   0.042   2.036   1.656 -0.8807  0.5420 -0.2705
  645HK4    C3354119  11.197   1.944   1.593 -0.2328 -0.4620  0.2200
  645HK4    C3554120  11.100   1.891   1.678 -0.6581 -0.1418 -0.0658
  645HK4    H1754121  11.014   1.842   1.632 -0.0338 -0.4080 -0.9769
  645HK4    C3654122  11.094   1.911   1.815  0.0347  0.3234 -0.1026
  645HK4    H1854123  10.996   1.901   1.862 -0.0169  1.1749 -0.0206
  645HK4    C3754124  11.176   2.007   1.873  0.0354  0.1606  0.1626
  645HK4    H1954125  11.177   2.030   1.980  0.8508  1.6314 -0.1371
  645HK4    C3854126   0.026   2.062   1.791  0.6157 -0.8071  0.1938
  645HK4    H2054127   0.069   2.157   1.823  2.1152 -1.8159  1.2064
  645HK4    C1454128   0.269   2.244   1.175  0.2884  0.0616 -0.4009
  645HK4     C954129   0.404   2.279   1.162  0.3343  0.0992  0.1448
  645HK4     C854130   0.446   2.368   1.061  0.0726  0.1994  0.1232
  645HK4    C1154131   0.355   2.411   0.965  0.1468 -0.1520 -0.1051
  645HK4     H454132   0.388   2.480   0.886 -0.7837 -1.7473 -1.9021
  645HK4    C1254133   0.222   2.372   0.963  0.2258 -0.4173 -0.1821
  645HK4     H554134   0.172   2.378   0.865  1.8701 -0.4287 -1.0390
  645HK4    C1354135   0.185   2.296   1.074 -0.1751 -0.1449 -0.1269
  645HK4     H654136   0.078   2.271   1.074 -0.4815  1.1331 -0.1247
  645HK4     C754137   0.586   2.416   1.059 -0.1107  0.7391  0.2002
  645HK4     O254138   0.628   2.459   0.952  0.5194  0.2279  0.2426
  645HK4     C454139   0.678   2.387   1.171  0.1859 -0.0774 -0.2525
  645HK4     C354140   0.798   2.456   1.178 -0.0726  0.3510  0.0094
  645HK4     H354141   0.826   2.536   1.107  0.5625  0.7157  0.6589
  645HK4     C254142   0.874   2.442   1.294 -0.4434  0.6462  0.2889
  645HK4     H254143   0.975   2.484   1.302  0.3711 -1.2790  0.3186
  645HK4     C154144   0.840   2.359   1.400 -0.1557 -0.1866 -0.2623
  645HK4     H154145   0.894   2.363   1.496 -0.7553 -1.5324  0.1283
  645HK4     C654146   0.718   2.289   1.391 -0.3637  0.1461 -0.0375
  645HK4     C554147   0.639   2.301   1.276  0.2319 -0.4057 -0.5048
  645HK4    C1054148   0.511   2.229   1.252 -0.2604  0.0285  0.8121
  645HK4     O154149   0.516   2.107   1.266  0.0789 -0.0129  0.3300
  645HK4    C1654150   0.658   2.245   1.517 -0.4614  0.3580 -0.0083
  645HK4    C1554151   0.657   2.327   1.631  0.1666  0.4667 -0.0766
  645HK4     H754152   0.697   2.429   1.620  1.7513  0.0471  1.5402
  645HK4    C2054153   0.610   2.288   1.756 -0.1711  0.3107 -0.2504
  645HK4     H954154   0.608   2.356   1.842  3.7515  0.0082  0.1843
  645HK4    C1954155   0.554   2.162   1.771  0.4798  0.0307 -0.1531
  645HK4    C1854156   0.547   2.074   1.655 -0.0683  0.1118 -0.1835
  645HK4    C1754157   0.605   2.118   1.537 -0.4032  0.2926 -0.2792
  645HK4     H854158   0.634   2.039   1.467 -1.0143  0.2172 -0.4562
  645HK4     N154159   0.474   1.956   1.681  0.2453 -0.0363  0.0409
  645HK4    C2154160   0.413   1.979   1.806  0.4122 -0.5374  0.2126
  645HK4    C2254161   0.460   2.103   1.864  0.0824 -0.0368 -0.5961
  645HK4    C2654162   0.416   2.137   1.991  0.1416 -0.6607 -0.4093
  645HK4    H1354163   0.436   2.238   2.026  1.2540 -1.5182  1.5295
  645HK4    C2554164   0.336   2.054   2.068  0.1986 -0.1086  0.2532
  645HK4    H1254165   0.340   2.076   2.175  1.0905 -1.3829  0.4893
  645HK4    C2454166   0.286   1.939   2.008  0.4402 -0.2253  0.2768
  645HK4    H1154167   0.245   1.860   2.073 -0.4661 -0.4948 -0.6041
  645HK4    C2354168   0.322   1.902   1.879  0.0675 -0.1816  0.1575
  645HK4    H1054169   0.303   1.800   1.846 -2.6057  0.4876 -0.4844
  645HK4    C3954170   0.517   1.829   1.643  0.1663 -0.0296 -0.0698
  645HK4    C4154171   0.650   1.808   1.600  0.1307  0.4236 -0.4046
  645HK4    H2154172   0.724   1.889   1.605 -0.2004  1.0036 -3.9237
  645HK4    C4254173   0.689   1.693   1.534  0.1658  0.0813  0.2037
  645HK4    H2254174   0.796   1.686   1.510  0.2701  2.0953  0.0211
  645HK4    C4354175   0.588   1.603   1.499  0.1788  0.1146  0.0791
  645HK4    H2354176   0.607   1.514   1.438 -1.2641  0.6745 -1.2209
  645HK4    C4454177   0.455   1.618   1.536 -0.0032  0.3564 -0.6666
  645HK4    H2454178   0.376   1.542   1.526  1.3264 -1.1596  0.1325
  645HK4    C4554179   0.419   1.736   1.601  0.1085 -0.1633  0.3558
  645HK4    H2554180   0.316   1.768   1.581 -0.4066 -0.8154  1.8925
  646HK4    H2854181   3.120   3.561   8.872  1.5968 -0.6324 -4.0194
  646HK4    C4854182   3.216   3.579   8.920 -0.2672 -0.0976 -0.2913
  646HK4    C4754183   3.273   3.486   9.006 -0.4682 -0.0150 -0.0718
  646HK4    H2754184   3.236   3.382   9.007 -0.0702 -0.1547  1.0283
  646HK4    C4654185   3.384   3.528   9.078 -0.5091  0.3434 -0.2162
  646HK4    H2654186   3.420   3.454   9.151  1.8540  1.9378  0.2833
  646HK4    C4054187   3.452   3.651   9.068  0.3351 -0.1070 -0.0209
  646HK4    C5054188   3.393   3.742   8.978 -0.0394  0.1882  0.5195
  646HK4    H3054189   3.432   3.842   8.954  1.7073 -0.4601  0.5692
  646HK4    C4954190   3.280   3.703   8.908  0.2577 -0.3052  0.3098
  646HK4    H2954191   3.237   3.776   8.838 -1.1895 -1.0977  0.3427
  646HK4     N254192   3.590   3.665   9.090  0.3593  0.5009 -0.5306
  646HK4    C3054193   3.682   3.560   9.075  0.0580  0.2216 -0.4435
  646HK4    C2954194   3.684   3.449   8.992  0.2705  0.0193 -0.1684
  646HK4    H1554195   3.596   3.440   8.928  1.8158  2.0102 -2.6981
  646HK4    C2854196   3.790   3.359   8.987  0.1153 -0.1431 -0.6633
  646HK4    C2754197   3.895   3.389   9.078 -0.3959  0.1976 -0.1845
  646HK4    H1454198   3.990   3.336   9.070 -0.8109 -0.3762 -1.4931
  646HK4    C3254199   3.899   3.500   9.161  0.0795  0.3144 -0.3635
  646HK4    H1654200   3.993   3.527   9.211  0.9396  1.3060 -2.4716
  646HK4    C3154201   3.797   3.594   9.157 -0.0971  0.1307 -0.1863
  646HK4    C3454202   3.762   3.718   9.224  0.1402  0.0807  0.0277
  646HK4    C3354203   3.640   3.771   9.168 -0.2402 -0.0850  0.6864
  646HK4    C3554204   3.599   3.898   9.209 -0.4310 -0.0352  0.3421
  646HK4    H1754205   3.513   3.944   9.161  0.1791  0.1714 -0.5669
  646HK4    C3654206   3.661   3.961   9.316 -0.1738 -0.3125  0.3570
  646HK4    H1854207   3.605   4.040   9.367  1.3523  0.2937  1.1273
  646HK4    C3754208   3.774   3.904   9.374  0.4016 -0.1585 -0.5840
  646HK4    H1954209   3.839   3.966   9.435 -0.0325  1.6229 -1.9080
  646HK4    C3854210   3.827   3.784   9.328  0.4496 -0.4279  0.1640
  646HK4    H2054211   3.919   3.743   9.369  1.4594  1.3378 -0.2872
  646HK4    C1454212   3.756   3.224   8.941  0.3341 -0.1868 -0.7017
  646HK4     C954213   3.807   3.109   9.002  0.1440  0.2084  0.2136
  646HK4     C854214   3.861   3.004   8.925 -0.1647  0.0888  0.1583
  646HK4    C1154215   3.861   3.015   8.786 -0.5930 -0.5150  0.1090
  646HK4     H454216   3.885   2.929   8.722  0.2013 -0.3617  0.1994
  646HK4    C1254217   3.802   3.124   8.724  0.3091 -0.0591  0.0510
  646HK4     H554218   3.793   3.115   8.615  0.7204 -1.4946  0.1293
  646HK4    C1354219   3.744   3.225   8.800 -0.1416  0.2307 -0.6642
  646HK4     H654220   3.680   3.292   8.742 -0.2600 -0.0611 -0.8679
  646HK4     C754221   3.913   2.882   8.990 -0.4358 -0.3111 -0.3745
  646HK4     O254222   3.995   2.813   8.930 -0.1041 -0.2542  0.0146
  646HK4     C454223   3.878   2.856   9.131 -0.0235  0.0631 -0.2057
  646HK4     C354224   3.907   2.730   9.183  0.3967  0.3451  0.2456
  646HK4     H354225   3.925   2.647   9.113  2.2719 -0.2786  1.4155
  646HK4     C254226   3.889   2.701   9.318  0.0670  0.3078  0.1952
  646HK4     H254227   3.894   2.596   9.350  0.1530  0.4179  0.5373
  646HK4     C154228   3.861   2.810   9.400  0.4490  0.6707 -0.1556
  646HK4     H154229   3.849   2.777   9.504  0.7780  0.8543 -0.0603
  646HK4     C654230   3.838   2.940   9.351  0.2655  0.5960 -0.2701
  646HK4     C554231   3.844   2.965   9.214  0.6664  0.3534 -0.2976
  646HK4    C1054232   3.785   3.085   9.147 -0.2320  0.1600  0.1466
  646HK4     O154233   3.684   3.143   9.188 -0.0901  0.2393  0.3869
  646HK4    C1654234   3.796   3.040   9.451 -0.3040 -0.0847  0.1738
  646HK4    C1554235   3.742   2.995   9.573 -0.2525 -0.1012  0.1913
  646HK4     H754236   3.670   2.912   9.571 -1.3894  0.8235  1.3945
  646HK4    C2054237   3.745   3.073   9.689  0.1135 -0.0295  0.1347
  646HK4     H954238   3.680   3.036   9.768 -2.0887  0.6760 -1.2824
  646HK4    C1954239   3.816   3.192   9.691 -0.2222  0.1727  0.1689
  646HK4    C1854240   3.876   3.242   9.569 -0.2797 -0.1474  0.0117
  646HK4    C1754241   3.852   3.167   9.454  0.1610 -0.2839  0.0017
  646HK4     H854242   3.868   3.217   9.359 -1.6979 -0.7036 -0.5577
  646HK4     N154243   3.934   3.369   9.588  0.0706 -0.2979 -0.0506
  646HK4    C2154244   3.895   3.410   9.717  0.1409 -0.1881 -0.0649
  646HK4    C2254245   3.823   3.303   9.784 -0.0950  0.1377  0.2006
  646HK4    C2654246   3.784   3.311   9.917 -0.1917 -0.0680  0.1868
  646HK4    H1354247   3.734   3.229   9.969  1.6735 -1.3720 -0.0120
  646HK4    C2554248   3.800   3.434   9.981  0.4658 -0.1445  0.1788
  646HK4    H1254249   3.766   3.442  10.084 -0.4484  2.9939 -0.3293
  646HK4    C2454250   3.866   3.537   9.917 -0.4419  0.1652 -0.2707
  646HK4    H1154251   3.873   3.631   9.975  0.7465 -0.7868  1.1626
  646HK4    C2354252   3.907   3.531   9.784 -0.4641 -0.0125 -0.2703
  646HK4    H1054253   3.957   3.616   9.737 -0.6524 -0.2672 -0.9283
  646HK4    C3954254   4.035   3.428   9.511  0.1902  0.5498  0.7404
  646HK4    C4154255   4.050   3.566   9.489  0.1817  0.4265 -0.0880
  646HK4    H2154256   3.987   3.629   9.555  0.3781 -0.8957  1.3884
  646HK4    C4254257   4.146   3.624   9.408 -0.2205  0.4938 -0.5155
  646HK4    H2254258   4.144   3.731   9.380  0.3520  0.3473 -1.1458
  646HK4    C4354259   4.233   3.539   9.340 -0.6542 -0.4400  0.0942
  646HK4    H2354260   4.303   3.576   9.265  0.6758 -0.4053  1.3318
  646HK4    C4454261   4.226   3.402   9.364  0.0905 -0.5178 -0.1314
  646HK4    H2454262   4.294   3.333   9.312  2.1375  0.4113  1.2146
  646HK4    C4554263   4.131   3.346   9.448 -0.1040  0.5070  0.3486
  646HK4    H2554264   4.141   3.240   9.474 -1.2501  0.2820 -0.0711
  647HK4    H2854265   5.657   3.759   8.970  0.5823 -0.7483 -2.0325
  647HK4    C4854266   5.631   3.659   9.006 -0.0413  0.0520 -0.1705
  647HK4    C4754267   5.623   3.549   8.921  0.1473  0.0172 -0.1444
  647HK4    H2754268   5.635   3.560   8.813 -1.4711  1.1252 -0.2374
  647HK4    C4654269   5.576   3.426   8.968 -0.3369  0.3671  0.2983
  647HK4    H2654270   5.574   3.340   8.901 -0.0309 -1.2850  2.3615
  647HK4    C4054271   5.538   3.406   9.102  0.2782 -0.4969  0.3481
  647HK4    C5054272   5.543   3.521   9.184  0.1623 -0.3743  0.1844
  647HK4    H3054273   5.515   3.520   9.290  0.9569 -0.4515  0.3968
  647HK4    C4954274   5.585   3.644   9.136 -0.3411 -0.3990 -0.3269
  647HK4    H2954275   5.560   3.732   9.198  0.6611  0.5744 -1.2717
  647HK4     N254276   5.480   3.287   9.150 -0.0748 -0.5399 -0.1770
  647HK4    C3054277   5.399   3.196   9.079 -0.0228 -0.5401 -0.2346
  647HK4    C2954278   5.311   3.225   8.976 -0.2782 -0.7970 -0.0882
  647HK4    H1554279   5.292   3.331   8.956 -1.4039 -0.5430  2.1080
  647HK4    C2854280   5.229   3.126   8.922 -0.0265 -0.5744 -0.8854
  647HK4    C2754281   5.234   3.003   8.991 -0.2996  0.0057  0.1863
  647HK4    H1454282   5.168   2.923   8.954  1.7505 -0.9037 -1.6019
  647HK4    C3254283   5.318   2.972   9.097  0.0016  0.0156 -0.0512
  647HK4    H1654284   5.311   2.875   9.144 -1.5637  0.3747  0.4749
  647HK4    C3154285   5.407   3.068   9.146 -0.0434 -0.1950  0.4370
  647HK4    C3454286   5.494   3.080   9.261  0.6902 -0.1133 -0.1242
  647HK4    C3354287   5.531   3.220   9.263  0.3592 -0.0269 -0.0655
  647HK4    C3554288   5.583   3.271   9.382  0.4804  0.3201 -0.2633
  647HK4    H1754289   5.619   3.373   9.392  0.6196  0.4073 -1.5835
  647HK4    C3654290   5.583   3.193   9.497  0.0602  0.3506 -0.2415
  647HK4    H1854291   5.613   3.244   9.590 -0.3696  1.7728 -0.8713
  647HK4    C3754292   5.548   3.059   9.501  0.2822  0.2968 -0.0634
  647HK4    H1954293   5.549   3.000   9.592  0.0296  3.3769  1.9865
  647HK4    C3854294   5.506   3.007   9.379  0.1211  0.1061  0.0689
  647HK4    H2054295   5.477   2.902   9.382  0.9320 -0.1304 -0.0729
  647HK4    C1454296   5.109   3.179   8.856 -0.2948 -0.1136 -0.0395
  647HK4     C954297   4.975   3.138   8.868 -0.3440  0.0308 -0.0919
  647HK4     C854298   4.887   3.167   8.762  0.1520  0.1354 -0.4823
  647HK4    C1154299   4.928   3.240   8.652  0.1781 -0.7759 -1.0859
  647HK4     H454300   4.849   3.277   8.586 -0.1675  0.4778  0.0158
  647HK4    C1254301   5.056   3.295   8.646 -0.1136  0.1566  0.8343
  647HK4     H554302   5.083   3.363   8.564  3.2992  0.3920  2.0559
  647HK4    C1354303   5.146   3.258   8.746  0.4667 -0.1017  0.2198
  647HK4     H654304   5.252   3.270   8.719  0.5494  0.1688  0.6588
  647HK4     C754305   4.747   3.118   8.768  0.5129 -0.8417  0.1428
  647HK4     O254306   4.674   3.141   8.672  0.4582  0.0180  0.3890
  647HK4     C454307   4.701   3.038   8.884  0.0216 -0.2982  0.3265
  647HK4     C354308   4.570   2.993   8.887 -0.2810  0.5894  0.3760
  647HK4     H354309   4.494   3.050   8.831 -0.4930 -0.6056 -0.5679
  647HK4     C254310   4.534   2.891   8.974  0.1447  0.1277  0.0035
  647HK4     H254311   4.428   2.862   8.979  0.3143 -0.4215  0.4527
  647HK4     C154312   4.631   2.831   9.054  0.1559 -0.4285 -0.4226
  647HK4     H154313   4.597   2.753   9.123  0.9066  0.2584  0.7328
  647HK4     C654314   4.765   2.876   9.056  0.0495 -0.1291 -0.1089
  647HK4     C554315   4.796   2.986   8.975  0.2490  0.1579  0.3524
  647HK4    C1054316   4.927   3.056   8.983  0.5010 -0.2732  0.0508
  647HK4     O154317   4.957   3.108   9.090  0.1612 -0.2503  0.1346
  647HK4    C1654318   4.864   2.781   9.109 -0.0832 -0.0561  0.2716
  647HK4    C1554319   4.842   2.643   9.090  0.4293 -0.0181 -0.6253
  647HK4     H754320   4.799   2.600   8.999  0.5034 -1.9124  0.2146
  647HK4    C2054321   4.888   2.554   9.186 -0.2330  0.2984 -0.0168
  647HK4     H954322   4.849   2.452   9.191 -1.5608  0.7458 -0.8024
  647HK4    C1954323   4.962   2.590   9.298  0.0500 -0.0854 -0.0795
  647HK4    C1854324   4.983   2.732   9.316  0.0261 -0.1483  0.4482
  647HK4    C1754325   4.926   2.821   9.226 -0.0202 -0.3048  0.3201
  647HK4     H854326   4.906   2.923   9.258 -0.5497 -1.0343  2.3919
  647HK4     N154327   5.061   2.763   9.430  0.2866 -0.0173  0.2351
  647HK4    C2154328   5.091   2.635   9.479 -0.6434 -0.0056  0.8603
  647HK4    C2254329   5.032   2.524   9.407 -0.1501  0.1580  0.1988
  647HK4    C2654330   5.054   2.389   9.434 -0.9130  0.0561  0.3219
  647HK4    H1354331   4.986   2.315   9.390  0.6118 -0.3965 -1.3176
  647HK4    C2554332   5.142   2.353   9.534 -0.4199 -0.0254 -0.1386
  647HK4    H1254333   5.182   2.252   9.547 -2.3984 -0.9315 -0.9898
  647HK4    C2454334   5.201   2.458   9.604  0.0706 -0.1297 -0.3937
  647HK4    H1154335   5.274   2.436   9.684  0.9716  0.4818 -1.0414
  647HK4    C2354336   5.182   2.592   9.575  0.3451 -0.0204 -0.0658
  647HK4    H1054337   5.262   2.659   9.609 -1.2086  2.3137 -0.8785
  647HK4    C3954338   5.090   2.895   9.468  0.5747  0.0126 -0.0889
  647HK4    C4154339   5.137   2.919   9.599 -0.1991  0.4514  0.1041
  647HK4    H2154340   5.100   2.851   9.677  0.9677  0.6681  0.8596
  647HK4    C4254341   5.186   3.046   9.628  0.3435  0.4080 -0.5939
  647HK4    H2254342   5.219   3.066   9.731 -1.3064 -2.6771  0.6089
  647HK4    C4354343   5.192   3.157   9.545 -0.7478  1.0717  0.1931
  647HK4    H2354344   5.190   3.261   9.577 -1.0618  0.6884  1.4670
  647HK4    C4454345   5.155   3.126   9.415  0.3476 -0.2346  0.1894
  647HK4    H2454346   5.208   3.188   9.341  2.1559 -1.5893  0.3072
  647HK4    C4554347   5.115   2.998   9.376  0.2524 -0.0670 -0.2683
  647HK4    H2554348   5.123   2.969   9.270 -0.3507 -1.8927  0.1812
  648HK4    H2854349  10.707   6.370  11.032 -3.4422  0.1747  0.1547
  648HK4    C4854350  10.675   6.270  11.058  0.6986 -1.3413 -0.2303
  648HK4    C4754351  10.725   6.202  11.169  0.2385  0.1074  0.8724
  648HK4    H2754352  10.802   6.238  11.239  1.3836 -2.2255  0.8453
  648HK4    C4654353  10.659   6.086  11.207  0.4244 -0.2573  0.0701
  648HK4    H2654354  10.709   6.024   0.035  1.7053  1.6527  0.8148
  648HK4    C4054355  10.546   6.030  11.143 -0.0085  0.1521  0.4669
  648HK4    C5054356  10.502   6.106  11.032  0.6991 -0.3351 -0.1492
  648HK4    H3054357  10.403   6.084  10.992 -0.2869 -0.4998  2.2722
  648HK4    C4954358  10.563   6.223  10.990  0.0391  0.0262 -0.0990
  648HK4    H2954359  10.537   6.269  10.894  2.4755 -0.1988 -0.9221
  648HK4     N254360  10.454   5.950  11.211 -0.4509  0.2137 -0.0595
  648HK4    C3054361  10.441   5.940   0.104  0.1737 -0.2979 -0.0347
  648HK4    C2954362  10.459   6.037   0.201 -0.3390 -0.3912  0.1575
  648HK4    H1554363  10.523   6.125   0.187 -3.8411  1.8467 -2.7280
  648HK4    C2854364  10.411   6.018   0.330  0.7277 -1.0979  0.4592
  648HK4    C2754365  10.337   5.901   0.357 -0.9159 -0.2624 -0.3614
  648HK4    H1454366  10.307   5.885   0.461  1.6716 -1.2459  0.2571
  648HK4    C3254367  10.321   5.799   0.264 -0.7152 -0.2087 -0.4528
  648HK4    H1654368  10.261   5.708   0.276  0.0718 -0.8622 -1.4029
  648HK4    C3154369  10.370   5.818   0.135  0.0151 -0.2446 -0.1814
  648HK4    C3454370  10.353   5.742   0.013  0.4179 -0.2089 -0.2606
  648HK4    C3354371  10.402   5.830  11.157 -0.1168  0.1433 -0.2177
  648HK4    C3554372  10.416   5.778  11.029 -0.6167 -1.1491  0.2502
  648HK4    H1754373  10.420   5.850  10.947 -4.2681  1.0994  1.9164
  648HK4    C3654374  10.401   5.643  10.999 -0.1959 -1.0067 -0.6227
  648HK4    H1854375  10.454   5.611  10.908  1.8065 -2.9147  1.1359
  648HK4    C3754376  10.354   5.559  11.099 -0.0454 -0.2602  0.0857
  648HK4    H1954377  10.358   5.453  11.071  1.6881  0.2882 -1.8138
  648HK4    C3854378  10.330   5.609  11.226  0.4091 -0.3255  0.1957
  648HK4    H2054379  10.294   5.532   0.046  0.8592  0.1844  1.0269
  648HK4    C1454380  10.448   6.108   0.440  0.2353 -0.2324 -0.0787
  648HK4     C954381  10.471   6.068   0.572 -0.0702  0.1174  0.0818
  648HK4     C854382  10.452   6.162   0.676 -0.8919 -0.1918  0.2202
  648HK4    C1154383  10.421   6.295   0.649 -0.7224 -0.2223 -0.1461
  648HK4     H454384  10.406   6.375   0.723  1.4520  0.0221  0.0544
  648HK4    C1254385  10.413   6.339   0.518  0.5262  0.4696  0.0013
  648HK4     H554386  10.359   6.434   0.507 -0.5781 -0.2932 -1.3501
  648HK4    C1354387  10.415   6.243   0.417 -0.2516 -0.2237  0.6369
  648HK4     H654388  10.378   6.271   0.317 -1.0662 -1.7194  0.5024
  648HK4     C754389  10.477   6.132   0.818 -0.2603 -1.0386 -0.0609
  648HK4     O254390  10.429   6.199   0.910 -0.1963  0.5169 -1.1351
  648HK4     C454391  10.552   6.007   0.839  0.0747 -0.8005  0.1636
  648HK4     C354392  10.585   5.975   0.970  0.2524  0.3753  0.4049
  648HK4     H354393  10.597   6.051   1.049 -1.0862  1.0431 -0.0146
  648HK4     C254394  10.585   5.844   1.015  0.3125  0.1922 -0.1197
  648HK4     H254395  10.584   5.823   1.124 -2.3305 -1.1257 -0.3436
  648HK4     C154396  10.572   5.738   0.926  0.0637 -0.1539  0.3245
  648HK4     H154397  10.605   5.638   0.959 -1.1492 -0.6575  0.0135
  648HK4     C654398  10.538   5.763   0.792 -0.1262 -0.0371  0.3944
  648HK4     C554399  10.542   5.897   0.751  0.2658 -0.3130 -0.4752
  648HK4    C1054400  10.525   5.934   0.608 -0.5436 -0.1887 -0.3473
  648HK4     O154401  10.613   5.889   0.534  0.0846  0.3175  0.0960
  648HK4    C1654402  10.511   5.648   0.703  0.1086 -0.0004  0.2745
  648HK4    C1554403  10.400   5.659   0.616  0.1146 -0.1806  0.2430
  648HK4     H754404  10.313   5.721   0.640 -0.8296 -2.2825  2.4612
  648HK4    C2054405  10.402   5.578   0.503  0.1584 -0.2042  0.2602
  648HK4     H954406  10.315   5.574   0.438 -2.9361 -4.4014  4.3214
  648HK4    C1954407  10.517   5.509   0.468  0.4803  0.4757 -0.0216
  648HK4    C1854408  10.638   5.522   0.548  0.2859  0.0827  0.3429
  648HK4    C1754409  10.629   5.583   0.673  0.0554 -0.1783  0.4537
  648HK4     H854410  10.706   5.546   0.740 -0.8582 -3.7749 -0.3663
  648HK4     N154411  10.755   5.487   0.478  0.0418  0.2730 -0.1586
  648HK4    C2154412  10.708   5.451   0.350 -0.4163 -0.4027  0.1993
  648HK4    C2254413  10.564   5.455   0.342 -0.3971 -0.1527 -0.0778
  648HK4    C2654414  10.503   5.418   0.223  0.2840 -0.8186 -0.2231
  648HK4    H1354415  10.401   5.454   0.208 -0.6172 -2.4111  1.8857
  648HK4    C2554416  10.573   5.373   0.112 -0.1520 -0.3768 -0.6780
  648HK4    H1254417  10.511   5.335   0.030 -0.7747  1.0280 -0.8693
  648HK4    C2454418  10.710   5.357   0.123 -0.1910 -0.5362 -0.3837
  648HK4    H1154419  10.763   5.334   0.029 -0.4648 -0.3843 -0.5747
  648HK4    C2354420  10.774   5.403   0.237 -0.8588 -0.2986 -0.1044
  648HK4    H1054421  10.883   5.403   0.244 -0.9608 -0.6491  1.8554
  648HK4    C3954422  10.881   5.537   0.512  0.1183 -0.1229  0.1584
  648HK4    C4154423  10.995   5.473   0.459  0.1559  0.1941 -0.1410
  648HK4    H2154424  10.983   5.374   0.412 -0.3366 -0.1931  0.7720
  648HK4    C4254425  11.124   5.524   0.464  0.2331  0.0560 -0.6174
  648HK4    H2254426  11.207   5.470   0.417  0.7785  0.8259 -0.5598
  648HK4    C4354427  11.138   5.649   0.524 -0.7329 -0.0390 -0.1826
  648HK4    H2354428  11.223   5.708   0.491 -1.2249  1.2887  0.8432
  648HK4    C4454429  11.029   5.718   0.577 -0.3144  0.6849 -0.2558
  648HK4    H2454430  11.051   5.809   0.635 -0.3732  1.2483 -1.1223
  648HK4    C4554431  10.902   5.663   0.573  0.0748 -0.2998  0.5354
  648HK4    H2554432  10.829   5.723   0.629  0.0980  0.3298 -0.1004
  649HK4    H2854433   6.170   9.812   5.740 -0.8765  0.3612  0.1528
  649HK4    C4854434   6.161   9.739   5.821 -1.0846  0.0725 -0.1336
  649HK4    C4754435   6.083   9.624   5.812 -0.1281 -0.6055  0.0822
  649HK4    H2754436   6.050   9.582   5.716  1.1344  2.2208 -1.6336
  649HK4    C4654437   6.053   9.546   5.923 -0.6909  0.0319  0.3864
  649HK4    H2654438   6.014   9.445   5.905  0.3501 -0.2794 -0.1472
  649HK4    C4054439   6.099   9.589   6.049  0.0003  0.0412  0.1324
  649HK4    C5054440   6.170   9.711   6.054  0.0900  0.0478 -1.1022
  649HK4    H3054441   6.202   9.754   6.150 -1.0088 -0.1633 -0.6424
  649HK4    C4954442   6.205   9.787   5.943  0.2863  0.4465 -0.7679
  649HK4    H2954443   6.274   9.873   5.944  0.3292  0.4302  2.1256
  649HK4     N254444   6.065   9.531   6.172  0.1061 -0.3185 -0.0069
  649HK4    C3054445   5.936   9.475   6.184 -0.2210  0.4872  0.2367
  649HK4    C2954446   5.816   9.486   6.115 -0.1797  0.8473  0.2188
  649HK4    H1554447   5.824   9.561   6.036 -2.1981  1.9141  0.9888
  649HK4    C2854448   5.697   9.421   6.148  0.2463 -0.1418 -0.1960
  649HK4    C2754449   5.706   9.332   6.257 -0.4455  0.6412  0.5041
  649HK4    H1454450   5.621   9.265   6.274  0.3601 -0.1518  1.4717
  649HK4    C3254451   5.820   9.312   6.334 -0.1642  0.2021 -0.0207
  649HK4    H1654452   5.826   9.224   6.398  0.3023  0.1206 -0.1789
  649HK4    C3154453   5.932   9.384   6.297 -0.2040  0.3342  0.1159
  649HK4    C3454454   6.063   9.397   6.357 -0.3264  0.1170  0.4294
  649HK4    C3354455   6.142   9.495   6.284 -0.0888 -0.2937  0.1346
  649HK4    C3554456   6.270   9.517   6.333  0.1686 -0.0319 -0.6442
  649HK4    H1754457   6.327   9.580   6.265 -1.1214 -1.1026 -2.7665
  649HK4    C3654458   6.328   9.458   6.445 -0.0638  0.3337 -0.3300
  649HK4    H1854459   6.429   9.485   6.481 -0.9886  3.8917 -0.2705
  649HK4    C3754460   6.248   9.362   6.506  0.5681  0.3159  0.4849
  649HK4    H1954461   6.298   9.292   6.573 -1.0895 -0.3088  1.0978
  649HK4    C3854462   6.117   9.335   6.470  0.8185 -0.0208 -0.1834
  649HK4    H2054463   6.056   9.265   6.527 -0.6184  1.5689  0.2912
  649HK4    C1454464   5.563   9.457   6.102 -0.0488 -0.6489  0.2638
  649HK4     C954465   5.446   9.447   6.179 -0.2315  0.0138  0.0850
  649HK4     C854466   5.332   9.397   6.113 -0.0253 -0.2061 -0.1086
  649HK4    C1154467   5.343   9.346   5.985  0.2457  0.4523 -0.3462
  649HK4     H454468   5.269   9.278   5.941 -0.3888  0.3679  0.8436
  649HK4    C1254469   5.451   9.371   5.901  0.2314 -0.1848 -0.5515
  649HK4     H554470   5.460   9.335   5.797 -1.1364 -1.3597 -0.2815
  649HK4    C1354471   5.560   9.430   5.963 -0.2932  0.0649  0.1249
  649HK4     H654472   5.654   9.422   5.906 -0.2307  3.9775 -0.4914
  649HK4     C754473   5.200   9.387   6.180 -0.0135 -0.1522 -0.0771
  649HK4     O254474   5.107   9.318   6.138 -0.6319  0.5590  0.0878
  649HK4     C454475   5.193   9.436   6.319 -0.2230  0.0862 -0.1716
  649HK4     C354476   5.068   9.449   6.378 -0.0852  0.1012  0.1162
  649HK4     H354477   4.971   9.429   6.329 -0.8251 -1.4993  2.1346
  649HK4     C254478   5.057   9.486   6.512  0.1009  0.6580 -0.0241
  649HK4     H254479   4.962   9.519   6.555  0.0240 -3.4914  3.2922
  649HK4     C154480   5.176   9.504   6.582  0.1653 -0.0006  0.0362
  649HK4     H154481   5.184   9.569   6.671 -1.1754  1.7662 -1.0922
  649HK4     C654482   5.304   9.474   6.532  0.1485  0.1892 -0.1287
  649HK4     C554483   5.311   9.461   6.392 -0.2759  0.2923 -0.1566
  649HK4    C1054484   5.435   9.498   6.318 -0.0127 -0.0354  0.1240
  649HK4     O154485   5.503   9.595   6.351  0.2364 -0.1260 -0.1281
  649HK4    C1654486   5.405   9.425   6.627 -0.2846 -0.2971  0.0878
  649HK4    C1554487   5.534   9.391   6.581 -0.2423 -0.6800  0.4972
  649HK4     H754488   5.539   9.359   6.476 -3.0297 -1.4297  0.5510
  649HK4    C2054489   5.644   9.358   6.659  0.0610  0.0782  0.3828
  649HK4     H954490   5.730   9.313   6.610 -0.0587  0.0241  0.2283
  649HK4    C1954491   5.625   9.371   6.796 -0.2973  0.0623  0.3353
  649HK4    C1854492   5.502   9.426   6.850 -0.5578 -0.0089 -0.1827
  649HK4    C1754493   5.393   9.441   6.765 -0.7302 -0.0698  0.0253
  649HK4     H854494   5.292   9.448   6.803 -0.7206  0.2707 -0.0112
  649HK4     N154495   5.497   9.414   6.991  0.5428 -0.1020 -0.1432
  649HK4    C2154496   5.615   9.345   7.024  0.2345 -0.5032  0.1217
  649HK4    C2254497   5.694   9.310   6.908  0.4368  0.3047  0.0147
  649HK4    C2654498   5.800   9.221   6.922 -0.1435 -0.2992  0.6301
  649HK4    H1354499   5.859   9.178   6.841  0.0995 -0.8392  1.0901
  649HK4    C2554500   5.837   9.175   7.048  1.0646  0.4497  0.5593
  649HK4    H1254501   5.925   9.111   7.049  0.6677 -0.0885  1.1887
  649HK4    C2454502   5.767   9.215   7.161  0.5453  0.6651  0.1661
  649HK4    H1154503   5.805   9.191   7.262  2.6273 -1.1834 -1.0053
  649HK4    C2354504   5.660   9.302   7.149  0.0134  0.0520  0.3920
  649HK4    H1054505   5.588   9.310   7.231 -0.3541  0.7020  0.0186
  649HK4    C3954506   5.436   9.508   7.075 -0.0838 -0.1621 -0.5267
  649HK4    C4154507   5.406   9.479   7.210 -0.0963  0.9123 -0.2951
  649HK4    H2154508   5.403   9.378   7.253  1.4928  0.7109 -0.6276
  649HK4    C4254509   5.369   9.572   7.306 -0.0099  0.6248  0.0149
  649HK4    H2254510   5.328   9.534   7.401  1.0112 -1.6651 -0.4322
  649HK4    C4354511   5.358   9.706   7.269  0.0211  0.6811  0.2013
  649HK4    H2354512   5.347   9.782   7.346 -3.1406  0.0852  0.4164
  649HK4    C4454513   5.388   9.743   7.139  0.0027  0.0830  0.0223
  649HK4    H2454514   5.386   9.847   7.103 -2.9702  0.0430 -0.0058
  649HK4    C4554515   5.421   9.645   7.046  0.0210 -0.0114  0.1291
  649HK4    H2554516   5.458   9.673   6.946  1.7283  2.7415  1.4719
  650HK4    H2854517   4.701   8.871   6.128  0.1233 -0.9699 -0.0586
  650HK4    C4854518   4.728   8.894   6.231 -0.3025  0.2487 -0.2105
  650HK4    C4754519   4.816   8.997   6.266  0.1779 -0.3399  0.3610
  650HK4    H2754520   4.877   9.038   6.184 -1.2104 -0.5408 -0.8084
  650HK4    C4654521   4.830   9.047   6.394  0.3010 -0.4847  0.4020
  650HK4    H2654522   4.857   9.153   6.406 -0.0033 -0.2682 -0.8395
  650HK4    C4054523   4.760   8.998   6.507  0.1486 -0.7195  0.2029
  650HK4    C5054524   4.669   8.900   6.463 -0.8881  0.2668  0.1176
  650HK4    H3054525   4.583   8.877   6.528 -1.3373 -0.2266 -0.6368
  650HK4    C4954526   4.651   8.846   6.336  0.4333 -0.1983  0.1243
  650HK4    H2954527   4.597   8.752   6.319  0.3313  0.0385 -0.8859
  650HK4     N254528   4.801   9.011   6.640  0.4054 -0.2518  0.0793
  650HK4    C3054529   4.928   9.066   6.668  0.0231  0.4401  0.4621
  650HK4    C2954530   5.045   9.061   6.593 -0.3946 -0.0291 -0.1649
  650HK4    H1554531   5.058   8.998   6.505  1.1673 -1.5042  1.0557
  650HK4    C2854532   5.163   9.117   6.640 -0.3126  0.5563 -1.0632
  650HK4    C2754533   5.157   9.186   6.763  0.0524 -0.4223 -0.4925
  650HK4    H1454534   5.251   9.229   6.802  0.2088 -0.8654 -0.3837
  650HK4    C3254535   5.040   9.198   6.837  0.2533  0.1863 -0.2705
  650HK4    H1654536   5.049   9.248   6.933 -0.0296 -0.1692 -0.0571
  650HK4    C3154537   4.927   9.125   6.800 -0.2524  0.6355  0.3738
  650HK4    C3454538   4.799   9.093   6.859 -0.2285  0.1105  0.1503
  650HK4    C3354539   4.729   9.013   6.761  0.8169 -1.0464  0.3387
  650HK4    C3554540   4.626   8.930   6.803  0.1669 -0.3137  0.2128
  650HK4    H1754541   4.597   8.846   6.739  0.7142 -0.6025  0.3412
  650HK4    C3654542   4.592   8.925   6.938  0.2930 -0.2665  0.2472
  650HK4    H1854543   4.504   8.868   6.970 -0.8864  1.3024 -0.1693
  650HK4    C3754544   4.651   9.008   7.032  0.1195 -0.0494  0.1648
  650HK4    H1954545   4.584   9.028   7.116 -0.1397  0.9514 -0.2667
  650HK4    C3854546   4.755   9.092   6.991 -0.1060  0.2428  0.1921
  650HK4    H2054547   4.790   9.157   7.071 -1.5287  1.8350 -0.4374
  650HK4    C1454548   5.293   9.060   6.602  0.1075  0.3382  0.6564
  650HK4     C954549   5.404   9.024   6.680  0.2343 -0.3900  0.1406
  650HK4     C854550   5.533   9.038   6.625  0.2790  0.3719  0.4364
  650HK4    C1154551   5.544   9.080   6.493 -0.3992  0.4370  0.3971
  650HK4     H454552   5.641   9.110   6.451 -1.2884  0.9132 -1.3635
  650HK4    C1254553   5.437   9.106   6.408 -0.3297  0.4417  0.3114
  650HK4     H554554   5.459   9.134   6.304  2.1353  2.7930  1.3923
  650HK4    C1354555   5.312   9.095   6.467 -0.1867  0.1272  0.5611
  650HK4     H654556   5.221   9.096   6.404  0.7865  1.0804 -0.8509
  650HK4     C754557   5.656   9.002   6.698  0.5171  0.9926  0.3455
  650HK4     O254558   5.765   9.019   6.644  0.6313 -0.0057  0.2503
  650HK4     C454559   5.640   8.952   6.837 -0.1374  0.1259 -0.0343
  650HK4     C354560   5.749   8.898   6.905 -0.0924  0.4888  0.1821
  650HK4     H354561   5.850   8.887   6.863  0.0792  1.2066  0.3973
  650HK4     C254562   5.738   8.855   7.036 -0.3654  0.5155  0.1681
  650HK4     H254563   5.821   8.804   7.088  0.1494 -0.5924 -1.7232
  650HK4     C154564   5.617   8.866   7.103 -0.3374 -0.0900  0.3249
  650HK4     H154565   5.627   8.842   7.210  1.6442 -0.2037  0.1222
  650HK4     C654566   5.507   8.929   7.041 -0.4712 -0.4198  0.2239
  650HK4     C554567   5.516   8.959   6.904 -0.0603 -0.6489  0.1997
  650HK4    C1054568   5.394   8.973   6.820  0.0110 -0.3370  0.1465
  650HK4     O154569   5.290   8.915   6.849 -0.3014  0.3189  0.3341
  650HK4    C1654570   5.411   8.996   7.130  0.2740  0.6391  0.2358
  650HK4    C1554571   5.331   9.107   7.095 -0.3868  0.0867  0.0004
  650HK4     H754572   5.379   9.177   7.026  0.4623  1.7863  2.2757
  650HK4    C2054573   5.223   9.157   7.167 -0.3412  0.1358  0.0362
  650HK4     H954574   5.194   9.261   7.154 -0.6653 -0.0401 -0.6602
  650HK4    C1954575   5.193   9.092   7.287  0.2310 -0.4383 -0.1323
  650HK4    C1854576   5.271   8.976   7.325 -0.1814 -0.6302  0.1124
  650HK4    C1754577   5.379   8.933   7.250 -0.2099 -0.0562 -0.2543
  650HK4     H854578   5.415   8.831   7.262 -1.1147 -0.3471 -0.0130
  650HK4     N154579   5.224   8.920   7.446 -0.5083 -0.1783  0.1963
  650HK4    C2154580   5.126   9.012   7.490 -0.4970 -0.0264 -0.0949
  650HK4    C2254581   5.098   9.116   7.393  0.5128  0.2941 -0.0423
  650HK4    C2654582   5.014   9.220   7.430 -0.1270 -0.0555 -0.5152
  650HK4    H1354583   4.978   9.293   7.357 -0.3553 -2.3231 -2.7335
  650HK4    C2554584   4.966   9.230   7.560  0.6924  0.0372 -0.2148
  650HK4    H1254585   4.923   9.324   7.595  2.6396  1.2808 -1.1227
  650HK4    C2454586   4.985   9.127   7.652 -0.1993 -0.1357 -0.2127
  650HK4    H1154587   4.923   9.120   7.742  0.7561 -0.0568  0.4571
  650HK4    C2354588   5.069   9.022   7.616 -0.1130 -0.1701  0.0908
  650HK4    H1054589   5.078   8.933   7.679  0.7138 -0.0851  0.0887
  650HK4    C3954590   5.224   8.781   7.460  0.1297 -0.2099 -0.1231
  650HK4    C4154591   5.199   8.727   7.587  0.3599 -0.0756 -0.0218
  650HK4    H2154592   5.217   8.788   7.678  2.3316  2.2005 -1.8717
  650HK4    C4254593   5.145   8.601   7.606  0.1574  0.0012 -0.0875
  650HK4    H2254594   5.108   8.581   7.708  0.3176  0.1551 -0.0018
  650HK4    C4354595   5.130   8.518   7.495  0.8107 -0.5667  0.2479
  650HK4    H2354596   5.100   8.413   7.506 -0.9255 -0.2139 -0.9739
  650HK4    C4454597   5.152   8.564   7.366  0.2528 -0.3227  0.2383
  650HK4    H2454598   5.141   8.502   7.276 -2.2193  2.2492 -1.3214
  650HK4    C4554599   5.195   8.695   7.352 -0.6977 -0.0366 -0.0361
  650HK4    H2554600   5.204   8.733   7.249 -1.7960  1.0841  0.2646
  651HK4    H2854601   5.894   7.059   1.615  0.0549 -0.9715  0.6537
  651HK4    C4854602   5.985   7.118   1.612 -0.7903  0.3434  0.1680
  651HK4    C4754603   6.047   7.168   1.498 -0.1702 -0.2618  0.2349
  651HK4    H2754604   5.993   7.186   1.404 -0.3733 -3.5295 -0.3330
  651HK4    C4654605   6.183   7.195   1.496 -0.2288  0.0713  0.4888
  651HK4    H2654606   6.226   7.230   1.400  0.0191  2.7508  1.5248
  651HK4    C4054607   6.273   7.173   1.602  0.0592  0.0382  0.2370
  651HK4    C5054608   6.203   7.139   1.719 -0.4186 -0.0721 -0.0831
  651HK4    H3054609   6.272   7.150   1.804  0.1337 -0.7094 -0.4456
  651HK4    C4954610   6.066   7.115   1.725 -0.3608 -0.4302 -0.1539
  651HK4    H2954611   6.013   7.114   1.822 -1.1653 -1.1714 -0.5942
  651HK4     N254612   6.411   7.153   1.588 -0.0623 -0.3371 -0.4577
  651HK4    C3054613   6.518   7.171   1.679 -0.2591 -0.0227 -0.2861
  651HK4    C2954614   6.521   7.249   1.793 -0.1691 -0.0206 -0.2899
  651HK4    H1554615   6.446   7.327   1.808  1.0172  0.9889  0.4758
  651HK4    C2854616   6.627   7.243   1.883 -0.3598  0.0983 -0.0568
  651HK4    C2754617   6.737   7.166   1.841 -0.4316  0.0634 -0.1848
  651HK4    H1454618   6.811   7.127   1.913 -2.4906  0.0700  1.9966
  651HK4    C3254619   6.751   7.095   1.722  0.0409 -0.0866 -0.0410
  651HK4    H1654620   6.846   7.047   1.698  1.0148  1.5300  0.5105
  651HK4    C3154621   6.635   7.093   1.645 -0.1802 -0.1557  0.2897
  651HK4    C3454622   6.599   7.033   1.518  0.1553 -0.5085  0.3587
  651HK4    C3354623   6.460   7.064   1.490  0.3706 -0.2045 -0.3646
  651HK4    C3554624   6.398   7.002   1.382 -0.1508  0.1650 -0.2810
  651HK4    H1754625   6.298   7.026   1.346  0.2961  0.0535 -1.6276
  651HK4    C3654626   6.470   6.922   1.294 -0.0618  0.0261 -0.0810
  651HK4    H1854627   6.429   6.883   1.200 -0.9506  1.9702 -0.5137
  651HK4    C3754628   6.604   6.896   1.322  0.1410  0.5553 -0.5613
  651HK4    H1954629   6.670   6.848   1.250 -2.8158 -2.0613 -1.6078
  651HK4    C3854630   6.668   6.947   1.434  0.1735  0.3019 -0.4664
  651HK4    H2054631   6.776   6.935   1.445  0.2057  0.8959 -0.1255
  651HK4    C1454632   6.644   7.322   2.006 -0.0676 -0.1626  0.0709
  651HK4     C954633   6.764   7.359   2.068 -0.1553 -0.0221  0.1555
  651HK4     C854634   6.779   7.377   2.207  0.3331 -0.0254  0.1036
  651HK4    C1154635   6.660   7.360   2.276  0.4046 -0.1431  0.1951
  651HK4     H454636   6.670   7.353   2.386  1.0930 -0.2121  0.1279
  651HK4    C1254637   6.535   7.330   2.222  0.5416 -0.4618  0.0520
  651HK4     H554638   6.454   7.310   2.293  0.9290 -2.4559 -0.0483
  651HK4    C1354639   6.528   7.309   2.085 -0.3184  0.8795 -0.1189
  651HK4     H654640   6.430   7.311   2.035 -0.4664  1.8174  0.2096
  651HK4     C754641   6.916   7.404   2.258  0.3756 -0.3379  0.1572
  651HK4     O254642   6.929   7.448   2.372 -0.4037  0.1908  0.0477
  651HK4     C454643   7.034   7.380   2.171  0.0490  0.3746 -0.4871
  651HK4     C354644   7.160   7.371   2.227 -0.4847 -0.1553  0.6515
  651HK4     H354645   7.181   7.400   2.331  0.4453  0.3407  0.3379
  651HK4     C254646   7.271   7.347   2.146 -0.6692 -0.3553  0.4608
  651HK4     H254647   7.372   7.342   2.188 -0.8142  2.7066  1.2840
  651HK4     C154648   7.254   7.342   2.008  0.0159  0.4856  0.3459
  651HK4     H154649   7.338   7.353   1.938 -1.8337  1.4077 -1.7679
  651HK4     C654650   7.126   7.351   1.951  0.1325 -0.6419 -0.1036
  651HK4     C554651   7.015   7.381   2.031  0.0479  0.0787 -0.4891
  651HK4    C1054652   6.877   7.391   1.977 -0.1930 -0.0927  0.0859
  651HK4     O154653   6.853   7.462   1.879 -0.0298 -0.6467 -0.3623
  651HK4    C1654654   7.111   7.266   1.832 -0.4312 -0.5319 -0.1128
  651HK4    C1554655   7.154   7.132   1.819 -0.7670 -0.6518 -0.0031
  651HK4     H754656   7.188   7.070   1.903  0.7069 -1.3193 -1.0651
  651HK4    C2054657   7.143   7.063   1.699 -0.0884 -0.1249 -0.3677
  651HK4     H954658   7.164   6.957   1.686  2.2437  0.2379  0.2073
  651HK4    C1954659   7.090   7.126   1.587 -0.6563 -0.1507 -0.1124
  651HK4    C1854660   7.050   7.266   1.597 -0.0309  0.0436 -0.3399
  651HK4    C1754661   7.063   7.330   1.719  0.0713 -0.2770 -0.1805
  651HK4     H854662   7.018   7.429   1.724 -2.1156 -1.3594  3.1299
  651HK4     N154663   6.979   7.305   1.482  0.0419  0.4174 -0.2570
  651HK4    C2154664   6.982   7.194   1.395  0.3791  0.1114  0.1432
  651HK4    C2254665   7.048   7.081   1.456  0.1844 -0.2626 -0.3428
  651HK4    C2654666   7.057   6.959   1.389 -0.6090 -0.5488  0.0556
  651HK4    H1354667   7.109   6.884   1.449  0.8652 -1.0779 -1.8196
  651HK4    C2554668   6.992   6.944   1.268 -0.1145 -0.0847 -0.2705
  651HK4    H1254669   7.014   6.854   1.210  0.6459 -1.2100  1.7103
  651HK4    C2454670   6.925   7.051   1.210 -0.0393  0.0421 -0.1248
  651HK4    H1154671   6.875   7.039   1.112  0.9469  1.7562 -0.8701
  651HK4    C2354672   6.923   7.175   1.271 -0.1843 -0.2470  0.4642
  651HK4    H1054673   6.875   7.253   1.210  0.9189 -1.2852 -1.7727
  651HK4    C3954674   6.871   7.394   1.478 -0.4903 -0.2176 -0.0101
  651HK4    C4154675   6.846   7.461   1.357 -0.5326 -0.1441  0.0391
  651HK4    H2154676   6.917   7.439   1.275 -2.1028  0.7075 -1.5826
  651HK4    C4254677   6.734   7.542   1.344 -0.3051  0.2072  0.2501
  651HK4    H2254678   6.733   7.622   1.268 -0.8155 -0.3269 -0.3037
  651HK4    C4354679   6.632   7.542   1.438 -0.3105  0.4620  0.2449
  651HK4    H2354680   6.559   7.620   1.418  0.0199  0.4703 -0.9490
  651HK4    C4454681   6.648   7.466   1.554  0.2275  0.0552 -0.0922
  651HK4    H2454682   6.554   7.444   1.607 -0.2108 -0.3834 -1.0440
  651HK4    C4554683   6.769   7.400   1.575 -0.3554 -0.9361  0.1816
  651HK4    H2554684   6.796   7.360   1.674  1.1208 -1.1019 -0.2840
  652HK4    H2854685   6.218   9.386   0.610  0.3362  0.1210  0.8796
  652HK4    C4854686   6.253   9.349   0.706  0.0670 -0.2456  0.8385
  652HK4    C4754687   6.151   9.351   0.801 -0.5697 -0.1621  0.1539
  652HK4    H2754688   6.052   9.393   0.776 -1.4376 -0.6963  2.5875
  652HK4    C4654689   6.158   9.264   0.908  0.0363 -0.0949  0.1659
  652HK4    H2654690   6.075   9.273   0.980  1.0512  1.7095  1.1430
  652HK4    C4054691   6.265   9.173   0.927  0.3021  0.2403  0.2868
  652HK4    C5054692   6.359   9.177   0.822  0.2316  0.5942  0.2361
  652HK4    H3054693   6.446   9.109   0.822  1.2473  1.8741 -0.4688
  652HK4    C4954694   6.359   9.260   0.711 -0.1106 -0.5480 -0.6338
  652HK4    H2954695   6.457   9.286   0.669  0.8554 -0.6782  1.4785
  652HK4     N254696   6.291   9.122   1.055 -0.3980 -0.0023  0.3351
  652HK4    C3054697   6.273   9.191   1.177  0.5827  0.3124  0.3071
  652HK4    C2954698   6.300   9.322   1.213  0.7270  0.3445  0.0897
  652HK4    H1554699   6.341   9.374   1.127 -1.0253  0.0138 -0.9622
  652HK4    C2854700   6.287   9.381   1.339 -0.1860 -0.1329  0.2194
  652HK4    C2754701   6.245   9.290   1.438 -0.2758 -0.0460  0.2580
  652HK4    H1454702   6.250   9.322   1.543 -0.4857 -0.3029  0.3456
  652HK4    C3254703   6.224   9.155   1.412  0.1263 -0.0200 -0.2247
  652HK4    H1654704   6.204   9.086   1.494  2.7962 -2.9975 -1.9461
  652HK4    C3154705   6.237   9.101   1.285  0.2549 -0.1276 -0.1658
  652HK4    C3454706   6.234   8.969   1.225 -1.2856  0.0366 -0.4739
  652HK4    C3354707   6.267   8.986   1.084  0.8743 -0.3197 -0.0376
  652HK4    C3554708   6.284   8.871   1.008 -0.3327 -0.5049 -0.0469
  652HK4    H1754709   6.286   8.884   0.900  0.0884  1.4886  0.1728
  652HK4    C3654710   6.284   8.748   1.072  1.3134 -0.6092 -0.2166
  652HK4    H1854711   6.341   8.666   1.025 -0.4260 -2.0465  0.1158
  652HK4    C3754712   6.252   8.729   1.206  0.1425  0.2720 -0.3638
  652HK4    H1954713   6.228   8.634   1.253  3.4274  0.8782  2.7665
  652HK4    C3854714   6.240   8.843   1.284 -0.2189  0.1724 -0.2785
  652HK4    H2054715   6.221   8.834   1.391 -1.2240  0.8418 -0.3918
  652HK4    C1454716   6.368   9.499   1.370 -0.0605 -0.1078 -0.1809
  652HK4     C954717   6.453   9.532   1.476 -0.0217 -0.6739 -0.0367
  652HK4     C854718   6.495   9.664   1.504  0.1536 -0.6965 -0.1860
  652HK4    C1154719   6.450   9.770   1.426 -0.3953 -0.5280  0.3654
  652HK4     H454720   6.486   9.873   1.433  0.5013 -0.9188  1.8047
  652HK4    C1254721   6.363   9.742   1.321 -0.1730  0.1797 -0.0063
  652HK4     H554722   6.339   9.820   1.247 -0.4414 -0.9692 -1.1571
  652HK4    C1354723   6.325   9.611   1.295 -0.1252  0.1225  0.1976
  652HK4     H654724   6.261   9.586   1.209 -1.1519  0.6707  0.7953
  652HK4     C754725   6.555   9.690   1.636 -0.4444  0.0294 -0.0548
  652HK4     O254726   6.610   9.798   1.656  0.1766 -0.3467  0.2950
  652HK4     C454727   6.570   9.584   1.738 -0.1317  0.0355 -0.0963
  652HK4     C354728   6.599   9.618   1.870  0.5210 -0.1769 -0.1830
  652HK4     H354729   6.609   9.725   1.893 -0.1758 -0.4024  1.1896
  652HK4     C254730   6.635   9.525   1.967  0.2139 -0.3403 -0.2259
  652HK4     H254731   6.648   9.541   2.075 -3.6358  0.2230  0.2419
  652HK4     C154732   6.657   9.399   1.913  0.0033 -0.3296 -0.3376
  652HK4     H154733   6.691   9.328   1.990 -0.8235 -1.3064 -0.8630
  652HK4     C654734   6.640   9.360   1.778 -0.2383 -0.3556 -0.2999
  652HK4     C554735   6.588   9.453   1.688  0.5649  0.1723 -0.2297
  652HK4    C1054736   6.523   9.427   1.556  0.3495 -0.4069 -0.0113
  652HK4     O154737   6.559   9.325   1.497 -0.6606 -0.6629 -0.1913
  652HK4    C1654738   6.707   9.232   1.750  0.1899 -0.2949  0.4011
  652HK4    C1554739   6.731   9.135   1.849 -0.6756 -0.4059  0.5043
  652HK4     H754740   6.654   9.131   1.927 -0.6829  4.5137  0.8988
  652HK4    C2054741   6.828   9.036   1.834 -0.4998 -0.0904 -0.5172
  652HK4     H954742   6.853   8.970   1.917  0.9746 -0.6290 -1.3698
  652HK4    C1954743   6.904   9.026   1.718 -0.2750 -0.6230 -0.3236
  652HK4    C1854744   6.881   9.121   1.612  0.4803  0.0678  0.1222
  652HK4    C1754745   6.790   9.223   1.638 -0.2191 -0.5539  0.1172
  652HK4     H854746   6.800   9.316   1.584 -0.8964  0.0162  0.9452
  652HK4     N154747   6.937   9.091   1.486 -0.0646 -0.6020  0.0342
  652HK4    C2154748   7.014   8.977   1.515 -0.1679 -0.7902 -0.4319
  652HK4    C2254749   6.988   8.930   1.650  0.2451 -0.2721 -0.1701
  652HK4    C2654750   7.044   8.810   1.695 -0.5259 -0.6448 -0.1962
  652HK4    H1354751   7.033   8.786   1.800  1.4782 -0.1882  0.1390
  652HK4    C2554752   7.124   8.732   1.612 -0.2107 -0.4342 -0.0889
  652HK4    H1254753   7.177   8.650   1.660 -1.1345 -0.9455  0.0829
  652HK4    C2454754   7.159   8.782   1.487  0.3121 -0.0965  0.1905
  652HK4    H1154755   7.228   8.723   1.425  1.9815  1.0631  0.9263
  652HK4    C2354756   7.102   8.900   1.439  0.8549  0.0447 -0.1095
  652HK4    H1054757   7.111   8.933   1.336 -1.8801 -1.2514 -0.8249
  652HK4    C3954758   6.881   9.133   1.365  0.1495 -0.0372  0.1312
  652HK4    C4154759   6.965   9.130   1.252  0.0963 -0.3118  0.0997
  652HK4    H2154760   7.064   9.178   1.257 -0.7993  1.6029  0.1320
  652HK4    C4254761   6.921   9.084   1.128  0.2252  0.4414 -0.2282
  652HK4    H2254762   6.987   9.066   1.042  0.1060  2.0247 -0.6749
  652HK4    C4354763   6.790   9.039   1.120  0.1718  0.5909 -0.2010
  652HK4    H2354764   6.752   8.991   1.030  2.2137  0.5037 -1.0224
  652HK4    C4454765   6.700   9.050   1.226  0.0594 -0.4839 -0.1843
  652HK4    H2454766   6.593   9.027   1.211 -0.8149  2.4206  1.2078
  652HK4    C4554767   6.747   9.093   1.349  0.2010  0.0050 -0.4085
  652HK4    H2554768   6.678   9.119   1.430 -0.0239  2.5064 -1.3476
  653HK4    H2854769   5.541   7.258   6.765  0.1941 -1.9153 -0.1787
  653HK4    C4854770   5.454   7.229   6.823  0.1225 -0.1738  0.5963
  653HK4    C4754771   5.327   7.282   6.803 -0.0183 -0.9364 -0.5266
  653HK4    H2754772   5.314   7.352   6.719  0.1154  0.4455  0.5808
  653HK4    C4654773   5.220   7.241   6.881  0.0037  0.0128  0.0022
  653HK4    H2654774   5.131   7.306   6.880 -0.8298 -1.1159 -0.5078
  653HK4    C4054775   5.229   7.146   6.984  0.2444  0.0784  0.0421
  653HK4    C5054776   5.358   7.092   7.002 -0.0278 -0.5616  0.1010
  653HK4    H3054777   5.378   7.016   7.079  0.6537 -0.0193  0.4668
  653HK4    C4954778   5.466   7.136   6.926  0.1395 -0.2854  0.4939
  653HK4    H2954779   5.566   7.092   6.930  0.3677  0.1753 -0.1199
  653HK4     N254780   5.148   7.161   7.097  0.0511 -0.0077 -0.0817
  653HK4    C3054781   5.098   7.281   7.150  0.2294 -0.1508  0.4146
  653HK4    C2954782   5.151   7.409   7.141  0.2451 -0.1671  0.2765
  653HK4    H1554783   5.253   7.422   7.105 -0.9077  2.3744 -2.3477
  653HK4    C2854784   5.093   7.512   7.215 -0.3449  0.1302 -0.5980
  653HK4    C2754785   4.989   7.485   7.306 -0.2824  0.6382 -0.3719
  653HK4    H1454786   4.953   7.566   7.371  0.6707  2.3608 -1.9422
  653HK4    C3254787   4.935   7.357   7.317 -0.1471  0.5466 -0.7495
  653HK4    H1654788   4.861   7.333   7.393  1.4791 -2.6192 -0.0715
  653HK4    C3154789   4.983   7.256   7.235  0.1246 -0.1584  0.2709
  653HK4    C3454790   4.960   7.113   7.233 -0.6763 -0.0176 -0.5255
  653HK4    C3354791   5.063   7.060   7.146 -0.1366  0.1876 -0.0087
  653HK4    C3554792   5.088   6.923   7.147 -0.1894  0.1808  0.4314
  653HK4    H1754793   5.162   6.880   7.080  1.5031  1.8957  1.1447
  653HK4    C3654794   5.007   6.836   7.220 -0.4722  0.1450  0.0748
  653HK4    H1854795   5.024   6.729   7.203  2.5146  0.8670 -1.9365
  653HK4    C3754796   4.914   6.883   7.312 -0.4451  0.6438 -0.1494
  653HK4    H1954797   4.864   6.813   7.379  1.0304 -0.8456 -0.5448
  653HK4    C3854798   4.895   7.020   7.314 -0.1676  0.6722  0.6691
  653HK4    H2054799   4.815   7.057   7.379 -0.2734 -2.6613  2.5556
  653HK4    C1454800   5.169   7.637   7.225 -0.1122 -0.0241 -0.4356
  653HK4     C954801   5.184   7.707   7.346 -0.1245 -0.0263 -0.4326
  653HK4     C854802   5.186   7.848   7.341  0.6016 -0.0182  0.1086
  653HK4    C1154803   5.202   7.907   7.217  0.2215 -0.3842 -0.1178
  653HK4     H454804   5.217   8.016   7.214  1.1280 -0.4842  0.7344
  653HK4    C1254805   5.198   7.837   7.097 -0.4197 -0.0811 -0.2789
  653HK4     H554806   5.213   7.889   7.002  2.4484  2.7803  1.6299
  653HK4    C1354807   5.183   7.699   7.099  0.5658 -0.1984 -0.4476
  653HK4     H654808   5.158   7.639   7.010  2.0497 -1.0257 -0.3236
  653HK4     C754809   5.171   7.927   7.466  0.2924 -0.0100  0.0663
  653HK4     O254810   5.215   8.042   7.467  0.4024 -0.0530  0.1410
  653HK4     C454811   5.135   7.855   7.590  0.0387  0.3402  0.1972
  653HK4     C354812   5.087   7.931   7.695 -0.3982  0.3126  0.0188
  653HK4     H354813   5.045   8.029   7.668  1.0729  1.2711  1.0752
  653HK4     C254814   5.046   7.869   7.813  0.0653 -0.1251 -0.0507
  653HK4     H254815   5.012   7.929   7.898  1.0716  0.6068 -0.1567
  653HK4     C154816   5.051   7.730   7.814  0.0728 -0.1223  0.2418
  653HK4     H154817   5.014   7.674   7.902  1.2217 -0.8399  0.2795
  653HK4     C654818   5.087   7.647   7.706 -0.8687  0.1041 -0.2533
  653HK4     C554819   5.147   7.714   7.599 -0.1130  0.3341  0.3122
  653HK4    C1054820   5.201   7.644   7.480 -0.2595  0.7981 -0.0274
  653HK4     O154821   5.289   7.558   7.483 -0.7159  0.2836 -1.0989
  653HK4    C1654822   4.994   7.535   7.682 -0.3625 -0.3449 -0.1278
  653HK4    C1554823   4.862   7.534   7.730 -0.1291 -0.0093  0.5305
  653HK4     H754824   4.833   7.621   7.791 -1.1822  0.4738 -0.6474
  653HK4    C2054825   4.782   7.420   7.728 -0.4624  0.2310 -0.3289
  653HK4     H954826   4.676   7.441   7.737 -0.3567  0.2030  1.1412
  653HK4    C1954827   4.833   7.296   7.690 -0.5112  0.1418 -0.1109
  653HK4    C1854828   4.973   7.288   7.651 -0.4421 -0.1162  0.1899
  653HK4    C1754829   5.041   7.409   7.648  0.0139 -0.3683  0.4723
  653HK4     H854830   5.147   7.407   7.622 -0.5708  0.8684 -2.2109
  653HK4     N154831   5.017   7.155   7.637  0.1860  0.0823  0.2633
  653HK4    C2154832   4.899   7.079   7.658  0.4368 -0.3063  0.2843
  653HK4    C2254833   4.785   7.160   7.697  0.3378 -0.1664 -0.2757
  653HK4    C2654834   4.659   7.104   7.713  0.2761 -0.1239 -0.6157
  653HK4    H1354835   4.580   7.167   7.755 -1.4517 -0.1999 -3.6122
  653HK4    C2554836   4.646   6.967   7.696 -0.0688 -0.1390 -0.2510
  653HK4    H1254837   4.551   6.919   7.721 -2.0678  1.5606 -4.1869
  653HK4    C2454838   4.754   6.887   7.660  0.2671 -0.0255  0.4841
  653HK4    H1154839   4.745   6.778   7.668 -1.8623 -0.1262 -2.3831
  653HK4    C2354840   4.879   6.944   7.637  0.2454 -0.2175 -0.1175
  653HK4    H1054841   4.941   6.884   7.570 -1.1406 -3.4982  1.3883
  653HK4    C3954842   5.129   7.099   7.574  0.0609  0.0064  0.1084
  653HK4    C4154843   5.188   6.977   7.614  0.4327  0.2887  0.4175
  653HK4    H2154844   5.149   6.915   7.696  1.1060 -3.8105 -2.2558
  653HK4    C4254845   5.317   6.944   7.572  0.3073 -0.1407  0.3624
  653HK4    H2254846   5.363   6.853   7.611 -2.7445 -1.2792  1.4761
  653HK4    C4354847   5.382   7.018   7.474  0.1655  0.0272  0.3940
  653HK4    H2354848   5.463   6.979   7.413 -1.0597  0.2214 -1.3916
  653HK4    C4454849   5.331   7.141   7.436 -0.3730 -0.4479 -0.4445
  653HK4    H2454850   5.397   7.207   7.376 -0.7054 -0.9365 -1.3495
  653HK4    C4554851   5.207   7.176   7.486 -0.0955 -0.0159 -0.0486
  653HK4    H2554852   5.170   7.277   7.459 -1.4948 -0.7083 -0.7968
  654HK4    H2854853   4.831   8.488   2.933 -0.4130 -0.4175 -0.7603
  654HK4    C4854854   4.823   8.596   2.950 -0.2265 -0.4722 -0.3414
  654HK4    C4754855   4.730   8.649   3.038 -0.5992 -0.0703 -0.9754
  654HK4    H2754856   4.656   8.582   3.084  1.5985 -3.7200 -2.5491
  654HK4    C4654857   4.716   8.785   3.064  0.0702 -0.1515 -0.1778
  654HK4    H2654858   4.643   8.826   3.135  1.4563 -0.0238  1.2163
  654HK4    C4054859   4.808   8.872   3.002 -0.1077 -0.1968 -0.4975
  654HK4    C5054860   4.910   8.818   2.920 -0.2818 -0.0889 -0.7908
  654HK4    H3054861   4.975   8.888   2.866 -0.8645  0.4240 -0.8361
  654HK4    C4954862   4.910   8.683   2.886 -0.0174 -0.3283  0.1347
  654HK4    H2954863   5.001   8.639   2.842  0.7076  0.6176  0.6672
  654HK4     N254864   4.769   9.004   2.976  0.0103 -0.0887 -0.1260
  654HK4    C3054865   4.642   9.061   2.954 -0.0099 -0.0199  0.1838
  654HK4    C2954866   4.530   8.990   2.913  0.3564  0.0600 -0.9481
  654HK4    H1554867   4.548   8.895   2.862 -0.3521 -0.7624  0.3169
  654HK4    C2854868   4.408   9.057   2.906  0.2391 -0.0938 -0.3508
  654HK4    C2754869   4.412   9.197   2.922 -0.3145 -0.0632 -0.4775
  654HK4    H1454870   4.317   9.236   2.961  0.3734  0.9070  0.2625
  654HK4    C3254871   4.526   9.271   2.952  0.1551 -0.7070 -0.6684
  654HK4    H1654872   4.517   9.377   2.930 -0.4325 -0.7811 -0.8081
  654HK4    C3154873   4.645   9.203   2.978  0.4438  0.0211 -0.0953
  654HK4    C3454874   4.782   9.235   3.011  0.2426  0.1941  0.5738
  654HK4    C3354875   4.855   9.110   3.011 -0.0506  0.0199 -0.3089
  654HK4    C3554876   4.987   9.107   3.053 -0.1523 -0.0160  0.0069
  654HK4    H1754877   5.048   9.018   3.033  0.5398  0.1875  1.1558
  654HK4    C3654878   5.045   9.224   3.099  0.2789 -0.1090 -0.2883
  654HK4    H1854879   5.152   9.236   3.121  0.0174  0.7148  0.5667
  654HK4    C3754880   4.973   9.343   3.095  0.1188 -0.1971 -0.1028
  654HK4    H1954881   5.030   9.433   3.118 -1.7127  0.4747  2.0347
  654HK4    C3854882   4.841   9.354   3.053  0.2204  0.4930 -0.2471
  654HK4    H2054883   4.785   9.447   3.040 -0.3512  0.3963  1.4361
  654HK4    C1454884   4.290   8.980   2.865  0.3514 -0.0512 -0.7458
  654HK4     C954885   4.180   9.034   2.797 -0.1643  0.0468  0.1590
  654HK4     C854886   4.049   9.004   2.840 -0.2270  0.0053 -0.0587
  654HK4    C1154887   4.029   8.898   2.927  0.2124 -0.2296 -0.2395
  654HK4     H454888   3.928   8.879   2.967 -0.3792 -0.1545 -1.6991
  654HK4    C1254889   4.137   8.829   2.982  0.0674 -0.2864 -0.0260
  654HK4     H554890   4.130   8.736   3.041  0.2070  0.9464  1.9601
  654HK4    C1354891   4.265   8.876   2.957 -0.2802  0.5425 -0.2379
  654HK4     H654892   4.350   8.820   2.998 -0.2519  0.2340 -0.7168
  654HK4     C754893   3.931   9.060   2.772 -0.1307  0.2673 -0.0079
  654HK4     O254894   3.829   9.073   2.840 -0.0050  0.2122  0.1883
  654HK4     C454895   3.944   9.126   2.639  0.1959 -0.0820 -0.1493
  654HK4     C354896   3.834   9.188   2.581  0.0077  0.0418  0.3336
  654HK4     H354897   3.737   9.178   2.632  0.9853 -0.1312  2.2149
  654HK4     C254898   3.849   9.261   2.464  0.1125  0.4025  0.5718
  654HK4     H254899   3.767   9.314   2.414  0.6380  0.8782  0.2085
  654HK4     C154900   3.971   9.245   2.399 -0.3065  0.2851 -0.1845
  654HK4     H154901   3.990   9.331   2.333  1.6492 -0.2897 -0.4087
  654HK4     C654902   4.073   9.159   2.443 -0.5194  0.3791  0.5040
  654HK4     C554903   4.069   9.117   2.577  0.3573 -0.5646  0.2383
  654HK4    C1054904   4.191   9.091   2.659  0.5010  0.2778  0.3022
  654HK4     O154905   4.298   9.142   2.629  0.2917  0.5015 -0.0633
  654HK4    C1654906   4.154   9.085   2.345 -0.3924  0.4672  0.5425
  654HK4    C1554907   4.143   9.123   2.210  0.1688 -0.0308  0.3525
  654HK4     H754908   4.086   9.212   2.179  1.3545  0.7758  0.4637
  654HK4    C2054909   4.210   9.049   2.113 -0.4785 -0.3874  0.1732
  654HK4     H954910   4.193   9.087   2.012  2.6524 -0.2328 -0.3257
  654HK4    C1954911   4.291   8.940   2.141 -0.1797 -0.1715  0.1515
  654HK4    C1854912   4.302   8.902   2.280  0.2397 -0.0043  0.1655
  654HK4    C1754913   4.231   8.974   2.376  0.1757  0.6104 -0.3429
  654HK4     H854914   4.219   8.924   2.472  2.6792  0.4337 -0.0842
  654HK4     N154915   4.395   8.797   2.296 -0.3396 -0.5942 -0.2589
  654HK4    C2154916   4.430   8.763   2.163 -0.5608 -0.3278 -0.3859
  654HK4    C2254917   4.383   8.858   2.064 -0.3500 -0.0318 -0.2038
  654HK4    C2654918   4.395   8.838   1.927  0.3430  0.0868 -0.1601
  654HK4    H1354919   4.325   8.885   1.858  1.5849 -0.9615 -2.1817
  654HK4    C2554920   4.468   8.727   1.887  0.6497 -0.0921  0.8691
  654HK4    H1254921   4.472   8.697   1.782  0.7762  0.1332  0.8117
  654HK4    C2454922   4.525   8.640   1.979 -0.0444 -1.1578  0.3050
  654HK4    H1154923   4.560   8.542   1.943 -2.4062 -1.3546 -1.5863
  654HK4    C2354924   4.504   8.656   2.116  0.1020 -0.1330  0.2083
  654HK4    H1054925   4.546   8.583   2.185  0.0559 -0.1311  0.2383
  654HK4    C3954926   4.481   8.790   2.406 -0.1581 -0.0634 -0.3651
  654HK4    C4154927   4.535   8.665   2.441  0.0103  0.1421  0.1293
  654HK4    H2154928   4.498   8.570   2.400 -1.0125  0.9635 -0.8746
  654HK4    C4254929   4.624   8.656   2.548  0.1272  0.0417  0.0233
  654HK4    H2254930   4.670   8.560   2.574  1.1669 -0.5364 -3.6126
  654HK4    C4354931   4.656   8.769   2.622  0.4247  0.2647 -0.4416
  654HK4    H2354932   4.749   8.754   2.677 -0.8305 -2.7988  1.0142
  654HK4    C4454933   4.607   8.895   2.591  0.3213  0.3378  0.0171
  654HK4    H2454934   4.644   8.986   2.641  0.9762 -0.2113  0.5315
  654HK4    C4554935   4.522   8.903   2.481  0.9286 -0.3681 -0.4986
  654HK4    H2554936   4.462   8.994   2.490  2.9679  0.9521  0.2874
  655HK4    H2854937   2.282   4.111  10.700 -0.2417 -0.6598 -0.1986
  655HK4    C4854938   2.250   4.087  10.598  0.1391  0.6788 -0.6451
  655HK4    C4754939   2.184   3.967  10.574  0.0219  0.7300 -0.5724
  655HK4    H2754940   2.177   3.908  10.667  0.8486  2.9682  0.9758
  655HK4    C4654941   2.175   3.922  10.443  0.6705 -1.1421  0.0125
  655HK4    H2654942   2.095   3.847  10.429 -0.7724  0.1324  1.1715
  655HK4    C4054943   2.233   3.987  10.333  0.2071 -0.7642 -0.0117
  655HK4    C5054944   2.304   4.105  10.365  0.0073 -0.7225  0.2845
  655HK4    H3054945   2.349   4.167  10.285  0.4615  0.7037  1.6160
  655HK4    C4954946   2.314   4.154  10.495  0.1942  1.0376 -0.3810
  655HK4    H2954947   2.361   4.251  10.512 -0.5710  1.9948 -3.3329
  655HK4     N254948   2.245   3.928  10.207 -0.0487 -0.3782 -0.2205
  655HK4    C3054949   2.243   3.788  10.188 -0.2745 -0.3974 -0.0524
  655HK4    C2954950   2.268   3.684  10.277  0.6066 -0.0145  0.1500
  655HK4    H1554951   2.321   3.700  10.371 -1.0253 -1.2554  1.3186
  655HK4    C2854952   2.263   3.550  10.237  0.0227 -0.0290  0.2750
  655HK4    C2754953   2.229   3.526  10.103 -0.2987  0.2694  0.2979
  655HK4    H1454954   2.228   3.423  10.063  0.8351  1.5161 -3.0811
  655HK4    C3254955   2.194   3.625  10.012 -0.1537 -0.4096 -0.5051
  655HK4    H1654956   2.150   3.600   9.915  2.7159 -0.2284 -1.9069
  655HK4    C3154957   2.201   3.758  10.053  0.1701 -0.5340 -0.1606
  655HK4    C3454958   2.173   3.885   9.989  0.0329 -0.2945  0.3766
  655HK4    C3354959   2.197   3.987  10.089 -0.6904  0.0188  0.2341
  655HK4    C3554960   2.153   4.117  10.069 -0.9048 -0.0091  0.5233
  655HK4    H1754961   2.154   4.194  10.146  0.6590 -0.2473  0.7505
  655HK4    C3654962   2.082   4.141   9.952  0.3554 -0.0249 -0.2515
  655HK4    H1854963   2.029   4.237   9.944  2.0342  1.0664  1.2329
  655HK4    C3754964   2.063   4.050   9.848  0.1153 -0.0755 -0.1610
  655HK4    H1954965   2.015   4.081   9.755 -0.9941 -1.3661 -0.0275
  655HK4    C3854966   2.110   3.921   9.870 -0.4742 -0.1455  0.6873
  655HK4    H2054967   2.069   3.839   9.812  1.8693  0.7230 -2.2840
  655HK4    C1454968   2.331   3.442  10.310 -0.0503 -0.2157  0.0642
  655HK4     C954969   2.390   3.326  10.258  0.8228  0.2661 -0.0212
  655HK4     C854970   2.368   3.202  10.322  0.5295  0.1940 -0.2592
  655HK4    C1154971   2.318   3.201  10.452  0.4603 -0.1031 -0.2861
  655HK4     H454972   2.280   3.105  10.489  2.5513 -1.0381 -0.4586
  655HK4    C1254973   2.286   3.318  10.520 -1.0634 -0.3975 -0.4935
  655HK4     H554974   2.288   3.323  10.630  1.1452  3.0158 -0.6267
  655HK4    C1354975   2.291   3.435  10.445 -0.0335 -0.0793  0.0772
  655HK4     H654976   2.294   3.529  10.504  1.2128  0.5896 -1.0342
  655HK4     C754977   2.396   3.075  10.252  0.5655  0.1889 -0.2322
  655HK4     O254978   2.371   2.968  10.308 -0.1586  0.3033 -0.3332
  655HK4     C454979   2.458   3.075  10.118  0.3311 -0.2379 -0.3417
  655HK4     C354980   2.455   2.960  10.039 -0.7008  0.1908 -0.9464
  655HK4     H354981   2.409   2.867  10.076 -0.4946  0.3326 -0.3292
  655HK4     C254982   2.515   2.959   9.914 -0.3785  0.0215 -0.7911
  655HK4     H254983   2.494   2.875   9.846  0.2471 -1.4371  0.7975
  655HK4     C154984   2.596   3.067   9.884 -0.3297  0.0357 -0.6118
  655HK4     H154985   2.646   3.062   9.786 -1.3781  1.1748 -1.2149
  655HK4     C654986   2.611   3.182   9.964  0.2269 -0.2761 -0.2592
  655HK4     C554987   2.529   3.190  10.078 -0.2900  0.0477 -0.6480
  655HK4    C1054988   2.491   3.315  10.150  0.7489  0.0401 -0.0636
  655HK4     O154989   2.536   3.423  10.113  0.0452  0.4370  0.2414
  655HK4    C1654990   2.701   3.285   9.910  0.0301  0.1598  0.2392
  655HK4    C1554991   2.715   3.293   9.770 -0.3056 -0.3185  0.1768
  655HK4     H754992   2.635   3.256   9.705 -0.5266 -0.4950  0.5448
  655HK4    C2054993   2.825   3.358   9.715 -0.6125  0.3448  0.3430
  655HK4     H954994   2.843   3.340   9.609 -0.2211  0.7050  0.3486
  655HK4    C1954995   2.930   3.410   9.790  0.1781 -1.3217  0.4165
  655HK4    C1854996   2.910   3.405   9.933 -0.1489  0.0968  0.4288
  655HK4    C1754997   2.795   3.350   9.989  0.0788 -0.2696  0.5386
  655HK4     H854998   2.772   3.378  10.092  1.1664 -1.4141  1.1080
  655HK4     N154999   3.033   3.411  10.002 -0.0777  0.2796  0.2896
  655HK4    C2155000   3.134   3.421   9.904 -0.0302 -0.2591  0.2799
  655HK4    C2255001   3.072   3.431   9.773 -0.0558  0.2398  0.3281
  655HK4    C2655002   3.145   3.468   9.661  0.2416 -0.5958  0.2455
  655HK4    H1355003   3.106   3.491   9.562  0.1574  2.4257  0.9426
  655HK4    C2555004   3.282   3.486   9.672  0.0952  1.1385 -0.5870
  655HK4    H1255005   3.338   3.536   9.593  0.1849  1.1152 -0.5397
  655HK4    C2455006   3.345   3.467   9.795 -0.6745 -0.6406 -0.4673
  655HK4    H1155007   3.452   3.489   9.805 -0.4399 -2.0459  0.2720
  655HK4    C2355008   3.272   3.437   9.909 -0.1183  0.5595  0.2134
  655HK4    H1055009   3.328   3.394   9.992 -1.9048 -3.1043 -0.3390
  655HK4    C3955010   3.048   3.461  10.132 -0.3933  0.4946  0.2420
  655HK4    C4155011   3.159   3.416  10.206 -0.4587  0.1313  0.1255
  655HK4    H2155012   3.221   3.329  10.180  0.5781  1.2158 -1.0754
  655HK4    C4255013   3.189   3.475  10.329  0.2410  0.0717 -0.0166
  655HK4    H2255014   3.281   3.432  10.372 -0.5979 -1.6643  0.0994
  655HK4    C4355015   3.109   3.575  10.381 -0.1041 -0.2088 -0.0093
  655HK4    H2355016   3.135   3.616  10.479  1.0762  2.4224 -1.3516
  655HK4    C4455017   2.999   3.624  10.311 -0.3763  0.0163  0.5763
  655HK4    H2455018   2.957   3.722  10.339 -1.9798 -0.9806  1.7324
  655HK4    C4555019   2.975   3.569  10.186 -0.6861  0.1275  0.5846
  655HK4    H2555020   2.905   3.623  10.121 -0.5479  0.6727  0.8843
  656HK4    H2855021   3.569   2.331   5.842  1.3971  0.9832 -0.3831
  656HK4    C4855022   3.537   2.360   5.742 -0.6058 -0.0533 -0.0622
  656HK4    C4755023   3.491   2.262   5.654  0.1075  0.0835 -0.5921
  656HK4    H2755024   3.499   2.157   5.687 -0.3561  1.1561  3.2242
  656HK4    C4655025   3.425   2.306   5.540  0.2101  0.0168 -0.6769
  656HK4    H2655026   3.380   2.224   5.481 -1.8971  0.0088  0.8702
  656HK4    C4055027   3.404   2.441   5.506 -0.1134  0.2768  0.5403
  656HK4    C5055028   3.450   2.533   5.603 -0.2502  0.5105  0.3841
  656HK4    H3055029   3.440   2.641   5.584 -1.5529  0.7002  1.9818
  656HK4    C4955030   3.520   2.495   5.717  0.3702  0.0532 -0.1482
  656HK4    H2955031   3.549   2.565   5.797  2.3687  0.5922 -1.2996
  656HK4     N255032   3.392   2.487   5.375 -0.4579 -0.5353  0.2872
  656HK4    C3055033   3.444   2.422   5.261 -0.3288 -0.0332  0.0610
  656HK4    C2955034   3.555   2.339   5.245 -0.2538  0.1962 -0.6448
  656HK4    H1555035   3.578   2.284   5.336  2.0664  0.6129 -0.9670
  656HK4    C2855036   3.621   2.315   5.125  0.1033 -0.0798 -0.3923
  656HK4    C2755037   3.562   2.375   5.012 -0.4230 -0.4432 -0.3102
  656HK4    H1455038   3.597   2.334   4.917  3.9978 -3.7595  2.5505
  656HK4    C3255039   3.450   2.457   5.017  0.2804  0.5030  0.1733
  656HK4    H1655040   3.416   2.505   4.925  0.3776  1.8407  0.8316
  656HK4    C3155041   3.395   2.488   5.141 -0.1868  0.0926  0.0729
  656HK4    C3455042   3.305   2.594   5.179  0.5015  0.5191  0.5248
  656HK4    C3355043   3.314   2.593   5.324  0.6313  0.3741  0.5148
  656HK4    C3555044   3.253   2.701   5.387  0.1477  0.6818 -0.4588
  656HK4    H1755045   3.242   2.696   5.496  1.6124  0.1279 -0.3084
  656HK4    C3655046   3.185   2.800   5.319 -0.5057  0.2973 -0.3705
  656HK4    H1855047   3.109   2.851   5.380 -0.7332 -0.2823 -0.1674
  656HK4    C3755048   3.176   2.800   5.180  0.4199 -0.0677 -0.4313
  656HK4    H1955049   3.108   2.867   5.128 -0.5678 -0.7191  0.0126
  656HK4    C3855050   3.241   2.698   5.112  0.2222 -0.2309 -0.3745
  656HK4    H2055051   3.222   2.682   5.005 -1.5284  1.3517 -0.3161
  656HK4    C1455052   3.752   2.249   5.128  0.2021  0.1406  0.1658
  656HK4     C955053   3.850   2.269   5.030 -0.0099 -0.2762 -0.1265
  656HK4     C855054   3.937   2.162   4.997  0.1541 -0.1811 -0.0016
  656HK4    C1155055   3.932   2.050   5.079 -0.4652 -0.2920 -0.1879
  656HK4     H455056   3.984   1.955   5.061  0.0503 -0.3262  1.4267
  656HK4    C1255057   3.857   2.042   5.196 -0.4958 -0.4160 -0.2147
  656HK4     H555058   3.849   1.949   5.254 -1.1210 -0.1821  0.0803
  656HK4    C1355059   3.769   2.146   5.223 -0.6170 -0.4799 -0.3654
  656HK4     H655060   3.715   2.142   5.319  0.3317 -2.3239  0.1154
  656HK4     C755061   4.022   2.179   4.877  0.2369 -0.0018  0.0812
  656HK4     O255062   4.100   2.088   4.852  0.0451 -0.1223 -0.0736
  656HK4     C455063   4.022   2.300   4.792 -0.1825 -0.1857 -0.1818
  656HK4     C355064   4.094   2.300   4.673  0.2480  0.0810  0.0775
  656HK4     H355065   4.159   2.215   4.648 -0.2758 -1.0139  2.2401
  656HK4     C255066   4.101   2.415   4.595 -0.0498  0.0110 -0.0537
  656HK4     H255067   4.158   2.414   4.501 -1.5347  0.5673 -0.9744
  656HK4     C155068   4.030   2.523   4.646  0.4242  0.1028  0.4177
  656HK4     H155069   4.052   2.624   4.609 -0.1953  0.7740  1.8133
  656HK4     C655070   3.949   2.528   4.761 -0.3769 -0.2866 -0.1263
  656HK4     C555071   3.953   2.413   4.841  0.2937 -0.0497  0.1892
  656HK4    C1055072   3.875   2.402   4.968  0.0028 -0.2198 -0.0029
  656HK4     O155073   3.886   2.497   5.044 -0.2201 -0.1768 -0.0252
  656HK4    C1655074   3.826   2.604   4.731  0.1658  0.6226 -0.0802
  656HK4    C1555075   3.769   2.612   4.602 -0.1298 -0.8670 -0.0500
  656HK4     H755076   3.821   2.570   4.514 -0.0357  1.4866 -1.1512
  656HK4    C2055077   3.655   2.686   4.574  0.1812 -0.3691  0.0091
  656HK4     H955078   3.601   2.673   4.481  0.5462  0.0925 -0.2675
  656HK4    C1955079   3.590   2.754   4.677  0.1413 -0.3703 -0.0159
  656HK4    C1855080   3.646   2.749   4.810 -0.0819 -0.4816  0.0760
  656HK4    C1755081   3.767   2.682   4.829  0.1874  0.0814  0.3710
  656HK4     H855082   3.828   2.714   4.913  1.4445 -0.5049 -0.3029
  656HK4     N155083   3.571   2.829   4.899  0.0782 -0.0852 -0.1432
  656HK4    C2155084   3.466   2.883   4.821 -0.1157 -0.4753 -0.1555
  656HK4    C2255085   3.475   2.842   4.682 -0.0448 -0.6066 -0.1128
  656HK4    C2655086   3.400   2.902   4.581 -0.2061  0.2038  0.4882
  656HK4    H1355087   3.420   2.884   4.475 -1.1299  2.7838 -0.1621
  656HK4    C2555088   3.309   3.003   4.611 -0.1719  0.3576  0.0808
  656HK4    H1255089   3.251   3.049   4.531 -1.2795 -0.8846  0.1590
  656HK4    C2455090   3.299   3.041   4.744 -0.1080 -0.9721  0.4749
  656HK4    H1155091   3.215   3.107   4.772 -0.0560 -2.2245  3.9059
  656HK4    C2355092   3.371   2.980   4.846  0.0852 -0.4828  0.6343
  656HK4    H1055093   3.333   3.005   4.946 -0.2588  2.0589 -0.0867
  656HK4    C3955094   3.595   2.848   5.035 -0.6575 -0.2394  0.0094
  656HK4    C4155095   3.551   2.963   5.104 -0.4088 -0.2206  0.1367
  656HK4    H2155096   3.542   3.058   5.050 -1.1590  0.2356  1.0457
  656HK4    C4255097   3.533   2.967   5.242  0.2024 -0.2918  0.2200
  656HK4    H2255098   3.482   3.050   5.292  0.6092 -1.8775  3.4594
  656HK4    C4355099   3.573   2.856   5.316  0.1990 -0.5705 -0.1983
  656HK4    H2355100   3.535   2.849   5.418  4.5286  1.0118  1.6245
  656HK4    C4455101   3.618   2.740   5.253 -0.2062 -0.4824 -0.6508
  656HK4    H2455102   3.654   2.664   5.323 -0.4077  0.9399  1.0402
  656HK4    C4555103   3.633   2.737   5.114 -0.1321 -0.5290 -0.6426
  656HK4    H2555104   3.661   2.645   5.062  2.2763 -0.1292 -0.1317
  657HK4    H2855105   0.157   7.132   1.375  0.1240 -0.8256 -0.9772
  657HK4    C4855106   0.149   7.203   1.293  0.3483  0.2300 -0.0846
  657HK4    C4755107   0.224   7.181   1.178  0.3490  0.4808 -0.1325
  657HK4    H2755108   0.286   7.090   1.176  1.0338  0.9550 -0.8914
  657HK4    C4655109   0.226   7.266   1.068 -0.3663  0.6414 -0.0234
  657HK4    H2655110   0.265   7.218   0.977  0.9106  0.9233  0.3634
  657HK4    C4055111   0.160   7.391   1.071 -0.4847  0.5805 -0.1154
  657HK4    C5055112   0.075   7.405   1.182 -0.2090 -0.0918  0.1827
  657HK4    H3055113   0.011   7.495   1.180  2.2601  1.7148 -0.7649
  657HK4    C4955114   0.080   7.324   1.294 -0.2842 -0.1324  0.1558
  657HK4    H2955115   0.012   7.356   1.375 -2.2805  1.2196 -2.0064
  657HK4     N255116   0.229   7.501   1.017  0.1201  0.4463  0.3684
  657HK4    C3055117   0.364   7.516   0.980  0.2305  0.3756  0.7450
  657HK4    C2955118   0.477   7.443   1.016  0.0218 -0.4905 -0.3478
  657HK4    H1555119   0.463   7.373   1.098 -1.0257  0.3957  0.2473
  657HK4    C2855120   0.603   7.467   0.963 -0.0141  0.2658 -0.0930
  657HK4    C2755121   0.618   7.577   0.877 -0.2779  0.2336 -0.1814
  657HK4    H1455122   0.714   7.580   0.822 -0.0914  0.4525  0.1575
  657HK4    C3255123   0.510   7.659   0.846 -0.2754  0.3741  0.1852
  657HK4    H1655124   0.523   7.755   0.796  0.8472  1.1967  2.0020
  657HK4    C3155125   0.382   7.627   0.888 -0.2220 -0.3178 -0.1859
  657HK4    C3455126   0.249   7.683   0.875 -0.1286 -0.1025 -0.2030
  657HK4    C3355127   0.157   7.606   0.956 -0.0734  0.1736  0.1232
  657HK4    C3555128   0.022   7.641   0.956 -0.2012 -0.3279 -0.2425
  657HK4    H1755129  11.198   7.582   1.012 -1.4668  0.2973 -1.2030
  657HK4    C3655130  11.221   7.741   0.873 -0.1967 -0.1246  0.0010
  657HK4    H1855131  11.114   7.761   0.865  0.4296  3.2034 -0.9082
  657HK4    C3755132   0.065   7.811   0.795 -0.0493 -0.4243 -0.0940
  657HK4    H1955133   0.018   7.883   0.728  0.0221  2.3265  2.6927
  657HK4    C3855134   0.202   7.787   0.795 -0.0207 -0.2669 -0.4804
  657HK4    H2055135   0.267   7.832   0.721  1.2270 -0.1103  0.7007
  657HK4    C1455136   0.716   7.400   1.028  0.0821  0.1707 -0.3567
  657HK4     C955137   0.841   7.459   1.053 -0.0219  0.1511  0.2238
  657HK4     C855138   0.955   7.377   1.062 -0.0538  0.1496  0.6226
  657HK4    C1155139   0.944   7.239   1.043  0.0870  0.2086  0.1192
  657HK4     H455140   1.036   7.180   1.051 -0.1920 -0.1888  0.3878
  657HK4    C1255141   0.823   7.177   1.014  0.1093  0.0557  0.3561
  657HK4     H555142   0.821   7.075   0.974 -0.4401  0.0321  0.4478
  657HK4    C1355143   0.712   7.260   1.012  0.1710  0.1293 -0.0201
  657HK4     H655144   0.612   7.214   1.023  0.6750 -0.6476  1.4894
  657HK4     C755145   1.088   7.437   1.085  0.0937  0.1304 -0.1713
  657HK4     O255146   1.181   7.372   1.132 -0.3586 -0.5850 -0.2588
  657HK4     C455147   1.102   7.584   1.089  0.0956  0.1333 -0.2784
  657HK4     C355148   1.228   7.642   1.095  0.0527  0.2453 -0.4537
  657HK4     H355149   1.305   7.582   1.145  0.1579  1.4637  0.8672
  657HK4     C255150   1.242   7.780   1.080  0.0606  0.3093  0.1305
  657HK4     H255151   1.335   7.827   1.116  0.2142 -0.2369  0.4588
  657HK4     C155152   1.130   7.854   1.044  0.3429  0.8014  0.2670
  657HK4     H155153   1.142   7.955   1.003 -0.4977  0.6062 -0.4619
  657HK4     C655154   1.001   7.799   1.032  0.7937 -0.2216 -0.0065
  657HK4     C555155   0.988   7.665   1.071 -0.1223 -0.0127  0.4140
  657HK4    C1055156   0.851   7.606   1.076 -0.2491  0.2231 -0.1281
  657HK4     O155157   0.777   7.657   1.160 -0.0230  0.0296  0.1906
  657HK4    C1655158   0.909   7.858   0.934  0.5114 -0.3688  0.1693
  657HK4    C1555159   0.961   7.914   0.816  0.0844 -0.7272 -0.1934
  657HK4     H755160   1.065   7.893   0.786 -0.6637 -0.1384 -3.3908
  657HK4    C2055161   0.889   8.004   0.738  0.4068  0.1275  0.4774
  657HK4     H955162   0.921   8.044   0.641 -1.6801 -0.9365 -0.6868
  657HK4    C1955163   0.760   8.044   0.770 -0.2416 -0.9504 -0.7109
  657HK4    C1855164   0.703   7.981   0.887  0.3766  0.2257  0.2454
  657HK4    C1755165   0.780   7.899   0.968  0.4559 -0.1937 -0.2522
  657HK4     H855166   0.746   7.892   1.071  0.9461  0.7805 -0.0216
  657HK4     N155167   0.572   8.028   0.911  0.0363 -0.5423 -0.0811
  657HK4    C2155168   0.543   8.108   0.799 -0.0288 -0.5026 -0.0368
  657HK4    C2255169   0.656   8.125   0.710  0.0840  0.1871  0.2313
  657HK4    C2655170   0.650   8.210   0.600  0.1286 -0.3433 -0.1881
  657HK4    H1355171   0.743   8.249   0.560 -0.5393 -0.0513 -1.4863
  657HK4    C2555172   0.532   8.278   0.569  0.4111  0.4929  0.5497
  657HK4    H1255173   0.527   8.331   0.474 -1.7898  1.3881  1.1420
  657HK4    C2455174   0.422   8.263   0.653 -0.1378 -0.1869 -0.2765
  657HK4    H1155175   0.326   8.307   0.623  1.0003  0.7261 -2.7229
  657HK4    C2355176   0.429   8.179   0.764 -0.0214 -0.8609 -0.7878
  657HK4    H1055177   0.337   8.155   0.817 -0.0277  2.1094  0.7067
  657HK4    C3955178   0.489   8.004   1.021  0.2528  0.3128  0.2681
  657HK4    C4155179   0.372   8.080   1.043  0.1027  0.1071  0.1810
  657HK4    H2155180   0.374   8.185   1.011  2.3421 -0.0069 -0.0989
  657HK4    C4255181   0.270   8.045   1.132 -0.3573 -0.6585 -0.6445
  657HK4    H2255182   0.183   8.107   1.157 -0.8832 -0.1906 -3.3913
  657HK4    C4355183   0.281   7.922   1.197 -0.7021 -0.1830  0.3143
  657HK4    H2355184   0.208   7.892   1.271 -0.8108 -0.1468  0.2229
  657HK4    C4455185   0.386   7.836   1.169 -0.4333  0.3303 -0.2756
  657HK4    H2455186   0.392   7.736   1.214 -1.0094  0.4655  0.1039
  657HK4    C4555187   0.491   7.880   1.088 -0.1122  0.1981  0.0646
  657HK4    H2555188   0.559   7.806   1.045  1.0536  1.0216  0.4806
  658HK4    H2855189   8.547   0.017   9.618 -0.5004  1.1082  0.2903
  658HK4    C4855190   8.476  11.228   9.692 -0.0788  0.0668  0.1849
  658HK4    C4755191   8.347   0.032   9.705 -0.3498 -0.5528  0.0239
  658HK4    H2755192   8.317   0.112   9.636 -1.2252 -0.1705  0.8391
  658HK4    C4655193   8.265  11.236   9.809 -0.6862 -0.3656 -0.1616
  658HK4    H2655194   8.159   0.016   9.812 -0.3131  0.9333  2.0929
  658HK4    C4055195   8.305  11.136   9.900  0.2016  0.3393  0.2268
  658HK4    C5055196   8.437  11.090   9.886  0.0543  0.0607 -0.2778
  658HK4    H3055197   8.485  11.028   9.964 -0.2950  1.6681  1.2420
  658HK4    C4955198   8.519  11.132   9.782  0.3535  0.0435 -0.0483
  658HK4    H2955199   8.615  11.078   9.782  0.5614  0.3944  1.0152
  658HK4     N255200   8.218  11.096  10.002  0.4414  0.3724  0.4437
  658HK4    C3055201   8.094  11.156  10.034  0.1845 -0.0524  0.2667
  658HK4    C2955202   8.073   0.045  10.048 -0.0498 -0.0023 -0.5814
  658HK4    H1555203   8.155   0.113  10.023  1.8186 -1.7721  0.5997
  658HK4    C2855204   7.957   0.099  10.102  0.5089  0.4513  0.1778
  658HK4    C2755205   7.866   0.006  10.157  0.6463 -0.0538 -0.4431
  658HK4    H1455206   7.771   0.039  10.202  1.0151  2.1784 -1.2622
  658HK4    C3255207   7.894  11.117  10.157 -0.5009 -0.2911 -1.0913
  658HK4    H1655208   7.824  11.048  10.204 -0.9290  1.0814  0.3384
  658HK4    C3155209   8.008  11.061  10.102  0.5574 -0.0279  0.7772
  658HK4    C3455210   8.081  10.936  10.115  0.5302 -0.0702  0.5588
  658HK4    C3355211   8.208  10.964  10.050  0.0480  0.1219 -0.3055
  658HK4    C3555212   8.309  10.873  10.077 -0.0939  0.0579  0.0098
  658HK4    H1755213   8.398  10.865  10.014 -0.1503  0.8908 -0.1822
  658HK4    C3655214   8.289  10.770  10.169  0.0047  0.7225  0.7853
  658HK4    H1855215   8.377  10.708  10.191  0.1319 -0.2471 -2.2716
  658HK4    C3755216   8.168  10.748  10.234 -0.1590 -1.1680 -0.1491
  658HK4    H1955217   8.177  10.700  10.332  1.2060 -0.0651  0.2807
  658HK4    C3855218   8.059  10.825  10.196  0.2591 -0.6662 -0.3328
  658HK4    H2055219   7.960  10.788  10.224 -0.6659  2.1605  0.3844
  658HK4    C1455220   7.955   0.241  10.140 -0.4733  0.5094 -0.0656
  658HK4     C955221   7.892   0.285  10.257 -0.6380 -0.1000  0.0807
  658HK4     C855222   7.849   0.419  10.259  0.0453  0.1246 -0.0875
  658HK4    C1155223   7.876   0.510  10.158 -0.2887  0.3862  0.0576
  658HK4     H455224   7.867   0.620  10.162  0.7617  0.4322  1.5655
  658HK4    C1255225   7.935   0.461  10.042 -0.1913 -0.1721  0.3420
  658HK4     H555226   7.939   0.524   9.952  0.0804 -1.2356 -0.4005
  658HK4    C1355227   7.983   0.331  10.036  0.3601  0.0568 -0.2374
  658HK4     H655228   8.020   0.291   9.940 -1.3559 -0.3385 -0.7571
  658HK4     C755229   7.743   0.457  10.356  0.2319  0.0842  0.1341
  658HK4     O255230   7.721   0.576  10.378 -0.5497 -0.1294  0.5478
  658HK4     C455231   7.686   0.353  10.444 -0.3542  0.0290 -0.3047
  658HK4     C355232   7.577   0.384  10.525  0.4694  0.1536  0.7795
  658HK4     H355233   7.529   0.482  10.511  0.3129 -0.2102 -1.5310
  658HK4     C255234   7.536   0.300  10.628 -0.4430 -0.1676  0.1673
  658HK4     H255235   7.442   0.313  10.684  0.3603 -0.5647  1.6330
  658HK4     C155236   7.606   0.181  10.644  0.0792  0.2806  1.3056
  658HK4     H155237   7.588   0.112  10.728  0.2909 -0.6476  0.6071
  658HK4     C655238   7.710   0.137  10.560 -0.6520  0.5989  0.2264
  658HK4     C555239   7.756   0.233  10.468 -0.0952  0.2753  0.1658
  658HK4    C1055240   7.872   0.203  10.380 -0.2398 -0.1406  0.1195
  658HK4     O155241   7.973   0.155  10.430 -0.1165  0.2710  0.2625
  658HK4    C1655242   7.710  11.241  10.532  0.0306  0.6459 -0.0401
  658HK4    C1555243   7.585  11.176  10.527  0.2523  0.1746  0.4368
  658HK4     H755244   7.496  11.233  10.493 -2.1456 -1.6631  3.3429
  658HK4    C2055245   7.569  11.041  10.555 -0.3326  0.0701 -0.3892
  658HK4     H955246   7.469  11.014  10.589 -1.0764 -0.7660 -3.0983
  658HK4    C1955247   7.682  10.960  10.560 -0.3235  0.0644 -0.6743
  658HK4    C1855248   7.810  11.027  10.562 -0.1933 -0.2124  0.3875
  658HK4    C1755249   7.822  11.166  10.563 -0.5320 -0.1799  0.0092
  658HK4     H855250   7.910  11.216  10.602 -0.1475 -0.0347 -1.0292
  658HK4     N155251   7.908  10.926  10.556 -0.1826 -0.1746 -0.1075
  658HK4    C2155252   7.852  10.798  10.539  0.1101 -0.3962  0.5910
  658HK4    C2255253   7.708  10.820  10.536  0.1505 -0.1038  0.7849
  658HK4    C2655254   7.621  10.715  10.510  0.5424 -0.1227 -0.5187
  658HK4    H1355255   7.514  10.738  10.509  0.7047  0.6395 -1.1749
  658HK4    C2555256   7.667  10.585  10.493 -0.2423 -0.5801  0.8075
  658HK4    H1255257   7.597  10.503  10.474  0.2715 -0.6662 -0.7402
  658HK4    C2455258   7.805  10.568  10.489 -0.1655  0.2736 -0.2186
  658HK4    H1155259   7.831  10.470  10.447 -0.2887 -0.1623  0.7223
  658HK4    C2355260   7.897  10.671  10.505  0.2873 -0.1574 -0.0716
  658HK4    H1055261   8.000  10.642  10.487  0.5615  1.8547 -1.9573
  658HK4    C3955262   8.047  10.944  10.548 -0.1811 -0.2193 -0.1813
  658HK4    C4155263   8.132  10.840  10.590  0.2168  0.0893 -0.2137
  658HK4    H2155264   8.105  10.770  10.671 -1.3135 -0.7857 -1.4503
  658HK4    C4255265   8.264  10.834  10.548  0.3403  0.3986  0.1273
  658HK4    H2255266   8.324  10.750  10.585 -0.0158  1.1866  2.5859
  658HK4    C4355267   8.314  10.934  10.465 -0.2903  0.5103 -0.1227
  658HK4    H2355268   8.414  10.931  10.422 -1.0796  1.7895 -2.0839
  658HK4    C4455269   8.236  11.042  10.424  0.0919  0.6354 -0.5191
  658HK4    H2455270   8.277  11.112  10.350 -0.0752  1.9018  0.5586
  658HK4    C4555271   8.106  11.047  10.472  0.4131 -0.0826  0.4584
  658HK4    H2555272   8.055  11.141  10.446  0.0348 -0.1923  0.8042
  659HK4    H2855273   0.680   0.539   8.394  0.4210  1.6331  0.7938
  659HK4    C4855274   0.740   0.486   8.468 -0.1760 -0.4636 -0.2018
  659HK4    C4755275   0.867   0.445   8.427 -0.0614 -0.1825 -0.1269
  659HK4    H2755276   0.917   0.512   8.356 -0.4990 -0.6510 -0.8773
  659HK4    C4655277   0.936   0.352   8.504 -0.2443 -0.5792 -0.4416
  659HK4    H2655278   1.029   0.314   8.459  0.0203  1.2813 -1.5283
  659HK4    C4055279   0.898   0.315   8.635  0.2837 -0.2275 -0.1880
  659HK4    C5055280   0.773   0.366   8.674  0.5199  0.0813  0.1758
  659HK4    H3055281   0.753   0.363   8.782  1.3156  1.3782  0.3535
  659HK4    C4955282   0.695   0.448   8.594  0.4147 -0.0574  0.1332
  659HK4    H2955283   0.601   0.495   8.627  0.3257 -0.5132  0.5256
  659HK4     N255284   0.971   0.220   8.707 -0.0741 -0.3332  0.0338
  659HK4    C3055285   1.044   0.108   8.660  0.2318 -0.2430  0.2901
  659HK4    C2955286   1.004   0.018   8.562  0.1022 -0.3971  0.4839
  659HK4    H1555287   0.923   0.050   8.497  1.1630 -0.9129 -1.1449
  659HK4    C2855288   1.072  11.148   8.534  0.4089 -0.0530 -0.2110
  659HK4    C2755289   1.173  11.114   8.626  0.6228  0.7329 -0.1556
  659HK4    H1455290   1.225  11.021   8.601  1.7438  1.3095 -0.0219
  659HK4    C3255291   1.210  11.188   8.739  0.5319 -0.0656  0.3997
  659HK4    H1655292   1.276  11.149   8.816 -1.2951  1.0834  2.6072
  659HK4    C3155293   1.139   0.058   8.757  0.4786 -0.0589  0.1423
  659HK4    C3455294   1.119   0.142   8.873  0.0493 -0.2146  0.1821
  659HK4    C3355295   1.012   0.235   8.841  0.3167 -0.0103 -0.1203
  659HK4    C3555296   0.996   0.340   8.931 -0.5225 -0.2617  0.0275
  659HK4    H1755297   0.908   0.403   8.931  1.4817  2.8443 -4.5823
  659HK4    C3655298   1.082   0.358   9.038 -0.7876 -0.4564  0.2750
  659HK4    H1855299   1.075   0.450   9.099 -4.6604 -1.0614  0.8922
  659HK4    C3755300   1.176   0.261   9.071  0.2000  0.3769 -0.0416
  659HK4    H1955301   1.215   0.263   9.172  2.8997 -0.4058 -1.0276
  659HK4    C3855302   1.197   0.151   8.988  0.4297  0.4853 -0.1243
  659HK4    H2055303   1.277   0.080   9.007  1.9228  2.2265  0.3052
  659HK4    C1455304   1.039  11.063   8.419 -0.2661  0.0433 -0.0894
  659HK4     C955305   1.093  10.934   8.410  0.2660  0.2179  0.5246
  659HK4     C855306   1.167  10.903   8.294  0.1169  0.1814  0.4380
  659HK4    C1155307   1.158  10.984   8.181  0.5963 -0.2494  0.0891
  659HK4     H455308   1.194  10.947   8.084 -0.8189 -0.3014 -0.4268
  659HK4    C1255309   1.085  11.102   8.180  0.6690 -0.2077  0.0081
  659HK4     H555310   1.064  11.164   8.092  0.7782 -0.6405 -0.3263
  659HK4    C1355311   1.024  11.138   8.300  0.4330  0.0295 -0.1832
  659HK4     H655312   0.974  11.236   8.304  1.9910  0.7980  1.1771
  659HK4     C755313   1.245  10.778   8.279 -0.2607  0.0119 -0.0947
  659HK4     O255314   1.362  10.788   8.243  0.2061  0.0724  1.3988
  659HK4     C455315   1.210  10.666   8.370  0.2925  0.1585  0.3024
  659HK4     C355316   1.272  10.543   8.350 -0.3927 -0.0857 -0.3551
  659HK4     H355317   1.376  10.540   8.313  0.1618  0.6348  1.1025
  659HK4     C255318   1.201  10.428   8.381 -0.7076  0.1007 -0.3786
  659HK4     H255319   1.244  10.331   8.353 -0.2263 -0.0344  0.8189
  659HK4     C155320   1.075  10.430   8.439 -0.6441  0.0813 -0.2367
  659HK4     H155321   1.028  10.336   8.471 -1.0893  0.8781  1.4838
  659HK4     C655322   1.015  10.555   8.465 -0.2214  0.2756 -0.2033
  659HK4     C555323   1.089  10.672   8.442  0.4410  0.0138  0.5634
  659HK4    C1055324   1.044  10.810   8.476 -0.0573  0.0198 -0.0840
  659HK4     O155325   0.985  10.827   8.582  0.1248 -0.0008  0.0198
  659HK4    C1655326   0.868  10.548   8.475 -0.1587 -0.1925  0.4693
  659HK4    C1555327   0.801  10.465   8.383 -0.2823  0.2354  0.1727
  659HK4     H755328   0.844  10.460   8.282  0.4808 -0.4035  0.5259
  659HK4    C2055329   0.674  10.411   8.398  0.1598 -0.9232 -0.2410
  659HK4     H955330   0.625  10.360   8.315  0.6343 -0.9540 -0.5018
  659HK4    C1955331   0.607  10.446   8.514  0.1569  0.0591 -0.5342
  659HK4    C1855332   0.666  10.530   8.616 -0.4485 -0.1097 -0.0355
  659HK4    C1755333   0.797  10.571   8.591 -0.6319  0.5289  0.0432
  659HK4     H855334   0.846  10.611   8.680 -1.5749 -3.1687  2.3155
  659HK4     N155335   0.570  10.564   8.713 -0.5711  0.2469 -0.2813
  659HK4    C2155336   0.443  10.526   8.665 -0.4877  0.4858 -0.6844
  659HK4    C2255337   0.466  10.441   8.550  0.3504 -0.4621  0.1727
  659HK4    C2655338   0.363  10.393   8.470  0.3049  0.1446 -0.1352
  659HK4    H1355339   0.389  10.335   8.381 -0.4576 -0.4907  0.0427
  659HK4    C2555340   0.232  10.429   8.497  0.4622  0.4649  0.1961
  659HK4    H1255341   0.144  10.395   8.442  0.1045 -0.2560  1.1972
  659HK4    C2455342   0.211  10.513   8.606 -0.1054  0.3495  0.1840
  659HK4    H1155343   0.104  10.529   8.624 -0.2879 -2.0723  1.4408
  659HK4    C2355344   0.310  10.558   8.692 -0.3726 -0.2729  0.8184
  659HK4    H1055345   0.289  10.604   8.789 -0.1223 -0.0932  0.7902
  659HK4    C3955346   0.593  10.642   8.827  0.5125 -0.2856 -0.1225
  659HK4    C4155347   0.690  10.744   8.833  0.0240  0.1635  0.1807
  659HK4    H2155348   0.751  10.763   8.743 -0.2971 -2.0034 -0.5362
  659HK4    C4255349   0.706  10.834   8.937  0.0467  0.1902  0.1537
  659HK4    H2255350   0.781  10.915   8.934  1.1006 -0.7608  0.5210
  659HK4    C4355351   0.614  10.833   9.041  0.0649 -0.1318  0.1656
  659HK4    H2355352   0.626  10.912   9.116  1.2855  2.7552 -2.9621
  659HK4    C4455353   0.527  10.725   9.051  0.3639 -0.3846  0.0196
  659HK4    H2455354   0.499  10.701   9.155  2.5086 -1.4716  0.3822
  659HK4    C4555355   0.517  10.636   8.945  0.0943  0.1029 -0.3657
  659HK4    H2555356   0.474  10.535   8.960  0.5236 -0.2305 -1.3272
  660HK4    H2855357  10.666   2.115   9.541  2.0930 -0.6359  0.3722
  660HK4    C4855358  10.612   2.041   9.601  0.5167  0.2310  0.0581
  660HK4    C4755359  10.573   2.078   9.729 -0.1205 -0.4577  0.0645
  660HK4    H2755360  10.607   2.172   9.775 -0.5112  0.6631 -1.8908
  660HK4    C4655361  10.496   1.987   9.801 -0.4900  0.1366  0.4281
  660HK4    H2655362  10.484   2.023   9.904 -2.1569  1.7047 -0.2927
  660HK4    C4055363  10.456   1.861   9.754 -0.0773  0.2790 -0.3089
  660HK4    C5055364  10.504   1.825   9.626 -0.1625  0.0528 -0.2783
  660HK4    H3055365  10.490   1.726   9.578  3.4024 -0.0517 -1.2533
  660HK4    C4955366  10.581   1.914   9.553  1.0757 -0.1702  0.7556
  660HK4    H2955367  10.605   1.893   9.448  0.4293 -0.7128  0.7159
  660HK4     N255368  10.393   1.766   9.834 -0.0379  0.1218 -0.4637
  660HK4    C3055369  10.399   1.770   9.975  0.0834 -0.3010 -0.4530
  660HK4    C2955370  10.511   1.782  10.057 -0.3779 -0.4502  0.1957
  660HK4    H1555371  10.608   1.771  10.007 -0.9001  1.7555 -1.3872
  660HK4    C2855372  10.508   1.787  10.196  0.2148  0.0715  0.1951
  660HK4    C2755373  10.381   1.773  10.255 -0.2379  0.3163 -0.6972
  660HK4    H1455374  10.373   1.817  10.356 -1.3965 -0.0582 -0.6271
  660HK4    C3255375  10.270   1.737  10.180 -0.5222  0.0572 -0.1550
  660HK4    H1655376  10.180   1.707  10.233  0.1416 -0.6353  0.5894
  660HK4    C3155377  10.276   1.732  10.041  0.2950 -0.3920 -0.1103
  660HK4    C3455378  10.196   1.693   9.927 -0.0372  0.3315 -0.1248
  660HK4    C3355379  10.267   1.710   9.802 -0.0072 -0.1188 -0.1681
  660HK4    C3555380  10.218   1.654   9.684 -0.6830  0.8222 -0.3347
  660HK4    H1755381  10.280   1.645   9.595 -1.2516 -3.5818 -0.3514
  660HK4    C3655382  10.107   1.572   9.689 -0.0682 -0.0477 -0.7746
  660HK4    H1855383  10.041   1.541   9.606 -1.8894 -0.3011  0.7195
  660HK4    C3755384  10.041   1.554   9.810  0.7975  0.3904 -0.2392
  660HK4    H1955385   9.957   1.487   9.797  1.5892 -0.2829 -2.0124
  660HK4    C3855386  10.080   1.615   9.929 -0.1073  0.4318  0.0406
  660HK4    H2055387  10.026   1.587  10.019  0.2906 -2.5168 -0.5923
  660HK4    C1455388  10.631   1.782  10.276  0.2210 -0.6915  0.1378
  660HK4     C955389  10.660   1.736  10.405  0.1200 -0.3772  0.2752
  660HK4     C855390  10.774   1.774  10.480 -0.2458  0.0870  0.5980
  660HK4    C1155391  10.867   1.856  10.417 -0.1456 -0.6176 -0.1792
  660HK4     H455392  10.942   1.911  10.476 -0.4925 -1.1028  0.7225
  660HK4    C1255393  10.850   1.895  10.285  0.0598  0.4431  0.1020
  660HK4     H555394  10.932   1.941  10.227 -0.7728 -1.0278 -2.3064
  660HK4    C1355395  10.730   1.866  10.221 -0.2142  0.2123  0.7224
  660HK4     H655396  10.701   1.918  10.128 -3.1021 -1.1599  0.7934
  660HK4     C755397  10.803   1.728  10.617  0.5094 -0.4549  0.2563
  660HK4     O255398  10.874   1.795  10.691  0.2195 -0.1760  0.2827
  660HK4     C455399  10.710   1.628  10.675 -0.1506 -0.3164 -0.5706
  660HK4     C355400  10.749   1.564  10.792 -0.7162  0.3149 -0.0364
  660HK4     H355401  10.853   1.570  10.827  0.3575  3.2269 -3.3657
  660HK4     C255402  10.657   1.488  10.863 -0.0335 -0.1002  0.4054
  660HK4     H255403  10.684   1.418  10.943  1.4234  0.3617  0.3244
  660HK4     C155404  10.526   1.485  10.814  0.3195 -0.2368 -0.5392
  660HK4     H155405  10.457   1.412  10.858  0.1812  1.6224  2.4680
  660HK4     C655406  10.482   1.554  10.700 -0.4766 -0.2841 -0.2604
  660HK4     C555407  10.583   1.606  10.618 -0.4720  0.1011 -0.0105
  660HK4    C1055408  10.566   1.645  10.475 -0.1750 -0.4278 -0.1873
  660HK4     O155409  10.523   1.554  10.404 -0.2594 -0.1467 -0.4970
  660HK4    C1655410  10.356   1.628  10.721 -0.0871  0.4195 -0.3627
  660HK4    C1555411  10.308   1.669  10.847 -0.0653 -0.7490  0.0337
  660HK4     H755412  10.378   1.666  10.932 -1.9138 -3.2904  1.5241
  660HK4    C2055413  10.180   1.720  10.865  0.4872  0.8157 -0.3678
  660HK4     H955414  10.139   1.729  10.966  3.1088 -0.7077  0.9043
  660HK4    C1955415  10.094   1.734  10.757 -0.1576 -0.3014 -0.0159
  660HK4    C1855416  10.135   1.670  10.634 -0.2210  0.2942 -0.3465
  660HK4    C1755417  10.266   1.626  10.615 -0.3616 -0.2321 -0.1202
  660HK4     H855418  10.306   1.617  10.514  0.4313  0.5195  0.1138
  660HK4     N155419  10.030   1.650  10.542 -0.2272  0.1973 -0.3147
  660HK4    C2155420   9.920   1.710  10.606 -0.0795  0.1472 -0.0174
  660HK4    C2255421   9.955   1.767  10.735 -0.0097  0.2864 -0.0955
  660HK4    C2655422   9.856   1.812  10.822  0.1495  0.3986  0.0233
  660HK4    H1355423   9.882   1.842  10.924  3.2593 -1.4027 -0.1658
  660HK4    C2555424   9.723   1.806  10.783  0.0611 -0.0620  0.3900
  660HK4    H1255425   9.649   1.842  10.855  0.9850  0.6832  0.9819
  660HK4    C2455426   9.689   1.750  10.661 -0.0443  0.0739  0.3543
  660HK4    H1155427   9.582   1.735  10.641 -0.0681  0.9210 -0.1832
  660HK4    C2355428   9.786   1.705  10.572 -0.0649  1.1982 -0.2474
  660HK4    H1055429   9.757   1.668  10.473  0.2215 -1.0517  0.4635
  660HK4    C3955430  10.022   1.548  10.446  0.8248  0.2772 -0.4887
  660HK4    C4155431   9.944   1.569  10.330 -0.2821 -0.1366  0.1740
  660HK4    H2155432   9.922   1.671  10.296  0.0581  0.1189  0.7093
  660HK4    C4255433   9.906   1.459  10.254 -0.1744  0.0874 -0.2030
  660HK4    H2255434   9.864   1.473  10.153 -3.2503 -0.3657  0.9804
  660HK4    C4355435   9.930   1.328  10.295  0.2068  0.2438  0.0768
  660HK4    H2355436   9.868   1.247  10.257 -1.3756  1.1650  0.6807
  660HK4    C4455437  10.006   1.302  10.408  0.0423 -0.1737  0.0944
  660HK4    H2455438  10.038   1.204  10.445  1.3039  0.4839  0.8188
  660HK4    C4555439  10.047   1.414  10.480  0.4129  0.1647 -0.6354
  660HK4    H2555440  10.105   1.393  10.571  0.5525  1.7593 -0.3353
  661HK4    H2855441   3.238  10.583   5.071 -0.8083  0.1203 -1.9077
  661HK4    C4855442   3.287  10.670   5.028 -0.0746  0.7128  0.0480
  661HK4    C4755443   3.339  10.773   5.104  0.4539  0.0001  0.6513
  661HK4    H2755444   3.295  10.787   5.204  0.0976 -0.3477  0.5449
  661HK4    C4655445   3.412  10.882   5.057  0.5458 -0.2218  0.2855
  661HK4    H2655446   3.457  10.952   5.129  0.5649  0.6217 -0.5380
  661HK4    C4055447   3.432  10.891   4.918  0.4870 -0.3078  0.2701
  661HK4    C5055448   3.364  10.793   4.842  0.7108 -0.6796  0.5529
  661HK4    H3055449   3.359  10.805   4.732 -1.6131 -0.5339  0.6465
  661HK4    C4955450   3.297  10.682   4.889 -0.1298 -0.4389 -0.0587
  661HK4    H2955451   3.284  10.593   4.825 -4.2871  0.5798 -0.7933
  661HK4     N255452   3.487  11.007   4.861 -0.1321 -0.3541 -0.4479
  661HK4    C3055453   3.540  11.006   4.730  0.1034 -0.1273 -0.3540
  661HK4    C2955454   3.586  10.904   4.648  0.1345 -0.4803  0.0974
  661HK4    H1555455   3.577  10.799   4.677  0.3940  0.4592  3.8302
  661HK4    C2855456   3.634  10.930   4.520 -0.1414 -0.0313  0.0821
  661HK4    C2755457   3.617  11.060   4.467  0.2770 -0.2397 -0.5678
  661HK4    H1455458   3.653  11.080   4.365  0.6047  2.5179  0.0634
  661HK4    C3255459   3.565  11.164   4.543 -0.5242 -0.6750 -0.5146
  661HK4    H1655460   3.585   0.017   4.508  1.4167 -1.0410 -0.5282
  661HK4    C3155461   3.531  11.140   4.675 -0.4390 -0.1815 -0.4023
  661HK4    C3455462   3.459  11.221   4.772  0.7022  0.3762 -0.0115
  661HK4    C3355463   3.437  11.136   4.887 -0.0916 -0.2960 -0.6579
  661HK4    C3555464   3.368  11.187   4.996  0.5538 -0.7983 -0.0101
  661HK4    H1755465   3.338  11.121   5.077  0.3449  3.1313  3.3241
  661HK4    C3655466   3.326   0.072   4.994  0.2434 -0.9002 -0.2603
  661HK4    H1855467   3.297   0.124   5.086  1.3546  1.4968 -1.2110
  661HK4    C3755468   3.353   0.157   4.887 -0.1329 -0.7370 -0.2260
  661HK4    H1955469   3.314   0.258   4.878  3.0442  0.6036  0.4327
  661HK4    C3855470   3.418   0.106   4.776 -0.2485  0.1091 -0.6886
  661HK4    H2055471   3.459   0.176   4.703 -1.4959  0.2347 -1.2743
  661HK4    C1455472   3.732  10.838   4.460  0.4353  0.6227  0.0160
  661HK4     C955473   3.841  10.881   4.383  0.6453  0.0888  0.0173
  661HK4     C855474   3.894  10.790   4.289 -0.2621 -0.2349 -0.1841
  661HK4    C1155475   3.850  10.659   4.276 -0.1736 -0.2762 -0.1002
  661HK4     H455476   3.902  10.599   4.199  0.8581  1.4490 -0.7841
  661HK4    C1255477   3.743  10.621   4.355  0.1828  0.3776  0.7089
  661HK4     H555478   3.699  10.521   4.341 -0.6714  1.0470 -1.6862
  661HK4    C1355479   3.683  10.707   4.446  0.4554  0.5331  0.7412
  661HK4     H655480   3.579  10.685   4.475  0.1567 -2.8640 -2.4419
  661HK4     C755481   3.990  10.839   4.188 -0.2525  0.3457  0.1042
  661HK4     O255482   4.057  10.759   4.123  0.1320  0.4043  0.4293
  661HK4     C455483   4.021  10.984   4.179 -0.0378  0.2481 -0.8963
  661HK4     C355484   4.093  11.029   4.070  0.7992 -0.2227 -0.5410
  661HK4     H355485   4.124  10.959   3.990  1.5886 -0.0707 -0.3757
  661HK4     C255486   4.110  11.165   4.046  0.1639 -0.0101  0.2012
  661HK4     H255487   4.174  11.192   3.960  0.4628  2.0758  1.0653
  661HK4     C155488   4.046   0.005   4.132  0.0899  0.5725 -0.4462
  661HK4     H155489   4.064   0.112   4.115  3.1816 -0.0133 -1.1047
  661HK4     C655490   3.980  11.212   4.249  0.2273 -0.0478 -0.5845
  661HK4     C555491   3.977  11.075   4.278  0.5512 -0.0147 -0.3868
  661HK4    C1055492   3.901  11.017   4.392  0.9150 -0.0140 -0.1452
  661HK4     O155493   3.914  11.062   4.506  0.4128 -0.1960 -0.0133
  661HK4    C1655494   3.885   0.062   4.305 -0.0576 -0.4933 -0.2824
  661HK4    C1555495   3.793   0.126   4.219  0.6841  0.6380 -0.2409
  661HK4     H755496   3.789   0.107   4.111  0.7891  0.3890 -0.2007
  661HK4    C2055497   3.699   0.214   4.272 -0.0246 -0.3699  0.1855
  661HK4     H955498   3.604   0.226   4.219 -1.8767 -2.7925  2.7605
  661HK4    C1955499   3.703   0.246   4.407  0.6957  0.3832 -0.0137
  661HK4    C1855500   3.805   0.191   4.495  0.4453 -0.0696 -0.0024
  661HK4    C1755501   3.893   0.101   4.438  0.0084 -0.2749 -0.3502
  661HK4     H855502   3.974   0.056   4.496 -0.7663 -0.2091  0.7989
  661HK4     N155503   3.787   0.235   4.628  0.1156 -0.3566  0.0486
  661HK4    C2155504   3.673   0.319   4.622  0.0640 -0.4309 -0.0051
  661HK4    C2255505   3.620   0.333   4.488 -0.0851 -0.4191  0.0549
  661HK4    C2655506   3.518   0.425   4.467  0.4423  0.1689  0.0584
  661HK4    H1355507   3.487   0.453   4.366 -1.1197  0.8834  0.7270
  661HK4    C2555508   3.457   0.495   4.570 -0.1109 -0.0211 -0.1371
  661HK4    H1255509   3.407   0.590   4.550  1.7360  0.6523 -1.6498
  661HK4    C2455510   3.495   0.473   4.702  0.0895 -0.1987 -0.2256
  661HK4    H1155511   3.449   0.520   4.790 -0.5846  1.8415 -1.6334
  661HK4    C2355512   3.600   0.383   4.721  0.3458  0.1185 -0.1520
  661HK4    H1055513   3.598   0.334   4.818  2.3482 -0.2214 -0.2594
  661HK4    C3955514   3.830   0.170   4.744  0.5923  0.2187  0.2022
  661HK4    C4155515   3.852   0.253   4.855  0.0411  0.5742  0.0479
  661HK4    H2155516   3.910   0.346   4.844 -0.7931  1.2621  1.3159
  661HK4    C4255517   3.837   0.198   4.982 -0.4439  0.1866 -0.1769
  661HK4    H2255518   3.810   0.262   5.066  1.5033 -0.2204  0.7891
  661HK4    C4355519   3.808   0.063   4.999 -0.3515  0.1456 -0.3401
  661HK4    H2355520   3.815   0.028   5.102  3.0465  0.1924 -0.4925
  661HK4    C4455521   3.789  11.226   4.891  0.3090 -0.4666  0.0241
  661HK4    H2455522   3.776  11.118   4.905 -1.4450 -0.4276 -1.1806
  661HK4    C4555523   3.805   0.032   4.764 -0.4091  0.4134  0.3069
  661HK4    H2555524   3.772  11.220   4.677  2.0463 -2.1930  1.1283
  662HK4    H2855525   4.858  10.692   3.252  0.3925  0.6941 -0.8573
  662HK4    C4855526   4.837  10.783   3.309  0.6152  0.4331 -0.3600
  662HK4    C4755527   4.818  10.782   3.447 -0.0828 -0.0628 -0.4546
  662HK4    H2755528   4.850  10.699   3.513  0.5436 -0.8099 -1.6763
  662HK4    C4655529   4.780  10.900   3.511 -0.4921 -0.2793 -0.2963
  662HK4    H2655530   4.768  10.902   3.620 -0.5328  0.1464 -0.3112
  662HK4    C4055531   4.752  11.020   3.443  0.0236 -0.1171 -0.2262
  662HK4    C5055532   4.777  11.015   3.305  0.3640  0.5508 -0.1905
  662HK4    H3055533   4.773  11.109   3.248  0.5143  0.0975 -0.9686
  662HK4    C4955534   4.822  10.901   3.238  0.2042  0.4872 -0.1902
  662HK4    H2955535   4.846  10.894   3.131  2.6560 -3.3221  0.4897
  662HK4     N255536   4.645  11.101   3.482  0.0111 -0.3756  0.2909
  662HK4    C3055537   4.536  11.063   3.563 -0.3008 -0.4248 -0.1489
  662HK4    C2955538   4.491  10.939   3.606  0.3145 -0.4786  0.3515
  662HK4    H1555539   4.540  10.853   3.561 -0.5314 -1.6876  1.6950
  662HK4    C2855540   4.378  10.923   3.685  0.3389 -0.0911  0.4617
  662HK4    C2755541   4.314  11.044   3.720  0.0045 -0.1160 -0.0433
  662HK4    H1455542   4.246  11.043   3.807 -1.3823  1.6886 -1.0690
  662HK4    C3255543   4.345  11.172   3.677  0.2938 -0.1000  0.2135
  662HK4    H1655544   4.296   0.015   3.714  2.6592  0.8244  1.1891
  662HK4    C3155545   4.455  11.180   3.593 -0.2097 -0.2800 -0.4671
  662HK4    C3455546   4.506   0.046   3.520  0.0031 -0.2044 -0.2031
  662HK4    C3355547   4.618  11.236   3.449 -0.0758 -0.4891 -0.0961
  662HK4    C3555548   4.700   0.074   3.376 -0.3560  0.1953  0.3881
  662HK4    H1755549   4.802   0.039   3.357 -0.7372 -0.6196 -0.1592
  662HK4    C3655550   4.668   0.209   3.371 -0.5979  0.0907 -0.9392
  662HK4    H1855551   4.743   0.275   3.324 -1.4061  2.2278  0.6778
  662HK4    C3755552   4.560   0.263   3.440  0.2651  0.4337  0.1682
  662HK4    H1955553   4.553   0.371   3.444  0.1167  0.3733  1.6205
  662HK4    C3855554   4.476   0.182   3.515 -0.0846 -0.2495 -0.9489
  662HK4    H2055555   4.372   0.202   3.541  0.2962  0.3745  0.1109
  662HK4    C1455556   4.300  10.799   3.683 -0.3319  0.3338 -0.2459
  662HK4     C955557   4.160  10.793   3.695 -0.3106  0.3584 -0.0034
  662HK4     C855558   4.105  10.689   3.773 -0.1089  0.0895 -0.2145
  662HK4    C1155559   4.192  10.593   3.824 -0.0857 -0.2029 -0.8065
  662HK4     H455560   4.165  10.564   3.927  2.6541  0.9083  0.2521
  662HK4    C1255561   4.328  10.589   3.797  0.1080 -0.0126  0.1312
  662HK4     H555562   4.391  10.515   3.850  1.6157  0.4654 -0.9848
  662HK4    C1355563   4.383  10.692   3.722 -0.6576  0.0265 -0.3836
  662HK4     H655564   4.489  10.689   3.694 -0.7944  0.7413 -0.9760
  662HK4     C755565   3.960  10.680   3.801 -0.1392  0.1706 -0.3529
  662HK4     O255566   3.918  10.585   3.867  0.2754  0.0186 -0.3046
  662HK4     C455567   3.865  10.775   3.738 -0.3650 -0.0016 -0.2681
  662HK4     C355568   3.727  10.767   3.756 -0.2917  0.2015  0.4164
  662HK4     H355569   3.687  10.679   3.809  0.5078 -0.3513  0.1240
  662HK4     C255570   3.644  10.871   3.718 -0.3223  0.0330  0.0132
  662HK4     H255571   3.535  10.856   3.718 -0.7259  2.4654 -2.4549
  662HK4     C155572   3.702  10.983   3.658 -0.0706 -0.1179 -0.0210
  662HK4     H155573   3.630  11.051   3.611 -0.1280  1.9575  2.9162
  662HK4     C655574   3.841  10.992   3.634 -0.0706  0.2691  0.1302
  662HK4     C555575   3.920  10.880   3.662 -0.1987  0.1709  0.0891
  662HK4    C1055576   4.063  10.879   3.622 -0.2215  0.4637 -0.0005
  662HK4     O155577   4.103  10.924   3.515  0.4826  0.4163  0.2407
  662HK4    C1655578   3.886  11.132   3.636 -0.2202  0.3196  0.0330
  662HK4    C1555579   3.871  11.216   3.749  0.1528  0.1906  0.1792
  662HK4     H755580   3.811  11.182   3.834 -1.1818  2.0159 -0.0073
  662HK4    C2055581   3.939   0.089   3.758 -0.7146  0.7066 -0.2497
  662HK4     H955582   3.935   0.143   3.853  0.3470  2.0788 -0.9664
  662HK4    C1955583   4.027   0.132   3.659 -0.5983  0.3115 -0.3173
  662HK4    C1855584   4.021   0.063   3.532  0.2224 -0.3080 -0.0249
  662HK4    C1755585   3.954  11.189   3.529 -0.2961 -0.0182 -0.1963
  662HK4     H855586   3.952  11.138   3.433  1.6003  1.0056 -0.8019
  662HK4     N155587   4.072   0.137   3.423 -0.7508  0.0585 -0.2347
  662HK4    C2155588   4.100   0.262   3.482  0.5610 -0.5044  0.3453
  662HK4    C2255589   4.090   0.258   3.627 -0.1706  0.2620  0.3143
  662HK4    C2655590   4.116   0.371   3.705  0.6774  0.1979  0.1340
  662HK4    H1355591   4.111   0.360   3.813 -1.7894 -2.6940 -0.1768
  662HK4    C2555592   4.163   0.487   3.645  0.6449  0.0243 -0.2310
  662HK4    H1255593   4.202   0.567   3.708 -0.1249  0.5669 -0.4357
  662HK4    C2455594   4.179   0.497   3.507  0.4984  0.1103 -0.2422
  662HK4    H1155595   4.211   0.595   3.469  0.6195  1.1270  2.3718
  662HK4    C2355596   4.141   0.385   3.434  0.0876 -0.2674  0.5432
  662HK4    H1055597   4.134   0.400   3.326  1.7077  0.5937  0.5321
  662HK4    C3955598   4.140   0.087   3.311  0.1611 -0.2359  0.4477
  662HK4    C4155599   4.161   0.171   3.200 -0.1372 -0.8023 -0.0384
  662HK4    H2155600   4.088   0.251   3.181 -0.7391 -1.1502  0.7914
  662HK4    C4255601   4.271   0.149   3.119  0.2882 -0.0575  0.3332
  662HK4    H2255602   4.286   0.199   3.021  1.9337 -0.4527  0.3581
  662HK4    C4355603   4.356   0.040   3.135  0.6407  0.1703  0.0375
  662HK4    H2355604   4.453   0.033   3.087  0.1502  1.5820 -1.1997
  662HK4    C4455605   4.326  11.197   3.235  0.6252 -0.0333 -0.1531
  662HK4    H2455606   4.379  11.102   3.250 -0.1263 -0.4408 -0.0210
  662HK4    C4555607   4.221  11.220   3.324  0.1298 -0.3864 -0.6402
  662HK4    H2555608   4.201  11.157   3.412  0.7575  0.6796  0.2738
  663HK4    H2855609   5.252   1.985  10.087 -1.1345  0.0071 -1.4495
  663HK4    C4855610   5.202   2.070  10.134 -0.0121 -0.0164 -0.1691
  663HK4    C4755611   5.072   2.069  10.182  0.1904 -0.1494  0.3809
  663HK4    H2755612   5.004   1.984  10.166  3.0383 -2.4442 -0.0133
  663HK4    C4655613   5.016   2.167  10.263 -0.3774  0.2669 -0.5110
  663HK4    H2655614   4.907   2.159  10.279 -0.2345  2.2133  1.6134
  663HK4    C4055615   5.090   2.281  10.299  0.1398 -0.3262  0.3065
  663HK4    C5055616   5.219   2.282  10.241  0.1854 -0.0039  0.4084
  663HK4    H3055617   5.276   2.374  10.260 -0.3255 -0.0935  2.5107
  663HK4    C4955618   5.278   2.183  10.164 -0.0488 -0.1438  0.4092
  663HK4    H2955619   5.366   2.214  10.106  0.4367  0.4029  1.4435
  663HK4     N255620   5.037   2.382  10.380  0.1423  0.3870 -0.5790
  663HK4    C3055621   4.902   2.421  10.393 -0.1484 -0.8260  0.0691
  663HK4    C2955622   4.793   2.396  10.310  0.1022  0.2263 -0.5838
  663HK4    H1555623   4.802   2.338  10.219 -1.4861 -1.1878  0.1215
  663HK4    C2855624   4.671   2.455  10.340  0.1091  0.1193 -0.3383
  663HK4    C2755625   4.664   2.534  10.457 -0.4299 -0.2785 -0.1024
  663HK4    H1455626   4.569   2.587  10.471  0.5967  1.1897  1.5548
  663HK4    C3255627   4.770   2.558  10.544  0.0754 -0.0017 -0.7953
  663HK4    H1655628   4.772   2.638  10.617 -0.2688  0.1105 -0.9105
  663HK4    C3155629   4.893   2.500  10.514  0.0207 -0.4443 -0.1653
  663HK4    C3455630   5.025   2.499  10.575  0.0012 -0.2215 -0.1181
  663HK4    C3355631   5.117   2.442  10.479  0.0119 -0.4099  0.0069
  663HK4    C3555632   5.246   2.417  10.525  0.1725  0.2750 -0.0692
  663HK4    H1755633   5.322   2.373  10.461  0.5975 -0.5933  1.0023
  663HK4    C3655634   5.293   2.456  10.650 -0.0762 -0.4450  0.2489
  663HK4    H1855635   5.397   2.447  10.683  0.0013  1.3799  0.5541
  663HK4    C3755636   5.203   2.518  10.736 -0.5284 -0.1892 -0.4061
  663HK4    H1955637   5.242   2.568  10.824  3.5438 -1.7493 -1.2237
  663HK4    C3855638   5.070   2.539  10.700 -0.5316  0.3335 -0.0986
  663HK4    H2055639   5.009   2.608  10.758  0.9945  1.8596 -0.2501
  663HK4    C1455640   4.583   2.483  10.225 -0.2015  0.0532 -0.1221
  663HK4     C955641   4.526   2.604  10.185  0.1516  0.1514 -0.3413
  663HK4     C855642   4.415   2.613  10.098 -0.1351  0.0187  0.0026
  663HK4    C1155643   4.364   2.493  10.050  0.0718  0.2016 -0.6770
  663HK4     H455644   4.272   2.489   9.990 -0.6281  0.7696  0.3334
  663HK4    C1255645   4.424   2.371  10.078 -0.1639  0.2943  0.2453
  663HK4     H555646   4.380   2.278  10.039 -0.1599 -0.0998  1.1818
  663HK4    C1355647   4.533   2.366  10.163  0.0785 -0.0864 -0.0859
  663HK4     H655648   4.570   2.266  10.189 -0.1277 -0.1646 -0.0945
  663HK4     C755649   4.341   2.741  10.086  0.4274  0.3237 -0.2265
  663HK4     O255650   4.286   2.761   9.978 -0.4107 -0.0915  0.1185
  663HK4     C455651   4.368   2.848  10.184  0.1904  0.4612 -0.3124
  663HK4     C355652   4.272   2.948  10.197  0.2192  0.4903 -0.3097
  663HK4     H355653   4.185   2.954  10.131 -0.3606 -0.3562  0.3782
  663HK4     C255654   4.293   3.056  10.282  0.5776  0.1995 -0.0279
  663HK4     H255655   4.249   3.156  10.268  2.9797  1.1948 -0.6211
  663HK4     C155656   4.406   3.051  10.363  0.4049  0.2526  0.2152
  663HK4     H155657   4.409   3.133  10.437 -0.2303  1.3695 -0.9832
  663HK4     C655658   4.505   2.952  10.346  0.0098  0.0064 -0.6676
  663HK4     C555659   4.493   2.853  10.248  0.0736 -0.6627 -0.0002
  663HK4    C1055660   4.581   2.733  10.236  0.7627 -0.1369 -0.2741
  663HK4     O155661   4.702   2.747  10.249  0.7094 -0.1444  0.2576
  663HK4    C1655662   4.594   2.939  10.462 -0.2975 -0.8412 -0.5188
  663HK4    C1555663   4.545   2.944  10.594  0.5387 -0.0457 -0.2291
  663HK4     H755664   4.449   2.897  10.618  1.3487 -1.2047  0.7727
  663HK4    C2055665   4.619   2.997  10.699  0.3436 -0.3370  0.0520
  663HK4     H955666   4.575   3.003  10.798 -1.9463 -2.1852 -0.7947
  663HK4    C1955667   4.752   3.031  10.676  0.2604  0.0819  0.1825
  663HK4    C1855668   4.807   3.021  10.542 -0.2687  0.2329 -0.0476
  663HK4    C1755669   4.728   2.971  10.439 -0.3963  0.0463  0.1401
  663HK4     H855670   4.764   2.968  10.336  2.1783  3.0763  0.8578
  663HK4     N155671   4.936   3.078  10.544 -0.1563 -0.0200 -0.0395
  663HK4    C2155672   4.956   3.122  10.677  0.2866  0.5615 -0.2978
  663HK4    C2255673   4.850   3.085  10.768  0.2519  0.8119 -0.2366
  663HK4    C2655674   4.869   3.126  10.900  0.0766 -0.2677  0.1278
  663HK4    H1355675   4.793   3.095  10.972 -1.1275 -0.7892 -1.3323
  663HK4    C2555676   4.967   3.214  10.943 -0.0364  0.0218 -0.1976
  663HK4    H1255677   4.967   3.259  11.043 -1.1922  0.6324 -0.4586
  663HK4    C2455678   5.068   3.247  10.854  0.5593 -0.2541  0.3726
  663HK4    H1155679   5.147   3.317  10.884  0.8040  0.3448 -1.5825
  663HK4    C2355680   5.064   3.195  10.725  0.2196  0.3826  0.1285
  663HK4    H1055681   5.159   3.187  10.673 -1.3526 -0.0961 -2.7817
  663HK4    C3955682   5.042   3.019  10.475 -0.1759 -0.1555  0.0466
  663HK4    C4155683   5.039   2.888  10.423 -0.2421 -0.1385  0.0073
  663HK4    H2155684   4.959   2.815  10.443  0.3288 -0.2645  1.9189
  663HK4    C4255685   5.139   2.845  10.337 -0.1410 -0.2931  0.2052
  663HK4    H2255686   5.125   2.759  10.268 -0.4765  1.0547 -1.4465
  663HK4    C4355687   5.250   2.925  10.310 -0.2789 -0.3255 -0.4774
  663HK4    H2355688   5.333   2.872  10.264 -1.2325 -1.5945 -0.7933
  663HK4    C4455689   5.260   3.053  10.362  0.4021 -0.5457 -0.0713
  663HK4    H2455690   5.356   3.107  10.354 -0.4032  0.4589 -3.4245
  663HK4    C4555691   5.151   3.099  10.435  0.3259 -0.8492  0.0052
  663HK4    H2555692   5.131   3.207  10.428  0.2631 -0.7090  2.1080
  664HK4    H2855693   9.376   5.306   1.390  3.4452  1.4401  1.9010
  664HK4    C4855694   9.337   5.408   1.400 -0.0423  0.3563  0.1733
  664HK4    C4755695   9.215   5.436   1.460  0.0862  0.0307  0.5917
  664HK4    H2755696   9.175   5.360   1.529 -0.1034  1.3103  1.9074
  664HK4    C4655697   9.157   5.562   1.466  0.0217  0.0730 -0.6761
  664HK4    H2655698   9.063   5.577   1.521  0.8664 -0.7191  1.0499
  664HK4    C4055699   9.225   5.674   1.414 -0.0612  0.3331 -0.2270
  664HK4    C5055700   9.352   5.650   1.358 -0.2419  0.2397 -0.6035
  664HK4    H3055701   9.407   5.738   1.322  1.2142 -0.7576 -0.8289
  664HK4    C4955702   9.402   5.521   1.350 -0.0093  0.2872  0.0586
  664HK4    H2955703   9.508   5.516   1.320 -0.0476 -1.2766  0.1482
  664HK4     N255704   9.164   5.800   1.399 -0.1069  0.3280 -0.0827
  664HK4    C3055705   9.025   5.812   1.379 -0.1332  0.1598 -0.0156
  664HK4    C2955706   8.936   5.738   1.303 -0.2117 -0.0998  0.3314
  664HK4    H1555707   8.980   5.647   1.262 -3.0133 -1.3675  0.0255
  664HK4    C2855708   8.807   5.777   1.268 -0.0144  0.1706 -0.0880
  664HK4    C2755709   8.775   5.908   1.311  0.0306  0.0481  0.3244
  664HK4    H1455710   8.682   5.956   1.278  0.6333  0.3495 -0.9534
  664HK4    C3255711   8.853   5.988   1.393  0.1182  0.0801  0.2086
  664HK4    H1655712   8.814   6.084   1.427 -0.4851  0.2770 -1.0139
  664HK4    C3155713   8.983   5.945   1.419  0.1521  0.1852  0.2081
  664HK4    C3455714   9.095   6.015   1.476  0.1532 -0.5027  1.0621
  664HK4    C3355715   9.206   5.925   1.448  0.3841  0.0167  0.3064
  664HK4    C3555716   9.339   5.960   1.468  0.5811  0.1494 -1.1854
  664HK4    H1755717   9.424   5.914   1.418  0.1070 -0.2901 -1.5942
  664HK4    C3655718   9.358   6.083   1.530 -0.6834 -0.0325 -0.4137
  664HK4    H1855719   9.459   6.127   1.526 -0.7874  0.3112  0.5437
  664HK4    C3755720   9.255   6.168   1.567 -0.2552  0.3707 -0.1547
  664HK4    H1955721   9.276   6.255   1.630  0.7201 -1.9353  2.7894
  664HK4    C3855722   9.123   6.138   1.536 -0.3290 -0.2295  0.7293
  664HK4    H2055723   9.040   6.204   1.562  0.5418  1.3825 -0.5390
  664HK4    C1455724   8.727   5.699   1.173  0.3069 -0.1302 -0.1122
  664HK4     C955725   8.617   5.743   1.098  0.2936  0.0925  0.0384
  664HK4     C855726   8.518   5.651   1.058  0.2259 -0.0459  0.5153
  664HK4    C1155727   8.536   5.516   1.082 -0.0596 -0.1560  0.1190
  664HK4     H455728   8.479   5.445   1.019  2.0987 -1.1911 -0.7225
  664HK4    C1255729   8.651   5.469   1.145 -0.3673 -0.4404  0.4709
  664HK4     H555730   8.662   5.362   1.168  0.7520 -0.1161  1.5099
  664HK4    C1355731   8.747   5.560   1.187 -0.3942 -0.2189  0.0429
  664HK4     H655732   8.829   5.513   1.243  0.3825  0.1500 -0.7564
  664HK4     C755733   8.388   5.699   1.005  0.3671  0.0843  0.2906
  664HK4     O255734   8.311   5.622   0.948  0.1946  0.4022  0.0963
  664HK4     C455735   8.358   5.844   0.996  0.3451  0.0399 -0.4268
  664HK4     C355736   8.230   5.891   0.968  0.4547  0.1265 -0.7870
  664HK4     H355737   8.159   5.823   0.919 -0.1328  0.7955 -0.8772
  664HK4     C255738   8.189   6.019   1.001 -0.2215 -0.4151  0.4823
  664HK4     H255739   8.085   6.053   1.010  0.2576  0.9018  1.3121
  664HK4     C155740   8.287   6.104   1.053  0.2598 -0.4695 -0.3288
  664HK4     H155741   8.261   6.207   1.081 -1.1349 -1.0156  0.4504
  664HK4     C655742   8.420   6.066   1.078  0.5783  0.4957 -0.5491
  664HK4     C555743   8.455   5.935   1.042 -0.1715 -0.1693  1.1001
  664HK4    C1055744   8.594   5.887   1.067  0.1288  0.0148 -0.1972
  664HK4     O155745   8.680   5.940   0.997  0.2721 -0.0151 -0.0416
  664HK4    C1655746   8.484   6.152   1.180  0.0391 -0.1667  0.3527
  664HK4    C1555747   8.414   6.220   1.281  0.1840 -0.2609  0.5168
  664HK4     H755748   8.315   6.184   1.312 -1.0747  0.8770 -1.9544
  664HK4    C2055749   8.466   6.325   1.355 -0.0519  0.0884  0.1895
  664HK4     H955750   8.417   6.372   1.440  0.3191  1.2903 -0.2357
  664HK4    C1955751   8.593   6.372   1.325 -0.2797  0.3541 -0.3761
  664HK4    C1855752   8.665   6.317   1.211 -0.3213  0.2467 -0.3488
  664HK4    C1755753   8.605   6.210   1.146  0.0670 -0.3058  0.2059
  664HK4     H855754   8.655   6.190   1.051 -0.3550  0.4319 -0.1747
  664HK4     N155755   8.803   6.337   1.228 -0.3564  0.0836  0.1204
  664HK4    C2155756   8.827   6.394   1.355 -0.2203  0.3840 -0.0385
  664HK4    C2255757   8.697   6.420   1.414 -0.3300 -0.3063  0.0293
  664HK4    C2655758   8.687   6.486   1.536 -0.1417  0.5075 -0.3938
  664HK4    H1355759   8.590   6.490   1.587 -0.0683  0.9943 -0.2944
  664HK4    C2555760   8.801   6.542   1.593 -0.1838  0.2552 -0.0682
  664HK4    H1255761   8.793   6.618   1.670  0.8389  0.4681 -0.1778
  664HK4    C2455762   8.923   6.528   1.529 -0.2050 -0.2303 -0.0109
  664HK4    H1155763   9.015   6.568   1.575 -0.4744  1.0397 -0.5802
  664HK4    C2355764   8.939   6.450   1.415  0.0734 -0.3445  0.1052
  664HK4    H1055765   9.036   6.412   1.382  1.5270  1.2477  2.3746
  664HK4    C3955766   8.900   6.318   1.129  0.2087  0.7707  0.5389
  664HK4    C4155767   9.036   6.295   1.160  0.1566  0.1060  0.2739
  664HK4    H2155768   9.063   6.252   1.257  0.4863 -0.2806  0.0117
  664HK4    C4255769   9.139   6.306   1.067 -0.4098 -0.7467 -0.4642
  664HK4    H2255770   9.243   6.304   1.102 -0.5271 -1.7464 -0.1516
  664HK4    C4355771   9.106   6.340   0.936 -0.0546  0.1554 -0.3228
  664HK4    H2355772   9.186   6.363   0.866 -0.4669 -1.5840 -1.3816
  664HK4    C4455773   8.973   6.363   0.902 -0.1538 -0.1935 -0.1855
  664HK4    H2455774   8.940   6.377   0.799 -1.0088  0.0647  0.1236
  664HK4    C4555775   8.871   6.356   0.996  0.2753 -0.0580  0.2872
  664HK4    H2555776   8.778   6.410   0.974 -0.1856 -0.4528  1.2359
  665HK4    H2855777  10.619   6.315   9.376 -2.2553 -0.2947  0.7971
  665HK4    C4855778  10.592   6.320   9.270  0.0200  0.1984  0.2093
  665HK4    C4755779  10.556   6.440   9.210 -0.0161  0.0770 -0.0084
  665HK4    H2755780  10.546   6.530   9.271  1.3094  0.0919  0.2168
  665HK4    C4655781  10.508   6.443   9.079  0.4508 -0.0204 -0.1858
  665HK4    H2655782  10.505   6.536   9.021 -1.7056  0.4370  0.6005
  665HK4    C4055783  10.479   6.326   9.007  0.1708 -0.2488  0.2911
  665HK4    C5055784  10.508   6.204   9.072  0.5074 -0.4283 -0.1928
  665HK4    H3055785  10.467   6.110   9.032  1.5807 -0.0208 -2.3665
  665HK4    C4955786  10.567   6.204   9.197 -0.2851  0.2799  0.1805
  665HK4    H2955787  10.639   6.127   9.229 -0.0503  0.5895  0.4061
  665HK4     N255788  10.446   6.327   8.871  0.7425  0.2748  0.1571
  665HK4    C3055789  10.399   6.438   8.797  0.2060 -0.2515 -0.2923
  665HK4    C2955790  10.345   6.559   8.837 -0.0890 -0.3372 -0.4235
  665HK4    H1555791  10.303   6.567   8.937  3.7818  3.7809  1.0737
  665HK4    C2855792  10.314   6.664   8.750 -0.4181  0.0373  0.1418
  665HK4    C2755793  10.343   6.644   8.613  0.3362 -0.1189  0.3208
  665HK4    H1455794  10.324   6.727   8.544  0.4769  0.4664  0.9784
  665HK4    C3255795  10.394   6.523   8.567 -0.5852 -0.2642 -0.3207
  665HK4    H1655796  10.424   6.510   8.463  0.5965 -1.9296  0.2160
  665HK4    C3155797  10.421   6.419   8.655 -0.0927 -0.1607 -0.3516
  665HK4    C3455798  10.499   6.297   8.646 -0.4127 -0.3693 -0.3353
  665HK4    C3355799  10.504   6.238   8.778 -0.1356  0.0372 -0.1609
  665HK4    C3555800  10.598   6.137   8.795 -0.0178  0.2411  0.4258
  665HK4    H1755801  10.600   6.083   8.889  0.1542  2.0589  1.4800
  665HK4    C3655802  10.670   6.082   8.689 -0.5216  0.3153  0.0385
  665HK4    H1855803  10.741   5.999   8.699 -0.9788 -0.3382 -1.8971
  665HK4    C3755804  10.667   6.147   8.566 -0.2440  0.2364 -0.0069
  665HK4    H1955805  10.750   6.125   8.500 -1.5850 -0.9750 -1.3208
  665HK4    C3855806  10.583   6.256   8.543  0.4205  0.7329 -0.1079
  665HK4    H2055807  10.604   6.324   8.460  4.3672 -0.7618 -0.4664
  665HK4    C1455808  10.248   6.782   8.807  0.1382  0.4364 -0.0341
  665HK4     C955809  10.161   6.861   8.732 -0.3468 -0.1389 -0.0849
  665HK4     C855810  10.171   7.001   8.739  0.0367 -0.1601 -0.2384
  665HK4    C1155811  10.263   7.063   8.823 -0.3938  0.0805  0.0627
  665HK4     H455812  10.272   7.172   8.817 -0.6910  0.0496 -0.9032
  665HK4    C1255813  10.329   6.984   8.917  0.0144  0.1913 -0.1295
  665HK4     H555814  10.374   7.035   9.003  2.6294  0.4187 -1.5736
  665HK4    C1355815  10.320   6.845   8.910  0.4906  0.1599 -0.1120
  665HK4     H655816  10.350   6.794   9.003  0.4712  2.6610  1.2980
  665HK4     C755817  10.079   7.089   8.663  0.0171  0.0077 -0.0214
  665HK4     O255818  10.117   7.201   8.630 -0.4996  0.1423 -0.1714
  665HK4     C455819   9.952   7.029   8.614 -0.1946  0.1993  0.2903
  665HK4     C355820   9.852   7.109   8.560 -0.0488  0.2668  0.1211
  665HK4     H355821   9.877   7.196   8.497 -0.0748 -0.3681 -0.7735
  665HK4     C255822   9.717   7.078   8.571  0.0527 -0.0984  0.3859
  665HK4     H255823   9.631   7.135   8.532  0.1349 -0.1524  0.1243
  665HK4     C155824   9.686   6.955   8.626 -0.1156 -0.3567 -0.2894
  665HK4     H155825   9.580   6.933   8.645  0.2382  0.5906  3.1139
  665HK4     C655826   9.780   6.859   8.670 -0.0313  0.2867  0.9359
  665HK4     C555827   9.913   6.901   8.656 -0.0553 -0.0339 -0.2834
  665HK4    C1055828  10.026   6.810   8.692 -0.4939 -0.2649  0.5452
  665HK4     O155829  10.014   6.692   8.662 -0.3140 -0.3163  0.6796
  665HK4    C1655830   9.726   6.723   8.685 -0.4053  0.3530  0.1964
  665HK4    C1555831   9.615   6.681   8.609  0.3778 -0.2574 -0.6174
  665HK4     H755832   9.611   6.724   8.508  1.2367 -2.7193 -1.7349
  665HK4    C2055833   9.528   6.575   8.635 -0.2626  0.4137 -0.0013
  665HK4     H955834   9.428   6.557   8.596 -0.2219 -0.8276  0.4522
  665HK4    C1955835   9.563   6.508   8.752 -0.1745  0.5320  0.0417
  665HK4    C1855836   9.676   6.545   8.835  0.0647  0.2242 -0.1545
  665HK4    C1755837   9.751   6.659   8.805  0.2240  0.1494 -0.0388
  665HK4     H855838   9.828   6.686   8.878 -0.2974  2.3922 -0.2910
  665HK4     N155839   9.705   6.454   8.938  0.3317 -0.0558 -0.4731
  665HK4    C2155840   9.609   6.351   8.926  0.0636  0.1610 -0.2110
  665HK4    C2255841   9.525   6.382   8.812 -0.0762  0.4719 -0.0251
  665HK4    C2655842   9.404   6.314   8.803  0.0048  0.3381 -0.0990
  665HK4    H1355843   9.352   6.308   8.707 -0.4468  0.8725  0.1093
  665HK4    C2555844   9.367   6.221   8.899 -0.0333  0.1866 -0.2628
  665HK4    H1255845   9.264   6.187   8.892 -1.3130  3.6419  0.5136
  665HK4    C2455846   9.453   6.186   9.002  0.3141 -0.1868 -0.6796
  665HK4    H1155847   9.434   6.097   9.065  0.3749  0.6880  0.6009
  665HK4    C2355848   9.575   6.250   9.016  0.0137  0.2651 -0.1158
  665HK4    H1055849   9.653   6.198   9.072 -2.2182  0.7902  3.6638
  665HK4    C3955850   9.826   6.426   9.003  0.0014  0.1767  0.2472
  665HK4    C4155851   9.831   6.379   9.136 -0.2674  0.1720  0.2535
  665HK4    H2155852   9.740   6.367   9.196 -0.0149 -1.5937  0.3151
  665HK4    C4255853   9.950   6.338   9.196 -0.1961 -0.1148 -0.0780
  665HK4    H2255854   9.938   6.285   9.292  0.8319 -1.7122 -0.8299
  665HK4    C4355855  10.064   6.343   9.118 -0.1198  0.3077  0.0528
  665HK4    H2355856  10.164   6.321   9.156 -0.6329 -2.6332 -0.1608
  665HK4    C4455857  10.062   6.390   8.987  0.0945 -0.0657 -0.0874
  665HK4    H2455858  10.152   6.406   8.925  0.7356 -0.6345  0.6770
  665HK4    C4555859   9.944   6.432   8.927 -0.0281 -0.0183  0.1854
  665HK4    H2555860   9.953   6.489   8.832  0.8379  1.4265  1.1138
  666HK4    H2855861   3.959   9.935  10.280  0.6588  0.3361 -1.7937
  666HK4    C4855862   4.016  10.025  10.304  0.4227  0.0769 -0.2594
  666HK4    C4755863   4.035  10.120  10.205 -0.6341  0.1106 -0.4382
  666HK4    H2755864   3.986  10.097  10.110  1.4508 -0.1562 -1.4742
  666HK4    C4655865   4.107  10.235  10.237 -0.1379 -0.3235  0.0335
  666HK4    H2655866   4.091  10.322  10.172  0.0793 -1.5662 -1.7142
  666HK4    C4055867   4.157  10.261  10.366 -0.3222  0.5123 -0.0578
  666HK4    C5055868   4.128  10.166  10.467  0.4006  0.0836 -0.2489
  666HK4    H3055869   4.182  10.183  10.561  1.6179  2.5193 -1.3252
  666HK4    C4955870   4.059  10.050  10.434 -0.1529  0.3755 -0.1236
  666HK4    H2955871   4.028   9.978  10.510 -2.4736 -0.0079 -1.4000
  666HK4     N255872   4.272  10.339  10.384 -0.1238  0.1862  0.1021
  666HK4    C3055873   4.373  10.363  10.288 -0.2918  0.0060 -0.1166
  666HK4    C2955874   4.410  10.270  10.192  0.6233  0.0533  0.1756
  666HK4    H1555875   4.378  10.166  10.196  1.4053 -0.2308 -0.8087
  666HK4    C2855876   4.504  10.312  10.098  0.5518 -0.0864  0.0392
  666HK4    C2755877   4.559  10.441  10.112  0.4977 -0.0328 -0.2469
  666HK4    H1455878   4.646  10.473  10.053  0.9277  0.0318  0.4151
  666HK4    C3255879   4.531  10.531  10.215  0.0211 -0.3861 -0.0644
  666HK4    H1655880   4.595  10.616  10.236  0.4303 -0.7375  0.1310
  666HK4    C3155881   4.440  10.489  10.311  0.9535 -0.7847  0.6525
  666HK4    C3455882   4.369  10.549  10.422 -0.0918 -0.0333 -0.4085
  666HK4    C3355883   4.265  10.456  10.463  0.2526 -0.0383  0.4658
  666HK4    C3555884   4.171  10.500  10.555  0.3014  0.3207  0.3444
  666HK4    H1755885   4.115  10.424  10.609  1.8319  0.1442  1.6903
  666HK4    C3655886   4.173  10.627  10.611 -0.2230  0.3133  0.3902
  666HK4    H1855887   4.110  10.652  10.698 -0.3639 -1.6282  0.8829
  666HK4    C3755888   4.276  10.712  10.574 -0.3360  0.0394 -0.5498
  666HK4    H1955889   4.282  10.814  10.611  0.0882 -0.0916 -0.2506
  666HK4    C3855890   4.366  10.679  10.473  0.0932 -0.1515 -0.1051
  666HK4    H2055891   4.423  10.759  10.426 -0.3747 -0.7805 -1.7745
  666HK4    C1455892   4.559  10.210  10.008  0.0316 -0.6444  0.3467
  666HK4     C955893   4.692  10.204   9.962 -0.0858  0.1567 -0.1130
  666HK4     C855894   4.713  10.157   9.831  0.1490  0.4279 -0.1721
  666HK4    C1155895   4.607  10.105   9.758 -0.1917  0.3617  0.3710
  666HK4     H455896   4.621  10.058   9.660  2.8789 -0.9960  1.4125
  666HK4    C1255897   4.478  10.097   9.809 -0.2023  0.0864  0.2981
  666HK4     H555898   4.406  10.041   9.748 -0.3739  0.5847  0.0336
  666HK4    C1355899   4.453  10.156   9.932 -0.2217 -0.4251  0.5435
  666HK4     H655900   4.347  10.175   9.953 -0.4617 -0.0007 -0.9955
  666HK4     C755901   4.850  10.156   9.775  0.2059 -0.7432 -0.0339
  666HK4     O255902   4.858  10.171   9.653  0.0968 -0.1466  0.0301
  666HK4     C455903   4.964  10.186   9.865 -0.0659 -0.0627  0.0873
  666HK4     C355904   5.089  10.192   9.805 -0.2114 -0.5498 -0.2616
  666HK4     H355905   5.092  10.186   9.695  1.2910 -0.4001 -0.2312
  666HK4     C255906   5.204  10.206   9.881 -0.4265 -0.4186  0.0341
  666HK4     H255907   5.304  10.193   9.837  0.0398 -2.0879  1.5321
  666HK4     C155908   5.188  10.200  10.019  0.9022  0.6865  0.2590
  666HK4     H155909   5.278  10.213  10.080  0.9071  0.2544  0.3418
  666HK4     C655910   5.063  10.187  10.084  0.6203 -0.3916 -0.4740
  666HK4     C555911   4.948  10.179  10.005  0.1719  0.1308  0.1253
  666HK4    C1055912   4.811  10.214  10.052 -0.0049 -0.1339 -0.1866
  666HK4     O155913   4.799  10.282  10.154 -0.3360 -0.3258 -0.0975
  666HK4    C1655914   5.062  10.181  10.231  0.1293  0.4462 -0.4373
  666HK4    C1555915   5.166  10.234  10.310 -0.0908  0.1876  0.0227
  666HK4     H755916   5.210  10.324  10.264 -0.7367  0.0347 -0.9161
  666HK4    C2055917   5.196  10.198  10.441 -0.6509  0.6411  0.2847
  666HK4     H955918   5.292  10.233  10.480 -0.2110  1.7934 -1.7457
  666HK4    C1955919   5.107  10.110  10.501 -0.2455  0.0680  0.0335
  666HK4    C1855920   4.993  10.058  10.428 -0.4395  0.3148  0.1651
  666HK4    C1755921   4.976  10.092  10.294  1.0545 -0.2711 -0.1795
  666HK4     H855922   4.905  10.029  10.241  1.8070 -1.9080  0.7556
  666HK4     N155923   4.904   9.983  10.507 -0.1537 -0.2223 -0.0245
  666HK4    C2155924   4.974   9.969  10.629  0.2391  0.5242 -0.1585
  666HK4    C2255925   5.094  10.050  10.632  0.7564 -0.2405  0.0024
  666HK4    C2655926   5.182  10.043  10.739  0.5402  0.0670  0.2046
  666HK4    H1355927   5.284  10.074  10.716  0.6385  0.3806  1.0219
  666HK4    C2555928   5.154   9.952  10.841  0.4399  0.1060  0.2099
  666HK4    H1255929   5.222   9.959  10.925 -0.7586 -2.0990  1.4090
  666HK4    C2455930   5.040   9.872  10.837 -0.3785  1.2497  0.2468
  666HK4    H1155931   5.034   9.798  10.918  1.5637  2.0049  1.1174
  666HK4    C2355932   4.949   9.879  10.732 -0.0609  0.7114 -0.0672
  666HK4    H1055933   4.848   9.839  10.737 -0.2991  1.0770 -1.8048
  666HK4    C3955934   4.765   9.985  10.491 -0.2346  0.5071  0.7027
  666HK4    C4155935   4.693   9.874  10.539 -0.2854  0.0415 -0.4206
  666HK4    H2155936   4.731   9.771  10.541  1.5009  0.6625 -1.4302
  666HK4    C4255937   4.555   9.878  10.550 -0.2482  0.6689 -0.1439
  666HK4    H2255938   4.508   9.787  10.591  0.1005  0.1639 -0.8688
  666HK4    C4355939   4.479   9.983  10.500 -0.6401  0.2151 -0.5051
  666HK4    H2355940   4.370   9.983  10.501 -0.6438  0.3859  0.9337
  666HK4    C4455941   4.550  10.095  10.457 -0.1117  0.0758  0.0031
  666HK4    H2455942   4.499  10.189  10.435  2.5054  1.6177  0.3137
  666HK4    C4555943   4.689  10.097  10.451 -0.0990  0.4934  0.4200
  666HK4    H2555944   4.733  10.197  10.454  0.8188  0.0719  1.1256
  667HK4    H2855945   1.137  11.066   6.476  1.0633 -1.6496 -0.3747
  667HK4    C4855946   1.134  11.038   6.582  0.4882 -0.3850 -0.0435
  667HK4    C4755947   1.060  10.924   6.612 -0.1775  0.0282 -0.1053
  667HK4    H2755948   1.012  10.859   6.537 -1.7147  0.8769  0.1286
  667HK4    C4655949   1.063  10.877   6.743 -0.3180  0.2335 -0.0263
  667HK4    H2655950   1.006  10.788   6.772 -0.0177  0.2423  0.5849
  667HK4    C4055951   1.138  10.933   6.848  0.7244 -1.1661 -0.0139
  667HK4    C5055952   1.210  11.049   6.814 -0.7051 -0.2559  0.0453
  667HK4    H3055953   1.272  11.102   6.887  0.8750  0.5438 -1.8453
  667HK4    C4955954   1.205  11.099   6.684  0.9360 -0.6771 -0.1816
  667HK4    H2955955   1.270  11.180   6.647  2.0482 -1.0113  1.0039
  667HK4     N255956   1.112  10.905   6.983 -0.1286  0.2059  0.1225
  667HK4    C3055957   0.993  10.850   7.034  0.1486 -0.5481 -0.0330
  667HK4    C2955958   0.865  10.839   6.982 -0.0073  0.5380  0.1058
  667HK4    H1555959   0.853  10.871   6.879  2.1451  0.0617 -0.3102
  667HK4    C2855960   0.756  10.790   7.054  0.1066 -0.2908 -0.2811
  667HK4    C2755961   0.783  10.751   7.187 -0.0554  0.0949 -0.1349
  667HK4    H1455962   0.700  10.718   7.251 -0.2586  1.0850  0.1301
  667HK4    C3255963   0.913  10.743   7.237 -0.2400  0.9757  0.4956
  667HK4    H1655964   0.927  10.712   7.340 -2.2003  2.2166  1.1784
  667HK4    C3155965   1.021  10.783   7.159 -0.0252 -0.7747 -0.1128
  667HK4    C3455966   1.162  10.802   7.188 -0.1705  0.1728 -0.0063
  667HK4    C3355967   1.216  10.875   7.074 -0.0737  0.2032  0.0595
  667HK4    C3555968   1.353  10.896   7.074 -0.0910  0.3204  0.2899
  667HK4    H1755969   1.398  10.951   6.991  2.8797  0.1196  1.7173
  667HK4    C3655970   1.442  10.839   7.165  0.0045  0.2262  0.1379
  667HK4    H1855971   1.544  10.878   7.172  0.7149 -1.4056 -0.9996
  667HK4    C3755972   1.388  10.764   7.269 -0.2823 -0.1127 -0.2508
  667HK4    H1955973   1.451  10.724   7.348  0.3191  0.1518 -0.5892
  667HK4    C3855974   1.250  10.758   7.286 -0.2560  0.1152  0.0454
  667HK4    H2055975   1.209  10.722   7.380 -2.4925  0.8977 -0.5943
  667HK4    C1455976   0.618  10.811   7.009 -0.1178 -0.2589  0.4215
  667HK4     C955977   0.516  10.817   7.105 -0.3561  0.5117  0.1242
  667HK4     C855978   0.408  10.730   7.079 -0.0199  0.0140  0.3842
  667HK4    C1155979   0.404  10.651   6.964  0.1139  0.9858 -0.2908
  667HK4     H455980   0.352  10.554   6.964 -0.7159  1.4271 -1.0255
  667HK4    C1255981   0.497  10.660   6.861 -0.0699  0.2072 -0.5247
  667HK4     H555982   0.473  10.612   6.765 -1.0823 -0.0505 -0.1462
  667HK4    C1355983   0.602  10.748   6.885 -0.6500  0.7722 -0.0424
  667HK4     H655984   0.675  10.775   6.807  0.4227  2.6932  1.5905
  667HK4     C755985   0.282  10.750   7.154 -0.2627  0.1771 -0.0628
  667HK4     O255986   0.198  10.661   7.147 -0.0465 -0.0525  0.2389
  667HK4     C455987   0.258  10.873   7.233  0.3440  0.2299  0.0444
  667HK4     C355988   0.138  10.895   7.299  0.0754 -0.1334 -0.3263
  667HK4     H355989   0.056  10.821   7.289 -0.6953  0.7477 -0.5557
  667HK4     C255990   0.118  11.007   7.378 -0.0458  0.0423 -0.6049
  667HK4     H255991   0.019  11.022   7.424  0.1649  0.7384 -0.3670
  667HK4     C155992   0.218  11.103   7.387 -0.3550  0.2797  0.2830
  667HK4     H155993   0.206  11.193   7.450  3.2577  1.6763 -0.8917
  667HK4     C655994   0.335  11.090   7.309 -0.3916  0.2056  0.2435
  667HK4     C555995   0.361  10.969   7.243  0.3695  0.1451  0.6467
  667HK4    C1055996   0.498  10.934   7.195  0.3760  0.2917  0.5532
  667HK4     O155997   0.597  10.983   7.249  0.5710  0.1101  0.3606
  667HK4    C1655998   0.418  11.211   7.311 -0.0801 -0.0082  0.0683
  667HK4    C1555999   0.419   0.062   7.411 -0.1285  0.1306 -0.0663
  667HK4     H756000   0.401   0.022   7.512 -0.3375  0.1177 -0.1089
  667HK4    C2056001   0.466   0.191   7.391 -0.3731  0.1975 -0.2168
  667HK4     H956002   0.462   0.265   7.471  2.8968 -1.3060  1.4663
  667HK4    C1956003   0.524   0.226   7.270  0.1297  0.1158 -0.0019
  667HK4    C1856004   0.536   0.122   7.170 -0.2456  0.2995 -0.2413
  667HK4    C1756005   0.483  11.243   7.192 -0.2267  0.3479  0.0859
  667HK4     H856006   0.488  11.170   7.111 -0.9278  0.4929 -0.0893
  667HK4     N156007   0.608   0.173   7.060  0.5354 -0.0031  0.1193
  667HK4    C2156008   0.637   0.309   7.084  0.1722  0.0535  0.2434
  667HK4    C2256009   0.591   0.343   7.217  0.3145  0.1353  0.2729
  667HK4    C2656010   0.573   0.475   7.256  0.1916  0.2038 -0.0117
  667HK4    H1356011   0.510   0.505   7.340  0.6357 -0.6203  0.6264
  667HK4    C2556012   0.613   0.577   7.170 -0.2047 -0.0130 -0.4485
  667HK4    H1256013   0.605   0.683   7.193 -1.0160 -0.6939  2.5866
  667HK4    C2456014   0.666   0.544   7.046  0.1757  0.0664 -0.3083
  667HK4    H1156015   0.662   0.618   6.965  0.3027  0.0777 -0.3037
  667HK4    C2356016   0.682   0.412   7.003 -0.4453 -0.0396 -0.2241
  667HK4    H1056017   0.749   0.387   6.920  2.5963  1.8148  1.5778
  667HK4    C3956018   0.683   0.094   6.972 -0.1925 -0.3036 -0.2415
  667HK4    C4156019   0.698   0.124   6.835  0.4956  0.5521  0.0192
  667HK4    H2156020   0.619   0.178   6.781  1.9876  1.7560 -1.0159
  667HK4    C4256021   0.817   0.092   6.771  0.0860 -0.1970 -0.3691
  667HK4    H2256022   0.857   0.142   6.681  1.8539  0.1908  0.5954
  667HK4    C4356023   0.902  11.247   6.831  0.0101 -0.3332 -0.4712
  667HK4    H2356024   1.002  11.239   6.789  0.2311 -0.2549  0.0431
  667HK4    C4456025   0.871  11.196   6.956  0.3738  0.3176 -0.1146
  667HK4    H2456026   0.915  11.099   6.983  1.6540  1.3754  1.7538
  667HK4    C4556027   0.772   0.005   7.036  0.5788  0.5900 -0.0551
  667HK4    H2556028   0.753  11.223   7.140  0.0681  1.2770  0.0551
  668HK4    H2856029   4.912   7.743   0.626 -1.7251  0.9175 -0.7031
  668HK4    C4856030   4.871   7.738   0.727  0.7194  0.4662  0.2959
  668HK4    C4756031   4.804   7.848   0.780 -0.7440 -0.2029 -0.1485
  668HK4    H2756032   4.796   7.940   0.720 -1.6677  1.4511  2.4290
  668HK4    C4656033   4.746   7.846   0.906 -0.3926 -0.0320  0.0161
  668HK4    H2656034   4.679   7.927   0.937  0.9231  0.0064  2.9505
  668HK4    C4056035   4.758   7.733   0.990 -0.1032 -0.1064 -0.1268
  668HK4    C5056036   4.827   7.621   0.938  0.2954  0.0957 -0.0271
  668HK4    H3056037   4.851   7.529   0.992 -0.5680  1.2101  2.2893
  668HK4    C4956038   4.877   7.625   0.808 -0.5602 -0.0925 -0.3664
  668HK4    H2956039   4.928   7.535   0.771  0.0818  1.2033 -2.7949
  668HK4     N256040   4.740   7.742   1.128 -0.6399 -0.1386 -0.1909
  668HK4    C3056041   4.742   7.860   1.205 -0.4452  0.3609 -0.9619
  668HK4    C2956042   4.833   7.965   1.196  0.1774 -0.0772  0.1014
  668HK4    H1556043   4.910   7.955   1.119 -0.0070 -1.0700  0.0468
  668HK4    C2856044   4.842   8.070   1.287  0.7981 -0.2842  0.2787
  668HK4    C2756045   4.748   8.064   1.392  0.8167 -0.2548  0.2964
  668HK4    H1456046   4.748   8.139   1.471  0.9262  0.2518 -0.1812
  668HK4    C3256047   4.661   7.957   1.409  0.7433 -0.2166  0.1576
  668HK4    H1656048   4.596   7.955   1.497  1.4916  2.0304  0.7839
  668HK4    C3156049   4.654   7.851   1.320  0.4237  0.1933 -0.3070
  668HK4    C3456050   4.592   7.721   1.308 -0.1074  0.4203 -0.0171
  668HK4    C3356051   4.651   7.654   1.194 -0.6326 -0.0280 -0.0335
  668HK4    C3556052   4.615   7.523   1.165 -0.5511 -0.0099 -0.2190
  668HK4    H1756053   4.662   7.474   1.080 -1.4685 -1.4227  0.0719
  668HK4    C3656054   4.526   7.452   1.245 -0.7818  0.1366 -0.3467
  668HK4    H1856055   4.478   7.356   1.222 -1.1054  0.1683  0.1760
  668HK4    C3756056   4.475   7.512   1.359 -0.6452  0.0006 -0.2155
  668HK4    H1956057   4.399   7.467   1.422  2.6716 -0.5121  3.6482
  668HK4    C3856058   4.507   7.645   1.388  0.0561 -0.1299 -0.3643
  668HK4    H2056059   4.470   7.690   1.480 -0.2226  1.1411 -1.0958
  668HK4    C1456060   4.951   8.169   1.285  0.2008  0.3724  0.0138
  668HK4     C956061   5.010   8.239   1.390  0.4278  0.1194  0.0587
  668HK4     C856062   5.068   8.366   1.369  0.0105  0.2924 -0.0731
  668HK4    C1156063   5.067   8.433   1.247 -0.3467  0.4173 -0.0020
  668HK4     H456064   5.128   8.524   1.245 -1.2170  1.0403  1.2337
  668HK4    C1256065   5.023   8.360   1.137  0.5619 -0.4528  0.2000
  668HK4     H556066   5.027   8.404   1.037  0.9155  0.6257  0.6830
  668HK4    C1356067   4.972   8.233   1.161  0.1583 -0.4049 -0.4040
  668HK4     H656068   4.948   8.177   1.070 -0.2664  2.2888 -2.0242
  668HK4     C756069   5.122   8.440   1.485 -1.0154  0.7070  0.1434
  668HK4     O256070   5.230   8.499   1.470 -0.4604 -0.2481  0.3380
  668HK4     C456071   5.069   8.402   1.618 -0.0659 -0.5805  0.1675
  668HK4     C356072   5.119   8.481   1.721 -0.2388  0.1528 -0.3085
  668HK4     H356073   5.137   8.588   1.701 -1.8216  0.3509 -0.7316
  668HK4     C256074   5.115   8.439   1.853  0.0248  0.2835 -0.2599
  668HK4     H256075   5.180   8.482   1.931  0.2290  0.9251 -0.7717
  668HK4     C156076   5.037   8.328   1.883  0.0964  0.3505  0.1883
  668HK4     H156077   5.007   8.313   1.988  1.6036  0.1609  0.6112
  668HK4     C656078   4.992   8.239   1.783 -0.3043 -0.1363  0.8046
  668HK4     C556079   5.021   8.274   1.651  0.6451 -0.6707  0.8692
  668HK4    C1056080   5.007   8.188   1.530  0.4582  0.3621  0.1493
  668HK4     O156081   5.033   8.068   1.543 -0.5949  0.0704 -0.3857
  668HK4    C1656082   4.883   8.149   1.823 -0.3999 -0.3199  0.1291
  668HK4    C1556083   4.787   8.207   1.908 -0.6411 -0.1865 -0.2299
  668HK4     H756084   4.778   8.317   1.914 -2.9857 -0.3991  1.0231
  668HK4    C2056085   4.703   8.121   1.978 -0.4828 -0.1726 -0.0177
  668HK4     H956086   4.634   8.170   2.048 -1.1707 -0.1550 -0.7005
  668HK4    C1956087   4.706   7.984   1.961  1.2283 -0.2616  0.9695
  668HK4    C1856088   4.807   7.926   1.874  0.2651 -0.3269 -0.1056
  668HK4    C1756089   4.900   8.012   1.817  0.0393 -0.2450 -0.3528
  668HK4     H856090   4.985   7.960   1.771 -2.1912 -3.5213 -1.0019
  668HK4     N156091   4.807   7.785   1.866 -0.0529 -0.3118 -0.4094
  668HK4    C2156092   4.700   7.751   1.951  0.0248  0.4771  0.0080
  668HK4    C2256093   4.640   7.867   2.016  0.1785  0.1832  0.6714
  668HK4    C2656094   4.524   7.859   2.091 -0.2481 -0.2162 -0.0250
  668HK4    H1356095   4.478   7.948   2.135  1.1695  0.9846 -0.9205
  668HK4    C2556096   4.462   7.735   2.107 -0.9587  0.1005 -0.2817
  668HK4    H1256097   4.356   7.739   2.132 -1.5767 -2.6085 -2.2855
  668HK4    C2456098   4.523   7.622   2.056  0.3713  0.7939 -0.2476
  668HK4    H1156099   4.482   7.523   2.080  0.8193 -0.1285 -3.0732
  668HK4    C2356100   4.637   7.630   1.976  0.4924  0.2005 -0.1378
  668HK4    H1056101   4.641   7.550   1.902  1.8867 -0.2721  0.4404
  668HK4    C3956102   4.860   7.695   1.773  0.5096 -0.3694 -0.0337
  668HK4    C4156103   4.873   7.561   1.815  0.7271 -0.2427  0.3048
  668HK4    H2156104   4.883   7.549   1.924 -0.7680  2.0994  0.7340
  668HK4    C4256105   4.893   7.455   1.726 -0.0193  0.0468 -0.2147
  668HK4    H2256106   4.902   7.353   1.765 -0.9361  0.2565  0.5688
  668HK4    C4356107   4.895   7.482   1.590  0.2898  0.6404 -0.0969
  668HK4    H2356108   4.922   7.398   1.527 -0.1832 -0.1507  0.7413
  668HK4    C4456109   4.878   7.613   1.546 -0.2341  0.3644 -0.7263
  668HK4    H2456110   4.834   7.630   1.447 -2.9138  3.8631  0.9524
  668HK4    C4556111   4.860   7.719   1.634 -0.9004 -0.3173 -0.0339
  668HK4    H2556112   4.884   7.819   1.595  1.1939 -1.2482 -1.2150
  669HK4    H2856113   5.065   5.550   7.569 -0.8861 -0.3996  0.4408
  669HK4    C4856114   5.035   5.541   7.464 -0.2903  0.4474  0.1965
  669HK4    C4756115   5.103   5.454   7.379 -0.5174  0.4432  0.0188
  669HK4    H2756116   5.204   5.427   7.414 -0.1091 -3.5729 -3.8300
  669HK4    C4656117   5.050   5.396   7.265 -0.0315 -0.3801  0.2071
  669HK4    H2656118   5.096   5.306   7.222 -1.0629 -1.6860  1.8018
  669HK4    C4056119   4.918   5.433   7.231  0.0089  0.0137  0.4789
  669HK4    C5056120   4.855   5.531   7.311 -0.6546 -0.5718  0.6827
  669HK4    H3056121   4.750   5.550   7.283  0.0997  1.5564 -0.9186
  669HK4    C4956122   4.912   5.592   7.422 -0.5479 -0.0521  0.3491
  669HK4    H2956123   4.866   5.661   7.493 -0.0932 -1.2849  1.8877
  669HK4     N256124   4.829   5.349   7.163 -0.4716  0.7340  0.2065
  669HK4    C3056125   4.838   5.208   7.161 -0.6077  0.7249  0.2815
  669HK4    C2956126   4.884   5.123   7.260 -0.9151 -0.1537 -0.3279
  669HK4    H1556127   4.934   5.157   7.351 -1.3920 -1.3500  0.3977
  669HK4    C2856128   4.888   4.986   7.234 -0.4147 -0.1770 -0.1331
  669HK4    C2756129   4.848   4.931   7.111  0.4424 -0.1742 -0.4118
  669HK4    H1456130   4.817   4.826   7.107  0.0286 -0.0133 -1.9612
  669HK4    C3256131   4.805   5.017   7.010  0.2864  0.4904  0.2197
  669HK4    H1656132   4.767   4.975   6.917 -1.6656  1.7846  0.3814
  669HK4    C3156133   4.785   5.152   7.038  0.6095  0.6260 -0.2075
  669HK4    C3456134   4.757   5.270   6.959  0.1666  0.4658 -0.2909
  669HK4    C3356135   4.778   5.390   7.038 -0.8797  0.3089  0.2330
  669HK4    C3556136   4.747   5.516   6.988 -0.7975  0.1829 -0.1331
  669HK4    H1756137   4.745   5.606   7.050 -0.7844 -0.1702  0.3815
  669HK4    C3656138   4.696   5.517   6.859 -0.1147 -0.5716 -0.4081
  669HK4    H1856139   4.658   5.616   6.829  0.1367 -0.2522  0.3272
  669HK4    C3756140   4.673   5.407   6.776 -0.7215 -0.5932 -0.2127
  669HK4    H1956141   4.629   5.415   6.677 -0.9289 -1.0949 -0.1585
  669HK4    C3856142   4.705   5.283   6.831  0.4237 -0.4316 -0.4910
  669HK4    H2056143   4.704   5.193   6.769  1.6537 -0.1192 -0.9733
  669HK4    C1456144   4.959   4.911   7.339 -0.2262  0.2346  0.0401
  669HK4     C956145   5.059   4.819   7.305 -0.2346  0.2705 -0.0781
  669HK4     C856146   5.064   4.698   7.378  0.2310  0.2437 -0.1514
  669HK4    C1156147   4.978   4.676   7.485  0.3085 -0.0368 -0.1439
  669HK4     H456148   4.969   4.575   7.526  0.7244  1.0826  2.8149
  669HK4    C1256149   4.888   4.775   7.526 -0.0276 -0.4807  0.1969
  669HK4     H556150   4.820   4.747   7.608 -2.5556 -0.1508 -1.7193
  669HK4    C1356151   4.882   4.895   7.456  0.7780 -0.1699  0.6539
  669HK4     H656152   4.834   4.981   7.506 -2.1082 -0.6254 -1.2233
  669HK4     C756153   5.171   4.603   7.341 -0.6731 -0.6707 -0.4451
  669HK4     O256154   5.146   4.487   7.370 -0.2132 -0.4489  0.8692
  669HK4     C456155   5.284   4.635   7.250 -0.1981 -0.1592  0.3137
  669HK4     C356156   5.392   4.549   7.241  0.3439  0.5180  0.3258
  669HK4     H356157   5.394   4.450   7.288 -0.2684 -0.9186 -2.5521
  669HK4     C256158   5.483   4.573   7.138  0.1053  0.2068  0.0417
  669HK4     H256159   5.580   4.523   7.136 -0.8758 -1.9680  3.3532
  669HK4     C156160   5.453   4.658   7.032 -0.3179  0.0001 -0.0065
  669HK4     H156161   5.504   4.649   6.935 -0.9548  0.1271 -0.3561
  669HK4     C656162   5.337   4.738   7.038 -0.5941 -0.4128  0.1369
  669HK4     C556163   5.259   4.736   7.154  0.2012  0.2981  0.6867
  669HK4    C1056164   5.162   4.840   7.200  0.1233  0.3972  0.2951
  669HK4     O156165   5.186   4.959   7.178  0.4771  0.3450  0.3913
  669HK4    C1656166   5.268   4.757   6.910 -0.1876  0.1787  0.0075
  669HK4    C1556167   5.255   4.651   6.818 -0.5593 -0.0397  0.3118
  669HK4     H756168   5.227   4.553   6.860 -1.0570 -0.4577 -0.9803
  669HK4    C2056169   5.255   4.676   6.682  0.0582  0.0088  0.3167
  669HK4     H956170   5.250   4.594   6.610  0.0225 -0.3822  0.7699
  669HK4    C1956171   5.255   4.803   6.626  0.4951  0.0429  0.3895
  669HK4    C1856172   5.260   4.911   6.722 -1.0266  0.1483  0.3739
  669HK4    C1756173   5.267   4.887   6.859  0.0834  0.3184  0.3549
  669HK4     H856174   5.290   4.969   6.927  2.7044 -0.0106 -0.0784
  669HK4     N156175   5.269   5.037   6.659  0.1752 -0.0529  0.1115
  669HK4    C2156176   5.274   5.003   6.522 -0.5976 -0.7276  0.2410
  669HK4    C2256177   5.275   4.861   6.494 -0.1122 -0.6750 -0.0234
  669HK4    C2656178   5.272   4.811   6.364  0.4055  0.0180 -0.3051
  669HK4    H1356179   5.311   4.711   6.347 -1.4721 -0.8082  0.0613
  669HK4    C2556180   5.266   4.905   6.262  0.2292  0.6860  0.3128
  669HK4    H1256181   5.261   4.887   6.155  1.0365  2.2254  0.0064
  669HK4    C2456182   5.275   5.042   6.282 -0.3658  0.7815 -0.0530
  669HK4    H1156183   5.325   5.102   6.205 -0.4616  1.0553  0.0988
  669HK4    C2356184   5.275   5.089   6.413 -0.3588 -0.5075  0.4162
  669HK4    H1056185   5.281   5.197   6.426  3.2678 -0.2594 -2.4981
  669HK4    C3956186   5.240   5.160   6.718 -0.1927  0.1563 -0.5000
  669HK4    C4156187   5.319   5.275   6.694 -0.2654  0.1910 -0.5727
  669HK4    H2156188   5.412   5.265   6.636  0.3859  1.6207  0.2000
  669HK4    C4256189   5.286   5.397   6.750  0.5291  0.1205  0.0651
  669HK4    H2256190   5.367   5.470   6.764 -0.7996  1.5224  0.5799
  669HK4    C4356191   5.167   5.417   6.819  0.4309 -0.2466  0.0005
  669HK4    H2356192   5.136   5.520   6.834  4.2475  1.2995 -2.1757
  669HK4    C4456193   5.087   5.306   6.846  0.4278 -0.2161  0.1194
  669HK4    H2456194   4.992   5.320   6.900 -0.5385  0.0691 -1.6093
  669HK4    C4556195   5.125   5.181   6.798 -0.0124 -0.2568 -0.1267
  669HK4    H2556196   5.065   5.095   6.829  1.2360 -1.5774 -1.3330
  670HK4    H2856197  11.237   4.458   4.191 -3.9228 -0.9745 -0.9459
  670HK4    C4856198  11.222   4.434   4.297 -0.2076 -0.8144 -0.3104
  670HK4    C4756199   0.073   4.405   4.389 -0.0517 -0.0223 -0.2230
  670HK4    H2756200   0.176   4.439   4.374 -0.0068 -0.5919 -1.2353
  670HK4    C4656201   0.037   4.348   4.511 -0.5409  0.4491 -0.1420
  670HK4    H2656202   0.116   4.289   4.561 -2.1058 -0.7146  0.9905
  670HK4    C4056203  11.153   4.336   4.559 -0.4087 -0.2865  0.0551
  670HK4    C5056204  11.055   4.376   4.466 -0.1351  0.2260 -0.0152
  670HK4    H3056205  10.949   4.375   4.493 -0.0092 -2.2439  0.4851
  670HK4    C4956206  11.090   4.419   4.339 -0.2449  0.0216 -0.1148
  670HK4    H2956207  11.005   4.462   4.284 -0.9046 -0.2266  0.7120
  670HK4     N256208  11.121   4.327   4.695 -0.4026  0.0318  0.0782
  670HK4    C3056209  11.205   4.367   4.802 -0.5525  0.3392  0.0808
  670HK4    C2956210   0.049   4.471   4.804 -0.2467  0.0650  0.3538
  670HK4    H1556211   0.108   4.504   4.718 -0.9767  0.1577 -0.1168
  670HK4    C2856212   0.092   4.526   4.924  0.4090  0.3423 -0.0043
  670HK4    C2756213   0.047   4.468   5.044  0.4919 -0.0798 -0.1790
  670HK4    H1456214   0.077   4.516   5.138  1.1265  2.6138 -1.7118
  670HK4    C3256215  11.211   4.357   5.043 -0.5688  0.7124  0.0210
  670HK4    H1656216  11.191   4.314   5.141 -2.8100 -2.4405 -1.7097
  670HK4    C3156217  11.163   4.303   4.924 -0.0730  0.0710  0.1065
  670HK4    C3456218  11.047   4.221   4.891  0.2134 -0.3065  0.0301
  670HK4    C3356219  11.019   4.248   4.751 -0.3466  0.0492  0.2108
  670HK4    C3556220  10.896   4.200   4.707 -0.3581 -0.1417  0.4581
  670HK4    H1756221  10.870   4.216   4.603  1.2037  1.9764  0.3601
  670HK4    C3656222  10.803   4.129   4.782 -0.7495  0.0874  0.1945
  670HK4    H1856223  10.703   4.110   4.739 -0.1186 -2.1134 -0.3510
  670HK4    C3756224  10.841   4.101   4.913  0.1899 -0.3741 -0.1748
  670HK4    H1956225  10.768   4.047   4.972 -2.3967  3.6601  0.5523
  670HK4    C3856226  10.962   4.143   4.968 -0.1982  0.2837  0.1772
  670HK4    H2056227  10.976   4.127   5.075 -1.5696  1.3723  0.5332
  670HK4    C1456228   0.196   4.630   4.925  0.3741  0.3796 -0.0752
  670HK4     C956229   0.286   4.658   5.029  0.4625 -0.0550 -0.0322
  670HK4     C856230   0.324   4.791   5.059 -0.4923  0.2007  0.0474
  670HK4    C1156231   0.287   4.891   4.970 -0.1936  0.7017  0.4893
  670HK4     H456232   0.309   4.998   4.986  1.5982  0.4015  0.1134
  670HK4    C1256233   0.219   4.862   4.852 -0.1067  0.2623  0.5474
  670HK4     H556234   0.179   4.942   4.788 -2.5196 -1.5413 -0.2795
  670HK4    C1356235   0.168   4.734   4.835  0.1840  0.2437 -0.1714
  670HK4     H656236   0.115   4.713   4.741 -1.1870 -0.1702  0.6756
  670HK4     C756237   0.402   4.822   5.180 -0.2267 -0.1930 -0.0212
  670HK4     O256238   0.381   4.927   5.240 -0.2159 -0.1421 -0.1049
  670HK4     C456239   0.471   4.710   5.249  1.0816  0.4527 -0.2607
  670HK4     C356240   0.535   4.729   5.371 -0.6404 -0.2351  0.7790
  670HK4     H356241   0.534   4.824   5.426 -0.5104 -0.5210  1.2700
  670HK4     C256242   0.618   4.631   5.425  0.3671  0.1636 -0.0210
  670HK4     H256243   0.661   4.655   5.523  1.9756 -0.7243 -0.4872
  670HK4     C156244   0.634   4.513   5.354 -0.1397  0.0929 -0.0191
  670HK4     H156245   0.668   4.424   5.409 -1.2616 -0.2464  0.1432
  670HK4     C656246   0.577   4.492   5.226 -0.4221 -0.3645  0.1826
  670HK4     C556247   0.482   4.586   5.184  0.3545  0.2985 -0.0948
  670HK4    C1056248   0.368   4.552   5.094  0.0978 -0.0829  0.3758
  670HK4     O156249   0.344   4.432   5.075  0.3604 -0.1859  0.6858
  670HK4    C1656250   0.634   4.377   5.156  0.2674  0.0636  0.0410
  670HK4    C1556251   0.638   4.379   5.015 -0.3236 -0.6701  0.0102
  670HK4     H756252   0.659   4.479   4.974  1.1431 -1.1032 -0.3402
  670HK4    C2056253   0.659   4.268   4.933  0.1442 -0.2150 -0.4943
  670HK4     H956254   0.639   4.270   4.826 -1.0144 -0.6309 -0.2876
  670HK4    C1956255   0.675   4.146   4.998  0.5962  0.2228  0.2271
  670HK4    C1856256   0.672   4.134   5.143 -0.5049 -0.1976  0.1729
  670HK4    C1756257   0.646   4.251   5.214  0.1800  0.0453  0.0212
  670HK4     H856258   0.620   4.239   5.319 -1.0015 -1.3473 -0.4129
  670HK4     N156259   0.739   4.020   5.191 -0.4393 -0.2426 -0.0262
  670HK4    C2156260   0.764   3.947   5.072  0.1217  0.1032 -0.1186
  670HK4    C2256261   0.723   4.017   4.952 -0.4283 -0.0673 -0.0292
  670HK4    C2656262   0.753   3.966   4.827 -0.5826 -0.4983  0.1087
  670HK4    H1356263   0.740   4.029   4.739  1.2082  0.2724  0.3798
  670HK4    C2556264   0.838   3.856   4.819  0.3221  0.1815  0.3425
  670HK4    H1256265   0.855   3.820   4.718 -1.0006 -3.6067  1.3945
  670HK4    C2456266   0.881   3.792   4.935 -0.0982 -0.1608  0.3074
  670HK4    H1156267   0.930   3.695   4.921  0.8075  0.2444  0.6821
  670HK4    C2356268   0.837   3.829   5.062  0.3862  0.2222  0.3653
  670HK4    H1056269   0.816   3.763   5.146 -0.5545  0.0233 -0.0100
  670HK4    C3956270   0.743   3.965   5.319 -0.4007  0.0636  0.1038
  670HK4    C4156271   0.861   3.902   5.364 -0.3505  0.1715  0.1234
  670HK4    H2156272   0.950   3.893   5.301  0.3605 -1.7600  1.3534
  670HK4    C4256273   0.860   3.826   5.481 -0.2739  0.0603  0.0514
  670HK4    H2256274   0.954   3.799   5.531 -0.7808  0.9897  1.5465
  670HK4    C4356275   0.747   3.811   5.560 -0.1864 -0.5579  0.0583
  670HK4    H2356276   0.746   3.739   5.641 -0.5775  1.2344  1.6815
  670HK4    C4456277   0.633   3.876   5.514  0.4260  0.4764 -0.0081
  670HK4    H2456278   0.545   3.879   5.581  0.1606 -1.0202 -0.2627
  670HK4    C4556279   0.625   3.949   5.396 -0.6465 -0.0925 -0.3028
  670HK4    H2556280   0.528   3.971   5.349 -0.2043 -1.4096 -1.8814
  671HK4    H2856281   8.171  10.531   8.112  1.0435 -0.4138 -0.9429
  671HK4    C4856282   8.175  10.637   8.139  0.0715 -0.3586 -0.9935
  671HK4    C4756283   8.298  10.683   8.184 -0.4483  0.1055 -0.0427
  671HK4    H2756284   8.390  10.623   8.172  0.5849  1.1884  2.1068
  671HK4    C4656285   8.316  10.814   8.226  0.0699  0.0061  0.0532
  671HK4    H2656286   8.406  10.853   8.275 -0.3552  0.9690  0.0924
  671HK4    C4056287   8.206  10.903   8.217 -0.0590 -0.1638 -0.0648
  671HK4    C5056288   8.084  10.852   8.168  0.3239 -0.3287 -0.8505
  671HK4    H3056289   8.000  10.917   8.142  0.7254  0.1342 -0.9957
  671HK4    C4956290   8.065  10.721   8.128 -0.1616 -0.5311  0.0240
  671HK4    H2956291   7.976  10.687   8.072  0.5785 -0.7880 -1.0049
  671HK4     N256292   8.215  11.043   8.219  0.2142 -0.1785  0.0922
  671HK4    C3056293   8.328  11.117   8.178 -0.1939  0.1631 -0.4237
  671HK4    C2956294   8.444  11.086   8.108  0.3956 -0.0756  0.6395
  671HK4    H1556295   8.445  10.986   8.065 -1.3190  0.2738 -0.2926
  671HK4    C2856296   8.543  11.174   8.067 -0.5094  0.2112 -0.9884
  671HK4    C2756297   8.518   0.062   8.097  0.3984  0.0133  0.7636
  671HK4    H1456298   8.591   0.140   8.075  0.4742 -0.1989  0.2462
  671HK4    C3256299   8.404   0.106   8.163 -0.1789  0.1513 -0.2982
  671HK4    H1656300   8.383   0.211   8.180  1.2565  0.5964 -1.2375
  671HK4    C3156301   8.310   0.011   8.201 -0.1185  0.1370 -0.1886
  671HK4    C3456302   8.181   0.018   8.267 -0.0079  0.3812 -0.0016
  671HK4    C3356303   8.123  11.133   8.277  0.2289  0.2378 -0.5217
  671HK4    C3556304   7.998  11.122   8.335  0.6034  0.0432  0.2624
  671HK4    H1756305   7.950  11.024   8.330  1.1236 -0.1269 -1.8135
  671HK4    C3656306   7.926  11.235   8.374 -0.0825 -0.3282  0.1024
  671HK4    H1856307   7.829  11.224   8.422  1.3889  0.1452  3.2875
  671HK4    C3756308   7.984   0.114   8.370 -0.0925 -0.3396 -0.5182
  671HK4    H1956309   7.919   0.200   8.356  0.9383 -0.0010 -3.5011
  671HK4    C3856310   8.112   0.127   8.318 -0.0816  0.4720 -0.2933
  671HK4    H2056311   8.161   0.223   8.336  1.1402 -0.1623 -0.1900
  671HK4    C1456312   8.673  11.119   8.025 -0.2196  0.8025 -0.8645
  671HK4     C956313   8.793  11.187   8.046 -0.2210  0.5959 -0.1837
  671HK4     C856314   8.892  11.192   7.946 -0.0093  0.1671 -0.0015
  671HK4    C1156315   8.874  11.113   7.833  0.5731 -0.0609  0.0626
  671HK4     H456316   8.950  11.119   7.754 -0.2244  0.0799 -0.7036
  671HK4    C1256317   8.759  11.037   7.814  0.2177  0.5291 -0.1715
  671HK4     H556318   8.746  10.964   7.733 -0.2116  0.9837 -0.5126
  671HK4    C1356319   8.661  11.037   7.911  0.2061 -0.2241 -0.1781
  671HK4     H656320   8.577  10.966   7.907  1.2033 -1.3361 -1.7851
  671HK4     C756321   9.021   0.011   7.976  0.4224 -0.6732  0.0304
  671HK4     O256322   9.105   0.027   7.888  0.2514  0.2438  0.0285
  671HK4     C456323   9.047   0.071   8.109  0.0591 -0.0868 -0.1579
  671HK4     C356324   9.176   0.114   8.139  0.1046 -0.2779 -0.0755
  671HK4     H356325   9.258   0.089   8.070 -0.2935 -3.1975  0.4250
  671HK4     C256326   9.199   0.186   8.255 -0.6210  0.1326 -0.1797
  671HK4     H256327   9.298   0.231   8.275 -1.2083  0.3127  2.5731
  671HK4     C156328   9.092   0.205   8.341 -0.3052  0.5233  0.1341
  671HK4     H156329   9.102   0.266   8.433  0.2519  1.4764 -0.5461
  671HK4     C656330   8.959   0.171   8.311 -0.1468  0.1823 -0.1774
  671HK4     C556331   8.941   0.087   8.200  0.2276 -0.2191  0.0635
  671HK4    C1056332   8.823  11.246   8.180 -0.0151  0.1220 -0.0204
  671HK4     O156333   8.802  11.168   8.272  0.0443 -0.2346 -0.3081
  671HK4    C1656334   8.855   0.257   8.370 -0.0555  0.6533 -0.6963
  671HK4    C1556335   8.733   0.192   8.399  0.3061  0.0716 -0.4762
  671HK4     H756336   8.728   0.092   8.445 -2.1493  0.5209  0.3473
  671HK4    C2056337   8.611   0.259   8.397  0.0992 -0.3136 -0.7716
  671HK4     H956338   8.529   0.209   8.448 -0.6536  1.4326 -0.2380
  671HK4    C1956339   8.608   0.396   8.372 -0.2559 -0.2542 -0.4031
  671HK4    C1856340   8.732   0.460   8.334 -0.1833  0.2527  0.6789
  671HK4    C1756341   8.853   0.392   8.338  0.2045  0.9244  0.4113
  671HK4     H856342   8.948   0.447   8.339  1.4047 -1.0507 -1.3659
  671HK4     N156343   8.707   0.586   8.276 -0.1495  0.1202  0.3731
  671HK4    C2156344   8.567   0.598   8.287 -0.0764  0.4186  1.0455
  671HK4    C2256345   8.497   0.480   8.333 -0.1718  0.1615  0.2470
  671HK4    C2656346   8.364   0.483   8.373 -0.4027  0.0699 -0.5019
  671HK4    H1356347   8.323   0.388   8.407 -0.6229  0.4356  0.2507
  671HK4    C2556348   8.298   0.605   8.386  0.3095  0.3868  0.1352
  671HK4    H1256349   8.203   0.601   8.439  0.3983 -1.9185  0.2140
  671HK4    C2456350   8.367   0.715   8.336  0.7190  0.2886  0.4871
  671HK4    H1156351   8.319   0.813   8.349  2.8478  1.4885 -0.4085
  671HK4    C2356352   8.495   0.717   8.284  0.1617  0.5311 -0.8974
  671HK4    H1056353   8.526   0.804   8.225 -0.6816  1.6070  0.2032
  671HK4    C3956354   8.788   0.700   8.273  0.0931 -0.0502  0.3796
  671HK4    C4156355   8.788   0.791   8.165 -0.1461 -0.0776  0.3557
  671HK4    H2156356   8.704   0.784   8.094  1.1706  0.1457 -1.2739
  671HK4    C4256357   8.865   0.907   8.164 -0.0040 -0.1719  0.3121
  671HK4    H2256358   8.835   0.982   8.088  1.1775 -0.7536 -0.7367
  671HK4    C4356359   8.948   0.937   8.271  0.1385  0.0292  0.1454
  671HK4    H2356360   9.008   1.028   8.264  0.2831 -0.2014 -1.8582
  671HK4    C4456361   8.959   0.846   8.375 -0.1599 -0.0339  0.1207
  671HK4    H2456362   9.042   0.850   8.447  1.5102 -0.0438 -1.7540
  671HK4    C4556363   8.876   0.734   8.377  0.3473 -0.4069  0.2765
  671HK4    H2556364   8.870   0.669   8.466  1.0692 -0.0115  0.6203
  672HK4    H2856365   7.957   2.374  10.790  3.2549 -1.7730  1.7369
  672HK4    C4856366   7.999   2.474  10.776 -0.8856 -0.1679 -0.2576
  672HK4    C4756367   8.106   2.499  10.691 -0.4778 -0.0572  0.2856
  672HK4    H2756368   8.133   2.417  10.623  1.9260  0.4388  0.5720
  672HK4    C4656369   8.181   2.616  10.691  0.0571 -0.3949  0.2367
  672HK4    H2656370   8.254   2.631  10.610 -1.8270 -1.4593 -1.7155
  672HK4    C4056371   8.146   2.723  10.777 -0.0810  0.0062 -0.3114
  672HK4    C5056372   8.043   2.693  10.868  0.6575  0.0185  0.5377
  672HK4    H3056373   8.035   2.755  10.958  0.8779  0.3831  0.3085
  672HK4    C4956374   7.976   2.571  10.872  0.5023  0.0772 -0.1519
  672HK4    H2956375   7.926   2.542  10.966  1.9249 -0.5731  0.4077
  672HK4     N256376   8.215   2.844  10.771  0.0977 -0.0926 -0.2835
  672HK4    C3056377   8.332   2.874  10.699  0.3496 -0.0080  0.1605
  672HK4    C2956378   8.443   2.792  10.687  0.3499  0.0820 -0.4937
  672HK4    H1556379   8.443   2.698  10.743 -0.2745  0.9377  0.9512
  672HK4    C2856380   8.571   2.833  10.650  0.5659 -0.4505 -0.3438
  672HK4    C2756381   8.580   2.968  10.611 -0.1601 -0.1921  0.3758
  672HK4    H1456382   8.671   3.006  10.564  0.7119 -2.4268  0.2019
  672HK4    C3256383   8.475   3.058  10.629  0.0718  0.0949  0.2940
  672HK4    H1656384   8.474   3.155  10.580  2.1931  1.9046  3.5964
  672HK4    C3156385   8.355   3.017  10.686 -0.2943  0.0379 -0.5160
  672HK4    C3456386   8.243   3.076  10.755  0.0969  0.1726  0.0029
  672HK4    C3356387   8.167   2.969  10.816  0.2463 -0.0592 -0.2158
  672HK4    C3556388   8.055   3.011  10.888 -0.1994 -0.2837 -0.7740
  672HK4    H1756389   7.992   2.937  10.937 -1.7488  0.7188 -1.1972
  672HK4    C3656390   8.011   3.143  10.896 -0.7695 -0.5195  0.0220
  672HK4    H1856391   7.914   3.165  10.943 -0.7506 -0.8443  0.2152
  672HK4    C3756392   8.085   3.242  10.832 -0.3797 -0.5616  0.4078
  672HK4    H1956393   8.059   3.347  10.843 -1.5107 -0.8118  0.2189
  672HK4    C3856394   8.201   3.209  10.763 -0.5253 -0.0141 -0.1090
  672HK4    H2056395   8.259   3.287  10.714 -1.7737  1.1760  0.2875
  672HK4    C1456396   8.686   2.766  10.713  0.8364 -0.1942 -0.5675
  672HK4     C956397   8.783   2.827  10.794 -0.0518 -0.2886  0.5803
  672HK4     C856398   8.901   2.754  10.821 -0.1901 -0.4215  0.8469
  672HK4    C1156399   8.910   2.623  10.777  0.0878  0.0077 -0.4169
  672HK4     H456400   9.011   2.581  10.771  0.3478  0.3812  1.1165
  672HK4    C1256401   8.808   2.560  10.706 -0.4889  0.3975  0.0574
  672HK4     H556402   8.818   2.451  10.692  0.0302  0.4480  0.0124
  672HK4    C1356403   8.698   2.634  10.665 -0.6873 -0.2988 -0.6894
  672HK4     H656404   8.639   2.600  10.579 -2.1359 -1.3958  0.7056
  672HK4     C756405   8.998   2.809  10.918 -0.1750  0.1724  0.4968
  672HK4     O256406   9.096   2.742  10.950 -0.2046 -0.2922 -0.3762
  672HK4     C456407   8.976   2.945  10.974  0.3525  0.4214  0.0977
  672HK4     C356408   9.066   2.994  11.068  0.1309  0.1759  0.4374
  672HK4     H356409   9.167   2.950  11.058 -0.0700 -0.2134  0.1117
  672HK4     C256410   9.051   3.116  11.133  0.1651  0.4090  0.0192
  672HK4     H256411   9.122   3.145  11.212  0.4813 -0.0323 -0.1002
  672HK4     C156412   8.942   3.194  11.097 -0.6870 -0.5213  0.5514
  672HK4     H156413   8.920   3.282  11.160  1.2938  0.6408 -0.3115
  672HK4     C656414   8.863   3.156  10.987 -0.0488  0.1904 -0.1547
  672HK4     C556415   8.866   3.025  10.937 -0.1407 -0.0659  0.5078
  672HK4    C1056416   8.758   2.957  10.862 -0.0830 -0.3458  0.6782
  672HK4     O156417   8.647   2.969  10.914 -0.0650  0.5560  0.5098
  672HK4    C1656418   8.766   3.257  10.943  0.0022  0.3870  0.1843
  672HK4    C1556419   8.754   3.269  10.803 -0.3104  0.5579  0.2247
  672HK4     H756420   8.829   3.235  10.730 -0.8432  1.1176 -0.5855
  672HK4    C2056421   8.648   3.341  10.749  0.0487  0.9252 -0.0010
  672HK4     H956422   8.642   3.355  10.641 -2.0016  1.0618  0.1157
  672HK4    C1956423   8.549   3.398  10.827 -0.2625  0.5054 -0.0871
  672HK4    C1856424   8.560   3.378  10.970 -0.0570 -0.6337 -0.2626
  672HK4    C1756425   8.667   3.308  11.026 -0.1329 -0.2264  0.3983
  672HK4     H856426   8.691   3.297  11.132  0.3903 -0.0478  0.2994
  672HK4     N156427   8.443   3.430  11.028 -0.0515 -0.6718 -0.2132
  672HK4    C2156428   8.374   3.502  10.929  0.0704  0.0149  0.2031
  672HK4    C2256429   8.429   3.474  10.798 -0.1449  0.7085 -0.0375
  672HK4    C2656430   8.392   3.554  10.690 -0.7478 -0.3240 -0.6007
  672HK4    H1356431   8.435   3.536  10.591 -0.5540 -0.8215 -0.4263
  672HK4    C2556432   8.315   3.668  10.708  0.4665  0.3182  0.5365
  672HK4    H1256433   8.308   3.740  10.627  4.9936  2.1958  1.5983
  672HK4    C2456434   8.261   3.697  10.833  0.4884  0.5113  0.4987
  672HK4    H1156435   8.173   3.764  10.835 -0.0945 -0.1650 -1.2940
  672HK4    C2356436   8.295   3.616  10.941  0.4845  0.2873  0.3315
  672HK4    H1056437   8.235   3.642  11.028 -1.0671  0.0992 -0.6538
  672HK4    C3956438   8.382   3.367  11.138 -0.6010 -0.1681 -0.2273
  672HK4    C4156439   8.287   3.444  11.208 -0.3485  0.2428 -0.3289
  672HK4    H2156440   8.317   3.547  11.232  1.6224 -0.1838 -0.8732
  672HK4    C4256441   8.181   3.382   0.026  0.5082 -0.2173  0.6230
  672HK4    H2256442   8.111   3.450   0.075  0.4914 -0.9930  1.6913
  672HK4    C4356443   8.165   3.244   0.019  0.1927 -0.1518 -0.0037
  672HK4    H2356444   8.076   3.196   0.061  0.8449 -1.8279 -0.5186
  672HK4    C4456445   8.262   3.165  11.207  0.2010 -0.3485  0.2715
  672HK4    H2456446   8.263   3.056  11.225 -3.3172 -0.8010 -1.8047
  672HK4    C4556447   8.368   3.227  11.142  0.0142 -0.2227  0.0786
  672HK4    H2556448   8.434   3.173  11.073  1.7753  0.6143  1.0669
  673HK4    H2856449   4.125   7.346   9.159 -0.9660 -2.2718 -1.2372
  673HK4    C4856450   4.127   7.309   9.262  0.2719  0.3524 -0.2833
  673HK4    C4756451   4.158   7.179   9.299 -0.2748  0.3380  0.1372
  673HK4    H2756452   4.171   7.111   9.214 -2.1800 -0.2241  0.2892
  673HK4    C4656453   4.163   7.142   9.433 -0.4056 -0.0397  0.0370
  673HK4    H2656454   4.214   7.050   9.466  1.4477  1.1868  0.6484
  673HK4    C4056455   4.123   7.231   9.534  0.4781  0.0631  0.2986
  673HK4    C5056456   4.081   7.361   9.497 -0.3497 -0.3223 -0.1353
  673HK4    H3056457   4.047   7.427   9.579  1.2485  1.3885 -0.8314
  673HK4    C4956458   4.091   7.397   9.364  0.0023 -0.0429 -0.0358
  673HK4    H2956459   4.052   7.496   9.333 -0.0863 -0.2874 -0.7061
  673HK4     N256460   4.100   7.182   9.664 -0.1051  0.1714  0.2385
  673HK4    C3056461   4.056   7.056   9.706  0.4013 -0.2084 -0.3498
  673HK4    C2956462   4.024   6.942   9.632  0.2792 -0.1378 -0.4047
  673HK4    H1556463   4.020   6.942   9.523  0.7250 -2.6551 -0.4564
  673HK4    C2856464   3.987   6.823   9.693  0.9272 -0.4657 -0.6373
  673HK4    C2756465   3.998   6.812   9.833 -0.2959  0.4772 -0.4556
  673HK4    H1456466   4.001   6.707   9.865 -0.7560  0.1474 -1.4479
  673HK4    C3256467   4.025   6.921   9.915  0.4388  0.3451 -0.5244
  673HK4    H1656468   4.000   6.918  10.021  0.4559 -1.1984 -0.5452
  673HK4    C3156469   4.047   7.042   9.850 -0.8589  0.6874 -0.3318
  673HK4    C3456470   4.092   7.169   9.904  0.2641  0.1520  0.0123
  673HK4    C3356471   4.131   7.244   9.787  0.4870  0.1634  0.0983
  673HK4    C3556472   4.190   7.368   9.805  0.9097  0.1043 -0.8370
  673HK4    H1756473   4.237   7.414   9.718  0.9834  0.2579 -0.7165
  673HK4    C3656474   4.204   7.417   9.934 -0.1379 -0.5860 -0.4595
  673HK4    H1856475   4.230   7.524   9.938  1.2057 -0.9571  1.9184
  673HK4    C3756476   4.163   7.348  10.048 -0.2516  0.6104  0.2367
  673HK4    H1956477   4.204   7.379  10.144  0.9767 -0.5598  0.1148
  673HK4    C3856478   4.106   7.222  10.032 -0.3106  0.6833 -0.1412
  673HK4    H2056479   4.069   7.169  10.120  2.0219 -1.0058 -0.1063
  673HK4    C1456480   3.915   6.716   9.623  0.1861 -0.1686 -0.3401
  673HK4     C956481   3.822   6.633   9.687  0.0028  0.5251  0.2944
  673HK4     C856482   3.820   6.494   9.663  0.1082  0.5051  0.4050
  673HK4    C1156483   3.905   6.445   9.564 -0.1822  0.2938  0.2566
  673HK4     H456484   3.898   6.343   9.523  2.1486  0.0781  0.3327
  673HK4    C1256485   3.983   6.530   9.486  0.0753 -0.0773  0.1131
  673HK4     H556486   4.015   6.499   9.385 -0.0400  2.1493 -0.6264
  673HK4    C1356487   3.993   6.665   9.517  0.6131 -0.0725 -0.0709
  673HK4     H656488   4.078   6.724   9.480  1.4162 -0.6510  0.8045
  673HK4     C756489   3.720   6.411   9.733  0.4312 -0.4839 -0.2963
  673HK4     O256490   3.716   6.290   9.711 -0.3290 -0.5723  0.3272
  673HK4     C456491   3.629   6.470   9.833  0.6398  0.2064 -0.5134
  673HK4     C356492   3.557   6.383   9.913  0.1377  0.4627 -0.6796
  673HK4     H356493   3.558   6.275   9.891 -0.6332  0.5907 -1.3612
  673HK4     C256494   3.501   6.430  10.032  0.5728  0.1000 -0.3278
  673HK4     H256495   3.445   6.359  10.095  1.8558  1.3513  2.2773
  673HK4     C156496   3.516   6.565  10.061 -0.4266  0.1368  0.0383
  673HK4     H156497   3.455   6.598  10.146 -2.0597 -1.3331 -0.5303
  673HK4     C656498   3.588   6.659   9.984 -0.3262  0.1512  0.1478
  673HK4     C556499   3.631   6.608   9.861 -0.1266  0.0668  0.2502
  673HK4    C1056500   3.713   6.693   9.769 -0.1209  0.1925  0.3714
  673HK4     O156501   3.656   6.792   9.725  0.0584 -0.0828 -0.4855
  673HK4    C1656502   3.645   6.768  10.065 -0.0032 -0.0341  0.1722
  673HK4    C1556503   3.688   6.741  10.196  0.2607 -0.3240  0.0231
  673HK4     H756504   3.701   6.636  10.227 -1.3448 -0.3485  0.6701
  673HK4    C2056505   3.730   6.838  10.286  0.0911 -0.2498  0.0234
  673HK4     H956506   3.764   6.821  10.388 -2.0699  0.6792  0.9307
  673HK4    C1956507   3.738   6.972  10.250 -0.2524 -0.2192  0.0642
  673HK4    C1856508   3.693   7.005  10.116 -0.2608  0.1228  0.1487
  673HK4    C1756509   3.651   6.903  10.032  0.8611 -0.1376 -0.0971
  673HK4     H856510   3.604   6.923   9.936 -1.6286  1.8161  1.4733
  673HK4     N156511   3.711   7.141  10.082  0.5533  0.0376  0.2364
  673HK4    C2156512   3.776   7.194  10.196 -0.1991  0.1384  0.6196
  673HK4    C2256513   3.793   7.096  10.301  0.1592 -0.3996  0.0618
  673HK4    C2656514   3.861   7.136  10.416  0.5501 -0.4599 -0.1459
  673HK4    H1356515   3.890   7.059  10.486  3.7074  0.7219 -0.1059
  673HK4    C2556516   3.901   7.268  10.435  0.4387 -0.3990 -0.3203
  673HK4    H1256517   3.923   7.301  10.536  1.5937  0.5958 -0.8881
  673HK4    C2456518   3.888   7.361  10.333 -0.7132 -0.1054  0.0975
  673HK4    H1156519   3.944   7.456  10.330  0.3338 -0.7148  0.2338
  673HK4    C2356520   3.822   7.324  10.217 -0.1482  0.2827 -0.3544
  673HK4    H1056521   3.820   7.397  10.136 -1.3700 -0.9076 -1.4350
  673HK4    C3956522   3.704   7.201   9.956  0.6943 -0.0644  0.1792
  673HK4    C4156523   3.667   7.337   9.946 -0.5930 -0.4365 -0.1711
  673HK4    H2156524   3.611   7.392  10.023  0.5788 -0.4450  0.6916
  673HK4    C4256525   3.662   7.394   9.820 -0.0764  0.0144  0.0152
  673HK4    H2256526   3.621   7.496   9.816 -1.5192 -0.5542 -0.0613
  673HK4    C4356527   3.696   7.324   9.705 -0.7177  0.1264 -0.2529
  673HK4    H2356528   3.692   7.366   9.604  1.5942  1.5311  0.1904
  673HK4    C4456529   3.736   7.191   9.717 -0.4406  0.2608  0.3420
  673HK4    H2456530   3.750   7.129   9.627 -0.3574  0.5664  0.1459
  673HK4    C4556531   3.739   7.128   9.841 -0.8299 -0.4880 -0.0210
  673HK4    H2556532   3.788   7.032   9.857 -1.2239 -1.0682 -2.0724
  674HK4    H2856533   5.115   0.287   8.471 -0.4988  0.0184 -0.8661
  674HK4    C4856534   5.118   0.393   8.493 -0.0523 -0.3301  0.8290
  674HK4    C4756535   5.030   0.491   8.449  0.5591  0.0766  0.5131
  674HK4    H2756536   4.960   0.462   8.370  1.7959 -0.3777 -0.4481
  674HK4    C4656537   5.024   0.613   8.515 -0.6073  0.2998  0.0092
  674HK4    H2656538   4.941   0.679   8.487  3.2188  4.8687 -1.2797
  674HK4    C4056539   5.115   0.658   8.614 -0.2209 -0.0600 -0.1841
  674HK4    C5056540   5.209   0.558   8.646 -0.6940 -0.4498  0.0025
  674HK4    H3056541   5.251   0.556   8.748 -1.6216  0.7492  0.4211
  674HK4    C4956542   5.211   0.431   8.590  0.3067 -0.7277  0.6446
  674HK4    H2956543   5.269   0.347   8.631 -0.8695 -1.3684  1.0238
  674HK4     N256544   5.095   0.773   8.691 -0.2310  0.0981 -0.4225
  674HK4    C3056545   4.969   0.831   8.718 -0.1860 -0.0097  0.0162
  674HK4    C2956546   4.844   0.770   8.718 -0.3982  0.4213 -0.5701
  674HK4    H1556547   4.826   0.678   8.662  2.2406 -0.0186 -0.7786
  674HK4    C2856548   4.729   0.835   8.759 -0.1172  0.7594 -0.3129
  674HK4    C2756549   4.744   0.968   8.803  0.0622  0.6898 -0.1674
  674HK4    H1456550   4.664   1.021   8.857  0.9383  1.2195  0.6215
  674HK4    C3256551   4.864   1.039   8.801  0.3644  0.2000  0.3058
  674HK4    H1656552   4.873   1.131   8.858  3.7332  0.4389 -0.5235
  674HK4    C3156553   4.977   0.969   8.762  0.2181 -0.2508  0.7046
  674HK4    C3456554   5.120   0.991   8.765  0.2381 -0.2150 -0.2290
  674HK4    C3356555   5.190   0.873   8.719  0.1381 -0.3961  0.0848
  674HK4    C3556556   5.329   0.878   8.717  0.1357 -0.2443  0.1974
  674HK4    H1756557   5.379   0.797   8.662 -2.3405 -0.6572 -1.5512
  674HK4    C3656558   5.397   0.988   8.765  0.1212  0.1647 -0.7055
  674HK4    H1856559   5.507   0.990   8.775  0.0386  0.7756  0.2090
  674HK4    C3756560   5.324   1.096   8.813  0.2139 -0.0444 -0.0895
  674HK4    H1956561   5.379   1.178   8.860 -0.0138  0.7680 -1.2327
  674HK4    C3856562   5.185   1.105   8.813  0.2022 -0.2245 -0.1579
  674HK4    H2056563   5.137   1.201   8.833 -2.2187 -1.1595 -1.2690
  674HK4    C1456564   4.597   0.771   8.754  0.1191  0.2425  0.0676
  674HK4     C956565   4.477   0.842   8.744  0.0803  0.1846  0.1177
  674HK4     C856566   4.359   0.791   8.803  0.2500 -0.1693  0.1511
  674HK4    C1156567   4.364   0.665   8.861  0.0706 -0.1135  0.2844
  674HK4     H456568   4.272   0.615   8.896  0.7040 -0.7594  1.0459
  674HK4    C1256569   4.480   0.589   8.859 -0.1809 -0.4884 -0.1896
  674HK4     H556570   4.474   0.479   8.857  1.9579 -0.6529  0.8525
  674HK4    C1356571   4.598   0.640   8.808 -0.4491  0.1303 -0.1862
  674HK4     H656572   4.689   0.579   8.815  0.1686  1.0782  0.1404
  674HK4     C756573   4.235   0.871   8.804  0.3395 -0.0148 -0.6356
  674HK4     O256574   4.130   0.812   8.828  0.2701  0.4056  0.1218
  674HK4     C456575   4.239   1.007   8.746  0.0764  0.1646 -0.2370
  674HK4     C356576   4.127   1.088   8.762  0.2247  0.2057  0.6196
  674HK4     H356577   4.028   1.047   8.782 -0.4179  1.7618  0.7077
  674HK4     C256578   4.138   1.226   8.756 -0.1790  0.1913 -0.6174
  674HK4     H256579   4.046   1.286   8.758 -0.3581 -0.1024  2.7656
  674HK4     C156580   4.259   1.282   8.714  0.0734 -0.1134 -0.2968
  674HK4     H156581   4.282   1.389   8.720 -0.9763  0.0883  0.2445
  674HK4     C656582   4.366   1.203   8.667  0.1763 -0.2398  0.1441
  674HK4     C556583   4.354   1.065   8.688  0.3266 -0.3092 -0.2185
  674HK4    C1056584   4.465   0.968   8.664  0.8503  0.2167  0.0513
  674HK4     O156585   4.512   0.967   8.551 -0.1145 -0.1458 -0.3522
  674HK4    C1656586   4.450   1.272   8.568  0.1473 -0.1091  0.2122
  674HK4    C1556587   4.406   1.379   8.489  0.3364 -0.0672  0.1598
  674HK4     H756588   4.297   1.396   8.484 -0.0174 -0.6278  4.2448
  674HK4    C2056589   4.491   1.465   8.420 -0.1673  0.5230  0.2805
  674HK4     H956590   4.447   1.539   8.353 -1.3294 -0.8764 -0.5318
  674HK4    C1956591   4.629   1.451   8.426 -0.1545  0.8847  0.9115
  674HK4    C1856592   4.677   1.332   8.494 -0.5612  0.0313 -0.2737
  674HK4    C1756593   4.589   1.256   8.570  0.1274 -0.2837  0.2275
  674HK4     H856594   4.636   1.201   8.650  0.8221 -2.6049 -1.7205
  674HK4     N156595   4.817   1.318   8.485 -0.5072  0.1603  0.3346
  674HK4    C2156596   4.862   1.439   8.427  0.0554 -0.1013  0.2177
  674HK4    C2256597   4.749   1.525   8.395  0.1721 -0.0804 -0.1353
  674HK4    C2656598   4.769   1.652   8.343  0.0954 -0.2581 -0.6036
  674HK4    H1356599   4.691   1.728   8.338 -0.6083 -1.0579 -2.0460
  674HK4    C2556600   4.899   1.695   8.318  0.0675  0.3276  0.2364
  674HK4    H1256601   4.913   1.785   8.258  0.3603  1.3872  1.8522
  674HK4    C2456602   5.010   1.621   8.360  0.1234  0.3098  0.0584
  674HK4    H1156603   5.111   1.662   8.351  0.7983 -1.6370 -1.3617
  674HK4    C2356604   4.989   1.493   8.410 -0.1619  0.4276  0.2464
  674HK4    H1056605   5.076   1.436   8.444  0.1842  0.3827 -0.6961
  674HK4    C3956606   4.889   1.198   8.477 -0.1470  0.4072 -0.2475
  674HK4    C4156607   5.027   1.200   8.503 -0.3424 -0.3285  0.8890
  674HK4    H2156608   5.067   1.275   8.573  1.2062 -0.3274  0.0305
  674HK4    C4256609   5.108   1.095   8.460 -0.2957  0.0006  0.1665
  674HK4    H2256610   5.215   1.091   8.485 -0.2906  1.0650  0.3348
  674HK4    C4356611   5.053   0.986   8.394  0.1218  0.1533 -0.4397
  674HK4    H2356612   5.113   0.896   8.381 -0.3814 -0.3229  0.4376
  674HK4    C4456613   4.916   0.980   8.371 -0.0221 -0.3077  0.4699
  674HK4    H2456614   4.876   0.899   8.307  0.3872  1.4277 -2.0579
  674HK4    C4556615   4.835   1.086   8.411  0.2583  0.1348 -0.1156
  674HK4    H2556616   4.728   1.063   8.426  0.5809 -1.9325 -0.8115
  675HK4    H2856617   7.469   0.708   5.198  3.1272 -0.3963 -0.3722
  675HK4    C4856618   7.484   0.815   5.211 -0.4624  0.1038  0.2974
  675HK4    C4756619   7.576   0.891   5.140 -0.2782  0.0069  0.4312
  675HK4    H2756620   7.666   0.840   5.102 -0.2193  0.7530 -0.4376
  675HK4    C4656621   7.562   1.028   5.125  0.2914  0.0585  0.3543
  675HK4    H2656622   7.625   1.080   5.051  2.4888  1.3725  3.0518
  675HK4    C4056623   7.465   1.106   5.192  0.6790  0.2657  0.6734
  675HK4    C5056624   7.372   1.026   5.260  0.0582  0.1854 -0.2611
  675HK4    H3056625   7.279   1.062   5.308  0.4620  0.1787  0.5425
  675HK4    C4956626   7.387   0.889   5.278 -0.0518  0.2896  0.6933
  675HK4    H2956627   7.311   0.842   5.342 -0.3984  0.7079  0.5893
  675HK4     N256628   7.450   1.245   5.195  0.2061  0.2225  0.3037
  675HK4    C3056629   7.534   1.336   5.127 -0.1938  0.5737  0.2749
  675HK4    C2956630   7.569   1.337   4.993  0.2562  0.3850  0.3876
  675HK4    H1556631   7.532   1.256   4.929 -1.4190  0.6651  0.9908
  675HK4    C2856632   7.648   1.438   4.940 -0.1767  0.4605 -0.1196
  675HK4    C2756633   7.685   1.543   5.027  0.4687 -0.1593  0.3579
  675HK4    H1456634   7.732   1.629   4.978 -1.2468 -1.1255 -3.1804
  675HK4    C3256635   7.639   1.557   5.158 -0.1574  0.4346  0.0776
  675HK4    H1656636   7.674   1.643   5.215 -0.2665 -1.1827  2.6544
  675HK4    C3156637   7.556   1.456   5.205 -0.5049  0.7363  0.1061
  675HK4    C3456638   7.470   1.445   5.321 -0.0082 -0.0754  0.3943
  675HK4    C3356639   7.396   1.322   5.300  0.1359 -0.1932  0.5716
  675HK4    C3556640   7.288   1.304   5.385 -0.0467 -0.1341  0.3524
  675HK4    H1756641   7.211   1.233   5.353 -0.3919  0.6564 -0.5931
  675HK4    C3656642   7.259   1.385   5.494 -0.1025  0.0288  0.2171
  675HK4    H1856643   7.188   1.357   5.573  1.7122 -1.0475  1.5137
  675HK4    C3756644   7.339   1.497   5.513  0.5524 -0.4101  0.0827
  675HK4    H1956645   7.333   1.539   5.613  0.2518  1.0826 -0.5545
  675HK4    C3856646   7.439   1.533   5.424  0.0795  0.5083 -0.0815
  675HK4    H2056647   7.468   1.636   5.401 -0.4587  0.4191 -1.1995
  675HK4    C1456648   7.725   1.410   4.818 -0.3756  0.5147 -0.2577
  675HK4     C956649   7.850   1.470   4.803 -0.0137 -0.0868  0.3112
  675HK4     C856650   7.886   1.530   4.680  0.0672 -0.5438  0.1112
  675HK4    C1156651   7.795   1.508   4.578 -0.2879 -0.1635  0.3450
  675HK4     H456652   7.805   1.578   4.493  0.8524  1.5117  1.8181
  675HK4    C1256653   7.676   1.436   4.581 -0.3080 -0.1638 -0.3703
  675HK4     H556654   7.640   1.387   4.489  1.0905 -3.1430  0.6220
  675HK4    C1356655   7.645   1.381   4.705  0.0687 -0.3444 -0.3560
  675HK4     H656656   7.563   1.309   4.712  0.1629 -0.4283 -0.1257
  675HK4     C756657   8.007   1.614   4.671 -0.0934 -0.3253 -0.0168
  675HK4     O256658   8.047   1.650   4.560 -0.4320 -0.2709 -0.1209
  675HK4     C456659   8.080   1.642   4.796  0.6206 -0.3533 -0.4184
  675HK4     C356660   8.183   1.735   4.786 -0.1057  0.5049 -0.0339
  675HK4     H356661   8.177   1.812   4.707 -0.5819  2.2345  1.6496
  675HK4     C256662   8.286   1.742   4.879  0.0195 -0.3953 -0.0946
  675HK4     H256663   8.346   1.835   4.887  0.3311 -0.5160 -0.9015
  675HK4     C156664   8.271   1.657   4.987 -0.5432  0.2261  0.3207
  675HK4     H156665   8.367   1.640   5.037  1.2247  1.9857 -2.3547
  675HK4     C656666   8.165   1.566   5.008  0.2578 -0.8202 -0.1129
  675HK4     C556667   8.068   1.557   4.908 -0.6432  1.0833  0.5633
  675HK4    C1056668   7.952   1.464   4.912  0.0943  0.1407  0.2243
  675HK4     O156669   7.956   1.353   4.966 -0.3932  0.3584  0.7139
  675HK4    C1656670   8.131   1.566   5.151 -0.2696 -0.3359 -0.2359
  675HK4    C1556671   8.131   1.678   5.237  0.5679 -0.2426 -0.3563
  675HK4     H756672   8.168   1.775   5.201 -3.4719  1.5357  0.0497
  675HK4    C2056673   8.128   1.661   5.375 -0.5807 -0.2442 -0.3746
  675HK4     H956674   8.172   1.743   5.432  3.5998 -1.1745 -2.0798
  675HK4    C1956675   8.118   1.536   5.433 -0.2986 -0.3988 -0.6615
  675HK4    C1856676   8.134   1.419   5.348 -0.2297 -0.6610 -0.2908
  675HK4    C1756677   8.130   1.440   5.211 -0.3023 -0.3373 -0.2398
  675HK4     H856678   8.121   1.345   5.159  0.4988 -0.8467  0.5498
  675HK4     N156679   8.124   1.299   5.421  0.4871 -0.1192  0.7068
  675HK4    C2156680   8.103   1.345   5.552 -0.6194  0.2261  0.4119
  675HK4    C2256681   8.113   1.488   5.570 -0.3979  0.3152 -0.4172
  675HK4    C2656682   8.122   1.556   5.692  0.1473  0.1378 -0.3550
  675HK4    H1356683   8.086   1.658   5.695  0.4611  0.2803 -1.4039
  675HK4    C2556684   8.131   1.475   5.805 -0.4653  0.0557 -0.3620
  675HK4    H1256685   8.112   1.515   5.904  0.7599  0.4582 -0.2727
  675HK4    C2456686   8.123   1.337   5.790  1.0190 -0.0544 -0.2482
  675HK4    H1156687   8.106   1.289   5.888 -0.9775  1.8078  0.3529
  675HK4    C2356688   8.108   1.270   5.669  0.3649 -0.3577 -0.0057
  675HK4    H1056689   8.114   1.161   5.668 -0.1459 -0.3685 -2.0094
  675HK4    C3956690   8.099   1.171   5.370  0.3916  0.2597 -0.2011
  675HK4    C4156691   8.141   1.057   5.442 -0.1630 -0.0127 -0.3129
  675HK4    H2156692   8.239   1.063   5.490 -1.3250 -1.8229  2.4202
  675HK4    C4256693   8.086   0.931   5.419 -0.1286 -0.0372 -0.2603
  675HK4    H2256694   8.108   0.856   5.496  0.6436  1.7149  1.2933
  675HK4    C4356695   7.991   0.908   5.320 -0.7761  0.6491  0.1946
  675HK4    H2356696   7.971   0.805   5.293  1.4863  0.9806 -3.0853
  675HK4    C4456697   7.951   1.023   5.253 -0.3558  0.5080 -0.3030
  675HK4    H2456698   7.877   1.015   5.172 -0.1611  1.0091 -0.5313
  675HK4    C4556699   7.998   1.152   5.273  0.6600  0.1676 -0.4697
  675HK4    H2556700   7.969   1.233   5.205 -1.5603 -0.8494 -0.7845
  676HK4    H2856701   6.567   2.894   2.684 -0.2526 -0.3136  1.1868
  676HK4    C4856702   6.482   2.964   2.686  0.0239  0.1023 -0.5164
  676HK4    C4756703   6.518   3.090   2.639  0.0389  0.3534  0.1601
  676HK4    H2756704   6.619   3.114   2.605 -0.3769  0.3744 -1.0751
  676HK4    C4656705   6.415   3.183   2.629 -0.1493  0.0579 -0.6814
  676HK4    H2656706   6.441   3.277   2.579 -1.3665 -0.2314 -1.8969
  676HK4    C4056707   6.280   3.157   2.661 -0.1540  0.0875 -0.6785
  676HK4    C5056708   6.256   3.025   2.705 -0.1304  0.2879 -0.0647
  676HK4    H3056709   6.152   2.998   2.730  0.2442 -0.2364  0.9450
  676HK4    C4956710   6.353   2.928   2.723  0.0468  0.4627 -0.0806
  676HK4    H2956711   6.334   2.826   2.760 -0.6981  0.5350 -0.2560
  676HK4     N256712   6.178   3.252   2.658 -0.0770  0.2175  0.4856
  676HK4    C3056713   6.198   3.389   2.684 -0.3213  0.3159  0.1583
  676HK4    C2956714   6.305   3.453   2.746  0.1147 -0.4974  0.2455
  676HK4    H1556715   6.358   3.402   2.827  0.6271  0.5985  0.5990
  676HK4    C2856716   6.305   3.591   2.760  0.5203 -0.4395 -0.3153
  676HK4    C2756717   6.188   3.659   2.723  0.3600 -0.3879  0.2813
  676HK4    H1456718   6.186   3.769   2.732  1.8306 -0.4205  1.1457
  676HK4    C3256719   6.078   3.603   2.660  0.0266  0.4469  0.1065
  676HK4    H1656720   5.995   3.658   2.615  0.6533  1.6031  0.3558
  676HK4    C3156721   6.084   3.465   2.638 -0.0299  0.5026 -0.2644
  676HK4    C3456722   5.994   3.369   2.577 -0.2271  0.2382  0.4420
  676HK4    C3356723   6.055   3.238   2.591 -0.2113  0.2730  0.7178
  676HK4    C3556724   5.983   3.128   2.546  0.6506  0.0164 -0.0568
  676HK4    H1756725   6.016   3.028   2.574  0.5094 -0.2121 -0.7001
  676HK4    C3656726   5.860   3.138   2.482  0.4367  0.2667  0.3910
  676HK4    H1856727   5.804   3.050   2.447 -2.4952  1.5788  1.5923
  676HK4    C3756728   5.800   3.263   2.473  0.0417  0.0395 -0.2092
  676HK4    H1956729   5.694   3.275   2.451 -0.5271 -1.5119  1.5435
  676HK4    C3856730   5.870   3.376   2.516  0.1881  0.0346 -0.4334
  676HK4    H2056731   5.826   3.476   2.514 -2.4718 -1.0842  0.3034
  676HK4    C1456732   6.414   3.640   2.846 -0.2015  0.4239  0.1216
  676HK4     C956733   6.405   3.752   2.929 -0.0863  0.5437 -0.0267
  676HK4     C856734   6.514   3.840   2.943  0.3642 -0.0635  0.3089
  676HK4    C1156735   6.636   3.803   2.888  0.2851 -0.3313  0.3154
  676HK4     H456736   6.722   3.872   2.889  0.9729 -1.1665 -0.6805
  676HK4    C1256737   6.650   3.684   2.818 -0.1035 -0.3471  0.2610
  676HK4     H556738   6.746   3.638   2.790  0.2481  0.8591 -0.5382
  676HK4    C1356739   6.540   3.602   2.795 -0.2987 -0.0813  0.2538
  676HK4     H656740   6.553   3.512   2.734  1.5264  0.0425  0.4105
  676HK4     C756741   6.498   3.968   3.016  0.2053 -0.0043  0.1724
  676HK4     O256742   6.584   4.056   3.011 -0.0174  0.2149  0.2165
  676HK4     C456743   6.372   3.986   3.092 -0.0757  0.2760 -0.3600
  676HK4     C356744   6.351   4.107   3.156  0.1438  0.1748 -0.0948
  676HK4     H356745   6.403   4.193   3.110  2.3364  0.1672  2.2934
  676HK4     C256746   6.259   4.117   3.260 -0.1264 -0.1804 -0.2972
  676HK4     H256747   6.270   4.198   3.334 -1.4173  0.6554 -0.9928
  676HK4     C156748   6.173   4.011   3.287 -0.5730  0.0569 -0.7746
  676HK4     H156749   6.100   4.019   3.368 -0.0066 -2.2223 -0.0265
  676HK4     C656750   6.177   3.894   3.209 -0.1304 -0.5172  0.1124
  676HK4     C556751   6.280   3.881   3.115  0.1573  0.2213  0.3242
  676HK4    C1056752   6.292   3.763   3.025 -0.1661  0.5202 -0.1165
  676HK4     O156753   6.235   3.657   3.050 -0.1285  0.3619 -0.7012
  676HK4    C1656754   6.100   3.782   3.266 -0.7099 -0.2612 -0.1624
  676HK4    C1556755   6.104   3.760   3.405 -0.4300  0.0875 -0.1139
  676HK4     H756756   6.202   3.767   3.455 -0.2204 -0.1589 -0.4984
  676HK4    C2056757   6.004   3.686   3.467 -0.4459  0.3732  0.2058
  676HK4     H956758   6.005   3.688   3.576 -2.4852 -0.0349  0.2519
  676HK4    C1956759   5.898   3.630   3.397 -0.1310  0.0365  0.0018
  676HK4    C1856760   5.894   3.655   3.254  0.1388 -0.3054 -0.0678
  676HK4    C1756761   5.991   3.734   3.194 -0.3714 -0.1761 -0.7349
  676HK4     H856762   5.987   3.761   3.089  0.5291  1.1358 -0.4577
  676HK4     N156763   5.772   3.611   3.199 -0.3717  0.7334  0.2073
  676HK4    C2156764   5.693   3.576   3.310  0.2354 -0.9349  0.1270
  676HK4    C2256765   5.767   3.581   3.435 -0.0580  0.0423  0.2623
  676HK4    C2656766   5.698   3.554   3.553 -0.0811 -0.9753  0.0209
  676HK4    H1356767   5.753   3.581   3.643  1.9497 -3.5225 -0.3806
  676HK4    C2556768   5.561   3.536   3.554 -0.2041 -0.0861  0.3162
  676HK4    H1256769   5.527   3.479   3.641 -0.0651 -0.2190  0.2840
  676HK4    C2456770   5.486   3.553   3.439 -0.5114 -0.0886  0.5147
  676HK4    H1156771   5.377   3.540   3.444 -0.7450  0.9227 -1.2875
  676HK4    C2356772   5.555   3.568   3.319  0.2348 -0.1290  0.9373
  676HK4    H1056773   5.495   3.591   3.230 -0.1737 -0.3764  1.1457
  676HK4    C3956774   5.762   3.547   3.075 -0.3699  0.5834  0.2841
  676HK4    C4156775   5.636   3.521   3.017 -0.6265 -0.4199  1.2732
  676HK4    H2156776   5.551   3.581   3.054 -0.3071 -0.2478  1.7350
  676HK4    C4256777   5.621   3.443   2.903  0.4293 -0.1588  0.9540
  676HK4    H2256778   5.524   3.424   2.856  1.5765 -0.1908 -1.4662
  676HK4    C4356779   5.733   3.380   2.848 -0.1682 -0.6320  0.2822
  676HK4    H2356780   5.732   3.338   2.747  1.1269 -2.0637  0.8561
  676HK4    C4456781   5.858   3.408   2.900 -0.3522  0.2829  0.2551
  676HK4    H2456782   5.947   3.386   2.839 -0.0122  1.3654  0.3498
  676HK4    C4556783   5.874   3.486   3.014 -0.5183  0.3880  0.2055
  676HK4    H2556784   5.960   3.478   3.082 -0.3425 -0.1509 -0.0787
  677HK4    H2856785  10.433   9.667   8.342  0.6984  1.6969  0.4467
  677HK4    C4856786  10.392   9.640   8.245  0.1386  0.4338  1.0152
  677HK4    C4756787  10.329   9.518   8.225  0.2017  0.5391  0.1670
  677HK4    H2756788  10.311   9.449   8.309 -1.6402 -0.3965 -0.9531
  677HK4    C4656789  10.288   9.473   8.100 -0.1218  1.0247  0.1004
  677HK4    H2656790  10.243   9.373   8.093 -1.0471  1.6144 -3.5638
  677HK4    C4056791  10.311   9.551   7.985  0.2534  0.0902 -0.4579
  677HK4    C5056792  10.386   9.669   8.006 -0.0354  0.1762  0.1093
  677HK4    H3056793  10.444   9.716   7.925  0.5726 -1.3230 -0.3459
  677HK4    C4956794  10.419   9.717   8.132 -0.5124 -0.2462  0.3965
  677HK4    H2956795  10.499   9.791   8.146 -2.0878  2.0847 -2.5720
  677HK4     N256796  10.245   9.531   7.863 -0.5824  0.5198 -0.0776
  677HK4    C3056797  10.124   9.460   7.849 -0.3725  0.1650 -0.1604
  677HK4    C2956798  10.021   9.464   7.942 -0.3288  0.3898 -0.1207
  677HK4    H1556799  10.045   9.436   8.044  1.6887  1.3609 -0.3181
  677HK4    C2856800   9.889   9.435   7.907 -0.3309  0.4089 -0.1265
  677HK4    C2756801   9.867   9.407   7.770 -0.6819  0.5511 -0.0991
  677HK4    H1456802   9.762   9.392   7.742 -1.5506  3.7880  1.1506
  677HK4    C3256803   9.968   9.406   7.675 -0.3082 -0.4675  0.2989
  677HK4    H1656804   9.943   9.356   7.581  2.1621  0.9640 -1.1548
  677HK4    C3156805  10.098   9.439   7.708 -0.1296 -0.7911 -0.0653
  677HK4    C3456806  10.209   9.493   7.631 -0.3151  0.1665  0.3273
  677HK4    C3356807  10.300   9.541   7.733  0.0786 -0.1864  0.1451
  677HK4    C3556808  10.418   9.598   7.687 -0.3582  0.3603 -0.2846
  677HK4    H1756809  10.500   9.612   7.757 -1.5061  1.0729  0.9431
  677HK4    C3656810  10.446   9.610   7.551 -0.3115  0.9571 -0.2248
  677HK4    H1856811  10.531   9.674   7.522  0.0170  0.7693  0.3065
  677HK4    C3756812  10.345   9.577   7.462 -0.4485  0.9323 -0.0605
  677HK4    H1956813  10.360   9.595   7.356  0.0501  1.6140  0.1224
  677HK4    C3856814  10.228   9.509   7.494  0.2633 -0.0996  0.3718
  677HK4    H2056815  10.164   9.466   7.417  1.3047 -2.6494  0.8968
  677HK4    C1456816   9.798   9.383   8.010  0.1685 -0.1420  0.0385
  677HK4     C956817   9.712   9.276   7.984 -0.0329 -0.0099  0.1455
  677HK4     C856818   9.585   9.279   8.044 -0.3298 -0.5280 -0.4501
  677HK4    C1156819   9.552   9.384   8.129  0.6976 -0.8039  0.2959
  677HK4     H456820   9.456   9.376   8.181  1.0491  1.6464  1.3976
  677HK4    C1256821   9.644   9.483   8.163  0.0942 -0.1050 -0.1430
  677HK4     H556822   9.631   9.531   8.261  2.2598 -1.9387  1.0635
  677HK4    C1356823   9.771   9.481   8.107  0.3206 -0.4404  0.3831
  677HK4     H656824   9.845   9.542   8.161 -1.6817  0.2425  2.4188
  677HK4     C756825   9.495   9.162   8.031 -0.4330 -0.5657  0.5347
  677HK4     O256826   9.375   9.184   8.043 -0.3268  0.1517  0.3248
  677HK4     C456827   9.547   9.039   7.966  0.0973  0.0992 -0.3060
  677HK4     C356828   9.475   8.921   7.974  0.5722 -0.1627  0.1686
  677HK4     H356829   9.381   8.912   8.031  0.2221 -0.2354 -0.4198
  677HK4     C256830   9.517   8.805   7.911 -0.4141 -0.2537 -0.3297
  677HK4     H256831   9.442   8.726   7.926 -0.5949 -0.5844 -2.6897
  677HK4     C156832   9.636   8.801   7.839 -0.5447 -0.1502 -0.5553
  677HK4     H156833   9.665   8.703   7.798  0.1542  0.1673 -0.8217
  677HK4     C656834   9.710   8.920   7.831 -0.1390 -0.3669  0.0127
  677HK4     C556835   9.673   9.034   7.903  0.6404 -0.6080  0.8107
  677HK4    C1056836   9.763   9.151   7.920  0.1329 -0.1776  0.6071
  677HK4     O156837   9.882   9.125   7.940  0.2457 -0.4560 -0.3703
  677HK4    C1656838   9.811   8.912   7.724  0.2235 -0.0886  0.3290
  677HK4    C1556839   9.852   9.027   7.654  0.1376 -0.2396  0.0309
  677HK4     H756840   9.777   9.103   7.626 -0.4888 -0.2352  1.6846
  677HK4    C2056841   9.985   9.044   7.617  0.0903 -0.0627 -0.0653
  677HK4     H956842  10.017   9.146   7.597 -0.2494  0.4908  2.0397
  677HK4    C1956843  10.075   8.938   7.623  0.0249 -0.0735  0.8397
  677HK4    C1856844  10.033   8.814   7.685 -0.2534 -0.3868  0.0260
  677HK4    C1756845   9.905   8.811   7.738 -0.1042 -0.3850  0.3947
  677HK4     H856846   9.869   8.730   7.801 -1.6707 -0.1276 -0.1426
  677HK4     N156847  10.133   8.714   7.690  0.4991  0.3529 -0.2625
  677HK4    C2156848  10.233   8.765   7.604  0.7485  0.3585  0.0276
  677HK4    C2256849  10.201   8.901   7.563 -0.6153 -0.1082 -0.4943
  677HK4    C2656850  10.299   8.986   7.511 -0.2814 -0.4992 -0.5088
  677HK4    H1356851  10.271   9.081   7.466  0.8681 -0.1257 -0.4567
  677HK4    C2556852  10.426   8.932   7.495  0.0433  0.0992  0.0181
  677HK4    H1256853  10.490   9.008   7.450 -0.5576 -0.1967 -1.3969
  677HK4    C2456854  10.451   8.797   7.516 -0.3683 -0.1234 -0.8845
  677HK4    H1156855  10.553   8.763   7.492  0.4127  1.9562 -0.6345
  677HK4    C2356856  10.358   8.713   7.576  0.2218 -0.5787 -0.6165
  677HK4    H1056857  10.377   8.605   7.574 -1.1780 -0.8367 -0.6472
  677HK4    C3956858  10.157   8.641   7.807  0.1362  0.2635 -0.2467
  677HK4    C4156859  10.234   8.523   7.798 -0.9869 -0.5836  1.1295
  677HK4    H2156860  10.211   8.455   7.715 -0.7493 -1.1863  1.5562
  677HK4    C4256861  10.329   8.486   7.893  0.2947 -0.0419  0.0695
  677HK4    H2256862  10.413   8.428   7.854  1.9877  1.8891  0.7967
  677HK4    C4356863  10.341   8.561   8.009  0.1897  0.4540 -0.2410
  677HK4    H2356864  10.425   8.551   8.079  1.1662  0.0554 -1.4502
  677HK4    C4456865  10.259   8.672   8.027 -0.5197 -0.0124 -0.5893
  677HK4    H2456866  10.256   8.727   8.122 -1.1200 -0.4617 -0.3452
  677HK4    C4556867  10.171   8.713   7.927 -0.0268  0.9349 -0.6285
  677HK4    H2556868  10.100   8.794   7.949 -0.6728 -0.2190  1.5961
  678HK4    H2856869   9.255  11.126   9.759  0.7716 -1.6125  0.3643
  678HK4    C4856870   9.187  11.131   9.844  0.1269  0.1488 -0.2370
  678HK4    C4756871   9.051  11.105   9.828  0.2492 -0.3239 -0.4830
  678HK4    H2756872   9.008  11.105   9.727  1.1403  0.8704 -0.8728
  678HK4    C4656873   8.972  11.090   9.941  0.4095  0.0660 -0.3159
  678HK4    H2656874   8.867  11.064   9.924  0.1356  0.9244  0.0166
  678HK4    C4056875   9.023  11.100  10.072 -0.2407  0.7391 -0.1127
  678HK4    C5056876   9.160  11.131  10.080 -0.0566 -0.0742 -0.1312
  678HK4    H3056877   9.207  11.161  10.175 -0.0454  3.0559 -1.0763
  678HK4    C4956878   9.244  11.146   9.970  0.0130 -0.3646 -0.1188
  678HK4    H2956879   9.353  11.149   9.981  0.0736  0.3050 -0.8486
  678HK4     N256880   8.942  11.107  10.186 -0.3326 -0.6365 -0.0821
  678HK4    C3056881   8.819  11.177  10.186  0.0443  0.0303  0.0097
  678HK4    C2956882   8.780   0.030  10.099  0.2682  0.2992  0.2236
  678HK4    H1556883   8.857   0.084  10.044 -2.0038  3.1400 -0.2958
  678HK4    C2856884   8.655   0.086  10.122  0.1934  0.0604  0.4121
  678HK4    C2756885   8.577   0.032  10.225  0.2034 -0.3350  0.2113
  678HK4    H1456886   8.478   0.078  10.243  0.0678 -1.2274  1.8662
  678HK4    C3256887   8.612  11.180  10.315 -0.5505 -0.3239  0.5179
  678HK4    H1656888   8.540  11.141  10.388  0.6521 -2.0944  0.7808
  678HK4    C3156889   8.745  11.143  10.306 -0.2831  0.7565  0.0178
  678HK4    C3456890   8.828  11.051  10.382 -0.2514  0.9602  0.2281
  678HK4    C3356891   8.950  11.034  10.306 -0.2072  0.2475  0.4579
  678HK4    C3556892   9.056  10.965  10.365 -0.1398  0.3590  0.4726
  678HK4    H1756893   9.159  10.982  10.335  1.1364 -3.8246  2.2160
  678HK4    C3656894   9.045  10.917  10.495  0.0457 -0.1346  0.3028
  678HK4    H1856895   9.126  10.856  10.539  0.3592  1.4197  1.9583
  678HK4    C3756896   8.928  10.940  10.566 -0.2827 -0.1197 -0.2470
  678HK4    H1956897   8.923  10.919  10.673  0.0047 -0.4136 -0.2908
  678HK4    C3856898   8.815  11.001  10.511 -0.0917  0.5318  0.0780
  678HK4    H2056899   8.722  11.004  10.567  0.0055 -1.6842  0.4381
  678HK4    C1456900   8.618   0.212  10.055 -0.2457 -0.3826 -0.1923
  678HK4     C956901   8.537   0.310  10.115 -0.2147 -0.3045 -0.2795
  678HK4     C856902   8.466   0.400  10.033  0.2580  0.2069 -0.1304
  678HK4    C1156903   8.480   0.393   9.895 -0.7604 -0.3792 -0.2061
  678HK4     H456904   8.421   0.459   9.830 -1.3310 -0.5077  0.1791
  678HK4    C1256905   8.569   0.304   9.836 -0.1330  0.1569 -0.0692
  678HK4     H556906   8.583   0.312   9.727 -1.0205 -1.0983 -0.2741
  678HK4    C1356907   8.638   0.214   9.916 -0.2892 -0.0736 -0.1956
  678HK4     H656908   8.677   0.124   9.866  0.8497  0.3558 -0.1059
  678HK4     C756909   8.355   0.475  10.096 -0.0930 -0.2813 -0.1676
  678HK4     O256910   8.306   0.568  10.032  0.0909  0.2034  0.3990
  678HK4     C456911   8.315   0.457  10.237  0.2248  0.4202  0.0114
  678HK4     C356912   8.193   0.504  10.283  0.1872  0.3010  0.0323
  678HK4     H356913   8.119   0.557  10.221 -0.5776 -0.7909 -0.0026
  678HK4     C256914   8.165   0.487  10.418  0.2914  0.1324  0.0346
  678HK4     H256915   8.063   0.505  10.455  0.6649  2.0289  0.1400
  678HK4     C156916   8.251   0.422  10.505  0.6168  0.1959 -0.2416
  678HK4     H156917   8.242   0.427  10.615  1.1432  0.6166 -0.2138
  678HK4     C656918   8.371   0.363  10.460  0.3461 -0.1114 -0.5587
  678HK4     C556919   8.401   0.390  10.327  0.6007  0.3408 -0.4094
  678HK4    C1056920   8.522   0.331  10.262  0.4966 -0.0641 -0.2383
  678HK4     O156921   8.629   0.340  10.322  0.1435 -0.2919  0.4213
  678HK4    C1656922   8.405   0.234  10.523  0.0273  0.1323  0.1234
  678HK4    C1556923   8.306   0.143  10.563  0.1561  0.0846  0.3406
  678HK4     H756924   8.205   0.144  10.519  0.7763 -0.3256 -1.1382
  678HK4    C2056925   8.331   0.037  10.649  0.6849 -0.1276 -0.0651
  678HK4     H956926   8.248  11.226  10.688  0.0362  0.0836 -1.1313
  678HK4    C1956927   8.458   0.022  10.704  0.4028  0.0347  0.6461
  678HK4    C1856928   8.557   0.124  10.677 -0.0212  0.3608  0.3341
  678HK4    C1756929   8.529   0.226  10.586  0.0618  0.1319  0.0525
  678HK4     H856930   8.602   0.306  10.583 -0.9996  1.0900 -0.7818
  678HK4     N156931   8.679   0.090  10.739  0.0379 -0.0474 -0.0050
  678HK4    C2156932   8.654  11.210  10.792  0.1183 -0.0237  0.0886
  678HK4    C2256933   8.520  11.159  10.773  0.2032 -0.3086  0.2675
  678HK4    C2656934   8.499  11.021  10.775  0.2491 -0.3417 -0.6991
  678HK4    H1356935   8.393  10.994  10.785  0.4564 -0.3807  1.6288
  678HK4    C2556936   8.594  10.929  10.816 -0.1287 -0.1770  0.5581
  678HK4    H1256937   8.573  10.825  10.792  0.4271 -0.2230  0.2600
  678HK4    C2456938   8.720  10.980  10.846  0.1071 -0.0895 -0.6011
  678HK4    H1156939   8.802  10.907  10.856 -1.1218 -1.2285  1.5906
  678HK4    C2356940   8.748  11.115  10.829  0.1293 -0.0045  0.1184
  678HK4    H1056941   8.848  11.151  10.853  0.7962 -2.3314  1.0025
  678HK4    C3956942   8.806   0.139  10.707 -0.1908  0.0027 -0.8751
  678HK4    C4156943   8.908   0.155  10.803 -0.5894 -0.1198 -0.4238
  678HK4    H2156944   8.870   0.158  10.906 -1.5502  1.7533 -0.8100
  678HK4    C4256945   9.040   0.167  10.759 -0.3138 -0.1784  0.3824
  678HK4    H2256946   9.119   0.190  10.832  1.5554  1.3298 -2.0368
  678HK4    C4356947   9.078   0.170  10.625 -0.6455 -0.4244  0.2773
  678HK4    H2356948   9.182   0.192  10.601 -0.2712  0.0243  2.2484
  678HK4    C4456949   8.976   0.161  10.532  0.0927  0.5597 -0.6393
  678HK4    H2456950   9.000   0.165  10.425 -1.2025  0.8828 -0.9289
  678HK4    C4556951   8.844   0.141  10.572  0.1382 -0.0431 -0.7854
  678HK4    H2556952   8.771   0.161  10.491 -0.9900 -0.5869  0.0869
  679HK4    H2856953   2.884   6.331   7.857 -0.4669  0.2621 -0.4078
  679HK4    C4856954   2.912   6.332   7.963 -0.2385 -0.3399 -0.4617
  679HK4    C4756955   2.985   6.439   8.013 -0.8200 -0.2074  0.1111
  679HK4    H2756956   3.020   6.514   7.940  0.3424 -0.4554  0.4047
  679HK4    C4656957   3.024   6.453   8.145 -0.0423 -0.5216 -0.0870
  679HK4    H2656958   3.072   6.546   8.179  0.8894 -0.0967 -2.4684
  679HK4    C4056959   3.005   6.343   8.230  0.5267 -0.4708  0.1108
  679HK4    C5056960   2.932   6.234   8.177  0.2132 -0.1240 -0.1696
  679HK4    H3056961   2.915   6.148   8.244 -1.8437  0.7847  0.5169
  679HK4    C4956962   2.881   6.227   8.048  0.2347 -0.2511 -0.1764
  679HK4    H2956963   2.800   6.153   8.033  0.9322 -0.7613 -1.5044
  679HK4     N256964   2.991   6.370   8.367 -0.5127 -0.0495 -0.0697
  679HK4    C3056965   2.953   6.489   8.432 -0.0842  0.0025  0.0864
  679HK4    C2956966   2.870   6.595   8.400 -0.9080 -0.5298  0.4452
  679HK4    H1556967   2.819   6.592   8.303 -2.5183  0.1372  1.2585
  679HK4    C2856968   2.840   6.700   8.486  0.3973  0.2034  0.0220
  679HK4    C2756969   2.900   6.701   8.613  0.9437  0.3997 -0.2349
  679HK4    H1456970   2.878   6.786   8.679  1.2251 -0.6198  1.1928
  679HK4    C3256971   2.982   6.596   8.652  0.2403  0.0092  0.2192
  679HK4    H1656972   3.011   6.596   8.757 -0.1995 -1.3649  0.3505
  679HK4    C3156973   3.009   6.490   8.566 -0.0312  0.0663  0.0656
  679HK4    C3456974   3.075   6.363   8.587  0.2528  0.0656 -0.8390
  679HK4    C3356975   3.060   6.291   8.462 -0.2015 -0.3531 -0.5448
  679HK4    C3556976   3.120   6.167   8.445 -0.0831 -0.3797  0.0567
  679HK4    H1756977   3.103   6.110   8.353  0.6909  0.3490 -0.5490
  679HK4    C3656978   3.209   6.121   8.541  0.2156 -0.1205 -0.0944
  679HK4    H1856979   3.240   6.016   8.533 -0.6468 -0.4288  0.5984
  679HK4    C3756980   3.236   6.200   8.652  0.2210  0.5221 -0.5517
  679HK4    H1956981   3.324   6.174   8.711 -1.0277 -0.7467  0.8056
  679HK4    C3856982   3.173   6.321   8.676 -0.8992 -0.2179  0.3192
  679HK4    H2056983   3.208   6.387   8.756  0.6567 -0.0040 -0.5268
  679HK4    C1456984   2.794   6.828   8.430 -0.0843 -0.0891 -0.2606
  679HK4     C956985   2.854   6.954   8.446 -0.2878 -0.0574  0.2416
  679HK4     C856986   2.780   7.074   8.449 -0.0820  0.0823 -0.2887
  679HK4    C1156987   2.642   7.064   8.433 -0.2179  0.1770  0.8130
  679HK4     H456988   2.589   7.160   8.435  0.3088  0.4769  0.3165
  679HK4    C1256989   2.581   6.941   8.409  0.3058  0.2048 -0.7044
  679HK4     H556990   2.471   6.933   8.417  0.5788 -2.7470  0.8412
  679HK4    C1356991   2.656   6.825   8.401 -0.1408 -0.1434  0.0137
  679HK4     H656992   2.617   6.733   8.354  1.2560 -0.5415 -0.4051
  679HK4     C756993   2.846   7.201   8.483 -0.0489  0.0425 -0.2028
  679HK4     O256994   2.782   7.306   8.493  0.1953  0.2048 -0.3281
  679HK4     C456995   2.986   7.198   8.532 -0.1227 -0.2493 -0.0071
  679HK4     C356996   3.043   7.311   8.589  0.0447 -0.2314 -0.2118
  679HK4     H356997   2.993   7.409   8.579  1.1515  0.4813  1.1880
  679HK4     C256998   3.153   7.310   8.673 -0.1654  0.3816  0.0848
  679HK4     H256999   3.220   7.397   8.675  0.0670  0.2352 -1.0306
  679HK4     C157000   3.208   7.187   8.710  0.2361  0.3598 -0.5759
  679HK4     H157001   3.310   7.201   8.748 -0.2664 -0.7748  1.2453
  679HK4     C657002   3.156   7.071   8.648 -0.1396  0.2534 -0.0632
  679HK4     C557003   3.053   7.076   8.554  0.2838 -0.1249 -0.5476
  679HK4    C1057004   2.999   6.960   8.478 -0.1439 -0.0056 -0.4306
  679HK4     O157005   3.074   6.903   8.398 -0.1679  0.0167 -0.4683
  679HK4    C1657006   3.200   6.948   8.714 -0.1158  0.3078  0.0208
  679HK4    C1557007   3.195   6.944   8.855  1.0594  0.9042  0.0864
  679HK4     H757008   3.129   7.013   8.909 -0.0994 -0.4474  0.4213
  679HK4    C2057009   3.242   6.831   8.921  0.4686  0.6121  0.0139
  679HK4     H957010   3.230   6.816   9.028 -1.4913 -0.8838 -0.3966
  679HK4    C1957011   3.314   6.731   8.857  0.4227  0.3033  0.4434
  679HK4    C1857012   3.327   6.741   8.712 -0.2893 -0.3190  0.3300
  679HK4    C1757013   3.270   6.849   8.646 -0.0092 -0.0112  0.5896
  679HK4     H857014   3.287   6.852   8.538 -0.2688  2.7356  0.6059
  679HK4     N157015   3.401   6.628   8.670  0.2509  0.1116  0.1228
  679HK4    C2157016   3.441   6.555   8.784 -0.0360 -0.1468  0.0557
  679HK4    C2257017   3.386   6.614   8.904 -0.0368 -0.1404  0.0525
  679HK4    C2657018   3.369   6.545   9.023  0.1850  0.1547  0.2572
  679HK4    H1357019   3.331   6.602   9.108  0.5284  0.0153  0.5058
  679HK4    C2557020   3.388   6.407   9.024  0.2752  0.1641 -0.2111
  679HK4    H1257021   3.361   6.348   9.111  0.3008 -0.1149 -0.3917
  679HK4    C2457022   3.442   6.347   8.910  0.2138 -0.5363  0.1237
  679HK4    H1157023   3.461   6.240   8.919 -0.1879 -0.6050  0.2013
  679HK4    C2357024   3.469   6.419   8.794  0.0733 -0.1018  0.3592
  679HK4    H1057025   3.504   6.363   8.707  2.0272  0.2954  0.8608
  679HK4    C3957026   3.406   6.576   8.540 -0.1366 -0.4111  0.3141
  679HK4    C4157027   3.522   6.513   8.490  0.3563  0.3816  0.4373
  679HK4    H2157028   3.594   6.473   8.562 -0.7937  1.5701  2.2975
  679HK4    C4257029   3.543   6.492   8.354 -0.4347 -0.1658  0.3902
  679HK4    H2257030   3.650   6.487   8.327  0.4852  1.0592  3.5336
  679HK4    C4357031   3.448   6.520   8.257 -0.1387  0.1173  0.1775
  679HK4    H2357032   3.466   6.494   8.153 -2.3061 -2.5057  0.3935
  679HK4    C4457033   3.332   6.581   8.305 -0.0616  0.1540  0.3163
  679HK4    H2457034   3.267   6.632   8.233  0.6394  0.2912 -0.2283
  679HK4    C4557035   3.311   6.604   8.440 -0.1792 -0.3206  0.3800
  679HK4    H2557036   3.207   6.622   8.470  0.4389  1.1501  1.7574
  680HK4    H2857037  10.284   0.928   6.308 -0.7421 -0.2574  0.8512
  680HK4    C4857038  10.187   0.961   6.270 -0.4194  0.3646  0.5464
  680HK4    C4757039  10.067   0.896   6.297 -0.2086 -0.1584  0.2438
  680HK4    H2757040  10.067   0.815   6.371  1.9901 -0.1677  0.2615
  680HK4    C4657041   9.944   0.922   6.237 -0.1841  0.0756  0.3027
  680HK4    H2657042   9.856   0.873   6.280 -0.7959  1.6117  0.8195
  680HK4    C4057043   9.939   1.029   6.145  0.2333  0.1644  0.3816
  680HK4    C5057044  10.059   1.098   6.119  0.3576 -0.0577  0.3634
  680HK4    H3057045  10.057   1.165   6.032 -0.5274  0.1960  0.5816
  680HK4    C4957046  10.181   1.063   6.176  0.3753  0.5498  0.6946
  680HK4    H2957047  10.273   1.118   6.150  1.4811  0.1140  3.4576
  680HK4     N257048   9.822   1.065   6.077  0.0254 -0.1916  0.5486
  680HK4    C3057049   9.730   0.976   6.018 -0.5198  0.0625  1.0191
  680HK4    C2957050   9.720   0.838   6.027  0.0182 -0.0585 -0.1836
  680HK4    H1557051   9.805   0.787   6.072 -1.5517 -2.0958  0.5476
  680HK4    C2857052   9.614   0.771   5.968  0.4991 -0.4288 -0.6325
  680HK4    C2757053   9.519   0.845   5.894  0.0350 -0.2400  0.1406
  680HK4    H1457054   9.427   0.792   5.865  0.4865 -0.6442 -0.5787
  680HK4    C3257055   9.523   0.983   5.883  0.3421 -0.2646 -0.0678
  680HK4    H1657056   9.435   1.041   5.855  0.1381 -0.5940 -0.1174
  680HK4    C3157057   9.625   1.050   5.949  0.4983  0.0172 -0.5915
  680HK4    C3457058   9.655   1.191   5.966 -0.2826  0.0251  0.8563
  680HK4    C3357059   9.775   1.195   6.047 -0.0694 -0.2245  0.5516
  680HK4    C3557060   9.813   1.306   6.120  0.2681  0.2796 -0.3829
  680HK4    H1757061   9.896   1.303   6.191 -1.8398  1.4668  2.2122
  680HK4    C3657062   9.731   1.418   6.123  0.3536  0.3440 -0.4606
  680HK4    H1857063   9.738   1.505   6.190 -0.2884 -0.8786  1.2141
  680HK4    C3757064   9.624   1.416   6.034  0.0044 -0.1310 -0.0328
  680HK4    H1957065   9.575   1.512   6.019 -0.9648 -1.0319 -3.0747
  680HK4    C3857066   9.585   1.310   5.953 -0.4583 -0.1466  0.2052
  680HK4    H2057067   9.496   1.315   5.890 -0.1109 -1.4864 -0.4155
  680HK4    C1457068   9.617   0.624   5.974 -0.4678 -0.4216  0.2385
  680HK4     C957069   9.571   0.540   5.872 -0.0348 -0.2323 -0.1148
  680HK4     C857070   9.497   0.422   5.898 -0.2388  0.0023  0.3914
  680HK4    C1157071   9.475   0.387   6.030 -0.3584 -0.0660  0.3530
  680HK4     H457072   9.400   0.307   6.039 -0.0672 -0.4483 -0.5382
  680HK4    C1257073   9.523   0.463   6.136 -0.0746  0.0445  0.1454
  680HK4     H557074   9.529   0.424   6.239 -1.9947  1.9034  0.9972
  680HK4    C1357075   9.600   0.574   6.105  0.0730  0.0389  0.4876
  680HK4     H657076   9.651   0.629   6.185 -0.7347 -0.1037  1.1050
  680HK4     C757077   9.467   0.324   5.791  0.4052  0.0114  0.2002
  680HK4     O257078   9.408   0.217   5.809  0.1285  0.0942 -0.2064
  680HK4     C457079   9.504   0.360   5.652  0.5692 -0.1090  0.2121
  680HK4     C357080   9.483   0.264   5.554  0.9014  0.0486 -0.0127
  680HK4     H357081   9.446   0.163   5.578 -2.8207  1.0214 -1.3376
  680HK4     C257082   9.494   0.298   5.420 -0.6987 -0.1821 -0.2196
  680HK4     H257083   9.468   0.223   5.344 -1.8869 -1.2281  1.1903
  680HK4     C157084   9.513   0.432   5.388  0.2871 -0.2196  0.1891
  680HK4     H157085   9.560   0.457   5.292 -0.2984  1.6326  0.3542
  680HK4     C657086   9.521   0.534   5.486  0.3884  0.1405 -0.1914
  680HK4     C557087   9.536   0.493   5.619 -0.3221  0.0235 -0.1409
  680HK4    C1057088   9.598   0.572   5.729 -0.4525  0.0979 -0.1233
  680HK4     O157089   9.704   0.626   5.700 -0.1881 -0.0684  0.5158
  680HK4    C1657090   9.468   0.665   5.448 -0.1109  0.0844  0.3045
  680HK4    C1557091   9.417   0.686   5.318  0.6234 -0.1273 -0.0207
  680HK4     H757092   9.379   0.600   5.260 -3.1165  0.5132  1.3315
  680HK4    C2057093   9.372   0.804   5.261  0.2788 -0.3165 -0.1443
  680HK4     H957094   9.306   0.806   5.173 -0.1506  0.3992  0.1914
  680HK4    C1957095   9.398   0.918   5.335 -0.9625  0.1696 -0.4405
  680HK4    C1857096   9.471   0.907   5.460 -0.1039  0.1623 -0.9454
  680HK4    C1757097   9.487   0.783   5.519  0.2514  0.4624 -0.4040
  680HK4     H857098   9.485   0.781   5.628 -1.4331 -0.6544 -0.4230
  680HK4     N157099   9.531   1.029   5.497 -0.2413 -0.0996  0.1634
  680HK4    C2157100   9.488   1.123   5.400  0.2517 -0.2082 -0.1626
  680HK4    C2257101   9.405   1.059   5.300  0.4502  0.0828 -0.5144
  680HK4    C2657102   9.371   1.130   5.186 -0.7307  0.1140 -0.1499
  680HK4    H1357103   9.317   1.078   5.108  1.8296 -0.2420 -1.7507
  680HK4    C2557104   9.411   1.263   5.175 -0.0112 -0.0822  0.0548
  680HK4    H1257105   9.397   1.319   5.082  0.3149 -0.3014 -0.1262
  680HK4    C2457106   9.489   1.330   5.268  0.6841 -0.1049 -0.5076
  680HK4    H1157107   9.504   1.439   5.260 -1.6006  0.2886  0.2073
  680HK4    C2357108   9.527   1.255   5.379 -0.3063 -0.0379 -0.1232
  680HK4    H1057109   9.612   1.295   5.432  0.2196 -1.1552 -0.1074
  680HK4    C3957110   9.642   1.041   5.582 -0.4197  0.3554  0.3341
  680HK4    C4157111   9.678   1.165   5.641  0.6472  0.2466 -0.0795
  680HK4    H2157112   9.602   1.244   5.649 -1.6197 -1.9941  1.3785
  680HK4    C4257113   9.801   1.180   5.704  0.5872  0.1284  0.0666
  680HK4    H2257114   9.823   1.281   5.739  0.1093  0.4710 -0.6087
  680HK4    C4357115   9.898   1.080   5.712 -0.0742 -0.4527  0.8938
  680HK4    H2357116   9.991   1.085   5.768  1.5842 -1.0982 -1.6887
  680HK4    C4457117   9.872   0.963   5.643 -0.0238  0.2461 -0.3272
  680HK4    H2457118   9.935   0.874   5.658 -2.2208 -1.3115 -0.0963
  680HK4    C4557119   9.748   0.949   5.581 -0.2339  0.5734  0.0137
  680HK4    H2557120   9.727   0.855   5.528 -2.2805  0.5058  0.8815
  681HK4    H2857121   9.695   7.029   4.002 -2.8666 -0.1264  0.5678
  681HK4    C4857122   9.689   7.136   3.984 -0.0047 -0.0996 -0.4029
  681HK4    C4757123   9.788   7.229   4.014 -0.2015  0.0358 -0.1955
  681HK4    H2757124   9.884   7.189   4.048 -0.0956  1.4816  1.2808
  681HK4    C4657125   9.772   7.361   3.973 -0.5073  0.3257  0.8517
  681HK4    H2657126   9.835   7.434   4.025 -0.3729 -0.0328  1.1947
  681HK4    C4057127   9.664   7.402   3.892  0.0485  0.2790  0.0892
  681HK4    C5057128   9.565   7.304   3.871  0.2078  0.2190 -0.4030
  681HK4    H3057129   9.468   7.329   3.826 -0.5331 -0.5737  0.7214
  681HK4    C4957130   9.576   7.172   3.912 -0.0810  0.2936 -0.0938
  681HK4    H2957131   9.504   7.099   3.871  0.4177 -2.3511  3.4706
  681HK4     N257132   9.626   7.534   3.866 -0.7267  0.0915  0.2884
  681HK4    C3057133   9.668   7.647   3.939 -0.5412  0.0697  0.2160
  681HK4    C2957134   9.675   7.666   4.076  0.4801 -0.0575  0.1824
  681HK4    H1557135   9.658   7.581   4.143  2.7123 -1.2445 -0.6877
  681HK4    C2857136   9.690   7.790   4.137 -0.3516  0.2147 -0.1584
  681HK4    C2757137   9.710   7.895   4.044 -1.0967  0.7549  0.2921
  681HK4    H1457138   9.708   7.997   4.085  0.6855  0.7197  0.5067
  681HK4    C3257139   9.706   7.885   3.906 -0.0783 -0.0206  0.3182
  681HK4    H1657140   9.739   7.972   3.849 -0.2709 -1.0718 -1.4679
  681HK4    C3157141   9.674   7.761   3.850  0.1854 -0.0164  0.1548
  681HK4    C3457142   9.639   7.714   3.717 -0.3108  0.4661  0.1103
  681HK4    C3357143   9.607   7.573   3.732 -1.1718  0.7038  0.5278
  681HK4    C3557144   9.565   7.500   3.622  0.5314  0.4365  0.0429
  681HK4    H1757145   9.567   7.391   3.627  0.2596  0.5001  1.7176
  681HK4    C3657146   9.541   7.567   3.502  0.1311  0.0313 -0.1080
  681HK4    H1857147   9.479   7.517   3.426 -1.8629  1.3710  0.5914
  681HK4    C3757148   9.578   7.700   3.486 -0.8032  0.4027  0.7705
  681HK4    H1957149   9.588   7.729   3.382 -1.2891 -0.5272  0.4589
  681HK4    C3857150   9.625   7.775   3.593  1.6909  0.2741 -0.2172
  681HK4    H2057151   9.613   7.883   3.586  1.3620  0.1938 -0.8712
  681HK4    C1457152   9.630   7.800   4.270 -0.4970 -0.0291 -0.2078
  681HK4     C957153   9.542   7.897   4.320 -0.1001  0.0544  0.3449
  681HK4     C857154   9.536   7.936   4.455 -0.6675  0.2143  0.2751
  681HK4    C1157155   9.610   7.858   4.542  0.0308 -0.1794 -0.6658
  681HK4     H457156   9.574   7.862   4.646  0.4383  0.1431 -0.5337
  681HK4    C1257157   9.696   7.757   4.499  0.2631 -0.2487 -0.0533
  681HK4     H557158   9.743   7.690   4.572  0.4805 -1.9995 -1.7680
  681HK4    C1357159   9.701   7.723   4.364 -0.7695 -0.1740 -0.1202
  681HK4     H657160   9.757   7.633   4.334 -1.8607 -1.0259  0.3540
  681HK4     C757161   9.457   8.054   4.499 -0.4064  0.3694  0.3346
  681HK4     O257162   9.477   8.106   4.608 -0.0571 -0.1001  0.4978
  681HK4     C457163   9.353   8.109   4.409 -0.4072  0.1294  0.1913
  681HK4     C357164   9.289   8.228   4.439 -0.0919  0.3482  0.0155
  681HK4     H357165   9.317   8.279   4.532  0.8838  1.0287 -0.6436
  681HK4     C257166   9.200   8.287   4.349 -0.2890  0.0323 -0.0008
  681HK4     H257167   9.149   8.376   4.389  3.1465  1.5742  1.1314
  681HK4     C157168   9.166   8.221   4.232 -0.1807 -0.3484  0.1810
  681HK4     H157169   9.077   8.260   4.180 -0.7045 -1.6344  0.1034
  681HK4     C657170   9.226   8.097   4.202 -0.2939 -0.4644  0.4305
  681HK4     C557171   9.332   8.051   4.282  0.2267  0.1259  0.0862
  681HK4    C1057172   9.438   7.959   4.232  0.3140  0.2682  0.0092
  681HK4     O157173   9.424   7.928   4.114 -0.1395 -0.3201  0.2188
  681HK4    C1657174   9.158   8.031   4.090  0.5408 -0.4527 -0.0936
  681HK4    C1557175   9.087   8.102   3.991  0.0403 -0.4127  0.2889
  681HK4     H757176   9.153   8.164   3.930  2.7482 -2.7886  0.7002
  681HK4    C2057177   8.972   8.061   3.924 -0.0064 -0.1361  0.1997
  681HK4     H957178   8.927   8.120   3.844  1.1343  0.1096 -0.2646
  681HK4    C1957179   8.918   7.937   3.955 -0.1356 -0.0558  0.2978
  681HK4    C1857180   8.982   7.860   4.060  0.2160 -0.3462 -0.1285
  681HK4    C1757181   9.100   7.907   4.117  0.0809 -0.2097  0.0450
  681HK4     H857182   9.153   7.837   4.182 -0.4271  1.0265  1.8034
  681HK4     N157183   8.917   7.738   4.088  0.8140 -0.7290 -0.3933
  681HK4    C2157184   8.812   7.738   3.994  0.0700  0.0129  0.4219
  681HK4    C2257185   8.810   7.854   3.907 -0.2791  0.0365  0.4586
  681HK4    C2657186   8.698   7.874   3.827  0.2976  0.0632 -0.3471
  681HK4    H1357187   8.693   7.964   3.766  4.0647  0.8844  0.4185
  681HK4    C2557188   8.593   7.783   3.829 -0.3152  0.7871  1.0472
  681HK4    H1257189   8.518   7.782   3.750 -0.0065 -1.6526  0.7457
  681HK4    C2457190   8.598   7.665   3.902  0.0094  0.0415 -0.1680
  681HK4    H1157191   8.514   7.595   3.894 -0.2989  0.5452 -1.5312
  681HK4    C2357192   8.703   7.651   3.992 -0.2895  0.4618  0.2508
  681HK4    H1057193   8.689   7.591   4.082  0.3959  1.4363  1.0110
  681HK4    C3957194   8.914   7.682   4.217  1.1830 -0.0864 -0.1058
  681HK4    C4157195   8.892   7.544   4.226 -0.0913  0.1121 -0.1106
  681HK4    H2157196   8.889   7.487   4.132 -5.0546 -1.0071  0.5752
  681HK4    C4257197   8.875   7.488   4.352  0.1255  0.0949 -0.0887
  681HK4    H2257198   8.847   7.382   4.363  0.9276  0.1827  3.2584
  681HK4    C4357199   8.888   7.565   4.467 -0.1078  0.0821 -0.0543
  681HK4    H2357200   8.855   7.513   4.557  0.9638 -1.8952 -0.7751
  681HK4    C4457201   8.901   7.703   4.460  0.4687  0.0233 -0.1182
  681HK4    H2457202   8.914   7.755   4.556  3.4325 -0.7582 -0.0513
  681HK4    C4557203   8.914   7.761   4.334  0.1268  0.0059 -0.1624
  681HK4    H2557204   8.923   7.870   4.326  0.4210 -0.2034 -3.5545
  682HK4    H2857205   0.914  10.812   4.454  0.5109  0.1093 -1.0827
  682HK4    C4857206   0.834  10.749   4.414 -0.2402  0.2688  0.1468
  682HK4    C4757207   0.849  10.612   4.397  0.0745  0.3049  0.1298
  682HK4    H2757208   0.935  10.563   4.444  1.1184  2.2839  0.3346
  682HK4    C4657209   0.754  10.541   4.324  0.2570  0.1261  0.0707
  682HK4    H2657210   0.771  10.434   4.303  1.0502  0.6711 -2.1603
  682HK4    C4057211   0.642  10.600   4.264 -0.1080 -0.2758  0.3574
  682HK4    C5057212   0.627  10.739   4.281  0.0465 -0.2232  0.0673
  682HK4    H3057213   0.543  10.793   4.235  1.0629  0.5034 -0.9497
  682HK4    C4957214   0.721  10.808   4.357 -0.3069  0.1543  0.1617
  682HK4    H2957215   0.703  10.913   4.384  0.4185  0.0173  1.2291
  682HK4     N257216   0.536  10.523   4.214  0.0149 -0.4134  0.3121
  682HK4    C3057217   0.510  10.388   4.245  0.0229 -0.4280  0.2579
  682HK4    C2957218   0.529  10.333   4.371  0.4176  0.5959  0.6515
  682HK4    H1557219   0.545  10.393   4.461 -0.3373  1.9913 -0.1428
  682HK4    C2857220   0.514  10.195   4.386  0.1699  0.5278 -0.1793
  682HK4    C2757221   0.462  10.124   4.277  0.6923  0.1384 -0.1752
  682HK4    H1457222   0.441  10.017   4.297 -0.8464  0.3685 -0.4918
  682HK4    C3257223   0.432  10.182   4.154 -0.2267  0.2724  0.1057
  682HK4    H1657224   0.401  10.113   4.075 -1.8583  0.2044  0.7856
  682HK4    C3157225   0.446  10.319   4.135  0.4887  0.1345 -0.3704
  682HK4    C3457226   0.423  10.417   4.031  0.5735  0.0456 -0.4746
  682HK4    C3357227   0.489  10.536   4.081  0.7106 -0.2647  0.0799
  682HK4    C3557228   0.518  10.636   3.989 -0.1183 -0.1285 -0.0328
  682HK4    H1757229   0.573  10.719   4.032 -0.8769  1.6511 -2.3736
  682HK4    C3657230   0.485  10.625   3.854 -0.0022  0.5830 -0.1199
  682HK4    H1857231   0.533  10.689   3.778  1.4285  0.0712  0.3378
  682HK4    C3757232   0.424  10.509   3.807  0.2002  0.2968  0.3217
  682HK4    H1957233   0.420  10.479   3.703  0.1171  0.2445  0.3396
  682HK4    C3857234   0.389  10.409   3.896 -0.2097 -0.0896 -0.2708
  682HK4    H2057235   0.322  10.328   3.868 -2.6934  1.4719  1.0505
  682HK4    C1457236   0.618  10.136   4.472 -0.0235 -0.2987 -0.5160
  682HK4     C957237   0.690  10.021   4.436  0.0039 -0.4612  0.0576
  682HK4     C857238   0.728   9.932   4.538  0.0685 -0.1869  0.2768
  682HK4    C1157239   0.712   9.974   4.670 -0.1514 -0.1233  0.2309
  682HK4     H457240   0.761   9.914   4.748 -0.4921 -0.2468  0.3533
  682HK4    C1257241   0.653  10.094   4.708 -0.8685 -0.4606  0.1896
  682HK4     H557242   0.638  10.108   4.816 -0.1276 -0.8881  0.3517
  682HK4    C1357243   0.607  10.176   4.606  0.2077 -0.5901 -0.4085
  682HK4     H657244   0.543  10.260   4.638  0.5887 -1.0426  1.6544
  682HK4     C757245   0.767   9.795   4.498 -0.1237 -0.1403 -0.0667
  682HK4     O257246   0.842   9.732   4.573 -0.2052  0.1290  0.2405
  682HK4     C457247   0.763   9.759   4.354 -0.6256 -0.3282 -0.0077
  682HK4     C357248   0.776   9.625   4.321  1.0716 -0.1590 -0.0694
  682HK4     H357249   0.812   9.554   4.398  0.6505 -0.3621 -0.0583
  682HK4     C257250   0.774   9.579   4.190  0.1661  0.0124 -0.1222
  682HK4     H257251   0.806   9.477   4.165 -0.6609 -0.2922  0.0418
  682HK4     C157252   0.763   9.672   4.088  0.3787  0.3496  0.1620
  682HK4     H157253   0.780   9.641   3.983 -1.6446  0.5847 -0.2727
  682HK4     C657254   0.745   9.809   4.114  0.4000  0.4194 -0.1749
  682HK4     C557255   0.752   9.851   4.248 -0.3485 -0.2119  0.0629
  682HK4    C1057256   0.732   9.990   4.296 -0.4055 -0.1511 -0.1355
  682HK4     O157257   0.801  10.079   4.246 -0.1572 -0.3180 -0.0919
  682HK4    C1657258   0.660   9.876   4.014  0.0339  0.0088 -0.1392
  682HK4    C1557259   0.555   9.816   3.941  0.3720 -0.3565 -0.3268
  682HK4     H757260   0.487   9.758   4.004 -2.2114  3.2220  0.3438
  682HK4    C2057261   0.504   9.866   3.822 -0.1559 -0.1342 -0.0059
  682HK4     H957262   0.443   9.805   3.756 -0.1366 -1.3322  1.0554
  682HK4    C1957263   0.545   9.992   3.781 -0.5485  0.0439  0.1328
  682HK4    C1857264   0.651  10.063   3.851 -0.5503 -0.0992  0.2761
  682HK4    C1757265   0.704   9.997   3.962  0.3928 -0.1444 -0.1971
  682HK4     H857266   0.800  10.036   3.995 -0.8939  2.4933  0.5502
  682HK4     N157267   0.695  10.172   3.774 -0.0545 -0.3938  0.1366
  682HK4    C2157268   0.597  10.189   3.675  0.2865  0.1927 -0.1049
  682HK4    C2257269   0.508  10.074   3.667 -0.1507  0.4969  0.3290
  682HK4    C2657270   0.423  10.057   3.559  0.2270 -0.6089  0.2025
  682HK4    H1357271   0.340   9.986   3.567  1.8337 -2.6259 -0.5121
  682HK4    C2557272   0.414  10.147   3.453  0.2452 -0.3257  0.4419
  682HK4    H1257273   0.330  10.131   3.386  0.8799 -0.4889 -0.3177
  682HK4    C2457274   0.501  10.254   3.464  0.1356 -0.1878 -0.0364
  682HK4    H1157275   0.486  10.337   3.394  0.8945 -0.0750 -0.0726
  682HK4    C2357276   0.587  10.281   3.571  0.3613  0.0192 -0.2668
  682HK4    H1057277   0.623  10.382   3.585  0.7287 -0.0400 -0.7910
  682HK4    C3957278   0.826  10.222   3.764 -0.1761 -0.3087 -1.0839
  682HK4    C4157279   0.854  10.356   3.732 -0.2518  0.0699  0.3885
  682HK4    H2157280   0.775  10.433   3.720 -0.1107  0.0630 -0.6077
  682HK4    C4257281   0.982  10.406   3.712  0.0426 -0.5897  0.6187
  682HK4    H2257282   0.995  10.515   3.703  0.4261 -0.9494 -4.3127
  682HK4    C4357283   1.087  10.317   3.724  0.6074 -0.0396 -0.2558
  682HK4    H2357284   1.183  10.350   3.684  0.2418  0.9010 -0.3424
  682HK4    C4457285   1.064  10.181   3.746 -0.0724  0.0347 -0.4735
  682HK4    H2457286   1.148  10.114   3.770 -0.1532  0.5650  1.3824
  682HK4    C4557287   0.936  10.134   3.769  0.0038 -0.0421 -0.1986
  682HK4    H2557288   0.920  10.035   3.814 -0.0139 -0.2606 -0.6720
  683HK4    H2857289   4.753   2.144   2.873 -0.0892 -1.0473 -0.3740
  683HK4    C4857290   4.686   2.174   2.793 -0.3442 -0.2773  0.1211
  683HK4    C4757291   4.559   2.215   2.831 -0.2375  0.2996 -0.1278
  683HK4    H2757292   4.528   2.193   2.934  0.8845  1.7552  0.5411
  683HK4    C4657293   4.485   2.285   2.737 -0.1153 -0.0515 -0.4868
  683HK4    H2657294   4.385   2.322   2.765 -0.4440 -0.6227 -0.8894
  683HK4    C4057295   4.534   2.318   2.609  0.2996 -0.0496 -0.3281
  683HK4    C5057296   4.663   2.271   2.576  0.0849 -0.5685 -0.4287
  683HK4    H3057297   4.705   2.290   2.476 -0.3750 -1.2242 -0.7494
  683HK4    C4957298   4.739   2.198   2.666 -0.4139 -0.4993  0.0512
  683HK4    H2957299   4.844   2.169   2.653 -0.0497  0.5395  0.6178
  683HK4     N257300   4.455   2.375   2.509  0.0278  0.1595  0.0059
  683HK4    C3057301   4.504   2.441   2.394  0.1283 -0.0826 -0.0893
  683HK4    C2957302   4.617   2.522   2.387  0.0220  0.0727 -0.0219
  683HK4    H1557303   4.682   2.539   2.473 -0.3742 -1.3588  0.5738
  683HK4    C2857304   4.635   2.601   2.274  0.6382 -0.4420 -0.2816
  683HK4    C2757305   4.536   2.609   2.174 -0.0685 -0.5048  0.4035
  683HK4    H1457306   4.552   2.653   2.074  2.2709  1.4491  1.5986
  683HK4    C3257307   4.417   2.539   2.188 -0.3254 -0.2058 -0.2338
  683HK4    H1657308   4.338   2.547   2.114  0.1226 -2.4910 -0.9993
  683HK4    C3157309   4.400   2.449   2.293 -0.1105  0.2427  0.1850
  683HK4    C3457310   4.284   2.385   2.352 -0.0952  0.2916  0.2669
  683HK4    C3357311   4.321   2.339   2.485  0.1136 -0.1788  0.0445
  683HK4    C3557312   4.224   2.288   2.570  0.1634 -0.3755 -0.0165
  683HK4    H1757313   4.252   2.237   2.663  0.2410  0.2820  0.3209
  683HK4    C3657314   4.090   2.286   2.534  0.3398 -0.4370 -0.6707
  683HK4    H1857315   4.023   2.225   2.596 -0.0409 -0.4581 -1.1033
  683HK4    C3757316   4.053   2.343   2.413 -0.6491 -0.1778 -0.2555
  683HK4    H1957317   3.946   2.353   2.395 -0.9702 -0.4047  1.5138
  683HK4    C3857318   4.148   2.384   2.320 -0.0997 -0.2123  0.2908
  683HK4    H2057319   4.120   2.436   2.229 -0.9853 -1.9796 -0.4599
  683HK4    C1457320   4.732   2.709   2.293  0.3003 -0.1376 -0.2968
  683HK4     C957321   4.716   2.839   2.243  0.4145  0.1685  0.4536
  683HK4     C857322   4.831   2.919   2.224  0.2931  0.3868  0.6399
  683HK4    C1157323   4.956   2.872   2.263  0.2765  0.0104  0.2484
  683HK4     H457324   5.041   2.942   2.252  0.2792  0.0740  0.6572
  683HK4    C1257325   4.975   2.743   2.311  0.0824 -0.3265 -0.5718
  683HK4     H557326   5.077   2.701   2.315 -0.2761 -1.0821  0.7378
  683HK4    C1357327   4.862   2.663   2.320  0.1115 -0.2616  0.4049
  683HK4     H657328   4.876   2.562   2.362 -2.1795 -0.4434  0.8109
  683HK4     C757329   4.822   3.047   2.150  0.0139 -0.0660 -0.1154
  683HK4     O257330   4.924   3.107   2.117  0.2600 -0.4204 -0.0062
  683HK4     C457331   4.692   3.093   2.098  0.1393 -0.3229 -0.6621
  683HK4     C357332   4.674   3.211   2.027  0.1002 -0.1693 -0.3971
  683HK4     H357333   4.762   3.277   2.015 -0.4957  0.5343 -0.9102
  683HK4     C257334   4.556   3.243   1.961 -0.1654  0.0464  0.1804
  683HK4     H257335   4.550   3.330   1.895  3.2121  0.0085 -0.2594
  683HK4     C157336   4.445   3.161   1.978  0.1018 -0.3887 -0.1410
  683HK4     H157337   4.351   3.196   1.932 -0.1967 -2.9013 -1.5311
  683HK4     C657338   4.454   3.040   2.049 -0.0439 -0.0764  0.4143
  683HK4     C557339   4.576   3.014   2.113  0.1268 -0.1706  0.0505
  683HK4    C1057340   4.584   2.901   2.209  0.3650 -0.1607  0.0424
  683HK4     O157341   4.506   2.899   2.304  0.7707 -0.3758  0.3745
  683HK4    C1657342   4.347   2.942   2.024  0.1839 -0.2526  0.1297
  683HK4    C1557343   4.293   2.939   1.894 -0.4826  0.2516  0.3949
  683HK4     H757344   4.361   2.963   1.811 -1.5106 -0.2480 -0.6135
  683HK4    C2057345   4.165   2.893   1.864 -0.0704 -0.5887 -0.0781
  683HK4     H957346   4.129   2.899   1.761 -0.3620 -0.5929  0.0243
  683HK4    C1957347   4.086   2.848   1.969 -0.3105  0.1532  0.0612
  683HK4    C1857348   4.143   2.837   2.102 -0.1485  0.3917  0.0116
  683HK4    C1757349   4.268   2.892   2.127  0.4149 -0.8698  0.0077
  683HK4     H857350   4.280   2.934   2.227 -0.9212  0.6515 -0.4540
  683HK4     N157351   4.045   2.796   2.195  0.1617  0.1268  0.2231
  683HK4    C2157352   3.931   2.763   2.119  0.1613  0.2123  0.1864
  683HK4    C2257353   3.950   2.798   1.980 -0.3323  0.2239  0.1179
  683HK4    C2657354   3.849   2.759   1.893 -0.4281 -0.2466  0.4365
  683HK4    H1357355   3.853   2.804   1.794 -0.0670  4.1592  2.3049
  683HK4    C2557356   3.738   2.687   1.936 -0.8321 -0.0244 -0.2229
  683HK4    H1257357   3.665   2.649   1.864 -1.5265  0.3043  0.3021
  683HK4    C2457358   3.718   2.657   2.070  0.4236  0.3513  0.0590
  683HK4    H1157359   3.621   2.615   2.102  0.8311 -0.5354  0.1099
  683HK4    C2357360   3.819   2.691   2.159  0.1238  0.3832  0.3875
  683HK4    H1057361   3.813   2.637   2.254 -1.3028 -0.9029 -0.4143
  683HK4    C3957362   4.062   2.781   2.333  0.5887  0.4405  0.2090
  683HK4    C4157363   3.957   2.793   2.426  0.0098  0.0671 -0.3864
  683HK4    H2157364   3.875   2.862   2.401 -0.2101 -0.3040 -0.6893
  683HK4    C4257365   3.962   2.746   2.557 -0.3124 -0.1756 -0.4605
  683HK4    H2257366   3.872   2.736   2.620 -0.3361 -2.1789 -0.7761
  683HK4    C4357367   4.082   2.693   2.603 -0.3311 -0.2199 -0.4628
  683HK4    H2357368   4.093   2.650   2.702  0.9265 -0.2823 -0.6213
  683HK4    C4457369   4.191   2.693   2.517 -0.0430 -0.2065 -0.0953
  683HK4    H2457370   4.295   2.670   2.545  0.5995  1.6859 -0.8367
  683HK4    C4557371   4.184   2.734   2.384  0.5250 -0.0421 -0.0742
  683HK4    H2557372   4.267   2.703   2.318  1.1274  3.3528 -1.0016
  684HK4    H2857373   3.313   0.914   1.302 -2.0763 -0.3684 -0.3423
  684HK4    C4857374   3.315   1.020   1.329 -0.0049 -0.4481 -0.0335
  684HK4    C4757375   3.425   1.079   1.388 -0.0683  0.1592 -0.5127
  684HK4    H2757376   3.517   1.017   1.387  0.4938  0.9876 -2.2163
  684HK4    C4657377   3.419   1.212   1.425  0.2322  0.1489 -0.4260
  684HK4    H2657378   3.514   1.249   1.468  1.0956  0.5928 -2.6344
  684HK4    C4057379   3.305   1.294   1.412  0.1600  0.0938 -0.1337
  684HK4    C5057380   3.200   1.232   1.341  0.0473  0.2095 -0.0709
  684HK4    H3057381   3.114   1.295   1.316  0.5163  0.3660 -1.3103
  684HK4    C4957382   3.204   1.099   1.300  0.4312  0.1885  0.0285
  684HK4    H2957383   3.130   1.054   1.232  1.6552  0.3079 -1.4094
  684HK4     N257384   3.278   1.402   1.497 -0.0008 -0.3287  0.3612
  684HK4    C3057385   3.313   1.430   1.631  0.8406  0.4613 -0.0155
  684HK4    C2957386   3.345   1.340   1.732 -0.3094 -0.2123 -0.2474
  684HK4    H1557387   3.355   1.234   1.709  2.4565  0.4504 -2.2932
  684HK4    C2857388   3.351   1.378   1.865  0.4302  0.2381 -0.4069
  684HK4    C2757389   3.320   1.512   1.896  0.8330  0.3220 -0.3657
  684HK4    H1457390   3.335   1.542   2.001 -1.6266  2.1365 -0.4983
  684HK4    C3257391   3.277   1.603   1.801 -0.2704  0.0270 -0.1526
  684HK4    H1657392   3.245   1.704   1.828 -2.5961 -0.9199  0.8230
  684HK4    C3157393   3.280   1.567   1.667  0.5863  0.4632 -0.2524
  684HK4    C3457394   3.232   1.629   1.545  0.3523 -0.1671 -0.4878
  684HK4    C3357395   3.227   1.524   1.446  0.6104 -0.3475 -0.3071
  684HK4    C3557396   3.196   1.557   1.315  0.7162  0.2320 -0.1863
  684HK4    H1757397   3.179   1.478   1.242 -0.4428 -0.8355  1.1988
  684HK4    C3657398   3.179   1.690   1.278  0.2918  0.2560  0.0883
  684HK4    H1857399   3.139   1.712   1.178 -1.4639 -0.3597  0.6423
  684HK4    C3757400   3.194   1.792   1.372  0.0545  0.6304 -0.2782
  684HK4    H1957401   3.180   1.897   1.348  1.3654  0.9767  0.4664
  684HK4    C3857402   3.213   1.762   1.506  0.2123 -0.1850 -0.4807
  684HK4    H2057403   3.216   1.839   1.583 -2.1404 -0.9489  0.4239
  684HK4    C1457404   3.331   1.278   1.971  0.1115  0.2815 -0.4251
  684HK4     C957405   3.237   1.284   2.075 -0.0326 -0.5303 -0.4997
  684HK4     C857406   3.270   1.251   2.208 -0.3489  0.2566 -0.2226
  684HK4    C1157407   3.393   1.190   2.224 -0.3715  0.2773  0.0225
  684HK4     H457408   3.409   1.128   2.314 -0.5790 -0.1920 -0.2611
  684HK4    C1257409   3.483   1.170   2.120 -0.4474 -0.2888  0.0593
  684HK4     H557410   3.571   1.109   2.143 -1.3269 -2.0067 -1.0682
  684HK4    C1357411   3.448   1.201   1.989 -0.2580 -0.1816  0.0338
  684HK4     H657412   3.500   1.152   1.904  0.6294  0.4322  0.2149
  684HK4     C757413   3.181   1.279   2.323 -0.1593  0.7877 -0.2038
  684HK4     O257414   3.218   1.260   2.439 -0.5251  0.2434 -0.1754
  684HK4     C457415   3.045   1.323   2.286 -0.1378  0.8278 -0.2323
  684HK4     C357416   2.965   1.367   2.391  0.0776  0.2776  0.1646
  684HK4     H357417   3.002   1.381   2.494  0.3131  0.7598  0.0099
  684HK4     C257418   2.829   1.391   2.372  0.1897  0.5937 -0.2345
  684HK4     H257419   2.763   1.432   2.450  0.1206  1.5981 -0.8149
  684HK4     C157420   2.778   1.372   2.245  0.1951 -0.0706 -0.1375
  684HK4     H157421   2.669   1.374   2.231  0.1868  1.7232  0.1167
  684HK4     C657422   2.855   1.321   2.138  0.0898  0.0641 -0.2757
  684HK4     C557423   2.994   1.309   2.156  0.1040  0.2373 -0.2630
  684HK4    C1057424   3.092   1.297   2.044 -0.0378 -0.2047 -0.3437
  684HK4     O157425   3.061   1.329   1.930 -0.2307  0.3370 -0.1407
  684HK4    C1657426   2.780   1.298   2.013 -0.4976  0.0207  0.0852
  684HK4    C1557427   2.657   1.364   1.994 -0.6569 -0.1804  0.3969
  684HK4     H757428   2.639   1.457   2.049 -0.1898 -0.0214  0.2859
  684HK4    C2057429   2.564   1.320   1.900 -0.1916 -0.0599 -0.1261
  684HK4     H957430   2.469   1.364   1.871 -1.0991 -2.1863 -0.4641
  684HK4    C1957431   2.589   1.204   1.829  0.4699  0.0743 -0.1167
  684HK4    C1857432   2.713   1.131   1.853  0.3235 -0.1223  0.0479
  684HK4    C1757433   2.803   1.178   1.947 -0.0483 -0.0518  0.3718
  684HK4     H857434   2.901   1.131   1.961  1.0439  1.6693 -1.2236
  684HK4     N157435   2.707   1.006   1.787 -0.2886 -0.1862  0.2185
  684HK4    C2157436   2.581   0.997   1.725 -0.2226  0.3471  0.0024
  684HK4    C2257437   2.510   1.123   1.739 -0.0219  0.4646 -0.0365
  684HK4    C2657438   2.403   1.154   1.655 -0.3171 -0.0997  0.1247
  684HK4    H1357439   2.336   1.236   1.679 -0.2952  0.4954 -1.7492
  684HK4    C2557440   2.363   1.056   1.565  0.6577 -0.1558 -0.2624
  684HK4    H1257441   2.269   1.077   1.513  0.2706 -1.8075 -0.2506
  684HK4    C2457442   2.420   0.930   1.557 -0.0765 -0.5260  0.2615
  684HK4    H1157443   2.381   0.848   1.495  0.3291 -3.3206  3.5122
  684HK4    C2357444   2.534   0.904   1.633 -0.3517 -0.3273  0.7455
  684HK4    H1057445   2.590   0.814   1.608  0.9505  0.4374  0.8832
  684HK4    C3957446   2.828   0.948   1.749  0.0115  0.1704  0.6214
  684HK4    C4157447   2.832   0.810   1.720  0.1222  0.2231  0.3794
  684HK4    H2157448   2.748   0.748   1.758 -0.0865  1.1950  1.5327
  684HK4    C4257449   2.938   0.742   1.663 -0.4807  0.2156 -0.7522
  684HK4    H2257450   2.941   0.632   1.651  1.0738 -0.0711  1.7245
  684HK4    C4357451   3.057   0.811   1.640 -0.4900  0.5114  0.0710
  684HK4    H2357452   3.127   0.772   1.567  0.2845  0.9839  0.5481
  684HK4    C4457453   3.064   0.945   1.676  0.0213  0.7288 -0.8398
  684HK4    H2457454   3.163   0.993   1.670  0.7543 -0.7465 -0.7105
  684HK4    C4557455   2.951   1.012   1.722 -0.1688  0.0951 -0.3913
  684HK4    H2557456   2.962   1.119   1.741  0.7782 -0.1228  0.3499
  685HK4    H2857457   6.026   7.066  10.061 -0.0482  0.7422 -0.0334
  685HK4    C4857458   5.965   6.989  10.109  0.2194  0.5739  0.0384
  685HK4    C4757459   6.001   6.856  10.093 -0.6707  0.3185  0.1087
  685HK4    H2757460   6.093   6.832  10.038  0.3336 -0.3889  2.0201
  685HK4    C4657461   5.939   6.750  10.159  0.0028 -0.3507 -0.3198
  685HK4    H2657462   5.986   6.651  10.157 -2.1741 -1.4584  1.4673
  685HK4    C4057463   5.830   6.773  10.245  0.1542 -0.0747 -0.1993
  685HK4    C5057464   5.800   6.909  10.264  0.1455 -0.1683  0.4718
  685HK4    H3057465   5.722   6.941  10.335 -0.3167 -0.6827  0.1908
  685HK4    C4957466   5.862   7.015  10.199 -0.1493 -0.3479 -0.1044
  685HK4    H2957467   5.822   7.117  10.209  0.8542  0.3468 -2.6731
  685HK4     N257468   5.741   6.672  10.284 -0.5508  0.4278 -0.5025
  685HK4    C3057469   5.667   6.671  10.405  0.4585  0.1349  0.1229
  685HK4    C2957470   5.694   6.738  10.523  0.5041 -0.1147  0.2538
  685HK4    H1557471   5.776   6.809  10.523  1.0216 -0.7089 -0.4448
  685HK4    C2857472   5.614   6.713  10.634 -0.1327  0.4352 -0.0701
  685HK4    C2757473   5.496   6.639  10.611  0.3571 -0.3212 -0.1624
  685HK4    H1457474   5.413   6.676  10.673  0.2699 -0.7532 -0.0254
  685HK4    C3257475   5.469   6.566  10.496  0.0447  0.3706 -0.5337
  685HK4    H1657476   5.377   6.508  10.491  0.2529 -0.0725  0.6403
  685HK4    C3157477   5.559   6.575  10.390  0.7436 -0.1687  0.0114
  685HK4    C3457478   5.576   6.504  10.265 -0.0513  0.0652 -0.2288
  685HK4    C3357479   5.685   6.573  10.200 -0.1869  0.1276 -0.3909
  685HK4    C3557480   5.760   6.513  10.100 -0.6778  0.6677 -1.0872
  685HK4    H1757481   5.810   6.569  10.022  0.7676  1.6148  0.4956
  685HK4    C3657482   5.729   6.380  10.071 -0.0736  0.3539 -0.3272
  685HK4    H1857483   5.801   6.321  10.013  1.1976 -0.3277  1.9093
  685HK4    C3757484   5.626   6.311  10.133  0.5808 -0.2868  0.0429
  685HK4    H1957485   5.629   6.202  10.128 -0.3151 -0.2464 -1.8465
  685HK4    C3857486   5.547   6.372  10.229  0.0346  0.1724 -0.6914
  685HK4    H2057487   5.471   6.314  10.281  1.2737 -1.3087 -0.4855
  685HK4    C1457488   5.672   6.726  10.769 -0.0074  0.6298 -0.1418
  685HK4     C957489   5.625   6.653  10.879  0.0889  0.5367 -0.1635
  685HK4     C857490   5.628   6.700  11.012 -0.1586  0.0309  0.0224
  685HK4    C1157491   5.699   6.818  11.032 -0.1876  0.0446  0.0503
  685HK4     H457492   5.711   6.859  11.133  4.1433 -1.6999  0.3645
  685HK4    C1257493   5.755   6.891  10.928 -0.6590  0.6617  0.2298
  685HK4     H557494   5.796   6.989  10.957  3.4834 -0.8210 -0.3946
  685HK4    C1357495   5.743   6.844  10.798  0.7099  0.0934  0.3012
  685HK4     H657496   5.777   6.905  10.713 -0.3987  1.6432  0.9525
  685HK4     C757497   5.547   6.633  11.117 -0.1159 -0.0245  0.0176
  685HK4     O257498   5.534   6.693  11.224 -0.7947 -0.5633  0.2368
  685HK4     C457499   5.462   6.518  11.081 -0.2087  0.0524 -0.0083
  685HK4     C357500   5.372   6.463  11.170  0.1170 -0.1090  0.2212
  685HK4     H357501   5.358   6.500   0.025  2.0425  0.7131  0.1977
  685HK4     C257502   5.292   6.353  11.140  0.0182  0.0366 -0.0372
  685HK4     H257503   5.226   6.298  11.208  1.5162 -1.5834  0.1328
  685HK4     C157504   5.301   6.299  11.012 -0.3018  0.0413 -0.0633
  685HK4     H157505   5.234   6.218  10.979 -1.7808  1.3186 -0.2666
  685HK4     C657506   5.397   6.348  10.921 -0.2091  0.2151  0.1323
  685HK4     C557507   5.479   6.457  10.955  0.5851 -0.4424  0.3326
  685HK4    C1057508   5.577   6.514  10.857  0.4561  0.2811  0.6353
  685HK4     O157509   5.655   6.438  10.801 -0.3185 -0.1043  0.0664
  685HK4    C1657510   5.364   6.304  10.785 -0.1038 -0.1207  0.2118
  685HK4    C1557511   5.234   6.299  10.731  0.2126  0.2726 -0.5794
  685HK4     H757512   5.159   6.368  10.769  0.6944  0.4716  0.0137
  685HK4    C2057513   5.202   6.229  10.615 -0.5131 -0.8311  0.2700
  685HK4     H957514   5.095   6.226  10.590 -0.8433  0.5995  1.4332
  685HK4    C1957515   5.302   6.171  10.537 -0.3294 -0.2141  0.0407
  685HK4    C1857516   5.435   6.173  10.593 -0.1497 -0.3255 -0.3801
  685HK4    C1757517   5.461   6.231  10.717 -0.5314 -0.1280 -0.3922
  685HK4     H857518   5.559   6.231  10.765 -2.0983  2.5228  3.0178
  685HK4     N157519   5.523   6.108  10.505  0.2444 -0.1221 -0.1399
  685HK4    C2157520   5.448   6.069  10.392  0.2043  0.1875 -0.2205
  685HK4    C2257521   5.308   6.100  10.411  0.1986  0.0997 -0.1150
  685HK4    C2657522   5.222   6.053  10.313  0.7993  0.8717 -1.0123
  685HK4    H1357523   5.125   6.103  10.307  0.7110  0.8830  0.4249
  685HK4    C2557524   5.263   5.972  10.207  0.2098 -0.7373 -0.0218
  685HK4    H1257525   5.183   5.919  10.155 -0.1556  0.4218 -0.6616
  685HK4    C2457526   5.396   5.933  10.196  0.2842 -0.5113  0.0689
  685HK4    H1157527   5.423   5.846  10.134 -1.1675 -0.1845 -1.0662
  685HK4    C2357528   5.486   5.987  10.287  0.0330 -0.8370  0.5171
  685HK4    H1057529   5.588   5.948  10.296  1.0042  1.4402 -0.3042
  685HK4    C3957530   5.662   6.125  10.507  0.1862  0.3561 -0.1680
  685HK4    C4157531   5.744   6.015  10.472 -0.3140  0.0033 -0.2251
  685HK4    H2157532   5.697   5.916  10.478  0.9080 -0.6703 -1.4106
  685HK4    C4257533   5.879   6.031  10.443 -0.2845  0.0331 -0.0739
  685HK4    H2257534   5.939   5.943  10.415  0.0594  0.9494 -2.3582
  685HK4    C4357535   5.942   6.155  10.448 -0.0406 -0.0857 -0.2738
  685HK4    H2357536   6.048   6.166  10.422  0.1579 -2.5899 -0.7119
  685HK4    C4457537   5.864   6.266  10.476  0.2673  0.0122  0.2016
  685HK4    H2457538   5.911   6.365  10.471  0.4124 -0.1524 -2.5034
  685HK4    C4557539   5.729   6.249  10.506  0.1123  0.3979 -0.2661
  685HK4    H2557540   5.672   6.328  10.557  0.3011  2.7702 -3.5844
  686HK4    H2857541   5.501  10.231   4.357 -0.3103  1.3158 -0.7709
  686HK4    C4857542   5.411  10.219   4.298 -0.3741 -0.1679 -0.4097
  686HK4    C4757543   5.388  10.110   4.215  0.4746 -0.7710  0.1503
  686HK4    H2757544   5.470  10.037   4.209 -0.5337 -1.7753 -1.6536
  686HK4    C4657545   5.279  10.106   4.129  0.2671 -0.0375  0.3720
  686HK4    H2657546   5.275  10.019   4.061 -3.1251 -0.3319  0.8745
  686HK4    C4057547   5.187  10.212   4.125  0.4908  0.1328 -0.3667
  686HK4    C5057548   5.204  10.318   4.217 -0.4066 -0.2995  0.3145
  686HK4    H3057549   5.128  10.394   4.237 -0.7764 -1.0069  1.6368
  686HK4    C4957550   5.319  10.324   4.295 -0.2841 -0.0720  0.1198
  686HK4    H2957551   5.356  10.414   4.345  0.7840 -1.4574  1.8846
  686HK4     N257552   5.070  10.194   4.050  0.2697 -0.5216  0.1276
  686HK4    C3057553   5.000  10.081   4.003 -0.0377 -0.2336 -0.1158
  686HK4    C2957554   4.989   9.953   4.059 -0.0206  0.0533  0.5536
  686HK4    H1557555   5.043   9.939   4.152 -1.4422 -1.8044  1.1035
  686HK4    C2857556   4.907   9.855   4.006  0.1011  0.2597 -0.0348
  686HK4    C2757557   4.829   9.893   3.896  0.2838 -0.2673 -0.3476
  686HK4    H1457558   4.773   9.812   3.846 -0.2082 -0.8272  1.0924
  686HK4    C3257559   4.835  10.016   3.830 -0.0187 -0.0093  0.1033
  686HK4    H1657560   4.807  10.024   3.725  0.2425  0.8126  0.1001
  686HK4    C3157561   4.921  10.110   3.886 -0.2305  0.1759  0.1151
  686HK4    C3457562   4.944  10.250   3.856 -0.0719  0.2350  0.5184
  686HK4    C3357563   5.026  10.298   3.965 -0.1010 -0.1887  0.7270
  686HK4    C3557564   5.057  10.433   3.968 -0.4743 -0.0885  0.0965
  686HK4    H1757565   5.112  10.474   4.052 -0.5041 -0.4382  0.2862
  686HK4    C3657566   5.006  10.522   3.874 -0.0138  0.8070  0.6949
  686HK4    H1857567   5.052  10.622   3.873  0.9197  0.4373  3.1583
  686HK4    C3757568   4.932  10.473   3.768  0.3885  0.4786  0.5664
  686HK4    H1957569   4.897  10.539   3.688 -1.1748 -0.5817  0.3517
  686HK4    C3857570   4.900  10.338   3.758  0.7617  0.4098  0.2995
  686HK4    H2057571   4.836  10.303   3.677 -0.5569  2.6284  0.3405
  686HK4    C1457572   4.907   9.717   4.059  0.1617  0.1801 -0.2458
  686HK4     C957573   4.886   9.602   3.982  0.7347 -0.1496  0.0810
  686HK4     C857574   4.830   9.486   4.041 -0.8540  0.2197 -0.6893
  686HK4    C1157575   4.788   9.489   4.174 -0.1572 -0.0303 -0.4609
  686HK4     H457576   4.717   9.412   4.209 -0.6677  1.2101  1.2879
  686HK4    C1257577   4.812   9.599   4.255  0.2354 -0.1023 -0.4808
  686HK4     H557578   4.809   9.592   4.364  1.4872  0.8042 -0.3639
  686HK4    C1357579   4.865   9.712   4.193 -0.0846  0.1310 -0.3271
  686HK4     H657580   4.886   9.804   4.250 -1.9317  1.3732 -1.5927
  686HK4     C757581   4.811   9.360   3.966  0.1387 -0.5201  0.2892
  686HK4     O257582   4.741   9.267   4.006 -0.5619  0.0316  0.3484
  686HK4     C457583   4.883   9.350   3.837 -0.5679  0.2859 -0.1726
  686HK4     C357584   4.881   9.227   3.772  0.0379  0.1257  0.1079
  686HK4     H357585   4.871   9.130   3.824  0.0863  0.0581 -0.0109
  686HK4     C257586   4.894   9.217   3.634 -0.6686 -0.0598  0.0511
  686HK4     H257587   4.893   9.119   3.584 -0.6258  0.5591 -1.1584
  686HK4     C157588   4.917   9.334   3.564 -1.0434 -0.1338 -0.1956
  686HK4     H157589   4.906   9.336   3.454  3.4987 -2.7275 -0.7735
  686HK4     C657590   4.943   9.458   3.627  0.0512 -0.4107 -0.1074
  686HK4     C557591   4.919   9.465   3.765 -0.8479  0.2928 -0.3005
  686HK4    C1057592   4.946   9.586   3.847  0.8520 -0.3864  0.1602
  686HK4     O157593   5.052   9.645   3.828  0.4217  0.4122  0.1942
  686HK4    C1657594   4.944   9.575   3.538 -0.0511  0.0858  0.5400
  686HK4    C1557595   4.846   9.588   3.438  0.1362  0.3298  0.3902
  686HK4     H757596   4.745   9.549   3.457  0.7367 -0.9070  1.1019
  686HK4    C2057597   4.875   9.649   3.316 -0.6636  0.2021  0.1310
  686HK4     H957598   4.805   9.644   3.233 -0.2229 -0.0449 -0.2299
  686HK4    C1957599   4.998   9.710   3.296 -0.5715  0.0090  0.1027
  686HK4    C1857600   5.104   9.701   3.394 -0.5652  0.3618  0.1315
  686HK4    C1757601   5.064   9.640   3.513 -0.2981  0.4376  0.2590
  686HK4     H857602   5.138   9.642   3.593  0.1828 -0.7896 -0.1379
  686HK4     N157603   5.230   9.746   3.349 -0.5073  0.0381 -0.0371
  686HK4    C2157604   5.208   9.771   3.212 -0.3507  0.1146 -0.0486
  686HK4    C2257605   5.070   9.745   3.175 -0.3768 -0.0974  0.1878
  686HK4    C2657606   5.035   9.753   3.040 -0.2185 -0.6929  0.1107
  686HK4    H1357607   4.930   9.741   3.013  0.4355 -1.8733 -2.0213
  686HK4    C2557608   5.134   9.778   2.946 -0.3572  0.0686  0.1623
  686HK4    H1257609   5.113   9.756   2.842  0.5432 -2.4532  0.4779
  686HK4    C2457610   5.267   9.804   2.980 -0.3660 -0.0892  0.3249
  686HK4    H1157611   5.339   9.824   2.900 -1.0159 -0.2985 -0.3115
  686HK4    C2357612   5.301   9.805   3.115 -0.2175  0.6811  0.2803
  686HK4    H1057613   5.402   9.827   3.150 -0.6626  1.3470  1.1801
  686HK4    C3957614   5.318   9.823   3.426 -0.0387 -0.6670  0.1342
  686HK4    C4157615   5.451   9.840   3.382  0.0873 -0.9054  0.4190
  686HK4    H2157616   5.515   9.766   3.333 -0.3878  0.1228 -1.8339
  686HK4    C4257617   5.524   9.955   3.412 -0.7782 -0.0692 -0.6227
  686HK4    H2257618   5.631   9.949   3.386 -0.8465 -1.2822 -0.6962
  686HK4    C4357619   5.464  10.061   3.478 -0.7504 -0.4385  0.0086
  686HK4    H2357620   5.518  10.156   3.477 -0.3631 -0.6445  1.0117
  686HK4    C4457621   5.332  10.050   3.520 -0.8744  0.0798 -0.2432
  686HK4    H2457622   5.285  10.108   3.600 -0.5065 -0.9949  0.7547
  686HK4    C4557623   5.263   9.932   3.496 -0.1063 -0.3327 -0.4443
  686HK4    H2557624   5.162   9.930   3.540 -0.4685  3.3630 -0.9115
  687HK4    H2857625   9.626   6.987   4.612  2.3368  2.8639 -0.5182
  687HK4    C4857626   9.590   7.033   4.704 -0.2435 -0.3762  0.1467
  687HK4    C4757627   9.471   7.106   4.706 -0.0189 -0.0010 -0.3418
  687HK4    H2757628   9.418   7.147   4.619 -1.3015 -1.2435 -0.1571
  687HK4    C4657629   9.408   7.131   4.827  0.5381  0.3477 -0.1188
  687HK4    H2657630   9.302   7.160   4.822  0.5409  0.8000  1.7974
  687HK4    C4057631   9.472   7.102   4.950  0.0622 -0.2531 -0.0058
  687HK4    C5057632   9.603   7.052   4.937  0.1437 -0.0943  0.1851
  687HK4    H3057633   9.657   7.022   5.028  2.8705  1.7942 -0.7592
  687HK4    C4957634   9.666   7.013   4.819 -0.2757 -0.6109  0.1292
  687HK4    H2957635   9.772   6.986   4.815  0.3313  1.6529  0.0384
  687HK4     N257636   9.397   7.067   5.062 -0.2157  0.4133  0.0204
  687HK4    C3057637   9.264   7.018   5.063  0.0551 -0.3436 -0.2986
  687HK4    C2957638   9.185   6.956   4.968 -0.1415 -0.2398 -0.2039
  687HK4    H1557639   9.231   6.918   4.877 -0.7947 -3.5025  0.7470
  687HK4    C2857640   9.050   6.923   4.983 -0.1696  0.1178  0.3401
  687HK4    C2757641   8.996   6.945   5.111 -0.1099  0.6626  0.2699
  687HK4    H1457642   8.896   6.904   5.130  0.2756 -0.1239  0.6469
  687HK4    C3257643   9.067   7.010   5.212  0.3514  0.3854  0.1233
  687HK4    H1657644   9.009   7.050   5.295 -1.9238 -0.0468 -1.2126
  687HK4    C3157645   9.200   7.045   5.190  0.3318  0.2146 -0.2730
  687HK4    C3457646   9.297   7.110   5.276 -0.0253 -0.2469  0.4919
  687HK4    C3357647   9.415   7.115   5.193 -0.3075  0.1881  0.1167
  687HK4    C3557648   9.532   7.170   5.245 -0.5936  0.7586  0.1584
  687HK4    H1757649   9.610   7.200   5.176  0.7604  1.3318  1.9108
  687HK4    C3657650   9.534   7.222   5.374  0.0444 -0.6588  0.7170
  687HK4    H1857651   9.628   7.238   5.429  1.0944  0.8029 -1.4852
  687HK4    C3757652   9.420   7.218   5.454  0.0121 -0.7011  0.6682
  687HK4    H1957653   9.422   7.256   5.556  0.0786  1.5438 -0.1581
  687HK4    C3857654   9.302   7.163   5.405 -0.0653 -0.4612  0.5809
  687HK4    H2057655   9.208   7.177   5.457 -1.1009 -0.7430 -1.1745
  687HK4    C1457656   8.964   6.902   4.866  0.2144  0.4812 -0.0071
  687HK4     C957657   8.825   6.918   4.864  0.1375 -0.1504 -0.0117
  687HK4     C857658   8.737   6.833   4.793 -0.2063 -0.0960  0.3529
  687HK4    C1157659   8.797   6.747   4.702  0.1372  0.8229 -0.2912
  687HK4     H457660   8.734   6.692   4.631  1.3472 -2.0472  0.8060
  687HK4    C1257661   8.936   6.732   4.696  0.0928  0.3391 -0.1379
  687HK4     H557662   8.970   6.676   4.608  4.2765  0.8804  1.0240
  687HK4    C1357663   9.019   6.805   4.780 -0.0054  0.5503 -0.2235
  687HK4     H657664   9.126   6.776   4.783  0.0485  0.6437 -1.0720
  687HK4     C757665   8.592   6.830   4.822 -0.4087 -0.0182 -0.6587
  687HK4     O257666   8.522   6.745   4.765 -0.3961 -0.2866 -0.2723
  687HK4     C457667   8.545   6.904   4.941 -0.1104  0.1170 -0.6286
  687HK4     C357668   8.422   6.865   4.991 -0.0421  0.1996 -0.3962
  687HK4     H357669   8.355   6.801   4.932  0.6243  0.9623 -2.0049
  687HK4     C257670   8.383   6.929   5.109 -0.1849  0.3337 -0.5137
  687HK4     H257671   8.282   6.904   5.145  0.7468 -0.5615  1.5879
  687HK4     C157672   8.457   7.029   5.171 -0.0348 -0.0853 -0.0118
  687HK4     H157673   8.420   7.087   5.256  0.5388  0.8345 -0.3836
  687HK4     C657674   8.576   7.076   5.111 -0.0190 -0.0732  0.0278
  687HK4     C557675   8.620   7.010   4.996 -0.4463  0.1758 -0.2795
  687HK4    C1057676   8.760   7.024   4.946 -0.6794  0.0815 -0.9540
  687HK4     O157677   8.804   7.139   4.942 -0.2498 -0.0348  0.4210
  687HK4    C1657678   8.650   7.173   5.194  0.6180 -0.2050 -0.3852
  687HK4    C1557679   8.655   7.168   5.335  0.0740  0.1519 -0.3552
  687HK4     H757680   8.668   7.067   5.377 -0.4795  0.3160  0.2161
  687HK4    C2057681   8.661   7.275   5.422  0.5681 -0.0029 -0.1997
  687HK4     H957682   8.679   7.266   5.529 -0.7521  1.0301  0.1334
  687HK4    C1957683   8.664   7.403   5.367 -0.1953  0.1381  0.0653
  687HK4    C1857684   8.673   7.416   5.223 -0.1584  0.0456  0.0587
  687HK4    C1757685   8.658   7.302   5.144 -0.3891  0.0476  0.1012
  687HK4     H857686   8.638   7.324   5.039  2.0434  0.9890 -0.1935
  687HK4     N157687   8.676   7.553   5.190  0.3162  0.0725  0.2085
  687HK4    C2157688   8.677   7.628   5.309  0.3877  0.0631  0.2141
  687HK4    C2257689   8.684   7.536   5.421  0.7092 -0.0204  0.1255
  687HK4    C2657690   8.728   7.582   5.545  0.4104 -0.1696  0.2867
  687HK4    H1357691   8.748   7.515   5.628  1.4101  2.0184  1.8780
  687HK4    C2557692   8.762   7.716   5.557 -0.8853  0.2038 -0.0767
  687HK4    H1257693   8.835   7.748   5.632  0.9885 -1.3692 -1.1783
  687HK4    C2457694   8.747   7.806   5.452  0.4425  0.0470 -0.4210
  687HK4    H1157695   8.779   7.910   5.467  0.8959 -0.1958  0.3168
  687HK4    C2357696   8.709   7.763   5.326 -0.3147  0.2879 -0.2799
  687HK4    H1057697   8.712   7.838   5.247  2.6896  2.0869  1.4927
  687HK4    C3957698   8.698   7.603   5.061  0.1484  0.3772  0.2966
  687HK4    C4157699   8.651   7.730   5.025 -0.3780  0.0155 -0.2973
  687HK4    H2157700   8.573   7.787   5.079 -0.3427  0.2094 -0.4510
  687HK4    C4257701   8.718   7.792   4.920  0.0131  0.0165 -0.0452
  687HK4    H2257702   8.689   7.885   4.870 -0.2692 -0.6423 -1.1335
  687HK4    C4357703   8.833   7.739   4.862  0.1380 -0.0506  0.2554
  687HK4    H2357704   8.887   7.798   4.788  0.7526 -2.0262 -0.9224
  687HK4    C4457705   8.873   7.609   4.888  0.4719  0.0447  0.2234
  687HK4    H2457706   8.970   7.571   4.854  0.2461 -2.4071  2.1070
  687HK4    C4557707   8.801   7.542   4.987  0.3002  0.5012  0.4038
  687HK4    H2557708   8.830   7.439   5.014 -1.3316  0.7651  3.3985
  688HK4    H2857709   1.023   3.971   0.475 -1.0438 -0.0256 -2.2138
  688HK4    C4857710   0.949   3.918   0.535 -0.0832  0.6386 -0.4162
  688HK4    C4757711   0.953   3.781   0.559 -0.3467  0.7157  0.0860
  688HK4    H2757712   1.038   3.714   0.542 -0.4057  0.0712  2.2789
  688HK4    C4657713   0.839   3.725   0.614  0.0510 -0.0917  0.0963
  688HK4    H2657714   0.846   3.616   0.621 -0.5530  0.0022  2.6248
  688HK4    C4057715   0.712   3.783   0.638 -0.0173 -0.2432  0.1032
  688HK4    C5057716   0.714   3.921   0.610 -0.1638 -0.2901 -0.1398
  688HK4    H3057717   0.616   3.971   0.613 -0.5709 -1.1725  1.8122
  688HK4    C4957718   0.831   3.983   0.569 -0.1530  0.0805  0.4407
  688HK4    H2957719   0.844   4.092   0.579 -0.5846 -0.0434  2.6000
  688HK4     N257720   0.594   3.709   0.633  0.1657 -0.5510  0.3247
  688HK4    C3057721   0.571   3.583   0.573 -0.0303 -0.3580 -0.0099
  688HK4    C2957722   0.642   3.526   0.469  0.1609 -0.1065 -0.0192
  688HK4    H1557723   0.746   3.554   0.453 -0.2669  1.5937  0.0997
  688HK4    C2857724   0.590   3.422   0.392  0.4575 -0.4590  0.2488
  688HK4    C2757725   0.466   3.368   0.433 -0.1957  0.5115 -0.3985
  688HK4    H1457726   0.419   3.286   0.377 -0.6308  1.6935 -1.7815
  688HK4    C3257727   0.396   3.422   0.541 -0.0148  0.3843 -0.2159
  688HK4    H1657728   0.308   3.378   0.586 -0.4344  0.8222 -0.6097
  688HK4    C3157729   0.439   3.535   0.609 -0.3899  0.5000 -0.1721
  688HK4    C3457730   0.378   3.637   0.693  0.3362  0.1666  0.7720
  688HK4    C3357731   0.476   3.743   0.704  0.5130  0.0170  0.6319
  688HK4    C3557732   0.437   3.860   0.768  0.6320  0.3658  0.0806
  688HK4    H1757733   0.513   3.936   0.787  0.1598  1.1158 -1.0308
  688HK4    C3657734   0.306   3.877   0.809  0.1854 -0.5423 -0.9414
  688HK4    H1857735   0.273   3.981   0.827  3.2433  0.1927  0.8405
  688HK4    C3757736   0.216   3.771   0.809  0.0223 -0.4230  0.6113
  688HK4    H1957737   0.110   3.777   0.834 -0.4113 -0.5618 -1.1321
  688HK4    C3857738   0.252   3.650   0.750 -0.1568 -0.0602 -0.2506
  688HK4    H2057739   0.189   3.563   0.767  0.7212 -0.6423  0.0367
  688HK4    C1457740   0.642   3.410   0.255  0.0506  0.3074  0.0197
  688HK4     C957741   0.555   3.366   0.155  0.1862  0.5239 -0.1951
  688HK4     C857742   0.606   3.286   0.050  0.3807  0.5370 -0.1101
  688HK4    C1157743   0.739   3.248   0.059  0.1991  0.0688  0.6739
  688HK4     H457744   0.782   3.184  11.228  0.7939 -0.7548  1.6595
  688HK4    C1257745   0.830   3.292   0.155  1.0382  0.0302 -0.0962
  688HK4     H557746   0.923   3.237   0.174  1.0037  0.3363  0.9683
  688HK4    C1357747   0.778   3.373   0.255 -0.1452 -0.4228 -0.3305
  688HK4     H657748   0.835   3.378   0.349 -1.6146 -1.0202  0.6017
  688HK4     C757749   0.524   3.227  11.190  0.3735 -0.0865  0.2323
  688HK4     O257750   0.576   3.194  11.084 -0.4046  0.0106 -0.1866
  688HK4     C457751   0.379   3.256  11.191  0.2856 -0.5474  0.7607
  688HK4     C357752   0.295   3.174  11.116 -0.0456  0.1235  0.3889
  688HK4     H357753   0.335   3.096  11.050  0.0158  0.1313  0.4157
  688HK4     C257754   0.157   3.184  11.126 -0.0888  0.2245 -0.2722
  688HK4     H257755   0.097   3.120  11.060  0.2966 -0.4706  0.0439
  688HK4     C157756   0.111   3.286  11.209  0.1723  0.4635 -0.4229
  688HK4     H157757   0.008   3.262  11.240 -0.2566  2.0312 -0.6323
  688HK4     C657758   0.188   3.384   0.026  0.0294  0.4239 -0.1891
  688HK4     C557759   0.325   3.355   0.028 -0.0227  0.1716 -0.2660
  688HK4    C1057760   0.416   3.414   0.130 -0.0412 -0.0745 -0.1064
  688HK4     O157761   0.398   3.528   0.173 -0.3498 -0.0657 -0.2584
  688HK4    C1657762   0.116   3.507   0.061 -0.3030  0.2684 -0.3207
  688HK4    C1557763  11.229   3.509   0.101 -0.2088  0.2936 -0.0026
  688HK4     H757764  11.187   3.415   0.139 -1.5924  1.0227  0.2809
  688HK4    C2057765  11.150   3.623   0.091 -0.5690  0.0596  0.2143
  688HK4     H957766  11.042   3.607   0.084 -0.6697 -0.0602  1.9154
  688HK4    C1957767  11.201   3.744   0.046 -0.0841 -0.0086  0.5864
  688HK4    C1857768   0.087   3.742  11.239 -0.3298  0.1760 -0.0235
  688HK4    C1757769   0.162   3.626   0.004  0.0034  0.4162  0.2277
  688HK4     H857770   0.267   3.625  11.222 -0.1124  0.4225 -0.1828
  688HK4     N157771   0.116   3.853  11.156  0.1535 -0.1219 -0.2546
  688HK4    C2157772  11.247   3.930  11.172  0.3581 -0.0121  0.7923
  688HK4    C2257773  11.152   3.878   0.020 -0.0442 -0.0331  0.3860
  688HK4    C2657774  11.034   3.945   0.050 -0.0937 -0.1893  0.5518
  688HK4    H1357775  10.968   3.913   0.131 -0.2605 -0.9029  0.1329
  688HK4    C2557776  11.008   4.059  11.223  0.7350 -0.5998 -0.3681
  688HK4    H1257777  10.914   4.112  11.236  0.9542 -0.6026  1.2615
  688HK4    C2457778  11.094   4.108  11.126  0.2733 -0.1202 -0.5427
  688HK4    H1157779  11.053   4.186  11.060 -2.6406 -1.2395 -0.1345
  688HK4    C2357780  11.212   4.042  11.096  0.2853 -0.4347  0.1975
  688HK4    H1057781   0.027   4.075  11.014  0.1334 -0.3370  0.1194
  688HK4    C3957782   0.245   3.893  11.120  0.1682 -0.1730 -0.2609
  688HK4    C4157783   0.257   3.974  11.006  0.2256 -0.2881 -0.3347
  688HK4    H2157784   0.189   3.959  10.920 -0.9804 -1.5821  0.8241
  688HK4    C4257785   0.378   4.039  10.982  0.0078  0.1063 -0.3687
  688HK4    H2257786   0.393   4.109  10.898 -0.7616 -0.9583 -1.4172
  688HK4    C4357787   0.485   4.023  11.068 -0.0007  0.0477 -0.3673
  688HK4    H2357788   0.573   4.085  11.051 -1.8315  2.1069 -2.7254
  688HK4    C4457789   0.469   3.942  11.180 -0.4030  0.1838 -0.3283
  688HK4    H2457790   0.552   3.929   0.003 -0.6199 -0.9464 -0.2655
  688HK4    C4557791   0.352   3.874  11.210 -0.0136 -0.3833 -0.0888
  688HK4    H2557792   0.331   3.834   0.063  0.2681 -1.8839 -0.6139
  689HK4    H2857793   7.929   6.748   2.136  0.3829 -0.5308 -0.3556
  689HK4    C4857794   7.844   6.743   2.204  0.1264  0.4799 -0.5876
  689HK4    C4757795   7.712   6.769   2.170 -0.1608 -0.0998  0.0754
  689HK4    H2757796   7.692   6.811   2.071 -1.1095  3.2295  1.6330
  689HK4    C4657797   7.610   6.771   2.264 -0.2935  0.5783 -0.0822
  689HK4    H2657798   7.512   6.812   2.234 -0.5414  0.2346  0.2403
  689HK4    C4057799   7.626   6.744   2.402 -0.1832  0.5963 -0.0912
  689HK4    C5057800   7.761   6.718   2.432 -0.1033  0.8001 -0.2715
  689HK4    H3057801   7.781   6.682   2.534 -0.2987 -1.6385 -1.0747
  689HK4    C4957802   7.865   6.721   2.340 -0.3533  0.1004 -0.5752
  689HK4    H2957803   7.967   6.690   2.366  0.2157  0.3664 -2.3955
  689HK4     N257804   7.522   6.722   2.493 -0.2527  0.5077 -0.1919
  689HK4    C3057805   7.390   6.676   2.474 -0.1008  0.1139 -0.3162
  689HK4    C2957806   7.319   6.638   2.360 -0.0020  0.1417 -0.3856
  689HK4    H1557807   7.362   6.670   2.265 -2.3381  1.8077 -0.9236
  689HK4    C2857808   7.194   6.579   2.350 -0.1825  0.5022 -0.3073
  689HK4    C2757809   7.145   6.552   2.479  0.0490 -0.0252 -0.3263
  689HK4    H1457810   7.060   6.484   2.498  1.8185 -2.2293 -0.1057
  689HK4    C3257811   7.200   6.600   2.598  0.0820 -0.4000 -0.1899
  689HK4    H1657812   7.145   6.595   2.692 -0.2291  1.9471 -0.2173
  689HK4    C3157813   7.326   6.657   2.603 -0.1192  0.0575 -0.3328
  689HK4    C3457814   7.417   6.707   2.704 -0.3281  0.3076 -0.2692
  689HK4    C3357815   7.534   6.750   2.631 -0.3271  0.4663 -0.1774
  689HK4    C3557816   7.623   6.831   2.701  0.3297 -0.4616  0.0687
  689HK4    H1757817   7.702   6.888   2.651 -0.8955  2.8274  1.7716
  689HK4    C3657818   7.596   6.856   2.835 -0.1135 -0.1551 -0.0772
  689HK4    H1857819   7.666   6.925   2.884 -0.7030  0.2700  0.1785
  689HK4    C3757820   7.487   6.811   2.908 -0.4383  0.1735 -0.3557
  689HK4    H1957821   7.490   6.813   3.017  1.2390  1.9310 -0.4203
  689HK4    C3857822   7.395   6.732   2.840 -0.1320 -0.3973 -0.1100
  689HK4    H2057823   7.317   6.689   2.903 -0.4422 -0.4789 -0.5458
  689HK4    C1457824   7.108   6.575   2.231 -0.3482  0.6357 -0.1927
  689HK4     C957825   6.970   6.560   2.218 -0.2995  0.4755 -0.5075
  689HK4     C857826   6.917   6.498   2.102  0.0151 -0.0426 -0.3772
  689HK4    C1157827   6.994   6.465   1.992  0.2611 -0.9293  0.0596
  689HK4     H457828   6.959   6.434   1.892 -0.2582  0.0510 -0.0693
  689HK4    C1257829   7.130   6.492   1.999  0.1416 -0.3111  0.0420
  689HK4     H557830   7.195   6.446   1.923 -0.7954  0.5733 -1.2998
  689HK4    C1357831   7.183   6.549   2.114 -0.1601 -0.1568  0.1054
  689HK4     H657832   7.293   6.559   2.116 -0.0936 -0.7230 -0.5579
  689HK4     C757833   6.769   6.494   2.089 -0.0305  0.2305  0.0345
  689HK4     O257834   6.724   6.439   1.989  0.1203  0.3730 -0.1117
  689HK4     C457835   6.680   6.544   2.196 -0.0589 -0.8076  0.5022
  689HK4     C357836   6.542   6.539   2.184 -0.0392 -0.2968  0.0572
  689HK4     H357837   6.488   6.526   2.089  1.0391 -0.0663 -0.5960
  689HK4     C257838   6.456   6.559   2.291 -0.0847 -0.0886 -0.0169
  689HK4     H257839   6.346   6.555   2.287 -0.2263  2.8187  0.4901
  689HK4     C157840   6.517   6.578   2.415 -0.5306 -0.3276  0.2394
  689HK4     H157841   6.454   6.577   2.505 -2.3752  1.3904 -0.9861
  689HK4     C657842   6.655   6.595   2.434 -0.5165  0.1891 -0.3186
  689HK4     C557843   6.734   6.591   2.318  0.2034 -0.2582  0.1809
  689HK4    C1057844   6.881   6.611   2.326  0.1637  0.0907  0.0529
  689HK4     O157845   6.922   6.710   2.386  0.6200 -0.1050  0.0707
  689HK4    C1657846   6.695   6.579   2.575 -0.1544  0.1645 -0.4228
  689HK4    C1557847   6.627   6.480   2.649  0.2842  0.1338 -0.0580
  689HK4     H757848   6.612   6.388   2.589  1.3914 -0.3963  0.4720
  689HK4    C2057849   6.587   6.488   2.782 -0.4729 -0.1884 -0.2607
  689HK4     H957850   6.543   6.405   2.836 -0.0442 -1.1290 -1.3207
  689HK4    C1957851   6.623   6.603   2.851 -0.2313 -0.0902 -0.5487
  689HK4    C1857852   6.716   6.695   2.787  0.3610 -0.3931 -0.1239
  689HK4    C1757853   6.745   6.683   2.652 -0.3989  0.2254 -0.3439
  689HK4     H857854   6.822   6.745   2.606 -0.0998  1.2639  1.5191
  689HK4     N157855   6.737   6.803   2.875  0.5714 -0.5646  0.0385
  689HK4    C2157856   6.654   6.784   2.987 -0.5073  0.1287 -0.6375
  689HK4    C2257857   6.576   6.663   2.975  0.0176 -0.2341 -0.3849
  689HK4    C2657858   6.469   6.644   3.061  0.4808 -0.2617  0.1891
  689HK4    H1357859   6.407   6.555   3.058 -1.2209  0.9186 -0.6862
  689HK4    C2557860   6.446   6.733   3.166  0.0042  0.4017 -0.4642
  689HK4    H1257861   6.373   6.716   3.245 -2.8022  1.2211 -2.8355
  689HK4    C2457862   6.524   6.847   3.180  0.1689  0.2789 -0.3593
  689HK4    H1157863   6.480   6.923   3.247  2.4605 -0.4143  1.9899
  689HK4    C2357864   6.630   6.871   3.093  0.0073  0.1989 -0.5797
  689HK4    H1057865   6.705   6.945   3.123 -1.4103  0.5197  2.3438
  689HK4    C3957866   6.851   6.885   2.869  0.0759  0.0919 -0.4573
  689HK4    C4157867   6.854   7.007   2.940  0.0908 -0.3373  0.2846
  689HK4    H2157868   6.759   7.057   2.963  0.0920 -0.1586 -0.1136
  689HK4    C4257869   6.968   7.080   2.974 -0.2446  0.3463 -0.0580
  689HK4    H2257870   6.963   7.162   3.047  1.4634  0.1860  0.2517
  689HK4    C4357871   7.088   7.030   2.926 -0.3215  0.3188 -0.2214
  689HK4    H2357872   7.182   7.078   2.954  2.1284 -2.6898 -2.9642
  689HK4    C4457873   7.091   6.915   2.848 -0.0338  0.1722  0.0050
  689HK4    H2457874   7.190   6.872   2.826 -0.8530 -2.7134  1.6865
  689HK4    C4557875   6.976   6.840   2.823  0.2002 -0.2653  0.2201
  689HK4    H2557876   6.984   6.746   2.766  0.3852  0.7759 -1.5293
  690HK4    H2857877   7.741   1.779   8.450  0.0292  0.4701  1.0857
  690HK4    C4857878   7.701   1.724   8.535 -0.2360  0.3234  0.8681
  690HK4    C4757879   7.569   1.717   8.577 -0.5041  0.0872 -0.0052
  690HK4    H2757880   7.496   1.775   8.519 -1.1069 -0.6641 -0.0067
  690HK4    C4657881   7.542   1.648   8.695 -0.5587 -0.0115 -0.0747
  690HK4    H2657882   7.437   1.644   8.729 -0.6510 -2.1457 -0.5297
  690HK4    C4057883   7.639   1.589   8.778 -0.1888 -0.1027 -0.5695
  690HK4    C5057884   7.769   1.598   8.726  0.0960 -0.1859  0.1141
  690HK4    H3057885   7.846   1.535   8.772  1.1338  0.8093 -0.2115
  690HK4    C4957886   7.802   1.661   8.606 -0.0041 -0.2031  0.0795
  690HK4    H2957887   7.904   1.639   8.570  0.6421 -0.5582  2.0577
  690HK4     N257888   7.610   1.512   8.892  0.4354  0.4236 -0.0469
  690HK4    C3057889   7.480   1.482   8.937  0.3162  0.2745 -0.4904
  690HK4    C2957890   7.379   1.420   8.863 -0.1004  0.1250  0.1971
  690HK4    H1557891   7.370   1.419   8.754 -0.1250  2.7081  0.1449
  690HK4    C2857892   7.268   1.364   8.925  0.2224 -0.6914  0.0384
  690HK4    C2757893   7.252   1.372   9.065  0.2356  0.1131 -0.0040
  690HK4    H1457894   7.158   1.331   9.103 -0.0601 -0.1592 -0.9989
  690HK4    C3257895   7.355   1.425   9.142  0.1498  0.4896 -0.1476
  690HK4    H1657896   7.350   1.416   9.250 -1.8929  2.4555 -0.0440
  690HK4    C3157897   7.469   1.476   9.081  0.2171 -0.0763 -0.5087
  690HK4    C3457898   7.608   1.481   9.123 -0.0012  0.2270  0.1977
  690HK4    C3357899   7.691   1.503   9.006 -0.0021  0.6917  0.2874
  690HK4    C3557900   7.827   1.486   9.033  0.0543  0.1514 -0.3399
  690HK4    H1757901   7.905   1.495   8.957  1.3693  2.9476  1.2661
  690HK4    C3657902   7.880   1.457   9.158 -0.2530  0.0679 -0.2273
  690HK4    H1857903   7.989   1.445   9.163 -0.1044  1.7127  0.7371
  690HK4    C3757904   7.797   1.436   9.268 -0.2281  0.0601 -0.2102
  690HK4    H1957905   7.835   1.398   9.362 -1.5431 -1.1003 -0.1379
  690HK4    C3857906   7.661   1.452   9.248 -0.3031  0.0326  0.2828
  690HK4    H2057907   7.587   1.455   9.328 -0.5267 -0.4990  0.0966
  690HK4    C1457908   7.171   1.286   8.847 -0.4484  0.4604 -0.2966
  690HK4     C957909   7.038   1.259   8.882 -0.1318 -0.1890  0.4314
  690HK4     C857910   6.980   1.132   8.863  0.0979 -0.1934 -0.2919
  690HK4    C1157911   7.053   1.034   8.797  0.1409 -0.1175 -0.3567
  690HK4     H457912   7.009   0.935   8.779 -0.9770  0.3279 -0.1228
  690HK4    C1257913   7.179   1.057   8.744  0.5801 -0.0978  0.7034
  690HK4     H557914   7.239   0.986   8.685  0.2677 -0.7156  1.1249
  690HK4    C1357915   7.235   1.180   8.778 -0.0084  0.2398  0.4461
  690HK4     H657916   7.341   1.195   8.754 -0.9256  1.6862 -3.0596
  690HK4     C757917   6.840   1.116   8.908  0.2524 -0.1063  0.2244
  690HK4     O257918   6.781   1.010   8.885  0.5423 -0.3146  0.4293
  690HK4     C457919   6.768   1.228   8.973 -0.4693 -0.4281 -0.0158
  690HK4     C357920   6.649   1.203   9.040 -0.1198 -0.5660  0.5442
  690HK4     H357921   6.627   1.103   9.082 -0.2584 -0.1989  1.3632
  690HK4     C257922   6.557   1.306   9.054  0.2610 -0.1659  0.0768
  690HK4     H257923   6.461   1.299   9.107  1.7102 -0.1014  2.7918
  690HK4     C157924   6.579   1.424   8.983  0.2134  0.2560  0.7578
  690HK4     H157925   6.502   1.502   8.989 -0.0637 -0.0315  0.9439
  690HK4     C657926   6.697   1.448   8.909  0.0471 -0.2254  0.3257
  690HK4     C557927   6.801   1.356   8.924 -0.0706 -0.3307  0.5028
  690HK4    C1057928   6.946   1.375   8.897 -0.1052 -0.1677  0.4359
  690HK4     O157929   6.989   1.491   8.894 -0.2178 -0.1286  0.3477
  690HK4    C1657930   6.681   1.544   8.799 -0.1740  0.0680  0.6142
  690HK4    C1557931   6.553   1.559   8.741  0.2130  0.0359 -0.2449
  690HK4     H757932   6.492   1.471   8.719  0.4488  0.2256 -1.7366
  690HK4    C2057933   6.510   1.677   8.681 -0.3781  0.0167  0.1478
  690HK4     H957934   6.403   1.697   8.679 -0.5837 -1.0089  0.6268
  690HK4    C1957935   6.595   1.786   8.670  0.2709 -0.4924  0.1277
  690HK4    C1857936   6.732   1.769   8.716  0.2677 -0.0995  0.2928
  690HK4    C1757937   6.763   1.656   8.790  0.0642 -0.1295  0.3326
  690HK4     H857938   6.839   1.678   8.865  1.2328  1.7877 -1.3779
  690HK4     N157939   6.814   1.880   8.688  0.0160  0.0158  0.0067
  690HK4    C2157940   6.729   1.973   8.625  0.0298 -0.0018 -0.0384
  690HK4    C2257941   6.593   1.922   8.620  0.2124 -0.5079  0.0859
  690HK4    C2657942   6.496   1.999   8.556  0.7491  0.0209 -0.1043
  690HK4    H1357943   6.395   1.978   8.590  1.5472 -1.6774  1.3386
  690HK4    C2557944   6.522   2.119   8.491  0.2795  0.1841  0.0085
  690HK4    H1257945   6.439   2.176   8.449  1.1101  1.4539  0.0809
  690HK4    C2457946   6.653   2.163   8.498  0.1396  0.6091 -0.0415
  690HK4    H1157947   6.689   2.227   8.416  1.8953 -1.7759 -1.2114
  690HK4    C2357948   6.757   2.089   8.553 -0.2614  0.1687  0.1235
  690HK4    H1057949   6.862   2.113   8.537  0.7559 -2.7621  1.9069
  690HK4    C3957950   6.954   1.878   8.693  0.0032 -0.5607  0.2028
  690HK4    C4157951   7.032   1.995   8.697  0.3312 -0.7681 -0.0853
  690HK4    H2157952   6.982   2.090   8.723 -0.6081 -0.4145 -3.0219
  690HK4    C4257953   7.171   2.008   8.693  0.2324  0.4741  0.1654
  690HK4    H2257954   7.226   2.102   8.708  0.7457 -0.1962  2.7328
  690HK4    C4357955   7.242   1.889   8.685 -0.1476  0.2065  0.7155
  690HK4    H2357956   7.350   1.890   8.701 -0.4136  1.3361  2.4978
  690HK4    C4457957   7.170   1.770   8.676  0.6555 -0.1902 -0.5495
  690HK4    H2457958   7.224   1.675   8.683  1.9392  0.5711  0.0185
  690HK4    C4557959   7.031   1.762   8.673  0.6423 -0.0432 -0.3515
  690HK4    H2557960   6.990   1.660   8.665  0.1913 -0.0420  1.6993
  691HK4    H2857961  10.612   1.541   7.973 -0.3685  1.4227 -0.1102
  691HK4    C4857962  10.642   1.563   8.076  0.3720  0.4408 -0.1094
  691HK4    C4757963  10.580   1.482   8.171  0.3531 -0.0630 -0.5446
  691HK4    H2757964  10.501   1.417   8.132 -0.5976  1.2304 -0.8150
  691HK4    C4657965  10.608   1.494   8.307  0.5098 -0.3700 -0.5543
  691HK4    H2657966  10.570   1.419   8.378  0.6351 -1.2242 -1.3779
  691HK4    C4057967  10.698   1.593   8.353 -0.2314  0.0649 -0.0228
  691HK4    C5057968  10.747   1.680   8.254  0.1585 -0.3358 -0.1862
  691HK4    H3057969  10.788   1.777   8.286  3.6750 -1.3169 -1.4857
  691HK4    C4957970  10.721   1.669   8.118  0.6037  0.3568 -0.3338
  691HK4    H2957971  10.774   1.733   8.046 -1.0570  1.9465 -0.1740
  691HK4     N257972  10.728   1.611   8.488  0.2405 -0.3816 -0.0645
  691HK4    C3057973  10.641   1.583   8.595 -0.1099  0.6507 -0.0676
  691HK4    C2957974  10.503   1.567   8.599 -0.0315 -0.0923 -0.2329
  691HK4    H1557975  10.455   1.557   8.502  0.7821 -0.4021 -0.6101
  691HK4    C2857976  10.431   1.548   8.716  0.2905 -0.4460 -0.0889
  691HK4    C2757977  10.508   1.531   8.833 -0.3139 -0.0824  0.3688
  691HK4    H1457978  10.456   1.511   8.928  1.7569  1.6810  1.9041
  691HK4    C3257979  10.647   1.537   8.833 -0.3097 -0.1301 -0.1067
  691HK4    H1657980  10.707   1.532   8.924  0.8034 -0.9988 -0.8656
  691HK4    C3157981  10.718   1.569   8.718 -0.0774 -1.2923 -0.2952
  691HK4    C3457982  10.855   1.602   8.685 -0.3509  0.2640  0.0744
  691HK4    C3357983  10.858   1.622   8.542  0.2527 -0.6462 -0.0409
  691HK4    C3557984  10.980   1.633   8.476  0.0915  0.6254 -0.1375
  691HK4    H1757985  10.987   1.632   8.367 -0.9652 -2.2796 -0.2118
  691HK4    C3657986  11.096   1.639   8.553 -0.0355  0.8772  0.0360
  691HK4    H1857987  11.195   1.640   8.505  0.7642 -1.8812  1.5193
  691HK4    C3757988  11.090   1.628   8.691 -0.3910  0.4077 -0.0174
  691HK4    H1957989  11.180   1.647   8.749  0.2711  0.6689 -1.1155
  691HK4    C3857990  10.972   1.604   8.761 -0.3210  0.1697  0.0277
  691HK4    H2057991  10.964   1.579   8.866 -0.9862  0.8159  0.1344
  691HK4    C1457992  10.286   1.569   8.733  0.4292  0.1523  0.3717
  691HK4     C957993  10.222   1.612   8.850 -0.0034 -0.2526  0.2832
  691HK4     C857994  10.090   1.576   8.883 -0.0398 -0.2432  0.1522
  691HK4    C1157995  10.022   1.505   8.785 -0.3767  0.0551  0.1694
  691HK4     H457996   9.919   1.471   8.803 -0.4582  0.4013  0.3571
  691HK4    C1257997  10.073   1.466   8.662  0.1359 -0.3627  0.5068
  691HK4     H557998   9.995   1.452   8.585  0.5652 -0.7958  0.1401
  691HK4    C1357999  10.205   1.503   8.639  0.1938 -0.3323  0.9055
  691HK4     H658000  10.252   1.484   8.541 -1.0622  0.7844  0.0622
  691HK4     C758001  10.038   1.598   9.020  0.3102 -0.1151  0.2662
  691HK4     O258002   9.936   1.541   9.058  0.2479 -0.1098  0.1007
  691HK4     C458003  10.127   1.655   9.123  0.2029  0.2787  0.1458
  691HK4     C358004  10.079   1.672   9.252  0.3576 -0.4722  0.3074
  691HK4     H358005   9.989   1.617   9.284 -1.8105  1.2553 -2.6717
  691HK4     C258006  10.145   1.751   9.346  0.2460 -0.3479  0.2800
  691HK4     H258007  10.089   1.792   9.431  0.6121  0.5208  0.1092
  691HK4     C158008  10.263   1.811   9.305  0.1027 -0.3041 -0.0678
  691HK4     H158009  10.324   1.866   9.378  0.4601 -0.6540 -0.1060
  691HK4     C658010  10.325   1.785   9.181  0.2551  0.2350 -0.1037
  691HK4     C558011  10.247   1.718   9.086  0.5033 -0.3188  0.0790
  691HK4    C1058012  10.287   1.709   8.943  0.3546 -0.2517  0.0355
  691HK4     O158013  10.335   1.807   8.885 -0.3034 -0.0105 -0.1009
  691HK4    C1658014  10.470   1.759   9.180  0.2462  0.1316  0.7765
  691HK4    C1558015  10.533   1.684   9.281 -0.0481 -0.2564  0.6748
  691HK4     H758016  10.466   1.615   9.335 -0.2314 -0.7289 -0.1590
  691HK4    C2058017  10.670   1.681   9.304  0.1388 -0.1486 -0.4245
  691HK4     H958018  10.710   1.622   9.387 -0.5275 -0.1468 -0.0956
  691HK4    C1958019  10.759   1.743   9.217  0.0631  0.1582 -0.2832
  691HK4    C1858020  10.700   1.824   9.112 -0.3191 -0.5124 -0.5870
  691HK4    C1758021  10.561   1.829   9.102 -0.3278 -0.3469 -0.3373
  691HK4     H858022  10.525   1.904   9.031 -2.3012 -0.6641  0.3002
  691HK4     N158023  10.801   1.865   9.022  0.0703  0.2479  0.1900
  691HK4    C2158024  10.924   1.816   9.070 -0.0099 -0.6123 -0.4805
  691HK4    C2258025  10.901   1.737   9.189  0.1334  0.1621  0.0655
  691HK4    C2658026  11.009   1.684   9.258  0.3001  0.3568 -0.0480
  691HK4    H1358027  10.989   1.637   9.354 -1.2927  0.8564 -0.1198
  691HK4    C2558028  11.138   1.704   9.208  0.2312 -0.3095 -0.4957
  691HK4    H1258029  11.228   1.669   9.258 -0.5743  1.3609  2.2270
  691HK4    C2458030  11.160   1.767   9.087  0.6024  0.2511 -0.1385
  691HK4    H1158031   0.013   1.764   9.043 -0.1382 -0.5593 -1.8485
  691HK4    C2358032  11.053   1.825   9.019  0.1683 -0.3519  0.0199
  691HK4    H1058033  11.072   1.860   8.918  1.7707 -0.6090  0.2150
  691HK4    C3958034  10.775   1.940   8.907  0.0217 -0.0891 -0.0185
  691HK4    C4158035  10.860   2.038   8.853 -0.0148 -0.2637 -0.3915
  691HK4    H2158036  10.936   2.079   8.921  0.2988  0.4653 -1.1753
  691HK4    C4258037  10.851   2.088   8.724  0.4337 -0.1149 -0.3649
  691HK4    H2258038  10.903   2.180   8.694  2.1060 -0.6865  0.6819
  691HK4    C4358039  10.765   2.026   8.633  0.1879 -0.0207 -0.2016
  691HK4    H2358040  10.756   2.054   8.528  2.1644  2.0517  0.1314
  691HK4    C4458041  10.674   1.934   8.683 -0.0295  0.0629 -0.4511
  691HK4    H2458042  10.598   1.882   8.623  0.3320 -4.7461  2.9575
  691HK4    C4558043  10.677   1.894   8.816  0.2816  0.1643 -0.4261
  691HK4    H2558044  10.601   1.823   8.852  0.2864  1.1037  1.4440
  692HK4    H2858045   7.862   3.492   9.977  1.2355  3.6809  0.6455
  692HK4    C4858046   7.955   3.451  10.016  0.1495  0.1362 -0.3004
  692HK4    C4758047   7.997   3.501  10.138 -0.0094  0.0872 -0.2257
  692HK4    H2758048   7.947   3.595  10.167 -0.5758 -0.2351 -0.1464
  692HK4    C4658049   8.111   3.444  10.194 -0.2711 -0.2965 -0.0808
  692HK4    H2658050   8.149   3.492  10.285  1.6055  3.0700 -2.5320
  692HK4    C4058051   8.190   3.347  10.128 -0.3998 -0.6503  0.2823
  692HK4    C5058052   8.151   3.313   9.997  0.3856  0.2875 -0.2121
  692HK4    H3058053   8.221   3.253   9.937  1.2342  0.3016  0.7622
  692HK4    C4958054   8.030   3.357   9.945  0.0648 -0.2279  0.0905
  692HK4    H2958055   7.984   3.299   9.863 -0.0766  1.6265 -1.1834
  692HK4     N258056   8.316   3.312  10.178 -0.2493  0.2074  0.5105
  692HK4    C3058057   8.396   3.392  10.263 -0.1929 -0.0978  0.7436
  692HK4    C2958058   8.409   3.530  10.266 -0.1669 -0.0808 -0.1655
  692HK4    H1558059   8.329   3.580  10.212  0.2065 -1.1696 -1.8062
  692HK4    C2858060   8.513   3.599  10.327 -0.1315 -0.3628  0.0887
  692HK4    C2758061   8.616   3.525  10.388 -0.0062 -0.2512  0.0167
  692HK4    H1458062   8.697   3.568  10.450  0.0701  0.3399 -0.4876
  692HK4    C3258063   8.609   3.386  10.382 -0.2742 -0.2774  0.8042
  692HK4    H1658064   8.701   3.329  10.386 -0.1965 -0.2250  0.0032
  692HK4    C3158065   8.499   3.317  10.333  0.2272 -0.3947 -0.1763
  692HK4    C3458066   8.482   3.181  10.284  0.2041 -0.3000 -0.4323
  692HK4    C3358067   8.379   3.186  10.183  0.0626  0.3319 -0.2607
  692HK4    C3558068   8.360   3.070  10.109  0.1689  0.0088  0.2186
  692HK4    H1758069   8.269   3.060  10.049 -1.1881  2.1172  1.8560
  692HK4    C3658070   8.424   2.951  10.142 -0.9767 -0.6613  0.0388
  692HK4    H1858071   8.396   2.863  10.082  1.0089 -1.6665  0.5549
  692HK4    C3758072   8.517   2.947  10.245 -0.7042 -0.0908 -0.1802
  692HK4    H1958073   8.576   2.860  10.273  1.2237  0.9458 -0.9674
  692HK4    C3858074   8.547   3.062  10.316  0.1689 -0.2743 -0.2530
  692HK4    H2058075   8.639   3.076  10.373  0.4818 -0.6696 -0.6634
  692HK4    C1458076   8.532   3.744  10.313 -0.0222 -0.3145  0.7019
  692HK4     C958077   8.656   3.808  10.320 -0.2765  0.3772 -0.8213
  692HK4     C858078   8.672   3.940  10.366  0.3552  0.0793 -0.1673
  692HK4    C1158079   8.555   4.010  10.393  0.0430 -0.1127 -1.0007
  692HK4     H458080   8.566   4.113  10.429 -0.0334 -1.3082  2.6974
  692HK4    C1258081   8.428   3.955  10.382 -0.1556  0.2176 -0.3777
  692HK4     H558082   8.334   4.004  10.414 -0.7109 -1.1842  0.1890
  692HK4    C1358083   8.418   3.823  10.338  0.0843  0.1468 -0.2208
  692HK4     H658084   8.315   3.786  10.324 -0.2082 -0.0875  2.3667
  692HK4     C758085   8.808   3.989  10.395  0.3093 -0.0088  0.1989
  692HK4     O258086   8.822   4.111  10.408  0.1198  0.0942 -0.5346
  692HK4     C458087   8.927   3.904  10.373 -0.2280 -0.5480 -0.6184
  692HK4     C358088   9.050   3.958  10.411 -0.2360 -0.6303 -0.4775
  692HK4     H358089   9.061   4.067  10.407 -2.4213 -0.3619 -0.0916
  692HK4     C258090   9.159   3.872  10.415 -0.0048 -0.3162 -0.0088
  692HK4     H258091   9.256   3.902  10.457  0.1755  0.4778 -0.9637
  692HK4     C158092   9.144   3.738  10.381  0.2407 -0.3905  0.1740
  692HK4     H158093   9.234   3.675  10.379  1.7146  1.6985 -0.2826
  692HK4     C658094   9.022   3.682  10.337  0.3653 -0.0997 -0.5585
  692HK4     C558095   8.917   3.773  10.322 -0.0336 -0.5673 -0.6100
  692HK4    C1058096   8.780   3.735  10.279 -0.3802 -0.5455  0.4808
  692HK4     O158097   8.779   3.685  10.166 -0.0022  0.1042  0.1892
  692HK4    C1658098   9.011   3.537  10.360 -0.0758  0.0704  0.2943
  692HK4    C1558099   9.063   3.476  10.476  0.4953 -0.3210 -0.1709
  692HK4     H758100   9.132   3.523  10.548 -1.3671  2.5301 -0.2253
  692HK4    C2058101   9.040   3.340  10.498 -0.0290 -0.2043  0.0024
  692HK4     H958102   9.101   3.308  10.583 -0.6719  3.4708  1.9478
  692HK4    C1958103   8.968   3.259  10.412 -0.3661  0.2529 -0.1515
  692HK4    C1858104   8.936   3.318  10.284  0.0844  0.1446 -0.3196
  692HK4    C1758105   8.954   3.455  10.264  0.0037  0.2195  0.1220
  692HK4     H858106   8.940   3.495  10.163  0.5118 -2.2026 -0.9628
  692HK4     N158107   8.894   3.220  10.191  0.0110 -0.0830 -0.0454
  692HK4    C2158108   8.902   3.100  10.263 -0.1091  0.0332  0.1591
  692HK4    C2258109   8.948   3.116  10.400 -0.3799  0.2236  0.2280
  692HK4    C2658110   8.930   3.020  10.499  0.4871 -0.1926 -0.0090
  692HK4    H1358111   8.938   3.047  10.604 -0.0995  1.6292 -0.4146
  692HK4    C2558112   8.881   2.898  10.454 -0.0916  0.0598 -0.0699
  692HK4    H1258113   8.857   2.816  10.521  1.1073  0.6669  1.1174
  692HK4    C2458114   8.850   2.875  10.320 -0.2732 -0.0259 -0.0153
  692HK4    H1158115   8.833   2.774  10.280 -1.6379  0.7310 -1.3874
  692HK4    C2358116   8.849   2.977  10.226  0.1272 -0.0172 -0.0139
  692HK4    H1058117   8.766   2.968  10.156 -1.4902  0.3300  1.7989
  692HK4    C3958118   8.822   3.255  10.076 -0.8104 -0.2622  0.4185
  692HK4    C4158119   8.829   3.162   9.970 -0.7965  0.3130 -0.0906
  692HK4    H2158120   8.910   3.089   9.963  0.8770  1.9918  1.2964
  692HK4    C4258121   8.750   3.174   9.857  0.0763  0.1585 -0.7166
  692HK4    H2258122   8.759   3.106   9.770  1.7574  0.4492 -0.7808
  692HK4    C4358123   8.660   3.280   9.851 -0.1100  0.0324 -0.1458
  692HK4    H2358124   8.608   3.299   9.758  1.4034  3.6537 -0.3341
  692HK4    C4458125   8.654   3.375   9.952 -0.4488  0.2317 -0.3545
  692HK4    H2458126   8.573   3.448   9.942  0.0148  0.3172 -4.0440
  692HK4    C4558127   8.731   3.362  10.068 -0.5937 -0.1322 -0.2982
  692HK4    H2558128   8.720   3.432  10.152 -0.4667  0.5666 -0.8549
  693HK4    H2858129   6.135  11.044   2.577 -0.4215 -0.2114  1.2180
  693HK4    C4858130   6.030  11.071   2.568 -0.2657 -0.0300 -0.2656
  693HK4    C4758131   5.955  11.094   2.683 -0.3147 -1.0399 -0.0861
  693HK4    H2758132   6.015  11.104   2.775  0.9588 -1.8540 -0.8194
  693HK4    C4658133   5.826  11.143   2.671  0.0402 -0.0064  0.2068
  693HK4    H2658134   5.772  11.147   2.767 -1.4665 -0.0428 -0.6140
  693HK4    C4058135   5.766  11.167   2.546  0.5770 -0.0564 -0.0623
  693HK4    C5058136   5.847  11.148   2.432 -0.4204 -0.0260 -0.7829
  693HK4    H3058137   5.820  11.204   2.342  0.6409  1.5370 -0.1523
  693HK4    C4958138   5.973  11.091   2.443 -0.3807  0.1718 -0.1801
  693HK4    H2958139   6.012  11.025   2.365  1.4179  3.9795 -2.6403
  693HK4     N258140   5.633  11.214   2.545  0.6218  0.0723 -0.0750
  693HK4    C3058141   5.552  11.182   2.434  0.1851  0.0442  0.2564
  693HK4    C2958142   5.541  11.065   2.360  0.0619  0.4442 -0.3556
  693HK4    H1558143   5.629  11.001   2.361 -1.1544 -1.2588  2.0168
  693HK4    C2858144   5.448  11.048   2.258 -0.2197  0.0141 -0.0268
  693HK4    C2758145   5.371  11.163   2.230 -0.1017 -0.0046 -0.4212
  693HK4    H1458146   5.298  11.157   2.149 -0.2913  1.5230 -0.3857
  693HK4    C3258147   5.373   0.034   2.302 -0.0385 -0.0814 -0.2960
  693HK4    H1658148   5.309   0.118   2.274  0.5799 -0.0908 -1.7878
  693HK4    C3158149   5.464   0.046   2.407 -0.2350 -0.3662 -0.0929
  693HK4    C3458150   5.478   0.138   2.518 -0.0692 -0.5489  0.0379
  693HK4    C3358151   5.580   0.081   2.605 -0.0116 -0.3197  0.1212
  693HK4    C3558152   5.602   0.124   2.735  0.0795 -0.2160  0.0724
  693HK4    H1758153   5.666   0.090   2.816  1.1550  3.1656  0.6881
  693HK4    C3658154   5.521   0.224   2.786  0.0732 -0.1935  0.0197
  693HK4    H1858155   5.532   0.260   2.889 -2.2918 -1.1516  0.6392
  693HK4    C3758156   5.417   0.274   2.707  0.5945  0.6246 -0.1540
  693HK4    H1958157   5.350   0.350   2.746 -0.8196 -0.8171  0.2695
  693HK4    C3858158   5.392   0.231   2.577  0.1596 -0.5019  0.2963
  693HK4    H2058159   5.333   0.294   2.510  1.3310 -0.7792 -1.0315
  693HK4    C1458160   5.447  10.938   2.161  0.3161 -0.0511  0.0439
  693HK4     C958161   5.416  10.962   2.027 -0.0227  0.2090  0.1694
  693HK4     C858162   5.342  10.864   1.957  0.3216 -0.0793  0.2099
  693HK4    C1158163   5.319  10.741   2.019 -0.1522 -0.0534  0.0889
  693HK4     H458164   5.255  10.666   1.971 -2.5094  0.3878  2.4223
  693HK4    C1258165   5.355  10.712   2.150  0.1836  0.0547  0.0235
  693HK4     H558166   5.350  10.608   2.186  2.6169 -0.3208 -0.6758
  693HK4    C1358167   5.415  10.815   2.221 -0.1325  0.1315  0.1836
  693HK4     H658168   5.441  10.790   2.325  0.7008 -2.5270 -0.6188
  693HK4     C758169   5.295  10.891   1.820  0.2394  0.0285  0.2603
  693HK4     O258170   5.194  10.833   1.781  0.8425 -0.4385 -0.6153
  693HK4     C458171   5.355  11.000   1.739 -0.1937  0.0506 -0.0381
  693HK4     C358172   5.329  11.001   1.603  0.8016 -0.5096 -0.2391
  693HK4     H358173   5.257  10.933   1.555 -1.0332  0.4897  1.0382
  693HK4     C258174   5.389  11.101   1.528 -0.2190  0.2322 -0.0802
  693HK4     H258175   5.379  11.099   1.419  2.2752  0.6618 -0.3545
  693HK4     C158176   5.452  11.205   1.597 -0.4730  0.1584  0.2663
  693HK4     H158177   5.483   0.040   1.532 -2.3717 -0.4507 -1.4986
  693HK4     C658178   5.463  11.216   1.737  0.4055 -0.2350  0.2345
  693HK4     C558179   5.425  11.101   1.807 -0.0647 -0.1520  0.1261
  693HK4    C1058180   5.474  11.072   1.945 -0.1987  0.3944  0.2902
  693HK4     O158181   5.591  11.101   1.972 -0.0764  0.6623 -0.5117
  693HK4    C1658182   5.515   0.092   1.797  0.3105 -0.1282  0.0976
  693HK4    C1558183   5.462   0.138   1.920  0.2288 -0.3752  0.1565
  693HK4     H758184   5.358   0.113   1.944  1.2074 -2.5150  2.3034
  693HK4    C2058185   5.530   0.227   2.003  0.0300  0.1959 -0.2849
  693HK4     H958186   5.495   0.252   2.103  1.7834  0.3032  0.3173
  693HK4    C1958187   5.659   0.268   1.970  0.1264  0.0604 -0.0777
  693HK4    C1858188   5.721   0.213   1.851  0.0692 -0.9535  0.3536
  693HK4    C1758189   5.643   0.135   1.767  0.2733 -0.3564 -0.3896
  693HK4     H858190   5.688   0.083   1.682 -0.5562  1.2006 -1.8368
  693HK4     N158191   5.847   0.270   1.824 -0.3703  0.0027  0.2932
  693HK4    C2158192   5.864   0.371   1.920 -0.1037  0.6190 -0.3952
  693HK4    C2258193   5.750   0.374   2.009  0.1339  0.0503 -0.0708
  693HK4    C2658194   5.746   0.467   2.112 -0.3895 -0.0616  0.0141
  693HK4    H1358195   5.672   0.457   2.191  0.1769 -2.7676  0.2325
  693HK4    C2558196   5.850   0.557   2.135 -0.2123 -0.2245 -0.1647
  693HK4    H1258197   5.858   0.589   2.238 -1.4473  0.5160 -0.3001
  693HK4    C2458198   5.954   0.560   2.042  0.2719 -0.2251  0.3756
  693HK4    H1158199   6.003   0.657   2.026  1.1886 -0.8111 -0.4692
  693HK4    C2358200   5.965   0.466   1.941  0.1502  0.2900 -0.1184
  693HK4    H1058201   6.061   0.454   1.892  0.4935 -1.3813  0.9275
  693HK4    C3958202   5.945   0.200   1.753  0.3658  0.6476  0.6658
  693HK4    C4158203   5.950   0.059   1.742  0.3093  0.7113 -0.1969
  693HK4    H2158204   5.866   0.008   1.791  0.5148  0.2708 -0.3017
  693HK4    C4258205   6.035   0.011   1.643  0.2596 -0.1477  0.1778
  693HK4    H2258206   6.037  11.149   1.634  0.7879 -0.1143 -0.1095
  693HK4    C4358207   6.105   0.093   1.555 -0.1455 -0.1914 -0.1866
  693HK4    H2358208   6.164   0.048   1.475  1.6038 -0.6170  1.3285
  693HK4    C4458209   6.099   0.231   1.567  0.1635 -0.1987  0.0338
  693HK4    H2458210   6.145   0.287   1.484  0.9073  0.0708  0.6155
  693HK4    C4558211   6.018   0.284   1.666 -0.2435  0.0538 -0.4339
  693HK4    H2558212   6.019   0.393   1.683  3.0281  0.1001 -0.5858
  694HK4    H2858213   0.018   7.957   2.915 -0.2289  1.1463 -0.0370
  694HK4    C4858214  11.158   7.957   2.926 -0.2042  0.0935  0.2207
  694HK4    C4758215  11.094   8.000   3.042 -0.1008  0.1610  0.2508
  694HK4    H2758216  11.152   7.999   3.135  2.2439  0.9386 -1.1684
  694HK4    C4658217  10.956   8.011   3.047 -0.1122  0.4603 -0.6273
  694HK4    H2658218  10.908   8.049   3.138 -0.5330  1.8353 -1.3972
  694HK4    C4058219  10.876   7.972   2.937 -0.4471 -0.1592 -0.1633
  694HK4    C5058220  10.940   7.924   2.821 -0.2831 -0.3139 -0.0076
  694HK4    H3058221  10.894   7.913   2.721  1.4063 -3.3483 -0.5218
  694HK4    C4958222  11.079   7.919   2.818 -0.2566  0.1662  0.2373
  694HK4    H2958223  11.126   7.868   2.733 -0.9085 -0.3871  0.2031
  694HK4     N258224  10.751   8.030   2.915 -0.3025  0.2558  0.0986
  694HK4    C3058225  10.655   7.965   2.834  0.4637 -0.1674 -0.4825
  694HK4    C2958226  10.617   7.831   2.838 -0.0329 -0.0242 -0.2242
  694HK4    H1558227  10.639   7.776   2.929 -0.9505 -1.1840 -0.6861
  694HK4    C2858228  10.518   7.786   2.752 -0.2606  0.1480 -0.0501
  694HK4    C2758229  10.450   7.873   2.663 -0.4019  0.1827  0.0911
  694HK4    H1458230  10.383   7.838   2.583 -1.4951  1.0336  0.6211
  694HK4    C3258231  10.472   8.009   2.676 -0.0601  0.0907  0.5157
  694HK4    H1658232  10.413   8.074   2.611  1.1689  1.8572  1.1358
  694HK4    C3158233  10.574   8.058   2.757 -0.0209  0.1683  0.4229
  694HK4    C3458234  10.629   8.185   2.797 -0.0310  0.1908  0.3604
  694HK4    C3358235  10.734   8.168   2.896  0.0615  0.3259  0.2849
  694HK4    C3558236  10.809   8.277   2.939 -0.0620  0.3948  0.3295
  694HK4    H1758237  10.870   8.263   3.028  1.6836  1.3214 -0.6886
  694HK4    C3658238  10.793   8.405   2.886 -0.2197  0.1991 -0.0899
  694HK4    H1858239  10.839   8.492   2.934  0.7772  0.0449 -0.7402
  694HK4    C3758240  10.696   8.423   2.788  0.2100  0.3167 -0.5040
  694HK4    H1958241  10.682   8.525   2.752  0.2965  0.9027  1.0642
  694HK4    C3858242  10.616   8.316   2.751 -0.0359  0.1911  0.3643
  694HK4    H2058243  10.556   8.331   2.661 -0.2924 -0.7288  0.3703
  694HK4    C1458244  10.539   7.645   2.715 -0.4671  0.1536 -0.1902
  694HK4     C958245  10.580   7.607   2.587  0.1346 -0.2703  0.1294
  694HK4     C858246  10.523   7.493   2.526 -0.3470  0.1712 -0.2495
  694HK4    C1158247  10.437   7.407   2.593  0.0906 -0.1845 -0.1363
  694HK4     H458248  10.395   7.322   2.537 -1.2378  0.8739 -0.7614
  694HK4    C1258249  10.413   7.436   2.727  0.3684 -0.1162 -0.1011
  694HK4     H558250  10.344   7.374   2.786  1.3428 -1.2403 -0.1216
  694HK4    C1358251  10.462   7.551   2.786  0.6601 -0.4289  0.2706
  694HK4     H658252  10.420   7.577   2.885  0.4787  0.6877 -0.0879
  694HK4     C758253  10.577   7.442   2.398 -0.2038 -0.4284  0.0484
  694HK4     O258254  10.527   7.354   2.328 -0.6507  0.2045 -0.4420
  694HK4     C458255  10.703   7.499   2.346 -0.1434 -0.5096  0.1063
  694HK4     C358256  10.749   7.464   2.219 -0.5152  0.6710 -0.3554
  694HK4     H358257  10.677   7.404   2.161 -0.5229  0.0673  0.2822
  694HK4     C258258  10.878   7.494   2.177 -0.0662 -0.2129  0.3832
  694HK4     H258259  10.908   7.457   2.077  1.0550 -0.2119  0.7158
  694HK4     C158260  10.962   7.558   2.267 -0.0963  0.6985 -0.2305
  694HK4     H158261  11.068   7.535   2.249  0.0369  2.4340 -1.8153
  694HK4     C658262  10.917   7.603   2.393  0.2063  0.3481  0.0009
  694HK4     C558263  10.782   7.585   2.425  0.0905  0.0059 -0.6743
  694HK4    C1058264  10.711   7.656   2.535 -0.0218 -0.4506 -0.4494
  694HK4     O158265  10.746   7.773   2.554 -0.0272 -0.6141  0.6137
  694HK4    C1658266  11.025   7.645   2.484  0.4510 -0.4111  0.0680
  694HK4    C1558267  11.151   7.684   2.434  0.3789 -0.0555  0.1594
  694HK4     H758268  11.168   7.706   2.328  5.0921 -1.0676  0.5745
  694HK4    C2058269   0.014   7.686   2.519  0.4803  0.1453  0.0198
  694HK4     H958270   0.105   7.734   2.483 -0.1344 -0.5518 -2.6196
  694HK4    C1958271   0.004   7.642   2.650  0.2258  0.4923  0.1176
  694HK4    C1858272  11.124   7.598   2.703  0.0682  0.4547 -0.2852
  694HK4    C1758273  11.017   7.599   2.614 -0.3779  0.2028  0.2449
  694HK4     H858274  10.926   7.544   2.638  0.1979 -0.8054  0.1876
  694HK4     N158275  11.144   7.525   2.822 -0.0597  0.9803  0.0637
  694HK4    C2158276   0.031   7.546   2.858  0.3558 -0.7319 -0.4427
  694HK4    C2258277   0.101   7.621   2.756  0.0967  0.4200  0.2205
  694HK4    C2658278   0.228   7.672   2.778  0.2865  0.0753 -0.0753
  694HK4    H1358279   0.282   7.719   2.696  1.0565 -1.3665 -0.4108
  694HK4    C2558280   0.291   7.644   2.899 -0.4241  0.6619  0.4309
  694HK4    H1258281   0.382   7.701   2.918 -0.8189  1.5687 -0.3582
  694HK4    C2458282   0.226   7.573   2.999  0.0728 -0.2862  0.0832
  694HK4    H1158283   0.281   7.535   3.086 -1.8619 -1.9682  0.6019
  694HK4    C2358284   0.097   7.527   2.980 -0.1459  0.3582  0.0020
  694HK4    H1058285   0.062   7.457   3.055  0.4293  0.5647  0.4616
  694HK4    C3958286  11.049   7.493   2.919  0.0128 -0.6784 -0.3980
  694HK4    C4158287  11.058   7.383   3.007  0.2010 -0.3090  0.0433
  694HK4    H2158288  11.115   7.298   2.967 -2.0613 -1.2862 -1.2184
  694HK4    C4258289  10.998   7.382   3.133  0.1405 -0.0848  0.0181
  694HK4    H2258290  10.988   7.285   3.184  4.0795 -1.6547 -1.9569
  694HK4    C4358291  10.919   7.486   3.179  0.2066  0.0012 -0.0611
  694HK4    H2358292  10.884   7.489   3.282  2.2554  0.6924  0.6379
  694HK4    C4458293  10.900   7.593   3.093 -0.6617 -0.1697 -0.0807
  694HK4    H2458294  10.829   7.673   3.118 -0.6970 -0.5661  1.1249
  694HK4    C4558295  10.967   7.595   2.971  0.7188 -0.6536  0.6646
  694HK4    H2558296  10.929   7.673   2.903  3.5959 -1.0780 -1.5049
  695HK4    H2858297   6.490   2.865   0.071 -1.5593  0.4308 -3.4748
  695HK4    C4858298   6.531   2.779   0.018  0.3961 -0.2579 -0.9332
  695HK4    C4758299   6.443   2.679  11.226 -0.5074  0.1279  0.0619
  695HK4    H2758300   6.335   2.694  11.235 -0.7525 -0.6324 -1.3666
  695HK4    C4658301   6.498   2.557  11.186  0.3206  0.4885  0.0835
  695HK4    H2658302   6.441   2.498  11.112  0.8236 -0.3875  0.3966
  695HK4    C4058303   6.636   2.530  11.190  0.1526 -0.3721 -0.0046
  695HK4    C5058304   6.717   2.639  11.225 -0.0790  0.0435 -0.7441
  695HK4    H3058305   6.826   2.637  11.210  0.1924  1.9892  0.7767
  695HK4    C4958306   6.669   2.763   0.017  0.4303 -0.0709  0.2392
  695HK4    H2958307   6.736   2.838   0.063 -0.3367 -0.2154  1.6128
  695HK4     N258308   6.688   2.400  11.178  0.0172 -0.4630  0.3757
  695HK4    C3058309   6.818   2.370  11.133 -0.0520 -0.3045  0.0670
  695HK4    C2958310   6.910   2.441  11.055 -0.2610  0.1915  0.2675
  695HK4    H1558311   6.873   2.522  10.993 -0.6805  0.6627  1.1245
  695HK4    C2858312   7.035   2.391  11.019 -0.1221  0.3358  0.5484
  695HK4    C2758313   7.068   2.258  11.048  0.2368  0.3767  0.3254
  695HK4    H1458314   7.165   2.206  11.034  0.0485 -0.0315  0.5199
  695HK4    C3258315   6.973   2.180  11.113  0.1293 -0.1760 -0.4929
  695HK4    H1658316   7.000   2.080  11.147 -4.0188 -1.6048 -1.1820
  695HK4    C3158317   6.853   2.232  11.159  0.3950 -0.1681  0.2101
  695HK4    C3458318   6.746   2.178  11.241 -0.0963 -0.4988 -0.6271
  695HK4    C3358319   6.647   2.284  11.247 -0.2966 -0.7078 -0.2138
  695HK4    C3558320   6.534   2.260   0.076 -0.4503 -0.2582 -0.2960
  695HK4    H1758321   6.461   2.340   0.091  1.0668  0.8305  1.5041
  695HK4    C3658322   6.510   2.133   0.127  0.3115 -0.3747 -0.2285
  695HK4    H1858323   6.408   2.103   0.152  0.1611 -1.4425 -2.0286
  695HK4    C3758324   6.604   2.031   0.120  0.3173 -0.3852  0.0260
  695HK4    H1958325   6.600   1.958   0.201 -1.1615 -0.1857  0.1510
  695HK4    C3858326   6.723   2.055   0.053  0.3388 -0.2242  0.1186
  695HK4    H2058327   6.799   1.977   0.040 -1.8133 -1.9554 -2.5438
  695HK4    C1458328   7.114   2.470  10.924  0.2271 -0.0714  0.5017
  695HK4     C958329   7.205   2.429  10.826 -0.0079  0.3430  0.1081
  695HK4     C858330   7.290   2.522  10.762 -0.0597 -0.0406 -0.5304
  695HK4    C1158331   7.265   2.657  10.784  0.3412 -0.0663  0.1096
  695HK4     H458332   7.295   2.729  10.706 -0.7932  0.1938 -0.0968
  695HK4    C1258333   7.186   2.704  10.888  0.2144 -0.0336 -0.0023
  695HK4     H558334   7.191   2.806  10.928 -1.7932 -0.2187  0.7620
  695HK4    C1358335   7.117   2.607  10.960  0.0696  0.0672 -0.0048
  695HK4     H658336   7.080   2.641  11.058  3.1989  4.1779 -0.1412
  695HK4     C758337   7.425   2.472  10.730 -0.0217 -0.1530 -0.1880
  695HK4     O258338   7.493   2.545  10.659 -0.1222  0.0626 -0.0606
  695HK4     C458339   7.460   2.328  10.739  0.2464 -0.0972 -0.3240
  695HK4     C358340   7.593   2.289  10.731  0.2100 -0.5036  0.9558
  695HK4     H358341   7.676   2.361  10.725  1.1771 -1.2139  4.7428
  695HK4     C258342   7.618   2.153  10.719  0.1933 -0.4577  0.3496
  695HK4     H258343   7.719   2.110  10.732  0.2803 -0.5186 -0.5076
  695HK4     C158344   7.511   2.070  10.690 -0.2082  0.1632  0.0616
  695HK4     H158345   7.547   1.976  10.646  1.2189  0.2784  0.9537
  695HK4     C658346   7.375   2.106  10.695 -0.2991 -0.0921 -0.5040
  695HK4     C558347   7.350   2.240  10.725  0.1802  0.0599 -0.7929
  695HK4    C1058348   7.217   2.292  10.767  0.5856  0.4252  0.0332
  695HK4     O158349   7.114   2.233  10.737  0.5897  0.1688  0.5097
  695HK4    C1658350   7.283   1.998  10.656 -0.1269 -0.3069 -0.3159
  695HK4    C1558351   7.313   1.863  10.686  0.5644 -0.1336 -0.2277
  695HK4     H758352   7.370   1.844  10.778  1.8304 -2.0580 -1.3814
  695HK4    C2058353   7.273   1.752  10.612  0.2229  0.0161 -0.2681
  695HK4     H958354   7.304   1.654  10.646  0.7434  0.1141 -0.4615
  695HK4    C1958355   7.211   1.771  10.489 -0.3667 -0.0909  0.0106
  695HK4    C1858356   7.177   1.908  10.454  0.2815  0.0116 -0.2069
  695HK4    C1758357   7.208   2.013  10.539 -0.8693  0.0207  0.2011
  695HK4     H858358   7.180   2.114  10.511  0.9345  0.9019  1.4558
  695HK4     N158359   7.151   1.923  10.316  0.8874  0.0233 -0.3248
  695HK4    C2158360   7.165   1.795  10.258 -0.4113 -0.0941 -0.3877
  695HK4    C2258361   7.192   1.700  10.365  0.1497  0.2269 -0.2470
  695HK4    C2658362   7.234   1.570  10.336 -0.3163  0.0639 -0.1844
  695HK4    H1358363   7.272   1.509  10.417 -0.5349 -3.2475 -2.4740
  695HK4    C2558364   7.248   1.539  10.201 -0.4634  0.1839 -0.2269
  695HK4    H1258365   7.263   1.433  10.181 -0.8587  0.0004  0.4137
  695HK4    C2458366   7.225   1.629  10.098 -0.0378  0.0737 -0.4161
  695HK4    H1158367   7.253   1.593   9.997  1.2902 -1.8648  0.6067
  695HK4    C2358368   7.182   1.758  10.126  0.2092  0.1481 -0.3752
  695HK4    H1058369   7.137   1.816  10.046 -0.7453 -1.0891 -0.7551
  695HK4    C3958370   7.089   2.036  10.262  0.3121 -0.1811 -0.0945
  695HK4    C4158371   7.079   2.054  10.123  0.2800  0.1102 -0.0533
  695HK4    H2158372   7.173   2.051  10.066  0.3603  1.8689 -0.0293
  695HK4    C4258373   6.970   2.116  10.062  0.5067  0.5353 -0.0363
  695HK4    H2258374   6.956   2.118   9.953 -1.7327 -1.9412  0.1517
  695HK4    C4358375   6.882   2.182  10.146  0.4551 -0.2507  0.5352
  695HK4    H2358376   6.806   2.237  10.090 -0.3022 -1.0986  0.7151
  695HK4    C4458377   6.898   2.183  10.284  0.0348 -0.2826  0.5867
  695HK4    H2458378   6.850   2.268  10.334 -1.2886 -0.9380  0.4446
  695HK4    C4558379   6.992   2.099  10.343  0.2801 -0.3963  0.0369
  695HK4    H2558380   6.992   2.088  10.452 -0.4042 -0.5516  0.0220
  696HK4    H2858381   9.702   5.084  10.082  0.9886  0.9029 -0.8364
  696HK4    C4858382   9.609   5.119  10.037 -0.5229 -1.1995  0.5782
  696HK4    C4758383   9.567   5.062   9.917  0.1315  0.4467 -0.4385
  696HK4    H2758384   9.651   5.008   9.871 -0.2622 -2.1794  1.8152
  696HK4    C4658385   9.446   5.093   9.856 -0.0198  0.4335 -0.1477
  696HK4    H2658386   9.421   5.041   9.762 -0.5498  0.5039 -0.0480
  696HK4    C4058387   9.361   5.188   9.915 -0.3409 -0.0899  0.2335
  696HK4    C5058388   9.402   5.247  10.037 -0.0756 -0.3391  0.2697
  696HK4    H3058389   9.358   5.341  10.074 -0.5781 -0.0282 -1.0591
  696HK4    C4958390   9.523   5.211  10.095  0.5506  0.4991 -0.4931
  696HK4    H2958391   9.525   5.243  10.200  0.1907  3.2371 -1.2708
  696HK4     N258392   9.246   5.228   9.847 -0.0069 -0.2555 -0.4351
  696HK4    C3058393   9.230   5.221   9.707 -0.2356 -0.1402 -0.4129
  696HK4    C2958394   9.325   5.268   9.618  0.3911 -0.4516  0.0804
  696HK4    H1558395   9.427   5.235   9.637  0.3751  0.3825  1.6826
  696HK4    C2858396   9.288   5.326   9.496  0.3336  0.1812  0.3933
  696HK4    C2758397   9.153   5.312   9.459  0.3732 -0.0000  0.3227
  696HK4    H1458398   9.116   5.339   9.359 -4.2527 -0.7955  1.6802
  696HK4    C3258399   9.057   5.256   9.542 -0.2097  0.6356  0.0840
  696HK4    H1658400   8.957   5.233   9.505 -0.2575 -0.7306  1.0180
  696HK4    C3158401   9.089   5.215   9.671 -0.3017 -0.1995 -0.1516
  696HK4    C3458402   9.015   5.219   9.795  0.2142 -0.2691  0.1608
  696HK4    C3358403   9.115   5.220   9.900  0.2091  0.0643  0.1616
  696HK4    C3558404   9.073   5.239  10.031  0.2635  0.4879  0.1201
  696HK4    H1758405   9.146   5.280  10.101  2.3002 -0.4120 -1.4243
  696HK4    C3658406   8.938   5.236  10.064  0.2299 -0.2343 -0.0705
  696HK4    H1858407   8.904   5.257  10.166  0.2812 -0.9556  0.0914
  696HK4    C3758408   8.845   5.215   9.963 -0.1622  0.7748  0.0671
  696HK4    H1958409   8.745   5.185   9.994 -0.2515  0.4796 -0.5028
  696HK4    C3858410   8.880   5.215   9.828  0.2133 -0.3164  0.1581
  696HK4    H2058411   8.810   5.192   9.748  0.3811 -0.7825  0.1466
  696HK4    C1458412   9.383   5.406   9.417 -0.2139  0.1724 -0.2743
  696HK4     C958413   9.351   5.519   9.340 -0.3883  0.1217 -0.2739
  696HK4     C858414   9.392   5.537   9.207  0.4328 -0.0756 -0.0532
  696HK4    C1158415   9.490   5.450   9.159  0.5591 -0.0924  0.2362
  696HK4     H458416   9.500   5.441   9.050 -0.3990 -2.5591  0.3231
  696HK4    C1258417   9.548   5.358   9.246 -0.0462 -0.0645  0.6759
  696HK4     H558418   9.638   5.313   9.203 -0.1771  1.7102 -1.5896
  696HK4    C1358419   9.500   5.340   9.375 -0.4036 -0.6312  0.4621
  696HK4     H658420   9.563   5.294   9.453 -0.6432 -1.2251  0.3109
  696HK4     C758421   9.359   5.665   9.140 -0.6262 -0.2898  0.0492
  696HK4     O258422   9.347   5.651   9.018  0.0297 -0.3516 -0.0106
  696HK4     C458423   9.296   5.781   9.208  0.2710  0.2474 -0.0179
  696HK4     C358424   9.256   5.895   9.139  0.3280 -0.2583 -0.9035
  696HK4     H358425   9.267   5.893   9.030 -1.8160  2.2393 -1.1964
  696HK4     C258426   9.202   6.003   9.207  0.4367 -0.4847 -0.4503
  696HK4     H258427   9.176   6.103   9.169  3.2947  0.5562  0.2218
  696HK4     C158428   9.196   5.994   9.346  0.7363 -0.1510 -0.4165
  696HK4     H158429   9.166   6.085   9.400  1.3175 -0.4689  0.4488
  696HK4     C658430   9.245   5.886   9.423 -0.2123 -0.2561  0.0421
  696HK4     C558431   9.280   5.773   9.348  0.4921 -0.0106 -0.0032
  696HK4    C1058432   9.293   5.638   9.409  0.2931  0.1160  0.3195
  696HK4     O158433   9.218   5.607   9.501 -0.2193  0.4277  0.0088
  696HK4    C1658434   9.252   5.905   9.568 -0.0993  0.1232 -0.0081
  696HK4    C1558435   9.160   5.983   9.641 -0.6252 -0.2900 -0.2263
  696HK4     H758436   9.076   6.029   9.586 -1.3096  0.7391  1.6022
  696HK4    C2058437   9.165   5.988   9.780 -0.0141 -0.2609 -0.2449
  696HK4     H958438   9.099   6.047   9.844 -0.3837  1.0518 -1.7902
  696HK4    C1958439   9.249   5.900   9.846 -0.1702 -0.2846 -0.0784
  696HK4    C1858440   9.339   5.812   9.773  0.2514  0.2772 -0.2365
  696HK4    C1758441   9.348   5.831   9.636  0.2123  0.3252 -0.2330
  696HK4     H858442   9.430   5.784   9.581  0.6872  0.0467  0.7134
  696HK4     N158443   9.397   5.709   9.849  0.0342  0.2031 -0.1730
  696HK4    C2158444   9.341   5.733   9.976  0.3961  0.0148  0.0207
  696HK4    C2258445   9.259   5.852   9.983 -0.0751 -0.3028 -0.0936
  696HK4    C2658446   9.178   5.874  10.093  0.4370  0.1699  0.1924
  696HK4    H1358447   9.112   5.960  10.087 -0.8046 -0.7900 -0.2647
  696HK4    C2558448   9.169   5.770  10.186 -0.2524 -0.4285 -0.5306
  696HK4    H1258449   9.092   5.772  10.263  0.3769 -0.7860  0.1125
  696HK4    C2458450   9.244   5.653  10.181  0.2141 -0.1316 -0.5453
  696HK4    H1158451   9.242   5.577  10.261  0.0315 -0.3340 -0.7439
  696HK4    C2358452   9.332   5.635  10.075  0.7827 -0.1208 -0.0763
  696HK4    H1058453   9.417   5.570  10.096 -0.0299 -1.2577 -0.2780
  696HK4    C3958454   9.523   5.649   9.835 -0.0290  0.0572 -0.1325
  696HK4    C4158455   9.538   5.512   9.862 -0.8200 -0.0161 -0.0412
  696HK4    H2158456   9.466   5.454   9.921 -2.1166  1.1122 -0.4830
  696HK4    C4258457   9.650   5.447   9.812 -0.7620 -0.0995  0.1940
  696HK4    H2258458   9.675   5.343   9.837  0.2169  0.1816  0.4228
  696HK4    C4358459   9.750   5.517   9.744 -1.3055  0.3637 -0.1295
  696HK4    H2358460   9.835   5.462   9.704  1.0105  3.4746  0.3344
  696HK4    C4458461   9.743   5.655   9.723  0.5338  0.5147  0.1418
  696HK4    H2458462   9.840   5.703   9.704 -0.5962  2.5526 -0.6489
  696HK4    C4558463   9.625   5.716   9.765  0.0415 -0.1603 -0.2328
  696HK4    H2558464   9.600   5.818   9.732 -1.3082 -0.3453  0.2108
  697HK4    H2858465  10.270   9.692   1.184 -1.2850  0.9587  1.5820
  697HK4    C4858466  10.200   9.694   1.100  0.2439 -0.4303  0.2378
  697HK4    C4758467  10.204   9.778   0.990 -0.1968 -0.0708  0.4941
  697HK4    H2758468  10.283   9.853   0.976 -1.4991  0.8327 -2.3603
  697HK4    C4658469  10.106   9.777   0.891  0.2239  0.2917  0.0771
  697HK4    H2658470  10.122   9.834   0.798  1.2966  0.0758  0.1146
  697HK4    C4058471   9.998   9.687   0.901  0.2518  0.1703 -0.6809
  697HK4    C5058472   9.989   9.607   1.016  0.1662  0.5730 -0.4076
  697HK4    H3058473   9.902   9.546   1.045  0.2234  1.7639  2.4306
  697HK4    C4958474  10.090   9.609   1.112 -0.1494  0.0387 -0.0629
  697HK4    H2958475  10.082   9.545   1.201 -2.0548 -0.2944 -0.4413
  697HK4     N258476   9.888   9.696   0.814 -0.3730  0.1014  0.1017
  697HK4    C3058477   9.873   9.802   0.722 -0.1257 -0.1296 -0.2048
  697HK4    C2958478   9.883   9.939   0.743  0.2619 -0.0576 -0.8420
  697HK4    H1558479   9.904   9.980   0.842  0.8696  0.9285 -1.3642
  697HK4    C2858480   9.847  10.034   0.649 -0.4708  0.0095 -0.4981
  697HK4    C2758481   9.796   9.985   0.528 -0.4804  0.2143 -0.5773
  697HK4    H1458482   9.771  10.058   0.449 -0.7333  0.3805 -0.3459
  697HK4    C3258483   9.794   9.850   0.496 -0.1344  0.0970 -0.0957
  697HK4    H1658484   9.746   9.809   0.407 -0.7462 -0.3315  0.4266
  697HK4    C3158485   9.827   9.756   0.593  0.1729 -0.0470 -0.3393
  697HK4    C3458486   9.806   9.613   0.611 -0.5286  0.1578  0.5337
  697HK4    C3358487   9.838   9.582   0.749  0.4061 -0.3165  0.2185
  697HK4    C3558488   9.798   9.456   0.792 -1.0020  0.0130 -0.0908
  697HK4    H1758489   9.780   9.427   0.896  3.0333 -3.0895 -0.1489
  697HK4    C3658490   9.750   9.365   0.699 -0.5564 -0.1272 -0.1837
  697HK4    H1858491   9.691   9.286   0.748 -0.1234 -0.4363 -0.1568
  697HK4    C3758492   9.739   9.381   0.561 -0.9425  0.7544 -0.0524
  697HK4    H1958493   9.698   9.313   0.487 -2.7078  1.0119  0.6770
  697HK4    C3858494   9.770   9.512   0.523  0.3148  0.4398 -0.1480
  697HK4    H2058495   9.765   9.546   0.420 -1.4637  2.8065  0.6676
  697HK4    C1458496   9.849  10.178   0.679 -0.5405 -0.1078  0.0815
  697HK4     C958497   9.776  10.278   0.614  0.1368  0.4701  0.2098
  697HK4     C858498   9.827  10.408   0.595 -0.3306  0.6567  0.2080
  697HK4    C1158499   9.944  10.442   0.661  0.2480 -0.0022 -0.4740
  697HK4     H458500   9.998  10.536   0.644  1.0556 -0.2325  0.7002
  697HK4    C1258501  10.014  10.353   0.742  0.0476  0.0982 -0.1971
  697HK4     H558502  10.101  10.391   0.797  0.0484  0.1807 -0.2540
  697HK4    C1358503   9.964  10.223   0.748 -0.1856  0.1670 -0.6927
  697HK4     H658504  10.024  10.150   0.803 -0.5287 -0.3481 -0.9930
  697HK4     C758505   9.754  10.506   0.511 -0.5263  0.2234 -0.1179
  697HK4     O258506   9.813  10.606   0.473  0.4444 -0.2023  0.2412
  697HK4     C458507   9.621  10.468   0.458 -0.7237 -0.1279  0.6203
  697HK4     C358508   9.555  10.563   0.380  0.2006  0.3571  0.4255
  697HK4     H358509   9.590  10.667   0.375  0.2858  0.2616 -1.7135
  697HK4     C258510   9.436  10.526   0.319  0.2156  0.1143  0.5483
  697HK4     H258511   9.397  10.598   0.246  0.8278 -1.0503 -0.9536
  697HK4     C158512   9.390  10.395   0.329 -0.1003  0.1703 -0.1241
  697HK4     H158513   9.296  10.373   0.276  0.4990 -0.5236 -0.9157
  697HK4     C658514   9.453  10.297   0.408 -0.3772  0.1840  0.1103
  697HK4     C558515   9.565  10.341   0.480  0.0536 -0.5966 -0.0796
  697HK4    C1058516   9.634  10.251   0.577  0.1425  0.0683  0.4755
  697HK4     O158517   9.567  10.196   0.665  0.0218  0.1269  0.4189
  697HK4    C1658518   9.455  10.158   0.360 -0.3533  0.1636  0.1693
  697HK4    C1558519   9.461  10.134   0.221  0.9467 -0.2438  0.2836
  697HK4     H758520   9.510  10.210   0.159  0.1743  0.1099  0.1027
  697HK4    C2058521   9.412  10.019   0.160  0.8254 -0.0820  0.0844
  697HK4     H958522   9.416  10.004   0.052  0.3010 -0.9340  0.1772
  697HK4    C1958523   9.352   9.922   0.240  0.0188  0.0347 -0.3662
  697HK4    C1858524   9.349   9.941   0.384  0.3348  0.6399 -0.4365
  697HK4    C1758525   9.401  10.058   0.439  0.3236  0.1513  0.6246
  697HK4     H858526   9.389  10.068   0.547 -0.8604  0.6906  0.4484
  697HK4     N158527   9.267   9.848   0.451  0.6541  0.3890 -0.3902
  697HK4    C2158528   9.212   9.772   0.345  0.1121  0.0327  0.1497
  697HK4    C2258529   9.265   9.809   0.216  0.1501 -0.1700  0.1080
  697HK4    C2658530   9.219   9.747   0.100 -0.1722 -0.4578  0.3901
  697HK4    H1358531   9.252   9.799   0.010  0.9744  0.4720  1.3325
  697HK4    C2558532   9.115   9.655   0.104 -0.2844 -0.3525 -0.1189
  697HK4    H1258533   9.080   9.616   0.008  0.1842  2.3972 -1.4609
  697HK4    C2458534   9.056   9.621   0.225 -0.1364 -0.1473  0.0120
  697HK4    H1158535   8.979   9.542   0.225  0.5498 -0.8243 -0.0824
  697HK4    C2358536   9.113   9.674   0.340  0.1862 -0.0233 -0.2046
  697HK4    H1058537   9.067   9.634   0.430 -0.9771 -1.6372 -1.4841
  697HK4    C3958538   9.305   9.794   0.574  0.1091  0.0606 -0.3661
  697HK4    C4158539   9.221   9.708   0.649 -0.1627  0.3527 -0.3370
  697HK4    H2158540   9.112   9.708   0.632 -0.1092 -2.4463 -1.0013
  697HK4    C4258541   9.275   9.651   0.763 -0.0035 -0.5627 -0.8641
  697HK4    H2258542   9.209   9.580   0.814 -0.0163  0.9130  1.2430
  697HK4    C4358543   9.401   9.678   0.816 -0.1816 -0.0809 -0.6748
  697HK4    H2358544   9.429   9.630   0.910 -2.3310 -2.7330 -1.3275
  697HK4    C4458545   9.484   9.759   0.739  0.2736 -0.2062 -0.3131
  697HK4    H2458546   9.590   9.749   0.767  0.4872  0.3174 -0.9296
  697HK4    C4558547   9.438   9.809   0.618  0.3468 -1.0658 -0.6965
  697HK4    H2558548   9.504   9.882   0.569  1.0446 -0.1352  1.6015
  698HK4    H2858549   5.137   5.840   1.098 -0.4488 -0.9273 -1.0285
  698HK4    C4858550   5.097   5.930   1.145  0.3851 -0.8017 -0.5520
  698HK4    C4758551   4.976   5.987   1.106  0.6499  0.2001  0.0614
  698HK4    H2758552   4.939   5.960   1.006 -2.2870 -0.5038  1.3043
  698HK4    C4658553   4.923   6.096   1.173  0.6271  0.1765  0.0832
  698HK4    H2658554   4.823   6.133   1.145  0.5865 -0.8203 -1.1428
  698HK4    C4058555   4.975   6.150   1.292  0.1071 -0.1207  0.4442
  698HK4    C5058556   5.100   6.096   1.328  0.2407 -0.1246 -0.0154
  698HK4    H3058557   5.155   6.140   1.413  1.6094 -1.5014 -0.1754
  698HK4    C4958558   5.153   5.988   1.258 -0.6470 -0.4185 -0.2368
  698HK4    H2958559   5.245   5.939   1.292 -0.2359 -1.3714 -2.6246
  698HK4     N258560   4.935   6.271   1.349 -0.1413 -0.0391  0.0941
  698HK4    C3058561   4.894   6.391   1.286  0.2799 -0.0168 -0.1443
  698HK4    C2958562   4.938   6.444   1.166  0.3509  0.0082 -0.1074
  698HK4    H1558563   5.002   6.382   1.104 -0.2835 -1.6924  0.9088
  698HK4    C2858564   4.912   6.573   1.119 -0.1378  0.0545  0.2818
  698HK4    C2758565   4.833   6.650   1.206 -0.0271 -0.0709  0.4913
  698HK4    H1458566   4.817   6.755   1.179  1.3185  0.0892  0.2740
  698HK4    C3258567   4.791   6.609   1.332 -0.3401  0.1660  0.4627
  698HK4    H1658568   4.721   6.668   1.392  0.2548 -0.2470  1.5860
  698HK4    C3158569   4.827   6.483   1.377 -0.2581 -0.1284 -0.4228
  698HK4    C3458570   4.836   6.418   1.507  0.3964  0.5082 -0.1479
  698HK4    C3358571   4.913   6.296   1.486 -0.3458  0.0034  0.0542
  698HK4    C3558572   4.950   6.220   1.596 -0.1582  0.7199  0.4901
  698HK4    H1758573   4.997   6.122   1.592  1.6265  1.5726 -0.3942
  698HK4    C3658574   4.926   6.273   1.722 -0.3097 -0.3325  0.9036
  698HK4    H1858575   4.940   6.207   1.809  0.9912 -0.8695  0.2932
  698HK4    C3758576   4.864   6.396   1.742 -0.5127 -0.2340 -0.2985
  698HK4    H1958577   4.865   6.439   1.842 -0.0933  0.2115 -0.4963
  698HK4    C3858578   4.810   6.466   1.635 -0.2232  0.2053 -0.1588
  698HK4    H2058579   4.801   6.574   1.637 -3.7916 -0.0475  0.0888
  698HK4    C1458580   4.977   6.627   0.999  0.3990 -0.2113  0.4546
  698HK4     C958581   5.001   6.763   0.975 -0.3234 -0.1772 -0.0571
  698HK4     C858582   5.013   6.811   0.842  0.9101 -0.0560  0.0986
  698HK4    C1158583   5.014   6.721   0.736  0.2023  0.5894 -0.4552
  698HK4     H458584   5.048   6.763   0.640  1.2215 -1.0718 -0.8376
  698HK4    C1258585   4.991   6.586   0.754 -0.2388  0.7782  0.3941
  698HK4     H558586   4.973   6.511   0.675  1.6115 -0.0162  0.7048
  698HK4    C1358587   4.972   6.544   0.886  0.2973  0.0763  0.2467
  698HK4     H658588   4.953   6.439   0.913 -1.2034  0.3451  0.2768
  698HK4     C758589   5.011   6.957   0.818  0.0056 -0.0341  0.2905
  698HK4     O258590   5.019   7.001   0.703 -0.8673  0.6388  0.4823
  698HK4     C458591   5.009   7.050   0.933 -0.0069  0.3839 -0.0461
  698HK4     C358592   5.015   7.185   0.904 -0.1481  0.3845 -0.0744
  698HK4     H358593   5.049   7.217   0.804  0.6681 -0.1517  0.0290
  698HK4     C258594   5.035   7.281   1.003  0.6247  0.0087  0.1447
  698HK4     H258595   5.083   7.372   0.964  0.4496 -0.5810 -1.4937
  698HK4     C158596   5.025   7.234   1.133 -0.2295  0.0590  0.1020
  698HK4     H158597   5.076   7.300   1.205 -0.6389  1.1752 -0.6193
  698HK4     C658598   5.004   7.100   1.171  0.2926 -0.0806 -0.0903
  698HK4     C558599   5.004   7.006   1.067  0.2960 -0.0031 -0.1590
  698HK4    C1058600   5.020   6.859   1.086 -0.0971 -0.0552 -0.2026
  698HK4     O158601   5.107   6.824   1.167 -0.1574  0.5085  0.1104
  698HK4    C1658602   4.932   7.074   1.296  0.2637  0.1968 -0.0505
  698HK4    C1558603   4.830   7.165   1.331  0.2227 -0.0532  0.5069
  698HK4     H758604   4.793   7.245   1.265  0.3610 -1.0920 -0.8516
  698HK4    C2058605   4.788   7.179   1.462 -0.0619  0.3096  0.3776
  698HK4     H958606   4.707   7.246   1.491 -0.6712 -0.2023 -0.1304
  698HK4    C1958607   4.841   7.101   1.564 -0.4224 -0.3181  0.0849
  698HK4    C1858608   4.949   7.011   1.529 -0.5554 -0.3948 -0.1376
  698HK4    C1758609   4.990   6.998   1.397 -0.0303  0.0105 -0.0220
  698HK4     H858610   5.091   6.961   1.380 -0.0595 -0.2942  0.4520
  698HK4     N158611   4.984   6.928   1.638  0.0029  0.1361  0.0989
  698HK4    C2158612   4.894   6.961   1.742  0.2232 -0.1843  0.3896
  698HK4    C2258613   4.814   7.075   1.704 -0.1660 -0.5531  0.0915
  698HK4    C2658614   4.739   7.139   1.802  0.1527  0.2031 -0.1590
  698HK4    H1358615   4.670   7.220   1.780 -3.1674 -2.4307  0.2700
  698HK4    C2558616   4.754   7.100   1.935 -1.0811 -0.2814 -0.1547
  698HK4    H1258617   4.710   7.166   2.010  0.1075 -0.4383  0.7004
  698HK4    C2458618   4.826   6.987   1.972 -0.5811  0.0083 -0.2290
  698HK4    H1158619   4.798   6.942   2.068 -1.2567  0.3374 -0.2688
  698HK4    C2358620   4.897   6.918   1.874  0.1304 -0.1574  0.4005
  698HK4    H1058621   4.955   6.831   1.904  1.5075  0.9267  0.9154
  698HK4    C3958622   5.075   6.822   1.632  0.0821  0.2023  0.1595
  698HK4    C4158623   5.138   6.769   1.747  0.4650  0.0431 -0.1208
  698HK4    H2158624   5.146   6.827   1.839  0.5644 -0.7266  0.3606
  698HK4    C4258625   5.194   6.642   1.751  0.2630 -0.0392  0.1132
  698HK4    H2258626   5.214   6.606   1.853 -0.6118  0.6401  0.5240
  698HK4    C4358627   5.187   6.555   1.643  0.4838 -0.1122  0.1567
  698HK4    H2358628   5.222   6.452   1.642 -2.2102 -1.0553  1.1030
  698HK4    C4458629   5.131   6.606   1.526  0.4585  0.4182  0.4004
  698HK4    H2458630   5.116   6.547   1.435 -1.7298  0.3238  0.8001
  698HK4    C4558631   5.079   6.735   1.521  0.1849  0.2938  0.0893
  698HK4    H2558632   5.039   6.761   1.422 -1.1824  1.8793  1.0356
  699HK4    H2858633   3.142  10.474   2.348 -1.4733  0.8572  0.9734
  699HK4    C4858634   3.099  10.381   2.386  0.1322 -0.3764 -0.1333
  699HK4    C4758635   2.984  10.328   2.328 -0.1474  0.3756 -0.2788
  699HK4    H2758636   2.959  10.354   2.224 -1.9302  0.8885  0.2616
  699HK4    C4658637   2.909  10.228   2.388 -0.0191  0.6297  0.3054
  699HK4    H2658638   2.814  10.190   2.347  0.2602 -0.1886  0.4143
  699HK4    C4058639   2.944  10.176   2.515 -0.0733  0.2805  0.1764
  699HK4    C5058640   3.064  10.223   2.571  0.1268  0.0048 -0.0208
  699HK4    H3058641   3.114  10.175   2.657 -1.8148 -3.0449 -0.5292
  699HK4    C4958642   3.135  10.324   2.507 -0.0760  0.3269  0.2629
  699HK4    H2958643   3.211  10.369   2.573 -1.2582 -1.7229  3.1206
  699HK4     N258644   2.872  10.073   2.576  0.1947 -0.0514 -0.0623
  699HK4    C3058645   2.797   9.975   2.507 -0.1479 -0.3768  0.7625
  699HK4    C2958646   2.798   9.929   2.375  0.5751 -0.7656  0.9008
  699HK4    H1558647   2.856   9.984   2.301 -1.1392 -0.1530 -0.0156
  699HK4    C2858648   2.725   9.821   2.326  0.2507 -0.2173  0.1706
  699HK4    C2758649   2.640   9.762   2.422 -0.2556  0.1389 -0.0604
  699HK4    H1458650   2.576   9.676   2.398  1.9473 -2.2273  2.3777
  699HK4    C3258651   2.638   9.795   2.557 -0.4083 -0.1602  0.0107
  699HK4    H1658652   2.564   9.747   2.621  0.3172 -1.5171 -0.1327
  699HK4    C3158653   2.717   9.901   2.602 -0.0452 -0.6795  0.6141
  699HK4    C3458654   2.752   9.953   2.732 -0.2555  0.1502  0.3438
  699HK4    C3358655   2.838  10.067   2.712 -0.6097  0.3154 -0.2439
  699HK4    C3558656   2.848  10.163   2.813  0.4653 -0.2769  0.2163
  699HK4    H1758657   2.909  10.252   2.796  1.2321 -0.6651  0.9010
  699HK4    C3658658   2.797  10.141   2.940 -0.1613  0.2300  0.0554
  699HK4    H1858659   2.819  10.217   3.017 -2.1394 -0.6938  1.5712
  699HK4    C3758660   2.725  10.024   2.961 -0.0396  0.2434  0.5676
  699HK4    H1958661   2.688  10.001   3.060  1.7733  0.5946  1.3453
  699HK4    C3858662   2.702   9.930   2.860  0.1262  0.2597  0.5130
  699HK4    H2058663   2.636   9.846   2.882 -1.5440  1.2094 -0.6558
  699HK4    C1458664   2.704   9.803   2.182  0.2053 -0.1382  0.1676
  699HK4     C958665   2.581   9.755   2.133  0.1892 -0.0274  0.1022
  699HK4     C858666   2.576   9.665   2.025 -0.3977  0.5443 -0.3536
  699HK4    C1158667   2.696   9.638   1.960 -0.4005 -0.0734 -0.1084
  699HK4     H458668   2.691   9.604   1.855  2.2654 -1.0891  0.0691
  699HK4    C1258669   2.817   9.688   2.005 -0.1900 -0.6499 -0.0253
  699HK4     H558670   2.916   9.664   1.964  1.1108  1.1011  1.9481
  699HK4    C1358671   2.825   9.771   2.117 -0.0911 -0.2489 -0.3293
  699HK4     H658672   2.911   9.838   2.130  0.2419 -0.4523 -1.3915
  699HK4     C758673   2.455   9.580   2.017 -0.1320  0.1458 -0.1583
  699HK4     O258674   2.437   9.524   1.910  0.5566  0.0581 -0.2317
  699HK4     C458675   2.348   9.584   2.119 -0.2748  0.5682 -0.3211
  699HK4     C358676   2.262   9.475   2.132  0.5935 -0.0888 -0.0337
  699HK4     H358677   2.247   9.408   2.045 -0.1990  1.0890 -0.8172
  699HK4     C258678   2.180   9.466   2.244  0.6213 -0.0264 -0.0085
  699HK4     H258679   2.127   9.375   2.273  1.2565 -0.2581  0.4517
  699HK4     C158680   2.179   9.577   2.328  0.0267  0.0551 -0.1265
  699HK4     H158681   2.116   9.563   2.417  0.6406 -0.6977  0.1964
  699HK4     C658682   2.254   9.695   2.314  0.0674  0.0576  0.0920
  699HK4     C558683   2.344   9.695   2.206 -0.4203  0.5629 -0.3204
  699HK4    C1058684   2.451   9.797   2.192  0.3038 -0.0905  0.4005
  699HK4     O158685   2.423   9.917   2.180  0.1831 -0.1499  0.0552
  699HK4    C1658686   2.200   9.810   2.388 -0.4085 -0.2405  0.2157
  699HK4    C1558687   2.064   9.826   2.420 -0.5806  0.2585 -0.7303
  699HK4     H758688   1.984   9.789   2.353 -0.8630 -1.4389  0.5070
  699HK4    C2058689   2.025   9.900   2.531  0.2884  0.0435 -0.2784
  699HK4     H958690   1.926   9.894   2.577  0.1599  2.1169 -0.2587
  699HK4    C1958691   2.123   9.967   2.603  0.0663  0.4574 -0.3634
  699HK4    C1858692   2.258   9.981   2.553  0.3844 -0.3624  0.2647
  699HK4    C1758693   2.292   9.894   2.450 -0.2372 -0.2287 -0.0559
  699HK4     H858694   2.400   9.882   2.437 -0.4097  0.2525 -2.2464
  699HK4     N158695   2.338  10.063   2.635  0.1753 -0.4879  0.5934
  699HK4    C2158696   2.251  10.096   2.741 -0.0839  0.2328  0.1640
  699HK4    C2258697   2.116  10.047   2.724  0.1667 -0.4947  0.2688
  699HK4    C2658698   2.025  10.030   2.827 -0.1128  0.2132  0.1357
  699HK4    H1358699   1.927   9.989   2.801 -0.8447  1.9878 -0.0013
  699HK4    C2558700   2.065  10.064   2.956  0.1726 -0.4579  0.2260
  699HK4    H1258701   1.988  10.071   3.033  0.9056 -0.5861  0.9801
  699HK4    C2458702   2.196  10.106   2.973  0.2004 -0.4362 -0.0490
  699HK4    H1158703   2.227  10.124   3.077 -0.2557  0.3043 -0.0406
  699HK4    C2358704   2.289  10.129   2.871  0.1836  0.2382  0.0868
  699HK4    H1058705   2.376  10.192   2.889  1.4466 -1.3353 -0.3691
  699HK4    C3958706   2.431  10.157   2.588 -0.3525 -0.1904  0.1311
  699HK4    C4158707   2.521  10.211   2.682 -0.4723 -0.0889  0.1871
  699HK4    H2158708   2.557  10.142   2.760  0.5599 -1.5495 -1.5375
  699HK4    C4258709   2.583  10.334   2.667  0.8361 -0.7277  0.2977
  699HK4    H2258710   2.637  10.378   2.753 -0.4379  0.6543  0.4135
  699HK4    C4358711   2.562  10.405   2.549 -0.1554 -0.3098  0.7224
  699HK4    H2358712   2.570  10.513   2.549  0.7399 -0.3670 -0.6446
  699HK4    C4458713   2.484  10.352   2.447  0.6425 -0.3843  0.1500
  699HK4    H2458714   2.469  10.403   2.351 -0.8895 -0.7733  0.1733
  699HK4    C4558715   2.416  10.233   2.470  0.0896 -0.0714  0.1503
  699HK4    H2558716   2.345  10.203   2.392 -0.8981  1.8807  0.2760
  700HK4    H2858717   2.585   7.349   6.675  0.0396  2.8853  1.2890
  700HK4    C4858718   2.624   7.321   6.773 -0.0075 -0.3241  0.4444
  700HK4    C4758719   2.541   7.336   6.884 -0.3282  0.3558  0.1184
  700HK4    H2758720   2.433   7.341   6.868 -0.1460  1.0153 -0.9981
  700HK4    C4658721   2.593   7.358   7.011  0.1218 -0.3782  0.0675
  700HK4    H2658722   2.523   7.395   7.087  1.3176  0.2602  0.8620
  700HK4    C4058723   2.731   7.351   7.036  0.0997 -0.6415  0.1181
  700HK4    C5058724   2.811   7.331   6.922 -0.0102  0.1625 -0.1037
  700HK4    H3058725   2.919   7.319   6.936  0.1031 -0.3657 -1.3426
  700HK4    C4958726   2.762   7.320   6.792  0.0669 -0.4236 -0.0841
  700HK4    H2958727   2.828   7.306   6.705  0.1566  0.7422 -0.2124
  700HK4     N258728   2.778   7.332   7.167  0.3292 -0.1533  0.1109
  700HK4    C3058729   2.698   7.275   7.268  0.5213 -0.5425  0.0447
  700HK4    C2958730   2.593   7.184   7.269  0.6770 -0.7258 -0.2747
  700HK4    H1558731   2.551   7.146   7.176 -1.7973  3.3682 -0.9679
  700HK4    C2858732   2.537   7.125   7.381  0.4613 -0.2695 -0.1425
  700HK4    C2758733   2.581   7.174   7.506  0.3173 -0.1057 -0.1560
  700HK4    H1458734   2.545   7.127   7.598 -1.5171  0.4703 -0.5660
  700HK4    C3258735   2.678   7.274   7.516 -0.2582  0.4375  0.0376
  700HK4    H1658736   2.682   7.328   7.610  1.0366 -2.0518  1.4578
  700HK4    C3158737   2.740   7.318   7.400  0.3072 -0.3324  0.0436
  700HK4    C3458738   2.851   7.408   7.376 -0.4499  0.6575  0.2058
  700HK4    C3358739   2.873   7.412   7.233 -0.2074  0.3847  0.2366
  700HK4    C3558740   2.963   7.506   7.184  0.3488 -0.2762 -0.0155
  700HK4    H1758741   2.998   7.511   7.080  3.9288  3.4717  1.2379
  700HK4    C3658742   3.030   7.595   7.267  0.6953 -0.5009 -0.0482
  700HK4    H1858743   3.093   7.668   7.214  2.4375  0.3198  3.0399
  700HK4    C3758744   3.017   7.581   7.404  0.1355  0.2253 -0.0228
  700HK4    H1958745   3.077   7.643   7.471  0.6386 -1.3251  0.9964
  700HK4    C3858746   2.925   7.492   7.459  0.0559  0.3603  0.0617
  700HK4    H2058747   2.912   7.479   7.566  0.5573  0.2487  0.1098
  700HK4    C1458748   2.473   6.993   7.372  0.1687 -0.1196 -0.2727
  700HK4     C958749   2.497   6.893   7.467 -0.0039 -0.0615 -0.1652
  700HK4     C858750   2.382   6.824   7.511 -0.0276  0.0786 -0.0088
  700HK4    C1158751   2.255   6.851   7.461 -0.0222  0.4175  0.1593
  700HK4     H458752   2.168   6.798   7.503 -0.2145 -0.5047 -1.3610
  700HK4    C1258753   2.236   6.945   7.360 -0.0262 -0.0342 -0.2672
  700HK4     H558754   2.137   6.962   7.314 -0.0511 -0.2058 -0.2778
  700HK4    C1358755   2.348   7.010   7.309  0.0320  0.1258  0.0635
  700HK4     H658756   2.332   7.058   7.211  0.0323  1.5975  0.7761
  700HK4     C758757   2.403   6.703   7.594 -0.3655 -0.1120 -0.1967
  700HK4     O258758   2.311   6.657   7.661 -0.0762 -0.6151 -0.1442
  700HK4     C458759   2.536   6.643   7.622 -0.4239 -0.2731 -0.2654
  700HK4     C358760   2.543   6.517   7.681  0.0368 -0.1010  0.0435
  700HK4     H358761   2.455   6.469   7.724  0.5682  0.3105  1.6346
  700HK4     C258762   2.667   6.463   7.713  0.0379 -0.1865 -0.1058
  700HK4     H258763   2.663   6.357   7.744 -0.1448  0.2768  1.5013
  700HK4     C158764   2.781   6.539   7.687 -0.1542 -0.2100 -1.0250
  700HK4     H158765   2.877   6.501   7.725 -1.2747 -1.9154  0.1617
  700HK4     C658766   2.776   6.670   7.635 -0.0811  0.2558  0.1319
  700HK4     C558767   2.652   6.717   7.591 -0.2506 -0.5291 -0.2303
  700HK4    C1058768   2.630   6.837   7.506 -0.1709  0.1024  0.6398
  700HK4     O158769   2.731   6.892   7.462 -0.3534 -0.0389  0.0426
  700HK4    C1658770   2.902   6.745   7.630  0.2316 -0.2826 -0.1603
  700HK4    C1558771   3.020   6.674   7.601  0.2014 -0.3734 -0.0611
  700HK4     H758772   3.031   6.600   7.521  1.0935 -1.2573  0.8620
  700HK4    C2058773   3.136   6.707   7.670  0.1783 -0.0461 -0.1798
  700HK4     H958774   3.235   6.668   7.644  0.8806  1.5188  0.0985
  700HK4    C1958775   3.138   6.806   7.767  0.3661  0.0156 -0.2442
  700HK4    C1858776   3.023   6.895   7.776  0.4838  0.1221  0.1976
  700HK4    C1758777   2.905   6.858   7.712  0.8372 -0.2339 -0.2515
  700HK4     H858778   2.825   6.932   7.713  0.8069 -0.1844 -3.1252
  700HK4     N158779   3.028   6.967   7.897 -0.2323 -0.0569  0.3344
  700HK4    C2158780   3.149   6.934   7.962  0.1404 -0.0191 -0.3380
  700HK4    C2258781   3.216   6.830   7.886  0.0746 -0.3155  0.0110
  700HK4    C2658782   3.336   6.780   7.937  0.3800 -0.0966 -0.5006
  700HK4    H1358783   3.409   6.735   7.869 -1.2124 -2.7196 -0.5430
  700HK4    C2558784   3.368   6.818   8.066 -0.3898  0.1454 -0.3732
  700HK4    H1258785   3.451   6.767   8.116 -1.0239  0.2561  0.7963
  700HK4    C2458786   3.306   6.917   8.142 -0.8594 -0.0490 -0.5022
  700HK4    H1158787   3.347   6.939   8.242 -2.0982 -1.0219  0.2277
  700HK4    C2358788   3.198   6.981   8.083 -0.6831  0.5198 -0.2080
  700HK4    H1058789   3.165   7.078   8.119 -2.9301 -1.1531  2.3482
  700HK4    C3958790   2.956   7.085   7.922  0.2794  0.2949  0.1517
  700HK4    C4158791   2.897   7.163   7.821  0.3744 -0.1165 -0.2245
  700HK4    H2158792   2.933   7.154   7.718  0.8321 -0.0356 -0.0710
  700HK4    C4258793   2.804   7.261   7.854  1.1782  0.5293  0.1261
  700HK4    H2258794   2.790   7.348   7.788  0.8481  0.8294  0.5868
  700HK4    C4358795   2.763   7.273   7.986  0.2928 -0.1482 -0.0814
  700HK4    H2358796   2.679   7.340   8.000  0.8589  0.7799 -1.0937
  700HK4    C4458797   2.819   7.192   8.085 -0.4235 -0.2714  0.2236
  700HK4    H2458798   2.774   7.201   8.185 -1.1884  0.0220 -0.1427
  700HK4    C4558799   2.917   7.098   8.057 -0.4485 -0.2305 -0.0066
  700HK4    H2558800   2.936   7.019   8.132 -0.5455  1.3784  1.7494
  701HK4    H2858801   1.895   6.186  11.106  1.1066 -0.4386  0.2934
  701HK4    C4858802   1.896   6.272  11.172  0.8354  0.1109 -0.4088
  701HK4    C4758803   1.982   6.260   0.033  0.5614 -0.0018 -0.2051
  701HK4    H2758804   1.991   6.157   0.071  0.7867 -0.8400 -2.4147
  701HK4    C4658805   2.054   6.362   0.093  0.0520  0.2652 -0.0445
  701HK4    H2658806   2.117   6.340   0.181  0.4211 -1.8403 -0.8168
  701HK4    C4058807   2.040   6.491   0.038 -0.0264  0.1006 -0.4124
  701HK4    C5058808   1.951   6.502  11.177  0.1592  0.2136 -0.5535
  701HK4    H3058809   1.934   6.602  11.133  0.5221  0.6505  0.2811
  701HK4    C4958810   1.871   6.401  11.126 -0.0133  0.0847 -0.0231
  701HK4    H2958811   1.794   6.423  11.051  0.0313  2.2619  0.5337
  701HK4     N258812   2.112   6.602   0.085 -0.4368  0.1774  0.0354
  701HK4    C3058813   2.168   6.611   0.213 -0.1687 -0.3167 -0.0447
  701HK4    C2958814   2.124   6.562   0.336  0.1988 -0.2437  0.1173
  701HK4    H1558815   2.023   6.522   0.333 -0.6748  1.7684  1.3700
  701HK4    C2858816   2.189   6.577   0.458  0.1251  0.2715  0.0952
  701HK4    C2758817   2.310   6.649   0.455  0.2321  0.0744 -0.2986
  701HK4    H1458818   2.374   6.653   0.544 -0.3557  0.1894  0.1215
  701HK4    C3258819   2.355   6.712   0.340  0.3962  0.0495 -0.2496
  701HK4    H1658820   2.450   6.766   0.337 -0.5019  1.6768 -0.4610
  701HK4    C3158821   2.286   6.695   0.220  0.3397 -1.0252 -0.0694
  701HK4    C3458822   2.295   6.748   0.085 -0.1543 -0.3464  0.1620
  701HK4    C3358823   2.188   6.690   0.006 -0.2624  0.0281  0.0355
  701HK4    C3558824   2.183   6.740  11.124  0.0886  0.3346  0.1389
  701HK4    H1758825   2.109   6.704  11.052  1.2434 -1.4479 -0.1901
  701HK4    C3658826   2.268   6.838  11.074  0.2745  0.1265  0.0392
  701HK4    H1858827   2.249   6.875  10.972  0.6671 -0.3323 -0.2006
  701HK4    C3758828   2.368   6.894  11.151 -0.6227  0.8190  0.7159
  701HK4    H1958829   2.439   6.965  11.108  0.4336 -0.4769  0.3103
  701HK4    C3858830   2.385   6.839   0.030 -0.6597  0.3820  0.5300
  701HK4    H2058831   2.476   6.863   0.084  0.6269  1.5805 -2.0562
  701HK4    C1458832   2.107   6.567   0.580 -0.3238 -0.3233 -0.2539
  701HK4     C958833   2.121   6.644   0.696  0.2798 -0.4155 -0.2638
  701HK4     C858834   2.095   6.598   0.827 -0.1806 -0.2991 -0.3141
  701HK4    C1158835   2.046   6.468   0.829 -0.0082 -0.3485  0.5493
  701HK4     H458836   2.006   6.442   0.928 -0.6694 -2.4102 -0.2364
  701HK4    C1258837   2.010   6.393   0.718  0.8528 -0.4669  0.3463
  701HK4     H558838   1.951   6.301   0.733 -2.1028  1.3881  0.4381
  701HK4    C1358839   2.042   6.442   0.592 -0.3663 -0.2644  0.1079
  701HK4     H658840   2.019   6.378   0.506  1.9302 -0.8593 -0.1179
  701HK4     C758841   2.109   6.684   0.947  0.4742 -0.2889 -0.3920
  701HK4     O258842   2.079   6.641   1.059  0.7986  0.1332 -0.1451
  701HK4     C458843   2.166   6.820   0.936  1.1792 -0.5286  0.2581
  701HK4     C358844   2.185   6.898   1.049  0.1406  0.3647 -0.1760
  701HK4     H358845   2.184   6.860   1.152 -1.0113  0.6668 -0.0611
  701HK4     C258846   2.210   7.034   1.036  0.5119  0.3568  0.4070
  701HK4     H258847   2.182   7.110   1.110  0.3246  1.7029 -1.0001
  701HK4     C158848   2.242   7.081   0.909  0.8203 -0.2829  0.2447
  701HK4     H158849   2.263   7.189   0.905 -2.3632  0.4222  0.6198
  701HK4     C658850   2.242   7.000   0.794  0.0457 -0.0433  0.0716
  701HK4     C558851   2.192   6.870   0.806 -0.5848  0.2084  0.1747
  701HK4    C1058852   2.148   6.790   0.688 -0.6059 -0.2101  0.4653
  701HK4     O158853   2.079   6.848   0.604  0.1895  0.3230  0.1743
  701HK4    C1658854   2.294   7.065   0.673 -0.1926  0.0916  0.0403
  701HK4    C1558855   2.359   6.990   0.573 -0.3304  0.2858 -0.1966
  701HK4     H758856   2.409   6.899   0.611 -1.0545  0.4309  1.1129
  701HK4    C2058857   2.392   7.039   0.447  0.0630  0.3730 -0.0618
  701HK4     H958858   2.447   6.980   0.373 -1.0933 -2.3801  1.1785
  701HK4    C1958859   2.347   7.167   0.416 -0.1850  0.2515 -0.2134
  701HK4    C1858860   2.283   7.248   0.518 -0.9758 -0.3642 -0.2170
  701HK4    C1758861   2.260   7.197   0.645 -0.2166  0.1020  0.1135
  701HK4     H858862   2.213   7.259   0.720 -1.2147  0.6835 -0.9694
  701HK4     N158863   2.254   7.376   0.465 -0.1559 -0.1291 -0.1078
  701HK4    C2158864   2.296   7.371   0.331  0.3060 -0.0170  0.0310
  701HK4    C2258865   2.353   7.243   0.293  0.4474  0.1320 -0.2585
  701HK4    C2658866   2.416   7.230   0.170  0.1490 -0.2839 -0.3713
  701HK4    H1358867   2.460   7.135   0.141 -1.6806 -1.5490  0.9047
  701HK4    C2558868   2.413   7.338   0.082 -0.3884 -0.1553 -0.1935
  701HK4    H1258869   2.460   7.331  11.232 -1.8185  1.2193 -1.0055
  701HK4    C2458870   2.349   7.457   0.116 -0.0970 -0.1538  0.3623
  701HK4    H1158871   2.338   7.533   0.037  1.9065 -0.2122  0.0073
  701HK4    C2358872   2.287   7.474   0.239 -0.0516  0.2215  0.3324
  701HK4    H1058873   2.231   7.561   0.275 -0.8915 -0.1113 -0.1422
  701HK4    C3958874   2.259   7.491   0.544 -0.2665 -0.0504 -0.2181
  701HK4    C4158875   2.176   7.600   0.510 -0.1303  0.1371  0.0428
  701HK4    H2158876   2.088   7.589   0.444  0.7977 -1.2710 -0.9870
  701HK4    C4258877   2.192   7.721   0.576  0.7207  0.2914 -0.4447
  701HK4    H2258878   2.143   7.809   0.531 -1.3068 -0.4297  0.3009
  701HK4    C4358879   2.285   7.729   0.679  0.0062  0.1795  0.2152
  701HK4    H2358880   2.299   7.826   0.726 -0.5320 -0.0760  0.9167
  701HK4    C4458881   2.372   7.625   0.711 -0.5553 -0.3320  0.0981
  701HK4    H2458882   2.450   7.644   0.787  1.5036 -0.1812 -2.0012
  701HK4    C4558883   2.345   7.501   0.656 -1.0569 -0.3684  0.4245
  701HK4    H2558884   2.392   7.416   0.708  2.0253  0.7656 -0.3964
  702HK4    H2858885   1.119   6.184   0.135  0.6686  0.4958  0.7869
  702HK4    C4858886   1.220   6.149   0.152  0.4175 -0.3355  0.6382
  702HK4    C4758887   1.280   6.031   0.110 -0.1350 -0.1880 -0.5768
  702HK4    H2758888   1.229   5.960   0.043 -0.1685  0.7068 -1.5124
  702HK4    C4658889   1.407   6.000   0.157 -0.0593  0.3149 -0.4540
  702HK4    H2658890   1.434   5.895   0.145  0.5363  0.6471 -2.1368
  702HK4    C4058891   1.489   6.084   0.237 -0.1233 -0.3543  0.3219
  702HK4    C5058892   1.428   6.208   0.265 -0.1960 -0.3839  0.3026
  702HK4    H3058893   1.483   6.277   0.331 -0.7670 -0.8402  1.2702
  702HK4    C4958894   1.300   6.240   0.221 -0.1095  0.2368  0.4985
  702HK4    H2958895   1.276   6.346   0.236 -1.0433  0.0340  0.4392
  702HK4     N258896   1.628   6.069   0.234 -0.0726  0.1793 -0.0634
  702HK4    C3058897   1.709   6.011   0.135  0.0127 -0.0615  0.1459
  702HK4    C2958898   1.691   5.976   0.002 -0.1148 -0.3876  0.2497
  702HK4    H1558899   1.590   5.964  11.211  1.2031 -0.4013 -3.3735
  702HK4    C2858900   1.795   5.923  11.174 -0.0631  0.3517 -0.2064
  702HK4    C2758901   1.913   5.887  11.243 -0.0369  0.1441 -0.3599
  702HK4    H1458902   1.999   5.860  11.181  0.0555 -0.4618  0.0346
  702HK4    C3258903   1.936   5.919   0.128 -0.0172  0.0619 -0.3406
  702HK4    H1658904   2.015   5.870   0.185 -0.7194 -0.3549  0.2761
  702HK4    C3158905   1.839   5.992   0.197 -0.1774 -0.7683  0.3308
  702HK4    C3458906   1.833   6.032   0.336 -0.6032  0.0531  0.0790
  702HK4    C3358907   1.698   6.082   0.356 -0.6251 -0.0914  0.2852
  702HK4    C3558908   1.667   6.123   0.485 -0.1569  0.2541  0.2901
  702HK4    H1758909   1.561   6.151   0.490 -0.2793 -0.0046 -0.7537
  702HK4    C3658910   1.764   6.127   0.584  0.2132 -0.2031 -0.0517
  702HK4    H1858911   1.755   6.184   0.678  2.2141 -1.2802  0.8266
  702HK4    C3758912   1.883   6.058   0.567  0.0534 -0.6091  0.4841
  702HK4    H1958913   1.952   6.050   0.652 -0.1577  0.5533  0.7771
  702HK4    C3858914   1.921   6.014   0.441 -0.3633  0.5046 -0.0408
  702HK4    H2058915   2.011   5.953   0.427  0.3187  1.4645  0.0675
  702HK4    C1458916   1.773   5.891  11.033 -0.2225 -0.2166 -0.0537
  702HK4     C958917   1.860   5.808  10.959  0.0885  0.1007 -0.0460
  702HK4     C858918   1.898   5.855  10.831 -0.0812 -0.4897 -0.3153
  702HK4    C1158919   1.834   5.960  10.765 -0.1223 -0.1260  0.2985
  702HK4     H458920   1.857   5.989  10.662  2.2126  2.1495  1.4102
  702HK4    C1258921   1.731   6.026  10.829 -0.4992 -0.5589  0.1455
  702HK4     H558922   1.688   6.117  10.784  1.4577 -0.7584 -2.1536
  702HK4    C1358923   1.707   5.994  10.963 -0.5490 -0.2432  0.2126
  702HK4     H658924   1.625   6.050  11.009 -1.9336 -1.8200 -0.2523
  702HK4     C758925   2.001   5.785  10.752  0.0791 -0.1808 -0.3774
  702HK4     O258926   2.067   5.849  10.669  0.2678  0.0552 -0.0509
  702HK4     C458927   2.064   5.664  10.810 -0.1869 -0.2779 -0.2934
  702HK4     C358928   2.164   5.599  10.739  0.1948  0.0063 -0.0175
  702HK4     H358929   2.210   5.655  10.657 -0.9138  1.4108  0.2942
  702HK4     C258930   2.222   5.476  10.769  0.6530  0.2272  0.0025
  702HK4     H258931   2.310   5.430  10.721  1.1252  0.5658  0.5452
  702HK4     C158932   2.175   5.422  10.887 -0.8978  0.1784 -0.6256
  702HK4     H158933   2.231   5.336  10.929 -2.1247 -0.7875 -0.9213
  702HK4     C658934   2.081   5.486  10.971 -0.1903 -0.0354  0.3406
  702HK4     C558935   2.020   5.605  10.931  0.6508  0.4030  0.3475
  702HK4    C1058936   1.908   5.674  11.001  0.4041  0.2583  0.0955
  702HK4     O158937   1.820   5.602  11.047  0.4302 -0.0883 -0.3909
  702HK4    C1658938   2.044   5.408  11.090  0.0812 -0.5177  0.1098
  702HK4    C1558939   2.061   5.268  11.094  0.4032 -0.5252 -1.2127
  702HK4     H758940   2.074   5.199  11.009 -0.0741  0.8356 -2.4025
  702HK4    C2058941   2.035   5.203  11.214 -0.0627  1.0629 -0.4338
  702HK4     H958942   2.041   5.094  11.210  2.3719  1.1535  0.5377
  702HK4    C1958943   1.987   5.258   0.084  0.2323  0.2231  0.0839
  702HK4    C1858944   1.972   5.402   0.078  0.3992  0.2401  0.0357
  702HK4    C1758945   2.011   5.468  11.210 -0.2752  0.0827 -0.2850
  702HK4     H858946   2.020   5.574  11.233 -1.7155 -0.1362  1.4548
  702HK4     N158947   1.930   5.448   0.205 -0.7493 -0.3531 -0.1248
  702HK4    C2158948   1.925   5.334   0.288 -0.3721 -0.0467  0.3220
  702HK4    C2258949   1.963   5.212   0.219  0.5341  0.3185  0.1716
  702HK4    C2658950   1.980   5.093   0.288 -0.6136 -0.0088 -0.0952
  702HK4    H1358951   2.019   5.005   0.236  2.0901  0.3894  1.1486
  702HK4    C2558952   1.977   5.092   0.427 -0.3275  0.7015 -0.0818
  702HK4    H1258953   2.005   4.997   0.473  0.5116  1.5310  1.1594
  702HK4    C2458954   1.957   5.210   0.498 -0.1449  0.5651  0.1971
  702HK4    H1158955   1.955   5.220   0.607 -0.3939 -0.4541  0.2929
  702HK4    C2358956   1.940   5.328   0.426 -0.0457  0.6534  0.3188
  702HK4    H1058957   1.979   5.413   0.482 -0.4278  0.9127  0.1930
  702HK4    C3958958   1.876   5.574   0.230 -0.0842 -0.0257 -0.3422
  702HK4    C4158959   1.889   5.634   0.357 -0.0476 -0.1868 -0.2713
  702HK4    H2158960   1.993   5.633   0.392  0.2210  0.7352 -1.0604
  702HK4    C4258961   1.791   5.706   0.425  0.2250  0.4371 -0.5447
  702HK4    H2258962   1.816   5.758   0.518  2.2992  0.7806 -1.2561
  702HK4    C4358963   1.673   5.736   0.358  0.2285  0.3504 -0.5886
  702HK4    H2358964   1.600   5.805   0.399 -0.6807  0.2146 -1.9405
  702HK4    C4458965   1.657   5.685   0.229 -0.1609  0.6680 -0.6648
  702HK4    H2458966   1.567   5.720   0.177 -0.6046  3.2693  1.7109
  702HK4    C4558967   1.755   5.609   0.167 -0.3917 -0.2781  0.1023
  702HK4    H2558968   1.740   5.581   0.061  0.5412  0.0791 -0.1332
  703HK4    H2858969   0.055   1.446   2.656 -0.3989 -1.6296 -0.4606
  703HK4    C4858970  11.217   1.472   2.718  0.0323 -0.1580 -0.4501
  703HK4    C4758971  11.118   1.375   2.729 -0.0589 -0.0156  0.0407
  703HK4    H2758972  11.125   1.285   2.666 -1.0519 -1.4524  1.9385
  703HK4    C4658973  11.032   1.375   2.837 -0.0985  0.0091  0.0073
  703HK4    H2658974  10.964   1.289   2.845  0.5828 -0.3896  1.5766
  703HK4    C4058975  11.046   1.470   2.941 -0.3121 -0.0091  0.0546
  703HK4    C5058976  11.152   1.562   2.929  0.4165 -0.9102 -0.5458
  703HK4    H3058977  11.184   1.623   3.015 -3.3259  2.7069 -1.5599
  703HK4    C4958978  11.235   1.568   2.817  0.2990 -0.0576 -0.5929
  703HK4    H2958979   0.076   1.632   2.815 -0.0579  0.4919  0.5461
  703HK4     N258980  10.936   1.502   3.021 -0.0791  0.2680  0.2654
  703HK4    C3058981  10.803   1.497   2.974  0.0878  0.1574 -0.2031
  703HK4    C2958982  10.750   1.536   2.852  0.0389  0.6434 -0.0299
  703HK4    H1558983  10.817   1.562   2.770 -0.1398  0.1282 -0.3424
  703HK4    C2858984  10.615   1.557   2.830 -0.1185 -0.4111 -0.1205
  703HK4    C2758985  10.529   1.541   2.941 -0.5015 -0.4478 -0.4222
  703HK4    H1458986  10.420   1.555   2.930 -0.5473 -1.1438 -0.8412
  703HK4    C3258987  10.577   1.495   3.063  0.1871  0.5710 -0.2974
  703HK4    H1658988  10.508   1.467   3.142  1.8230 -1.3615  0.4865
  703HK4    C3158989  10.712   1.468   3.083  0.1114  0.2901 -0.1495
  703HK4    C3458990  10.799   1.447   3.197 -0.1725 -0.1910 -0.0206
  703HK4    C3358991  10.936   1.475   3.159 -0.2735  0.8853  0.3887
  703HK4    C3558992  11.041   1.455   3.248 -0.1130 -0.1117 -0.0155
  703HK4    H1758993  11.146   1.454   3.219  0.4028 -1.9110  1.7860
  703HK4    C3658994  11.013   1.401   3.373 -0.1395  0.0649  0.0559
  703HK4    H1858995  11.092   1.373   3.444 -1.1402  1.8330  1.8883
  703HK4    C3758996  10.881   1.376   3.410 -0.2285  0.1130 -0.2225
  703HK4    H1958997  10.865   1.391   3.517  0.9216 -1.3861  0.1872
  703HK4    C3858998  10.775   1.394   3.323 -0.4935  0.3874  0.1616
  703HK4    H2058999  10.675   1.364   3.356  0.2129  0.5855  2.5964
  703HK4    C1459000  10.555   1.600   2.703  0.0644 -0.1785 -0.1273
  703HK4     C959001  10.436   1.671   2.682  0.4179  0.2655 -0.6639
  703HK4     C859002  10.360   1.645   2.567 -0.3215 -0.0901 -0.1013
  703HK4    C1159003  10.411   1.563   2.467 -0.1479 -0.4780  0.3032
  703HK4     H459004  10.342   1.524   2.391 -0.0883  1.8332 -1.0132
  703HK4    C1259005  10.541   1.513   2.479 -0.0625 -0.2723  0.2638
  703HK4     H559006  10.583   1.470   2.387 -1.8540 -1.5493 -0.0042
  703HK4    C1359007  10.612   1.525   2.598  0.3784 -0.0969 -0.0182
  703HK4     H659008  10.718   1.497   2.606 -0.0195 -1.4950  0.5289
  703HK4     C759009  10.228   1.708   2.541 -0.4653 -0.0871  0.6221
  703HK4     O259010  10.147   1.663   2.461 -0.0866 -0.4806  0.4593
  703HK4     C459011  10.200   1.829   2.622  0.2776  0.8576 -0.5226
  703HK4     C359012  10.086   1.903   2.593 -0.3696  0.0677 -0.0210
  703HK4     H359013  10.044   1.892   2.492 -0.7493 -0.6403  0.2122
  703HK4     C259014  10.028   1.993   2.681 -0.5469 -0.0871  0.0205
  703HK4     H259015   9.922   2.022   2.666 -0.1826  0.9949 -0.5480
  703HK4     C159016  10.094   2.014   2.801 -0.2428 -0.2651 -0.1168
  703HK4     H159017  10.091   2.113   2.850  0.4209  0.4946 -1.5629
  703HK4     C659018  10.205   1.935   2.837  0.2441  0.3979 -0.1453
  703HK4     C559019  10.271   1.858   2.740 -0.3012 -0.4638  0.1602
  703HK4    C1059020  10.403   1.793   2.761 -0.2563 -0.3969  0.0880
  703HK4     O159021  10.493   1.863   2.807 -0.6763  0.0635  0.2113
  703HK4    C1659022  10.208   1.897   2.979 -0.0685  0.0002 -0.2441
  703HK4    C1559023  10.091   1.862   3.051  0.4569  0.1992  0.7159
  703HK4     H759024  10.013   1.809   2.996  0.3241  0.1442  0.9627
  703HK4    C2059025  10.088   1.864   3.189 -0.1053 -0.0257  0.7079
  703HK4     H959026   9.992   1.855   3.239  0.0901 -1.7220  0.8009
  703HK4    C1959027  10.204   1.895   3.261 -0.0444  0.2171  0.5080
  703HK4    C1859028  10.327   1.926   3.192 -0.1878 -0.2629  0.0283
  703HK4    C1759029  10.319   1.934   3.053 -0.4264  0.4420  0.0763
  703HK4     H859030  10.386   1.996   2.994 -0.9128  1.2359  0.3474
  703HK4     N159031  10.428   1.968   3.281 -0.0862  0.4096 -0.3992
  703HK4    C2159032  10.363   1.973   3.406  0.0680  0.7905 -0.3343
  703HK4    C2259033  10.230   1.917   3.402  0.2064  0.3941  0.4341
  703HK4    C2659034  10.156   1.895   3.517 -0.2348  0.3287  0.1378
  703HK4    H1359035  10.050   1.871   3.503 -0.2402 -0.1448  0.9590
  703HK4    C2559036  10.216   1.911   3.641 -0.2580 -0.3527  0.2375
  703HK4    H1259037  10.167   1.873   3.731  1.2183 -0.4467  1.0155
  703HK4    C2459038  10.345   1.963   3.647 -0.3652 -0.0389 -0.1961
  703HK4    H1159039  10.391   1.960   3.746 -1.1250 -0.4020  0.1479
  703HK4    C2359040  10.415   1.999   3.532 -0.1407 -0.0697 -0.0677
  703HK4    H1059041  10.523   2.013   3.530  0.0044 -1.2907 -2.5747
  703HK4    C3959042  10.566   1.952   3.258 -0.0947 -0.6480  0.2212
  703HK4    C4159043  10.663   2.019   3.335 -0.1430  0.2350 -0.4679
  703HK4    H2159044  10.638   2.113   3.387  3.0268  0.9607 -0.1612
  703HK4    C4259045  10.797   1.994   3.309  0.0419  0.1105  0.5490
  703HK4    H2259046  10.870   2.043   3.375 -0.2279  1.1042  0.1326
  703HK4    C4359047  10.841   1.903   3.213 -0.3451  0.1497  0.3309
  703HK4    H2359048  10.947   1.876   3.207 -0.4274 -0.2837  0.7889
  703HK4    C4459049  10.746   1.837   3.137  0.0185 -0.4961  0.4281
  703HK4    H2459050  10.777   1.777   3.050 -0.5148  0.0491 -0.1513
  703HK4    C4559051  10.611   1.862   3.160 -0.0293 -0.3836  0.0090
  703HK4    H2559052  10.546   1.788   3.111  0.5587 -0.7249 -0.2596
  704HK4    H2859053   0.849   0.194   0.702 -0.4253 -1.1545  0.4971
  704HK4    C4859054   0.745   0.197   0.734 -0.3636 -0.7299  0.6494
  704HK4    C4759055   0.673   0.082   0.707  0.2462 -1.0139  0.2310
  704HK4    H2759056   0.725   0.008   0.645 -1.0928 -2.5670  0.9161
  704HK4    C4659057   0.550   0.056   0.767  0.0134 -0.0370  0.1859
  704HK4    H2659058   0.497  11.211   0.742 -0.6890  1.1924 -3.2376
  704HK4    C4059059   0.484   0.148   0.851 -0.1744  0.3323 -0.3613
  704HK4    C5059060   0.561   0.264   0.876 -0.0870  0.1280  0.3206
  704HK4    H3059061   0.517   0.351   0.926 -0.4703 -0.6260  1.3312
  704HK4    C4959062   0.687   0.287   0.824 -0.3108  0.1631 -0.2008
  704HK4    H2959063   0.740   0.383   0.831 -1.3421  0.6961  0.3069
  704HK4     N259064   0.345   0.154   0.864 -0.1705 -0.1357 -0.0798
  704HK4    C3059065   0.245   0.098   0.781 -0.1739 -0.3997  0.1032
  704HK4    C2959066   0.246   0.046   0.653  0.5627  0.3391 -0.1937
  704HK4    H1559067   0.348   0.036   0.615  0.2038  0.1172 -1.1131
  704HK4    C2859068   0.137  11.240   0.586  0.5262 -0.2522  0.3407
  704HK4    C2759069   0.018  11.238   0.662  0.0416  0.7375 -0.3827
  704HK4    H1459070  11.185  11.168   0.637  0.1843  0.4726 -0.1072
  704HK4    C3259071   0.006   0.045   0.789  0.3394  0.1275 -0.0850
  704HK4    H1659072  11.160   0.032   0.842 -0.3860  1.3446 -1.0160
  704HK4    C3159073   0.118   0.102   0.850 -0.0412  0.4525  0.3085
  704HK4    C3459074   0.136   0.168   0.978  0.1289  0.2047  0.4144
  704HK4    C3359075   0.278   0.193   0.982  0.2097 -0.2200  0.1637
  704HK4    C3559076   0.330   0.244   1.100  0.2939  0.6278 -0.2338
  704HK4    H1759077   0.432   0.280   1.111  0.6313 -0.1926 -0.6552
  704HK4    C3659078   0.250   0.258   1.214  0.4649 -0.1746 -0.0154
  704HK4    H1859079   0.293   0.293   1.309 -0.3228  1.9067 -0.4181
  704HK4    C3759080   0.114   0.231   1.208  0.3653  0.3546 -0.0932
  704HK4    H1959081   0.045   0.251   1.290  0.2708  2.8391 -0.7384
  704HK4    C3859082   0.056   0.185   1.091 -0.1284  0.0882  0.2518
  704HK4    H2059083  11.197   0.167   1.087 -0.9525  4.2079  1.5667
  704HK4    C1459084   0.132  11.235   0.439 -0.0910 -0.4133  0.3672
  704HK4     C959085   0.017  11.247   0.360 -0.0426 -0.0415  0.3549
  704HK4     C859086  11.247  11.176   0.239 -0.2095 -0.4534  0.6240
  704HK4    C1159087   0.107  11.108   0.185 -0.2190 -0.2997  0.4108
  704HK4     H459088   0.085  11.032   0.109 -0.3560 -0.0908  0.2444
  704HK4    C1259089   0.228  11.104   0.254 -0.3373 -0.4845  0.6092
  704HK4     H559090   0.321  11.067   0.207  1.1555 -0.1168  3.1480
  704HK4    C1359091   0.238  11.164   0.379  0.2405  0.1698  0.2568
  704HK4     H659092   0.325  11.140   0.441 -0.6583 -0.8916  1.1401
  704HK4     C759093  11.118  11.182   0.167 -0.4333 -1.0182  0.9707
  704HK4     O259094  11.102  11.111   0.068  0.2716 -0.2142  0.2629
  704HK4     C459095  11.000  11.242   0.231 -0.2581  0.4345 -0.0267
  704HK4     C359096  10.874  11.228   0.174  0.0045 -0.1612 -0.4604
  704HK4     H359097  10.868  11.201   0.068 -0.6443  2.5226 -1.1316
  704HK4     C259098  10.758   0.007   0.247  0.2996  0.2572 -0.1459
  704HK4     H259099  10.662  11.214   0.213  0.3928 -0.2757  0.2166
  704HK4     C159100  10.770   0.055   0.377 -0.5590 -0.1788  0.0936
  704HK4     H159101  10.683   0.066   0.444  0.5378 -0.1292  1.5346
  704HK4     C659102  10.896   0.085   0.431 -0.5436  0.1178 -0.1070
  704HK4     C559103  11.011   0.059   0.356 -0.3814  0.1501  0.1334
  704HK4    C1059104  11.150   0.082   0.406 -0.2383 -0.0120 -0.1813
  704HK4     O159105  11.179   0.199   0.430  0.1721 -0.2845  0.6758
  704HK4    C1659106  10.901   0.080   0.578 -0.4676 -0.0956 -0.1174
  704HK4    C1559107  10.824  11.234   0.651 -0.1605  0.3101  0.7245
  704HK4     H759108  10.759  11.160   0.604  0.0666  0.9729 -0.6784
  704HK4    C2059109  10.801  11.235   0.788 -0.0237 -0.6560  0.7581
  704HK4     H959110  10.780  11.143   0.842  1.7686 -0.8848  1.0926
  704HK4    C1959111  10.858   0.092   0.859 -0.1598 -0.0903  0.0444
  704HK4    C1859112  10.934   0.192   0.786 -0.2769 -0.0237  0.0141
  704HK4    C1759113  10.952   0.187   0.649  0.7998 -0.8805  0.1769
  704HK4     H859114  10.997   0.273   0.598  2.1440 -1.7520 -0.1164
  704HK4     N159115  10.957   0.295   0.879  0.3350 -0.1839  0.0416
  704HK4    C2159116  10.905   0.263   1.006 -0.0555 -0.3184 -0.1505
  704HK4    C2259117  10.848   0.130   0.999  0.1979 -0.4491  0.1725
  704HK4    C2659118  10.831   0.050   1.111  0.0309 -0.3665  0.2058
  704HK4    H1359119  10.781  11.201   1.105  0.1684 -0.2996 -2.6315
  704HK4    C2559120  10.868   0.099   1.236  0.0555  0.2627 -0.0466
  704HK4    H1259121  10.872   0.034   1.323  0.6927 -0.3048 -0.4981
  704HK4    C2459122  10.930   0.223   1.243  0.1344  0.1780  0.7491
  704HK4    H1159123  10.966   0.257   1.342  0.8589 -0.9505  0.8843
  704HK4    C2359124  10.950   0.304   1.132 -0.4566 -0.5963  0.0811
  704HK4    H1059125  10.990   0.404   1.144 -0.0706 -0.2065 -3.8440
  704HK4    C3959126  11.019   0.418   0.854  0.1310 -0.0378  0.2488
  704HK4    C4159127  10.976   0.538   0.915 -0.2231 -0.2184  0.3564
  704HK4    H2159128  10.889   0.540   0.982  0.0571  0.7580  0.7013
  704HK4    C4259129  11.037   0.660   0.889 -0.3325 -0.2894 -0.2235
  704HK4    H2259130  11.020   0.747   0.954  0.3138  1.3569 -2.1813
  704HK4    C4359131  11.140   0.670   0.796  0.0846  0.4882  0.3114
  704HK4    H2359132  11.176   0.764   0.755  0.6341  0.0979 -0.1113
  704HK4    C4459133  11.192   0.550   0.750 -0.1119  0.4847  0.1002
  704HK4    H2459134   0.036   0.556   0.689  1.8897 -0.5132  2.9056
  704HK4    C4559135  11.136   0.425   0.776 -0.3168  0.4701 -0.3915
  704HK4    H2559136  11.197   0.334   0.771 -1.4785 -0.3933  0.9085
  705HK4    H2859137   8.029   5.824   1.261  0.1966 -0.6388 -0.4570
  705HK4    C4859138   8.004   5.748   1.335  0.2218  0.0433  0.2488
  705HK4    C4759139   7.870   5.712   1.344  0.2760 -0.2925 -0.2759
  705HK4    H2759140   7.799   5.734   1.263 -0.5533  0.7888  0.7188
  705HK4    C4659141   7.827   5.619   1.438  0.5541  0.1482  0.2930
  705HK4    H2659142   7.721   5.590   1.430  0.8334 -0.7937  0.0434
  705HK4    C4059143   7.918   5.559   1.526 -0.0078 -1.0149  0.0914
  705HK4    C5059144   8.055   5.590   1.511 -0.2276  0.0340  0.1923
  705HK4    H3059145   8.133   5.537   1.568  1.5988  2.0073 -0.3896
  705HK4    C4959146   8.096   5.684   1.417  0.1956 -0.4307 -0.0906
  705HK4    H2959147   8.202   5.713   1.403 -0.8307  4.2263  0.9245
  705HK4     N259148   7.876   5.506   1.649 -0.1021 -0.5641  0.2541
  705HK4    C3059149   7.747   5.525   1.701  0.0399  0.3801  0.2757
  705HK4    C2959150   7.642   5.613   1.674 -0.3605 -0.2289 -0.1492
  705HK4    H1559151   7.667   5.696   1.609 -2.4371 -0.6686 -1.5845
  705HK4    C2859152   7.521   5.611   1.742 -0.2648 -0.0573  0.0266
  705HK4    C2759153   7.508   5.529   1.856  0.5214  0.0714  0.2110
  705HK4    H1459154   7.427   5.540   1.929  1.3149  1.0929  0.9613
  705HK4    C3259155   7.611   5.443   1.890  0.0100 -0.3688  0.6605
  705HK4    H1659156   7.587   5.384   1.978  1.5887  1.2485  2.2341
  705HK4    C3159157   7.730   5.440   1.817 -0.6286 -0.3868 -0.3813
  705HK4    C3459158   7.852   5.363   1.830 -0.4340 -0.0046  0.0723
  705HK4    C3359159   7.936   5.399   1.717  0.3361 -0.0912  0.6147
  705HK4    C3559160   8.050   5.322   1.698  0.2048 -0.2323  0.3905
  705HK4    H1759161   8.116   5.339   1.613 -1.5131 -1.8745 -1.3351
  705HK4    C3659162   8.082   5.218   1.785  0.3128 -0.2426  0.3382
  705HK4    H1859163   8.163   5.152   1.751 -0.7714 -2.3054  1.6251
  705HK4    C3759164   8.006   5.191   1.898 -0.2588 -0.0642  0.0025
  705HK4    H1959165   8.046   5.114   1.965 -0.0134 -0.1580 -0.2540
  705HK4    C3859166   7.886   5.259   1.916 -0.2263 -0.0047 -0.0120
  705HK4    H2059167   7.821   5.236   2.000 -0.2978 -1.8799 -0.5565
  705HK4    C1459168   7.416   5.702   1.693 -0.1244 -0.0933 -0.3417
  705HK4     C959169   7.300   5.730   1.765  0.0292 -0.2430 -0.0364
  705HK4     C859170   7.173   5.743   1.705 -0.0389 -0.2802  0.0953
  705HK4    C1159171   7.167   5.751   1.566  0.5121  0.0314  0.0868
  705HK4     H459172   7.068   5.752   1.517  0.1191 -0.0447  0.8724
  705HK4    C1259173   7.285   5.748   1.493  0.5012 -0.2428  0.0823
  705HK4     H559174   7.275   5.747   1.383 -1.9559  0.5296  0.2600
  705HK4    C1359175   7.407   5.726   1.554  0.7308 -0.5756 -0.4845
  705HK4     H659176   7.492   5.696   1.491  1.4459 -1.9017  1.0649
  705HK4     C759177   7.053   5.775   1.786  0.1873  0.6777  0.0648
  705HK4     O259178   6.942   5.790   1.735 -0.1862  0.0766  0.6938
  705HK4     C459179   7.059   5.787   1.933  0.2486  0.9146  0.0431
  705HK4     C359180   6.939   5.800   2.001  0.1876 -0.6890  0.2604
  705HK4     H359181   6.840   5.799   1.953 -0.5607  1.9112  1.6346
  705HK4     C259182   6.941   5.823   2.138 -0.1773  0.5037  0.0677
  705HK4     H259183   6.845   5.841   2.188  0.6812  1.1559  1.5225
  705HK4     C159184   7.063   5.825   2.205 -0.0409 -0.2403 -0.1592
  705HK4     H159185   7.066   5.850   2.312 -0.3050  2.4067 -0.7210
  705HK4     C659186   7.183   5.807   2.133  0.1029  0.0378  0.0085
  705HK4     C559187   7.186   5.787   1.994  0.2587 -0.2236  0.0490
  705HK4    C1059188   7.306   5.773   1.907  0.2001 -0.3508 -0.0112
  705HK4     O159189   7.407   5.835   1.941 -0.0254 -0.0619  0.1348
  705HK4    C1659190   7.303   5.837   2.213  0.1538  0.0601 -0.0775
  705HK4    C1559191   7.302   5.932   2.317 -0.5038 -0.2956  0.2405
  705HK4     H759192   7.260   6.027   2.281 -0.4129 -0.6395 -0.8088
  705HK4    C2059193   7.387   5.920   2.426 -0.5423 -0.4598  0.2527
  705HK4     H959194   7.406   6.003   2.494 -0.4000 -0.1568 -0.1554
  705HK4    C1959195   7.473   5.811   2.436  0.3632  0.2387  0.1509
  705HK4    C1859196   7.487   5.717   2.326 -0.4119  0.1538  0.1216
  705HK4    C1759197   7.392   5.731   2.225 -0.1422 -0.2023 -0.1800
  705HK4     H859198   7.383   5.649   2.154  1.1379  0.4858 -1.1492
  705HK4     N159199   7.574   5.609   2.349  0.0358  0.5007  0.0617
  705HK4    C2159200   7.597   5.623   2.488 -0.1654 -0.1891  0.1677
  705HK4    C2259201   7.538   5.742   2.545  0.1763  0.0054  0.1144
  705HK4    C2659202   7.520   5.755   2.682 -0.5318 -0.1342  0.0332
  705HK4    H1359203   7.496   5.853   2.723  0.5403  0.7488 -1.3882
  705HK4    C2559204   7.553   5.653   2.770  0.0902 -0.1943 -0.2719
  705HK4    H1259205   7.524   5.650   2.875  0.2241 -0.1782 -0.2340
  705HK4    C2459206   7.613   5.537   2.721  0.3796 -0.3720  0.5047
  705HK4    H1159207   7.618   5.447   2.784  0.8545 -1.4693 -1.0832
  705HK4    C2359208   7.631   5.528   2.584  0.4032  0.3121  0.4626
  705HK4    H1059209   7.696   5.450   2.545  1.8117  2.0764 -0.8365
  705HK4    C3959210   7.657   5.558   2.249  0.0084  0.2547  0.1635
  705HK4    C4159211   7.714   5.430   2.269  0.3304  0.3182 -0.3314
  705HK4    H2159212   7.655   5.349   2.314 -1.3873  1.3640 -0.6267
  705HK4    C4259213   7.839   5.403   2.216  0.4522 -0.2052  0.2166
  705HK4    H2259214   7.873   5.298   2.221 -0.2540 -0.5923 -2.1344
  705HK4    C4359215   7.912   5.495   2.142 -0.1674 -0.6677 -0.9823
  705HK4    H2359216   8.015   5.475   2.112 -0.5533 -1.7563 -1.6245
  705HK4    C4459217   7.855   5.621   2.123 -0.3916 -0.6320 -0.1086
  705HK4    H2459218   7.920   5.702   2.087 -0.2870 -0.1259  1.2054
  705HK4    C4559219   7.727   5.650   2.168 -0.1730  0.2255 -0.0291
  705HK4    H2559220   7.690   5.752   2.152 -0.7756  0.1139  0.6185
  706HK4    H2859221   0.246   6.729   5.846  1.9946 -1.7744  1.9704
  706HK4    C4859222   0.166   6.657   5.826  0.5008  0.3884 -0.0411
  706HK4    C4759223   0.201   6.536   5.768 -0.3854  0.3534 -0.5052
  706HK4    H2759224   0.307   6.524   5.741 -0.8545 -1.0037 -1.8417
  706HK4    C4659225   0.109   6.434   5.748  0.0698 -0.1586  0.0249
  706HK4    H2659226   0.133   6.329   5.723 -0.9006 -0.9871  2.4259
  706HK4    C4059227  11.222   6.447   5.786 -0.0785 -0.4029 -0.4130
  706HK4    C5059228  11.190   6.569   5.850  0.3950 -0.3991 -0.1845
  706HK4    H3059229  11.087   6.584   5.883  0.2669  1.4810 -1.3513
  706HK4    C4959230   0.035   6.671   5.870  0.1649 -0.0429 -0.9156
  706HK4    H2959231  11.236   6.767   5.894 -0.1907 -0.7994  1.6003
  706HK4     N259232  11.118   6.372   5.729 -0.1203 -0.3133 -0.4535
  706HK4    C3059233  11.125   6.321   5.598  0.1890  0.0059 -0.5604
  706HK4    C2959234  11.191   6.375   5.488  0.0050  0.5222 -0.4174
  706HK4    H1559235  11.220   6.480   5.497 -0.7060  0.6807  0.1093
  706HK4    C2859236  11.193   6.312   5.364 -0.5654 -0.1890 -0.0706
  706HK4    C2759237  11.123   6.191   5.349 -0.2856 -0.3375 -0.1831
  706HK4    H1459238  11.104   6.139   5.254  0.3487  1.8243 -1.5216
  706HK4    C3259239  11.054   6.136   5.456 -0.1741 -0.0479  0.0384
  706HK4    H1659240  10.966   6.072   5.446 -1.8465  2.0391  1.0028
  706HK4    C3159241  11.063   6.191   5.584  0.3571 -0.1454  0.0412
  706HK4    C3459242  11.019   6.162   5.719  0.3707 -0.2512  0.0246
  706HK4    C3359243  11.034   6.282   5.798  0.2048 -0.2411  0.0403
  706HK4    C3559244  10.973   6.286   5.923  0.0619 -0.2444 -0.0322
  706HK4    H1759245  11.000   6.369   5.989  1.6158  1.1007 -2.2917
  706HK4    C3659246  10.900   6.180   5.975  0.5204 -0.4625  0.1664
  706HK4    H1859247  10.838   6.184   6.066 -1.2118  1.3825 -1.0562
  706HK4    C3759248  10.881   6.069   5.894 -0.5631 -0.0055 -0.2130
  706HK4    H1959249  10.813   5.990   5.926  1.6825 -1.8241  0.2173
  706HK4    C3859250  10.941   6.058   5.769  0.3402 -0.1297  0.2313
  706HK4    H2059251  10.922   5.974   5.703 -2.1189  0.8437 -0.3338
  706HK4    C1459252   0.006   6.380   5.249 -0.6757  0.4078  0.2202
  706HK4     C959253  11.212   6.366   5.116 -0.1978 -0.0833  0.1212
  706HK4     C859254   0.052   6.369   5.005 -0.1990  0.5689  0.1391
  706HK4    C1159255   0.188   6.393   5.025 -0.1163  0.1153  0.1298
  706HK4     H459256   0.259   6.392   4.941 -0.4533 -1.1005 -0.1540
  706HK4    C1259257   0.234   6.414   5.155  0.0250  0.0668  0.0876
  706HK4     H559258   0.338   6.416   5.189 -0.2389  0.2404  0.8961
  706HK4    C1359259   0.143   6.413   5.260 -0.3566 -0.7401 -0.2492
  706HK4     H659260   0.170   6.451   5.359 -0.5968 -3.4206  0.8955
  706HK4     C759261  11.246   6.360   4.868 -0.0970  0.1119  0.1293
  706HK4     O259262   0.067   6.297   4.788  0.4285  0.2677  0.4611
  706HK4     C459263  11.098   6.369   4.855 -0.1341  0.1859  0.5892
  706HK4     C359264  11.053   6.388   4.725 -0.2165  0.7849  0.7038
  706HK4     H359265  11.120   6.431   4.650 -0.8536  0.1270 -0.2574
  706HK4     C259266  10.924   6.345   4.693  0.3581 -0.5198  0.1097
  706HK4     H259267  10.881   6.353   4.593 -1.2539 -2.2271  0.6280
  706HK4     C159268  10.852   6.279   4.792 -0.5543 -0.1945 -0.3341
  706HK4     H159269  10.744   6.291   4.778 -0.7628  0.3823  1.5453
  706HK4     C659270  10.896   6.255   4.924 -0.4480  0.2150 -0.2941
  706HK4     C559271  11.021   6.310   4.957 -0.3337 -0.3012  0.1520
  706HK4    C1059272  11.066   6.346   5.094 -0.1809 -0.1417  0.0570
  706HK4     O159273  10.982   6.407   5.159 -0.3237 -0.4761  0.1842
  706HK4    C1659274  10.822   6.146   4.991  0.4048 -0.3769 -0.3117
  706HK4    C1559275  10.727   6.072   4.917 -0.0603 -0.4320  0.3423
  706HK4     H759276  10.750   6.022   4.822 -0.3276 -1.6683  0.9293
  706HK4    C2059277  10.608   6.034   4.978 -0.3570  0.1254  0.1254
  706HK4     H959278  10.530   5.992   4.914  2.1662 -3.3777 -0.8262
  706HK4    C1959279  10.586   6.052   5.114 -0.2945  0.0651  0.1420
  706HK4    C1859280  10.696   6.102   5.194 -0.3083  0.3103  0.0080
  706HK4    C1759281  10.810   6.149   5.129 -0.3490 -0.1190 -0.3806
  706HK4     H859282  10.900   6.150   5.190 -1.5102 -1.0271  1.3772
  706HK4     N159283  10.646   6.110   5.325 -0.0486  0.0609  0.1242
  706HK4    C2159284  10.510   6.072   5.330 -0.0709  0.1560  0.2764
  706HK4    C2259285  10.467   6.038   5.195 -0.1357 -0.0694  0.3522
  706HK4    C2659286  10.332   6.043   5.162 -0.0380 -0.4637 -0.1016
  706HK4    H1359287  10.313   6.072   5.059 -0.4839 -0.6872 -0.0822
  706HK4    C2559288  10.234   6.080   5.253  0.2544  0.1079 -0.0163
  706HK4    H1259289  10.129   6.099   5.228  0.3884  2.9208  1.3033
  706HK4    C2459290  10.274   6.108   5.383  0.3294  0.0161 -0.0201
  706HK4    H1159291  10.196   6.140   5.454  0.8189  2.1701 -0.4211
  706HK4    C2359292  10.409   6.103   5.419  0.2318  0.6594  0.4432
  706HK4    H1059293  10.441   6.105   5.523 -0.5033  0.5840  0.6769
  706HK4    C3959294  10.700   6.200   5.418  0.5290 -0.1362 -0.0189
  706HK4    C4159295  10.683   6.183   5.557 -0.6410 -0.2971 -0.1789
  706HK4    H2159296  10.637   6.089   5.590  1.7114 -1.3561  0.1874
  706HK4    C4259297  10.715   6.277   5.655 -0.1742 -0.4434 -0.1871
  706HK4    H2259298  10.682   6.265   5.759 -0.9892  0.9945 -0.2625
  706HK4    C4359299  10.762   6.401   5.614  0.3610 -0.5842  0.0069
  706HK4    H2359300  10.783   6.477   5.689 -0.8648 -0.3821  0.1593
  706HK4    C4459301  10.776   6.427   5.478 -0.7934  0.1728  0.0281
  706HK4    H2459302  10.811   6.527   5.448 -1.7529  0.4667 -0.1311
  706HK4    C4559303  10.744   6.329   5.385  0.3771 -0.1016 -0.0875
  706HK4    H2559304  10.752   6.366   5.281  1.8778  1.4646  0.5495
  707HK4    H2859305   4.801   6.142  11.136  0.6229 -2.2380 -1.0841
  707HK4    C4859306   4.697   6.141  11.105  0.2305  0.2205  0.0869
  707HK4    C4759307   4.640   6.262  11.066 -0.0530 -0.1268 -0.5915
  707HK4    H2759308   4.710   6.338  11.028  0.0682  0.6150  1.0602
  707HK4    C4659309   4.503   6.283  11.071  0.0423  0.3103  0.5053
  707HK4    H2659310   4.451   6.370  11.028 -0.4336 -0.4584 -0.4948
  707HK4    C4059311   4.419   6.177  11.112  0.0953  0.1176  0.1162
  707HK4    C5059312   4.481   6.051  11.129 -0.4584 -0.1457  0.2034
  707HK4    H3059313   4.424   5.976  11.185  1.4631 -1.8007 -0.0210
  707HK4    C4959314   4.618   6.029  11.127 -0.3652  0.4788 -0.7118
  707HK4    H2959315   4.662   5.931  11.153  2.4245  1.5324 -1.2217
  707HK4     N259316   4.297   6.201  11.175  0.1749  0.2365  0.2235
  707HK4    C3059317   4.258   6.319  11.241 -0.7107 -0.0416  0.2102
  707HK4    C2959318   4.324   6.416   0.068 -0.3220 -0.0635 -0.1015
  707HK4    H1559319   4.430   6.396   0.087 -0.1328  0.3327 -0.7233
  707HK4    C2859320   4.265   6.530   0.121 -0.4123 -0.3721  0.4761
  707HK4    C2759321   4.128   6.543   0.092 -0.4377 -0.0773  0.7279
  707HK4    H1459322   4.073   6.637   0.107 -2.7808 -0.9542 -1.9508
  707HK4    C3259323   4.053   6.443   0.031 -0.4282  0.5319 -0.2826
  707HK4    H1659324   3.946   6.462   0.017 -0.8366 -1.3752  0.1010
  707HK4    C3159325   4.114   6.327  11.232 -0.6893  0.2381  0.1034
  707HK4    C3459326   4.061   6.213  11.161  0.4272  0.1712 -0.6190
  707HK4    C3359327   4.179   6.133  11.137  0.4055 -0.0618  0.0428
  707HK4    C3559328   4.155   6.015  11.066  0.3950  0.0262 -0.1019
  707HK4    H1759329   4.232   5.941  11.050  1.2060  1.0681 -1.1146
  707HK4    C3659330   4.026   5.984  11.023  0.5214  0.2982 -0.6929
  707HK4    H1859331   4.004   5.882  10.989  0.3893  0.4128 -0.9456
  707HK4    C3759332   3.922   6.075  11.039 -0.1285 -0.5519 -0.0074
  707HK4    H1959333   3.823   6.035  11.016  0.8314 -3.7647  1.1093
  707HK4    C3859334   3.932   6.191  11.114  0.2631 -0.7549  0.2549
  707HK4    H2059335   3.848   6.246  11.157  2.4640  1.0813  2.3496
  707HK4    C1459336   4.319   6.601   0.238  0.2710  0.1278 -0.1312
  707HK4     C959337   4.238   6.631   0.348  0.7445 -0.2507  0.3231
  707HK4     C859338   4.253   6.752   0.419 -0.1611  0.0147  0.0719
  707HK4    C1159339   4.361   6.831   0.381 -0.2396  0.0309 -0.1188
  707HK4     H459340   4.379   6.925   0.436 -1.5606 -1.2626  2.6666
  707HK4    C1259341   4.446   6.800   0.276 -0.3187  0.7246 -0.3896
  707HK4     H559342   4.524   6.868   0.238  1.1221 -1.1991 -0.9484
  707HK4    C1359343   4.427   6.683   0.202  0.2333  0.2983  0.1420
  707HK4     H659344   4.495   6.644   0.124  0.6749 -0.4719  0.9027
  707HK4     C759345   4.158   6.799   0.523 -0.3861  0.0197 -0.1375
  707HK4     O259346   4.172   6.910   0.574 -0.6122 -0.2486  0.5123
  707HK4     C459347   4.058   6.702   0.572 -0.3534  0.0990  0.0845
  707HK4     C359348   3.975   6.742   0.676 -0.1134 -0.0800  0.3489
  707HK4     H359349   3.998   6.837   0.725  0.9057 -0.4921  0.6764
  707HK4     C259350   3.862   6.668   0.712 -0.1473  0.0466  0.5028
  707HK4     H259351   3.794   6.688   0.796 -2.1026 -1.2083 -0.7402
  707HK4     C159352   3.831   6.555   0.637  0.1438  0.0179  0.4239
  707HK4     H159353   3.748   6.491   0.671 -0.4383 -0.1323 -1.2388
  707HK4     C659354   3.909   6.515   0.527  0.0378 -0.1663  0.4148
  707HK4     C559355   4.030   6.582   0.503 -0.3972  0.3525 -0.3371
  707HK4    C1059356   4.134   6.541   0.404  0.0495  0.4115  0.1061
  707HK4     O159357   4.166   6.423   0.415  0.4100  0.5112  0.1174
  707HK4    C1659358   3.847   6.424   0.430 -0.2971 -0.0075  0.4789
  707HK4    C1559359   3.719   6.459   0.381 -0.1778  0.3696  0.4293
  707HK4     H759360   3.675   6.555   0.413 -1.5296 -0.3340  0.7274
  707HK4    C2059361   3.634   6.372   0.314  1.0161 -0.2093 -0.3675
  707HK4     H959362   3.537   6.409   0.279  1.1090 -0.0289 -0.4358
  707HK4    C1959363   3.670   6.239   0.301  0.5248 -0.3450 -0.3417
  707HK4    C1859364   3.800   6.201   0.351  0.2177 -0.1504  0.6052
  707HK4    C1759365   3.885   6.291   0.414 -0.0515  0.0364  0.7006
  707HK4     H859366   3.972   6.245   0.460 -0.2704  0.1624  1.2403
  707HK4     N159367   3.823   6.066   0.318 -0.0323 -0.0221 -0.0999
  707HK4    C2159368   3.711   6.020   0.246  0.2545 -0.2056 -0.4307
  707HK4    C2259369   3.609   6.123   0.238  0.0132 -0.3933  0.2336
  707HK4    C2659370   3.481   6.086   0.197 -0.0369 -0.3127  0.3202
  707HK4    H1359371   3.405   6.162   0.216  1.5645  1.5968 -0.6695
  707HK4    C2559372   3.449   5.954   0.168  0.2952 -0.3371  0.0578
  707HK4    H1259373   3.351   5.926   0.130  0.2500 -0.4277  0.2356
  707HK4    C2459374   3.545   5.854   0.180 -0.0347 -0.6695 -0.0981
  707HK4    H1159375   3.512   5.752   0.156 -0.7573 -0.1683 -1.2773
  707HK4    C2359376   3.675   5.891   0.210 -0.1808 -0.1998 -0.0272
  707HK4    H1059377   3.749   5.815   0.183  1.3518  1.4929 -0.6886
  707HK4    C3959378   3.951   6.010   0.321  0.0186  0.0921 -0.1268
  707HK4    C4159379   3.962   5.869   0.316  0.1361  0.1155 -0.5799
  707HK4    H2159380   3.880   5.819   0.370 -1.2353  1.8797 -0.9696
  707HK4    C4259381   4.075   5.803   0.268  0.0090  0.1088 -0.8706
  707HK4    H2259382   4.107   5.708   0.314 -0.6380  1.3632  2.3209
  707HK4    C4359383   4.179   5.875   0.212  0.2689  0.2151 -0.2573
  707HK4    H2359384   4.262   5.822   0.164 -0.1786 -1.6472  0.9741
  707HK4    C4459385   4.167   6.013   0.214 -0.1179  0.1938 -0.9556
  707HK4    H2459386   4.230   6.065   0.140  0.3825 -0.2746 -0.8580
  707HK4    C4559387   4.059   6.083   0.268  0.1777 -0.0637 -0.0191
  707HK4    H2559388   4.061   6.191   0.287 -1.1391  0.1373 -0.9530
  708HK4    H2859389   9.458   4.460   5.742 -0.5343 -0.1272  1.3316
  708HK4    C4859390   9.373   4.405   5.702 -0.1405 -0.0612  0.3823
  708HK4    C4759391   9.393   4.314   5.599  0.3086  0.8362 -0.3335
  708HK4    H2759392   9.491   4.271   5.575 -0.7065 -1.4285 -0.5749
  708HK4    C4659393   9.282   4.263   5.533  0.2538  0.1232  0.2967
  708HK4    H2659394   9.302   4.193   5.450  1.5651  0.8669 -0.0220
  708HK4    C4059395   9.150   4.302   5.562  0.2559  0.6299 -0.3614
  708HK4    C5059396   9.134   4.401   5.662 -0.3103 -0.4089  0.5888
  708HK4    H3059397   9.038   4.434   5.705 -0.4396  1.3671 -0.9888
  708HK4    C4959398   9.244   4.449   5.732 -0.0931  0.6611 -0.4695
  708HK4    H2959399   9.222   4.511   5.819  1.8671 -3.1337  2.8986
  708HK4     N259400   9.052   4.291   5.462  0.1647  0.2146 -0.2285
  708HK4    C3059401   9.081   4.279   5.324 -0.0583 -0.3279 -0.2312
  708HK4    C2959402   9.175   4.347   5.247  0.3820 -0.3347  0.2998
  708HK4    H1559403   9.250   4.398   5.307 -0.3408  0.1095  0.8396
  708HK4    C2859404   9.181   4.345   5.108 -0.2915 -0.0067  0.2628
  708HK4    C2759405   9.081   4.270   5.042  0.0783 -0.8288  0.6323
  708HK4    H1459406   9.071   4.291   4.935  0.4558 -0.8778  0.5867
  708HK4    C3259407   8.975   4.212   5.111 -0.1323 -0.5813  0.5142
  708HK4    H1659408   8.890   4.175   5.055  0.2408  0.7714 -0.9827
  708HK4    C3159409   8.975   4.214   5.250 -0.2377 -0.9046  0.5184
  708HK4    C3459410   8.865   4.201   5.344 -0.4811  0.2898  0.4102
  708HK4    C3359411   8.922   4.239   5.472  0.2210  0.1482  0.1460
  708HK4    C3559412   8.833   4.254   5.578 -0.1804 -0.2368 -0.1348
  708HK4    H1759413   8.869   4.282   5.677  0.6380 -0.0989 -0.4677
  708HK4    C3659414   8.696   4.229   5.567 -0.2419 -0.1666  0.4723
  708HK4    H1859415   8.634   4.230   5.658 -2.2417 -1.8529 -0.8358
  708HK4    C3759416   8.647   4.190   5.443  0.2785  0.5165  0.0504
  708HK4    H1959417   8.539   4.186   5.429  0.1141  0.5751  1.2037
  708HK4    C3859418   8.729   4.179   5.331 -0.4333  0.4992 -0.4679
  708HK4    H2059419   8.679   4.143   5.241 -1.5513  0.9125 -0.0314
  708HK4    C1459420   9.250   4.453   5.036 -0.0144 -0.2547  0.1539
  708HK4     C959421   9.219   4.515   4.914  0.1021  0.0109  0.2565
  708HK4     C859422   9.320   4.566   4.831  0.1215  0.0889  0.3318
  708HK4    C1159423   9.453   4.556   4.869  0.1773 -0.2787  0.0495
  708HK4     H459424   9.530   4.608   4.810  0.7294 -0.4246  0.6325
  708HK4    C1259425   9.487   4.489   4.986 -0.0839 -0.3206  0.1010
  708HK4     H559426   9.590   4.495   5.025  0.9008  0.8173 -2.5526
  708HK4    C1359427   9.386   4.447   5.072 -0.0864  0.6748  0.5944
  708HK4     H659428   9.411   4.388   5.161 -1.9134 -1.1868 -0.0886
  708HK4     C759429   9.289   4.633   4.702  0.3220 -0.2877  0.0871
  708HK4     O259430   9.377   4.659   4.620  0.1111 -0.2476 -0.1245
  708HK4     C459431   9.150   4.646   4.653  0.2753  0.2215  0.3478
  708HK4     C359432   9.125   4.707   4.530  0.0700 -0.4976  0.0271
  708HK4     H359433   9.210   4.755   4.478 -1.2548  2.6304  0.6534
  708HK4     C259434   8.996   4.714   4.480 -0.0118  0.3906  0.3544
  708HK4     H259435   8.978   4.751   4.378  0.3546  0.1552  0.2014
  708HK4     C159436   8.896   4.653   4.554 -0.3991  0.1977 -0.3231
  708HK4     H159437   8.804   4.628   4.499  0.5263 -2.0926 -0.8636
  708HK4     C659438   8.914   4.606   4.686  0.0496  0.0699 -0.4286
  708HK4     C559439   9.044   4.606   4.737 -0.0278 -0.2236 -0.2341
  708HK4    C1059440   9.081   4.554   4.872  0.2887  0.2295 -0.1445
  708HK4     O159441   9.001   4.573   4.963  0.2766  0.1695 -0.1438
  708HK4    C1659442   8.824   4.499   4.730  0.5748 -0.2408 -0.0952
  708HK4    C1559443   8.800   4.390   4.643  0.4707 -0.3205  0.0292
  708HK4     H759444   8.860   4.376   4.551 -3.3903  2.0781 -3.0129
  708HK4    C2059445   8.713   4.290   4.682  0.2320  0.0219  0.3796
  708HK4     H959446   8.713   4.205   4.613 -0.5407  0.7421 -0.5244
  708HK4    C1959447   8.650   4.287   4.806 -0.1005 -0.2741  0.2079
  708HK4    C1859448   8.664   4.403   4.893 -0.3542 -0.2939  0.2751
  708HK4    C1759449   8.749   4.503   4.847  0.1319 -0.9877 -0.3506
  708HK4     H859450   8.739   4.597   4.900  1.2017 -2.4707  2.6421
  708HK4     N159451   8.585   4.389   5.008 -0.2156  0.0577  0.4115
  708HK4    C2159452   8.527   4.261   4.996 -0.0069 -0.0212  0.2557
  708HK4    C2259453   8.576   4.188   4.881 -0.3335 -0.1234  0.1805
  708HK4    C2659454   8.565   4.051   4.861  0.9117 -0.1516 -0.4013
  708HK4    H1359455   8.566   4.011   4.760 -0.9414 -1.2176 -0.0276
  708HK4    C2559456   8.517   3.967   4.961 -0.4141  0.1388 -0.7806
  708HK4    H1259457   8.509   3.859   4.946 -3.6393  0.1805  0.1750
  708HK4    C2459458   8.478   4.037   5.075  0.9212  0.0278 -0.2420
  708HK4    H1159459   8.448   3.971   5.157  0.8244 -1.6522 -1.5963
  708HK4    C2359460   8.479   4.175   5.094 -0.0098 -0.0305  0.2481
  708HK4    H1059461   8.446   4.209   5.192  0.6965 -1.6828  1.0687
  708HK4    C3959462   8.599   4.466   5.125  0.2212 -0.5694  0.7753
  708HK4    C4159463   8.492   4.473   5.217 -0.1530  0.3289  0.2748
  708HK4    H2159464   8.392   4.485   5.175 -0.3447 -0.5056  0.4995
  708HK4    C4259465   8.507   4.507   5.351 -0.2606 -0.3629  0.4642
  708HK4    H2259466   8.421   4.521   5.417  1.4635 -0.9106  2.8994
  708HK4    C4359467   8.635   4.536   5.397 -0.0432 -0.4195 -0.0896
  708HK4    H2359468   8.645   4.558   5.504  0.4612  2.8209 -0.7441
  708HK4    C4459469   8.745   4.524   5.312  0.4708  0.7791  0.3976
  708HK4    H2459470   8.847   4.526   5.352  1.2732  0.5862 -1.6308
  708HK4    C4559471   8.726   4.491   5.179  0.1615  0.1010  0.6005
  708HK4    H2559472   8.809   4.511   5.109  1.4489  3.0424  2.8483
  709HK4    H2859473  10.005  10.377   4.715 -0.2421  1.8151 -1.2812
  709HK4    C4859474  10.105  10.400   4.750 -0.5052 -0.1061  0.8882
  709HK4    C4759475  10.164  10.302   4.830  0.8034 -0.2824 -0.2850
  709HK4    H2759476  10.100  10.214   4.846  0.1573  0.0071 -1.2263
  709HK4    C4659477  10.297  10.325   4.866  0.5521 -0.1595  0.5727
  709HK4    H2659478  10.345  10.232   4.898 -1.5828 -1.0496  1.2988
  709HK4    C4059479  10.373  10.439   4.832  0.7903 -0.6177 -0.4648
  709HK4    C5059480  10.305  10.526   4.745 -0.1420 -0.2993  0.5725
  709HK4    H3059481  10.339  10.629   4.723  0.4051 -0.8610 -1.3196
  709HK4    C4959482  10.173  10.513   4.705 -0.3050 -0.1563  1.0619
  709HK4    H2959483  10.126  10.576   4.628  1.6765 -0.9180 -0.8036
  709HK4     N259484  10.486  10.479   4.905  0.4302 -0.3395 -0.0568
  709HK4    C3059485  10.515  10.449   5.039 -0.1194 -0.1526  0.1041
  709HK4    C2959486  10.425  10.414   5.139  0.0377 -0.5676  0.0983
  709HK4    H1559487  10.318  10.412   5.119  0.1202 -1.8252 -0.2480
  709HK4    C2859488  10.473  10.403   5.269 -0.3385  0.2267  0.3076
  709HK4    C2759489  10.608  10.435   5.299 -0.0986 -0.3586 -0.1393
  709HK4    H1459490  10.654  10.414   5.396  0.3987 -1.6601 -0.6505
  709HK4    C3259491  10.696  10.476   5.199 -0.0653 -0.4214 -0.1348
  709HK4    H1659492  10.801  10.486   5.226 -0.3157 -0.2741  0.8088
  709HK4    C3159493  10.653  10.482   5.067 -0.2522  0.5560 -0.0331
  709HK4    C3459494  10.709  10.535   4.945  0.5951 -0.6036 -0.1587
  709HK4    C3359495  10.599  10.543   4.850  0.1898  0.4813  0.3941
  709HK4    C3559496  10.630  10.587   4.722 -0.1233  0.3190  0.2615
  709HK4    H1759497  10.558  10.567   4.643 -0.7439  3.1252  0.0679
  709HK4    C3659498  10.757  10.636   4.691  0.0298  0.1572  0.6207
  709HK4    H1859499  10.762  10.708   4.608  0.6305 -0.1660  0.3758
  709HK4    C3759500  10.863  10.628   4.780  0.5950 -0.5840 -0.1148
  709HK4    H1959501  10.965  10.653   4.750  0.4803 -1.8534 -1.6504
  709HK4    C3859502  10.836  10.577   4.906  0.5952 -0.5421 -0.0974
  709HK4    H2059503  10.912  10.583   4.984  1.0667 -1.7735 -0.4594
  709HK4    C1459504  10.380  10.388   5.382 -0.3587 -0.0390  0.2497
  709HK4     C959505  10.397  10.452   5.505 -0.8299  0.1893  0.1966
  709HK4     C859506  10.378  10.378   5.623 -1.0381  0.2294  0.1885
  709HK4    C1159507  10.327  10.249   5.612  0.1437 -0.1793 -0.6083
  709HK4     H459508  10.285  10.200   5.701  2.0380 -0.1645  0.3209
  709HK4    C1259509  10.283  10.194   5.492 -0.8691  0.0210 -0.3291
  709HK4     H559510  10.228  10.099   5.482  0.7654 -1.4982  3.7161
  709HK4    C1359511  10.315  10.263   5.376 -0.1487 -0.1293 -0.2162
  709HK4     H659512  10.287  10.223   5.278  1.5320  0.3342 -0.9092
  709HK4     C759513  10.410  10.440   5.754 -0.1244  0.1985 -0.0201
  709HK4     O259514  10.429  10.362   5.847  0.8435  0.3893 -0.0519
  709HK4     C459515  10.450  10.582   5.765 -0.1385  0.1748  0.3574
  709HK4     C359516  10.480  10.637   5.889  0.2857  0.1728  0.2598
  709HK4     H359517  10.494  10.562   5.968  3.6137 -0.7738 -1.1833
  709HK4     C259518  10.514  10.771   5.904  0.1615  0.2696 -0.2931
  709HK4     H259519  10.529  10.813   6.005 -0.1167  1.8067 -0.8833
  709HK4     C159520  10.530  10.848   5.790  0.3437 -0.0199 -0.4634
  709HK4     H159521  10.552  10.956   5.800  0.3681  0.0683 -1.4517
  709HK4     C659522  10.498  10.797   5.663 -0.5071 -0.0845 -0.2310
  709HK4     C559523  10.451  10.665   5.651  0.2096 -0.3619 -0.0343
  709HK4    C1059524  10.421  10.598   5.522 -0.0484  0.1120 -0.2205
  709HK4     O159525  10.366  10.657   5.428 -0.0620 -0.0885 -0.3394
  709HK4    C1659526  10.568  10.870   5.556 -0.0417 -0.2234 -0.0223
  709HK4    C1559527  10.700  10.914   5.575  0.0129  0.0011 -0.9088
  709HK4     H759528  10.754  10.884   5.667 -0.1661 -1.5928 -1.3122
  709HK4    C2059529  10.764  10.997   5.484  0.3204  0.0028 -0.6953
  709HK4     H959530  10.863  11.032   5.512  0.6462 -1.2793 -0.2455
  709HK4    C1959531  10.695  11.041   5.371 -0.2979  0.5128 -0.1228
  709HK4    C1859532  10.552  11.015   5.367 -0.0481 -0.8910 -0.5070
  709HK4    C1759533  10.493  10.921   5.450 -0.2227 -0.2633  0.0845
  709HK4     H859534  10.385  10.908   5.450 -0.3577  0.7374  1.5666
  709HK4     N159535  10.490  11.091   5.266 -0.0100  0.0529  0.1693
  709HK4    C2159536  10.597  11.148   5.193  0.2476 -0.4216  0.1762
  709HK4    C2259537  10.725  11.125   5.257  0.4622  0.5968  0.1338
  709HK4    C2659538  10.841  11.162   5.190  0.7680  0.1899  0.4326
  709HK4    H1359539  10.938  11.140   5.234 -0.6615 -2.5417  2.3756
  709HK4    C2559540  10.834  11.226   5.067  0.1603 -0.7980 -0.0572
  709HK4    H1259541  10.925   0.013   5.017 -0.2813  0.6988  0.1653
  709HK4    C2459542  10.711   0.004   5.008 -0.0474 -0.3719  0.5540
  709HK4    H1159543  10.716   0.059   4.912 -2.6314 -2.6317 -0.9642
  709HK4    C2359544  10.593  11.213   5.070 -0.2459  0.0120  0.4175
  709HK4    H1059545  10.502   0.011   5.031 -0.0236  1.1063  1.1602
  709HK4    C3959546  10.361  11.141   5.284 -0.1950 -0.2175 -0.4203
  709HK4    C4159547  10.288  11.188   5.172  0.3909  0.3130 -0.5832
  709HK4    H2159548  10.298  11.148   5.070 -2.4014 -2.8933  0.3228
  709HK4    C4259549  10.188   0.036   5.182 -0.1673 -0.3405  0.1862
  709HK4    H2259550  10.139   0.082   5.094 -0.7703  1.4210  1.4241
  709HK4    C4359551  10.160   0.087   5.308  0.4065  0.4267  0.0079
  709HK4    H2359552  10.068   0.144   5.322  0.3142  0.1288  0.5923
  709HK4    C4459553  10.232   0.048   5.420  0.2716 -0.0975 -0.0889
  709HK4    H2459554  10.199   0.084   5.518 -1.7622  2.6212 -1.6858
  709HK4    C4559555  10.325  11.193   5.410  0.3188 -0.0275 -0.3462
  709HK4    H2559556  10.375  11.149   5.497  3.7551  1.2590 -1.5757
  710HK4    H2859557   8.584   9.898   4.240  0.8288 -0.9712 -0.6855
  710HK4    C4859558   8.501   9.859   4.180 -0.0401  0.0661 -0.1777
  710HK4    C4759559   8.397   9.938   4.132 -0.0730 -0.0173 -0.2386
  710HK4    H2759560   8.365  10.028   4.186 -1.4194 -1.0323  0.6686
  710HK4    C4659561   8.308   9.884   4.040  0.5369 -0.7316 -0.4151
  710HK4    H2659562   8.252   9.954   3.976  2.3499 -0.4514 -1.7338
  710HK4    C4059563   8.303   9.750   3.997  0.3692 -0.5634 -0.9254
  710HK4    C5059564   8.405   9.674   4.057  0.3057  0.2045  0.1569
  710HK4    H3059565   8.423   9.576   4.010  0.8071 -0.0226  0.7997
  710HK4    C4959566   8.499   9.724   4.146  0.1983 -0.0981  0.4431
  710HK4    H2959567   8.581   9.659   4.180 -0.4873 -0.3593  1.6161
  710HK4     N259568   8.180   9.693   3.960 -0.0490 -0.4327  0.2426
  710HK4    C3059569   8.050   9.727   4.004  0.0789 -0.0110  0.2985
  710HK4    C2959570   8.009   9.753   4.134 -0.3797  0.9806 -0.0409
  710HK4    H1559571   8.084   9.782   4.208 -1.9287  1.6958  1.2652
  710HK4    C2859572   7.877   9.752   4.177 -0.3503 -0.2902  0.0275
  710HK4    C2759573   7.782   9.731   4.075 -0.2110  0.2588 -0.2174
  710HK4    H1459574   7.675   9.748   4.093 -0.3683  1.4199 -2.0961
  710HK4    C3259575   7.815   9.686   3.948  0.0016  0.1716 -0.1304
  710HK4    H1659576   7.748   9.642   3.874 -1.2717  0.8695  0.5851
  710HK4    C3159577   7.948   9.686   3.908  0.0274  0.9091 -0.0464
  710HK4    C3459578   8.018   9.612   3.805 -0.1367 -0.6146  0.9144
  710HK4    C3359579   8.159   9.622   3.840  0.0385 -0.2504  0.1215
  710HK4    C3559580   8.251   9.546   3.769  0.5336  0.3942  0.0658
  710HK4    H1759581   8.353   9.551   3.807  0.2384 -0.1634  0.9646
  710HK4    C3659582   8.214   9.477   3.655 -0.4232 -0.0304  0.6249
  710HK4    H1859583   8.283   9.412   3.599 -0.8832  0.5057 -0.5879
  710HK4    C3759584   8.079   9.475   3.619 -0.1367  0.3664 -0.5009
  710HK4    H1959585   8.056   9.405   3.539  0.8871 -0.9914  0.3647
  710HK4    C3859586   7.980   9.538   3.694  0.3229  0.4572  0.0345
  710HK4    H2059587   7.874   9.517   3.683  0.5929 -0.8147 -0.2543
  710HK4    C1459588   7.849   9.736   4.320 -0.3513  0.6185  0.1337
  710HK4     C959589   7.723   9.695   4.366 -0.1851  0.0762  0.1180
  710HK4     C859590   7.670   9.736   4.490 -0.0307  0.6872 -0.0173
  710HK4    C1159591   7.752   9.813   4.572  0.0740  0.1173  0.4144
  710HK4     H459592   7.727   9.843   4.674  1.9753 -0.8288  1.1858
  710HK4    C1259593   7.881   9.849   4.536  0.2956 -0.7071  0.3697
  710HK4     H559594   7.954   9.885   4.610 -0.2547  0.3227  0.4127
  710HK4    C1359595   7.927   9.811   4.410  0.2817 -0.0783  0.1742
  710HK4     H659596   8.033   9.833   4.389  0.1852  0.4009  0.1747
  710HK4     C759597   7.524   9.727   4.513  0.0322 -0.1351  0.0772
  710HK4     O259598   7.484   9.745   4.628  0.1115  0.2957  0.0399
  710HK4     C459599   7.439   9.681   4.401  0.2627 -0.0128 -0.1484
  710HK4     C359600   7.300   9.686   4.407  0.2309 -0.8745  0.0002
  710HK4     H359601   7.252   9.699   4.505 -2.0057 -0.5891 -1.1119
  710HK4     C259602   7.212   9.643   4.308 -0.4296 -0.7075  0.5092
  710HK4     H259603   7.103   9.637   4.319 -0.4702 -0.9784 -0.0281
  710HK4     C159604   7.267   9.588   4.193 -0.3197  1.2571 -0.3961
  710HK4     H159605   7.200   9.567   4.108 -0.2700 -0.7455  0.0328
  710HK4     C659606   7.407   9.579   4.184 -0.3610  0.0399  0.0587
  710HK4     C559607   7.493   9.614   4.289 -0.1883 -1.2386  0.3542
  710HK4    C1059608   7.641   9.607   4.278 -0.1442  0.2447 -0.0930
  710HK4     O159609   7.689   9.496   4.254 -0.7016 -0.0755  0.2661
  710HK4    C1659610   7.453   9.570   4.044  0.3675  0.1434  0.2887
  710HK4    C1559611   7.410   9.671   3.956  0.3141  0.1437  0.3163
  710HK4     H759612   7.358   9.762   3.989  1.4280  1.2679 -0.9346
  710HK4    C2059613   7.421   9.653   3.819 -0.0486 -0.4831  0.3697
  710HK4     H959614   7.389   9.732   3.750 -0.2470  0.5859  1.6618
  710HK4    C1959615   7.494   9.545   3.772 -0.3274 -0.5311  0.0416
  710HK4    C1859616   7.552   9.449   3.864  0.3018 -0.1085  0.0856
  710HK4    C1759617   7.530   9.463   4.000  0.2292  0.1429  0.0478
  710HK4     H859618   7.559   9.386   4.072  1.3612  1.1780  0.7232
  710HK4     N159619   7.626   9.352   3.793 -0.4247 -0.3241 -0.3863
  710HK4    C2159620   7.616   9.380   3.656 -0.1399  0.1676 -0.3079
  710HK4    C2259621   7.528   9.494   3.641 -0.0541  0.2501 -0.1919
  710HK4    C2659622   7.502   9.537   3.511 -0.2541  0.4629 -0.0798
  710HK4    H1359623   7.431   9.616   3.484  1.9440  2.4435 -0.2777
  710HK4    C2559624   7.568   9.480   3.403  0.0375  0.0491  0.3187
  710HK4    H1259625   7.569   9.533   3.308 -0.2005 -1.2772 -0.4382
  710HK4    C2459626   7.654   9.372   3.419  0.0366 -0.0411 -0.2909
  710HK4    H1159627   7.709   9.323   3.337 -1.1624  0.8926 -1.6751
  710HK4    C2359628   7.674   9.318   3.545 -0.2089 -0.0160 -0.2421
  710HK4    H1059629   7.753   9.245   3.562  0.8691  1.1605 -0.0815
  710HK4    C3959630   7.644   9.221   3.841 -0.2971 -0.3329 -0.4548
  710HK4    C4159631   7.561   9.155   3.934 -0.2384 -0.2783 -0.3640
  710HK4    H2159632   7.467   9.200   3.970  0.6982  0.9798  0.5688
  710HK4    C4259633   7.591   9.032   3.991  0.5799  0.1717  0.1875
  710HK4    H2259634   7.516   8.978   4.050 -1.9509  3.6278  0.2228
  710HK4    C4359635   7.707   8.965   3.951  0.8408  0.3463  0.6511
  710HK4    H2359636   7.720   8.861   3.978 -2.2765 -0.4815 -0.8182
  710HK4    C4459637   7.791   9.026   3.859 -0.2614  0.1425 -0.5013
  710HK4    H2459638   7.890   8.983   3.839  0.1487  0.3756  1.0166
  710HK4    C4559639   7.762   9.152   3.808  0.4145  0.5738  0.1738
  710HK4    H2559640   7.838   9.197   3.742 -1.1992  1.1555 -1.3365
  711HK4    H2859641   7.287   9.421   6.522 -0.7624 -2.0885  0.7677
  711HK4    C4859642   7.266   9.452   6.624  0.2548 -0.0157  0.3645
  711HK4    C4759643   7.309   9.582   6.646 -0.5637  0.2751  0.2658
  711HK4    H2759644   7.359   9.639   6.566  1.8634 -0.5044  1.1777
  711HK4    C4659645   7.293   9.637   6.773 -0.3402  0.6530  0.1309
  711HK4    H2659646   7.299   9.747   6.776  2.7981  0.5830 -1.0754
  711HK4    C4059647   7.223   9.568   6.873 -0.1654  0.1491 -0.0943
  711HK4    C5059648   7.186   9.434   6.846  0.3101  0.0240 -0.1220
  711HK4    H3059649   7.127   9.378   6.920  0.7111 -1.1153 -0.6533
  711HK4    C4959650   7.203   9.376   6.721 -0.2854 -0.1716 -0.1114
  711HK4    H2959651   7.152   9.280   6.703  0.3534 -1.2949  3.6738
  711HK4     N259652   7.226   9.615   7.005  0.1703  0.1775 -0.1114
  711HK4    C3059653   7.339   9.681   7.059  0.2185  0.2397 -0.2874
  711HK4    C2959654   7.476   9.662   7.047  0.2109  0.2208 -0.3419
  711HK4    H1559655   7.492   9.559   7.018 -2.2837 -0.1982 -0.3512
  711HK4    C2859656   7.574   9.744   7.103 -0.0637  0.3247 -0.0096
  711HK4    C2759657   7.517   9.849   7.177  0.0833  0.4072 -0.0096
  711HK4    H1459658   7.592   9.928   7.190 -0.5024  1.4689 -2.7089
  711HK4    C3259659   7.382   9.863   7.206  0.1178 -0.2133  0.4748
  711HK4    H1659660   7.343   9.938   7.276  1.1297 -0.0504  0.8654
  711HK4    C3159661   7.288   9.772   7.159  0.2412 -0.1334  0.0700
  711HK4    C3459662   7.145   9.750   7.169  0.2046  0.1486  0.1441
  711HK4    C3359663   7.108   9.646   7.076  0.1544  0.5631 -0.3041
  711HK4    C3559664   6.984   9.583   7.079  0.1698  0.5371 -0.2392
  711HK4    H1759665   6.973   9.488   7.027  1.6042 -0.7162  1.6861
  711HK4    C3659666   6.887   9.622   7.171 -0.0867 -0.0731 -0.2535
  711HK4    H1859667   6.780   9.602   7.153  0.1748 -1.5846 -0.1732
  711HK4    C3759668   6.916   9.730   7.254  0.0455 -0.4894  0.2483
  711HK4    H1959669   6.839   9.771   7.319 -0.6281 -0.1152 -0.7622
  711HK4    C3859670   7.040   9.791   7.252  0.1569 -0.7094  0.5141
  711HK4    H2059671   7.055   9.882   7.310  0.4920 -0.2822 -0.2254
  711HK4    C1459672   7.714   9.699   7.111 -0.1338  0.0776 -0.1287
  711HK4     C959673   7.806   9.743   7.208 -0.1931 -0.1049  0.0108
  711HK4     C859674   7.943   9.756   7.176 -0.0720 -0.6302  0.3131
  711HK4    C1159675   7.990   9.708   7.055 -0.4396  0.3671 -0.2369
  711HK4     H459676   8.097   9.714   7.031 -0.5296  0.8595 -0.5072
  711HK4    C1259677   7.904   9.650   6.962  0.1905 -0.9911  0.0082
  711HK4     H559678   7.939   9.627   6.860 -2.5482  1.2011 -1.5001
  711HK4    C1359679   7.768   9.650   6.991  0.1794  0.1370 -0.0121
  711HK4     H659680   7.697   9.623   6.912  0.9415  1.7929 -1.3088
  711HK4     C759681   8.034   9.848   7.249 -0.2243  0.3466 -0.7198
  711HK4     O259682   8.155   9.827   7.262 -0.2507  0.4825 -0.2396
  711HK4     C459683   7.974   9.933   7.353  0.3798 -0.4124  0.2568
  711HK4     C359684   8.045  10.043   7.399 -0.7449  0.5009 -0.1724
  711HK4     H359685   8.137  10.081   7.352 -0.8677 -0.3199 -1.0703
  711HK4     C259686   8.001  10.125   7.503 -0.1606  0.0796  0.4109
  711HK4     H259687   8.054  10.220   7.518  2.3541 -0.9282 -1.6591
  711HK4     C159688   7.876  10.096   7.556 -0.1942 -0.1435  0.2141
  711HK4     H159689   7.851  10.130   7.658 -0.4414  0.0862  0.0760
  711HK4     C659690   7.794   9.995   7.500 -0.2268  0.2105 -0.3777
  711HK4     C559691   7.846   9.905   7.406 -0.0271  0.3021 -0.3538
  711HK4    C1059692   7.762   9.804   7.336 -0.3350  0.5506 -0.3452
  711HK4     O159693   7.701   9.725   7.409  0.1652  0.2423 -0.2587
  711HK4    C1659694   7.652  10.031   7.501 -0.2275  0.1837  0.4444
  711HK4    C1559695   7.609  10.161   7.469  0.6972  0.3651 -0.0512
  711HK4     H759696   7.682  10.227   7.418 -1.9363  1.8600 -1.9809
  711HK4    C2059697   7.479  10.209   7.478  0.4479 -0.2574 -0.3552
  711HK4     H959698   7.458  10.309   7.440 -0.3567 -0.0568  0.6027
  711HK4    C1959699   7.386  10.117   7.525  0.3110  0.1303  0.1290
  711HK4    C1859700   7.423   9.983   7.565  0.4015  0.1681  0.1761
  711HK4    C1759701   7.557   9.945   7.556  0.1507 -0.6549 -0.1971
  711HK4     H859702   7.591   9.862   7.618 -0.0584 -2.2993 -2.2602
  711HK4     N159703   7.309   9.913   7.609  0.4793 -0.2835 -0.3220
  711HK4    C2159704   7.203  10.004   7.592  0.0438 -0.7658 -0.1927
  711HK4    C2259705   7.243  10.134   7.541  0.2505 -0.6066  0.3735
  711HK4    C2659706   7.146  10.231   7.520  0.2141 -0.8349 -0.4968
  711HK4    H1359707   7.163  10.317   7.455 -0.6617 -1.5612 -1.7283
  711HK4    C2559708   7.014  10.203   7.551  0.2031  0.3465  0.5289
  711HK4    H1259709   6.936  10.279   7.544 -1.1434 -1.1192 -0.7240
  711HK4    C2459710   6.973  10.076   7.591  0.1271  0.2779  0.2420
  711HK4    H1159711   6.868  10.055   7.614 -0.2629 -0.5965 -2.1905
  711HK4    C2359712   7.068   9.976   7.610 -0.0470  0.1781  0.5852
  711HK4    H1059713   7.035   9.874   7.627  0.4067 -0.0595  0.0670
  711HK4    C3959714   7.295   9.774   7.616 -0.0147 -0.2178 -0.0389
  711HK4    C4159715   7.206   9.704   7.701 -0.4597  0.6077  0.1778
  711HK4    H2159716   7.146   9.763   7.772  0.8185  1.8762  0.2390
  711HK4    C4259717   7.186   9.567   7.689 -0.1430  0.5987 -0.2831
  711HK4    H2259718   7.117   9.518   7.759  2.0416 -1.9761  0.1578
  711HK4    C4359719   7.246   9.496   7.586 -0.0719 -0.0538  0.2044
  711HK4    H2359720   7.233   9.389   7.575 -1.0097  0.0225  0.5438
  711HK4    C4459721   7.324   9.569   7.496 -0.0290  0.1092  0.3743
  711HK4    H2459722   7.347   9.512   7.405 -1.0394 -1.5035  1.0880
  711HK4    C4559723   7.356   9.703   7.510  0.2141  0.1029 -0.1214
  711HK4    H2559724   7.433   9.748   7.446  0.5302 -1.0191 -0.5311
  712HK4    H2859725   7.465   8.642   3.903  2.6114 -0.2377 -0.5278
  712HK4    C4859726   7.440   8.618   3.800 -0.0450  0.1066 -0.0063
  712HK4    C4759727   7.459   8.486   3.759 -0.0977  0.1184 -0.0733
  712HK4    H2759728   7.509   8.420   3.831  1.0644  0.8966 -0.1504
  712HK4    C4659729   7.421   8.448   3.631 -0.5352 -0.4784  0.2341
  712HK4    H2659730   7.484   8.370   3.585 -0.3879  0.9919 -2.1210
  712HK4    C4059731   7.351   8.530   3.540  0.0125 -0.3432 -0.0675
  712HK4    C5059732   7.319   8.658   3.590  0.5530 -0.1183 -0.2845
  712HK4    H3059733   7.252   8.724   3.531  1.2783  0.4686 -0.4540
  712HK4    C4959734   7.368   8.699   3.713 -0.0302  0.0234 -0.0967
  712HK4    H2959735   7.320   8.783   3.766 -1.5657 -1.0363  0.2168
  712HK4     N259736   7.308   8.494   3.412  0.2222 -0.1844 -0.1824
  712HK4    C3059737   7.263   8.369   3.365 -0.6830 -0.0802  0.3845
  712HK4    C2959738   7.224   8.256   3.435 -0.2722 -0.3228  0.2194
  712HK4    H1559739   7.240   8.261   3.543 -0.9044 -1.6316  0.3896
  712HK4    C2859740   7.167   8.150   3.365  0.2443 -0.4226 -0.0543
  712HK4    C2759741   7.152   8.155   3.225 -0.7913  0.7069  0.0893
  712HK4    H1459742   7.111   8.070   3.168  1.4423 -0.6708  0.4815
  712HK4    C3259743   7.198   8.263   3.151 -0.4462  0.6117  0.1675
  712HK4    H1659744   7.216   8.256   3.044  1.3275 -0.3478  0.5186
  712HK4    C3159745   7.254   8.370   3.220  0.3716  0.0938  0.3149
  712HK4    C3459746   7.307   8.498   3.177  0.5759 -0.1344 -0.1094
  712HK4    C3359747   7.344   8.569   3.298 -0.1861  0.1921 -0.0645
  712HK4    C3559748   7.408   8.692   3.285 -0.2954  0.3227  0.6230
  712HK4    H1759749   7.432   8.759   3.368  3.0471 -1.5150  1.2254
  712HK4    C3659750   7.431   8.747   3.160 -0.5145 -0.3417  0.2881
  712HK4    H1859751   7.470   8.850   3.159 -1.8894  0.1930 -1.6222
  712HK4    C3759752   7.401   8.679   3.042  0.2430 -0.0730 -0.0568
  712HK4    H1959753   7.413   8.728   2.945  1.4627 -0.0322  0.0995
  712HK4    C3859754   7.340   8.555   3.055 -0.3502  0.2020 -0.2100
  712HK4    H2059755   7.288   8.518   2.967  1.2307  1.1077 -1.5516
  712HK4    C1459756   7.134   8.031   3.443 -0.7816 -0.2558 -0.2295
  712HK4     C959757   7.118   7.904   3.386  0.0297 -0.3098 -0.3440
  712HK4     C859758   7.012   7.819   3.423 -0.4084  0.1249 -0.5882
  712HK4    C1159759   6.930   7.854   3.530  0.5205 -0.0096  0.1772
  712HK4     H459760   6.851   7.783   3.559  0.5143  0.1722  0.5993
  712HK4    C1259761   6.957   7.972   3.599 -0.0125  0.2287 -0.0179
  712HK4     H559762   6.885   7.999   3.678  2.3124 -0.6405  2.4814
  712HK4    C1359763   7.062   8.054   3.563  0.0313  0.2515  0.1650
  712HK4     H659764   7.087   8.146   3.619  1.4110  0.6720 -1.0754
  712HK4     C759765   6.995   7.688   3.356 -0.1105 -0.1953 -0.0359
  712HK4     O259766   6.893   7.623   3.375 -0.0381 -0.2996  0.0023
  712HK4     C459767   7.098   7.643   3.259 -0.1898 -0.1782 -0.1270
  712HK4     C359768   7.079   7.516   3.204 -0.2852 -0.0030 -0.4991
  712HK4     H359769   7.000   7.445   3.234 -0.7361  1.8374  2.9090
  712HK4     C259770   7.169   7.474   3.107  0.5792  0.0742  0.2547
  712HK4     H259771   7.163   7.371   3.068  0.9613 -0.2982  1.1685
  712HK4     C159772   7.274   7.553   3.061  0.3532 -0.0925 -0.5546
  712HK4     H159773   7.330   7.513   2.976  1.0124 -2.2172  0.8438
  712HK4     C659774   7.285   7.684   3.111  0.1030 -0.2589 -0.0499
  712HK4     C559775   7.204   7.725   3.217  0.1543 -0.5088  0.0864
  712HK4    C1059776   7.221   7.853   3.291  0.0306 -0.2150 -0.3930
  712HK4     O159777   7.337   7.883   3.319  0.1744 -0.7725 -0.4007
  712HK4    C1659778   7.393   7.759   3.045 -0.0262  0.2735  0.3473
  712HK4    C1559779   7.397   7.899   3.026  0.0254  0.2387  0.0925
  712HK4     H759780   7.311   7.962   3.051  0.1876  0.0242  1.2181
  712HK4    C2059781   7.509   7.970   2.983 -0.0086 -0.1036 -0.5689
  712HK4     H959782   7.478   8.067   2.942  1.3035 -0.0180 -1.3742
  712HK4    C1959783   7.631   7.907   2.962  0.0317 -0.2222  0.0170
  712HK4    C1859784   7.626   7.763   2.971  0.3541 -0.1810  0.8523
  712HK4    C1759785   7.514   7.696   3.017 -0.1585  0.1405  0.0769
  712HK4     H859786   7.508   7.587   3.007  0.9359  0.0052  0.8632
  712HK4     N159787   7.738   7.709   2.904 -0.0284 -0.1709  0.2073
  712HK4    C2159788   7.811   7.816   2.848 -0.1374 -0.1598  0.0855
  712HK4    C2259789   7.754   7.942   2.894  0.1383 -0.1026  0.2690
  712HK4    C2659790   7.821   8.057   2.854  0.6340 -0.5313 -0.1453
  712HK4    H1359791   7.790   8.153   2.895  0.2681 -1.7716  2.5927
  712HK4    C2559792   7.933   8.066   2.773  0.7685 -0.1239  0.0834
  712HK4    H1259793   7.966   8.166   2.745  0.5613 -0.1655 -0.3093
  712HK4    C2459794   7.978   7.944   2.723  0.6389 -0.0558 -0.1953
  712HK4    H1159795   8.073   7.937   2.667  0.0011  0.1184 -1.3305
  712HK4    C2359796   7.918   7.825   2.761 -0.1512  0.4345  0.1243
  712HK4    H1059797   7.969   7.736   2.722  1.1101  1.0566  0.3101
  712HK4    C3959798   7.794   7.586   2.941 -0.3543 -0.2550  0.4227
  712HK4    C4159799   7.886   7.525   2.854  0.0368  0.4791  0.3126
  712HK4    H2159800   7.883   7.544   2.745 -0.9153 -1.1961  0.0225
  712HK4    C4259801   7.982   7.435   2.897  0.0122  0.2860 -0.0223
  712HK4    H2259802   8.060   7.389   2.834  1.1555  2.2989 -0.0946
  712HK4    C4359803   7.985   7.391   3.029  0.3420  0.2148 -0.0525
  712HK4    H2359804   8.024   7.292   3.052 -1.8230 -1.2685 -2.5515
  712HK4    C4459805   7.898   7.451   3.120 -0.6111 -0.6574 -0.3868
  712HK4    H2459806   7.907   7.432   3.228 -0.4124  0.6065 -0.1780
  712HK4    C4559807   7.807   7.547   3.076 -0.0538  0.3079  0.5601
  712HK4    H2559808   7.745   7.585   3.158  0.2253 -0.0720  0.9508
  713HK4    H2859809   6.171   1.818   0.002  1.5196 -2.0276  0.4952
  713HK4    C4859810   6.081   1.757  11.238  0.3891 -0.3278 -0.0548
  713HK4    C4759811   6.056   1.647   0.072  0.5859 -0.3210  0.0143
  713HK4    H2759812   6.146   1.608   0.122 -0.6598 -0.9658  1.7818
  713HK4    C4659813   5.937   1.576   0.066  0.2320  0.2605  0.1326
  713HK4    H2659814   5.909   1.510   0.149 -0.4926  0.4361  0.0305
  713HK4    C4059815   5.838   1.616  11.221 -0.0151 -0.3805  0.1181
  713HK4    C5059816   5.868   1.718  11.128  0.0927 -0.1274  0.4315
  713HK4    H3059817   5.793   1.743  11.052 -1.3720 -3.4414  0.7191
  713HK4    C4959818   5.993   1.779  11.133  0.1699 -0.2622  0.1391
  713HK4    H2959819   6.034   1.839  11.051  0.7941 -0.2271  0.4761
  713HK4     N259820   5.730   1.531  11.200 -0.0184 -0.3385 -0.0357
  713HK4    C3059821   5.611   1.586  11.148 -0.0894 -0.5015 -0.0448
  713HK4    C2959822   5.536   1.692  11.197  0.4585 -0.3109  0.3752
  713HK4    H1559823   5.585   1.767   0.012 -0.4958  1.8233 -1.3393
  713HK4    C2859824   5.401   1.704  11.164  0.7230  0.5335 -0.4310
  713HK4    C2759825   5.341   1.626  11.064 -0.1778 -0.2583  0.7145
  713HK4    H1459826   5.248   1.665  11.021  0.1875 -0.4239 -0.2595
  713HK4    C3259827   5.417   1.523  11.008 -0.5160 -0.0748 -0.0807
  713HK4    H1659828   5.376   1.447  10.941  0.6522  0.6653 -1.6862
  713HK4    C3159829   5.547   1.499  11.050 -0.4513 -0.0151 -0.2448
  713HK4    C3459830   5.627   1.378  11.051 -0.3723  0.0363 -0.3060
  713HK4    C3359831   5.726   1.397  11.155  0.0980 -0.1134 -0.7271
  713HK4    C3559832   5.799   1.289  11.204 -0.1075 -0.0564 -0.2945
  713HK4    H1759833   5.869   1.308   0.038  0.4441 -0.4838 -0.6662
  713HK4    C3659834   5.777   1.162  11.153  0.1436 -0.3756  0.3809
  713HK4    H1859835   5.837   1.076  11.186 -0.7787 -1.0680  0.2774
  713HK4    C3759836   5.687   1.141  11.050  0.6497  0.0896 -0.1574
  713HK4    H1959837   5.693   1.053  10.986 -0.6111  0.1080 -0.3309
  713HK4    C3859838   5.610   1.248  11.005  0.0736 -0.1892  0.1594
  713HK4    H2059839   5.537   1.224  10.928  0.8663  0.1633 -0.7188
  713HK4    C1459840   5.332   1.752   0.037  0.6048  0.3129 -0.4109
  713HK4     C959841   5.228   1.675   0.090  0.1098  0.3758 -1.2715
  713HK4     C859842   5.115   1.744   0.140  0.2601 -0.0907 -0.2711
  713HK4    C1159843   5.120   1.882   0.154  0.7134 -0.1058 -0.2563
  713HK4     H459844   5.031   1.934   0.193  0.7416  0.7749 -1.3488
  713HK4    C1259845   5.232   1.957   0.122  0.5759  0.3155  0.2446
  713HK4     H559846   5.243   2.066   0.138 -0.6914  0.2610  1.6636
  713HK4    C1359847   5.338   1.890   0.061  0.6465  0.1435  0.5580
  713HK4     H659848   5.423   1.953   0.032  1.6735 -1.5005 -0.0023
  713HK4     C759849   4.981   1.681   0.142  0.0681  0.3178 -0.2084
  713HK4     O259850   4.888   1.720   0.211 -0.0959 -0.4482  0.0047
  713HK4     C459851   4.970   1.543   0.088 -0.1688  0.1391  0.3000
  713HK4     C359852   4.845   1.494   0.051 -0.0786  0.2608 -0.1709
  713HK4     H359853   4.759   1.558   0.078 -0.6339  0.2057 -1.7682
  713HK4     C259854   4.822   1.373  11.237 -0.3686  0.1548  0.1421
  713HK4     H259855   4.721   1.331  11.220 -0.4281  0.4533 -0.2430
  713HK4     C159856   4.935   1.305  11.194  0.0292  1.2088 -0.4718
  713HK4     H159857   4.915   1.222  11.125 -2.9769  0.3185  1.3775
  713HK4     C659858   5.065   1.341  11.235  0.2048  0.0022  0.0461
  713HK4     C559859   5.080   1.460   0.059 -0.2658  0.1516 -0.0988
  713HK4    C1059860   5.211   1.527   0.085 -0.5055  0.3739  0.5433
  713HK4     O159861   5.302   1.467   0.143 -0.0898  0.7158  0.2430
  713HK4    C1659862   5.182   1.277  11.175  0.2348  0.5066 -0.4358
  713HK4    C1559863   5.178   1.234  11.040  0.8790 -0.4243 -0.1639
  713HK4     H759864   5.091   1.261  10.979  1.5865  0.9379 -0.5904
  713HK4    C2059865   5.249   1.120  11.002  0.6464 -0.5517 -0.2170
  713HK4     H959866   5.232   1.087  10.900  1.7131  3.8478 -1.9401
  713HK4    C1959867   5.323   1.042  11.090  0.0084 -0.2080  0.6303
  713HK4    C1859868   5.335   1.091  11.226 -0.0367  0.3628  0.4330
  713HK4    C1759869   5.265   1.206   0.013 -0.3457  0.3150 -0.0334
  713HK4     H859870   5.266   1.234   0.118 -1.4897 -0.6635  0.2532
  713HK4     N159871   5.438   1.022   0.047 -0.1972 -0.2134  0.0909
  713HK4    C2159872   5.490   0.928  11.203 -0.4204 -0.7682  0.5274
  713HK4    C2259873   5.422   0.938  11.075  0.3897  0.2209  0.1647
  713HK4    C2659874   5.448   0.856  10.965 -0.4074  0.1152  0.0545
  713HK4    H1359875   5.392   0.871  10.873  0.0663 -1.3907 -0.4920
  713HK4    C2559876   5.557   0.770  10.971 -0.7850 -0.3197  0.6298
  713HK4    H1259877   5.591   0.719  10.881 -1.0275  2.8976 -1.3192
  713HK4    C2459878   5.628   0.762  11.090  0.5204  0.4961 -0.0890
  713HK4    H1159879   5.728   0.717  11.080 -0.4370 -1.4624 -1.1377
  713HK4    C2359880   5.597   0.839  11.202 -0.1390 -0.4277  0.3804
  713HK4    H1059881   5.653   0.820   0.045  0.0997 -1.6969 -0.0252
  713HK4    C3959882   5.512   1.070   0.155 -0.1970  0.3772 -0.1709
  713HK4    C4159883   5.565   0.986   0.255 -0.0603  0.7108  0.0343
  713HK4    H2159884   5.557   0.878   0.242 -0.4319  0.7358  0.0447
  713HK4    C4259885   5.643   1.035   0.360  0.2723 -0.6890  0.4539
  713HK4    H2259886   5.675   0.973   0.445  1.6429 -0.3811  0.1655
  713HK4    C4359887   5.681   1.169   0.372  0.3746 -0.6588 -0.1932
  713HK4    H2359888   5.755   1.203   0.444  0.1899 -0.3244 -0.1594
  713HK4    C4459889   5.639   1.254   0.270  0.1169 -0.5009  0.0451
  713HK4    H2459890   5.694   1.348   0.261  0.4559 -0.6243  0.8152
  713HK4    C4559891   5.551   1.204   0.175 -0.4984  0.4197  0.1282
  713HK4    H2559892   5.517   1.280   0.103  0.4220  1.4522  0.7786
  714HK4    H2859893   1.220   0.785   6.934  0.7944  0.8229  0.0659
  714HK4    C4859894   1.235   0.805   6.828  0.0183  0.3071 -0.1410
  714HK4    C4759895   1.138   0.868   6.749 -0.2333 -0.1339 -0.1859
  714HK4    H2759896   1.050   0.913   6.798  0.7340  2.0537 -0.3933
  714HK4    C4659897   1.159   0.887   6.613 -0.4581  0.1910 -0.1745
  714HK4    H2659898   1.090   0.951   6.556  0.9840  1.4933 -0.5274
  714HK4    C4059899   1.282   0.851   6.554 -0.4093 -0.1046  0.1063
  714HK4    C5059900   1.378   0.789   6.636 -0.2666  0.2782  0.2268
  714HK4    H3059901   1.458   0.730   6.588  0.5259  1.8795 -0.4511
  714HK4    C4959902   1.355   0.765   6.771  0.2868  0.4172  0.3480
  714HK4    H2959903   1.426   0.704   6.828 -1.4587 -1.9620  0.0664
  714HK4     N259904   1.283   0.825   6.416 -0.2456 -0.0171  0.0901
  714HK4    C3059905   1.181   0.774   6.333 -0.2231  0.2816 -0.1197
  714HK4    C2959906   1.073   0.690   6.359  0.5732 -0.6416  0.2466
  714HK4    H1559907   1.070   0.646   6.459 -1.0806  0.5034  0.7364
  714HK4    C2859908   0.979   0.656   6.263  0.0946  0.3766  0.3386
  714HK4    C2759909   1.002   0.710   6.135 -0.2967  0.3036  0.2382
  714HK4    H1459910   0.932   0.685   6.053 -0.6517  0.8342  0.3782
  714HK4    C3259911   1.114   0.781   6.093  0.1300 -0.2952  0.3464
  714HK4    H1659912   1.131   0.821   5.992  4.2518  0.2827  1.1794
  714HK4    C3159913   1.204   0.811   6.194  0.6278 -0.2104 -0.1184
  714HK4    C3459914   1.327   0.887   6.191  0.6211 -0.1862  0.1751
  714HK4    C3359915   1.368   0.896   6.330 -0.1161  0.1757  0.3765
  714HK4    C3559916   1.479   0.978   6.349 -0.2890  0.5524 -0.2068
  714HK4    H1759917   1.504   1.000   6.453 -0.0695  0.5828 -0.2651
  714HK4    C3659918   1.554   1.032   6.245  0.5484  0.1615  0.1889
  714HK4    H1859919   1.654   1.074   6.259  0.2184  0.5227  1.5277
  714HK4    C3759920   1.512   1.014   6.114  0.4518 -0.4040  0.2930
  714HK4    H1959921   1.569   1.054   6.030 -0.4766 -0.6682 -0.4725
  714HK4    C3859922   1.397   0.942   6.084 -0.0512  0.4820  0.0754
  714HK4    H2059923   1.365   0.917   5.983  3.2200  0.0616 -0.8953
  714HK4    C1459924   0.912   0.526   6.277 -0.3370  0.4707 -0.7680
  714HK4     C959925   0.908   0.427   6.178 -0.0447  0.0352 -0.3479
  714HK4     C859926   0.799   0.346   6.142 -0.1286  0.0145 -0.0474
  714HK4    C1159927   0.686   0.359   6.223 -0.3393  1.0384 -0.4896
  714HK4     H459928   0.595   0.302   6.200  0.0434 -0.0960  0.7487
  714HK4    C1259929   0.692   0.448   6.329  0.3483 -0.0772  0.4295
  714HK4     H559930   0.603   0.472   6.389  1.2878  1.1583  1.3491
  714HK4    C1359931   0.799   0.531   6.361  0.1029  0.4743 -0.1692
  714HK4     H659932   0.791   0.612   6.435  1.0732 -1.5264  2.1657
  714HK4     C759933   0.796   0.264   6.019 -0.2353  0.2413 -0.1949
  714HK4     O259934   0.716   0.171   6.008  0.5156 -0.5127  0.6823
  714HK4     C459935   0.904   0.281   5.919 -0.1324 -0.3151 -0.1758
  714HK4     C359936   0.884   0.243   5.786 -0.7287  0.0912 -0.2040
  714HK4     H359937   0.789   0.194   5.760 -1.1261  0.3950  0.6254
  714HK4     C259938   0.975   0.274   5.686 -0.3253  0.1912  0.1930
  714HK4     H259939   0.968   0.237   5.583  1.2033 -1.5722  0.6915
  714HK4     C159940   1.085   0.349   5.727 -0.4802  0.4773  0.0870
  714HK4     H159941   1.150   0.386   5.647  0.3864 -0.0404  0.5420
  714HK4     C659942   1.117   0.386   5.860  0.0156  0.3646 -0.0024
  714HK4     C559943   1.022   0.349   5.955 -0.4801  0.4403 -0.4692
  714HK4    C1059944   1.029   0.406   6.093 -0.0523  0.2551 -0.4134
  714HK4     O159945   1.130   0.370   6.153 -0.5229 -0.1215  0.1543
  714HK4    C1659946   1.219   0.491   5.877  0.3123  0.0541  0.1495
  714HK4    C1559947   1.236   0.588   5.776 -0.0527  0.3470  0.3708
  714HK4     H759948   1.147   0.627   5.724 -2.2318 -0.4150  3.3697
  714HK4    C2059949   1.362   0.640   5.751  0.1267 -0.1431  0.2504
  714HK4     H959950   1.375   0.704   5.663 -1.1715  0.4431  0.4703
  714HK4    C1959951   1.472   0.615   5.832  0.1789 -0.1161  0.1886
  714HK4    C1859952   1.458   0.512   5.933  0.1854 -0.0117  0.2959
  714HK4    C1759953   1.332   0.455   5.948  0.1700  0.0429  0.3721
  714HK4     H859954   1.322   0.377   6.024 -0.3612  0.0853  0.3447
  714HK4     N159955   1.571   0.497   6.017  0.4109 -0.5275 -0.0925
  714HK4    C2159956   1.670   0.582   5.963 -0.0510 -0.3905 -0.7313
  714HK4    C2259957   1.606   0.662   5.860  0.3622 -0.0857 -0.7519
  714HK4    C2659958   1.686   0.749   5.787  0.4494  0.0944 -0.4379
  714HK4    H1359959   1.642   0.827   5.725 -0.7572  1.9808  2.6544
  714HK4    C2559960   1.822   0.753   5.814  0.3679  0.1887 -0.0422
  714HK4    H1259961   1.888   0.813   5.751  1.9181 -0.4804  0.9036
  714HK4    C2459962   1.885   0.678   5.913 -0.1260  0.0864  0.1945
  714HK4    H1159963   1.980   0.709   5.958  0.9252 -1.2325 -1.0228
  714HK4    C2359964   1.806   0.591   5.988 -0.0338 -0.7693 -0.6829
  714HK4    H1059965   1.864   0.518   6.045 -1.1766 -0.6461  0.6683
  714HK4    C3959966   1.570   0.466   6.153  0.3610  0.3403  0.1062
  714HK4    C4159967   1.680   0.411   6.223  0.2731  0.1696  0.1097
  714HK4    H2159968   1.761   0.369   6.162 -0.1090 -0.0519 -0.2429
  714HK4    C4259969   1.703   0.425   6.359  0.0244  0.0159  0.1682
  714HK4    H2259970   1.800   0.388   6.396  2.4480  2.6822 -3.2054
  714HK4    C4359971   1.609   0.497   6.432 -0.2638 -0.1346 -0.0536
  714HK4    H2359972   1.635   0.533   6.532 -1.7390 -0.0668  0.3124
  714HK4    C4459973   1.490   0.546   6.379  0.0448  0.7614  0.0846
  714HK4    H2459974   1.405   0.581   6.440 -0.2920 -1.7297  1.0833
  714HK4    C4559975   1.486   0.537   6.241 -0.4581 -0.7265  0.1901
  714HK4    H2559976   1.417   0.603   6.185  0.7594  1.0217  0.6847
  715HK4    H2859977   7.123   2.428   1.774 -0.7130  1.2004  2.9819
  715HK4    C4859978   7.047   2.351   1.791  0.0636 -0.2904  0.0698
  715HK4    C4759979   7.062   2.218   1.752  0.4771 -0.2430  0.0559
  715HK4    H2759980   7.146   2.197   1.684 -0.1588 -0.0943 -0.7943
  715HK4    C4659981   6.966   2.122   1.784  0.1619  0.0845  0.1116
  715HK4    H2659982   6.986   2.019   1.750  1.0790  0.4674 -0.5384
  715HK4    C4059983   6.853   2.160   1.858  0.1047  0.1567 -0.0104
  715HK4    C5059984   6.840   2.296   1.892 -0.4960  0.0190  0.3189
  715HK4    H3059985   6.752   2.343   1.939  0.0389 -0.3971  1.7590
  715HK4    C4959986   6.942   2.389   1.873 -0.1324 -0.4631 -0.1024
  715HK4    H2959987   6.927   2.497   1.888  2.6195 -0.1822  0.8831
  715HK4     N259988   6.782   2.069   1.937  0.3899 -0.2892 -0.2702
  715HK4    C3059989   6.839   1.957   2.001  0.0567  0.0518  0.6407
  715HK4    C2959990   6.970   1.930   2.039  0.1645 -0.3259  0.0056
  715HK4    H1559991   7.048   1.999   2.006 -0.7923  0.3057 -0.9630
  715HK4    C2859992   7.008   1.826   2.123  0.0043  0.0850  0.5871
  715HK4    C2759993   6.908   1.742   2.176 -0.2154  0.1764  0.3200
  715HK4    H1459994   6.941   1.667   2.250  0.5632  1.5854  1.4100
  715HK4    C3259995   6.779   1.762   2.127 -0.2323 -0.3629  0.1426
  715HK4    H1659996   6.710   1.679   2.143 -1.2911  0.6584  0.8953
  715HK4    C3159997   6.736   1.864   2.043  0.0135  0.0326  0.4962
  715HK4    C3459998   6.612   1.916   1.990  0.6205  0.3190 -0.6425
  715HK4    C3359999   6.644   2.043   1.927  0.2199  0.5988 -0.2856
  715HK4    C3560000   6.541   2.108   1.860  0.0635  0.5881 -0.0533
  715HK4    H1760001   6.562   2.213   1.840  0.1736  0.5458 -0.1641
  715HK4    C3660002   6.413   2.054   1.852  0.4025 -0.1570 -0.5842
  715HK4    H1860003   6.335   2.104   1.793  1.5837  0.3524 -1.7218
  715HK4    C3760004   6.383   1.935   1.917  0.2549 -0.2118 -0.7546
  715HK4    H1960005   6.277   1.910   1.929  0.1077  1.8441  2.9455
  715HK4    C3860006   6.484   1.863   1.978  0.4041  0.6796  0.0679
  715HK4    H2060007   6.473   1.757   2.002 -0.1448  1.0746  1.5937
  715HK4    C1460008   7.151   1.792   2.120 -0.0467 -0.1302  0.5509
  715HK4     C960009   7.204   1.664   2.136 -0.0596 -0.1716  0.2652
  715HK4     C860010   7.329   1.645   2.199  0.0600  0.4111  0.2079
  715HK4    C1160011   7.411   1.754   2.227 -0.1737  0.4900  0.5871
  715HK4     H460012   7.508   1.742   2.278  1.0543  0.1494 -1.7434
  715HK4    C1260013   7.364   1.880   2.193 -0.0921  0.2160 -0.5899
  715HK4     H560014   7.434   1.964   2.200  1.4597 -1.1598  0.7003
  715HK4    C1360015   7.235   1.902   2.146 -0.3067  0.2035 -0.0055
  715HK4     H660016   7.203   2.007   2.138 -0.8099  0.0158 -0.4413
  715HK4     C760017   7.369   1.513   2.254  0.0669  0.3415  0.0359
  715HK4     O260018   7.487   1.481   2.256  0.0444  0.2620  0.0936
  715HK4     C460019   7.268   1.405   2.255  0.0233  0.3833  0.1481
  715HK4     C360020   7.308   1.288   2.319 -0.3499  0.1658 -0.0132
  715HK4     H360021   7.387   1.289   2.395  0.0190  0.5974 -0.3948
  715HK4     C260022   7.225   1.178   2.297 -0.2792  0.1300 -0.1055
  715HK4     H260023   7.241   1.085   2.352 -0.2013  1.1348  1.6069
  715HK4     C160024   7.106   1.181   2.226 -0.2738 -0.1171 -0.1251
  715HK4     H160025   7.053   1.086   2.209 -0.1802  0.0336 -1.2683
  715HK4     C660026   7.062   1.301   2.165 -0.2335  0.1133  0.2999
  715HK4     C560027   7.154   1.406   2.172  0.4855 -0.4558 -0.5106
  715HK4    C1060028   7.130   1.538   2.106  0.6702 -0.4231 -0.5115
  715HK4     O160029   7.098   1.535   1.987 -0.2515 -0.9564 -0.2568
  715HK4    C1660030   6.916   1.322   2.161 -0.1641  0.6170  0.3649
  715HK4    C1560031   6.820   1.267   2.248 -0.2132  0.4668  0.2185
  715HK4     H760032   6.864   1.235   2.344 -1.5375 -0.2014  0.6145
  715HK4    C2060033   6.683   1.274   2.226 -0.2104 -0.3205 -0.0461
  715HK4     H960034   6.622   1.208   2.287 -0.0289 -1.1648 -0.7602
  715HK4    C1960035   6.637   1.333   2.109  0.1590  0.1261  0.0311
  715HK4    C1860036   6.732   1.386   2.012  0.2916 -0.1038  0.0327
  715HK4    C1760037   6.867   1.377   2.043  0.3923 -0.9335 -0.6250
  715HK4     H860038   6.932   1.381   1.956  1.1559  1.9689  0.0034
  715HK4     N160039   6.664   1.436   1.899 -0.3112  0.1257  0.4901
  715HK4    C2160040   6.526   1.435   1.927 -0.4236  0.4450 -0.0418
  715HK4    C2260041   6.507   1.358   2.049  0.2278  0.2434 -0.0682
  715HK4    C2660042   6.380   1.346   2.102  0.4585  0.7007  0.5977
  715HK4    H1360043   6.364   1.286   2.192 -0.6608  1.5784  0.9943
  715HK4    C2560044   6.271   1.410   2.043  0.1062 -0.3591  0.0757
  715HK4    H1260045   6.186   1.432   2.108  1.3663  2.4132  0.8585
  715HK4    C2460046   6.293   1.479   1.924  0.0466  0.1321  0.3479
  715HK4    H1160047   6.197   1.518   1.886 -0.7359 -0.5263  1.5833
  715HK4    C2360048   6.417   1.494   1.864 -0.3858 -0.0962 -0.6126
  715HK4    H1060049   6.431   1.563   1.781  0.5263  0.1376 -0.2760
  715HK4    C3960050   6.733   1.506   1.799 -0.4705 -0.1344  0.2014
  715HK4    C4160051   6.692   1.494   1.664  0.0378  0.3752  0.0003
  715HK4    H2160052   6.644   1.404   1.622 -2.4143  1.2974  0.7429
  715HK4    C4260053   6.715   1.596   1.573 -0.3528  0.0151 -0.5069
  715HK4    H2260054   6.698   1.587   1.465  0.9627  1.6143 -0.8631
  715HK4    C4360055   6.793   1.705   1.611  0.1103 -0.5195  0.0745
  715HK4    H2360056   6.846   1.759   1.533  2.0053 -0.0489  1.6570
  715HK4    C4460057   6.834   1.719   1.743 -0.0972 -0.3212  0.1183
  715HK4    H2460058   6.894   1.807   1.770 -1.9170  1.3335 -1.1774
  715HK4    C4560059   6.809   1.618   1.836 -0.4312 -0.1599  0.2011
  715HK4    H2560060   6.842   1.629   1.940 -0.6064  0.5239  0.1867
  716HK4    H2860061   4.010   6.546   8.203  1.1766 -0.8532  0.6579
  716HK4    C4860062   4.014   6.598   8.298 -0.0038  0.3098  0.0872
  716HK4    C4760063   4.099   6.548   8.397 -0.1717 -0.0955  0.0285
  716HK4    H2760064   4.136   6.445   8.389 -0.8466 -0.3858  0.6651
  716HK4    C4660065   4.133   6.618   8.512  0.3927 -0.1816 -0.0858
  716HK4    H2660066   4.221   6.593   8.572  0.8392  2.1044  0.2795
  716HK4    C4060067   4.077   6.745   8.538  0.2440 -0.2815  0.0927
  716HK4    C5060068   3.994   6.797   8.436 -0.4945 -0.7579  0.4497
  716HK4    H3060069   3.956   6.899   8.452  0.0718 -0.5998  0.8160
  716HK4    C4960070   3.958   6.723   8.324 -1.0726 -0.2053  0.2707
  716HK4    H2960071   3.881   6.764   8.258  0.1914 -1.4851 -2.0771
  716HK4     N260072   4.072   6.805   8.664 -0.5204 -0.3337  0.0880
  716HK4    C3060073   4.083   6.747   8.792 -0.0016 -0.0994  0.1517
  716HK4    C2960074   4.093   6.613   8.829  0.1245 -0.0469  0.3152
  716HK4    H1560075   4.119   6.538   8.755  1.1845  0.0681  0.5730
  716HK4    C2860076   4.078   6.587   8.965  1.1748  0.0902  0.4672
  716HK4    C2760077   4.068   6.687   9.064 -0.6695  0.2118  0.1785
  716HK4    H1460078   4.070   6.654   9.169  0.6899 -0.0400  0.0876
  716HK4    C3260079   4.059   6.822   9.033 -0.1459  0.2073  0.0105
  716HK4    H1660080   4.030   6.900   9.103 -0.6476 -0.3394  0.4207
  716HK4    C3160081   4.069   6.846   8.897  0.5185  0.0964  0.0366
  716HK4    C3460082   4.063   6.973   8.826  0.5337  0.1671  0.1613
  716HK4    C3360083   4.067   6.945   8.684  0.2302 -0.3239  0.2477
  716HK4    C3560084   4.102   7.053   8.605 -0.9907  0.0872  0.2532
  716HK4    H1760085   4.105   7.036   8.497  1.2472 -0.5096  0.3808
  716HK4    C3660086   4.129   7.177   8.662  0.4014  0.1490 -0.5166
  716HK4    H1860087   4.185   7.251   8.602  1.8012  0.2258  0.8488
  716HK4    C3760088   4.107   7.209   8.795  0.1007 -0.2938 -0.4584
  716HK4    H1960089   4.107   7.311   8.834 -1.1930 -1.5887  3.1437
  716HK4    C3860090   4.079   7.101   8.878 -0.1155  0.2469  0.1758
  716HK4    H2060091   4.065   7.107   8.986 -1.3387  3.5070 -0.1103
  716HK4    C1460092   4.049   6.446   8.996 -0.5986  0.2214 -0.5232
  716HK4     C960093   3.946   6.412   9.085  0.2128  0.3107  0.4562
  716HK4     C860094   3.962   6.290   9.153 -0.1646 -0.1638 -0.3022
  716HK4    C1160095   4.062   6.199   9.123 -0.1284 -0.2698  0.1264
  716HK4     H460096   4.058   6.098   9.166 -1.2026 -0.2591  0.0631
  716HK4    C1260097   4.162   6.229   9.030 -0.0779  0.1477  0.3150
  716HK4     H560098   4.239   6.157   9.000  0.2167  0.4456  0.3593
  716HK4    C1360099   4.152   6.354   8.970 -0.0974  0.3987  0.8303
  716HK4     H660100   4.231   6.384   8.900 -0.9099 -1.9538 -1.1569
  716HK4     C760101   3.861   6.254   9.256 -0.1252 -0.3264 -0.3171
  716HK4     O260102   3.877   6.152   9.323  1.1638  0.4168  0.5367
  716HK4     C460103   3.745   6.343   9.278  0.1732 -0.1224  0.4376
  716HK4     C360104   3.647   6.308   9.370 -0.1776 -0.3082 -0.0080
  716HK4     H360105   3.637   6.206   9.411 -3.0756 -0.0796 -0.0626
  716HK4     C260106   3.544   6.392   9.408  0.3817  0.4303 -0.1206
  716HK4     H260107   3.449   6.344   9.435  0.6736  0.9197  1.8545
  716HK4     C160108   3.549   6.521   9.356  0.0137  0.5326  0.0915
  716HK4     H160109   3.478   6.597   9.391  0.4363  0.4122  1.2288
  716HK4     C660110   3.643   6.560   9.258 -0.0728 -0.4778 -0.3879
  716HK4     C560111   3.738   6.467   9.212 -0.0514 -0.5137 -0.2739
  716HK4    C1060112   3.822   6.494   9.092  0.2772  0.4352  0.1621
  716HK4     O160113   3.774   6.527   8.983 -0.3665  0.0346  0.3227
  716HK4    C1660114   3.682   6.701   9.247 -0.3579 -0.3875 -0.2611
  716HK4    C1560115   3.706   6.784   9.358 -0.0892 -0.0289 -0.5862
  716HK4     H760116   3.722   6.739   9.458 -1.6870  1.6199  0.4380
  716HK4    C2060117   3.729   6.920   9.345 -0.4087  0.0873  0.0412
  716HK4     H960118   3.704   6.986   9.429 -1.2546 -3.0687  2.3534
  716HK4    C1960119   3.728   6.983   9.221 -0.5465 -0.1451 -0.0785
  716HK4    C1860120   3.695   6.902   9.106 -0.0759  0.2472 -0.4895
  716HK4    C1760121   3.669   6.767   9.125  0.5149  0.1958 -0.0435
  716HK4     H860122   3.614   6.713   9.048  2.1328 -1.6164  0.0320
  716HK4     N160123   3.680   6.983   8.992 -0.1446  0.1788 -0.5292
  716HK4    C2160124   3.702   7.116   9.033 -0.0151 -0.1105  0.3340
  716HK4    C2260125   3.733   7.120   9.175  0.5422 -0.0824  0.2099
  716HK4    C2660126   3.800   7.232   9.225  0.0044  0.1823  0.3397
  716HK4    H1360127   3.833   7.231   9.329  1.2429 -2.1739 -0.0358
  716HK4    C2560128   3.817   7.345   9.147 -0.5717  0.1311  0.1327
  716HK4    H1260129   3.863   7.433   9.193 -0.3729  0.2280 -0.2543
  716HK4    C2460130   3.782   7.347   9.013  0.2123 -0.9095 -0.0878
  716HK4    H1160131   3.778   7.442   8.957  0.5021  0.3246  1.9181
  716HK4    C2360132   3.729   7.230   8.959 -0.8298 -0.3346 -0.3180
  716HK4    H1060133   3.739   7.217   8.851 -1.4810 -0.5973 -0.3450
  716HK4    C3960134   3.632   6.938   8.868 -0.4614  0.2667 -0.4408
  716HK4    C4160135   3.560   7.028   8.787 -0.9886  0.2383 -0.0043
  716HK4    H2160136   3.486   7.101   8.823 -0.8716  0.6406 -0.5763
  716HK4    C4260137   3.572   7.018   8.649 -0.3452  0.0088  0.0637
  716HK4    H2260138   3.530   7.100   8.589  1.6199  0.9604 -0.0593
  716HK4    C4360139   3.636   6.908   8.592 -0.7743 -0.0795 -0.2562
  716HK4    H2360140   3.627   6.869   8.491  3.1755 -1.9169 -0.0099
  716HK4    C4460141   3.707   6.818   8.671 -0.5827  0.2534 -0.0455
  716HK4    H2460142   3.745   6.732   8.613 -1.6496  0.5292 -1.1863
  716HK4    C4560143   3.712   6.838   8.808  0.1988  0.6012 -0.1244
  716HK4    H2560144   3.783   6.772   8.860  1.5108  1.6269 -0.5895
  717HK4    H2860145  10.503   1.609   3.317  0.8436 -0.7984  0.9673
  717HK4    C4860146  10.497   1.604   3.425 -0.1462 -0.3564  0.9328
  717HK4    C4760147  10.588   1.669   3.508  0.5240 -0.5719  0.3670
  717HK4    H2760148  10.685   1.697   3.466  0.3422 -1.1215 -0.4389
  717HK4    C4660149  10.570   1.677   3.646 -0.5016  0.0663  0.2000
  717HK4    H2660150  10.619   1.758   3.703  1.7585 -0.4252 -0.9899
  717HK4    C4060151  10.460   1.620   3.714 -0.5624  0.6065  0.5590
  717HK4    C5060152  10.368   1.563   3.624  0.3395 -0.8428  0.5449
  717HK4    H3060153  10.279   1.511   3.664  0.4155 -1.6193 -0.2712
  717HK4    C4960154  10.381   1.556   3.486 -0.6585  0.1825  0.3940
  717HK4    H2960155  10.298   1.519   3.425 -1.4869  1.0773  0.9646
  717HK4     N260156  10.474   1.571   3.844  0.0924  0.3567  0.3981
  717HK4    C3060157  10.594   1.540   3.911  0.2015  0.0367  0.0553
  717HK4    C2960158  10.718   1.508   3.856  0.0755  0.1949 -0.3285
  717HK4    H1560159  10.712   1.487   3.749  1.1603  0.3608 -0.4339
  717HK4    C2860160  10.831   1.497   3.936 -0.2686 -0.4515  0.0690
  717HK4    C2760161  10.816   1.526   4.073 -0.4848  0.1305 -0.0785
  717HK4    H1460162  10.908   1.520   4.133 -0.0795  2.0755 -0.4808
  717HK4    C3260163  10.694   1.545   4.136 -0.3093 -0.2158  0.3731
  717HK4    H1660164  10.696   1.522   4.242 -1.6839 -1.0487  0.2271
  717HK4    C3160165  10.581   1.554   4.055 -0.0858 -0.2571  0.0585
  717HK4    C3460166  10.441   1.576   4.082  0.0152 -0.1779  0.5209
  717HK4    C3360167  10.382   1.587   3.950  0.1018 -0.1404  0.4841
  717HK4    C3560168  10.243   1.595   3.942  0.1277 -0.3976 -0.3252
  717HK4    H1760169  10.197   1.622   3.848 -1.2926 -0.1596  0.4175
  717HK4    C3660170  10.165   1.586   4.057  0.1287  0.3650 -0.2610
  717HK4    H1860171  10.059   1.612   4.044  0.4141  1.3341 -0.6104
  717HK4    C3760172  10.222   1.567   4.182 -0.4795 -0.2710 -0.0722
  717HK4    H1960173  10.157   1.563   4.269 -1.0668  1.2423 -0.4238
  717HK4    C3860174  10.361   1.566   4.195 -0.5001 -0.6248  0.1185
  717HK4    H2060175  10.405   1.583   4.293 -0.5039 -0.0342  0.0192
  717HK4    C1460176  10.933   1.404   3.884 -0.4400 -0.3816 -0.3987
  717HK4     C960177  11.012   1.319   3.961 -0.2087 -0.3253 -0.5734
  717HK4     C860178  11.143   1.289   3.918  0.2488  0.2988  0.3649
  717HK4    C1160179  11.204   1.343   3.805  0.1141 -0.8396 -0.2607
  717HK4     H460180   0.055   1.313   3.768 -0.8540 -1.5691 -2.3055
  717HK4    C1260181  11.117   1.419   3.728  0.2659 -0.0744  0.3077
  717HK4     H560182  11.153   1.468   3.636 -0.3320  2.6694  1.4877
  717HK4    C1360183  10.983   1.443   3.758  0.3490  0.5511  0.1926
  717HK4     H660184  10.925   1.514   3.697  0.9255  1.0045  0.1726
  717HK4     C760185  11.214   1.170   3.970 -0.0847  0.0935  0.3477
  717HK4     O260186   0.085   1.148   3.945 -0.2521  0.0042 -0.4090
  717HK4     C460187  11.153   1.100   4.085 -0.7117  0.1332  0.0384
  717HK4     C360188  11.213   0.989   4.141 -0.2062  0.4896  0.1990
  717HK4     H360189   0.022   0.917   4.079  1.2749  0.6259  1.3426
  717HK4     C260190  11.201   0.956   4.276  0.5553 -0.0509  0.1361
  717HK4     H260191  11.236   0.857   4.311 -1.5992 -0.6341  0.6718
  717HK4     C160192  11.131   1.038   4.363  0.4758 -0.1632  0.1812
  717HK4     H160193  11.131   1.015   4.470  0.4497 -2.6804 -0.3425
  717HK4     C660194  11.075   1.156   4.308  0.5538 -0.0135  0.4273
  717HK4     C560195  11.072   1.178   4.170 -0.2396  0.1577  0.4681
  717HK4    C1060196  10.973   1.257   4.091  0.1980 -0.0951 -0.3399
  717HK4     O160197  10.855   1.238   4.118  0.1983  0.5645  0.1168
  717HK4    C1660198  11.085   1.267   4.404 -0.0397  0.1103  0.3508
  717HK4    C1560199  11.013   1.384   4.376  0.1255 -0.0412 -0.7295
  717HK4     H760200  10.908   1.377   4.344 -0.0902 -0.9239  0.1503
  717HK4    C2060201  11.058   1.511   4.411 -0.2572 -0.2052  0.3641
  717HK4     H960202  11.011   1.600   4.368 -2.1986 -0.7644  1.2383
  717HK4    C1960203  11.173   1.527   4.487  0.0518  0.1171 -0.1696
  717HK4    C1860204  11.246   1.409   4.530 -0.5602 -0.1219  0.2101
  717HK4    C1760205  11.196   1.287   4.486  0.1036 -0.4271  0.2952
  717HK4     H860206   0.009   1.204   4.521  1.1007  0.2212  0.0923
  717HK4     N160207   0.119   1.440   4.596 -0.5797  0.4083 -0.0005
  717HK4    C2160208   0.116   1.580   4.603 -0.0414  0.4162  0.0758
  717HK4    C2260209   0.009   1.639   4.524  0.1079  0.1325 -0.3424
  717HK4    C2660210   0.014   1.774   4.491 -0.0454  0.1073 -0.4694
  717HK4    H1360211  11.191   1.817   4.420 -0.0263  0.3395 -0.3499
  717HK4    C2560212   0.121   1.851   4.534 -0.1259 -0.1682  0.2364
  717HK4    H1260213   0.129   1.960   4.529 -1.3741 -0.0906 -0.2241
  717HK4    C2460214   0.221   1.800   4.617  0.2093  0.2028  0.0642
  717HK4    H1160215   0.287   1.871   4.668  1.4568 -1.0611  0.2241
  717HK4    C2360216   0.215   1.665   4.651 -0.0787  0.2927  0.3685
  717HK4    H1060217   0.292   1.634   4.721  0.9520  1.6419 -0.1410
  717HK4    C3960218   0.174   1.356   4.694 -0.3803  1.1044  0.4859
  717HK4    C4160219   0.313   1.355   4.717 -0.2291 -0.2085 -0.4414
  717HK4    H2160220   0.377   1.409   4.646 -1.5492  3.0012  0.7415
  717HK4    C4260221   0.363   1.293   4.831 -0.2133  1.0118  0.2204
  717HK4    H2260222   0.471   1.303   4.850  0.0969 -1.8447  0.1349
  717HK4    C4360223   0.285   1.224   4.923  0.2846  0.1012 -0.0341
  717HK4    H2360224   0.324   1.171   5.010 -0.9412 -1.6977 -0.5672
  717HK4    C4460225   0.148   1.226   4.900  0.2154 -0.3632  0.3481
  717HK4    H2460226   0.078   1.196   4.980 -0.2999  2.6904  1.1029
  717HK4    C4560227   0.094   1.288   4.789  0.5173 -0.4330  0.1620
  717HK4    H2560228  11.233   1.283   4.774  0.4133  0.0571  0.7109
  718HK4    H2860229  10.818   0.534   0.343  1.4057 -0.5569  0.6513
  718HK4    C4860230  10.746   0.459   0.375  0.2610  0.2489  0.0057
  718HK4    C4760231  10.665   0.398   0.280  0.5143 -0.0241 -0.0367
  718HK4    H2760232  10.684   0.417   0.173  0.7504  3.9932  0.6316
  718HK4    C4660233  10.566   0.305   0.308 -0.1744  0.6309 -0.2846
  718HK4    H2660234  10.536   0.242   0.223  1.9510 -1.1236  0.1997
  718HK4    C4060235  10.531   0.271   0.441 -0.2514  0.6298 -0.3050
  718HK4    C5060236  10.605   0.342   0.538  0.1379 -0.0991 -0.0697
  718HK4    H3060237  10.562   0.339   0.639 -1.1736 -0.2708 -0.6296
  718HK4    C4960238  10.711   0.426   0.506  0.0190  0.0364 -0.1111
  718HK4    H2960239  10.752   0.491   0.585  0.2809 -1.2885  0.8507
  718HK4     N260240  10.421   0.194   0.480  0.1729  0.1133 -0.1166
  718HK4    C3060241  10.302   0.174   0.408 -0.0631 -0.2711  0.3825
  718HK4    C2960242  10.250   0.250   0.304 -0.0688  0.2574  0.7682
  718HK4    H1560243  10.277   0.355   0.295 -0.4774  0.2845 -0.2693
  718HK4    C2860244  10.138   0.212   0.230  0.0205  0.4568  0.5293
  718HK4    C2760245  10.075   0.091   0.265 -0.0590  0.0962 -0.8111
  718HK4    H1460246  10.000   0.047   0.198 -0.1894 -1.4443  0.3203
  718HK4    C3260247  10.122   0.010   0.367  0.0025  0.4547 -0.5533
  718HK4    H1660248  10.062  11.174   0.403 -2.2580  2.0208 -0.5968
  718HK4    C3160249  10.236   0.048   0.438 -0.0159 -0.3972 -0.0529
  718HK4    C3460250  10.317  11.243   0.545 -0.1050  0.3698  0.4000
  718HK4    C3360251  10.427   0.086   0.570  0.1173  0.2122  0.0060
  718HK4    C3560252  10.502   0.058   0.684  0.2994 -0.2655 -0.2322
  718HK4    H1760253  10.567   0.139   0.715  0.3873  0.9150 -3.2757
  718HK4    C3660254  10.476  11.200   0.770 -0.1519  0.0595  0.0330
  718HK4    H1860255  10.533  11.187   0.863  1.3596 -2.3758 -1.1886
  718HK4    C3760256  10.369  11.113   0.748  0.2294 -0.4291  0.1022
  718HK4    H1960257  10.341  11.035   0.818 -0.6066 -0.7826 -0.6092
  718HK4    C3860258  10.292  11.140   0.635 -0.0112  0.3953  0.4562
  718HK4    H2060259  10.209  11.074   0.608 -0.4350  1.3303 -0.5675
  718HK4    C1460260  10.062   0.309   0.149 -0.1478 -0.1429 -0.0310
  718HK4     C960261   9.923   0.312   0.135 -0.1850 -0.6462  0.1962
  718HK4     C860262   9.867   0.362   0.016  0.1578 -0.3208  0.1701
  718HK4    C1160263   9.946   0.411  11.160  0.5001  0.2710  0.7078
  718HK4     H460264   9.900   0.446  11.067  0.6144 -1.3989  0.0138
  718HK4    C1260265  10.082   0.428  11.185  0.8346 -0.1949 -0.7898
  718HK4     H560266  10.143   0.472  11.105  1.2987 -0.4005 -0.5503
  718HK4    C1360267  10.139   0.379   0.054 -0.4734  0.4060  0.1120
  718HK4     H660268  10.244   0.399   0.080  0.2100 -2.2282 -0.5068
  718HK4     C760269   9.722   0.342  11.241  0.0671  0.4330  0.0471
  718HK4     O260270   9.666   0.409  11.154 -0.0795  0.2693  0.0138
  718HK4     C460271   9.643   0.250   0.078  0.8235 -0.4258 -0.1644
  718HK4     C360272   9.517   0.208   0.036  0.5250  0.0372  0.2599
  718HK4     H360273   9.466   0.249  11.196  1.5048  0.2850 -0.1921
  718HK4     C260274   9.454   0.108   0.109 -0.3377  0.8317  0.6103
  718HK4     H260275   9.356   0.075   0.072 -0.0280  0.3105  0.2662
  718HK4     C160276   9.509   0.061   0.228  0.2016  0.0647  0.0625
  718HK4     H160277   9.448  11.238   0.286 -0.0265  2.0790  2.3748
  718HK4     C660278   9.631   0.111   0.278  0.1595 -0.0464  0.2772
  718HK4     C560279   9.693   0.213   0.204 -0.0693  0.1529  0.3613
  718HK4    C1060280   9.829   0.264   0.239 -0.1918  0.3014  0.6360
  718HK4     O160281   9.838   0.313   0.352  0.6136 -0.2065  0.7958
  718HK4    C1660282   9.704   0.013   0.359  0.1792 -0.1134  0.1797
  718HK4    C1560283   9.722  11.126   0.322 -0.2477 -0.1229  0.0105
  718HK4     H760284   9.662  11.093   0.236  1.3545  2.2139 -2.0646
  718HK4    C2060285   9.803  11.041   0.396 -0.1252 -0.0735 -0.0647
  718HK4     H960286   9.815  10.937   0.367  0.3498 -0.5121  1.6623
  718HK4    C1960287   9.859  11.081   0.517 -1.1695  0.2129  0.3276
  718HK4    C1860288   9.845  11.220   0.555  0.0543  0.2915  0.5169
  718HK4    C1760289   9.768   0.056   0.475 -0.1207 -0.0516  0.3209
  718HK4     H860290   9.732   0.154   0.507  0.2885  0.3288 -0.3830
  718HK4     N160291   9.893  11.230   0.687 -0.0889  0.2796  0.5703
  718HK4    C2160292   9.939  11.104   0.729  0.4131  0.2689 -0.0131
  718HK4    C2260293   9.920  11.005   0.624 -0.4363  0.3816  0.0328
  718HK4    C2660294   9.960  10.873   0.644  0.5673  0.6532 -0.1227
  718HK4    H1360295   9.969  10.803   0.561 -1.5019 -0.1341  0.2831
  718HK4    C2560296  10.008  10.837   0.769  0.6116 -0.1208 -0.3585
  718HK4    H1260297  10.038  10.739   0.804 -0.0648 -0.5274 -0.9052
  718HK4    C2460298  10.030  10.930   0.870  1.0065 -0.3178 -0.2623
  718HK4    H1160299  10.048  10.899   0.974  0.5311 -0.4757 -0.2252
  718HK4    C2360300   9.997  11.063   0.848  0.0221 -0.5348 -0.0940
  718HK4    H1060301  10.012  11.130   0.933  0.1320 -1.4538  0.6175
  718HK4    C3960302   9.935   0.104   0.743  0.3598  0.2336  0.3367
  718HK4    C4160303   9.935   0.123   0.883 -0.0554  0.2511  0.3341
  718HK4    H2160304   9.858   0.072   0.943  1.5367 -1.7993  0.6752
  718HK4    C4260305   9.988   0.239   0.938 -0.4083  0.5243  0.1017
  718HK4    H2260306  10.009   0.243   1.046  0.0295 -2.1549  0.1527
  718HK4    C4360307  10.025   0.348   0.860  0.3588  0.1920  0.0038
  718HK4    H2360308   9.999   0.438   0.916 -0.7095 -2.6984  4.4786
  718HK4    C4460309  10.022   0.332   0.722 -0.2773 -0.6078  0.1100
  718HK4    H2460310  10.010   0.421   0.659  0.5664  0.1701  1.0278
  718HK4    C4560311   9.984   0.210   0.666 -0.0906 -0.2952 -0.6875
  718HK4    H2560312   9.979   0.205   0.556 -1.0506 -2.5392 -0.5666
  719HK4    H2860313   8.355   8.500   2.422 -0.7980  1.8128  0.2019
  719HK4    C4860314   8.418   8.523   2.508  0.3379 -0.0775 -0.0797
  719HK4    C4760315   8.394   8.455   2.627  0.7070  0.0424  0.0637
  719HK4    H2760316   8.330   8.365   2.625 -1.1968  1.4005 -0.5038
  719HK4    C4660317   8.444   8.505   2.746  0.0738  0.0891  0.3066
  719HK4    H2660318   8.386   8.472   2.834  0.0912 -2.4042 -0.5938
  719HK4    C4060319   8.523   8.622   2.753  0.0498  0.1236  0.0110
  719HK4    C5060320   8.548   8.687   2.631  0.0089  0.6108  0.2621
  719HK4    H3060321   8.634   8.756   2.628  0.7249 -0.2804  0.2276
  719HK4    C4960322   8.490   8.642   2.513 -0.0287  0.1281  0.4655
  719HK4    H2960323   8.486   8.705   2.423  0.3144 -0.6236 -0.0856
  719HK4     N260324   8.519   8.700   2.869 -0.3565  0.5524 -0.2894
  719HK4    C3060325   8.415   8.721   2.962  0.1067  0.1317  0.3251
  719HK4    C2960326   8.285   8.674   2.959  0.2933 -0.3772  0.0380
  719HK4    H1560327   8.248   8.633   2.865 -1.2885 -0.7468  0.7942
  719HK4    C2860328   8.218   8.655   3.080 -0.0912  0.2040 -0.0848
  719HK4    C2760329   8.267   8.732   3.188 -0.2866 -0.1001  0.2219
  719HK4    H1460330   8.237   8.696   3.287 -0.4354 -1.0680 -0.1749
  719HK4    C3260331   8.384   8.808   3.184 -0.1906 -0.2519  0.2002
  719HK4    H1660332   8.426   8.837   3.280  0.9265  0.5948 -0.5378
  719HK4    C3160333   8.459   8.810   3.067  0.1873 -0.0547  0.4471
  719HK4    C3460334   8.595   8.850   3.035  0.0189  0.0018 -0.2035
  719HK4    C3360335   8.632   8.766   2.923 -0.0715  0.0681 -0.2826
  719HK4    C3560336   8.764   8.761   2.881 -0.0182  0.3727 -0.1551
  719HK4    H1760337   8.787   8.694   2.798 -1.9126 -0.0203 -0.3898
  719HK4    C3660338   8.866   8.828   2.947  0.1550  0.3682 -0.4142
  719HK4    H1860339   8.970   8.821   2.912  0.6646  2.9664  0.4886
  719HK4    C3760340   8.826   8.910   3.052  0.0296  0.0265 -0.1991
  719HK4    H1960341   8.899   8.934   3.129 -0.0779  0.1927 -0.1498
  719HK4    C3860342   8.695   8.920   3.100  0.1564 -0.6712  0.3158
  719HK4    H2060343   8.676   8.958   3.201  1.6250  0.5886  0.1455
  719HK4    C1460344   8.093   8.580   3.083  0.0369 -0.0044  0.0812
  719HK4     C960345   7.993   8.585   3.182 -0.1259 -0.0264 -0.0807
  719HK4     C860346   7.906   8.477   3.209 -0.4563  0.2323 -0.1150
  719HK4    C1160347   7.918   8.364   3.129 -0.9539  0.3709 -0.3835
  719HK4     H460348   7.857   8.280   3.167  1.1652 -1.7219 -1.4710
  719HK4    C1260349   7.996   8.361   3.015 -0.0321 -0.1405  0.2566
  719HK4     H560350   8.006   8.269   2.955 -1.9886 -1.0334  1.2607
  719HK4    C1360351   8.081   8.470   2.995  0.2584 -0.3336  0.4593
  719HK4     H660352   8.152   8.466   2.911 -0.1413 -0.2612  0.1185
  719HK4     C760353   7.809   8.489   3.320 -0.0947  0.2082  0.2072
  719HK4     O260354   7.721   8.404   3.327  0.0641  0.0324  0.0463
  719HK4     C460355   7.800   8.612   3.403  0.1469  0.5698 -0.2928
  719HK4     C360356   7.704   8.621   3.503  0.5047  0.1291  0.0926
  719HK4     H360357   7.635   8.538   3.519  1.0873 -0.3362  0.2044
  719HK4     C260358   7.702   8.727   3.594  0.4716 -0.4293  0.7469
  719HK4     H260359   7.631   8.719   3.677  0.9321 -1.6216  1.0393
  719HK4     C160360   7.801   8.823   3.576 -0.4720  0.3908 -0.1492
  719HK4     H160361   7.782   8.915   3.633 -0.9848 -0.2462  0.7262
  719HK4     C660362   7.899   8.814   3.475 -0.0882  0.7941  0.1863
  719HK4     C560363   7.893   8.714   3.377 -0.9582  1.5291 -0.5107
  719HK4    C1060364   7.964   8.716   3.246 -0.3302 -0.0169 -0.1928
  719HK4     O160365   7.951   8.811   3.170  0.0405  0.1624 -0.0383
  719HK4    C1660366   8.034   8.858   3.514  0.3442 -0.2317 -0.1332
  719HK4    C1560367   8.081   8.846   3.647  0.0726 -0.2069 -0.0330
  719HK4     H760368   8.031   8.778   3.718  1.9429 -4.0865 -2.2186
  719HK4    C2060369   8.203   8.902   3.684 -0.3159  0.4880  0.1819
  719HK4     H960370   8.223   8.896   3.791 -0.9929  0.9774  0.3449
  719HK4    C1960371   8.278   8.980   3.597 -0.0337 -0.3474 -0.3314
  719HK4    C1860372   8.223   9.009   3.467 -0.3471  0.5582 -0.0017
  719HK4    C1760373   8.104   8.946   3.433  0.5749 -0.8696 -0.6236
  719HK4     H860374   8.039   8.994   3.359 -0.3035 -1.3659 -0.1841
  719HK4     N160375   8.296   9.109   3.400 -0.0932  0.1918 -0.2749
  719HK4    C2160376   8.410   9.131   3.480 -0.0589 -0.1339 -0.2304
  719HK4    C2260377   8.395   9.065   3.608  0.0897 -0.5032 -0.4036
  719HK4    C2660378   8.472   9.091   3.721 -0.7121  0.5421 -0.0936
  719HK4    H1360379   8.440   9.064   3.822  0.7590 -0.4459  0.1090
  719HK4    C2560380   8.570   9.188   3.705 -0.2878  0.1249 -0.0532
  719HK4    H1260381   8.621   9.211   3.798  0.6936 -1.4666 -0.1767
  719HK4    C2460382   8.591   9.257   3.586 -0.2548  0.1030 -0.0596
  719HK4    H1160383   8.673   9.327   3.566 -0.1174  0.4240  1.6149
  719HK4    C2360384   8.515   9.222   3.474  0.2008 -0.4348 -0.2023
  719HK4    H1060385   8.547   9.265   3.380  0.5885  3.4413  1.5863
  719HK4    C3960386   8.278   9.162   3.272 -0.6148  0.6324 -0.0205
  719HK4    C4160387   8.340   9.285   3.242  0.0763  0.4247  0.5462
  719HK4    H2160388   8.361   9.360   3.320  0.2024  0.4563  0.4802
  719HK4    C4260389   8.367   9.321   3.110 -0.5705 -0.2321  0.2349
  719HK4    H2260390   8.420   9.415   3.088 -2.3269  0.6157 -0.5360
  719HK4    C4360391   8.324   9.237   3.008 -1.0425  0.2569  0.0328
  719HK4    H2360392   8.333   9.274   2.906  1.2076 -2.4927 -0.8040
  719HK4    C4460393   8.264   9.115   3.036  0.3396 -0.3607  0.3380
  719HK4    H2460394   8.208   9.063   2.956 -1.3071 -0.1643  1.3554
  719HK4    C4560395   8.237   9.078   3.167 -0.4165  0.1151  0.3186
  719HK4    H2560396   8.176   8.988   3.185 -0.1741 -0.7065 -2.6794
  720HK4    H2860397   4.924   2.110   1.549  0.3818 -1.0440 -1.0316
  720HK4    C4860398   4.985   2.087   1.636 -0.1289  0.9356 -0.1333
  720HK4    C4760399   5.044   1.962   1.647  0.5175  1.2196 -0.3152
  720HK4    H2760400   5.060   1.901   1.557  0.4871  1.4202 -0.4541
  720HK4    C4660401   5.102   1.914   1.764 -0.3375 -0.1892 -0.4483
  720HK4    H2660402   5.157   1.819   1.772  1.2440  0.8279  1.4207
  720HK4    C4060403   5.102   1.994   1.881 -0.0424 -0.6330 -0.1405
  720HK4    C5060404   5.037   2.119   1.873  0.3212 -0.4492 -0.2383
  720HK4    H3060405   5.044   2.186   1.959  2.3362  0.1340 -0.8331
  720HK4    C4960406   4.983   2.163   1.752 -0.2439  0.2969  0.2863
  720HK4    H2960407   4.955   2.270   1.755 -0.6893  0.1602  1.6637
  720HK4     N260408   5.116   1.935   2.007  0.3816 -0.1973  0.0179
  720HK4    C3060409   5.079   1.810   2.060  0.3372 -0.2075 -0.0370
  720HK4    C2960410   5.043   1.694   1.991  0.1020 -0.6264  0.7767
  720HK4    H1560411   5.022   1.706   1.884  0.2024  2.0689  1.0168
  720HK4    C2860412   5.044   1.571   2.054  0.3727 -0.9778  0.0855
  720HK4    C2760413   5.073   1.562   2.191 -0.0281 -0.2576  0.2150
  720HK4    H1460414   5.042   1.468   2.238 -2.0122 -0.2576 -1.0329
  720HK4    C3260415   5.126   1.673   2.257 -0.2176 -0.0641  0.0454
  720HK4    H1660416   5.143   1.662   2.365  2.3755  0.8215 -0.2384
  720HK4    C3160417   5.126   1.797   2.196  0.4674 -0.1217 -0.0742
  720HK4    C3460418   5.187   1.926   2.225 -0.2725  0.1829  0.1465
  720HK4    C3360419   5.181   2.010   2.107  0.6843 -0.1990 -0.1798
  720HK4    C3560420   5.253   2.128   2.096 -0.1210  0.3861  0.7738
  720HK4    H1760421   5.281   2.159   1.995 -1.1292  1.1759  0.7191
  720HK4    C3660422   5.337   2.162   2.201  0.4024  0.2679  0.3973
  720HK4    H1860423   5.419   2.235   2.192  0.8275 -0.3826 -1.0384
  720HK4    C3760424   5.350   2.077   2.311  0.1460 -0.2621  0.0218
  720HK4    H1960425   5.415   2.114   2.391 -0.5409  0.3331  0.3125
  720HK4    C3860426   5.278   1.960   2.325 -0.1068 -0.0983  0.0942
  720HK4    H2060427   5.287   1.903   2.417  1.1309 -1.2497 -0.7108
  720HK4    C1460428   4.976   1.463   1.979 -0.1462 -0.1950 -0.5777
  720HK4     C960429   4.889   1.371   2.039 -0.3600  0.2752 -0.1560
  720HK4     C860430   4.896   1.235   2.003  0.0519  0.3523 -0.3740
  720HK4    C1160431   4.966   1.199   1.888 -0.5310 -0.3348 -0.5160
  720HK4     H460432   4.970   1.092   1.864 -0.9382 -0.6537  0.8021
  720HK4    C1260433   5.044   1.294   1.823  0.4056 -0.5041  0.3432
  720HK4     H560434   5.099   1.270   1.731  1.4276  0.5288  0.6833
  720HK4    C1360435   5.058   1.423   1.872  0.4630 -0.3600 -0.0484
  720HK4     H660436   5.108   1.498   1.809 -0.4736  0.5425  0.2639
  720HK4     C760437   4.816   1.126   2.064 -0.0151  0.0806 -0.9466
  720HK4     O260438   4.833   1.005   2.057 -0.1382  0.0133 -0.0581
  720HK4     C460439   4.709   1.174   2.155  0.1490 -0.2613 -0.5738
  720HK4     C360440   4.629   1.086   2.226 -0.2314  0.3952 -0.1892
  720HK4     H360441   4.661   0.987   2.263 -0.3920  0.0152 -1.0452
  720HK4     C260442   4.510   1.130   2.283 -0.5244  0.0107 -0.4898
  720HK4     H260443   4.459   1.068   2.359  0.9132  0.8327  1.1934
  720HK4     C160444   4.462   1.260   2.273 -1.0257 -0.1507 -0.1793
  720HK4     H160445   4.398   1.296   2.356 -0.8047  2.3485 -1.0498
  720HK4     C660446   4.542   1.348   2.198 -0.3876 -0.5422  0.0371
  720HK4     C560447   4.668   1.309   2.152 -0.1750 -0.3392  0.4507
  720HK4    C1060448   4.769   1.413   2.116  0.0622 -0.4108  0.8913
  720HK4     O160449   4.759   1.528   2.159 -0.2537 -0.0413 -0.1581
  720HK4    C1660450   4.473   1.473   2.162 -0.2316 -0.4624  0.0194
  720HK4    C1560451   4.367   1.527   2.238 -0.2592  0.3009 -0.5512
  720HK4     H760452   4.387   1.528   2.346  2.0401  1.7618 -0.9624
  720HK4    C2060453   4.264   1.605   2.187 -0.8205  0.0737  0.2169
  720HK4     H960454   4.183   1.634   2.254 -0.4050  0.2873  0.6315
  720HK4    C1960455   4.266   1.642   2.053  0.1774  0.3404  0.2972
  720HK4    C1860456   4.383   1.603   1.977 -0.3180 -0.3104 -0.1428
  720HK4    C1760457   4.480   1.520   2.032 -0.5331 -0.4702 -0.0021
  720HK4     H860458   4.559   1.486   1.964 -1.7187  1.0052 -2.1540
  720HK4     N160459   4.387   1.670   1.854 -0.1618 -0.7556 -0.3828
  720HK4    C2160460   4.267   1.744   1.844  0.3406  0.1483  0.2122
  720HK4    C2260461   4.196   1.738   1.971  0.0595  0.0448  0.0495
  720HK4    C2660462   4.086   1.822   1.990  0.5651  0.5714  0.6716
  720HK4    H1360463   4.036   1.806   2.086  1.1639 -0.9847  0.7467
  720HK4    C2560464   4.045   1.909   1.891  0.1383 -0.0695  0.2808
  720HK4    H1260465   3.955   1.971   1.899 -0.2064 -0.3918 -0.8739
  720HK4    C2460466   4.113   1.915   1.770  0.0727  0.2445  0.2581
  720HK4    H1160467   4.090   1.992   1.694  0.4515  1.4327  1.3302
  720HK4    C2360468   4.221   1.831   1.747 -0.6767 -0.6530 -0.0330
  720HK4    H1060469   4.259   1.818   1.645  1.5773  3.0400  0.2488
  720HK4    C3960470   4.507   1.715   1.798 -0.4467  0.2941 -0.1678
  720HK4    C4160471   4.518   1.733   1.658  0.7091 -0.3361 -0.1612
  720HK4    H2160472   4.447   1.673   1.600  0.5820 -0.5731  0.2364
  720HK4    C4260473   4.609   1.816   1.595 -0.2273  0.5897 -0.2990
  720HK4    H2260474   4.617   1.829   1.486  3.0020 -1.4291 -0.3725
  720HK4    C4360475   4.700   1.884   1.676 -0.2781 -0.0294  0.2717
  720HK4    H2360476   4.767   1.957   1.632 -2.0993  0.4716 -1.7328
  720HK4    C4460477   4.692   1.872   1.815  0.1234 -0.1028  0.2881
  720HK4    H2460478   4.777   1.910   1.873 -0.4863  0.4088  0.8443
  720HK4    C4560479   4.599   1.789   1.876  0.0513 -0.3462 -0.1494
  720HK4    H2560480   4.584   1.786   1.985 -2.1139 -0.3056 -0.4294
  721HK4    H2860481   4.556   6.736   1.665  0.1451  1.6266  1.4763
  721HK4    C4860482   4.505   6.797   1.591  0.2561 -0.3616 -0.3091
  721HK4    C4760483   4.561   6.900   1.516  0.3353  0.5383  0.9711
  721HK4    H2760484   4.668   6.925   1.524  0.6566  0.3580 -2.1971
  721HK4    C4660485   4.481   6.979   1.434  0.1037 -0.8358 -0.1381
  721HK4    H2660486   4.529   7.051   1.367 -1.8307 -0.8071 -1.5384
  721HK4    C4060487   4.341   6.970   1.423  0.0370  0.3098 -0.2688
  721HK4    C5060488   4.287   6.867   1.503  1.0897  0.0741  0.1399
  721HK4    H3060489   4.180   6.846   1.489  1.1340 -1.4006  1.7591
  721HK4    C4960490   4.366   6.789   1.587  0.2114 -0.1580  0.7589
  721HK4    H2960491   4.306   6.716   1.643 -0.3393 -0.8881 -0.7657
  721HK4     N260492   4.270   7.032   1.320 -0.3525  0.2161 -0.0590
  721HK4    C3060493   4.325   7.082   1.200  0.2550 -0.1471  0.0659
  721HK4    C2960494   4.427   7.028   1.122 -0.1658 -0.7469 -0.0759
  721HK4    H1560495   4.493   6.955   1.169  0.1433  0.2830  1.1232
  721HK4    C2860496   4.452   7.057   0.989  0.2615  0.3983  0.2505
  721HK4    C2760497   4.366   7.155   0.935 -0.3569 -0.6528 -0.6719
  721HK4    H1460498   4.378   7.176   0.827  0.3759  1.4567 -0.1912
  721HK4    C3260499   4.264   7.216   1.006  0.1659 -0.5160 -0.0373
  721HK4    H1660500   4.197   7.286   0.954 -0.5775 -1.5097 -0.4279
  721HK4    C3160501   4.244   7.187   1.140  0.2600 -0.1458  0.0575
  721HK4    C3460502   4.141   7.215   1.238  0.1754  0.6801 -0.2648
  721HK4    C3360503   4.154   7.110   1.338 -0.1982  0.5225 -0.3819
  721HK4    C3560504   4.075   7.121   1.452 -0.6473 -1.3128 -0.5018
  721HK4    H1760505   4.092   7.057   1.538  2.1049  1.1998  0.8890
  721HK4    C3660506   3.979   7.221   1.456 -0.4546 -1.1510  0.0363
  721HK4    H1860507   3.901   7.206   1.533  0.1825 -4.1028  0.1647
  721HK4    C3760508   3.963   7.320   1.360  0.1205 -0.6416  0.4635
  721HK4    H1960509   3.889   7.400   1.360  2.0053  1.1516  0.4271
  721HK4    C3860510   4.046   7.316   1.249  0.0508  0.4996  0.3592
  721HK4    H2060511   4.012   7.372   1.162 -2.3905 -0.0098  0.9466
  721HK4    C1460512   4.572   7.009   0.919 -0.0958 -0.3293  0.1329
  721HK4     C960513   4.616   7.063   0.798  0.4484 -0.1982  0.3871
  721HK4     C860514   4.653   6.972   0.697 -0.3300 -0.2570  0.1479
  721HK4    C1160515   4.664   6.835   0.717 -0.5781 -0.3502 -0.3517
  721HK4     H460516   4.712   6.767   0.646 -1.2701 -1.1652 -0.0502
  721HK4    C1260517   4.653   6.788   0.848  0.2657 -0.1704 -0.2169
  721HK4     H560518   4.672   6.682   0.870 -2.9338 -0.4767  1.2644
  721HK4    C1360519   4.607   6.875   0.946 -0.1194 -0.4012 -0.1949
  721HK4     H660520   4.616   6.830   1.046  2.3348 -1.3199 -0.8103
  721HK4     C760521   4.720   7.018   0.573 -0.6868  0.2630  0.1463
  721HK4     O260522   4.692   6.970   0.464 -0.3055  0.0115  0.1557
  721HK4     C460523   4.775   7.155   0.578  0.0225 -0.0006 -0.4035
  721HK4     C360524   4.879   7.194   0.493  0.9535 -0.0706  0.6924
  721HK4     H360525   4.943   7.116   0.450  1.1039  0.2793  0.2924
  721HK4     C260526   4.911   7.327   0.467 -0.8257  0.1653 -0.4074
  721HK4     H260527   5.000   7.350   0.408  2.0120 -2.3077  2.6706
  721HK4     C160528   4.837   7.423   0.536  0.0523  0.6233 -0.0990
  721HK4     H160529   4.858   7.526   0.503  2.0585 -0.3847 -2.1342
  721HK4     C660530   4.728   7.390   0.618  0.3419 -0.0572  0.0138
  721HK4     C560531   4.710   7.255   0.653  0.1846 -0.0810 -0.1556
  721HK4    C1060532   4.643   7.209   0.777  0.6023 -0.2818 -0.0064
  721HK4     O160533   4.626   7.282   0.875 -0.4221 -0.6392  0.0917
  721HK4    C1660534   4.609   7.470   0.586  0.0374 -0.3050  0.5119
  721HK4    C1560535   4.585   7.526   0.459  0.2680 -0.1734  0.5271
  721HK4     H760536   4.604   7.474   0.364  1.1882  0.9595  0.0780
  721HK4    C2060537   4.511   7.643   0.438  0.3809 -0.0873  0.6019
  721HK4     H960538   4.481   7.671   0.337  0.5590 -0.0271  0.5657
  721HK4    C1960539   4.457   7.709   0.548  0.1250  0.2019  0.3014
  721HK4    C1860540   4.467   7.644   0.678 -0.4237 -0.5228 -0.0168
  721HK4    C1760541   4.541   7.528   0.692  0.0671 -0.1520  0.4472
  721HK4     H860542   4.547   7.494   0.796  1.4313  0.2175  0.5022
  721HK4     N160543   4.409   7.731   0.772  0.0933 -0.1224 -0.0673
  721HK4    C2160544   4.362   7.846   0.705 -0.4528 -0.3468 -0.0685
  721HK4    C2260545   4.388   7.835   0.562 -0.6239 -0.1596 -0.1138
  721HK4    C2660546   4.318   7.915   0.473 -0.1863  0.3926  0.0386
  721HK4    H1360547   4.315   7.900   0.365 -1.4263 -0.6132  0.2088
  721HK4    C2560548   4.224   8.003   0.524 -0.0027  0.7758 -0.2698
  721HK4    H1260549   4.159   8.062   0.460 -0.1589  2.4543  1.3851
  721HK4    C2460550   4.194   8.018   0.659  0.3708  0.0312 -0.1024
  721HK4    H1160551   4.100   8.066   0.689 -0.3129 -1.4878  0.2300
  721HK4    C2360552   4.268   7.939   0.747 -0.2844 -0.2819  0.1667
  721HK4    H1060553   4.259   7.954   0.855 -1.6805 -4.2853  0.6607
  721HK4    C3960554   4.376   7.692   0.903  0.0021  0.3758  0.0613
  721HK4    C4160555   4.383   7.776   1.016 -0.0781  0.1035  0.2675
  721HK4    H2160556   4.442   7.868   1.007  0.0089  0.3632  2.9434
  721HK4    C4260557   4.312   7.750   1.133  0.2074  0.1529  0.4530
  721HK4    H2260558   4.313   7.830   1.208  1.5031 -0.0467  0.6545
  721HK4    C4360559   4.230   7.638   1.143  0.4036 -0.0726 -0.3625
  721HK4    H2360560   4.185   7.600   1.235 -0.5580 -1.1755 -1.2711
  721HK4    C4460561   4.216   7.560   1.029 -0.1824 -0.4933 -0.0113
  721HK4    H2460562   4.139   7.482   1.030 -0.8690  0.1573 -0.8313
  721HK4    C4560563   4.291   7.580   0.913  0.2312  0.2296  0.3773
  721HK4    H2560564   4.305   7.501   0.838 -1.6077  0.3341 -0.0913
  722HK4    H2860565   5.381   1.787   7.291 -0.6601 -1.0334 -0.1134
  722HK4    C4860566   5.282   1.819   7.260 -0.2180  0.0982 -0.3807
  722HK4    C4760567   5.252   1.936   7.190 -0.2282  0.4194  0.1609
  722HK4    H2760568   5.336   1.999   7.159 -0.8568 -0.3570 -3.3455
  722HK4    C4660569   5.120   1.949   7.147 -0.1316  0.0659 -0.2455
  722HK4    H2660570   5.095   2.029   7.077 -1.1588  0.6386  0.7625
  722HK4    C4060571   5.013   1.865   7.184  0.1590 -0.0843  0.2638
  722HK4    C5060572   5.048   1.750   7.258  0.0567 -0.3429 -0.0879
  722HK4    H3060573   4.976   1.675   7.293 -0.6102  0.5612  0.4911
  722HK4    C4960574   5.183   1.725   7.284  0.0622 -0.0581  0.1624
  722HK4    H2960575   5.217   1.620   7.289 -0.6243 -0.3411 -0.8135
  722HK4     N260576   4.880   1.907   7.176  0.0915 -0.3964 -0.3554
  722HK4    C3060577   4.828   2.038   7.183  0.2343 -0.3414 -0.3137
  722HK4    C2960578   4.880   2.154   7.237 -0.3879 -0.2194  0.0347
  722HK4    H1560579   4.988   2.149   7.257 -0.6475 -2.2035  1.0955
  722HK4    C2860580   4.803   2.268   7.253 -0.0015  0.0460  0.0367
  722HK4    C2760581   4.668   2.267   7.212 -0.1495 -0.5332  0.5430
  722HK4    H1460582   4.604   2.350   7.245 -0.9558  0.0204 -2.2838
  722HK4    C3260583   4.613   2.152   7.155 -0.0278 -0.0640 -0.5381
  722HK4    H1660584   4.508   2.154   7.124 -0.3588  2.4284  0.6025
  722HK4    C3160585   4.687   2.035   7.147  0.1369 -0.0029  0.0359
  722HK4    C3460586   4.650   1.897   7.124 -0.4273  0.2252 -0.4240
  722HK4    C3360587   4.773   1.822   7.140 -0.4212  0.2503 -0.3571
  722HK4    C3560588   4.762   1.684   7.144  0.1312  0.2255  0.3576
  722HK4    H1760589   4.844   1.612   7.142 -0.0702  0.0386 -1.9806
  722HK4    C3660590   4.638   1.623   7.128  0.2256 -0.0618  0.7196
  722HK4    H1860591   4.625   1.514   7.119  0.0046  0.1731 -2.2097
  722HK4    C3760592   4.521   1.697   7.114  0.4583  0.1595 -0.0715
  722HK4    H1960593   4.429   1.641   7.096  1.4831 -1.7419  0.4259
  722HK4    C3860594   4.526   1.836   7.115 -0.4673  0.1873  0.3841
  722HK4    H2060595   4.443   1.896   7.078  0.2424 -0.0284 -1.6168
  722HK4    C1460596   4.852   2.372   7.345 -0.2047 -0.0029  0.2029
  722HK4     C960597   4.767   2.448   7.425 -0.4215  0.1550 -0.1742
  722HK4     C860598   4.791   2.586   7.445  0.1578  0.0069  0.1762
  722HK4    C1160599   4.906   2.644   7.393  0.2190  0.2492  0.5763
  722HK4     H460600   4.936   2.746   7.419 -1.0946  0.4815  1.2197
  722HK4    C1260601   5.002   2.564   7.333 -0.3995 -0.3969  0.4396
  722HK4     H560602   5.107   2.597   7.326 -0.5474  0.2869  1.4461
  722HK4    C1360603   4.972   2.432   7.300 -0.1964 -0.2947 -0.1728
  722HK4     H660604   5.041   2.375   7.237  2.5488  2.1483  0.4971
  722HK4     C760605   4.702   2.672   7.527  0.7439  0.1183  0.6984
  722HK4     O260606   4.700   2.794   7.520 -0.8229  0.0691  0.1555
  722HK4     C460607   4.599   2.605   7.609  0.4335 -0.4729 -0.1590
  722HK4     C360608   4.522   2.682   7.695  0.2365 -0.1069 -0.6713
  722HK4     H360609   4.558   2.780   7.731 -1.9545  0.3778  0.3126
  722HK4     C260610   4.397   2.635   7.733  0.4080  0.2168  0.3181
  722HK4     H260611   4.330   2.688   7.801 -0.2260 -0.0084 -0.1242
  722HK4     C160612   4.358   2.504   7.708 -0.0730  0.3838  0.1709
  722HK4     H160613   4.266   2.466   7.754 -0.9297  2.1521 -0.0623
  722HK4     C660614   4.437   2.422   7.625 -0.2166 -0.0894  0.4966
  722HK4     C560615   4.558   2.474   7.577  0.1163 -0.6096  0.7731
  722HK4    C1060616   4.654   2.388   7.501 -0.4508 -0.1606 -0.4696
  722HK4     O160617   4.663   2.268   7.529 -0.5557  0.1023  0.7322
  722HK4    C1660618   4.358   2.309   7.576  0.5614 -0.3629 -0.1499
  722HK4    C1560619   4.225   2.323   7.532  0.4739 -0.0278  0.2215
  722HK4     H760620   4.192   2.425   7.509 -0.4051  0.0798  1.9011
  722HK4    C2060621   4.146   2.213   7.499 -0.0734  0.3628  0.2206
  722HK4     H960622   4.056   2.223   7.438 -0.5964 -0.7932  0.7867
  722HK4    C1960623   4.191   2.083   7.519 -0.5554  0.2024  0.2742
  722HK4    C1860624   4.320   2.063   7.582 -0.6243 -0.2554  0.2772
  722HK4    C1760625   4.392   2.179   7.612 -0.2449 -0.4743  0.2187
  722HK4     H860626   4.478   2.159   7.676 -0.4951 -1.1534  0.3509
  722HK4     N160627   4.361   1.929   7.592 -0.5459 -0.2383  0.1905
  722HK4    C2160628   4.253   1.869   7.524  0.2567 -0.4791 -0.8849
  722HK4    C2260629   4.140   1.951   7.486  0.2215 -0.0620  0.1155
  722HK4    C2660630   4.044   1.898   7.402 -0.0681 -0.3007  0.5932
  722HK4    H1360631   3.953   1.952   7.375 -0.2395 -0.7430  0.2695
  722HK4    C2560632   4.052   1.765   7.361  0.0944 -0.1298  0.0607
  722HK4    H1260633   3.958   1.722   7.324  0.8646  0.2788 -2.4447
  722HK4    C2460634   4.154   1.679   7.399  0.2183 -0.0941 -0.1894
  722HK4    H1160635   4.159   1.571   7.379  1.4075 -0.1916  0.5496
  722HK4    C2360636   4.253   1.738   7.477  0.4423 -0.8264  0.0760
  722HK4    H1060637   4.342   1.675   7.480  1.2473  0.2344 -1.4347
  722HK4    C3960638   4.491   1.877   7.601 -0.5491 -0.4208 -0.7234
  722HK4    C4160639   4.508   1.760   7.678  0.0807  0.0496 -0.1408
  722HK4    H2160640   4.446   1.746   7.768 -0.5350 -2.2458 -0.8916
  722HK4    C4260641   4.617   1.677   7.659 -0.2092 -0.2655 -0.4442
  722HK4    H2260642   4.623   1.586   7.721  4.3143  0.7546  0.8677
  722HK4    C4360643   4.714   1.707   7.564 -0.3484 -0.0494 -0.5168
  722HK4    H2360644   4.763   1.625   7.511  1.4927 -0.8573  2.3141
  722HK4    C4460645   4.710   1.830   7.498  0.5005  0.4795  0.3965
  722HK4    H2460646   4.794   1.863   7.436 -0.6009  1.6268 -0.5147
  722HK4    C4560647   4.598   1.911   7.517  0.0706 -0.0597  0.1965
  722HK4    H2560648   4.599   2.011   7.470  1.4272 -1.2838 -2.5285
  723HK4    H2860649   4.782   8.656   0.984  0.7114 -0.4587  0.9564
  723HK4    C4860650   4.867   8.698   0.929  0.2147 -0.1051  0.4456
  723HK4    C4760651   4.928   8.815   0.973 -0.0383  0.3596 -0.4245
  723HK4    H2760652   4.859   8.887   1.019  0.2589 -0.3025  1.1141
  723HK4    C4660653   5.053   8.844   0.921  0.1363  0.1459 -0.1299
  723HK4    H2660654   5.092   8.944   0.945 -1.6344  0.7209  0.3823
  723HK4    C4060655   5.125   8.760   0.833 -0.1995  0.4355 -0.6857
  723HK4    C5060656   5.056   8.645   0.789 -0.0618  0.0224  0.1637
  723HK4    H3060657   5.098   8.577   0.713 -0.4158  1.4042 -1.2765
  723HK4    C4960658   4.928   8.617   0.834 -0.2246  0.2600 -0.1502
  723HK4    H2960659   4.871   8.529   0.798 -1.6187  1.1893 -0.2596
  723HK4     N260660   5.265   8.758   0.830 -0.1792  0.6982 -0.0036
  723HK4    C3060661   5.358   8.804   0.925 -0.0327  0.5034 -0.0511
  723HK4    C2960662   5.340   8.832   1.060 -0.2283 -0.2648  0.0872
  723HK4    H1560663   5.238   8.827   1.100 -0.8988  2.9480 -1.1079
  723HK4    C2860664   5.445   8.857   1.147 -0.0906  0.2945 -0.2431
  723HK4    C2760665   5.574   8.847   1.090 -0.0304  0.1357 -0.0819
  723HK4    H1460666   5.662   8.869   1.152 -1.7873  1.2862  2.0778
  723HK4    C3260667   5.597   8.823   0.955 -0.0546  0.4187 -0.1383
  723HK4    H1660668   5.701   8.810   0.924  0.7312  2.2804  1.6340
  723HK4    C3160669   5.490   8.815   0.867 -0.0429  0.2039 -0.1320
  723HK4    C3460670   5.471   8.779   0.727 -0.0710  0.4502 -0.1921
  723HK4    C3360671   5.333   8.739   0.708 -0.1478  0.6109  0.0275
  723HK4    C3560672   5.294   8.703   0.580  0.5512 -0.6149  0.1546
  723HK4    H1760673   5.197   8.661   0.552  1.6216 -1.3168 -2.6842
  723HK4    C3660674   5.381   8.707   0.472 -0.1962  0.2053 -0.4239
  723HK4    H1860675   5.367   8.622   0.405  0.5970 -0.9191  0.8209
  723HK4    C3760676   5.513   8.748   0.493 -0.1627 -0.2847  0.3512
  723HK4    H1960677   5.587   8.738   0.413 -0.0290 -2.8794  0.7624
  723HK4    C3860678   5.558   8.785   0.619  0.2166  0.3431  0.0321
  723HK4    H2060679   5.663   8.804   0.642 -0.2097  1.6320  0.9739
  723HK4    C1460680   5.422   8.926   1.275  0.2287 -0.4415  0.2116
  723HK4     C960681   5.506   9.024   1.327 -0.2438  0.0138  0.1211
  723HK4     C860682   5.525   9.044   1.465 -0.6116  0.4869  0.1037
  723HK4    C1160683   5.454   8.957   1.547 -0.6172  0.1369 -0.2760
  723HK4     H460684   5.460   8.977   1.655 -2.3032  0.0354 -0.1401
  723HK4    C1260685   5.368   8.857   1.502 -0.7622  0.0054  0.2902
  723HK4     H560686   5.309   8.795   1.571 -1.1805 -0.2790 -0.3196
  723HK4    C1360687   5.348   8.846   1.365  0.3358 -0.5868  0.1723
  723HK4     H660688   5.269   8.786   1.319 -1.9021  1.0192  1.7927
  723HK4     C760689   5.586   9.164   1.526  0.3041  0.2922 -0.4171
  723HK4     O260690   5.609   9.171   1.646  0.0002  0.3390 -0.3615
  723HK4     C460691   5.643   9.264   1.433 -0.5229  0.7865 -0.3952
  723HK4     C360692   5.683   9.384   1.491 -0.6930  0.6970 -0.0897
  723HK4     H360693   5.660   9.418   1.593  0.5625  3.4370 -0.6736
  723HK4     C260694   5.747   9.477   1.411 -0.5673  0.5993 -0.1022
  723HK4     H260695   5.794   9.565   1.459  1.4896 -1.0051  0.8906
  723HK4     C160696   5.771   9.439   1.280 -0.2742  0.1329  0.0869
  723HK4     H160697   5.851   9.494   1.226 -2.2527  2.9242 -0.0876
  723HK4     C660698   5.727   9.321   1.217 -0.2138  0.2069 -0.0948
  723HK4     C560699   5.652   9.233   1.296 -0.1449  0.0541 -0.2007
  723HK4    C1060700   5.562   9.129   1.238  0.0621 -0.2437  0.0047
  723HK4     O160701   5.505   9.162   1.134 -0.1790 -0.3180  0.1137
  723HK4    C1660702   5.780   9.296   1.082 -0.0739 -0.2209  0.0385
  723HK4    C1560703   5.786   9.168   1.023  0.0133 -0.2091  0.0178
  723HK4     H760704   5.785   9.080   1.088 -1.5132 -1.4779 -1.6696
  723HK4    C2060705   5.781   9.149   0.885 -0.0587  0.2731 -0.0473
  723HK4     H960706   5.785   9.046   0.851  0.6351 -0.7026  2.8342
  723HK4    C1960707   5.774   9.257   0.798 -0.4283  0.1877 -0.1302
  723HK4    C1860708   5.757   9.389   0.855  0.5009  0.3369 -0.1881
  723HK4    C1760709   5.765   9.402   0.993  0.1933 -0.3070 -0.1102
  723HK4     H860710   5.730   9.498   1.030 -1.6618 -0.8247 -0.4503
  723HK4     N160711   5.784   9.485   0.755 -0.0598  0.3299 -0.3495
  723HK4    C2160712   5.819   9.413   0.638  0.1114 -0.6440  0.2904
  723HK4    C2260713   5.821   9.270   0.661  0.4445 -0.6719  0.0771
  723HK4    C2660714   5.868   9.179   0.567 -0.3020  0.0640 -1.0272
  723HK4    H1360715   5.845   9.074   0.584 -0.7062  0.1392 -1.1113
  723HK4    C2560716   5.924   9.226   0.449  0.4656  0.0614 -0.6680
  723HK4    H1260717   5.934   9.149   0.373  1.1366  1.4480 -1.9884
  723HK4    C2460718   5.928   9.363   0.427 -0.5264  0.2296  0.1042
  723HK4    H1160719   5.979   9.405   0.338 -0.8559 -0.4928 -0.4292
  723HK4    C2360720   5.868   9.453   0.515 -0.4024  0.0970  0.3185
  723HK4    H1060721   5.865   9.558   0.484  1.0427 -0.0930 -0.5356
  723HK4    C3960722   5.732   9.615   0.756 -0.1954  0.2745 -0.2233
  723HK4    C4160723   5.786   9.719   0.678  0.6590  0.1087  0.1531
  723HK4    H2160724   5.881   9.697   0.627  0.9069 -1.2236  1.1480
  723HK4    C4260725   5.730   9.846   0.664 -0.2428 -0.2959  0.0612
  723HK4    H2260726   5.794   9.934   0.648 -0.9846  0.2655  0.1760
  723HK4    C4360727   5.603   9.871   0.715 -0.2900 -0.1862 -0.1129
  723HK4    H2360728   5.550   9.963   0.690 -0.5743 -0.0847  0.8378
  723HK4    C4460729   5.548   9.772   0.795  0.1317  0.1332  0.5702
  723HK4    H2460730   5.449   9.791   0.839  0.8649 -2.0087  3.3129
  723HK4    C4560731   5.603   9.645   0.805  0.0621  0.1013  0.5564
  723HK4    H2560732   5.534   9.568   0.843 -0.9783  1.4028  1.3271
  724HK4    H2860733   2.312   6.665   3.125  0.5208 -1.5783  1.0719
  724HK4    C4860734   2.413   6.640   3.092  0.2157 -1.0274 -0.2910
  724HK4    C4760735   2.519   6.625   3.180  0.0807  0.3442  0.1121
  724HK4    H2760736   2.499   6.641   3.287  0.5802  0.7150  0.1553
  724HK4    C4660737   2.649   6.599   3.137 -0.1250 -0.7543  0.1531
  724HK4    H2660738   2.721   6.586   3.219 -0.1797 -0.5754  0.2304
  724HK4    C4060739   2.685   6.578   3.002 -0.1164  0.3139 -0.0119
  724HK4    C5060740   2.575   6.593   2.915  0.0521  0.1068 -0.2579
  724HK4    H3060741   2.591   6.579   2.807  1.2126  0.9353 -0.2021
  724HK4    C4960742   2.447   6.626   2.958 -0.0435  0.0176 -0.4737
  724HK4    H2960743   2.367   6.637   2.883 -1.2948  1.2772  1.0085
  724HK4     N260744   2.813   6.586   2.947  0.0451 -0.2633  0.2804
  724HK4    C3060745   2.923   6.654   3.003 -0.0935 -0.2654  0.5535
  724HK4    C2960746   2.923   6.753   3.101  0.1304  1.1348 -0.8421
  724HK4    H1560747   2.830   6.801   3.129  0.7921  1.2751  1.1700
  724HK4    C2860748   3.046   6.793   3.151  0.1207  0.4585 -0.2731
  724HK4    C2760749   3.165   6.758   3.084  0.1746  0.1575 -0.0224
  724HK4    H1460750   3.259   6.802   3.121  0.8263 -1.8644  0.7886
  724HK4    C3260751   3.167   6.659   2.987 -0.2643 -0.1221  0.2511
  724HK4    H1660752   3.261   6.607   2.969 -0.0811  0.0285  0.7841
  724HK4    C3160753   3.047   6.599   2.953 -0.2080 -0.2093  0.2115
  724HK4    C3460754   3.011   6.499   2.854  0.0519 -0.0465 -0.0522
  724HK4    C3360755   2.866   6.500   2.848  0.0608  0.2899 -0.1956
  724HK4    C3560756   2.799   6.392   2.791 -0.1565  0.5363 -0.4115
  724HK4    H1760757   2.690   6.391   2.786 -0.4698 -0.2501  4.5839
  724HK4    C3660758   2.868   6.283   2.738 -0.3577  0.6093 -0.8262
  724HK4    H1860759   2.811   6.202   2.692 -0.1829 -0.4966  0.8815
  724HK4    C3760760   3.007   6.283   2.746 -0.4296  0.4058  0.5634
  724HK4    H1960761   3.059   6.196   2.705 -1.1061  0.8518 -1.3259
  724HK4    C3860762   3.078   6.390   2.798  0.4010  0.0752  0.1345
  724HK4    H2060763   3.185   6.408   2.791  0.0005  1.7056 -2.3003
  724HK4    C1460764   3.047   6.867   3.278  0.1164 -0.1291  0.0738
  724HK4     C960765   3.150   6.958   3.309  0.1822 -0.0875 -0.2569
  724HK4     C860766   3.198   6.972   3.441 -0.0997 -0.3042 -0.1291
  724HK4    C1160767   3.133   6.900   3.540  0.5824 -1.1167 -0.2743
  724HK4     H460768   3.163   6.902   3.646  1.2064 -1.8166 -0.4295
  724HK4    C1260769   3.018   6.825   3.517  0.1601 -0.6028  0.1332
  724HK4     H560770   2.974   6.757   3.591 -0.1589 -1.0125 -0.4330
  724HK4    C1360771   2.976   6.809   3.385  0.4673 -0.6246  0.0376
  724HK4     H660772   2.884   6.752   3.366  1.3751 -2.5498  1.2522
  724HK4     C760773   3.315   7.056   3.474 -0.1999 -0.0919 -0.3093
  724HK4     O260774   3.326   7.094   3.591 -0.1172 -0.4033 -0.2164
  724HK4     C460775   3.389   7.119   3.362  0.1646  0.4995  0.2604
  724HK4     C360776   3.499   7.197   3.397 -0.0964  0.8624  0.2722
  724HK4     H360777   3.549   7.192   3.495 -1.7791  1.9840  1.2235
  724HK4     C260778   3.547   7.293   3.310 -0.0549  0.4807 -0.1263
  724HK4     H260779   3.645   7.340   3.329  0.1482 -0.4918  1.2459
  724HK4     C160780   3.496   7.297   3.180  0.2467 -0.7762 -0.2893
  724HK4     H160781   3.532   7.380   3.117  0.9782 -0.7769  0.1178
  724HK4     C660782   3.392   7.214   3.135 -0.4193 -0.2050  0.1803
  724HK4     C560783   3.335   7.131   3.232 -0.4145  0.1239  0.4638
  724HK4    C1060784   3.211   7.051   3.211 -0.4298  0.3338 -0.2434
  724HK4     O160785   3.127   7.099   3.136 -0.8715 -0.1858 -0.0807
  724HK4    C1660786   3.421   7.165   2.999  0.1912  0.1196  0.1897
  724HK4    C1560787   3.552   7.159   2.948  0.0647 -0.8864 -0.0346
  724HK4     H760788   3.629   7.169   3.026 -3.3271  0.7117  3.2571
  724HK4    C2060789   3.588   7.148   2.814 -0.1476  0.3079 -0.1984
  724HK4     H960790   3.679   7.206   2.794  0.0798 -0.6072 -1.8507
  724HK4    C1960791   3.490   7.127   2.719 -0.2497  0.5917 -0.1562
  724HK4    C1860792   3.353   7.124   2.768 -0.1032  0.2685  0.2289
  724HK4    C1760793   3.323   7.147   2.902  0.0812  0.4006  0.2492
  724HK4     H860794   3.217   7.163   2.921 -0.9574 -3.7436 -1.4414
  724HK4     N160795   3.263   7.134   2.661  0.2896  0.2083 -0.1065
  724HK4    C2160796   3.337   7.163   2.544  0.1252  0.1012 -0.2371
  724HK4    C2260797   3.478   7.158   2.578  0.1268  0.9371 -0.1123
  724HK4    C2660798   3.579   7.205   2.495  1.1609 -0.6698  0.2211
  724HK4    H1360799   3.681   7.197   2.531  1.3879  0.4969 -0.1483
  724HK4    C2560800   3.544   7.265   2.375  0.3631 -1.2302  0.1719
  724HK4    H1260801   3.617   7.300   2.302  1.6761 -0.8055  1.6874
  724HK4    C2460802   3.410   7.274   2.336  0.4472 -0.6347  0.0070
  724HK4    H1160803   3.386   7.325   2.241  1.3385  0.2655  0.2571
  724HK4    C2360804   3.313   7.218   2.419 -0.1539  0.1594 -0.1602
  724HK4    H1060805   3.213   7.217   2.376 -1.6387  2.3403  3.0960
  724HK4    C3960806   3.142   7.064   2.655  0.1498  0.3893  0.6423
  724HK4    C4160807   3.044   7.100   2.561  0.5531 -0.1184  0.0194
  724HK4    H2160808   3.050   7.194   2.503 -1.4291 -0.0680 -0.1467
  724HK4    C4260809   2.944   7.013   2.519  0.6440 -0.3334  0.2458
  724HK4    H2260810   2.894   7.034   2.423 -0.8537  0.1631  1.1171
  724HK4    C4360811   2.924   6.893   2.587 -0.2749 -0.4416 -0.2003
  724HK4    H2360812   2.837   6.830   2.573 -0.0290 -1.1327  1.3026
  724HK4    C4460813   3.019   6.852   2.680 -0.1047  0.9576  0.2680
  724HK4    H2460814   2.999   6.769   2.749  0.2907 -1.3903 -2.3337
  724HK4    C4560815   3.129   6.933   2.706  0.3823  0.2667  0.3894
  724HK4    H2560816   3.215   6.896   2.764 -0.4190 -0.2627  1.2686
  725HK4    H2860817   4.556  10.793   5.743  4.0879  2.2405 -0.2793
  725HK4    C4860818   4.530  10.814   5.639 -0.1731 -0.1354  0.1756
  725HK4    C4760819   4.409  10.869   5.595 -0.0824 -0.4574 -0.4691
  725HK4    H2760820   4.342  10.906   5.673 -0.5684  0.2894 -1.2395
  725HK4    C4660821   4.379  10.888   5.461  0.2958 -0.3153 -0.5346
  725HK4    H2660822   4.276  10.915   5.432 -0.5716 -1.2441  1.6228
  725HK4    C4060823   4.475  10.854   5.363  0.5853 -0.3338 -0.2430
  725HK4    C5060824   4.601  10.805   5.406  0.8108  0.3407 -0.1308
  725HK4    H3060825   4.688  10.817   5.340  0.3460  0.4150 -0.7384
  725HK4    C4960826   4.624  10.786   5.541 -0.1036  0.5027  0.0560
  725HK4    H2960827   4.720  10.739   5.567 -0.1993 -0.7753 -1.8789
  725HK4     N260828   4.445  10.803   5.236 -0.0584 -0.1995 -0.1467
  725HK4    C3060829   4.316  10.757   5.202 -0.1912 -0.4241  0.6331
  725HK4    C2960830   4.225  10.690   5.281 -0.1820 -0.2319  0.8078
  725HK4    H1560831   4.247  10.687   5.388  0.0042  3.9080  0.9502
  725HK4    C2860832   4.114  10.624   5.229 -0.2541  0.4113  0.1501
  725HK4    C2760833   4.095  10.627   5.089  0.3737  0.0317  0.0583
  725HK4    H1460834   3.999  10.589   5.050 -0.1413  0.3593  0.9974
  725HK4    C3260835   4.186  10.694   5.008  0.2635 -0.2866 -0.3290
  725HK4    H1660836   4.158  10.684   4.903  1.9763 -0.0122 -0.8273
  725HK4    C3160837   4.295  10.764   5.058 -0.2430 -0.1980  0.6502
  725HK4    C3460838   4.414  10.823   5.001 -0.4103 -0.5959 -0.1159
  725HK4    C3360839   4.505  10.836   5.113 -0.3852  0.1472 -0.2152
  725HK4    C3560840   4.640  10.843   5.080 -0.2777  0.2698  0.2435
  725HK4    H1760841   4.712  10.872   5.156 -0.4903  1.4175  0.0070
  725HK4    C3660842   4.681  10.840   4.947 -0.4263 -0.3142  0.2070
  725HK4    H1860843   4.790  10.841   4.928  0.1904  1.1281  3.4326
  725HK4    C3760844   4.591  10.843   4.842 -0.2647  0.0901  0.0795
  725HK4    H1960845   4.623  10.889   4.748 -1.7012  0.0989 -0.4237
  725HK4    C3860846   4.455  10.833   4.868 -0.2691 -0.1648 -0.0434
  725HK4    H2060847   4.387  10.876   4.795  2.2294  1.3093 -1.5337
  725HK4    C1460848   4.045  10.530   5.318 -0.2784  0.1709 -0.1256
  725HK4     C960849   3.988  10.407   5.282 -0.1355  0.0285  0.1390
  725HK4     C860850   3.873  10.365   5.352 -0.2825 -0.0158 -0.1312
  725HK4    C1160851   3.825  10.434   5.462  0.2412  0.2736 -0.0845
  725HK4     H460852   3.728  10.417   5.512 -0.5791 -0.6496 -1.9525
  725HK4    C1260853   3.890  10.548   5.506  0.4265  0.0923  0.1232
  725HK4     H560854   3.851  10.609   5.589  1.6910 -1.3390  1.8321
  725HK4    C1360855   3.998  10.596   5.433 -0.0324  0.5599 -0.2502
  725HK4     H660856   4.041  10.691   5.469  1.5389  0.6083 -2.1507
  725HK4     C760857   3.783  10.260   5.298  0.0875 -0.5251  0.2369
  725HK4     O260858   3.693  10.214   5.368 -0.2756 -0.0652  0.0777
  725HK4     C460859   3.804  10.202   5.164 -0.5167  0.2709 -0.2076
  725HK4     C360860   3.709  10.119   5.106 -0.4268 -0.3084  0.4687
  725HK4     H360861   3.619  10.088   5.161 -1.7306  0.5312 -1.1310
  725HK4     C260862   3.729  10.084   4.973  0.8853  0.1172  0.5461
  725HK4     H260863   3.654  10.015   4.932  1.0882 -0.9951  2.0204
  725HK4     C160864   3.841  10.121   4.900 -0.2230  0.9754 -0.7539
  725HK4     H160865   3.864  10.077   4.802 -0.0601 -0.4656 -0.0753
  725HK4     C660866   3.939  10.207   4.956 -0.1680  0.5154 -0.1353
  725HK4     C560867   3.921  10.234   5.092 -0.3074 -0.0889 -0.0292
  725HK4    C1060868   4.015  10.329   5.158 -0.3178 -0.3223  0.3198
  725HK4     O160869   4.135  10.305   5.144 -0.2110  0.2048  0.3222
  725HK4    C1660870   4.001  10.301   4.861 -0.1487  0.3013 -0.3343
  725HK4    C1560871   3.920  10.368   4.768 -0.6007  0.3293  0.0726
  725HK4     H760872   3.811  10.373   4.764 -0.7397 -0.5640  2.3445
  725HK4    C2060873   3.977  10.419   4.651  0.1780 -0.6820  0.0021
  725HK4     H960874   3.912  10.422   4.564  2.3720 -0.0679 -1.6416
  725HK4    C1960875   4.114  10.414   4.628  0.1581 -0.2488 -0.2112
  725HK4    C1860876   4.198  10.345   4.724 -0.4772 -0.4720  0.1804
  725HK4    C1760877   4.137  10.288   4.836 -0.1061 -0.5999  0.3156
  725HK4     H860878   4.195  10.221   4.899 -1.4070 -2.3984 -0.3584
  725HK4     N160879   4.326  10.323   4.671 -0.3976 -0.1320  0.2327
  725HK4    C2160880   4.317  10.367   4.537 -0.1566 -0.5142  0.0910
  725HK4    C2260881   4.193  10.435   4.508 -0.0262 -0.4642 -0.3706
  725HK4    C2660882   4.156  10.483   4.383 -0.0928  0.1012 -0.1370
  725HK4    H1360883   4.059  10.530   4.367  0.2689  0.7154 -0.5390
  725HK4    C2560884   4.245  10.464   4.278  0.4415  0.7383  0.2041
  725HK4    H1260885   4.213  10.493   4.178  0.4134  0.4422  0.1274
  725HK4    C2460886   4.366  10.400   4.303 -0.0257 -0.3652 -0.3599
  725HK4    H1160887   4.447  10.408   4.228  1.2989 -0.0548  1.0813
  725HK4    C2360888   4.397  10.343   4.426 -0.5443 -0.3548 -0.2221
  725HK4    H1060889   4.496  10.298   4.434 -0.5175 -0.1338  0.7696
  725HK4    C3960890   4.439  10.330   4.753 -0.3446 -0.6436  0.1976
  725HK4    C4160891   4.562  10.272   4.715  0.0870  0.1940  0.3137
  725HK4    H2160892   4.562  10.186   4.647  0.5623  0.3062  0.1756
  725HK4    C4260893   4.682  10.297   4.781  0.2116 -0.0773  0.1912
  725HK4    H2260894   4.769  10.229   4.779 -1.6513 -2.6570  2.2445
  725HK4    C4360895   4.682  10.384   4.889  0.0889 -0.0300  0.1550
  725HK4    H2360896   4.780  10.396   4.933  1.1600 -2.5623 -1.4044
  725HK4    C4460897   4.565  10.453   4.918 -0.1020 -0.2317 -0.1364
  725HK4    H2460898   4.568  10.530   4.997 -0.7610 -0.0733 -0.2568
  725HK4    C4560899   4.443  10.422   4.860 -0.2107 -0.9449  0.4572
  725HK4    H2560900   4.349  10.453   4.909 -1.7210 -2.5491 -1.2869
  726HK4    H2860901   5.735   7.469   5.683  0.6224 -1.4790  1.0670
  726HK4    C4860902   5.822   7.470   5.616 -0.4080 -0.4999 -0.2776
  726HK4    C4760903   5.944   7.505   5.671 -0.3406 -0.8404 -0.2086
  726HK4    H2760904   5.953   7.570   5.760 -2.9543 -2.8582  1.6011
  726HK4    C4660905   6.057   7.480   5.594  0.0230 -0.6814  0.2612
  726HK4    H2660906   6.155   7.505   5.635  0.5102 -1.1884 -0.5606
  726HK4    C4060907   6.056   7.423   5.464 -0.3982  0.3257 -0.1814
  726HK4    C5060908   5.931   7.380   5.415 -0.2876 -0.1511 -0.0507
  726HK4    H3060909   5.916   7.362   5.308 -1.0744  2.7393 -0.4704
  726HK4    C4960910   5.819   7.410   5.491 -0.5825  0.3263 -0.6739
  726HK4    H2960911   5.724   7.392   5.438 -1.6233  1.2966  0.8370
  726HK4     N260912   6.155   7.448   5.369 -0.5535  0.1647 -0.3829
  726HK4    C3060913   6.249   7.553   5.367 -0.0431 -0.2726  0.4053
  726HK4    C2960914   6.255   7.672   5.439  0.0957 -0.1171  0.1367
  726HK4    H1560915   6.160   7.705   5.479 -0.0798 -0.0081 -0.3705
  726HK4    C2860916   6.360   7.763   5.428 -0.2583  0.2572 -0.1559
  726HK4    C2760917   6.469   7.738   5.343  0.3158 -0.0576  0.6733
  726HK4    H1460918   6.562   7.797   5.346  0.7520 -0.7665  2.2640
  726HK4    C3260919   6.471   7.617   5.275 -0.2203  0.2793  0.0587
  726HK4    H1660920   6.562   7.582   5.226 -1.4908 -2.2643 -0.5543
  726HK4    C3160921   6.365   7.527   5.284 -0.0676  0.1194  0.2471
  726HK4    C3460922   6.344   7.395   5.229 -0.1621  0.2588 -0.0475
  726HK4    C3360923   6.218   7.353   5.286 -0.3909  0.3575 -0.4812
  726HK4    C3560924   6.174   7.228   5.242 -0.2895  0.1301  0.0645
  726HK4    H1760925   6.083   7.184   5.285  0.5066 -1.6363 -0.0216
  726HK4    C3660926   6.242   7.156   5.145  0.1524  0.9150 -0.2077
  726HK4    H1860927   6.199   7.061   5.111 -3.3530  1.5704  2.1222
  726HK4    C3760928   6.364   7.201   5.095  0.2453  0.0008 -0.8235
  726HK4    H1960929   6.432   7.130   5.049 -0.4205 -0.0639 -1.7141
  726HK4    C3860930   6.421   7.320   5.140 -0.2556 -0.1498  0.2167
  726HK4    H2060931   6.527   7.345   5.133  0.3381 -2.2273  1.3890
  726HK4    C1460932   6.343   7.896   5.489 -0.2391  0.1438  0.0949
  726HK4     C960933   6.389   8.008   5.418 -0.2541  0.0353 -0.0875
  726HK4     C860934   6.452   8.111   5.491 -0.1034 -0.0394 -0.1140
  726HK4    C1160935   6.455   8.112   5.630  0.2407 -0.5195 -0.1141
  726HK4     H460936   6.497   8.191   5.693  0.4055  0.3458 -1.3040
  726HK4    C1260937   6.396   8.008   5.702 -0.4093  0.1086  0.2676
  726HK4     H560938   6.408   8.006   5.811 -0.6711 -2.0326  0.2848
  726HK4    C1360939   6.347   7.900   5.630 -0.5511  0.2809  0.1019
  726HK4     H660940   6.312   7.812   5.687 -1.5436  0.9367  0.5116
  726HK4     C760941   6.493   8.238   5.429 -0.4772  0.3652  0.4627
  726HK4     O260942   6.594   8.297   5.469 -0.3754  0.0779  0.6311
  726HK4     C460943   6.438   8.264   5.294  0.5618 -0.0523 -0.0513
  726HK4     C360944   6.452   8.391   5.240  0.7377 -0.2217 -0.4155
  726HK4     H360945   6.495   8.480   5.290  2.9583 -1.1295 -0.6733
  726HK4     C260946   6.431   8.416   5.105 -0.2499 -0.1173 -0.2422
  726HK4     H260947   6.421   8.518   5.065 -0.1774 -0.3109 -0.7585
  726HK4     C160948   6.400   8.310   5.021  0.3848  0.0824 -0.7270
  726HK4     H160949   6.371   8.341   4.919 -0.0026 -1.1659 -1.0058
  726HK4     C660950   6.380   8.180   5.071  0.0150  0.4430  0.0745
  726HK4     C560951   6.399   8.159   5.208  0.1032  0.0707  0.0075
  726HK4    C1060952   6.350   8.036   5.277 -0.4964  0.3183  0.0343
  726HK4     O160953   6.242   7.992   5.236 -0.5362  0.2630  0.1986
  726HK4    C1660954   6.362   8.075   4.970  0.7425  0.4386 -0.0579
  726HK4    C1560955   6.309   8.115   4.845 -0.0421 -0.5355 -0.0429
  726HK4     H760956   6.218   8.176   4.856  0.9042  0.4928  2.6313
  726HK4    C2060957   6.362   8.074   4.724  0.0334 -0.1119 -0.1515
  726HK4     H960958   6.333   8.119   4.629 -2.0972  1.1194  1.0320
  726HK4    C1960959   6.471   7.989   4.734 -0.1258 -0.2987  0.0084
  726HK4    C1860960   6.519   7.933   4.859  0.3489  0.0080 -0.0366
  726HK4    C1760961   6.457   7.974   4.976 -0.0549 -0.3319 -0.1291
  726HK4     H860962   6.482   7.926   5.071 -3.3648  1.0218  1.5001
  726HK4     N160963   6.649   7.880   4.845  0.6202  0.5287  0.4666
  726HK4    C2160964   6.690   7.905   4.712  0.1334  0.7139  0.3500
  726HK4    C2260965   6.579   7.964   4.640  0.1989  0.5800  0.1366
  726HK4    C2660966   6.603   8.005   4.510 -0.2006  0.4159  0.0108
  726HK4    H1360967   6.522   8.046   4.450 -0.1030  1.9479  0.9077
  726HK4    C2560968   6.730   7.999   4.453 -0.1049 -0.2972  0.2882
  726HK4    H1260969   6.751   8.073   4.376 -0.2561  2.6999  2.9912
  726HK4    C2460970   6.836   7.942   4.523  0.2645 -0.1601 -0.1638
  726HK4    H1160971   6.926   7.917   4.464  0.9032 -1.3385  1.2946
  726HK4    C2360972   6.816   7.898   4.653 -0.1096  0.1934 -0.1007
  726HK4    H1060973   6.901   7.858   4.709 -0.8563  0.6845  1.4127
  726HK4    C3960974   6.686   7.762   4.910  0.0638  0.2424  0.2690
  726HK4    C4160975   6.821   7.731   4.939  0.0021 -0.1516  0.1319
  726HK4    H2160976   6.897   7.810   4.930 -1.2562  0.9355 -1.2205
  726HK4    C4260977   6.860   7.602   4.974  0.3215 -0.1165 -0.0871
  726HK4    H2260978   6.960   7.583   5.016 -0.6160  0.7251  2.6042
  726HK4    C4360979   6.766   7.500   4.977 -0.0699  0.2543  0.4337
  726HK4    H2360980   6.796   7.401   5.011 -1.2745 -0.3473 -0.2356
  726HK4    C4460981   6.633   7.527   4.948  0.0276 -0.0446 -0.2879
  726HK4    H2460982   6.564   7.441   4.956 -1.7362  1.3738 -0.0791
  726HK4    C4560983   6.594   7.655   4.913  0.3549 -0.0431 -0.6594
  726HK4    H2560984   6.493   7.659   4.868  0.3880 -1.4333 -0.8763
  727HK4    H2860985   6.812   7.746   1.848 -0.3512  0.2879 -0.1216
  727HK4    C4860986   6.857   7.809   1.924 -0.4926  0.0257  0.1765
  727HK4    C4760987   6.900   7.744   2.039  0.1825 -0.0491 -0.1156
  727HK4    H2760988   6.911   7.634   2.037  0.6627 -0.0324  1.0469
  727HK4    C4660989   6.939   7.811   2.154  0.1543 -0.1285 -0.0589
  727HK4    H2660990   6.966   7.756   2.246  2.1355  0.0804 -0.4832
  727HK4    C4060991   6.936   7.952   2.149 -0.6104 -0.1341  0.2336
  727HK4    C5060992   6.884   8.017   2.035  0.8515  0.5628 -0.0499
  727HK4    H3060993   6.867   8.125   2.039 -0.4486  0.3096  1.9118
  727HK4    C4960994   6.840   7.947   1.923  0.0784  0.0996  0.5331
  727HK4    H2960995   6.801   8.011   1.842 -0.1276 -1.8819 -0.9778
  727HK4     N260996   6.944   8.031   2.264 -0.1618  0.0708  0.0643
  727HK4    C3060997   6.901   8.006   2.396 -0.4192 -0.2865 -0.0866
  727HK4    C2960998   6.826   7.902   2.451 -0.5331 -0.1583 -0.0030
  727HK4    H1560999   6.794   7.822   2.385 -0.4996  0.0855 -0.3162
  727HK4    C2861000   6.786   7.894   2.584 -0.5059  0.0218  0.0164
  727HK4    C2761001   6.823   8.008   2.658 -0.5373  0.0680 -0.0373
  727HK4    H1461002   6.793   8.014   2.764  0.9495 -0.5228  0.4256
  727HK4    C3261003   6.892   8.118   2.609 -0.3675 -0.2901 -0.6006
  727HK4    H1661004   6.913   8.198   2.680 -0.3301 -1.6010  0.8950
  727HK4    C3161005   6.936   8.121   2.477  0.0913 -0.1857 -0.4451
  727HK4    C3461006   7.010   8.215   2.395 -0.2721  0.2586 -0.2642
  727HK4    C3361007   7.021   8.150   2.266 -0.5119  0.3021 -0.3061
  727HK4    C3561008   7.099   8.213   2.170  0.0733  0.1528  0.0755
  727HK4    H1761009   7.096   8.183   2.066  1.6092  1.0985 -0.2629
  727HK4    C3661010   7.141   8.344   2.192 -0.1671  0.2967 -0.3430
  727HK4    H1861011   7.190   8.401   2.111 -0.2346 -0.2112 -0.7491
  727HK4    C3761012   7.117   8.408   2.313  0.6663  0.0716 -0.0595
  727HK4    H1961013   7.162   8.506   2.325  0.8077  0.0196 -0.1636
  727HK4    C3861014   7.055   8.344   2.419 -0.2925  0.3096 -0.4782
  727HK4    H2061015   7.041   8.391   2.517 -3.1752  0.1122 -0.7371
  727HK4    C1461016   6.692   7.788   2.621 -0.7138  0.0707 -0.3708
  727HK4     C961017   6.617   7.798   2.739 -0.5176  0.1946 -0.2565
  727HK4     C861018   6.595   7.677   2.809 -0.2822  0.2211 -0.1387
  727HK4    C1161019   6.607   7.553   2.749  0.9891  0.0636  0.4368
  727HK4     H461020   6.581   7.455   2.792  0.4639  0.1525  0.3205
  727HK4    C1261021   6.666   7.546   2.623  1.0292 -0.5055  0.4814
  727HK4     H561022   6.680   7.451   2.570 -1.1166 -2.0417  2.5615
  727HK4    C1361023   6.710   7.662   2.559 -0.5687 -0.1232  0.0577
  727HK4     H661024   6.743   7.653   2.455  1.9283 -0.1499  0.8207
  727HK4     C761025   6.548   7.674   2.949  0.0996 -0.5726 -0.0231
  727HK4     O261026   6.554   7.574   3.020 -0.1747 -0.5639  0.0147
  727HK4     C461027   6.526   7.805   3.015  0.3631 -0.4430 -0.1938
  727HK4     C361028   6.492   7.802   3.150  0.2797  0.4836 -0.1908
  727HK4     H361029   6.515   7.714   3.212 -0.3988 -0.2742 -1.0022
  727HK4     C261030   6.438   7.912   3.215 -0.4903 -0.2775  0.4688
  727HK4     H261031   6.390   7.901   3.314  0.7682  1.6425  1.3258
  727HK4     C161032   6.439   8.030   3.142  0.4285 -0.5429  0.0483
  727HK4     H161033   6.390   8.118   3.185 -0.7663 -0.4849 -1.4026
  727HK4     C661034   6.489   8.041   3.010 -0.2912  0.3904 -0.1536
  727HK4     C561035   6.526   7.925   2.941 -0.8327 -0.0917  0.3607
  727HK4    C1061036   6.554   7.921   2.795  0.2849  0.2376  0.5615
  727HK4     O161037   6.494   7.991   2.714 -0.0506 -0.3770  0.2775
  727HK4    C1661038   6.548   8.173   2.982  0.8164 -0.1226 -0.2759
  727HK4    C1561039   6.614   8.236   3.089 -0.0645  0.2041  0.0815
  727HK4     H761040   6.666   8.181   3.169 -2.4424 -0.4952  1.1911
  727HK4    C2061041   6.621   8.375   3.092  0.4466  0.1762  0.2129
  727HK4     H961042   6.654   8.427   3.182  0.6609 -1.6901  1.2429
  727HK4    C1961043   6.581   8.455   2.986  0.2678 -0.2473 -0.0420
  727HK4    C1861044   6.519   8.389   2.873 -0.2812  0.0233  0.1002
  727HK4    C1761045   6.497   8.252   2.880  0.0160 -0.0225  0.1964
  727HK4     H861046   6.418   8.218   2.813 -0.7006 -0.3491  1.2067
  727HK4     N161047   6.471   8.482   2.779  0.2453  0.6080  0.4078
  727HK4    C2161048   6.492   8.611   2.831  1.2825  0.8475 -0.5832
  727HK4    C2261049   6.564   8.596   2.956  0.2180 -0.2640 -0.0929
  727HK4    C2661050   6.600   8.707   3.032 -0.4812 -0.1686  0.1038
  727HK4    H1361051   6.668   8.707   3.117  0.2117  0.2912 -0.4427
  727HK4    C2561052   6.556   8.831   2.987 -0.0233 -0.0074  0.0924
  727HK4    H1261053   6.556   8.923   3.046  0.6862  1.2396 -1.8075
  727HK4    C2461054   6.488   8.847   2.867 -0.3695 -0.3354  0.2450
  727HK4    H1161055   6.461   8.947   2.830 -0.9197 -1.0091 -1.1974
  727HK4    C2361056   6.454   8.738   2.788 -0.5699  0.3118 -0.5680
  727HK4    H1061057   6.443   8.749   2.680  1.1052  1.0380 -0.6740
  727HK4    C3961058   6.434   8.445   2.649  0.6051  0.2227  0.4148
  727HK4    C4161059   6.348   8.533   2.580  0.3724 -0.0668  0.3348
  727HK4    H2161060   6.277   8.600   2.632  0.4410 -1.1911  1.9157
  727HK4    C4261061   6.345   8.525   2.441 -0.3883 -0.3288  0.3616
  727HK4    H2261062   6.282   8.597   2.387 -1.8218 -0.4700  1.8014
  727HK4    C4361063   6.421   8.437   2.366 -0.1813  0.2442 -0.1046
  727HK4    H2361064   6.429   8.451   2.258 -0.0260  0.6590 -0.0400
  727HK4    C4461065   6.501   8.348   2.437  0.0849  0.7577  0.2514
  727HK4    H2461066   6.578   8.292   2.381  0.0399  2.6460 -1.7426
  727HK4    C4561067   6.504   8.347   2.576 -0.2199 -0.2629  0.2600
  727HK4    H2561068   6.562   8.270   2.629 -0.4747 -0.4257  0.3011
  728HK4    H2861069   8.577   2.233   2.796 -0.0297 -0.5273 -0.0611
  728HK4    C4861070   8.644   2.241   2.710  0.4490  0.9896  0.4311
  728HK4    C4761071   8.638   2.360   2.640  0.0225  0.4614 -0.4301
  728HK4    H2761072   8.541   2.412   2.635 -0.9623 -1.4442 -1.9955
  728HK4    C4661073   8.742   2.385   2.551 -0.0840  0.0067 -0.6835
  728HK4    H2661074   8.724   2.474   2.489 -0.7613  0.5371  0.2644
  728HK4    C4061075   8.856   2.302   2.537 -0.0955 -0.0484 -0.4500
  728HK4    C5061076   8.855   2.181   2.610 -0.6684  0.2589  0.0632
  728HK4    H3061077   8.934   2.105   2.600  0.7153  1.4550  1.7285
  728HK4    C4961078   8.752   2.154   2.699  0.0041  0.3738  0.8796
  728HK4    H2961079   8.768   2.081   2.780 -1.8285 -0.3086  0.6538
  728HK4     N261080   8.978   2.348   2.486  0.1072  0.2536  0.2978
  728HK4    C3061081   9.028   2.480   2.485  0.5025  0.1026  0.2918
  728HK4    C2961082   8.987   2.594   2.553  0.0765 -0.0250  0.2470
  728HK4    H1561083   8.909   2.583   2.629 -1.9142 -0.8179 -1.8320
  728HK4    C2861084   9.046   2.718   2.537  0.3637 -0.1753  0.1486
  728HK4    C2761085   9.149   2.729   2.442  0.3087  0.2418  0.1357
  728HK4    H1461086   9.186   2.825   2.402 -0.7792 -0.1739 -1.9453
  728HK4    C3261087   9.197   2.617   2.373  0.2879  0.0833  0.3804
  728HK4    H1661088   9.273   2.634   2.297 -1.1610 -0.9477 -1.3306
  728HK4    C3161089   9.143   2.491   2.398  0.2728  0.0114 -0.0257
  728HK4    C3461090   9.167   2.361   2.338  0.0298 -0.0667  0.0471
  728HK4    C3361091   9.061   2.280   2.394  0.1850  0.0536  0.5169
  728HK4    C3561092   9.046   2.153   2.340 -0.7864  0.1889  0.4554
  728HK4    H1761093   8.945   2.111   2.339 -0.1268 -1.4407 -1.7736
  728HK4    C3661094   9.133   2.103   2.245 -0.2853  0.7160  0.6342
  728HK4    H1861095   9.127   2.001   2.204  1.2073  1.8724 -2.7304
  728HK4    C3761096   9.233   2.185   2.194  0.0079  0.0162  0.0607
  728HK4    H1961097   9.312   2.135   2.138  0.6542  0.5135  0.5106
  728HK4    C3861098   9.255   2.314   2.241  0.4773 -0.2277  0.5212
  728HK4    H2061099   9.323   2.385   2.193  0.1854 -0.1638  0.2055
  728HK4    C1461100   8.998   2.842   2.601 -0.0713 -0.1266 -0.2695
  728HK4     C961101   9.013   2.966   2.538 -0.3257 -0.0299 -0.1342
  728HK4     C861102   9.081   3.068   2.608  0.0550 -0.0649 -0.4568
  728HK4    C1161103   9.098   3.058   2.745  0.0780  0.6693 -0.4036
  728HK4     H461104   9.171   3.119   2.801 -0.0333  0.0788  0.3829
  728HK4    C1261105   9.046   2.950   2.814  0.2942  0.5749 -0.3863
  728HK4     H561106   9.051   2.954   2.924  2.0893 -0.9962 -0.3815
  728HK4    C1361107   9.001   2.840   2.742  0.2868  0.4979 -0.2638
  728HK4     H661108   9.005   2.743   2.795 -0.7335  0.7499  0.2885
  728HK4     C761109   9.116   3.193   2.537 -0.0423  0.2026 -0.0359
  728HK4     O261110   9.203   3.269   2.580  0.0183  0.1814 -0.1209
  728HK4     C461111   9.051   3.215   2.406 -0.0256  1.0432  0.0922
  728HK4     C361112   9.095   3.321   2.327  0.9834  0.5900  0.0427
  728HK4     H361113   9.196   3.363   2.340  0.7455  1.2493 -0.2546
  728HK4     C261114   9.030   3.355   2.209 -0.5065  0.2710  0.7698
  728HK4     H261115   9.083   3.411   2.131 -0.2086  1.2368  1.6516
  728HK4     C161116   8.911   3.290   2.176 -0.0345 -0.0381 -0.3419
  728HK4     H161117   8.854   3.344   2.099  1.5382  1.0314 -0.7987
  728HK4     C661118   8.861   3.184   2.254  0.4119  0.0578  0.0806
  728HK4     C561119   8.936   3.144   2.365  0.5868  0.1101 -0.0210
  728HK4    C1061120   8.933   3.005   2.418  0.5429 -0.1762 -0.7619
  728HK4     O161121   8.873   2.917   2.357 -0.2530  0.3582 -0.7514
  728HK4    C1661122   8.727   3.132   2.220  0.2165  0.5226  0.1416
  728HK4    C1561123   8.678   3.154   2.090 -0.1571 -0.6921  0.0751
  728HK4     H761124   8.752   3.171   2.010 -1.0044 -1.5087 -0.9088
  728HK4    C2061125   8.543   3.155   2.058 -0.1476 -0.4221  0.0307
  728HK4     H961126   8.513   3.184   1.957 -1.8366 -1.8818  0.0991
  728HK4    C1961127   8.450   3.126   2.157  0.0534 -0.1001  0.3125
  728HK4    C1861128   8.494   3.090   2.290  0.1599  0.1164  0.3366
  728HK4    C1761129   8.629   3.111   2.316  0.0756  0.9468  0.0937
  728HK4     H861130   8.669   3.120   2.416  2.0274  2.6014 -0.8008
  728HK4     N161131   8.386   3.047   2.370  0.1802 -0.4711  0.0578
  728HK4    C2161132   8.273   3.071   2.289  0.3448 -0.1811 -0.0871
  728HK4    C2261133   8.305   3.119   2.156  0.0681 -0.4143 -0.2370
  728HK4    C2661134   8.211   3.180   2.073 -0.0120 -0.4172 -0.1465
  728HK4    H1361135   8.234   3.198   1.968  3.4647  1.5630  0.8773
  728HK4    C2561136   8.081   3.200   2.117 -0.0008  0.2722 -0.4242
  728HK4    H1261137   8.013   3.266   2.063  0.6910  0.8925 -0.5399
  728HK4    C2461138   8.047   3.143   2.239  0.5891 -0.2720 -0.5169
  728HK4    H1161139   7.942   3.117   2.259  0.7018 -1.7711 -1.7333
  728HK4    C2361140   8.139   3.085   2.326  0.3901  0.1350 -0.0330
  728HK4    H1061141   8.102   3.037   2.416  0.1061  3.9486  1.9719
  728HK4    C3961142   8.390   2.933   2.451  0.3861 -0.4856  0.0249
  728HK4    C4161143   8.293   2.916   2.551 -0.1768 -0.2920 -0.4890
  728HK4    H2161144   8.240   3.006   2.586  0.0157  0.6200 -2.4801
  728HK4    C4261145   8.292   2.801   2.629  0.1139  0.3092  0.4055
  728HK4    H2261146   8.247   2.807   2.729  0.3358  1.6792  0.4370
  728HK4    C4361147   8.367   2.691   2.590 -0.1320  0.3846 -0.2790
  728HK4    H2361148   8.341   2.593   2.631 -0.4105  0.5006 -0.1739
  728HK4    C4461149   8.466   2.704   2.493 -0.3167 -0.1122 -0.5380
  728HK4    H2461150   8.556   2.641   2.500 -0.6440 -0.5387 -0.0946
  728HK4    C4561151   8.474   2.823   2.422  1.2996  0.1782  0.1294
  728HK4    H2561152   8.565   2.837   2.362 -0.5982  0.9568 -2.6208
  729HK4    H2861153   9.584   5.913   5.586 -2.0597 -0.8330  0.3905
  729HK4    C4861154   9.537   5.966   5.669 -0.1205  0.3135  0.7923
  729HK4    C4761155   9.624   6.033   5.755  0.7554  0.6140 -0.3154
  729HK4    H2761156   9.719   6.073   5.717  1.2095 -1.2427 -1.2139
  729HK4    C4661157   9.570   6.062   5.880 -0.3202 -0.3029 -0.5568
  729HK4    H2661158   9.632   6.127   5.943 -0.3916 -0.2997 -0.4905
  729HK4    C4061159   9.435   6.043   5.917 -0.3437  0.4852 -0.2167
  729HK4    C5061160   9.353   5.982   5.820 -0.0480 -0.3200  0.0321
  729HK4    H3061161   9.255   5.945   5.851  0.9196 -1.0561  2.3068
  729HK4    C4961162   9.402   5.946   5.695 -0.0724 -0.8484  0.1780
  729HK4    H2961163   9.329   5.906   5.623  1.2412 -1.3950 -0.8791
  729HK4     N261164   9.398   6.037   6.052 -0.2399 -0.6426 -0.2308
  729HK4    C3061165   9.486   6.006   6.158 -0.1966  0.1392 -0.0378
  729HK4    C2961166   9.606   5.935   6.157 -0.0944  0.3004  0.2674
  729HK4    H1561167   9.633   5.873   6.071 -0.7789  1.5331 -0.8611
  729HK4    C2861168   9.682   5.916   6.271 -0.1766 -0.4377  0.1995
  729HK4    C2761169   9.629   5.976   6.387 -0.0047  0.1753 -0.0381
  729HK4    H1461170   9.691   5.981   6.478  0.1179 -0.7293 -0.0705
  729HK4    C3261171   9.505   6.038   6.398 -0.4913 -0.8022  0.0999
  729HK4    H1661172   9.456   6.047   6.495  1.1813 -4.1523  1.3395
  729HK4    C3161173   9.433   6.060   6.282 -0.0317  0.2008  0.0050
  729HK4    C3461174   9.310   6.131   6.251  0.0782  0.2863 -0.2568
  729HK4    C3361175   9.288   6.103   6.110  0.0546 -0.2143 -0.1584
  729HK4    C3561176   9.176   6.167   6.059  0.5823  0.9953  0.1757
  729HK4    H1761177   9.144   6.147   5.956  1.6469  1.1430 -0.1961
  729HK4    C3661178   9.087   6.247   6.130 -0.4905 -0.0805  0.0612
  729HK4    H1861179   8.990   6.281   6.090 -0.3829 -1.9653 -1.9154
  729HK4    C3761180   9.119   6.277   6.262 -0.4171 -0.6598  0.1741
  729HK4    H1961181   9.058   6.343   6.322  0.8084  0.1005  0.6002
  729HK4    C3861182   9.225   6.212   6.325  0.3749  0.3992 -0.0460
  729HK4    H2061183   9.253   6.227   6.429  0.9540  1.5439 -0.3677
  729HK4    C1461184   9.805   5.835   6.268  0.4095  0.4409  0.2224
  729HK4     C961185   9.862   5.775   6.381 -0.2209  0.1748  0.4017
  729HK4     C861186  10.003   5.766   6.385 -0.2124 -0.0870 -0.4120
  729HK4    C1161187  10.078   5.790   6.271  0.0298  0.4013 -0.1504
  729HK4     H461188  10.185   5.765   6.265  0.4876  1.6529  2.2277
  729HK4    C1261189  10.023   5.835   6.152 -0.3280  0.8538  0.1835
  729HK4     H561190  10.098   5.855   6.073  1.4525  0.5958  1.7865
  729HK4    C1361191   9.887   5.863   6.157 -0.4050  0.5792 -0.3425
  729HK4     H661192   9.842   5.900   6.063  0.5769 -0.0010 -1.0509
  729HK4     C761193  10.071   5.713   6.505 -0.0857  0.5311 -0.2034
  729HK4     O261194  10.193   5.726   6.518 -0.1144  0.7566 -0.1715
  729HK4     C461195   9.990   5.648   6.611  0.0909  0.8719  0.1381
  729HK4     C361196  10.047   5.593   6.725  0.1405 -0.0957 -0.3469
  729HK4     H361197  10.146   5.547   6.720  0.3242  0.2292  0.2073
  729HK4     C261198   9.980   5.585   6.847 -0.3658 -0.2848 -0.6350
  729HK4     H261199  10.025   5.525   6.927  1.5261  0.2314 -1.2818
  729HK4     C161200   9.856   5.647   6.859 -0.2003 -0.1536  0.4360
  729HK4     H161201   9.799   5.634   6.952  0.9542 -1.5619  0.9786
  729HK4     C661202   9.793   5.702   6.746  0.1464  0.4676  0.5425
  729HK4     C561203   9.855   5.687   6.621  0.0186  0.5361  0.4718
  729HK4    C1061204   9.783   5.719   6.495 -0.1418  0.2399  0.4882
  729HK4     O161205   9.677   5.662   6.469  0.3889 -0.4326 -0.2418
  729HK4    C1661206   9.687   5.802   6.767 -0.2254  0.0755  0.5290
  729HK4    C1561207   9.709   5.909   6.856  0.5561 -0.1618  0.6328
  729HK4     H761208   9.813   5.927   6.885 -0.1138  2.5955  1.4989
  729HK4    C2061209   9.610   5.996   6.900  0.5855  0.1082  0.1757
  729HK4     H961210   9.645   6.095   6.930 -1.6942  1.1645 -0.5399
  729HK4    C1961211   9.478   5.963   6.872  0.6274  0.0462  0.0606
  729HK4    C1861212   9.448   5.848   6.788 -0.3383  0.3181  0.0284
  729HK4    C1761213   9.555   5.777   6.733 -0.1886  0.5376  0.0359
  729HK4     H861214   9.528   5.688   6.677  1.0386  1.1126 -1.5097
  729HK4     N161215   9.309   5.837   6.772 -0.3043  0.3036 -0.2549
  729HK4    C2161216   9.248   5.945   6.839  0.3074  0.3971  0.1518
  729HK4    C2261217   9.351   6.022   6.906  0.6958  0.6837 -0.7649
  729HK4    C2661218   9.328   6.152   6.950  0.0184  0.1400  0.5506
  729HK4    H1361219   9.417   6.207   6.980  1.1938 -1.5697  0.2931
  729HK4    C2561220   9.200   6.202   6.929  0.0165  0.2915  0.9159
  729HK4    H1261221   9.181   6.302   6.969  1.6546  0.2432  1.8868
  729HK4    C2461222   9.100   6.130   6.864  0.4216  0.3960  0.1799
  729HK4    H1161223   8.994   6.157   6.874 -0.4598 -2.5080 -0.8251
  729HK4    C2361224   9.124   6.002   6.815  0.3626  0.4510  0.0043
  729HK4    H1061225   9.036   5.948   6.779  0.8890  0.4227 -1.2522
  729HK4    C3961226   9.247   5.767   6.667  0.3531 -0.2029 -0.3059
  729HK4    C4161227   9.115   5.719   6.677  0.2471 -0.0125 -0.7841
  729HK4    H2161228   9.053   5.719   6.768  1.4922  0.5799  0.0849
  729HK4    C4261229   9.060   5.647   6.571 -0.1667 -0.8863  0.0199
  729HK4    H2261230   8.953   5.624   6.573  0.0573 -1.9758 -0.4664
  729HK4    C4361231   9.132   5.621   6.455  0.2682  0.3961 -0.0097
  729HK4    H2361232   9.089   5.552   6.382  1.7415 -0.2572 -0.2596
  729HK4    C4461233   9.257   5.680   6.442  0.5613 -0.2382 -0.0558
  729HK4    H2461234   9.300   5.684   6.341  1.8423 -0.7290  0.4622
  729HK4    C4561235   9.319   5.746   6.548  0.4243  0.4039 -0.3740
  729HK4    H2561236   9.402   5.813   6.520 -0.5173  1.7509  0.0278
  730HK4    H2861237  10.889   2.142  10.480 -0.2450 -0.1784  1.4155
  730HK4    C4861238  10.938   2.239  10.478  0.4584 -0.5565  0.1135
  730HK4    C4761239  10.895   2.334  10.570  0.1330 -0.1776 -0.4301
  730HK4    H2761240  10.820   2.304  10.645 -0.1417  1.9135  0.1492
  730HK4    C4661241  10.927   2.468  10.557 -0.1384 -0.0715 -0.0216
  730HK4    H2661242  10.874   2.533  10.628  0.2361  0.8691 -0.5895
  730HK4    C4061243  11.020   2.508  10.458  0.1163  0.1063  0.2845
  730HK4    C5061244  11.070   2.410  10.370  0.2068 -0.1201  0.5857
  730HK4    H3061245  11.136   2.443  10.288 -0.8461 -3.6470 -1.7908
  730HK4    C4961246  11.029   2.278  10.381  0.2597 -0.1798  0.0733
  730HK4    H2961247  11.073   2.200  10.317  0.8695  0.2749 -0.0715
  730HK4     N261248  11.059   2.642  10.447 -0.1939  0.1764  0.0427
  730HK4    C3061249  10.978   2.753  10.477 -0.4688  0.0210 -0.1394
  730HK4    C2961250  10.840   2.770  10.472 -0.4715  0.1097  0.1143
  730HK4    H1561251  10.769   2.688  10.466 -0.6819  0.1271  1.9510
  730HK4    C2861252  10.784   2.898  10.470 -0.3025  0.1834  0.1835
  730HK4    C2761253  10.862   3.013  10.491  0.4251 -0.1468 -0.6942
  730HK4    H1461254  10.807   3.106  10.510 -2.1650 -2.1743  2.2911
  730HK4    C3261255  11.000   3.000  10.504  0.4116  0.1032 -0.2821
  730HK4    H1661256  11.065   3.086  10.491  0.1425  0.7738  2.4459
  730HK4    C3161257  11.057   2.874  10.493 -0.1782 -0.1955  0.0473
  730HK4    C3461258  11.193   2.827  10.475  0.1238  0.5356  0.3927
  730HK4    C3361259  11.191   2.688  10.433 -0.2108  0.4467  0.7042
  730HK4    C3561260   0.061   2.614  10.429 -0.0918  0.6712  0.1517
  730HK4    H1761261   0.062   2.514  10.387  1.1140  1.1647 -1.0514
  730HK4    C3661262   0.184   2.668  10.468  0.4316 -0.0917 -0.4239
  730HK4    H1861263   0.270   2.603  10.448  0.1000 -1.6209  2.7171
  730HK4    C3761264   0.187   2.802  10.504  0.3722 -0.0856 -0.4395
  730HK4    H1961265   0.277   2.864  10.512 -0.5637  1.2363  0.0265
  730HK4    C3861266   0.071   2.878  10.505  0.4606  0.0456 -0.1568
  730HK4    H2061267   0.084   2.986  10.500 -0.6662  0.1790 -0.3981
  730HK4    C1461268  10.654   2.918  10.405 -0.1848 -0.3903 -0.2401
  730HK4     C961269  10.626   3.030  10.326 -0.2626 -0.8044 -0.8066
  730HK4     C861270  10.494   3.078  10.326 -0.0920 -0.3266  0.0008
  730HK4    C1161271  10.394   3.015  10.401 -0.1506  0.0198  0.2141
  730HK4     H461272  10.297   3.064  10.417 -1.3593 -2.0792 -0.5439
  730HK4    C1261273  10.421   2.896  10.466  0.0117  0.1195  0.3297
  730HK4     H561274  10.343   2.852  10.531 -1.0304 -0.7573 -1.4749
  730HK4    C1361275  10.550   2.844  10.466 -0.1553 -0.3032 -0.0838
  730HK4     H661276  10.557   2.745  10.513 -1.2963 -0.8877 -1.1067
  730HK4     C761277  10.457   3.181  10.227  0.0450 -0.3896 -0.1146
  730HK4     O261278  10.339   3.215  10.215  0.0957 -0.2234 -0.1556
  730HK4     C461279  10.563   3.252  10.153 -0.2216  0.5987  0.4474
  730HK4     C361280  10.520   3.367  10.087 -0.0530  0.3115 -0.1637
  730HK4     H361281  10.416   3.380  10.053 -1.5003 -1.0588  3.4949
  730HK4     C261282  10.612   3.470  10.073  0.2764  0.0723  0.2230
  730HK4     H261283  10.590   3.569  10.030  1.3363  0.3056  0.1889
  730HK4     C161284  10.745   3.447  10.106  0.1981 -0.3123  0.2660
  730HK4     H161285  10.810   3.536  10.099 -0.4223  0.0340 -1.5647
  730HK4     C661286  10.791   3.326  10.162 -0.0132 -0.5164  0.0042
  730HK4     C561287  10.698   3.223  10.182 -0.2708 -0.3321 -0.2407
  730HK4    C1061288  10.733   3.092  10.243 -0.0243 -0.1701 -0.0341
  730HK4     O161289  10.815   3.026  10.178  0.5575  0.4609  0.0522
  730HK4    C1661290  10.920   3.332  10.232  0.0064 -0.6184 -0.0192
  730HK4    C1561291  10.960   3.444  10.308  0.1159 -0.8117  0.2063
  730HK4     H761292  10.882   3.519  10.327  1.2905  0.8106 -1.2744
  730HK4    C2061293  11.089   3.466  10.356  0.1433 -0.2993 -0.0961
  730HK4     H961294  11.120   3.545  10.423 -2.2896  0.1197  0.5785
  730HK4    C1961295  11.187   3.373  10.322  0.4417  0.0833 -0.2813
  730HK4    C1861296  11.150   3.263  10.234  0.1489  0.0289 -0.0903
  730HK4    C1761297  11.022   3.250  10.183  0.2213 -0.2286 -0.2195
  730HK4     H861298  11.007   3.199  10.089  1.6082 -0.4491 -0.3197
  730HK4     N161299   0.014   3.178  10.215 -0.0450 -0.1858 -0.2630
  730HK4    C2161300   0.118   3.238  10.288  0.2967 -0.7024 -0.3272
  730HK4    C2261301   0.076   3.354  10.364  0.4277 -0.5402 -0.5009
  730HK4    C2661302   0.159   3.428  10.447 -0.8912  0.7183 -0.2754
  730HK4    H1361303   0.140   3.534  10.464  2.0739  1.1318  0.7971
  730HK4    C2561304   0.284   3.371  10.472 -1.2556  0.1743  0.2976
  730HK4    H1261305   0.352   3.422  10.539 -2.4205 -0.0376  1.6779
  730HK4    C2461306   0.329   3.261  10.399 -0.4011  0.6661  0.0805
  730HK4    H1161307   0.435   3.236  10.408 -1.1463 -1.8117  3.0208
  730HK4    C2361308   0.250   3.197  10.305  0.5778  0.1585 -0.3959
  730HK4    H1061309   0.299   3.121  10.243  1.7061  0.3530  0.2485
  730HK4    C3961310   0.012   3.045  10.172  0.0059 -0.3959  0.3924
  730HK4    C4161311   0.126   2.979  10.122 -0.0654  0.1851 -0.5432
  730HK4    H2161312   0.194   3.044  10.066 -2.1956  1.4535 -1.7368
  730HK4    C4261313   0.114   2.844  10.091 -0.5366  0.1017 -0.0186
  730HK4    H2261314   0.213   2.800  10.071 -1.0765 -1.3431  0.4683
  730HK4    C4361315  11.248   2.766  10.104 -0.4416  0.0636  0.5921
  730HK4    H2361316   0.003   2.659  10.084  0.9890  0.4394 -1.3908
  730HK4    C4461317  11.132   2.834  10.142 -1.0525 -0.3960 -0.4382
  730HK4    H2461318  11.038   2.778  10.139 -1.0592 -0.4659  0.7637
  730HK4    C4561319  11.142   2.968  10.177  0.0675 -0.5289 -0.2067
  730HK4    H2561320  11.050   3.007  10.223 -0.6686 -1.2484 -1.0240
  731HK4    H2861321   8.457   6.566   1.868 -0.2441  0.2221  0.4426
  731HK4    C4861322   8.428   6.669   1.849  0.3042  0.3484  0.2668
  731HK4    C4761323   8.489   6.741   1.747  0.4477  0.5803  0.5137
  731HK4    H2761324   8.574   6.697   1.692  0.6831 -0.0981  1.3967
  731HK4    C4661325   8.455   6.872   1.718 -0.1556  0.3516  0.1712
  731HK4    H2661326   8.542   6.928   1.683 -1.6527  3.2324  0.8626
  731HK4    C4061327   8.354   6.945   1.785 -0.2288  0.0023  0.4394
  731HK4    C5061328   8.292   6.865   1.884 -0.7497 -0.4881 -0.2846
  731HK4    H3061329   8.219   6.924   1.940 -0.0893  1.3507 -1.2919
  731HK4    C4961330   8.330   6.737   1.921 -0.4052 -0.3184 -0.0540
  731HK4    H2961331   8.291   6.690   2.012  0.6497  0.5109  0.8485
  731HK4     N261332   8.314   7.068   1.731  0.1524  0.0017  0.1493
  731HK4    C3061333   8.283   7.182   1.808 -0.1025 -0.0611  0.1375
  731HK4    C2961334   8.277   7.200   1.946 -0.3075 -0.1868  0.1455
  731HK4    H1561335   8.311   7.116   2.007  2.1367  1.6321  1.3658
  731HK4    C2861336   8.216   7.307   2.012  0.4305  0.3059  0.0329
  731HK4    C2761337   8.161   7.401   1.923 -0.1025 -0.0737 -0.0405
  731HK4    H1461338   8.107   7.486   1.969  0.7706  0.2003  0.4927
  731HK4    C3261339   8.161   7.389   1.785  0.1945 -0.0331 -0.0448
  731HK4    H1661340   8.094   7.443   1.718  1.4648 -2.0297 -3.0040
  731HK4    C3161341   8.230   7.286   1.723  0.2129 -0.0339 -0.0235
  731HK4    C3461342   8.204   7.227   1.593 -0.5423 -0.1706  0.1900
  731HK4    C3361343   8.259   7.093   1.604  0.0744  0.0826  0.1993
  731HK4    C3561344   8.249   7.013   1.491  0.2510 -0.0947  0.3092
  731HK4    H1761345   8.285   6.910   1.494 -2.3310 -0.9939  1.9383
  731HK4    C3661346   8.200   7.061   1.370  0.6030 -0.2761  0.0923
  731HK4    H1861347   8.208   7.004   1.276  0.7370 -0.0530 -0.0334
  731HK4    C3761348   8.157   7.193   1.358  1.3482 -0.0184  0.2009
  731HK4    H1961349   8.116   7.234   1.265 -0.0372 -0.0980  0.7632
  731HK4    C3861350   8.153   7.272   1.472  0.3062  0.2493 -0.0092
  731HK4    H2061351   8.116   7.373   1.457 -0.8125 -0.3068 -1.0741
  731HK4    C1461352   8.177   7.296   2.153  0.1204 -0.1354 -0.0860
  731HK4     C961353   8.063   7.356   2.208 -0.1182 -0.6972  0.0381
  731HK4     C861354   8.079   7.402   2.341 -0.1068  0.0280 -0.2134
  731HK4    C1161355   8.189   7.365   2.416 -0.1568  0.1304 -0.0888
  731HK4     H461356   8.198   7.400   2.520 -2.7934  1.5531 -0.2936
  731HK4    C1261357   8.296   7.292   2.366 -0.0556  0.6019 -0.5593
  731HK4     H561358   8.391   7.283   2.421 -1.4831 -1.5304  1.6275
  731HK4    C1361359   8.287   7.257   2.231  0.0632 -0.6268 -0.2489
  731HK4     H661360   8.379   7.213   2.189 -0.5561 -0.2203 -2.0471
  731HK4     C761361   7.969   7.481   2.401  0.0902  0.3348 -0.2571
  731HK4     O261362   7.995   7.554   2.496  0.1330 -0.0459  0.0247
  731HK4     C461363   7.840   7.488   2.329 -0.3142 -0.8307  0.3418
  731HK4     C361364   7.745   7.576   2.379  0.3028  0.1288 -0.1531
  731HK4     H361365   7.766   7.635   2.469 -3.6311  1.5432 -0.0470
  731HK4     C261366   7.617   7.582   2.324  0.1622 -0.2164  0.1363
  731HK4     H261367   7.537   7.636   2.377 -0.8318 -0.9901 -0.5538
  731HK4     C161368   7.599   7.510   2.207 -0.5670 -0.2643  0.2787
  731HK4     H161369   7.501   7.519   2.157  1.1290 -1.1975 -3.3464
  731HK4     C661370   7.693   7.426   2.144 -0.4816 -0.0329  0.0905
  731HK4     C561371   7.817   7.418   2.208 -0.0208  0.8280 -0.6924
  731HK4    C1061372   7.929   7.342   2.146 -0.3350 -0.6131  0.4891
  731HK4     O161373   7.910   7.258   2.058 -0.6263 -0.1069  0.0644
  731HK4    C1661374   7.659   7.403   2.003 -0.6274  0.0650  0.1096
  731HK4    C1561375   7.624   7.514   1.922 -0.5998  0.1185  0.1707
  731HK4     H761376   7.626   7.613   1.970 -2.3412 -1.1143  2.9323
  731HK4    C2061377   7.556   7.495   1.802 -0.1968  0.1758 -0.0665
  731HK4     H961378   7.572   7.577   1.732  0.0116  0.4137  0.2595
  731HK4    C1961379   7.525   7.367   1.759 -0.6353  0.1391  0.3593
  731HK4    C1861380   7.562   7.253   1.840 -0.3884  0.1490  0.2604
  731HK4    C1761381   7.623   7.275   1.963  0.2702 -0.1522 -0.0113
  731HK4     H861382   7.650   7.188   2.022 -1.2027 -0.1641  0.6437
  731HK4     N161383   7.539   7.133   1.770  0.0470  0.1507  0.1177
  731HK4    C2161384   7.479   7.168   1.648  0.5646  0.2701 -0.1062
  731HK4    C2261385   7.474   7.312   1.634 -0.3554  0.2733  0.1857
  731HK4    C2661386   7.439   7.369   1.513  0.2274  0.1483 -0.0446
  731HK4    H1361387   7.458   7.475   1.498  1.9305 -0.1195  0.1888
  731HK4    C2561388   7.402   7.289   1.405 -0.0219 -0.2802  0.3542
  731HK4    H1261389   7.391   7.339   1.309 -1.3476  0.1846  0.7437
  731HK4    C2461390   7.393   7.151   1.418  0.2295 -0.3025  0.3120
  731HK4    H1161391   7.339   7.099   1.337  0.5390  0.2293 -0.2427
  731HK4    C2361392   7.430   7.095   1.540 -0.3137 -0.1439  0.5556
  731HK4    H1061393   7.444   6.987   1.540  0.6277 -0.0372 -0.9126
  731HK4    C3961394   7.532   7.005   1.827  0.0160  0.1295  0.0676
  731HK4    C4161395   7.566   6.893   1.749 -0.0751  0.0664  0.1177
  731HK4    H2161396   7.659   6.899   1.690  0.0328 -1.0879  0.1463
  731HK4    C4261397   7.514   6.771   1.790 -0.0312  0.1353  0.3766
  731HK4    H2261398   7.531   6.688   1.719 -2.7130  0.8337 -1.1344
  731HK4    C4361399   7.436   6.746   1.902 -0.6152 -0.1529 -0.0909
  731HK4    H2361400   7.407   6.643   1.920  0.5785 -0.9260 -2.3748
  731HK4    C4461401   7.398   6.856   1.978 -0.1849  0.0221 -0.1291
  731HK4    H2461402   7.302   6.843   2.031  0.2455 -0.4028  0.5534
  731HK4    C4561403   7.450   6.979   1.939 -0.3684  0.0708 -0.2224
  731HK4    H2561404   7.435   7.062   2.011 -0.9438  1.5400 -2.0030
  732HK4    H2861405   1.685   1.279   3.088 -3.1840 -2.4452  0.2253
  732HK4    C4861406   1.753   1.215   3.144 -0.2792  0.1438 -0.2147
  732HK4    C4761407   1.889   1.224   3.113 -0.0936  0.3454  0.6397
  732HK4    H2761408   1.919   1.273   3.019 -0.6287  0.5117  0.5541
  732HK4    C4661409   1.981   1.159   3.193  0.2245  0.1416  0.1112
  732HK4    H2661410   2.088   1.177   3.175  0.5748 -2.0208 -0.0798
  732HK4    C4061411   1.942   1.075   3.300 -0.1073 -0.3711 -0.4143
  732HK4    C5061412   1.804   1.073   3.327 -0.0549 -0.7265 -0.1704
  732HK4    H3061413   1.777   1.034   3.427  0.7946  1.1324  0.8156
  732HK4    C4961414   1.709   1.143   3.254  0.3112 -0.3722 -0.3105
  732HK4    H2961415   1.605   1.149   3.291  0.9010 -1.8514  1.6720
  732HK4     N261416   2.010   0.953   3.307  0.1535 -0.2104 -0.1119
  732HK4    C3061417   2.057   0.876   3.199 -0.5776 -0.2525 -0.4049
  732HK4    C2961418   2.046   0.886   3.060 -0.1121  0.5622 -0.3849
  732HK4    H1561419   1.996   0.975   3.023 -1.6218  0.3976  1.1756
  732HK4    C2861420   2.110   0.803   2.969 -0.3327 -0.3432  0.2817
  732HK4    C2761421   2.190   0.698   3.020 -0.2106 -0.1149  0.5612
  732HK4    H1461422   2.254   0.641   2.951 -1.7605  0.8918 -1.7851
  732HK4    C3261423   2.199   0.682   3.158 -0.0755 -0.2153  0.5413
  732HK4    H1661424   2.250   0.591   3.188  0.9084  0.0012 -0.4286
  732HK4    C3161425   2.132   0.762   3.249 -0.3304  0.1186  0.0641
  732HK4    C3461426   2.134   0.768   3.394 -0.1873 -0.0099  0.0690
  732HK4    C3361427   2.054   0.886   3.423 -0.0168  0.0908  0.1250
  732HK4    C3561428   2.047   0.924   3.556  0.6418  0.3095  0.1035
  732HK4    H1761429   1.975   1.000   3.589 -0.7191 -1.1771  0.6495
  732HK4    C3661430   2.117   0.855   3.654 -0.4299 -0.0251  0.6496
  732HK4    H1861431   2.118   0.906   3.752  0.6378  1.1337  0.0577
  732HK4    C3761432   2.198   0.747   3.624 -0.3758  0.1641  0.1108
  732HK4    H1961433   2.261   0.708   3.705  0.4590  1.2811  0.0073
  732HK4    C3861434   2.201   0.699   3.494 -0.5088 -0.1194  0.2111
  732HK4    H2061435   2.258   0.613   3.458 -1.9284 -0.8918 -0.2271
  732HK4    C1461436   2.084   0.805   2.824 -0.1141  0.2869  0.2537
  732HK4     C961437   2.099   0.699   2.735 -0.3389  0.4941 -0.0325
  732HK4     C861438   2.173   0.713   2.616 -0.0368  0.1151  0.1082
  732HK4    C1161439   2.213   0.842   2.582  0.8483 -0.1817  0.0008
  732HK4     H461440   2.296   0.856   2.511  1.3417 -1.2088  0.3637
  732HK4    C1261441   2.179   0.954   2.656  0.3552 -0.4954  0.2537
  732HK4     H561442   2.180   1.048   2.599  2.3754 -0.1575  0.7843
  732HK4    C1361443   2.117   0.935   2.779 -0.0608  0.2414  0.1626
  732HK4     H661444   2.099   1.019   2.847  0.9585  1.9271 -1.6180
  732HK4     C761445   2.197   0.600   2.523  0.7053  0.2306  0.1547
  732HK4     O261446   2.292   0.604   2.445  0.4181 -0.2199 -0.2194
  732HK4     C461447   2.112   0.480   2.539 -0.2583  0.8603 -0.2088
  732HK4     C361448   2.126   0.377   2.447 -0.4713  0.7449 -0.1124
  732HK4     H361449   2.211   0.374   2.377  0.3865 -0.1064  0.9427
  732HK4     C261450   2.045   0.264   2.452  1.0324 -0.3105  0.6424
  732HK4     H261451   2.051   0.182   2.380 -0.4267  2.0176 -2.2031
  732HK4     C161452   1.945   0.260   2.548  0.2804  0.5252 -0.0972
  732HK4     H161453   1.890   0.165   2.555  1.8696 -0.3446  1.1526
  732HK4     C661454   1.929   0.363   2.642  0.3906  0.3774  0.0860
  732HK4     C561455   2.022   0.467   2.648  0.7315  0.0501  0.5214
  732HK4    C1061456   2.021   0.573   2.752  0.8708 -0.1671  0.7442
  732HK4     O161457   1.969   0.550   2.861  0.1124  0.2658  0.4808
  732HK4    C1661458   1.802   0.354   2.717  0.2667  0.1422 -0.1509
  732HK4    C1561459   1.759   0.229   2.764  0.5057  0.1115 -0.0091
  732HK4     H761460   1.830   0.145   2.773  2.6929  1.5473 -3.0557
  732HK4    C2061461   1.633   0.217   2.823  0.4791  0.5435  0.0188
  732HK4     H961462   1.592   0.120   2.851 -0.5794  1.0869  0.3725
  732HK4    C1961463   1.554   0.330   2.839  0.0802  0.2061  0.4450
  732HK4    C1861464   1.595   0.459   2.784  0.0013  0.0914  0.1121
  732HK4    C1761465   1.719   0.465   2.723  0.3741  0.1749  0.8744
  732HK4     H861466   1.749   0.565   2.689 -3.2315  1.0540  0.1279
  732HK4     N161467   1.507   0.566   2.810  0.0446  0.2503 -0.3984
  732HK4    C2161468   1.403   0.504   2.883  0.1075 -0.1308 -0.6313
  732HK4    C2261469   1.426   0.361   2.900 -0.1648 -0.0916  0.0870
  732HK4    C2661470   1.327   0.283   2.958 -0.0260  0.1540  0.6578
  732HK4    H1361471   1.346   0.176   2.966  0.3123  0.0920 -0.8423
  732HK4    C2561472   1.215   0.339   3.019 -0.7011  0.0584 -0.4721
  732HK4    H1261473   1.157   0.278   3.087  0.6740 -1.1088 -0.3188
  732HK4    C2461474   1.202   0.478   3.015 -0.2044  0.1338  0.3571
  732HK4    H1161475   1.140   0.527   3.091 -2.2851 -2.3537  0.3568
  732HK4    C2361476   1.290   0.558   2.942  0.2295 -0.6139  0.0509
  732HK4    H1061477   1.262   0.652   2.896  1.6243  0.5859  1.6064
  732HK4    C3961478   1.547   0.699   2.824 -0.1743  0.2390  0.3798
  732HK4    C4161479   1.455   0.805   2.818 -0.3038  0.1257  0.3683
  732HK4    H2161480   1.365   0.782   2.759  0.6660  0.1088 -1.1281
  732HK4    C4261481   1.472   0.935   2.866  0.6245  0.4283 -0.7436
  732HK4    H2261482   1.397   1.011   2.840  0.2532  0.3721  0.1472
  732HK4    C4361483   1.597   0.964   2.919  0.1223  1.1766  0.0387
  732HK4    H2361484   1.624   1.066   2.947  0.6210  0.6158  1.6294
  732HK4    C4461485   1.685   0.858   2.940 -0.9310  0.3015  0.0477
  732HK4    H2461486   1.758   0.875   3.020 -0.4553 -1.0048 -0.1043
  732HK4    C4561487   1.665   0.728   2.895  0.1934  0.2231 -0.2182
  732HK4    H2561488   1.723   0.647   2.942  2.4099  1.5514 -0.5503
  733HK4    H2861489   0.543   7.695  10.723 -1.6419  1.4007 -4.2124
  733HK4    C4861490   0.500   7.595  10.716 -0.3318  0.4850 -0.3733
  733HK4    C4761491   0.380   7.555  10.772 -0.3958  0.1115 -0.7727
  733HK4    H2761492   0.317   7.633  10.818 -1.2893 -0.7457 -0.5133
  733HK4    C4661493   0.330   7.426  10.763 -0.1645 -0.0380  0.1499
  733HK4    H2661494   0.238   7.391  10.812  0.1477 -2.7856 -1.1134
  733HK4    C4061495   0.405   7.324  10.700  0.0994  0.1814  0.1047
  733HK4    C5061496   0.529   7.363  10.646  0.3051  0.2101  0.6008
  733HK4    H3061497   0.606   7.298  10.601  0.8043  2.2564 -1.5864
  733HK4    C4961498   0.574   7.494  10.655 -0.1770  0.4294 -0.0916
  733HK4    H2961499   0.675   7.512  10.615 -0.8244  0.6963 -1.6203
  733HK4     N261500   0.347   7.206  10.653  0.6661 -0.0304 -0.0682
  733HK4    C3061501   0.416   7.090  10.614 -0.0186 -0.5418  0.2150
  733HK4    C2961502   0.534   7.038  10.667  0.1304 -0.2059  0.2182
  733HK4    H1561503   0.568   7.081  10.761  2.1107 -1.6331  0.1733
  733HK4    C2861504   0.608   6.940  10.601  0.4214  0.3307 -0.2537
  733HK4    C2761505   0.546   6.893  10.484  0.2163  0.1395 -0.0677
  733HK4    H1461506   0.605   6.841  10.407 -1.5735 -4.6161  1.5824
  733HK4    C3261507   0.416   6.923  10.446  0.1206 -0.0414  0.1115
  733HK4    H1661508   0.357   6.851  10.390  0.1940 -0.2198  0.2666
  733HK4    C3161509   0.343   7.024  10.508 -0.0406 -0.0372 -0.0826
  733HK4    C3461510   0.224   7.103  10.484  0.2232  0.3750 -0.0265
  733HK4    C3361511   0.221   7.203  10.589  0.5440  0.1853  0.1616
  733HK4    C3561512   0.103   7.275  10.601  0.2205 -0.1899 -0.7362
  733HK4    H1761513   0.090   7.365  10.662  0.4468  1.0510 -2.4848
  733HK4    C3661514  11.242   7.250  10.518 -0.3998 -0.0533  0.0300
  733HK4    H1861515  11.148   7.301  10.541  0.9967  1.7951  1.8275
  733HK4    C3761516  11.246   7.157  10.415 -0.2294 -0.2282  0.1918
  733HK4    H1961517  11.151   7.133  10.368 -0.2824 -1.2026  0.7841
  733HK4    C3861518   0.115   7.083  10.400  0.0902  0.2785  0.1660
  733HK4    H2061519   0.109   7.018  10.313 -2.0365  0.3275  0.2411
  733HK4    C1461520   0.731   6.872  10.644  0.2995 -0.0347 -0.4806
  733HK4     C961521   0.831   6.932  10.721 -0.3721  0.0024  0.3695
  733HK4     C861522   0.908   6.849  10.806 -0.0461 -0.2014 -0.1273
  733HK4    C1161523   0.878   6.713  10.812  0.3411 -0.2767  0.0884
  733HK4     H461524   0.935   6.657  10.887  2.5211 -0.2100 -1.4578
  733HK4    C1261525   0.784   6.649  10.732 -0.0928  0.4659 -0.0054
  733HK4     H561526   0.786   6.540  10.719 -1.3252  0.1961  1.8218
  733HK4    C1361527   0.710   6.733  10.651 -0.4242  0.0915 -0.0910
  733HK4     H661528   0.631   6.680  10.594  0.7052  0.6716 -2.2539
  733HK4     C761529   1.031   6.902  10.868 -0.2883  0.2584 -0.0391
  733HK4     O261530   1.078   6.845  10.966  0.4113 -0.4855 -0.7956
  733HK4     C461531   1.078   7.038  10.831  0.6377 -0.0089  0.1452
  733HK4     C361532   1.205   7.083  10.865  0.3766  0.7034  0.1746
  733HK4     H361533   1.267   7.028  10.937 -0.3111 -0.1492  0.1213
  733HK4     C261534   1.252   7.207  10.821  0.1082  0.9003  0.4383
  733HK4     H261535   1.360   7.223  10.811 -0.0433  1.3969 -0.4926
  733HK4     C161536   1.164   7.301  10.769 -0.9134 -0.1282  0.2769
  733HK4     H161537   1.205   7.390  10.720 -1.9574 -1.1184 -2.5070
  733HK4     C661538   1.027   7.267  10.760 -0.8420 -0.4086  0.2575
  733HK4     C561539   0.993   7.131  10.768  0.0354 -0.6488  0.0029
  733HK4    C1061540   0.870   7.074  10.705  0.0080 -0.1859 -0.3645
  733HK4     O161541   0.824   7.131  10.606 -0.0318  0.1895 -0.1323
  733HK4    C1661542   0.927   7.374  10.756 -0.1145  0.2766  0.1615
  733HK4    C1561543   0.959   7.497  10.695 -0.3287  0.2660  0.0241
  733HK4     H761544   1.036   7.502  10.616  2.0687  0.0700  2.2702
  733HK4    C2061545   0.893   7.610  10.741  0.5824  0.5317  0.6974
  733HK4     H961546   0.906   7.696  10.676 -0.7710 -2.2258 -3.4314
  733HK4    C1961547   0.812   7.613  10.854  0.5453  0.3558  0.6772
  733HK4    C1861548   0.781   7.484  10.914  0.1445  0.1892  0.1233
  733HK4    C1761549   0.831   7.368  10.856 -0.3447  0.0769 -0.0671
  733HK4     H861550   0.810   7.278  10.914  0.8594 -2.0798 -2.8897
  733HK4     N161551   0.727   7.501  11.043 -0.0274 -0.2777  0.1126
  733HK4    C2161552   0.716   7.640  11.069  0.1145 -0.3038  0.3061
  733HK4    C2261553   0.766   7.709  10.952  0.0626  0.2133  0.5915
  733HK4    C2661554   0.745   7.846  10.941 -0.1043  0.1158 -0.3407
  733HK4    H1361555   0.786   7.899  10.854  0.6870 -2.1284 -1.3567
  733HK4    C2561556   0.687   7.915  11.047  0.2313  0.0793 -0.1341
  733HK4    H1261557   0.647   8.014  11.029 -0.4448  0.0613  1.2415
  733HK4    C2461558   0.646   7.849  11.163  0.1284  0.0856 -0.1670
  733HK4    H1161559   0.645   7.900   0.012  0.5033  0.8954 -0.5801
  733HK4    C2361560   0.653   7.711  11.171 -0.1913  0.0673 -0.1412
  733HK4    H1061561   0.631   7.666   0.019  0.2934  0.1386  0.0071
  733HK4    C3961562   0.653   7.404  11.111 -0.2263 -0.0194  0.2644
  733HK4    C4161563   0.635   7.422   0.001 -0.2466 -0.2705  0.2977
  733HK4    H2161564   0.711   7.472   0.064  0.7578 -0.3855 -0.8060
  733HK4    C4261565   0.533   7.363   0.075 -0.2906 -0.3657  0.1604
  733HK4    H2261566   0.501   7.399   0.174  0.7938 -0.6209  0.6140
  733HK4    C4361567   0.456   7.268   0.009 -0.2406 -0.4445  0.2160
  733HK4    H2361568   0.383   7.201   0.054 -1.1874  0.2348 -0.2883
  733HK4    C4461569   0.477   7.240  11.123 -0.0112 -0.1411  0.1877
  733HK4    H2461570   0.408   7.175  11.067 -0.3144  0.0334  0.3563
  733HK4    C4561571   0.568   7.312  11.046 -0.7994  0.6804  0.0278
  733HK4    H2561572   0.555   7.330  10.939  1.1941  0.9036 -0.1950
  734HK4    H2861573  10.817   6.643   0.455  1.4797  1.6029  0.1649
  734HK4    C4861574  10.759   6.722   0.408 -0.4664  0.0876 -0.0397
  734HK4    C4761575  10.622   6.701   0.406 -0.3897 -0.4140 -0.0622
  734HK4    H2761576  10.579   6.619   0.465  0.1936 -1.9443 -1.7134
  734HK4    C4661577  10.533   6.784   0.338 -0.1329 -0.0654  0.0275
  734HK4    H2661578  10.425   6.762   0.335 -0.0307 -0.5807  0.0176
  734HK4    C4061579  10.585   6.897   0.271 -0.0384 -0.2049 -0.1356
  734HK4    C5061580  10.725   6.917   0.269 -0.0458 -0.2479 -0.8735
  734HK4    H3061581  10.764   6.991   0.197 -4.6198  1.9690 -1.2806
  734HK4    C4961582  10.809   6.832   0.339 -0.4277  0.0810 -0.0191
  734HK4    H2961583  10.919   6.837   0.337 -0.4148  0.9205  1.6610
  734HK4     N261584  10.506   6.974   0.185  0.1054 -0.0492 -0.1315
  734HK4    C3061585  10.398   6.919   0.112  0.1111 -0.0538 -0.1359
  734HK4    C2961586  10.380   6.794   0.054 -0.2536 -0.2248  0.3384
  734HK4    H1561587  10.424   6.708   0.104  0.0726 -0.4997 -0.4206
  734HK4    C2861588  10.278   6.774  11.210  0.1986  0.1679 -0.2511
  734HK4    C2761589  10.181   6.874  11.188  0.0478 -0.2194 -1.3999
  734HK4    H1461590  10.086   6.853  11.136 -0.5855  2.3943 -1.3857
  734HK4    C3261591  10.204   7.002  11.238 -0.4058 -0.9309  0.6856
  734HK4    H1661592  10.150   7.091  11.207  0.5597 -1.0670 -1.4768
  734HK4    C3161593  10.315   7.030   0.068 -0.4111 -0.2113  0.4432
  734HK4    C3461594  10.373   7.154   0.118  0.1998 -0.3147 -0.0102
  734HK4    C3361595  10.497   7.114   0.182  0.2185 -0.0372  0.1256
  734HK4    C3561596  10.583   7.214   0.227  0.0263  0.2050 -0.0409
  734HK4    H1761597  10.675   7.192   0.281 -0.2361 -1.2107 -0.1626
  734HK4    C3661598  10.555   7.349   0.205 -0.2224  0.2383  0.4760
  734HK4    H1861599  10.647   7.403   0.181  0.2260 -0.1072  1.3739
  734HK4    C3761600  10.429   7.383   0.158  0.0164 -0.0002 -0.3456
  734HK4    H1961601  10.419   7.491   0.141  2.1624  0.5491  1.6167
  734HK4    C3861602  10.340   7.288   0.108 -0.3247 -0.3715  0.9654
  734HK4    H2061603  10.251   7.324   0.057  0.0663  0.7071  1.0165
  734HK4    C1461604  10.296   6.676  11.102 -0.5491 -0.6129  0.3282
  734HK4     C961605  10.271   6.710  10.968  0.1546 -0.1861  0.3011
  734HK4     C861606  10.225   6.615  10.875 -0.1514  0.2733 -0.0132
  734HK4    C1161607  10.229   6.484  10.921 -0.0859  0.1267 -0.4232
  734HK4     H461608  10.189   6.404  10.856 -0.4931 -0.9892  1.1454
  734HK4    C1261609  10.288   6.438  11.039  0.3956 -0.0321 -0.7224
  734HK4     H561610  10.298   6.332  11.065 -0.1013 -0.1430 -0.9699
  734HK4    C1361611  10.315   6.539  11.131 -0.1851 -0.6142  0.0930
  734HK4     H661612  10.358   6.513  11.229 -2.0612 -1.2102  0.7751
  734HK4     C761613  10.157   6.650  10.748 -0.3212 -0.0258 -0.0062
  734HK4     O261614  10.130   6.561  10.668 -0.3554  0.0633 -0.0937
  734HK4     C461615  10.137   6.794  10.720  0.2281 -0.0434 -0.4814
  734HK4     C361616  10.049   6.828  10.618  0.4683  0.0955 -0.6443
  734HK4     H361617   9.965   6.763  10.588 -0.3795  0.0653  1.7077
  734HK4     C261618  10.037   6.962  10.580  0.0057  0.1197 -0.4283
  734HK4     H261619   9.952   6.990  10.517  0.1007 -0.1135 -0.6594
  734HK4     C161620  10.117   7.060  10.637 -0.0565 -0.1740  0.1718
  734HK4     H161621  10.089   7.164  10.615 -2.1954 -0.7692 -0.0495
  734HK4     C661622  10.206   7.026  10.741 -0.5557 -0.0252  0.6489
  734HK4     C561623  10.216   6.892  10.782  0.3862 -0.2598 -0.3427
  734HK4    C1061624  10.285   6.844  10.905 -0.0928 -0.3540 -0.1099
  734HK4     O161625  10.392   6.896  10.934 -0.3958  0.2125 -0.0057
  734HK4    C1661626  10.238   7.137  10.832 -0.4136  0.3751  0.1096
  734HK4    C1561627  10.136   7.223  10.877 -0.6660 -0.0811  0.4159
  734HK4     H761628  10.036   7.178  10.871 -0.9987  0.5858  0.8539
  734HK4    C2061629  10.155   7.339  10.952 -0.3458  0.2575 -0.1863
  734HK4     H961630  10.080   7.416  10.968 -1.3612 -0.8197  0.2388
  734HK4    C1961631  10.284   7.374  10.989 -0.3069  0.1496 -0.2109
  734HK4    C1861632  10.396   7.292  10.948 -0.2650  0.0613  0.0802
  734HK4    C1761633  10.364   7.180  10.871 -0.3070  0.0243  0.1505
  734HK4     H861634  10.451   7.125  10.835  0.1535  0.1244  1.0837
  734HK4     N161635  10.520   7.345  10.988  0.0857 -0.3434 -0.4603
  734HK4    C2161636  10.485   7.466  11.052  0.2899 -0.3851 -0.2659
  734HK4    C2261637  10.342   7.492  11.051  0.3260 -0.1747 -0.1898
  734HK4    C2661638  10.288   7.605  11.111  0.3028 -0.4059  0.2284
  734HK4    H1361639  10.182   7.627  11.102  0.3594  0.3570  1.4017
  734HK4    C2561640  10.372   7.704  11.158 -0.0263  0.1414 -0.3176
  734HK4    H1261641  10.336   7.801  11.194  2.8481  0.8586  0.7772
  734HK4    C2461642  10.507   7.672  11.174 -0.0849  0.0300 -0.0335
  734HK4    H1161643  10.565   7.738  11.239  0.2242 -0.3330  0.0596
  734HK4    C2361644  10.564   7.558  11.119 -0.2285  0.0825 -0.2921
  734HK4    H1061645  10.663   7.528  11.154 -0.3411  0.0599  0.0135
  734HK4    C3961646  10.640   7.273  10.998  0.1620 -0.1938 -0.3004
  734HK4    C4161647  10.766   7.329  10.966  0.1999  0.1070  0.3691
  734HK4    H2161648  10.765   7.420  10.904 -1.4760  0.5139  0.9697
  734HK4    C4261649  10.885   7.262  10.988  0.1198 -0.3072 -0.4302
  734HK4    H2261650  10.979   7.288  10.936 -0.0199 -1.5284 -1.3097
  734HK4    C4361651  10.889   7.134  11.042 -0.0367 -0.2561 -0.2991
  734HK4    H2361652  10.982   7.084  11.068  0.0763  0.1653  0.1117
  734HK4    C4461653  10.769   7.077  11.082  0.1153 -0.0078  0.5344
  734HK4    H2461654  10.769   6.968  11.099 -0.5691 -0.2086 -0.7002
  734HK4    C4561655  10.650   7.145  11.057  0.2192  0.1053  0.3414
  734HK4    H2561656  10.555   7.099  11.087 -1.5967  0.3650 -4.5779
  735HK4    H2861657   3.035   3.969   8.098 -0.0031  2.4068 -0.7874
  735HK4    C4861658   2.972   3.998   8.182 -0.1589  0.1167 -0.0694
  735HK4    C4761659   2.835   3.977   8.190 -0.1207 -0.1334 -0.0731
  735HK4    H2761660   2.782   3.983   8.094  0.4693 -1.8573 -0.5370
  735HK4    C4661661   2.763   3.983   8.308  0.2380  0.3778  0.1215
  735HK4    H2661662   2.666   3.932   8.309  1.3295 -1.7261  0.2572
  735HK4    C4061663   2.828   4.012   8.431 -0.3113  0.0494  0.4911
  735HK4    C5061664   2.967   4.035   8.425 -0.3927  0.3485 -0.3277
  735HK4    H3061665   3.015   4.067   8.518 -0.8548  3.0512 -0.9836
  735HK4    C4961666   3.033   4.033   8.303 -0.0742  0.2607 -0.1552
  735HK4    H2961667   3.139   4.060   8.292 -0.3571  1.5801  0.3136
  735HK4     N261668   2.760   4.012   8.553 -0.3220  0.3718  0.4829
  735HK4    C3061669   2.620   4.025   8.553 -0.3416  0.1739  0.3560
  735HK4    C2961670   2.551   4.142   8.523 -0.0933  0.2485  0.0766
  735HK4    H1561671   2.617   4.221   8.487 -0.3940  0.7397  0.5851
  735HK4    C2861672   2.425   4.173   8.572 -0.3972 -0.5410 -0.1991
  735HK4    C2761673   2.364   4.076   8.655 -0.0090 -1.0918 -0.5562
  735HK4    H1461674   2.263   4.105   8.687  0.9201 -0.3683  1.8735
  735HK4    C3261675   2.430   3.959   8.690 -0.2438 -1.1277 -0.2355
  735HK4    H1661676   2.385   3.890   8.761 -1.7856 -0.5405 -0.6254
  735HK4    C3161677   2.560   3.933   8.649  0.0654 -0.2736  0.1827
  735HK4    C3461678   2.671   3.867   8.714  0.2626 -0.0251  0.0987
  735HK4    C3361679   2.793   3.925   8.659  0.2281 -0.1341 -0.0927
  735HK4    C3561680   2.910   3.882   8.720  0.2976  0.2502  0.0443
  735HK4    H1761681   3.005   3.927   8.690  0.5938 -1.2462 -1.3689
  735HK4    C3661682   2.913   3.791   8.825 -0.1213  0.4996  0.2723
  735HK4    H1861683   3.009   3.771   8.875 -0.3192 -1.5703 -0.1282
  735HK4    C3761684   2.798   3.731   8.875  0.2336 -0.3800  0.0403
  735HK4    H1961685   2.797   3.674   8.969 -0.7049 -0.0982  0.2076
  735HK4    C3861686   2.680   3.776   8.819  0.3536 -0.3012 -0.1465
  735HK4    H2061687   2.589   3.717   8.831 -0.5115  0.0050 -4.2491
  735HK4    C1461688   2.384   4.314   8.584  0.2419 -0.3880  0.1995
  735HK4     C961689   2.346   4.387   8.697  0.1957  0.3246 -0.2792
  735HK4     C861690   2.254   4.494   8.685 -0.2673 -0.0514 -0.1333
  735HK4    C1161691   2.202   4.529   8.561  0.2688  0.6305 -0.1746
  735HK4     H461692   2.126   4.608   8.549 -1.3024 -1.0853 -1.9658
  735HK4    C1261693   2.250   4.468   8.446 -0.1015 -0.2670  0.1423
  735HK4     H561694   2.217   4.489   8.343  0.8817  2.5015  0.3621
  735HK4    C1361695   2.341   4.363   8.459  0.3113  0.1217  0.3748
  735HK4     H661696   2.371   4.318   8.363  0.4939 -1.7266  1.2834
  735HK4     C761697   2.214   4.579   8.799 -0.0847 -0.1858  0.0324
  735HK4     O261698   2.096   4.614   8.808  0.0736  0.1384  0.8764
  735HK4     C461699   2.303   4.572   8.917 -0.0257 -0.4832 -0.0312
  735HK4     C361700   2.274   4.662   9.018 -0.5361 -0.4329 -0.2237
  735HK4     H361701   2.194   4.737   9.018 -0.6924 -0.5488  1.9142
  735HK4     C261702   2.345   4.662   9.138 -0.1050 -0.0202 -0.4797
  735HK4     H261703   2.320   4.736   9.215  2.5117  1.8954 -1.3822
  735HK4     C161704   2.461   4.585   9.144 -0.3742 -0.3868  0.0479
  735HK4     H161705   2.533   4.593   9.226 -2.0874 -1.3180  1.6796
  735HK4     C661706   2.498   4.498   9.039  0.3848  0.3342 -0.2894
  735HK4     C561707   2.412   4.483   8.930  0.4012  0.0059 -0.2638
  735HK4    C1061708   2.420   4.377   8.825 -0.0074 -0.0970 -0.1926
  735HK4     O161709   2.454   4.265   8.862  0.3227  0.0145 -0.1577
  735HK4    C1661710   2.623   4.422   9.054 -0.2137 -0.6061  0.0334
  735HK4    C1561711   2.661   4.382   9.183 -0.0914  0.3629  0.3061
  735HK4     H761712   2.595   4.354   9.267  1.2229 -0.1011  1.1944
  735HK4    C2061713   2.797   4.381   9.211  0.0252  0.4118 -0.2747
  735HK4     H961714   2.834   4.363   9.311  0.8270  2.7606 -0.1015
  735HK4    C1961715   2.899   4.413   9.121  0.1819 -0.0780 -0.2699
  735HK4    C1861716   2.857   4.453   8.988 -0.2709 -0.1824 -0.1609
  735HK4    C1761717   2.721   4.451   8.959 -0.3612  0.4465  0.1922
  735HK4     H861718   2.677   4.478   8.863  2.5097 -1.0480 -1.6327
  735HK4     N161719   2.965   4.502   8.912 -0.2588  0.3024  0.1674
  735HK4    C2161720   3.080   4.493   8.994 -0.0201 -0.2138 -0.2178
  735HK4    C2261721   3.041   4.443   9.124  0.1222  0.1861 -0.0180
  735HK4    C2661722   3.139   4.425   9.221 -0.1421 -0.2555  0.1724
  735HK4    H1361723   3.116   4.385   9.320 -0.4823 -0.7225 -0.0895
  735HK4    C2561724   3.272   4.455   9.194 -0.2964  0.0771 -0.2295
  735HK4    H1261725   3.342   4.405   9.262  0.2387  2.5918  1.1108
  735HK4    C2461726   3.305   4.510   9.071  0.5484  0.0354 -0.0242
  735HK4    H1161727   3.411   4.508   9.039  0.4810  0.4511 -0.2740
  735HK4    C2361728   3.211   4.531   8.971 -0.0886  0.6149  0.6951
  735HK4    H1061729   3.243   4.601   8.893 -0.0472  0.0187  0.1690
  735HK4    C3961730   2.966   4.492   8.773 -0.1712  0.3161  0.1654
  735HK4    C4161731   3.058   4.574   8.704  0.1111  0.1109  0.3003
  735HK4    H2161732   3.115   4.646   8.765  0.4160 -0.0113  0.1557
  735HK4    C4261733   3.063   4.572   8.566  0.4035 -0.3697  0.3168
  735HK4    H2261734   3.133   4.640   8.513 -0.0026  0.0712  0.3440
  735HK4    C4361735   2.996   4.477   8.490  0.5016  0.0553 -0.3087
  735HK4    H2361736   2.993   4.487   8.381 -0.7943 -1.7133 -0.4688
  735HK4    C4461737   2.915   4.387   8.558  0.3267  0.5275  0.1040
  735HK4    H2461738   2.848   4.315   8.508 -2.0642  0.7975  2.7529
  735HK4    C4561739   2.895   4.399   8.695  0.2291  0.0392  0.1342
  735HK4    H2561740   2.823   4.330   8.743  0.6602 -1.8878 -1.9057
  736HK4    H2861741   8.965  10.530   5.823 -2.5314  0.1370 -0.7359
  736HK4    C4861742   8.994  10.577   5.729 -0.0520  0.1699  0.0068
  736HK4    C4761743   9.054  10.514   5.620 -0.5703 -0.6165  0.1746
  736HK4    H2761744   9.096  10.413   5.633  1.0589  0.0316  0.0672
  736HK4    C4661745   9.048  10.570   5.493  0.3421  0.5327  0.6337
  736HK4    H2661746   9.063  10.508   5.404  1.8717 -0.6594  1.6870
  736HK4    C4061747   8.999  10.699   5.464  0.2726  0.2262 -0.6098
  736HK4    C5061748   8.948  10.764   5.578  0.0210 -0.5562 -0.2698
  736HK4    H3061749   8.918  10.870   5.585 -2.1002 -1.0972 -1.0259
  736HK4    C4961750   8.940  10.702   5.702  0.0096  0.2260  0.1273
  736HK4    H2961751   8.864  10.742   5.771 -1.1962  2.8553 -2.6074
  736HK4     N261752   9.014  10.777   5.348  0.0957  0.7413 -0.2881
  736HK4    C3061753   9.117  10.773   5.252  0.5736  0.8059  0.2183
  736HK4    C2961754   9.222  10.683   5.236  0.1281  0.3673 -0.2562
  736HK4    H1561755   9.259  10.624   5.319  1.2611 -1.1893 -1.8406
  736HK4    C2861756   9.277  10.652   5.112  0.1534 -0.3107 -0.0754
  736HK4    C2761757   9.232  10.723   4.999 -0.2195  0.2929  0.4493
  736HK4    H1461758   9.274  10.717   4.898 -2.0827  0.1691 -0.3437
  736HK4    C3261759   9.134  10.821   5.011 -0.2541  0.3249 -0.1239
  736HK4    H1661760   9.112  10.882   4.923 -0.6554  2.1696  1.2295
  736HK4    C3161761   9.077  10.848   5.134  0.0575  0.2527  0.0384
  736HK4    C3461762   8.943  10.899   5.155 -0.0176  0.0821 -0.0340
  736HK4    C3361763   8.907  10.842   5.284 -0.4074  0.0586 -0.1515
  736HK4    C3561764   8.774  10.856   5.323 -0.3357  0.5528 -0.0846
  736HK4    H1761765   8.745  10.798   5.410 -1.0873 -0.5012 -1.0143
  736HK4    C3661766   8.674  10.905   5.239 -0.9285 -0.6145 -0.0633
  736HK4    H1861767   8.568  10.911   5.267 -1.0374 -0.8782 -0.4169
  736HK4    C3761768   8.713  10.946   5.112  0.1023 -0.5826  0.2547
  736HK4    H1961769   8.631  10.968   5.044 -0.6520  2.0619  1.9261
  736HK4    C3861770   8.846  10.956   5.073 -0.0257  0.0744 -0.0298
  736HK4    H2061771   8.860  11.005   4.977 -0.2684  0.5579  0.1800
  736HK4    C1461772   9.404  10.577   5.114  0.0617 -0.4683 -0.1104
  736HK4     C961773   9.505  10.578   5.017  0.0638  0.1996 -0.1089
  736HK4     C861774   9.589  10.470   4.982  0.5617  0.4774  0.2297
  736HK4    C1161775   9.575  10.352   5.053  0.0539  0.5279  0.2225
  736HK4     H461776   9.602  10.256   5.006  1.7241  1.1704 -0.1644
  736HK4    C1261777   9.479  10.351   5.154  0.2041  0.5354  0.3644
  736HK4     H561778   9.487  10.275   5.234  1.3725  1.3542  1.0491
  736HK4    C1361779   9.394  10.456   5.185 -0.0477  0.1593  0.9533
  736HK4     H661780   9.329  10.437   5.272 -0.7569 -0.1290  0.3542
  736HK4     C761781   9.689  10.476   4.873 -0.4295 -0.2703 -0.7423
  736HK4     O261782   9.771  10.387   4.854  0.1414  0.1119 -0.1292
  736HK4     C461783   9.697  10.599   4.791  0.2631  0.0940 -0.1392
  736HK4     C361784   9.782  10.606   4.681  0.2814  0.4312 -0.1091
  736HK4     H361785   9.835  10.519   4.639 -1.6678 -0.1224 -1.5287
  736HK4     C261786   9.785  10.721   4.603  0.0332  0.2333 -0.4161
  736HK4     H261787   9.854  10.720   4.518 -0.4489 -1.9690 -0.8212
  736HK4     C161788   9.708  10.832   4.635  0.6696  0.3938  0.5840
  736HK4     H161789   9.710  10.914   4.561  0.8953 -1.2568 -1.3030
  736HK4     C661790   9.619  10.824   4.744  0.0642 -0.7121  0.0167
  736HK4     C561791   9.620  10.712   4.827  0.2919 -0.1719  0.7525
  736HK4    C1061792   9.534  10.707   4.948 -0.8880  0.4500 -0.0534
  736HK4     O161793   9.553  10.806   5.018  0.4522  0.2034 -0.0519
  736HK4    C1661794   9.494  10.899   4.722  0.2311 -0.4024  0.1287
  736HK4    C1561795   9.436  10.915   4.595  0.4255  0.1257  0.1024
  736HK4     H761796   9.461  10.851   4.509 -1.0675  0.9522 -0.9805
  736HK4    C2061797   9.330  11.000   4.564  0.3256  0.0404  0.2051
  736HK4     H961798   9.276  11.000   4.470  1.1878  0.3704 -0.2986
  736HK4    C1961799   9.275  11.077   4.666  0.3158 -0.0865  0.2966
  736HK4    C1861800   9.347  11.079   4.793  0.6535  0.7758  0.1004
  736HK4    C1761801   9.445  10.984   4.820 -0.0493 -0.0725 -0.2968
  736HK4     H861802   9.519  11.021   4.890 -0.4403  2.4138 -1.1399
  736HK4     N161803   9.303  11.194   4.860 -0.8076  0.2616  0.0565
  736HK4    C2161804   9.197   0.004   4.787 -0.4745  0.5704 -0.1912
  736HK4    C2261805   9.184  11.189   4.657  0.3872 -0.0550  0.0206
  736HK4    C2661806   9.077  11.211   4.571  0.5455 -0.2883 -0.2350
  736HK4    H1361807   9.076  11.151   4.480  0.7605 -0.1135 -0.3553
  736HK4    C2561808   8.984   0.059   4.608  0.8013 -0.0197 -0.2879
  736HK4    H1261809   8.916   0.094   4.529  0.1842 -1.4544 -0.4023
  736HK4    C2461810   8.991   0.122   4.732 -0.2411  0.4425 -0.4513
  736HK4    H1161811   8.928   0.209   4.752 -1.8175 -0.7099 -0.3225
  736HK4    C2361812   9.090   0.085   4.823 -0.7000  0.2081 -0.0481
  736HK4    H1061813   9.091   0.118   4.927 -3.3942  3.6927 -1.0393
  736HK4    C3961814   9.320  11.221   4.997  0.0234 -0.2762  0.0631
  736HK4    C4161815   9.306   0.100   5.056  0.3541 -0.2017 -0.0213
  736HK4    H2161816   9.347   0.189   5.005  0.2073 -0.2221 -0.1762
  736HK4    C4261817   9.272   0.125   5.188 -0.1595 -0.2860 -0.1358
  736HK4    H2261818   9.256   0.229   5.219  2.4654  1.1979 -3.4331
  736HK4    C4361819   9.271   0.016   5.275  0.2789 -0.3884 -0.2558
  736HK4    H2361820   9.243   0.030   5.379  2.7456  0.8671  0.2564
  736HK4    C4461821   9.304  11.137   5.227 -0.3518 -0.6720  0.0588
  736HK4    H2461822   9.332  11.055   5.295  1.8955  0.0254 -0.0010
  736HK4    C4561823   9.324  11.117   5.091  0.2546 -0.2492  0.0825
  736HK4    H2561824   9.336  11.016   5.049 -1.5658  0.3096 -1.8384
  737HK4    H2861825   0.017   8.793   7.273  0.4601  0.6632  0.1798
  737HK4    C4861826   0.043   8.804   7.378  0.0257 -0.4048  0.3972
  737HK4    C4761827  11.190   8.776   7.471  0.0640 -0.1500  0.5133
  737HK4    H2761828  11.096   8.735   7.430  0.6403 -2.1872  1.1895
  737HK4    C4661829  11.190   8.799   7.608 -0.2131 -0.6499  0.5992
  737HK4    H2661830  11.098   8.819   7.664  0.9339  2.1052  1.5798
  737HK4    C4061831   0.070   8.837   7.655 -0.0144 -0.7594  0.1550
  737HK4    C5061832   0.174   8.860   7.562  0.0393 -0.5010  0.2796
  737HK4    H3061833   0.275   8.874   7.602  0.6802  1.3246 -1.8830
  737HK4    C4961834   0.163   8.856   7.424 -0.0393 -0.1478  0.2756
  737HK4    H2961835   0.254   8.875   7.364  0.1540 -2.3969 -0.1729
  737HK4     N261836   0.099   8.857   7.790 -0.1175 -0.2411  0.1011
  737HK4    C3061837   0.029   8.793   7.894  0.5934 -0.5638  0.3854
  737HK4    C2961838  11.232   8.662   7.905 -0.4790 -0.2652 -0.3770
  737HK4    H1561839  11.215   8.613   7.809  0.8851  0.4002 -0.9608
  737HK4    C2861840  11.218   8.598   8.028  0.1512 -0.0965 -0.2178
  737HK4    C2761841  11.248   8.673   8.144 -0.1617 -0.1621 -0.0926
  737HK4    H1461842   0.009   8.609   8.232  1.1685  0.8935  0.5531
  737HK4    C3261843   0.040   8.806   8.139 -0.3589 -0.1062 -0.1553
  737HK4    H1661844   0.091   8.853   8.223 -1.8388 -0.6072  1.0552
  737HK4    C3161845   0.050   8.870   8.016  0.3783  0.0971  0.0044
  737HK4    C3461846   0.108   8.996   7.974 -0.2649  0.1239 -0.8152
  737HK4    C3361847   0.164   8.971   7.842 -0.0816  0.1237 -0.7386
  737HK4    C3561848   0.243   9.069   7.784  0.0986  0.3410 -0.1353
  737HK4    H1761849   0.289   9.057   7.685 -0.1400 -2.0397  0.0033
  737HK4    C3661850   0.265   9.184   7.859  0.0332  0.0678  0.3020
  737HK4    H1861851   0.332   9.257   7.811  0.4420 -1.6051 -1.7933
  737HK4    C3761852   0.212   9.206   7.985 -0.1178  0.6108  0.1465
  737HK4    H1961853   0.244   9.295   8.038  3.0535 -0.8309  0.7644
  737HK4    C3861854   0.130   9.112   8.047  0.4315 -0.2494 -0.4209
  737HK4    H2061855   0.071   9.134   8.136  0.6815  1.4439 -0.6698
  737HK4    C1461856  11.141   8.473   8.028  0.0995 -0.0672 -0.2999
  737HK4     C961857  11.056   8.440   8.134  0.7293  0.1804  0.2860
  737HK4     C861858  11.048   8.309   8.186  0.3594  0.1489  0.1482
  737HK4    C1161859  11.119   8.211   8.116 -0.2836 -0.3252  0.1559
  737HK4     H461860  11.137   8.118   8.172  0.5045 -0.2590  0.0150
  737HK4    C1261861  11.192   8.237   8.001 -0.2987 -0.1345  0.1860
  737HK4     H561862   0.010   8.159   7.959 -1.2881 -1.4160  0.9630
  737HK4    C1361863  11.201   8.368   7.955  0.0138 -0.2513 -0.0971
  737HK4     H661864   0.018   8.392   7.870 -0.9173 -0.1629 -0.7950
  737HK4     C761865  10.984   8.282   8.316 -0.0417 -0.1797 -0.1116
  737HK4     O261866  10.941   8.171   8.346 -0.6126  0.0005 -0.2594
  737HK4     C461867  10.937   8.399   8.394 -0.5304 -0.2532 -0.2999
  737HK4     C361868  10.917   8.384   8.531 -0.4580  0.1757 -0.2381
  737HK4     H361869  10.942   8.285   8.573 -1.2293  0.1329  0.1164
  737HK4     C261870  10.888   8.492   8.612  0.0036 -0.1025  0.3115
  737HK4     H261871  10.829   8.476   8.703 -0.5215 -0.4629 -0.0909
  737HK4     C161872  10.897   8.618   8.554  0.8739 -0.5076 -0.4418
  737HK4     H161873  10.884   8.710   8.614 -0.7996 -1.4034  0.6192
  737HK4     C661874  10.925   8.642   8.418  0.0848  0.3071 -0.4716
  737HK4     C561875  10.932   8.528   8.336 -0.3844 -0.0930  0.0435
  737HK4    C1061876  10.971   8.547   8.194  0.1625 -0.2050  0.1796
  737HK4     O161877  10.882   8.587   8.119  0.2213 -0.4519 -0.0207
  737HK4    C1661878  10.990   8.770   8.387  0.0174  0.4208 -0.1406
  737HK4    C1561879  11.069   8.850   8.473  0.1200  0.3060 -0.1247
  737HK4     H761880  11.138   8.795   8.538  0.1103 -1.5090 -1.6123
  737HK4    C2061881  11.097   8.986   8.462  0.1810  0.2865 -0.1825
  737HK4     H961882  11.131   9.035   8.554  1.4560 -0.0855 -0.4415
  737HK4    C1961883  11.059   9.058   8.350  0.0350  0.2624 -0.1507
  737HK4    C1861884  10.986   8.978   8.254 -0.3495  0.1712  0.2226
  737HK4    C1761885  10.950   8.846   8.278  0.3305 -0.1795 -0.6706
  737HK4     H861886  10.860   8.806   8.231  0.1268  0.4631 -0.8185
  737HK4     N161887  10.960   9.052   8.136  0.1153 -0.3343 -0.1991
  737HK4    C2161888  11.015   9.180   8.156 -0.4478 -0.0553 -0.4518
  737HK4    C2261889  11.073   9.189   8.288  0.0596  0.0125 -0.6779
  737HK4    C2661890  11.145   9.303   8.320  0.3978 -0.3747 -0.0442
  737HK4    H1361891  11.199   9.310   8.415 -2.0260  0.6819  1.2873
  737HK4    C2561892  11.170   9.403   8.227  0.0522 -0.1819  0.0704
  737HK4    H1261893  11.208   9.499   8.264 -1.1291  1.6262 -3.2072
  737HK4    C2461894  11.131   9.387   8.095 -0.1721 -0.2131  0.1373
  737HK4    H1161895  11.135   9.472   8.025 -0.8359  0.2200  0.6135
  737HK4    C2361896  11.052   9.277   8.063 -0.0628 -0.1409 -0.3895
  737HK4    H1061897  11.014   9.255   7.964  1.1807  0.4321 -1.0038
  737HK4    C3961898  10.902   9.004   8.019  0.3502  0.1851 -0.5315
  737HK4    C4161899  10.819   9.084   7.938 -0.3441  0.0762  0.0597
  737HK4    H2161900  10.794   9.186   7.970 -0.1966 -0.1920  1.0412
  737HK4    C4261901  10.773   9.036   7.816 -0.6241  0.3209  0.0665
  737HK4    H2261902  10.695   9.089   7.759 -1.3677 -0.3551  0.4554
  737HK4    C4361903  10.816   8.911   7.772 -0.7306 -0.0114  0.8920
  737HK4    H2361904  10.820   8.902   7.663  0.0138 -0.8574  0.9832
  737HK4    C4461905  10.896   8.830   7.852 -0.2786 -0.3568  0.1017
  737HK4    H2461906  10.910   8.725   7.819 -0.8282  0.2312 -2.1398
  737HK4    C4561907  10.943   8.876   7.974 -0.5506 -0.3731  0.2116
  737HK4    H2561908  11.026   8.825   8.024 -1.0158 -2.0732 -0.7256
  738HK4    H2861909   8.593  10.746   9.797  0.2291  0.6155 -4.1850
  738HK4    C4861910   8.497  10.697   9.777 -0.6137  0.0896  0.5883
  738HK4    C4761911   8.397  10.764   9.708 -0.1186 -0.2809 -0.4972
  738HK4    H2761912   8.431  10.840   9.635 -1.9988  1.1121  0.0301
  738HK4    C4661913   8.265  10.727   9.732 -0.2511  0.6263  0.2446
  738HK4    H2661914   8.182  10.791   9.700 -1.1020 -0.7785 -0.4154
  738HK4    C4061915   8.226  10.623   9.819 -0.0614  0.1520 -0.2363
  738HK4    C5061916   8.331  10.566   9.894  0.0282  0.3333 -0.2257
  738HK4    H3061917   8.300  10.476   9.948  0.2959  1.0375  1.1355
  738HK4    C4961918   8.464  10.596   9.866  0.3284 -0.3576  0.4492
  738HK4    H2961919   8.540  10.534   9.916  0.1134 -1.7113 -0.8891
  738HK4     N261920   8.112  10.544   9.798 -0.2114  0.2260  0.2980
  738HK4    C3061921   8.036  10.464   9.886 -0.3381  0.6225  0.5517
  738HK4    C2961922   8.051  10.446  10.023 -0.3970  0.2272  0.5057
  738HK4    H1561923   8.130  10.505  10.068  0.9416 -0.2934 -1.1045
  738HK4    C2861924   7.983  10.355  10.104 -0.4558  0.0701  0.2828
  738HK4    C2761925   7.899  10.267  10.031 -0.1185  0.3561 -0.4562
  738HK4    H1461926   7.844  10.190  10.087 -0.1820 -0.4885 -1.6704
  738HK4    C3261927   7.883  10.275   9.893  0.3008 -0.0498 -0.5277
  738HK4    H1661928   7.831  10.194   9.841 -1.5968  2.3052 -2.3629
  738HK4    C3161929   7.939  10.379   9.820  0.3952  0.2416 -0.0423
  738HK4    C3461930   7.956  10.405   9.678  0.5097 -0.3809 -0.1462
  738HK4    C3361931   8.057  10.509   9.673  0.1207  0.0188  0.2117
  738HK4    C3561932   8.105  10.535   9.545  0.1657 -0.7498  0.0627
  738HK4    H1761933   8.180  10.615   9.541 -2.7482  2.1310  0.8709
  738HK4    C3661934   8.067  10.475   9.426 -0.1451 -0.3626 -0.0344
  738HK4    H1861935   8.128  10.492   9.336  1.6086  1.6348  1.4904
  738HK4    C3761936   7.973  10.372   9.434 -0.6320  0.0501 -0.4605
  738HK4    H1961937   7.947  10.308   9.350 -2.6715 -2.1944  1.8014
  738HK4    C3861938   7.917  10.346   9.558 -0.3495  0.4107 -0.2573
  738HK4    H2061939   7.817  10.304   9.561 -0.3373  0.4407  0.7635
  738HK4    C1461940   8.033  10.315  10.236 -0.4593 -0.0185  0.2564
  738HK4     C961941   8.021  10.188  10.294  0.0154 -0.3500 -0.3484
  738HK4     C861942   8.030  10.171  10.433  0.0630 -0.2774 -0.3448
  738HK4    C1161943   8.070  10.281  10.508  0.3819 -0.3809 -0.3622
  738HK4     H461944   8.088  10.271  10.616 -1.1652 -0.3771 -0.0893
  738HK4    C1261945   8.097  10.406  10.453 -0.0184  0.0226  0.3355
  738HK4     H561946   8.146  10.487  10.507 -0.5002  0.0439  0.7441
  738HK4    C1361947   8.076  10.423  10.316 -0.1514 -0.1976  0.3302
  738HK4     H661948   8.042  10.521  10.281 -0.9567  0.3486  2.5014
  738HK4     C761949   7.992  10.043  10.497 -0.3669 -0.1111 -0.2705
  738HK4     O261950   7.985  10.032  10.620  0.2081  0.0484 -0.2250
  738HK4     C461951   7.954   9.931  10.409 -0.3509 -0.2383 -0.1205
  738HK4     C361952   7.882   9.825  10.466 -0.5190  0.0545  0.2136
  738HK4     H361953   7.830   9.846  10.560  1.7953  2.5404  0.9903
  738HK4     C261954   7.856   9.709  10.394 -0.8868  0.1661  0.1662
  738HK4     H261955   7.798   9.622  10.428  0.8807 -0.9344  0.4062
  738HK4     C161956   7.890   9.713  10.259 -0.6648  0.4400  0.2273
  738HK4     H161957   7.881   9.623  10.197 -1.8718  0.0304  0.9787
  738HK4     C661958   7.938   9.827  10.191 -0.2051  0.1513  0.0757
  738HK4     C561959   7.978   9.935  10.271  0.3917 -0.0183  0.0182
  738HK4    C1061960   8.029  10.063  10.214  0.0438 -0.1672 -0.6345
  738HK4     O161961   8.120  10.061  10.131  0.4856 -0.2227 -0.1472
  738HK4    C1661962   7.891   9.832  10.052 -0.0337 -0.1562  0.0055
  738HK4    C1561963   7.757   9.813  10.012 -0.0276  0.0207 -0.0973
  738HK4     H761964   7.680   9.803  10.091 -1.6324  0.6419 -1.5603
  738HK4    C2061965   7.724   9.828   9.878 -0.4734  0.4998  0.0598
  738HK4     H961966   7.619   9.835   9.850 -0.8179 -1.6296  0.6760
  738HK4    C1961967   7.824   9.847   9.783 -0.4748  0.1028 -0.0249
  738HK4    C1861968   7.965   9.840   9.816 -0.4970  0.9380  0.2590
  738HK4    C1761969   7.988   9.835   9.953  0.0899  1.0271  0.1628
  738HK4     H861970   8.089   9.817   9.991 -0.6891 -1.3313  1.1686
  738HK4     N161971   8.044   9.887   9.710  0.0890 -0.1688  0.1982
  738HK4    C2161972   7.956   9.933   9.609  0.1425 -0.1807  0.1440
  738HK4    C2261973   7.820   9.903   9.649  0.0423 -0.0579 -0.1081
  738HK4    C2661974   7.713   9.940   9.568 -0.1243 -0.2679  0.0125
  738HK4    H1361975   7.608   9.926   9.590 -0.5030 -1.0181 -2.2418
  738HK4    C2561976   7.740  10.005   9.448  0.4253  0.0125  0.2818
  738HK4    H1261977   7.656  10.037   9.386  1.5978 -1.5614 -2.1430
  738HK4    C2461978   7.871  10.032   9.411  0.0119  0.6949 -0.7041
  738HK4    H1161979   7.881  10.090   9.318 -0.4400 -1.1877 -1.9630
  738HK4    C2361980   7.981   9.996   9.488 -0.7189 -0.4950 -0.2003
  738HK4    H1061981   8.082  10.018   9.453 -0.4697  0.3412  1.0103
  738HK4    C3961982   8.177   9.847   9.690  0.1949  0.0794  0.4169
  738HK4    C4161983   8.262   9.908   9.596  0.4233  0.5263  0.9039
  738HK4    H2161984   8.255  10.016   9.580  0.2940  0.2050 -1.4522
  738HK4    C4261985   8.373   9.838   9.549 -0.2797  0.1282 -0.1767
  738HK4    H2261986   8.423   9.873   9.457 -2.0388  2.6508 -0.2257
  738HK4    C4361987   8.420   9.721   9.607 -0.1356  0.1663 -0.2114
  738HK4    H2361988   8.518   9.683   9.577 -0.3457 -1.3271  0.9300
  738HK4    C4461989   8.343   9.668   9.710  0.0316  0.4510  0.0594
  738HK4    H2461990   8.384   9.589   9.776 -3.1088  0.3290  1.9674
  738HK4    C4561991   8.224   9.728   9.749 -0.4695 -0.4339 -0.0945
  738HK4    H2561992   8.168   9.677   9.829  1.1140  0.5744  1.6768
  739HK4    H2861993   6.658   1.878   7.985 -1.0557 -3.1602  0.8367
  739HK4    C4861994   6.673   1.827   7.890  0.2975 -0.9554 -0.1881
  739HK4    C4761995   6.794   1.763   7.867  0.8812 -0.0597  0.3766
  739HK4    H2761996   6.867   1.761   7.950  1.6197  1.2145 -0.2257
  739HK4    C4661997   6.804   1.678   7.758  0.1976  0.2635  0.0609
  739HK4    H2661998   6.881   1.600   7.763  0.1061  0.0835 -1.1960
  739HK4    C4061999   6.703   1.664   7.660  0.2630 -0.1293  0.0488
  739HK4    C5062000   6.586   1.737   7.690  0.4012  0.0117  0.2513
  739HK4    H3062001   6.501   1.742   7.620  0.5443  1.3461  0.1602
  739HK4    C4962002   6.566   1.815   7.802 -0.0214  0.2216  0.0310
  739HK4    H2962003   6.486   1.890   7.806 -0.2236 -0.0148  0.6034
  739HK4     N262004   6.718   1.613   7.531 -0.5488 -0.0219 -0.0877
  739HK4    C3062005   6.832   1.621   7.449 -0.3965 -0.1161  0.1184
  739HK4    C2962006   6.955   1.685   7.457 -0.1791 -0.4871 -0.2377
  739HK4    H1562007   6.971   1.762   7.533  0.1504  0.1983 -0.9899
  739HK4    C2862008   7.051   1.694   7.356 -0.0116  0.4502  0.0000
  739HK4    C2762009   7.007   1.651   7.229  0.2303  0.3436 -0.0476
  739HK4    H1462010   7.067   1.676   7.141  1.0084 -0.6919  0.1734
  739HK4    C3262011   6.887   1.582   7.214  0.1923  0.4879 -0.4032
  739HK4    H1662012   6.855   1.546   7.116 -0.8243 -0.2148  0.1709
  739HK4    C3162013   6.804   1.556   7.322  0.7543 -0.1601 -0.1276
  739HK4    C3462014   6.673   1.493   7.334  0.6491  0.0468 -0.1883
  739HK4    C3362015   6.622   1.535   7.463 -0.0706 -0.3994 -0.3272
  739HK4    C3562016   6.490   1.508   7.499 -0.2895  0.5921 -0.3969
  739HK4    H1762017   6.458   1.541   7.597  0.0447  1.1236 -0.4632
  739HK4    C3662018   6.404   1.439   7.415  0.5735 -0.6648 -0.2658
  739HK4    H1862019   6.308   1.402   7.453  0.9220 -0.9513  0.3401
  739HK4    C3762020   6.447   1.404   7.287 -0.0349 -0.5224 -0.5119
  739HK4    H1962021   6.379   1.339   7.232 -1.4232  1.2526 -0.9393
  739HK4    C3862022   6.577   1.437   7.251  0.0085  0.3003  0.3796
  739HK4    H2062023   6.607   1.418   7.148  0.6947 -0.5956  0.7327
  739HK4    C1462024   7.166   1.784   7.370  0.0206  0.4063  0.0050
  739HK4     C962025   7.210   1.865   7.264  0.2678  0.8545  0.4511
  739HK4     C862026   7.348   1.886   7.246  0.4065 -0.1698  0.3115
  739HK4    C1162027   7.441   1.843   7.340  0.3253 -0.8820  0.0679
  739HK4     H462028   7.549   1.849   7.317 -0.0896  3.6327 -1.2189
  739HK4    C1262029   7.395   1.784   7.457 -0.0127 -1.2943 -0.2714
  739HK4     H562030   7.464   1.763   7.540 -3.0997  0.3151  2.7786
  739HK4    C1362031   7.260   1.753   7.470 -0.2173 -0.2947  0.0121
  739HK4     H662032   7.236   1.695   7.560 -2.0976 -0.4664 -0.5723
  739HK4     C762033   7.397   1.935   7.115 -0.3638 -0.6439 -0.1581
  739HK4     O262034   7.517   1.944   7.088 -0.3347  0.3695  0.3236
  739HK4     C462035   7.298   1.975   7.013  0.0086 -0.5050 -0.4677
  739HK4     C362036   7.332   2.038   6.894 -0.3050  0.0279 -0.2801
  739HK4     H362037   7.439   2.042   6.869 -0.9054 -1.9017 -3.3736
  739HK4     C262038   7.245   2.105   6.810 -0.0328  0.0347 -0.5568
  739HK4     H262039   7.280   2.160   6.721 -0.3564 -1.0248 -1.3480
  739HK4     C162040   7.109   2.094   6.838  0.0846  0.1002  0.0514
  739HK4     H162041   7.042   2.163   6.784 -0.2611  0.2682  0.6982
  739HK4     C662042   7.063   2.012   6.942 -0.0171  0.2363  0.1141
  739HK4     C562043   7.159   1.970   7.036  0.0596  0.1553  0.0003
  739HK4    C1062044   7.114   1.934   7.173 -0.0329 -0.3563 -0.1632
  739HK4     O162045   7.039   2.020   7.219  0.5390 -0.0599  0.2265
  739HK4    C1662046   6.954   1.921   6.903 -0.2592  0.5639  0.0181
  739HK4    C1562047   6.920   1.889   6.770  0.1262  0.1499  0.0150
  739HK4     H762048   6.984   1.922   6.687 -1.6503 -1.5908 -2.1093
  739HK4    C2062049   6.805   1.818   6.738  0.0301  0.2159  0.2109
  739HK4     H962050   6.775   1.806   6.634  2.2237  1.3640 -0.5857
  739HK4    C1962051   6.719   1.775   6.838 -0.0806 -0.3616 -0.1284
  739HK4    C1862052   6.747   1.811   6.976  0.0454 -0.0086 -0.2453
  739HK4    C1762053   6.865   1.881   7.002  0.2072 -0.3943  0.0618
  739HK4     H862054   6.864   1.935   7.096 -1.0951 -1.2024  0.5302
  739HK4     N162055   6.637   1.785   7.060 -0.1034  0.3445 -0.3329
  739HK4    C2162056   6.546   1.714   6.979  0.0138  0.0280 -0.1846
  739HK4    C2262057   6.585   1.718   6.840 -0.2725  0.0818 -0.2645
  739HK4    C2662058   6.507   1.664   6.739 -0.4893  0.5594 -0.3536
  739HK4    H1362059   6.541   1.678   6.636 -0.3921  0.2115 -0.3705
  739HK4    C2562060   6.384   1.612   6.775 -0.1299  0.2699  0.4551
  739HK4    H1262061   6.333   1.550   6.701  0.5085  0.1492  0.1133
  739HK4    C2462062   6.344   1.600   6.908 -0.0192 -0.5521  0.4142
  739HK4    H1162063   6.245   1.557   6.931  0.3752 -1.0389  1.2323
  739HK4    C2362064   6.424   1.653   7.009 -0.0363  0.2248  0.0215
  739HK4    H1062065   6.381   1.657   7.109  0.3866  0.1651  0.2062
  739HK4    C3962066   6.610   1.866   7.171 -0.2193  0.4677 -0.4508
  739HK4    C4162067   6.514   1.820   7.262  0.2763  0.0905 -0.1190
  739HK4    H2162068   6.510   1.713   7.288  2.1902  0.3173  1.1835
  739HK4    C4262069   6.446   1.907   7.347 -0.1968  0.0759 -0.4813
  739HK4    H2262070   6.371   1.878   7.422 -2.5253 -0.9330 -3.0937
  739HK4    C4362071   6.485   2.041   7.348  0.3106 -0.0749  0.7117
  739HK4    H2362072   6.443   2.110   7.421 -0.6468 -0.6363  0.7024
  739HK4    C4462073   6.575   2.090   7.255  0.0730 -0.1353  0.4470
  739HK4    H2462074   6.598   2.197   7.262 -2.5710  0.4843 -0.0213
  739HK4    C4562075   6.639   2.004   7.165 -0.1429  0.4583 -0.2784
  739HK4    H2562076   6.669   2.051   7.070  0.0561  1.4764  0.2808
  740HK4    H2862077   5.599   1.765   5.575  1.1382  0.2991 -0.8638
  740HK4    C4862078   5.597   1.873   5.569  0.5786  0.3079 -0.4872
  740HK4    C4762079   5.516   1.924   5.468 -0.2893  0.4869  0.2898
  740HK4    H2762080   5.436   1.860   5.427  1.1933  0.2049 -2.2919
  740HK4    C4662081   5.535   2.058   5.436  0.0775  0.4040  0.1614
  740HK4    H2662082   5.524   2.078   5.329  0.2134 -0.2235  0.0276
  740HK4    C4062083   5.620   2.144   5.509  0.7571 -0.0231 -0.1141
  740HK4    C5062084   5.690   2.084   5.616 -0.1799 -0.1020  0.4718
  740HK4    H3062085   5.740   2.153   5.686 -1.1506  0.0357  1.0316
  740HK4    C4962086   5.685   1.949   5.646  0.5539 -0.2208  0.0670
  740HK4    H2962087   5.726   1.914   5.742 -2.4317 -2.4361  0.5993
  740HK4     N262088   5.588   2.280   5.518 -0.2286 -0.2638  0.1855
  740HK4    C3062089   5.463   2.339   5.491 -0.0580 -0.1922 -0.4592
  740HK4    C2962090   5.342   2.291   5.444 -0.1554 -0.0212 -0.3842
  740HK4    H1562091   5.313   2.186   5.455 -1.9986  0.2068 -2.6456
  740HK4    C2862092   5.248   2.372   5.382 -0.7173  0.0852  0.5958
  740HK4    C2762093   5.261   2.512   5.392  0.1093  0.0293  0.2972
  740HK4    H1462094   5.189   2.576   5.339 -1.5094 -2.6762 -0.8342
  740HK4    C3262095   5.370   2.565   5.460  0.4341  0.2463 -0.3821
  740HK4    H1662096   5.380   2.673   5.459  0.2356  0.2986  1.8970
  740HK4    C3162097   5.475   2.483   5.502 -0.1075 -0.2267  0.0524
  740HK4    C3462098   5.610   2.515   5.544 -0.3039 -0.4069  0.8386
  740HK4    C3362099   5.679   2.388   5.530 -0.2016 -0.2479 -0.1674
  740HK4    C3562100   5.815   2.403   5.504 -0.1328 -0.3577  0.1208
  740HK4    H1762101   5.846   2.309   5.459 -1.8872 -0.2186 -1.4397
  740HK4    C3662102   5.884   2.523   5.501  0.0602 -0.4839 -0.6382
  740HK4    H1862103   5.990   2.518   5.471  0.5299 -2.1470  1.1616
  740HK4    C3762104   5.817   2.644   5.518 -0.1375 -0.6642 -0.1118
  740HK4    H1962105   5.864   2.742   5.513 -1.3000  0.1176  2.8525
  740HK4    C3862106   5.680   2.635   5.539 -0.1490 -0.5346 -0.1339
  740HK4    H2062107   5.616   2.723   5.544 -0.6942 -0.9202 -0.2018
  740HK4    C1462108   5.151   2.321   5.284 -0.0276  0.1651 -0.1329
  740HK4     C962109   5.110   2.386   5.166 -0.0344  0.2482 -0.0874
  740HK4     C862110   4.984   2.353   5.112 -0.1897  0.4275  0.1642
  740HK4    C1162111   4.905   2.257   5.173 -0.1984  0.4024  0.1098
  740HK4     H462112   4.799   2.249   5.142 -0.6377 -0.2451  1.7315
  740HK4    C1262113   4.941   2.200   5.294 -0.3471  0.4438  0.1754
  740HK4     H562114   4.882   2.113   5.326 -1.3455  0.4532 -1.5488
  740HK4    C1362115   5.065   2.230   5.349 -0.1119  0.1892 -0.2104
  740HK4     H662116   5.095   2.180   5.442 -0.5866 -1.3935 -0.8952
  740HK4     C762117   4.943   2.438   4.998 -0.1933  0.0578 -0.1078
  740HK4     O262118   4.874   2.381   4.913  0.1791  0.0838 -0.4299
  740HK4     C462119   5.011   2.566   4.969 -0.3074  0.3068  0.7195
  740HK4     C362120   4.945   2.653   4.882  0.1298 -0.3918 -0.3239
  740HK4     H362121   4.846   2.641   4.836  0.8026  0.5046 -2.0114
  740HK4     C262122   5.004   2.776   4.857 -0.1290 -0.3540 -0.7500
  740HK4     H262123   4.988   2.809   4.753 -0.3101 -0.5600 -0.7865
  740HK4     C162124   5.118   2.818   4.924  0.0705 -0.1877 -1.1885
  740HK4     H162125   5.149   2.923   4.917  0.3776  0.0444  2.4434
  740HK4     C662126   5.187   2.729   5.010 -0.6999  0.5795  0.2555
  740HK4     C562127   5.135   2.600   5.027  0.2667  0.1030 -0.3771
  740HK4    C1062128   5.197   2.492   5.108  0.0006  0.3641  0.1756
  740HK4     O162129   5.318   2.474   5.091 -0.1297  0.0639 -0.4367
  740HK4    C1662130   5.270   2.784   5.117  0.0218  0.5139 -0.2697
  740HK4    C1562131   5.210   2.878   5.202  0.1415  0.7833 -0.4858
  740HK4     H762132   5.101   2.893   5.208  0.0922  0.3430 -0.2609
  740HK4    C2062133   5.283   2.959   5.290  0.2424  0.5776 -0.3797
  740HK4     H962134   5.229   3.009   5.371 -0.5702 -1.6501  0.5167
  740HK4    C1962135   5.420   2.943   5.299  0.1380 -0.1410 -0.0072
  740HK4    C1862136   5.487   2.848   5.212  0.3313 -0.3790  0.3974
  740HK4    C1762137   5.409   2.774   5.124 -0.0126  0.2943  0.1293
  740HK4     H862138   5.454   2.694   5.066 -1.3131 -0.8500  0.6665
  740HK4     N162139   5.625   2.876   5.210  0.2372  0.0575 -0.2702
  740HK4    C2162140   5.649   2.986   5.295  0.0656  0.1273 -0.3124
  740HK4    C2262141   5.522   3.035   5.346  0.0648  0.0720 -0.2645
  740HK4    C2662142   5.525   3.119   5.457  0.0455  0.2093 -0.3675
  740HK4    H1362143   5.433   3.144   5.510 -1.0365 -2.6175 -0.8402
  740HK4    C2562144   5.647   3.156   5.513 -0.0740 -0.2895  0.2254
  740HK4    H1262145   5.645   3.228   5.595 -1.8088  1.1445 -1.0359
  740HK4    C2462146   5.766   3.104   5.465 -0.0952 -0.1670  0.0339
  740HK4    H1162147   5.853   3.119   5.532 -0.4450  0.2621  0.3923
  740HK4    C2362148   5.770   3.021   5.355 -0.0080 -0.0026 -0.0879
  740HK4    H1062149   5.866   2.993   5.312  0.0116 -1.4995  0.9026
  740HK4    C3962150   5.718   2.798   5.141  0.1816  0.0137 -0.2940
  740HK4    C4162151   5.837   2.854   5.088  0.0539  0.2576 -0.3275
  740HK4    H2162152   5.854   2.962   5.095 -0.0295  0.0921  2.9039
  740HK4    C4262153   5.938   2.777   5.031 -0.1971 -0.1744 -0.1909
  740HK4    H2262154   6.031   2.824   4.997  0.0719  0.4321  1.3236
  740HK4    C4362155   5.920   2.639   5.023  0.1870 -0.2393  0.0520
  740HK4    H2362156   6.001   2.589   4.971  1.7681  2.4103 -0.1615
  740HK4    C4462157   5.806   2.576   5.072 -0.0310  0.1174  0.0057
  740HK4    H2462158   5.798   2.466   5.073  0.5475  0.0288 -2.3813
  740HK4    C4562159   5.714   2.657   5.137 -0.1007  0.0131  0.0372
  740HK4    H2562160   5.634   2.611   5.197 -1.5161  0.7555 -1.2271
  741HK4    H2862161   9.738  10.561   6.386  0.1584  0.7836  2.7654
  741HK4    C4862162   9.645  10.618   6.386 -0.5408 -0.2643  0.1509
  741HK4    C4762163   9.547  10.603   6.289  0.3657 -0.7258 -0.7042
  741HK4    H2762164   9.562  10.537   6.202  3.0080 -0.9276 -0.1391
  741HK4    C4662165   9.428  10.676   6.291  0.8262 -0.0051  0.6008
  741HK4    H2662166   9.367  10.655   6.203 -1.3514 -0.5860  2.1992
  741HK4    C4062167   9.385  10.752   6.401  0.4702  0.4902  0.1130
  741HK4    C5062168   9.484  10.758   6.501  0.0212  0.7029  0.5545
  741HK4    H3062169   9.449  10.803   6.595 -1.8816  1.2887 -0.4153
  741HK4    C4962170   9.610  10.700   6.493 -0.1995  0.3217 -0.1759
  741HK4    H2962171   9.687  10.749   6.553  0.1603  1.8302 -1.8314
  741HK4     N262172   9.251  10.762   6.442  0.4536 -0.3366  0.2565
  741HK4    C3062173   9.148  10.665   6.430 -0.0296  0.1438  0.5403
  741HK4    C2962174   9.156  10.529   6.404 -0.1195  0.2399  0.0157
  741HK4    H1562175   9.255  10.487   6.384  0.4816  1.8133 -0.4555
  741HK4    C2862176   9.045  10.447   6.388 -0.0528  0.1254  0.1433
  741HK4    C2762177   8.922  10.515   6.393 -0.1650 -0.1035  0.5491
  741HK4    H1462178   8.827  10.458   6.396 -1.1071  1.3588 -0.4996
  741HK4    C3262179   8.903  10.650   6.422 -0.2122  0.0316 -0.0888
  741HK4    H1662180   8.806  10.699   6.416 -0.5083 -0.4843  0.4315
  741HK4    C3162181   9.017  10.724   6.451 -0.1959 -0.0920  0.1778
  741HK4    C3462182   9.050  10.857   6.498  0.1175 -0.1488  0.1178
  741HK4    C3362183   9.192  10.883   6.484  0.1759 -0.4430  0.1750
  741HK4    C3562184   9.246  11.006   6.519 -0.0444 -0.1831 -0.3959
  741HK4    H1762185   9.351  11.020   6.495 -0.1085 -2.1488 -1.9830
  741HK4    C3662186   9.163  11.106   6.569 -0.3838 -0.7893  0.2588
  741HK4    H1862187   9.212  11.195   6.609  1.7266 -1.5498 -0.5684
  741HK4    C3762188   9.026  11.083   6.567 -0.4749 -0.2006 -0.0125
  741HK4    H1962189   8.957  11.163   6.595 -1.6399 -0.9388 -0.7548
  741HK4    C3862190   8.967  10.960   6.541 -0.1855 -0.3426  0.0015
  741HK4    H2062191   8.860  10.946   6.558 -0.3368 -0.0970 -0.7507
  741HK4    C1462192   9.064  10.306   6.351 -0.1730  0.3503 -0.8064
  741HK4     C962193   8.952  10.236   6.304  0.0715 -0.3515 -0.3384
  741HK4     C862194   8.930  10.105   6.352 -0.3163  0.1564  0.8965
  741HK4    C1162195   9.015  10.048   6.447  0.5244 -0.3504 -0.1609
  741HK4     H462196   8.985   9.952   6.489 -1.7950 -0.6484 -2.3734
  741HK4    C1262197   9.131  10.113   6.489  0.4913  0.0788 -0.7149
  741HK4     H562198   9.178  10.070   6.578 -1.2641 -0.4242 -0.0114
  741HK4    C1362199   9.156  10.238   6.433 -0.6319  0.6024 -0.0686
  741HK4     H662200   9.252  10.285   6.460 -0.8736  0.4098  1.1528
  741HK4     C762201   8.824  10.020   6.294  0.0676  0.2374  0.0763
  741HK4     O262202   8.759   9.948   6.369  0.6214 -0.1443  0.1857
  741HK4     C462203   8.761  10.068   6.169 -0.4295 -0.2185  0.1502
  741HK4     C362204   8.680   9.981   6.096  0.0491 -0.7590  0.2580
  741HK4     H362205   8.697   9.874   6.113  2.4523 -0.1807  1.7466
  741HK4     C262206   8.613  10.021   5.981  0.0610  0.3138  0.6182
  741HK4     H262207   8.577   9.945   5.910  0.7727 -0.0953  0.6977
  741HK4     C162208   8.609  10.158   5.953 -0.1808  0.2270  0.2316
  741HK4     H162209   8.571  10.181   5.852  0.6751  0.5745 -0.0184
  741HK4     C662210   8.677  10.252   6.032 -0.5251  0.0596  0.7259
  741HK4     C562211   8.762  10.204   6.132 -0.2262 -0.1663  0.3640
  741HK4    C1062212   8.873  10.287   6.189  0.3059 -0.2939 -0.4753
  741HK4     O162213   8.934  10.361   6.112  0.3842  0.4462  0.2898
  741HK4    C1662214   8.621  10.387   6.013 -0.1705  0.1353  0.2112
  741HK4    C1562215   8.619  10.468   6.128  0.4610  0.5016 -0.0342
  741HK4     H762216   8.590  10.421   6.223  2.4571  0.3050  0.5030
  741HK4    C2062217   8.611  10.607   6.124 -0.3137  0.4612  0.0618
  741HK4     H962218   8.634  10.669   6.210 -0.3923 -0.6821  0.9168
  741HK4    C1962219   8.605  10.667   5.999 -0.9333  0.6245  0.1649
  741HK4    C1862220   8.610  10.588   5.877 -0.3621  0.2217  0.4465
  741HK4    C1762221   8.616  10.450   5.889  0.4683  0.2355  0.2329
  741HK4     H862222   8.600  10.396   5.796  1.2798  0.5532 -0.0937
  741HK4     N162223   8.591  10.666   5.761 -0.1748 -0.1901  0.1363
  741HK4    C2162224   8.578  10.798   5.811 -0.5889 -0.1753 -0.0187
  741HK4    C2262225   8.571  10.801   5.956 -0.5613  0.6598 -0.0347
  741HK4    C2662226   8.581  10.924   6.020  0.4749  0.4762  0.1531
  741HK4    H1362227   8.575  10.932   6.128 -0.5509  0.0476  0.1235
  741HK4    C2562228   8.603  11.039   5.944  0.3571 -0.0405 -0.6735
  741HK4    H1262229   8.602  11.138   5.989  1.4038 -0.4911  0.3651
  741HK4    C2462230   8.601  11.038   5.805  0.3175 -0.0933 -0.6725
  741HK4    H1162231   8.634  11.127   5.750 -2.1644  2.0716  1.1922
  741HK4    C2362232   8.583  10.917   5.740 -0.3281 -0.2687 -0.1641
  741HK4    H1062233   8.560  10.914   5.633  0.1314  0.8120 -0.2990
  741HK4    C3962234   8.598  10.615   5.631 -0.3818 -0.7615  0.3499
  741HK4    C4162235   8.509  10.665   5.534  0.5881 -0.0717 -0.1881
  741HK4    H2162236   8.426  10.726   5.569  1.0041  0.0575  0.5756
  741HK4    C4262237   8.523  10.622   5.402 -0.1652  0.1144 -0.3280
  741HK4    H2262238   8.445  10.660   5.335  0.7008  0.1189 -1.3455
  741HK4    C4362239   8.619  10.531   5.361 -0.0019  0.1959 -0.1284
  741HK4    H2362240   8.641  10.510   5.256 -2.3901 -3.1086 -0.0477
  741HK4    C4462241   8.697  10.473   5.460  0.2006  0.5755 -0.0666
  741HK4    H2462242   8.782  10.410   5.429  0.7505  1.5012 -0.4403
  741HK4    C4562243   8.694  10.520   5.591  0.5408  0.2890  0.0450
  741HK4    H2562244   8.783  10.503   5.653  0.0923  2.0641  1.2152
  742HK4    H2862245   9.603   8.111   3.444 -2.1429 -0.1296 -1.5391
  742HK4    C4862246   9.630   8.205   3.397 -0.4563  0.0629 -0.2414
  742HK4    C4762247   9.608   8.325   3.463  0.0352  0.0629 -0.0759
  742HK4    H2762248   9.567   8.327   3.565 -0.6259 -0.5776 -0.3243
  742HK4    C4662249   9.647   8.440   3.396  0.0643  0.1381  0.0656
  742HK4    H2662250   9.648   8.540   3.443 -1.1032 -0.2163  0.8705
  742HK4    C4062251   9.701   8.445   3.266 -0.0986 -0.1079 -0.0112
  742HK4    C5062252   9.732   8.319   3.211 -0.7238 -0.3019  0.0778
  742HK4    H3062253   9.776   8.302   3.111  3.4767  2.7618  1.2760
  742HK4    C4962254   9.696   8.201   3.275 -1.0810 -0.5387 -0.5614
  742HK4    H2962255   9.709   8.102   3.228 -2.9749 -1.3609  0.6042
  742HK4     N262256   9.692   8.554   3.179 -0.0174 -0.0095  0.1038
  742HK4    C3062257   9.605   8.662   3.202 -0.1483 -0.0457 -0.1953
  742HK4    C2962258   9.484   8.675   3.269  0.2323  0.5283  0.3837
  742HK4    H1562259   9.429   8.581   3.278  0.4690  0.1343 -2.0280
  742HK4    C2862260   9.420   8.794   3.302  0.0314  0.4369  0.3167
  742HK4    C2762261   9.471   8.907   3.236 -0.3153  0.3372 -0.1240
  742HK4    H1462262   9.423   9.003   3.260 -1.9670 -0.8927  1.5853
  742HK4    C3262263   9.587   8.904   3.159 -0.2862 -0.2505 -0.0550
  742HK4    H1662264   9.613   8.997   3.109 -1.8373  1.5426  2.3651
  742HK4    C3162265   9.656   8.784   3.145  0.0173 -0.0709 -0.0955
  742HK4    C3462266   9.784   8.750   3.085 -0.1100 -0.1455 -0.3271
  742HK4    C3362267   9.799   8.607   3.105  0.3029  0.0263  0.5906
  742HK4    C3562268   9.924   8.551   3.082  0.1189 -0.1767  0.0903
  742HK4    H1762269   9.930   8.450   3.042  0.8777  0.2011 -0.7672
  742HK4    C3662270  10.038   8.629   3.064  0.3819 -0.5661  0.0360
  742HK4    H1862271  10.138   8.587   3.047  1.6766  3.2644 -2.3404
  742HK4    C3762272  10.018   8.766   3.054  0.0603 -0.6146  0.0055
  742HK4    H1962273  10.099   8.828   3.017 -1.1988  1.5571  0.7773
  742HK4    C3862274   9.894   8.829   3.053  0.1978 -0.3431  0.2433
  742HK4    H2062275   9.894   8.933   3.083 -0.8811 -0.8968  2.2768
  742HK4    C1462276   9.328   8.806   3.416  0.0863 -0.2285  0.4348
  742HK4     C962277   9.237   8.911   3.435 -0.4110 -0.5893  0.0452
  742HK4     C862278   9.220   8.954   3.569 -0.2656  0.0108 -0.1294
  742HK4    C1162279   9.285   8.903   3.680  0.1020  0.3950 -0.1677
  742HK4     H462280   9.261   8.942   3.780 -1.7306  0.8471 -0.7798
  742HK4    C1262281   9.364   8.790   3.661 -0.2360  0.1006  0.1682
  742HK4     H562282   9.432   8.759   3.742 -1.7102  0.5621  1.6017
  742HK4    C1362283   9.377   8.741   3.532 -0.0332 -0.4155  0.3804
  742HK4     H662284   9.417   8.643   3.502 -0.9417 -0.8504  0.5848
  742HK4     C762285   9.132   9.069   3.596  0.3000  0.3949  0.0807
  742HK4     O262286   9.126   9.118   3.709  0.1902  0.2401  0.1425
  742HK4     C462287   9.070   9.142   3.483  0.1321  0.1444  0.0102
  742HK4     C362288   8.983   9.248   3.504 -0.9279 -0.7216  0.0254
  742HK4     H362289   8.958   9.280   3.606  2.2452  1.2338  0.2356
  742HK4     C262290   8.932   9.334   3.406  0.1214  0.0958  0.1918
  742HK4     H262291   8.851   9.406   3.425 -1.0082 -1.4629  1.4666
  742HK4     C162292   8.979   9.312   3.277  0.1983 -0.0355  0.2413
  742HK4     H162293   8.916   9.371   3.208  0.1622 -0.2963  0.0527
  742HK4     C662294   9.072   9.209   3.252 -0.1663 -0.2843 -0.0946
  742HK4     C562295   9.105   9.114   3.350 -0.1777 -0.1896 -0.0022
  742HK4    C1062296   9.178   8.987   3.322  0.0048 -0.1208  0.1420
  742HK4     O162297   9.147   8.919   3.225 -0.2086  0.0019  0.1226
  742HK4    C1662298   9.139   9.215   3.121 -0.3226 -0.5269 -0.1869
  742HK4    C1562299   9.271   9.173   3.096 -0.0301  0.1594  0.2348
  742HK4     H762300   9.338   9.174   3.184 -0.6873 -0.7821  0.7534
  742HK4    C2062301   9.317   9.157   2.966 -0.1647  0.7978  0.1068
  742HK4     H962302   9.424   9.154   2.946  0.2142  2.1099  1.7849
  742HK4    C1962303   9.238   9.186   2.856 -0.2127 -0.0522 -0.0850
  742HK4    C1862304   9.102   9.232   2.877 -0.0646  0.2090  0.3172
  742HK4    C1762305   9.061   9.241   3.009 -0.5726  0.2492  0.1600
  742HK4     H862306   8.963   9.283   3.030 -0.1008  0.6460  1.6874
  742HK4     N162307   9.033   9.250   2.755  0.1178  0.3288  0.2302
  742HK4    C2162308   9.119   9.204   2.653 -0.2603  0.0358  0.0389
  742HK4    C2262309   9.245   9.165   2.713 -0.3429 -0.3509 -0.0465
  742HK4    C2662310   9.336   9.105   2.627 -0.2304 -0.5333  0.1977
  742HK4    H1362311   9.422   9.058   2.673 -1.0208 -1.7769  0.4402
  742HK4    C2562312   9.305   9.088   2.492 -0.4235 -0.1949  0.1993
  742HK4    H1262313   9.370   9.026   2.431  0.7574  0.1518  1.0968
  742HK4    C2462314   9.189   9.138   2.433 -0.2325 -0.0430 -0.0477
  742HK4    H1162315   9.175   9.132   2.324  0.6477 -0.4045 -0.1470
  742HK4    C2362316   9.093   9.192   2.517  0.1182  0.6417 -0.0886
  742HK4    H1062317   9.009   9.244   2.470  0.5805  1.5397  0.0699
  742HK4    C3962318   8.896   9.273   2.739  0.0881  0.2581  0.3821
  742HK4    C4162319   8.842   9.349   2.633  0.3515  0.0039  0.0631
  742HK4    H2162320   8.912   9.427   2.601  1.7941 -2.3793 -2.8225
  742HK4    C4262321   8.710   9.344   2.591  0.3873  0.1185 -0.0581
  742HK4    H2262322   8.687   9.418   2.513 -0.6788  0.3404  0.4566
  742HK4    C4362323   8.622   9.265   2.664  0.0994 -0.3552 -0.9061
  742HK4    H2362324   8.522   9.254   2.622  1.0129  1.7621 -3.7570
  742HK4    C4462325   8.671   9.182   2.764 -0.3019  0.4363 -0.0489
  742HK4    H2462326   8.602   9.126   2.829 -0.4797 -0.5381 -1.0747
  742HK4    C4562327   8.806   9.183   2.800 -0.2305  0.0909 -0.3169
  742HK4    H2562328   8.842   9.118   2.882 -0.7925 -0.4546 -0.4951
  743HK4    H2862329   5.035   2.394   6.498 -0.5089 -0.6075  0.0633
  743HK4    C4862330   5.040   2.316   6.422  0.3406 -0.2038 -0.2966
  743HK4    C4762331   4.958   2.205   6.432 -0.1034  0.1179 -0.3555
  743HK4    H2762332   4.877   2.201   6.507  0.7754  3.6333  0.8633
  743HK4    C4662333   4.987   2.088   6.363 -0.0793 -0.1944  0.1837
  743HK4    H2662334   4.900   2.024   6.342 -0.3167  0.6643 -1.5124
  743HK4    C4062335   5.105   2.070   6.289  0.0335  0.2451  0.2581
  743HK4    C5062336   5.176   2.191   6.276  0.0919  0.1631 -0.2212
  743HK4    H3062337   5.248   2.187   6.193  0.2203 -0.5355 -0.0765
  743HK4    C4962338   5.153   2.312   6.341  0.5594  0.1413 -0.0094
  743HK4    H2962339   5.218   2.394   6.308  1.0399 -1.6265 -3.7199
  743HK4     N262340   5.173   1.948   6.279 -0.2098  0.1276  0.0432
  743HK4    C3062341   5.160   1.837   6.365 -0.1000 -0.0900 -0.2223
  743HK4    C2962342   5.106   1.826   6.492 -0.6646 -0.1890 -0.4691
  743HK4    H1562343   5.100   1.923   6.541 -2.3737 -0.4275 -0.1820
  743HK4    C2862344   5.109   1.708   6.565 -0.4260  0.0386 -0.1114
  743HK4    C2762345   5.161   1.598   6.493  0.2911  0.3407 -0.0548
  743HK4    H1462346   5.131   1.502   6.535 -1.3769  1.8295  2.2462
  743HK4    C3262347   5.224   1.602   6.369  0.2268 -0.4223 -0.1097
  743HK4    H1662348   5.202   1.512   6.311 -1.4982  1.0552 -1.8247
  743HK4    C3162349   5.224   1.723   6.301  0.3588 -0.1589  0.3554
  743HK4    C3462350   5.295   1.771   6.184 -0.1726  0.6835  0.3718
  743HK4    C3362351   5.253   1.909   6.170  0.0292  0.7068  0.0061
  743HK4    C3562352   5.300   1.979   6.059 -0.6224  0.0724 -0.6856
  743HK4    H1762353   5.237   2.061   6.026 -0.1780  0.8462  0.3522
  743HK4    C3662354   5.387   1.922   5.967  0.0333 -0.3815  0.2070
  743HK4    H1862355   5.436   1.988   5.894 -2.0286  1.0393  0.0659
  743HK4    C3762356   5.425   1.789   5.985  0.6910 -0.1949  0.2284
  743HK4    H1962357   5.482   1.751   5.901  0.3020  0.5920 -0.3994
  743HK4    C3862358   5.385   1.714   6.095 -0.7502  0.2728  0.0466
  743HK4    H2062359   5.433   1.619   6.120  2.2592  2.2009  1.9062
  743HK4    C1462360   5.049   1.692   6.698  0.7863  0.1869  0.4615
  743HK4     C962361   5.072   1.587   6.788  0.1595 -0.1405  0.2402
  743HK4     C862362   4.969   1.521   6.857 -0.2286  0.2264  0.0108
  743HK4    C1162363   4.844   1.581   6.854 -0.4344 -0.1903  0.1035
  743HK4     H462364   4.759   1.520   6.888 -0.4404 -0.6070 -0.6500
  743HK4    C1262365   4.823   1.701   6.787  0.5238 -0.3022 -0.3978
  743HK4     H562366   4.731   1.761   6.798  1.4098  1.1106 -0.6206
  743HK4    C1362367   4.927   1.760   6.717  0.5887 -0.0218 -0.0663
  743HK4     H662368   4.909   1.862   6.680  1.2209  0.5490  1.1649
  743HK4     C762369   4.988   1.383   6.907  0.2964  0.3098  0.0337
  743HK4     O262370   4.893   1.325   6.960  0.1632  0.4193 -0.0870
  743HK4     C462371   5.117   1.318   6.875  0.1602 -0.1189  0.3572
  743HK4     C362372   5.127   1.182   6.903  0.1421 -0.3411 -0.6802
  743HK4     H362373   5.047   1.122   6.949  0.6737 -0.8960 -0.4704
  743HK4     C262374   5.255   1.128   6.898  0.2606 -0.1141 -0.1140
  743HK4     H262375   5.273   1.020   6.911 -1.6469 -0.5115 -0.6677
  743HK4     C162376   5.369   1.201   6.869  0.5591  0.0749  1.4550
  743HK4     H162377   5.470   1.158   6.881  1.0188  1.0978  1.3468
  743HK4     C662378   5.356   1.339   6.840 -0.0773 -0.2737  0.0603
  743HK4     C562379   5.230   1.398   6.848  0.0287 -0.0446  0.0334
  743HK4    C1062380   5.212   1.543   6.818  0.2121  0.0197  0.2278
  743HK4     O162381   5.283   1.628   6.869 -0.1146  0.3449  0.1473
  743HK4    C1662382   5.483   1.410   6.820 -0.0963 -0.4206 -0.6260
  743HK4    C1562383   5.608   1.366   6.868 -0.3203  0.6188  0.9582
  743HK4     H762384   5.615   1.288   6.945 -1.1834 -0.9515 -0.5197
  743HK4    C2062385   5.731   1.410   6.821 -0.1941 -0.1534  0.5572
  743HK4     H962386   5.823   1.361   6.852 -0.2669  0.7912  2.3114
  743HK4    C1962387   5.741   1.508   6.724  0.1341 -0.0631  0.6812
  743HK4    C1862388   5.615   1.557   6.671  0.2540 -0.1865  0.2787
  743HK4    C1762389   5.497   1.492   6.709 -0.2401  0.5873  0.0872
  743HK4     H862390   5.411   1.510   6.644  1.7764 -0.0947 -2.8922
  743HK4     N162391   5.646   1.659   6.579  0.0370 -0.3268  0.0511
  743HK4    C2162392   5.786   1.666   6.567  0.0286 -0.0082  0.1427
  743HK4    C2262393   5.852   1.575   6.658 -0.1437 -0.0767  0.1985
  743HK4    C2662394   5.989   1.556   6.657 -0.1656 -0.2238 -0.3578
  743HK4    H1362395   6.030   1.490   6.734 -0.4754  2.9620  2.6646
  743HK4    C2562396   6.060   1.624   6.558  0.2710 -0.2062 -0.0359
  743HK4    H1262397   6.157   1.585   6.529  1.3220  1.5004  1.0823
  743HK4    C2462398   6.003   1.714   6.469 -0.1162  0.1494  0.5644
  743HK4    H1162399   6.060   1.766   6.390  0.1657  2.1669  2.0604
  743HK4    C2362400   5.867   1.740   6.481 -0.0125  0.6616  0.6700
  743HK4    H1062401   5.823   1.823   6.425 -0.2461  0.9234  1.2410
  743HK4    C3962402   5.549   1.749   6.532  0.1899 -0.0982  0.1782
  743HK4    C4162403   5.570   1.823   6.414 -0.1907  0.1983  0.3000
  743HK4    H2162404   5.603   1.768   6.325 -0.9402  1.8805 -1.0469
  743HK4    C4262405   5.515   1.950   6.398 -0.2465  0.2286  0.7200
  743HK4    H2262406   5.541   2.009   6.309 -0.5392 -0.7105  0.0113
  743HK4    C4362407   5.430   2.004   6.494 -0.9675 -0.0348  0.2288
  743HK4    H2362408   5.362   2.080   6.456  0.4070  1.1561  0.1071
  743HK4    C4462409   5.413   1.942   6.618  0.0413 -0.4856  0.1480
  743HK4    H2462410   5.384   2.004   6.704 -3.0714 -0.3587 -0.9151
  743HK4    C4562411   5.473   1.818   6.629 -0.5590 -0.7837  0.0857
  743HK4    H2562412   5.461   1.775   6.730 -0.2165  0.4836  0.6731
  744HK4    H2862413   3.723  10.263   7.293 -0.5303  1.3273 -1.0252
  744HK4    C4862414   3.750  10.319   7.383 -0.4378 -0.2798 -0.0290
  744HK4    C4762415   3.865  10.397   7.392 -0.6530 -0.0046  0.3274
  744HK4    H2762416   3.933  10.400   7.306  1.1798 -1.2039  1.6825
  744HK4    C4662417   3.883  10.476   7.505  0.0816 -0.0251  0.2267
  744HK4    H2662418   3.973  10.539   7.519 -1.0073  1.0809  2.5190
  744HK4    C4062419   3.790  10.485   7.610  0.3743 -0.6954  0.5454
  744HK4    C5062420   3.675  10.404   7.597 -0.1109  0.0062  0.4629
  744HK4    H3062421   3.581  10.423   7.652  0.7110  0.7793  1.6160
  744HK4    C4962422   3.659  10.320   7.487 -0.3034  0.5245  0.0880
  744HK4    H2962423   3.567  10.262   7.468  1.4038 -1.5644 -2.1525
  744HK4     N262424   3.815  10.556   7.728  0.0896  0.4261 -0.0696
  744HK4    C3062425   3.941  10.591   7.781  0.0845  0.1542  0.1219
  744HK4    C2962426   4.060  10.519   7.786 -0.1308 -0.1586  0.6981
  744HK4    H1562427   4.067  10.427   7.727  0.5459  0.1538  0.2977
  744HK4    C2862428   4.171  10.557   7.860  0.3770 -0.1425 -0.0669
  744HK4    C2762429   4.168  10.690   7.907 -0.0102  0.0986 -0.7584
  744HK4    H1462430   4.249  10.741   7.961 -0.5094 -0.8934  0.9609
  744HK4    C3262431   4.052  10.766   7.908  0.0525  0.1818  0.2557
  744HK4    H1662432   4.041  10.872   7.931  0.5760 -0.6394  4.9697
  744HK4    C3162433   3.933  10.712   7.861  0.1773  0.6147 -0.5567
  744HK4    C3462434   3.793  10.747   7.871  0.1346  0.1896  0.4434
  744HK4    C3362435   3.729  10.655   7.778  0.2638  0.5516 -0.0066
  744HK4    C3562436   3.602  10.685   7.731  0.1002  0.0196  0.0916
  744HK4    H1762437   3.548  10.640   7.647 -1.7038  1.3495  0.4832
  744HK4    C3662438   3.537  10.796   7.784 -0.2855 -0.1326 -0.0512
  744HK4    H1862439   3.438  10.813   7.739  0.1987 -1.3347 -1.6358
  744HK4    C3762440   3.594  10.882   7.877  0.0252  0.0336 -0.4005
  744HK4    H1962441   3.537  10.959   7.928  1.7059  1.9187 -1.3003
  744HK4    C3862442   3.725  10.859   7.918  0.0878  0.4981 -0.3417
  744HK4    H2062443   3.776  10.924   7.990  2.7816  1.6302 -3.1270
  744HK4    C1462444   4.254  10.453   7.923  0.3825 -0.1689 -0.1238
  744HK4     C962445   4.311  10.466   8.050 -0.1843  0.1866  0.0956
  744HK4     C862446   4.450  10.451   8.066 -0.1292  0.4004 -0.1662
  744HK4    C1162447   4.522  10.406   7.955  0.2629  0.1851  0.1763
  744HK4     H462448   4.628  10.379   7.966  0.1754 -0.4032 -0.3590
  744HK4    C1262449   4.466  10.380   7.830  0.1381  0.0867  0.2515
  744HK4     H562450   4.512  10.343   7.738 -1.9324  2.8186 -1.9830
  744HK4    C1362451   4.329  10.400   7.816  0.1217 -0.3529 -0.2182
  744HK4     H662452   4.289  10.379   7.716  0.5371  1.6552 -0.8298
  744HK4     C762453   4.517  10.507   8.185  0.1227  0.1576 -0.1899
  744HK4     O262454   4.640  10.510   8.193  0.0774  0.1791  0.5308
  744HK4     C462455   4.435  10.561   8.296  0.2034  0.0381 -0.0724
  744HK4     C362456   4.486  10.611   8.415 -0.0193  0.3903 -0.1225
  744HK4     H362457   4.584  10.578   8.453 -0.3935 -0.3325  0.2431
  744HK4     C262458   4.418  10.700   8.497 -0.2594  0.2076 -0.1233
  744HK4     H262459   4.458  10.741   8.591  1.3628  1.2660 -1.2402
  744HK4     C162460   4.288  10.738   8.463 -0.0043  0.4214 -0.8933
  744HK4     H162461   4.237  10.804   8.535  0.2147  1.2985 -1.5409
  744HK4     C662462   4.226  10.675   8.353 -0.2637 -0.0235 -0.4953
  744HK4     C562463   4.297  10.583   8.276  0.2733  0.2419 -0.3211
  744HK4    C1062464   4.227  10.514   8.164 -0.1920 -0.2780  0.2830
  744HK4     O162465   4.112  10.473   8.181 -0.4649  0.1476 -0.5139
  744HK4    C1662466   4.138  10.768   8.280 -0.0930  0.4924 -0.0545
  744HK4    C1562467   4.180  10.900   8.255  0.6502  0.3032  0.1535
  744HK4     H762468   4.276  10.914   8.203  0.7108 -1.3606 -0.2090
  744HK4    C2062469   4.081  10.995   8.231  0.3349 -0.1290 -0.2535
  744HK4     H962470   4.104  11.100   8.212 -1.2734  0.6771  1.9916
  744HK4    C1962471   3.946  10.960   8.231  0.2509  0.1879 -0.1104
  744HK4    C1862472   3.907  10.824   8.262 -0.0889  0.1352 -0.7656
  744HK4    C1762473   4.005  10.728   8.284 -0.0576  0.4098  0.2965
  744HK4     H862474   3.978  10.631   8.325 -0.9166 -0.6001 -2.5142
  744HK4     N162475   3.767  10.821   8.283  0.0020 -0.1430 -0.1881
  744HK4    C2162476   3.724  10.955   8.278  0.0557 -0.1291 -0.4164
  744HK4    C2262477   3.829  11.046   8.238  0.0571 -0.0655 -0.2594
  744HK4    C2662478   3.812  11.182   8.215 -0.0857 -0.1705 -0.8017
  744HK4    H1362479   3.897  11.245   8.190  0.4195 -0.5587 -0.0917
  744HK4    C2562480   3.678  11.221   8.214  0.1107  0.5427  0.0339
  744HK4    H1262481   3.648   0.070   8.176 -0.7986  0.9086  1.6277
  744HK4    C2462482   3.576  11.140   8.263  0.3539 -0.0282 -0.3860
  744HK4    H1162483   3.482  11.192   8.289  0.4632 -0.1223  0.1903
  744HK4    C2362484   3.596  11.007   8.297  0.2899  0.1587  0.3972
  744HK4    H1062485   3.513  10.954   8.342  0.6188  0.0368  0.8593
  744HK4    C3962486   3.693  10.703   8.271  0.1794 -0.2363 -0.3697
  744HK4    C4162487   3.569  10.690   8.338  0.2899 -0.1181 -0.1403
  744HK4    H2162488   3.566  10.736   8.438  0.8519  3.2013 -1.5859
  744HK4    C4262489   3.469  10.603   8.297  0.2477 -0.0624 -0.1551
  744HK4    H2262490   3.365  10.601   8.334 -0.0065 -0.2586 -0.8548
  744HK4    C4362491   3.496  10.518   8.190  0.3737 -0.6170  0.3113
  744HK4    H2362492   3.426  10.437   8.169 -0.3174  0.0434  0.0151
  744HK4    C4462493   3.621  10.521   8.131  0.0096  0.1863 -0.4442
  744HK4    H2462494   3.641  10.444   8.054  0.0315 -0.4834  0.2241
  744HK4    C4562495   3.718  10.615   8.165  0.1312  0.1581 -0.7133
  744HK4    H2562496   3.817  10.614   8.116  0.7301 -0.3436  0.4934
  745HK4    H2862497   0.276   9.327   1.124 -1.2366 -0.8770 -1.3590
  745HK4    C4862498   0.207   9.313   1.208  0.2888  0.2252  0.1164
  745HK4    C4762499   0.160   9.190   1.253  0.5335  0.0205 -0.1911
  745HK4    H2762500   0.164   9.115   1.173  1.4237 -1.0078  0.8091
  745HK4    C4662501   0.081   9.179   1.367 -0.0188  0.4745 -0.5274
  745HK4    H2662502   0.054   9.081   1.407  2.6739 -0.6001 -1.2250
  745HK4    C4062503   0.037   9.296   1.432 -0.4743  0.1655 -0.2829
  745HK4    C5062504   0.087   9.420   1.388  0.4383  0.0085  0.3019
  745HK4    H3062505   0.051   9.516   1.431  1.7664  0.7596 -0.2450
  745HK4    C4962506   0.172   9.427   1.279  0.5174  0.1344  0.3718
  745HK4    H2962507   0.215   9.523   1.244 -1.7776  0.8129 -0.6290
  745HK4     N262508  11.156   9.293   1.486 -0.2072  0.1943  0.3614
  745HK4    C3062509  11.048   9.206   1.458  0.4299 -0.4956  0.0414
  745HK4    C2962510  11.022   9.142   1.337  0.1939 -0.5928  0.1434
  745HK4    H1562511  11.075   9.166   1.245 -0.4261  0.6031  0.0814
  745HK4    C2862512  10.907   9.067   1.320  0.1124 -0.4482  0.0687
  745HK4    C2762513  10.816   9.064   1.428 -0.1159 -0.4851 -0.1234
  745HK4    H1462514  10.725   9.002   1.427  0.6674 -1.6774 -1.8831
  745HK4    C3262515  10.835   9.132   1.547  0.6663 -0.3185 -0.3417
  745HK4    H1662516  10.757   9.127   1.624  1.2190  0.9045  0.3154
  745HK4    C3162517  10.950   9.208   1.565 -0.3457  1.3173 -0.6709
  745HK4    C3462518  10.994   9.305   1.663  0.1367  0.6020 -0.1760
  745HK4    C3362519  11.117   9.355   1.607  0.3395  0.6422  0.3055
  745HK4    C3562520  11.206   9.423   1.690  0.3490  0.9495  0.0500
  745HK4    H1762521   0.060   9.452   1.667  0.0355  2.7323  0.8234
  745HK4    C3662522  11.176   9.435   1.825  0.5229 -0.6447  0.2499
  745HK4    H1862523   0.007   9.475   1.891  0.3510 -0.7675  0.5312
  745HK4    C3762524  11.060   9.379   1.879 -0.2192  0.5561 -0.0740
  745HK4    H1962525  11.047   9.387   1.987 -1.7965  2.0946 -0.3676
  745HK4    C3862526  10.968   9.312   1.800  0.2576 -0.0648 -0.1127
  745HK4    H2062527  10.882   9.273   1.854 -0.7347  0.3961 -1.3147
  745HK4    C1462528  10.869   9.010   1.190 -0.3357 -0.0001 -0.0026
  745HK4     C962529  10.745   8.968   1.141 -0.3178 -0.5040  0.3804
  745HK4     C862530  10.732   8.857   1.056 -0.0992 -0.3538  0.1538
  745HK4    C1162531  10.849   8.804   1.002  0.3585  1.0786 -0.2923
  745HK4     H462532  10.854   8.726   0.924  1.2039  0.2255  0.5848
  745HK4    C1262533  10.975   8.848   1.039  0.5356  0.5028 -0.2093
  745HK4     H562534  11.059   8.810   0.978  0.5411 -2.2326  1.4264
  745HK4    C1362535  10.984   8.954   1.128 -0.0617 -0.1777  0.6626
  745HK4     H662536  11.083   9.001   1.137  1.0186 -2.0960 -0.8751
  745HK4     C762537  10.600   8.806   1.015 -0.3558  0.5110 -0.0961
  745HK4     O262538  10.589   8.691   0.972  0.1398  0.4666 -0.1059
  745HK4     C462539  10.479   8.885   1.046 -0.5801  0.2795 -0.3768
  745HK4     C362540  10.361   8.849   0.982 -0.2719 -0.2819 -0.6294
  745HK4     H362541  10.365   8.781   0.895  1.1965 -2.2188  0.9205
  745HK4     C262542  10.242   8.891   1.040  0.2330 -0.7294  0.7411
  745HK4     H262543  10.148   8.851   1.000 -0.5528  0.0335  1.8093
  745HK4     C162544  10.246   8.972   1.153 -0.1838  0.2117  0.0839
  745HK4     H162545  10.148   8.988   1.200 -0.4457 -0.6114 -0.1696
  745HK4     C662546  10.366   9.021   1.208 -0.1392  0.3990 -0.1828
  745HK4     C562547  10.486   8.984   1.146 -0.2890  0.2844 -0.4027
  745HK4    C1062548  10.620   9.041   1.179 -0.2140 -0.1721  0.0941
  745HK4     O162549  10.623   9.159   1.213 -0.1251 -0.3146  0.5978
  745HK4    C1662550  10.341   9.129   1.305 -0.1306  0.4199 -0.2032
  745HK4    C1562551  10.227   9.210   1.287 -0.1700  0.1985 -0.9861
  745HK4     H762552  10.212   9.246   1.184 -0.5122 -0.3334 -1.1201
  745HK4    C2062553  10.163   9.275   1.392  0.3155 -0.0981 -0.5043
  745HK4     H962554  10.058   9.300   1.378 -0.1913 -1.1881  1.2153
  745HK4    C1962555  10.216   9.266   1.520 -0.2984 -0.2887 -0.2630
  745HK4    C1862556  10.345   9.201   1.535 -0.2387 -0.0064  0.4989
  745HK4    C1762557  10.397   9.123   1.432 -0.2130  0.8546 -0.1463
  745HK4     H862558  10.483   9.059   1.453 -0.2094  1.4623  1.7401
  745HK4     N162559  10.376   9.179   1.670  0.0107 -0.0055  0.4410
  745HK4    C2162560  10.256   9.205   1.740  0.0334  0.1065  0.4308
  745HK4    C2262561  10.161   9.272   1.654 -0.1944 -0.9995 -0.1835
  745HK4    C2662562  10.048   9.327   1.712  0.5432  0.1163  0.2129
  745HK4    H1362563   9.972   9.378   1.652  0.5244  1.2239  1.1528
  745HK4    C2562564  10.026   9.310   1.849 -0.3374  0.2486  0.0947
  745HK4    H1262565   9.933   9.347   1.891 -0.8029 -0.1786 -0.5427
  745HK4    C2462566  10.112   9.235   1.929  0.3554  0.6421 -0.2809
  745HK4    H1162567  10.093   9.221   2.036  4.6677  2.9126  0.8829
  745HK4    C2362568  10.227   9.180   1.874  0.4652  0.0606  0.5172
  745HK4    H1062569  10.274   9.108   1.940  3.7774  1.6210  0.0129
  745HK4    C3962570  10.503   9.211   1.721  0.3270 -0.1079 -0.2727
  745HK4    C4162571  10.539   9.168   1.850  0.2864 -0.1532 -0.2768
  745HK4    H2162572  10.514   9.064   1.875 -1.6467 -0.1124 -1.9609
  745HK4    C4262573  10.618   9.246   1.934  0.1558 -0.5096  0.1761
  745HK4    H2262574  10.611   9.216   2.040 -1.1228  1.3002  0.6236
  745HK4    C4362575  10.668   9.366   1.887 -0.0095 -0.6301 -0.3008
  745HK4    H2362576  10.716   9.439   1.952  0.5195  0.2406 -1.6289
  745HK4    C4462577  10.646   9.412   1.757  0.0467 -0.3180 -0.2024
  745HK4    H2462578  10.702   9.500   1.723 -2.2521  0.9189 -0.8844
  745HK4    C4562579  10.563   9.332   1.680  0.2766 -0.1892 -0.5865
  745HK4    H2562580  10.544   9.355   1.574  0.0171  1.0117 -0.2836
  746HK4    H2862581   4.207   4.508  11.065 -1.9078 -0.5472 -0.8217
  746HK4    C4862582   4.173   4.500  11.169 -0.3971  0.6992 -0.2024
  746HK4    C4762583   4.236   4.556   0.031  0.0721  0.0578 -0.1430
  746HK4    H2762584   4.338   4.596   0.018  0.3952 -0.4087  0.9412
  746HK4    C4662585   4.195   4.546   0.163  0.1991  0.1290 -0.0979
  746HK4    H2662586   4.233   4.610   0.244  0.3919 -0.4653  0.2890
  746HK4    C4062587   4.094   4.452   0.195 -0.1158  0.4900 -0.0155
  746HK4    C5062588   4.033   4.390   0.084 -0.4378  0.1810  0.3375
  746HK4    H3062589   3.956   4.312   0.099  1.4935 -2.2307 -1.8043
  746HK4    C4962590   4.068   4.414  11.200 -0.3394  0.8755  0.4894
  746HK4    H2962591   3.999   4.378  11.122  0.2786  1.4656 -0.3455
  746HK4     N262592   4.105   4.382   0.315  0.3647 -0.0280 -0.3569
  746HK4    C3062593   4.214   4.390   0.404  0.1079 -0.2754 -0.0198
  746HK4    C2962594   4.350   4.385   0.378  0.0414 -0.3643 -0.3458
  746HK4    H1562595   4.382   4.418   0.279  2.2184 -0.2281  0.3602
  746HK4    C2862596   4.447   4.367   0.476 -0.1568 -0.2208 -0.1251
  746HK4    C2762597   4.404   4.346   0.609  0.2086  0.2773  0.0719
  746HK4    H1462598   4.473   4.338   0.694  2.7164 -0.2856 -1.9684
  746HK4    C3262599   4.268   4.338   0.638  0.1862  0.4692  0.0217
  746HK4    H1662600   4.237   4.341   0.742 -1.6544 -0.7610 -0.4729
  746HK4    C3162601   4.172   4.360   0.540  0.0726  0.2860  0.0907
  746HK4    C3462602   4.035   4.314   0.531 -0.1500  0.9031  0.2396
  746HK4    C3362603   3.999   4.328   0.392  0.5533  0.0555 -0.0352
  746HK4    C3562604   3.868   4.297   0.358  0.4074  0.1901  0.3976
  746HK4    H1762605   3.826   4.329   0.262 -1.1636  0.6271  1.2178
  746HK4    C3662606   3.780   4.237   0.447  0.1960 -0.7251 -0.4119
  746HK4    H1862607   3.673   4.241   0.422  0.5124  2.8059 -1.5942
  746HK4    C3762608   3.825   4.214   0.576  0.3606 -0.6333 -0.4527
  746HK4    H1962609   3.760   4.156   0.642  1.0283 -0.7401  0.1263
  746HK4    C3862610   3.946   4.261   0.625 -0.1969  0.4167 -0.0758
  746HK4    H2062611   3.963   4.281   0.731  3.3719  0.0064 -0.4927
  746HK4    C1462612   4.584   4.342   0.429 -0.1243 -0.1485 -0.0696
  746HK4     C962613   4.672   4.262   0.502  0.3057 -0.0733 -0.5052
  746HK4     C862614   4.812   4.282   0.504  0.2498  0.2894  0.0517
  746HK4    C1162615   4.867   4.364   0.405 -0.2989  0.1703 -0.3545
  746HK4     H462616   4.974   4.375   0.383  0.1637 -0.9381  1.2327
  746HK4    C1262617   4.783   4.436   0.321 -0.4057 -0.5848 -0.9018
  746HK4     H562618   4.819   4.491   0.233  0.1719 -0.1807 -0.4206
  746HK4    C1362619   4.645   4.426   0.334 -0.3773 -0.4276 -0.4774
  746HK4     H662620   4.582   4.480   0.262  0.8621  1.3899 -0.2402
  746HK4     C762621   4.902   4.216   0.601 -0.0304  0.0002  0.1122
  746HK4     O262622   5.013   4.264   0.618  0.1934 -0.3027 -0.4754
  746HK4     C462623   4.836   4.131   0.702  0.3346 -0.3138  0.0821
  746HK4     C362624   4.918   4.086   0.805  0.6715  0.2035  0.0354
  746HK4     H362625   5.023   4.119   0.810  1.0209 -1.1883  4.4627
  746HK4     C262626   4.862   4.015   0.910  0.0027 -0.6784 -0.9165
  746HK4     H262627   4.923   3.974   0.992  0.8544 -0.5000 -1.4627
  746HK4     C162628   4.723   4.004   0.916  0.0432 -0.8063 -0.0655
  746HK4     H162629   4.677   3.942   0.995 -3.3990  0.9450 -0.6146
  746HK4     C662630   4.637   4.041   0.811  0.4214 -0.1320 -0.1358
  746HK4     C562631   4.698   4.102   0.701  0.1456  0.5866  0.1070
  746HK4    C1062632   4.618   4.150   0.585  0.2163  0.2949 -0.0620
  746HK4     O162633   4.542   4.070   0.531  0.6386 -0.0153 -0.2018
  746HK4    C1662634   4.501   4.074   0.858  0.3228  0.2345 -0.6628
  746HK4    C1562635   4.462   4.132   0.981 -0.1421  0.2562 -0.8224
  746HK4     H762636   4.543   4.184   1.034  0.8395 -0.3937 -1.6503
  746HK4    C2062637   4.335   4.112   1.034  0.3245 -0.1667  0.1493
  746HK4     H962638   4.312   4.141   1.136 -0.3081  0.8388 -0.2767
  746HK4    C1962639   4.236   4.046   0.962  0.2085 -0.1272  0.2736
  746HK4    C1862640   4.271   3.984   0.836  0.0312 -0.0802  0.2007
  746HK4    C1762641   4.402   4.002   0.793  0.0902 -0.3077  0.2856
  746HK4     H862642   4.423   3.945   0.703 -1.4713 -1.5934  0.7017
  746HK4     N162643   4.169   3.900   0.787  0.1499 -0.0154 -0.1580
  746HK4    C2162644   4.073   3.900   0.889 -0.1616  0.4723 -0.4524
  746HK4    C2262645   4.105   3.994   0.996  0.2927 -0.3961  0.1752
  746HK4    C2662646   4.022   4.000   1.107 -0.2755 -0.0036 -0.2725
  746HK4    H1362647   4.057   4.056   1.193  0.6604  2.3327 -2.1031
  746HK4    C2562648   3.907   3.922   1.117 -0.5024  0.3977  0.2553
  746HK4    H1262649   3.851   3.914   1.210  0.2939 -1.0110  0.6151
  746HK4    C2462650   3.883   3.827   1.018 -0.3669  0.5255  0.0985
  746HK4    H1162651   3.786   3.777   1.005 -0.2505  0.5157 -0.7334
  746HK4    C2362652   3.964   3.816   0.906 -0.1874  0.6338  0.2163
  746HK4    H1062653   3.934   3.741   0.832  1.9469  0.1776 -0.2297
  746HK4    C3962654   4.149   3.871   0.651  0.2110 -0.0362 -0.1627
  746HK4    C4162655   4.072   3.761   0.609 -0.1841  0.2181 -0.1088
  746HK4    H2162656   4.089   3.666   0.661 -1.6228  1.0049  1.8641
  746HK4    C4262657   3.985   3.760   0.500 -0.5893  0.0942  0.2169
  746HK4    H2262658   3.912   3.680   0.480  0.4077 -0.6670 -0.4058
  746HK4    C4362659   3.988   3.872   0.417  0.3307 -0.2719 -0.2478
  746HK4    H2362660   3.923   3.878   0.330 -0.5317 -0.3194  0.3803
  746HK4    C4462661   4.070   3.980   0.448 -0.1412 -0.0203  0.1299
  746HK4    H2462662   4.040   4.067   0.388 -0.3538 -0.8107 -0.9216
  746HK4    C4562663   4.150   3.980   0.562 -0.1735  0.2261  0.1528
  746HK4    H2562664   4.232   4.053   0.568 -1.2200  1.5060 -0.5379
  747HK4    H2862665   0.103   9.583  10.439  0.6114 -0.4846 -0.5639
  747HK4    C4862666   0.195   9.538  10.402  0.6803 -0.1480 -0.7919
  747HK4    C4762667   0.310   9.614  10.422  0.2206  0.2601  0.3665
  747HK4    H2762668   0.304   9.709  10.476  2.5670  0.2353  0.6845
  747HK4    C4662669   0.428   9.569  10.365 -0.2815  0.2164 -0.6633
  747HK4    H2662670   0.513   9.638  10.363 -1.9067  2.2924  0.2772
  747HK4    C4062671   0.433   9.455  10.282  0.0150 -0.0137 -0.3378
  747HK4    C5062672   0.311   9.391  10.255 -0.1896  0.1438  0.2265
  747HK4    H3062673   0.314   9.289  10.213  0.1807  1.2934 -2.5869
  747HK4    C4962674   0.191   9.433  10.311 -0.7125 -0.3427 -0.5147
  747HK4    H2962675   0.097   9.382  10.284 -1.6036  0.3844  1.0941
  747HK4     N262676   0.550   9.388  10.242  0.1356 -0.0758  0.1224
  747HK4    C3062677   0.667   9.396  10.321  0.2116 -0.3209  0.0310
  747HK4    C2962678   0.683   9.418  10.457 -0.8460  0.0999  0.0962
  747HK4    H1562679   0.599   9.398  10.522  0.7869 -1.6709  1.7045
  747HK4    C2862680   0.811   9.443  10.505 -0.5941 -0.5479 -0.2450
  747HK4    C2762681   0.917   9.431  10.412 -0.2190  0.0526  0.1116
  747HK4    H1462682   1.016   9.467  10.446 -0.3248 -1.9750  2.7934
  747HK4    C3262683   0.905   9.400  10.278 -0.3964 -0.4259  0.2350
  747HK4    H1662684   0.989   9.416  10.210 -1.8364  1.0080 -1.2788
  747HK4    C3162685   0.777   9.372  10.230 -0.1320 -0.7772 -0.2713
  747HK4    C3462686   0.729   9.347  10.096 -0.3489 -0.6247 -0.2242
  747HK4    C3362687   0.585   9.361  10.108 -0.3314 -0.7613  0.1335
  747HK4    C3562688   0.507   9.350   9.994 -0.1910  0.0087 -0.0411
  747HK4    H1762689   0.400   9.371   9.998 -0.4678 -0.7892 -2.6676
  747HK4    C3662690   0.566   9.302   9.878 -0.0140  0.4646 -0.1400
  747HK4    H1862691   0.500   9.257   9.802 -0.3256  2.1172 -0.8819
  747HK4    C3762692   0.703   9.286   9.868  0.0456  0.6542  0.3606
  747HK4    H1962693   0.730   9.229   9.779  1.2680  1.7423  0.0125
  747HK4    C3862694   0.788   9.315   9.974  0.6232 -0.0925  0.1066
  747HK4    H2062695   0.892   9.334   9.948  0.5667 -1.0647 -0.8864
  747HK4    C1462696   0.825   9.527  10.625  0.8125 -1.2931  0.1358
  747HK4     C962697   0.926   9.621  10.646 -0.0479 -0.3166 -0.0385
  747HK4     C862698   0.966   9.657  10.777 -0.2462  0.4349 -0.1898
  747HK4    C1162699   0.908   9.600  10.890  0.0574  0.2207 -0.1431
  747HK4     H462700   0.934   9.636  10.991 -0.5789 -0.2274  0.1811
  747HK4    C1262701   0.811   9.502  10.871  0.1630  0.0932 -0.0183
  747HK4     H562702   0.740   9.481  10.952 -2.4943  1.4339 -1.9345
  747HK4    C1362703   0.771   9.469  10.742 -0.4448 -0.0210  0.1968
  747HK4     H662704   0.692   9.393  10.734 -1.1755  0.8260 -0.7257
  747HK4     C762705   1.085   9.743  10.796  0.1811 -0.2313  0.1353
  747HK4     O262706   1.113   9.789  10.907 -0.5217 -0.3492  0.3641
  747HK4     C462707   1.159   9.785  10.676 -0.0773  0.3910  0.1885
  747HK4     C362708   1.283   9.847  10.691  0.3841 -0.2922 -0.7443
  747HK4     H362709   1.320   9.876  10.790 -1.3891  1.5647 -0.6060
  747HK4     C262710   1.364   9.877  10.582  0.7240  0.1147 -0.3822
  747HK4     H262711   1.464   9.921  10.597  1.5695 -1.3766 -1.4748
  747HK4     C162712   1.320   9.839  10.456 -0.2600  0.4839 -0.1487
  747HK4     H162713   1.399   9.829  10.381 -0.1813 -0.2811  0.0262
  747HK4     C662714   1.196   9.775  10.432 -0.1755  0.2396  0.0648
  747HK4     C562715   1.112   9.765  10.544  0.2292 -0.9328  0.2717
  747HK4    C1062716   0.977   9.704  10.534 -0.0897 -0.1959  0.0311
  747HK4     O162717   0.886   9.748  10.463 -0.3130 -0.0715  0.3940
  747HK4    C1662718   1.180   9.691  10.313 -0.0734 -0.3185  0.4401
  747HK4    C1562719   1.292   9.623  10.259 -0.0252  0.3535 -0.3117
  747HK4     H762720   1.379   9.600  10.322 -0.7602 -2.5343 -0.3002
  747HK4    C2062721   1.297   9.578  10.128  0.0795  0.1055 -0.2216
  747HK4     H962722   1.385   9.528  10.086 -0.9925 -1.3368 -0.7827
  747HK4    C1962723   1.189   9.601  10.044  0.0001  0.1852 -0.0968
  747HK4    C1862724   1.080   9.684  10.092 -0.3628 -0.4019  0.0977
  747HK4    C1762725   1.076   9.721  10.226  0.1474 -0.4564  0.1287
  747HK4     H862726   0.988   9.778  10.257 -1.3970 -1.7704 -1.7053
  747HK4     N162727   0.974   9.674  10.000 -0.6865 -0.0487  0.4293
  747HK4    C2162728   1.016   9.596   9.890  0.2178  0.1781  0.6155
  747HK4    C2262729   1.146   9.540   9.920 -0.0488 -0.6104  0.3073
  747HK4    C2662730   1.208   9.443   9.842  0.0259 -0.6908  0.4634
  747HK4    H1362731   1.290   9.389   9.890  0.6050  0.2173  0.5066
  747HK4    C2562732   1.159   9.426   9.713  0.2076  0.0350  0.2954
  747HK4    H1262733   1.206   9.352   9.648 -2.3372 -1.8990  0.5612
  747HK4    C2462734   1.037   9.482   9.678 -0.0698 -0.4227  0.5222
  747HK4    H1162735   0.992   9.483   9.578  0.8645  0.3140  0.0989
  747HK4    C2362736   0.966   9.564   9.765  0.5558  0.1672  0.4804
  747HK4    H1062737   0.875   9.616   9.731  0.9980  0.7512  0.1793
  747HK4    C3962738   0.864   9.761   9.992  0.0833  0.8757 -0.2633
  747HK4    C4162739   0.863   9.886  10.057 -0.4477  0.6316  0.2133
  747HK4    H2162740   0.958   9.935  10.084 -0.4796  0.6919  0.2124
  747HK4    C4262741   0.743   9.950  10.085 -0.6447  0.7062 -0.7723
  747HK4    H2262742   0.746  10.059  10.099 -0.6181  0.3003  2.8991
  747HK4    C4362743   0.620   9.892  10.060 -0.3189 -0.6075  0.5769
  747HK4    H2362744   0.531   9.936  10.105  0.6007  2.2062 -0.2443
  747HK4    C4462745   0.617   9.765  10.003  0.3613 -0.3009 -0.1301
  747HK4    H2462746   0.524   9.716   9.972 -0.2646  1.6818 -1.5029
  747HK4    C4562747   0.737   9.705   9.965  0.4892 -0.3893  0.4193
  747HK4    H2562748   0.737   9.605   9.920 -0.1555  0.8868 -2.5384
  748HK4    H2862749   6.691  10.054   9.701 -0.7863 -0.3245  0.2018
  748HK4    C4862750   6.597  10.033   9.649 -0.5706 -0.1549 -0.2682
  748HK4    C4762751   6.599  10.015   9.512  0.3907 -0.2064 -0.2493
  748HK4    H2762752   6.674  10.063   9.447 -0.5414  0.4159 -0.8889
  748HK4    C4662753   6.489   9.959   9.448  0.1008  0.0648  0.0061
  748HK4    H2662754   6.484   9.946   9.339  0.9632  2.4072 -0.3450
  748HK4    C4062755   6.371   9.931   9.520  0.3450 -0.2852  0.2635
  748HK4    C5062756   6.374   9.943   9.661 -0.3597 -0.1559  0.2665
  748HK4    H3062757   6.296   9.903   9.727  1.5578 -3.1189  0.8120
  748HK4    C4962758   6.485   9.997   9.724 -0.6565  0.7346  0.0427
  748HK4    H2962759   6.492  10.000   9.834 -2.1684  0.8528  0.1430
  748HK4     N262760   6.260   9.868   9.464  0.2376  0.0534  0.0961
  748HK4    C3062761   6.265   9.779   9.354 -0.3285  0.6200 -0.3894
  748HK4    C2962762   6.376   9.714   9.301 -0.5517  0.0152 -0.1152
  748HK4    H1562763   6.473   9.722   9.349 -2.8052 -0.2159  4.7859
  748HK4    C2862764   6.360   9.639   9.185  0.1944  0.2053 -0.3441
  748HK4    C2762765   6.232   9.635   9.126 -0.0868 -0.2849  0.2994
  748HK4    H1462766   6.219   9.574   9.036  0.6616 -2.6919  1.8002
  748HK4    C3262767   6.118   9.690   9.185 -0.1284 -0.0701  0.0178
  748HK4    H1662768   6.020   9.667   9.143 -0.1485  0.3195 -0.1558
  748HK4    C3162769   6.130   9.757   9.306 -0.3858 -0.4345  0.2463
  748HK4    C3462770   6.039   9.830   9.392  0.0894 -0.1197  0.4867
  748HK4    C3362771   6.124   9.895   9.489  0.2592  0.0516  0.2184
  748HK4    C3562772   6.065   9.986   9.576 -0.5609 -0.9864  0.7581
  748HK4    H1762773   6.119  10.022   9.664 -1.2710 -2.0269  1.6377
  748HK4    C3662774   5.931  10.022   9.564 -0.1784  0.2273  0.0856
  748HK4    H1862775   5.896  10.108   9.623 -1.1765 -1.4480  1.9917
  748HK4    C3762776   5.858   9.957   9.466 -0.0694  0.1381  0.0618
  748HK4    H1962777   5.754   9.985   9.448 -1.1065 -4.1762 -1.2118
  748HK4    C3862778   5.903   9.859   9.379  0.2479  0.3998 -0.0682
  748HK4    H2062779   5.840   9.813   9.303 -0.9943  1.4083  0.3405
  748HK4    C1462780   6.478   9.580   9.120  0.5166  0.4294  0.0416
  748HK4     C962781   6.475   9.552   8.983 -0.4396  0.0442  0.1367
  748HK4     C862782   6.526   9.433   8.928  0.1484  0.2345  0.2703
  748HK4    C1162783   6.587   9.340   9.012 -0.1678  0.0390  0.2881
  748HK4     H462784   6.619   9.240   8.978  0.0433 -0.5346  2.1273
  748HK4    C1262785   6.612   9.379   9.143  0.4328 -0.0130  0.1898
  748HK4     H562786   6.690   9.328   9.201  1.9738 -0.5486 -2.2537
  748HK4    C1362787   6.552   9.490   9.200  0.0913 -0.0479 -0.1010
  748HK4     H662788   6.550   9.504   9.309  0.7101 -0.9827  0.0283
  748HK4     C762789   6.530   9.406   8.783  0.1070 -0.4085  0.3882
  748HK4     O262790   6.579   9.303   8.737 -0.1941 -0.5407  0.3601
  748HK4     C462791   6.471   9.503   8.688  0.2090 -0.4463  0.2852
  748HK4     C362792   6.462   9.468   8.554 -0.2658 -0.0050  0.2032
  748HK4     H362793   6.497   9.375   8.508  0.7317 -0.1029  1.1341
  748HK4     C262794   6.395   9.558   8.471  0.4379  0.4070  0.0762
  748HK4     H262795   6.369   9.523   8.370 -3.8092  0.4354  1.0696
  748HK4     C162796   6.341   9.679   8.514 -0.3563  0.1711 -0.2686
  748HK4     H162797   6.286   9.739   8.440  1.3532  1.5475 -0.4530
  748HK4     C662798   6.346   9.707   8.652 -0.5042 -0.8126 -0.0565
  748HK4     C562799   6.414   9.622   8.740 -0.0127 -0.4044 -0.0426
  748HK4    C1062800   6.424   9.652   8.885 -0.3242 -0.1103 -0.0822
  748HK4     O162801   6.442   9.769   8.919 -0.6361 -0.1911  0.3680
  748HK4    C1662802   6.252   9.811   8.697  0.2260 -0.1235 -0.1150
  748HK4    C1562803   6.165   9.777   8.803  0.2875  0.9672  0.2881
  748HK4     H762804   6.149   9.672   8.832 -1.6091  0.6691 -1.7221
  748HK4    C2062805   6.098   9.871   8.880 -0.6002  0.2346  0.4176
  748HK4     H962806   6.027   9.853   8.961  0.8832  1.1114  1.9448
  748HK4    C1962807   6.117  10.005   8.848  0.0330  0.0980  0.1854
  748HK4    C1862808   6.203  10.046   8.739  0.2657 -0.7441  0.0529
  748HK4    C1762809   6.269   9.946   8.669  0.3968 -0.2344 -0.5489
  748HK4     H862810   6.332   9.982   8.588  0.8015 -1.5046 -0.8124
  748HK4     N162811   6.176  10.173   8.687  0.3408 -0.5134  0.5692
  748HK4    C2162812   6.065  10.222   8.759  0.2599  0.3668 -0.1409
  748HK4    C2262813   6.028  10.120   8.855  0.3125  0.3308 -0.1614
  748HK4    C2662814   5.908  10.133   8.924  0.6079  0.0542  0.4096
  748HK4    H1362815   5.883  10.057   8.997 -1.6690  0.0723 -0.3177
  748HK4    C2562816   5.831  10.246   8.899  0.0525 -0.4326 -0.0793
  748HK4    H1262817   5.732  10.257   8.942  0.5731 -0.4806  1.1571
  748HK4    C2462818   5.867  10.346   8.809 -0.5513 -0.9294 -0.8832
  748HK4    H1162819   5.800  10.429   8.782  0.4368  0.3927  0.6103
  748HK4    C2362820   5.986  10.335   8.738  0.0140  0.1970 -0.1369
  748HK4    H1062821   6.026  10.410   8.671  3.3473 -1.6058 -0.3216
  748HK4    C3962822   6.272  10.252   8.622 -0.3290  0.0226  0.2276
  748HK4    C4162823   6.231  10.353   8.532  0.1163 -0.1342 -0.1510
  748HK4    H2162824   6.131  10.357   8.485  0.0214 -0.4434  0.0219
  748HK4    C4262825   6.325  10.440   8.477  0.2030 -0.3654 -0.3704
  748HK4    H2262826   6.291  10.511   8.400  0.4076 -0.3146 -0.4152
  748HK4    C4362827   6.460  10.427   8.506  0.2000  0.5142  0.0519
  748HK4    H2362828   6.531  10.485   8.446  0.7336  2.7786  2.7833
  748HK4    C4462829   6.503  10.326   8.592  0.3998 -0.3080 -0.9902
  748HK4    H2462830   6.608  10.326   8.625 -0.0295 -1.3316  0.4076
  748HK4    C4562831   6.409  10.245   8.654 -0.0198  0.1483 -1.0331
  748HK4    H2562832   6.445  10.163   8.718 -1.8051  0.1724  0.0264
  749HK4    H2862833   9.663   6.151   8.382 -1.5768 -0.5323  0.5363
  749HK4    C4862834   9.702   6.115   8.287  0.0326  1.1401  0.5377
  749HK4    C4762835   9.806   6.023   8.292 -0.8445  0.1012 -0.0956
  749HK4    H2762836   9.844   5.983   8.387 -0.8110  1.6250  0.5404
  749HK4    C4662837   9.862   5.963   8.180 -0.7149 -0.4925  0.2867
  749HK4    H2662838   9.958   5.910   8.185 -0.6610 -0.3529  0.7056
  749HK4    C4062839   9.803   5.994   8.055  0.0585 -0.2721 -0.0267
  749HK4    C5062840   9.693   6.082   8.048  0.1599 -0.1141  0.3131
  749HK4    H3062841   9.653   6.102   7.947 -0.7882 -0.6838  0.5735
  749HK4    C4962842   9.644   6.141   8.164 -0.1671 -0.3737  0.3056
  749HK4    H2962843   9.553   6.202   8.155 -0.7856 -1.1553  1.1749
  749HK4     N262844   9.873   5.986   7.934  0.1017 -0.7534  0.0308
  749HK4    C3062845  10.012   6.000   7.924 -0.0088  0.1849 -0.1918
  749HK4    C2962846  10.106   6.074   7.996 -0.0200 -0.3206  0.3482
  749HK4    H1562847  10.077   6.169   8.042 -2.0539 -1.4805  1.5566
  749HK4    C2862848  10.241   6.043   7.997  0.1654  0.4274 -0.5697
  749HK4    C2762849  10.287   5.945   7.907  0.0508 -0.1634  0.0140
  749HK4    H1462850  10.382   5.895   7.932 -0.8057 -1.2219  1.2391
  749HK4    C3262851  10.204   5.889   7.810 -0.0254  0.0578 -0.0459
  749HK4    H1662852  10.247   5.840   7.723  0.2208 -0.8871  0.6031
  749HK4    C3162853  10.068   5.916   7.820  0.0202  0.4125 -0.3597
  749HK4    C3462854   9.955   5.862   7.748 -0.0727 -0.4048  0.3853
  749HK4    C3362855   9.840   5.898   7.829 -0.4155 -0.4094 -0.0963
  749HK4    C3562856   9.716   5.871   7.772 -0.4456 -0.3376 -0.0678
  749HK4    H1762857   9.629   5.904   7.830 -0.5257 -0.1782 -0.2783
  749HK4    C3662858   9.708   5.822   7.642 -0.3891  0.1658 -0.2611
  749HK4    H1862859   9.606   5.805   7.604 -0.8960  0.4278  0.9371
  749HK4    C3762860   9.823   5.784   7.574 -0.3734 -0.4006  0.0793
  749HK4    H1962861   9.820   5.749   7.470 -0.1664 -0.4924  0.1042
  749HK4    C3862862   9.952   5.798   7.624 -0.4520  0.0811  0.1430
  749HK4    H2062863  10.037   5.814   7.559  0.5522 -1.4550  1.0659
  749HK4    C1462864  10.341   6.127   8.064  0.3184 -0.3322  0.1483
  749HK4     C962865  10.474   6.125   8.018  0.2193  0.1224 -0.1593
  749HK4     C862866  10.578   6.117   8.112  0.0546  0.1711  0.0265
  749HK4    C1162867  10.540   6.117   8.246 -0.5243  0.4514 -0.1358
  749HK4     H462868  10.612   6.074   8.318  0.0675  0.7058 -0.5703
  749HK4    C1262869  10.412   6.142   8.294 -0.3838  0.1135  0.4116
  749HK4     H562870  10.398   6.151   8.403  0.3770 -3.8401  0.9093
  749HK4    C1362871  10.310   6.147   8.200 -0.0564 -0.1621  0.0384
  749HK4     H662872  10.221   6.209   8.216  0.8058  0.7983  1.1996
  749HK4     C762873  10.720   6.106   8.072 -0.0575 -0.3953 -0.2257
  749HK4     O262874  10.797   6.057   8.154 -0.0119  0.4908  0.2728
  749HK4     C462875  10.757   6.111   7.929  0.2892 -0.0518 -0.1273
  749HK4     C362876  10.890   6.104   7.888  0.5142 -0.6927  0.6867
  749HK4     H362877  10.972   6.128   7.957  0.5433 -1.0261  0.7698
  749HK4     C262878  10.922   6.065   7.758 -0.1293 -0.0903  0.3407
  749HK4     H262879  11.028   6.077   7.732  0.3315 -2.1660  1.0985
  749HK4     C162880  10.820   6.039   7.667  0.1503 -0.2104  0.0675
  749HK4     H162881  10.841   6.031   7.559  0.0078 -0.7915  0.0797
  749HK4     C662882  10.684   6.050   7.701  0.2039 -0.0355  0.2381
  749HK4     C562883  10.657   6.096   7.831  0.0456  0.4069  0.0485
  749HK4    C1062884  10.519   6.128   7.876 -0.2276 -0.2454 -0.3120
  749HK4     O162885  10.449   6.204   7.808 -0.6412 -0.4138 -0.0779
  749HK4    C1662886  10.591   5.970   7.620  0.1779  0.3708 -0.1344
  749HK4    C1562887  10.628   5.838   7.586 -0.5091  0.1240  0.0695
  749HK4     H762888  10.730   5.811   7.616 -0.8403  0.6500  1.7363
  749HK4    C2062889  10.546   5.750   7.517  0.4100 -0.3843 -0.3756
  749HK4     H962890  10.559   5.642   7.528  2.2119 -0.0011  1.4789
  749HK4    C1962891  10.431   5.805   7.464  0.3943  0.1072  0.1671
  749HK4    C1862892  10.397   5.946   7.475  0.2952  0.1088 -0.1489
  749HK4    C1762893  10.478   6.022   7.559  0.1127  0.2590 -0.1099
  749HK4     H862894  10.475   6.130   7.546  0.8600  0.5450  2.0047
  749HK4     N162895  10.288   5.984   7.393  0.2355  0.2156 -0.0204
  749HK4    C2162896  10.248   5.864   7.330  0.8087 -0.0868  0.1789
  749HK4    C2262897  10.328   5.753   7.376  0.1473 -0.3479  0.7216
  749HK4    C2662898  10.300   5.624   7.331  0.2810 -0.1690  0.1192
  749HK4    H1362899  10.364   5.537   7.346 -3.4360 -2.8633  1.1920
  749HK4    C2562900  10.197   5.611   7.239  0.1286  0.3077  0.2135
  749HK4    H1262901  10.185   5.514   7.189  1.1710  0.9233 -1.2607
  749HK4    C2462902  10.116   5.716   7.198 -0.4160 -0.1796  0.0334
  749HK4    H1162903  10.036   5.700   7.124 -1.4549 -0.2150  1.1345
  749HK4    C2362904  10.139   5.845   7.245  0.8715 -0.4651  0.1853
  749HK4    H1062905  10.109   5.927   7.181 -1.3218 -1.0031  0.4925
  749HK4    C3962906  10.215   6.102   7.404  0.0981  0.1270  0.0125
  749HK4    C4162907  10.159   6.176   7.297 -0.2653 -0.3513 -0.1295
  749HK4    H2162908  10.202   6.159   7.197  0.4865  0.6903  0.0125
  749HK4    C4262909  10.047   6.258   7.308  0.0526  0.0402  0.2528
  749HK4    H2262910   9.995   6.281   7.213  0.7239  0.0057 -0.1280
  749HK4    C4362911   9.994   6.272   7.435 -0.3441 -0.7914  0.1859
  749HK4    H2362912   9.895   6.317   7.446  0.1560  0.6440 -1.0316
  749HK4    C4462913  10.040   6.198   7.543  0.1468 -0.8115 -0.0367
  749HK4    H2462914   9.972   6.191   7.630  0.4679 -1.2661  0.1818
  749HK4    C4562915  10.151   6.117   7.529  0.7058 -0.1257  0.3522
  749HK4    H2562916  10.207   6.090   7.620  0.1451 -1.5502  0.3013
  750HK4    H2862917   4.252   1.497   7.052  0.4159  0.4351 -0.4523
  750HK4    C4862918   4.321   1.413   7.061  0.1815  0.3025  0.1719
  750HK4    C4762919   4.399   1.383   6.950 -0.0334 -0.2010  0.1556
  750HK4    H2762920   4.378   1.439   6.858 -1.9481 -0.1903  0.5802
  750HK4    C4662921   4.499   1.286   6.958  0.2588  0.1053  0.1827
  750HK4    H2662922   4.582   1.288   6.886  1.4881  0.4743  1.5934
  750HK4    C4062923   4.520   1.211   7.075  0.1118  0.1909  0.2647
  750HK4    C5062924   4.430   1.233   7.182 -0.2560 -0.3049  0.0618
  750HK4    H3062925   4.461   1.193   7.280  0.8677  1.4780  0.4613
  750HK4    C4962926   4.336   1.335   7.175 -0.5209 -0.5793 -0.3373
  750HK4    H2962927   4.268   1.348   7.260  3.5577  2.9691  2.5274
  750HK4     N262928   4.607   1.101   7.082  0.1262  0.1577 -0.4446
  750HK4    C3062929   4.635   1.013   6.976  0.0702 -0.4075  0.0134
  750HK4    C2962930   4.553   0.968   6.873  0.0648 -0.1752 -0.0825
  750HK4    H1562931   4.447   0.996   6.872 -0.8976 -3.5285  1.6685
  750HK4    C2862932   4.606   0.882   6.778  0.3525  0.5134 -0.5520
  750HK4    C2762933   4.742   0.846   6.777  0.2394  0.0352  0.2281
  750HK4    H1462934   4.776   0.797   6.685  0.5138  0.2988  0.1874
  750HK4    C3262935   4.823   0.882   6.885  0.0593  0.3271  0.2633
  750HK4    H1662936   4.918   0.831   6.901  1.0536  0.4457 -4.4147
  750HK4    C3162937   4.771   0.962   6.986  0.4540  0.6483  0.2126
  750HK4    C3462938   4.821   1.019   7.110  0.4893  0.2788  0.3682
  750HK4    C3362939   4.713   1.091   7.174 -0.2094 -0.3377 -0.1133
  750HK4    C3562940   4.736   1.134   7.304  0.3669 -0.2936 -0.2326
  750HK4    H1762941   4.658   1.194   7.349  1.3701  0.6805  0.2439
  750HK4    C3662942   4.857   1.115   7.370  0.2260  0.2053  0.1705
  750HK4    H1862943   4.878   1.179   7.457  2.5724  0.7615 -0.7734
  750HK4    C3762944   4.951   1.031   7.313 -0.3780 -0.3665  0.0173
  750HK4    H1962945   5.047   1.014   7.362  0.6442 -1.5167 -2.3064
  750HK4    C3862946   4.938   0.990   7.180  0.6617 -0.2551 -0.1297
  750HK4    H2062947   5.028   0.952   7.132  1.6366  2.3179 -0.4292
  750HK4    C1462948   4.509   0.810   6.695  0.1893  0.0598  0.0296
  750HK4     C962949   4.533   0.680   6.647  0.5222  0.2023 -0.1970
  750HK4     C862950   4.482   0.644   6.520  0.4909  0.0467 -0.1412
  750HK4    C1162951   4.410   0.734   6.442  0.0112 -0.1980  0.0175
  750HK4     H462952   4.380   0.713   6.338  2.9507  2.3684 -1.4308
  750HK4    C1262953   4.372   0.855   6.500 -0.0156 -0.4904  0.6110
  750HK4     H562954   4.284   0.907   6.460  1.2430 -1.3774 -3.5198
  750HK4    C1362955   4.418   0.892   6.626  0.4544  0.4646  0.1621
  750HK4     H662956   4.399   0.997   6.654  1.6887  0.3897  1.3309
  750HK4     C762957   4.521   0.516   6.458  0.3474  0.0984 -0.3363
  750HK4     O262958   4.442   0.468   6.376  0.1190 -0.4671  0.2117
  750HK4     C462959   4.637   0.442   6.512  0.1061  0.0830  0.1700
  750HK4     C362960   4.701   0.351   6.428  0.5108  0.7238 -0.2228
  750HK4     H362961   4.655   0.323   6.332 -0.4138  0.9858  0.1390
  750HK4     C262962   4.823   0.292   6.461 -0.1120 -0.4406  0.0432
  750HK4     H262963   4.879   0.234   6.386  2.0487  1.8473 -0.1857
  750HK4     C162964   4.880   0.324   6.584 -0.1759  0.2457 -0.1006
  750HK4     H162965   4.976   0.277   6.609 -0.6146  0.5130  2.1628
  750HK4     C662966   4.814   0.412   6.672  0.0125  0.0580  0.2320
  750HK4     C562967   4.692   0.472   6.638 -0.1416 -0.1934  0.3447
  750HK4    C1062968   4.627   0.584   6.711  0.4702  0.3342  0.0787
  750HK4     O162969   4.609   0.568   6.831 -0.3029  0.1567 -0.0599
  750HK4    C1662970   4.915   0.482   6.753  0.1331 -0.2494  0.3472
  750HK4    C1562971   5.037   0.537   6.710 -0.1825  0.0383 -0.1963
  750HK4     H762972   5.061   0.558   6.605 -0.7681 -0.4925 -0.4421
  750HK4    C2062973   5.127   0.590   6.802 -0.3775 -0.0430  0.0396
  750HK4     H962974   5.220   0.635   6.769 -0.2218 -1.6117 -1.7146
  750HK4    C1962975   5.101   0.601   6.939  0.4865 -0.2557  0.2234
  750HK4    C1862976   4.972   0.552   6.982  0.3384  0.2218  0.3320
  750HK4    C1762977   4.888   0.492   6.889  0.5141 -0.1541  0.4178
  750HK4     H862978   4.801   0.441   6.932  1.1895 -0.6741  1.1935
  750HK4     N162979   4.953   0.588   7.117 -0.1412 -0.0096  0.3307
  750HK4    C2162980   5.071   0.654   7.160 -0.2035  0.1854  0.2030
  750HK4    C2262981   5.164   0.670   7.050  0.2383 -0.4526  0.4850
  750HK4    C2662982   5.277   0.750   7.063 -0.2067  0.3307 -0.3889
  750HK4    H1362983   5.338   0.755   6.972 -0.4281  0.9597 -0.5025
  750HK4    C2562984   5.297   0.817   7.183 -0.2212 -0.1678 -0.1053
  750HK4    H1262985   5.392   0.867   7.201 -0.2329 -0.8770  2.0316
  750HK4    C2462986   5.208   0.795   7.287  0.0110 -0.7183 -0.0209
  750HK4    H1162987   5.221   0.859   7.376  2.6944  0.8565 -1.4738
  750HK4    C2362988   5.091   0.720   7.281 -0.3886 -0.1428  0.4150
  750HK4    H1062989   5.024   0.706   7.365  1.2023 -1.0103  1.5697
  750HK4    C3962990   4.860   0.528   7.202 -0.1543 -0.3156  0.0984
  750HK4    C4162991   4.787   0.601   7.299 -0.1080  0.4744 -0.4536
  750HK4    H2162992   4.785   0.710   7.287  0.1742  0.5756  0.3908
  750HK4    C4262993   4.691   0.547   7.384 -0.1779 -0.1398 -0.9187
  750HK4    H2262994   4.659   0.605   7.471 -0.9010 -1.5596 -0.2180
  750HK4    C4362995   4.664   0.411   7.374  0.1091 -0.2796  0.1231
  750HK4    H2362996   4.594   0.366   7.444 -2.8622  2.9765 -0.6456
  750HK4    C4462997   4.739   0.336   7.284 -0.2504 -0.3278 -0.1388
  750HK4    H2462998   4.727   0.227   7.274 -0.7212 -0.2446 -0.5264
  750HK4    C4562999   4.839   0.389   7.203 -0.0598 -0.3301  0.0918
  750HK4    H2563000   4.902   0.324   7.140 -1.8876  0.2362 -2.4157
  751HK4    H2863001   2.355   8.344   0.654  1.4399 -1.9958  0.4495
  751HK4    C4863002   2.328   8.336   0.548  0.6598 -0.1958  0.4993
  751HK4    C4763003   2.375   8.422   0.449  0.4806 -0.6453  0.0231
  751HK4    H2763004   2.447   8.496   0.487 -1.2999  0.0744  2.1643
  751HK4    C4663005   2.355   8.403   0.313 -0.1347  0.2751 -0.0212
  751HK4    H2663006   2.421   8.459   0.246  0.3766 -0.0984  0.1662
  751HK4    C4063007   2.275   8.297   0.267 -0.2867  0.3192  0.1410
  751HK4    C5063008   2.218   8.215   0.367  0.8642 -0.1927  0.3843
  751HK4    H3063009   2.152   8.135   0.331  0.2221  0.4758  0.0534
  751HK4    C4963010   2.248   8.233   0.501  0.1277  0.2167  0.4955
  751HK4    H2963011   2.200   8.163   0.571 -2.5279  1.1306 -0.3676
  751HK4     N263012   2.305   8.239   0.143 -0.4203 -0.1567  0.3288
  751HK4    C3063013   2.431   8.225   0.081 -0.4761 -0.3713  0.2618
  751HK4    C2963014   2.554   8.201   0.143 -0.1102 -0.1263 -0.3661
  751HK4    H1563015   2.562   8.222   0.249 -0.4380 -0.5485 -0.2571
  751HK4    C2863016   2.665   8.148   0.079  0.1675  0.1370 -0.1078
  751HK4    C2763017   2.654   8.126  11.188  0.5543 -0.0722 -0.1073
  751HK4    H1463018   2.742   8.077  11.142  1.1558 -1.7476  2.7148
  751HK4    C3263019   2.542   8.164  11.115  0.0730 -0.8032  0.2517
  751HK4    H1663020   2.554   8.168  11.007  0.4729  1.0064  0.3390
  751HK4    C3163021   2.429   8.203  11.186  0.3074 -0.0016  0.1896
  751HK4    C3463022   2.288   8.207  11.154  0.4152  0.8162 -0.1826
  751HK4    C3363023   2.219   8.223   0.033  0.2117  0.1416 -0.2109
  751HK4    C3563024   2.080   8.224   0.031  0.2173  0.0445 -0.6650
  751HK4    H1763025   2.023   8.226   0.124  0.8979  0.6641 -0.2555
  751HK4    C3663026   2.021   8.216  11.153  0.0457 -0.6059 -0.5437
  751HK4    H1863027   1.912   8.225  11.162 -0.0775 -2.6136  0.4320
  751HK4    C3763028   2.084   8.197  11.031  0.3965  0.0092 -0.4546
  751HK4    H1963029   2.039   8.171  10.935 -1.3088 -4.2077  1.4115
  751HK4    C3863030   2.222   8.186  11.033  0.3468 -0.4786  0.0766
  751HK4    H2063031   2.281   8.199  10.942  1.4103  0.4746  0.8816
  751HK4    C1463032   2.797   8.138   0.142  0.2152  0.0036 -0.2287
  751HK4     C963033   2.923   8.171   0.090  0.3958 -0.5601 -0.1573
  751HK4     C863034   3.043   8.112   0.133  0.1138 -0.6981  0.4480
  751HK4    C1163035   3.038   8.038   0.251  0.1561  0.1118  0.9620
  751HK4     H463036   3.126   7.983   0.288 -1.6428 -2.0907  2.0785
  751HK4    C1263037   2.916   8.012   0.313 -0.1419 -0.2391  0.2348
  751HK4     H563038   2.917   7.942   0.397 -1.2921 -0.0118  0.4439
  751HK4    C1363039   2.797   8.053   0.255  0.1553  0.2316 -0.0535
  751HK4     H663040   2.703   7.998   0.272  0.4615 -0.8424 -1.6349
  751HK4     C763041   3.170   8.111   0.058 -0.0413 -0.2317  0.1778
  751HK4     O263042   3.257   8.025   0.078 -0.2168 -0.6189 -0.6850
  751HK4     C463043   3.176   8.200  11.188  0.1201 -0.2216  0.1907
  751HK4     C363044   3.298   8.213  11.123  0.0662 -0.2164  0.0904
  751HK4     H363045   3.384   8.149  11.146 -0.5711 -1.1907 -0.2068
  751HK4     C263046   3.304   8.293  11.010 -0.4465 -0.1196  0.1310
  751HK4     H263047   3.396   8.318  10.955 -2.0434  1.1265 -2.1043
  751HK4     C163048   3.193   8.353  10.951 -0.1582  0.3862  0.0902
  751HK4     H163049   3.191   8.402  10.853 -2.5291  3.7065  1.6932
  751HK4     C663050   3.068   8.333  11.015 -0.0336 -0.5820  0.0499
  751HK4     C563051   3.062   8.268  11.139  0.0857 -0.2543  0.2277
  751HK4    C1063052   2.939   8.263  11.222 -0.1024 -0.3431 -0.0557
  751HK4     O163053   2.875   8.367  11.235  0.3627 -0.0849  0.1890
  751HK4    C1663054   2.958   8.398  10.943  0.7629 -0.2338 -0.8733
  751HK4    C1563055   2.832   8.338  10.918  0.4882  0.3859 -0.9833
  751HK4     H763056   2.816   8.241  10.967 -3.2906  1.7774  0.7504
  751HK4    C2063057   2.721   8.408  10.874 -0.0044 -0.0652 -0.4577
  751HK4     H963058   2.627   8.354  10.863 -1.0389  1.4002  0.8247
  751HK4    C1963059   2.739   8.542  10.842 -0.2868  0.2522  0.6778
  751HK4    C1863060   2.864   8.610  10.872 -0.0386  0.2437 -0.3015
  751HK4    C1763061   2.972   8.533  10.914 -0.3728  0.1703  0.4321
  751HK4     H863062   3.060   8.585  10.953  1.1373 -0.1895 -2.3717
  751HK4     N163063   2.865   8.750  10.855 -0.1267  0.3347  0.4332
  751HK4    C2163064   2.743   8.767  10.787 -0.0382 -0.8442 -0.0383
  751HK4    C2263065   2.661   8.648  10.779 -0.7134 -0.3940  0.1121
  751HK4    C2663066   2.544   8.643  10.705 -0.2975 -0.4446 -0.5467
  751HK4    H1363067   2.475   8.561  10.725 -0.9698  0.6380  1.7826
  751HK4    C2563068   2.497   8.754  10.636  0.0348  0.0477  0.0221
  751HK4    H1263069   2.420   8.742  10.561 -1.7431  2.0881  1.4379
  751HK4    C2463070   2.568   8.873  10.652  0.2823 -0.1650  0.5029
  751HK4    H1163071   2.536   8.965  10.602  1.0516 -1.0155 -1.6233
  751HK4    C2363072   2.689   8.877  10.722  0.2851 -0.3529  0.5085
  751HK4    H1063073   2.733   8.975  10.738 -0.0795 -0.0343 -0.3687
  751HK4    C3963074   2.925   8.831  10.953  0.1445  0.3699  0.2378
  751HK4    C4163075   2.960   8.964  10.924  0.0910  0.2330 -0.4900
  751HK4    H2163076   2.979   8.989  10.819  1.3957  2.0250  0.1338
  751HK4    C4263077   2.992   9.063  11.017  0.8989 -0.4100 -0.0809
  751HK4    H2263078   3.014   9.161  10.973  0.6594 -0.7265 -0.9183
  751HK4    C4363079   2.991   9.023  11.151  0.2978  0.1723  0.0930
  751HK4    H2363080   3.032   9.089  11.227  0.9054 -0.4273  0.2948
  751HK4    C4463081   2.952   8.894  11.185  0.1185  0.2100  0.0339
  751HK4    H2463082   2.945   8.869   0.044  1.7944  1.1640  0.3916
  751HK4    C4563083   2.920   8.798  11.090  0.3174  0.0189  0.1608
  751HK4    H2563084   2.876   8.707  11.134 -0.2313  0.5114  0.6434
  752HK4    H2863085  11.078   8.480   1.796 -1.4178 -0.4712  2.2969
  752HK4    C4863086  11.129   8.388   1.824  0.1134 -0.1616  0.6271
  752HK4    C4763087  11.062   8.266   1.821 -0.3650  0.1202 -0.4184
  752HK4    H2763088  10.952   8.268   1.817 -0.5020  1.3129  2.6525
  752HK4    C4663089  11.128   8.144   1.829 -0.1643  0.2492 -0.0745
  752HK4    H2663090  11.067   8.053   1.842 -0.9772  0.9050  0.7981
  752HK4    C4063091   0.020   8.139   1.847 -0.0879  0.1402 -0.7154
  752HK4    C5063092   0.082   8.265   1.854  0.0336  0.0335  0.1140
  752HK4    H3063093   0.189   8.275   1.875  0.3936  1.1051 -2.1211
  752HK4    C4963094   0.018   8.388   1.849  0.3026  0.1536 -0.3838
  752HK4    H2963095   0.077   8.479   1.869 -0.1341 -0.0275  1.8575
  752HK4     N263096   0.101   8.037   1.794  0.3258  0.0334  0.1121
  752HK4    C3063097   0.067   7.951   1.688 -0.3480  0.2971  0.1149
  752HK4    C2963098  11.216   7.960   1.590 -0.7723 -0.1532  0.4982
  752HK4    H1563099  11.145   8.043   1.594 -1.5389 -0.8141  0.8507
  752HK4    C2863100  11.197   7.853   1.504  0.3221  0.1524 -0.1300
  752HK4    C2763101   0.017   7.732   1.527  0.0113  0.0549  0.2746
  752HK4    H1463102   0.010   7.648   1.456 -0.9607  1.8457 -1.7957
  752HK4    C3263103   0.114   7.721   1.626 -0.1526  0.0919  0.4401
  752HK4    H1663104   0.181   7.635   1.627 -1.0614 -0.6021  1.5094
  752HK4    C3163105   0.148   7.832   1.702  0.1758  0.5857 -0.4107
  752HK4    C3463106   0.252   7.861   1.799  0.0130  0.0558 -0.0766
  752HK4    C3363107   0.207   7.981   1.867  0.0820 -0.1451  0.3267
  752HK4    C3563108   0.263   8.010   1.991  0.3100 -0.0266  0.1964
  752HK4    H1763109   0.234   8.094   2.055  2.7246  1.2139 -0.2699
  752HK4    C3663110   0.369   7.932   2.036  0.0076 -0.1020  0.7820
  752HK4    H1863111   0.425   7.973   2.121  1.4860 -2.7469  1.1193
  752HK4    C3763112   0.416   7.819   1.971  0.5607  0.5320  0.0799
  752HK4    H1963113   0.481   7.746   2.020  2.9185  2.2464 -0.3740
  752HK4    C3863114   0.356   7.784   1.850  0.3435  0.6545  0.1518
  752HK4    H2063115   0.399   7.701   1.794 -1.9668 -2.2654  2.5358
  752HK4    C1463116  11.090   7.854   1.403  0.2614 -0.3529 -0.0692
  752HK4     C963117  11.021   7.747   1.345  0.0603 -0.2068 -0.1036
  752HK4     C863118  10.971   7.757   1.214 -0.2516  0.5324  0.0689
  752HK4    C1163119  10.979   7.878   1.145 -0.0354  0.3836 -0.1699
  752HK4     H463120  10.938   7.892   1.044  1.7540 -0.0136 -0.9651
  752HK4    C1263121  11.039   7.989   1.202  0.1055  0.3710 -0.2950
  752HK4     H563122  11.067   8.078   1.144 -0.6655  2.1581  2.0265
  752HK4    C1363123  11.089   7.975   1.331 -0.1110 -0.4925 -0.3039
  752HK4     H663124  11.127   8.065   1.382 -0.2126 -0.8717  0.4557
  752HK4     C763125  10.941   7.630   1.143  0.0921  0.3451  0.2510
  752HK4     O263126  10.858   7.641   1.053  0.0386  0.4193  0.3086
  752HK4     C463127  10.978   7.502   1.206  0.0015  0.3751  0.3643
  752HK4     C363128  10.987   7.392   1.122 -0.0694  0.3624  0.3748
  752HK4     H363129  10.968   7.398   1.014 -0.9272  0.9974  0.5578
  752HK4     C263130  10.995   7.266   1.181 -0.6628  0.1688  0.0445
  752HK4     H263131  11.015   7.180   1.115  0.6149 -0.0241  0.6776
  752HK4     C163132  10.981   7.255   1.319 -0.4476 -0.2050  0.0376
  752HK4     H163133  10.941   7.158   1.352  0.3248 -0.5584 -0.0613
  752HK4     C663134  10.970   7.367   1.404  0.2554 -0.0458 -0.0818
  752HK4     C563135  10.973   7.494   1.347 -0.2874  0.1600  0.3447
  752HK4    C1063136  10.997   7.621   1.422  0.3845  0.0223  0.3711
  752HK4     O163137  10.955   7.630   1.537 -0.1888 -0.3547  0.1935
  752HK4    C1663138  10.977   7.336   1.548 -0.2042 -0.1207 -0.0762
  752HK4    C1563139  11.051   7.222   1.584  0.2065  0.2490  0.2584
  752HK4     H763140  11.143   7.212   1.523  0.0455 -1.7014  0.2949
  752HK4    C2063141  11.035   7.149   1.701  0.1383  0.0766  0.1410
  752HK4     H963142  11.103   7.069   1.729  1.0286  0.9161  0.3788
  752HK4    C1963143  10.931   7.183   1.787  0.1289  0.0512  0.1411
  752HK4    C1863144  10.854   7.301   1.755  0.0213 -0.1738 -0.4367
  752HK4    C1763145  10.874   7.369   1.636  0.1167  0.6242  0.0269
  752HK4     H863146  10.805   7.450   1.611 -2.3306 -1.0552  1.2089
  752HK4     N163147  10.738   7.296   1.835  0.2417  0.4172 -0.0680
  752HK4    C2163148  10.747   7.184   1.921 -0.4633  0.1647 -0.3159
  752HK4    C2263149  10.874   7.117   1.902 -0.4236  0.1716 -0.0655
  752HK4    C2663150  10.914   7.010   1.983 -0.4383  0.1655 -0.0649
  752HK4    H1363151  11.003   6.949   1.975 -1.3655 -1.0820 -1.1814
  752HK4    C2563152  10.829   6.976   2.088  0.0266 -0.3889  0.1317
  752HK4    H1263153  10.850   6.895   2.157  1.9536 -1.2702 -1.4445
  752HK4    C2463154  10.710   7.043   2.113  0.2531  0.0951 -0.0733
  752HK4    H1163155  10.646   7.012   2.198  0.2664 -0.0575 -0.1193
  752HK4    C2363156  10.669   7.146   2.030  0.3095  0.4597  0.3486
  752HK4    H1063157  10.569   7.183   2.051  0.1857 -0.6008  1.6516
  752HK4    C3963158  10.647   7.401   1.853 -0.0155  0.1859 -0.0115
  752HK4    C4163159  10.512   7.375   1.882  0.1283 -0.3639  0.1659
  752HK4    H2163160  10.481   7.273   1.908  2.4059 -1.1407 -0.0651
  752HK4    C4263161  10.414   7.474   1.883  0.2041 -0.2943  0.7340
  752HK4    H2263162  10.306   7.456   1.888  0.2325 -0.2777  1.5106
  752HK4    C4363163  10.461   7.604   1.865  0.9138 -0.6544 -0.0078
  752HK4    H2363164  10.389   7.686   1.867  2.7040  0.9524 -0.2035
  752HK4    C4463165  10.594   7.641   1.849  0.5626  0.5214 -0.2122
  752HK4    H2463166  10.625   7.747   1.842  2.9690 -0.2437 -1.7115
  752HK4    C4563167  10.684   7.536   1.839  0.1032  0.1306 -0.2535
  752HK4    H2563168  10.790   7.567   1.832 -0.7890  3.0541 -1.5364
  753HK4    H2863169   3.311   4.036   2.058  0.4692 -0.4647  0.1554
  753HK4    C4863170   3.370   4.120   2.020  0.1786 -0.3587 -0.0510
  753HK4    C4763171   3.340   4.252   2.052  0.9565 -0.2709  0.3334
  753HK4    H2763172   3.249   4.273   2.111 -0.6726 -0.4598 -2.0154
  753HK4    C4663173   3.407   4.359   1.994 -0.7946  0.4605 -0.3710
  753HK4    H2663174   3.370   4.461   2.011  0.7917  0.9321  0.3547
  753HK4    C4063175   3.511   4.340   1.901 -0.2320  0.1273  0.3291
  753HK4    C5063176   3.540   4.204   1.874  0.4969  0.2951  0.2505
  753HK4    H3063177   3.628   4.175   1.815 -0.1317 -0.8591 -0.1295
  753HK4    C4963178   3.471   4.096   1.928 -0.2435  0.2987 -0.6869
  753HK4    H2963179   3.494   3.991   1.903 -2.7000 -0.9011  1.8644
  753HK4     N263180   3.548   4.438   1.808 -0.1944 -0.4185 -0.2301
  753HK4    C3063181   3.489   4.562   1.775 -0.0152 -0.4163 -0.5498
  753HK4    C2963182   3.389   4.642   1.829  0.8437  0.3426 -0.0605
  753HK4    H1563183   3.308   4.592   1.883 -0.9294  1.6227 -1.4706
  753HK4    C2863184   3.360   4.775   1.803 -0.2321 -0.0056 -0.7009
  753HK4    C2763185   3.439   4.834   1.702  0.4393  0.1929 -0.0719
  753HK4    H1463186   3.428   4.941   1.677  0.0502  0.0658 -0.4608
  753HK4    C3263187   3.537   4.760   1.638  0.3762 -0.1230  0.1994
  753HK4    H1663188   3.583   4.810   1.553 -1.6224  0.8955 -0.3142
  753HK4    C3163189   3.570   4.630   1.677  0.5898 -0.0749  0.1775
  753HK4    C3463190   3.683   4.543   1.650  0.6435  0.0866 -0.1308
  753HK4    C3363191   3.672   4.431   1.741 -0.2735 -0.0560 -0.4141
  753HK4    C3563192   3.792   4.373   1.782 -0.1990  0.0238 -0.5166
  753HK4    H1763193   3.789   4.300   1.863  0.1533  1.2476  0.6212
  753HK4    C3663194   3.915   4.416   1.734 -0.0172  0.0072 -0.0713
  753HK4    H1863195   4.013   4.371   1.754  1.2782  2.1120 -1.4713
  753HK4    C3763196   3.920   4.522   1.645  0.2539  0.2329  0.2129
  753HK4    H1963197   4.016   4.554   1.603  1.2617 -2.8218  0.1124
  753HK4    C3863198   3.806   4.589   1.602  0.4919  0.3256 -0.2922
  753HK4    H2063199   3.806   4.633   1.503 -1.3291 -0.1647 -0.5366
  753HK4    C1463200   3.238   4.836   1.857 -0.4523 -0.6146 -0.5194
  753HK4     C963201   3.160   4.938   1.802  0.9848  0.6554 -0.2267
  753HK4     C863202   3.078   5.021   1.881 -0.1893 -0.2595 -0.4598
  753HK4    C1163203   3.073   4.992   2.017 -0.4942 -0.2670 -0.4707
  753HK4     H463204   3.007   5.056   2.077  0.5790  0.0680  0.3866
  753HK4    C1263205   3.144   4.892   2.083 -0.0096  0.0254 -0.5447
  753HK4     H563206   3.117   4.866   2.186  2.0047 -1.1960 -0.2958
  753HK4    C1363207   3.224   4.818   1.997  0.5501  0.3421 -0.2974
  753HK4     H663208   3.293   4.745   2.040  1.6242  1.3118 -0.3385
  753HK4     C763209   3.004   5.136   1.826 -0.3640 -0.0677  0.1683
  753HK4     O263210   2.913   5.192   1.887 -0.3992  0.2283 -0.1513
  753HK4     C463211   3.031   5.170   1.684  0.2628  0.4387  0.4056
  753HK4     C363212   2.979   5.287   1.630 -0.6972 -0.0787  0.1970
  753HK4     H363213   2.943   5.367   1.696 -1.5039 -0.7295  0.5555
  753HK4     C263214   3.006   5.323   1.499 -0.3327 -0.2863  0.2151
  753HK4     H263215   2.963   5.418   1.462 -1.1757 -0.0548  1.7717
  753HK4     C163216   3.102   5.250   1.430 -0.1486 -0.0056  0.1727
  753HK4     H163217   3.088   5.257   1.321  2.9711 -1.3152 -0.3714
  753HK4     C663218   3.169   5.140   1.486 -0.1847 -0.0091  0.2070
  753HK4     C563219   3.114   5.089   1.605 -0.3155  0.0624  0.1774
  753HK4    C1063220   3.158   4.955   1.654 -0.0866 -0.0401 -0.2986
  753HK4     O163221   3.134   4.863   1.577 -0.0545 -0.3055  0.0098
  753HK4    C1663222   3.309   5.117   1.447 -0.0624 -0.3725  0.8540
  753HK4    C1563223   3.376   5.235   1.411 -0.0970 -0.5271  0.2858
  753HK4     H763224   3.331   5.332   1.437  0.3034 -0.1944 -0.2322
  753HK4    C2063225   3.490   5.232   1.332 -0.3522 -0.5856 -0.0845
  753HK4     H963226   3.529   5.326   1.293 -0.2049 -0.4045  0.4915
  753HK4    C1963227   3.544   5.112   1.287  0.1864 -0.2797 -0.2631
  753HK4    C1863228   3.480   4.988   1.328  0.3533 -0.0591  0.6755
  753HK4    C1763229   3.367   4.997   1.408  0.1351 -0.1221  0.3740
  753HK4     H863230   3.349   4.902   1.460 -2.6353  0.4645  0.5646
  753HK4     N163231   3.544   4.882   1.262  0.0148  0.0630  0.1476
  753HK4    C2163232   3.648   4.935   1.183 -0.4380 -0.1441 -0.6016
  753HK4    C2263233   3.646   5.079   1.189 -0.3968 -0.1307 -0.9231
  753HK4    C2663234   3.744   5.157   1.129  0.3363 -0.0948  0.3065
  753HK4    H1363235   3.752   5.263   1.154 -0.0249  0.1287 -0.5092
  753HK4    C2563236   3.835   5.095   1.044  0.1595  0.1407 -0.0561
  753HK4    H1263237   3.908   5.155   0.989 -1.0539  0.9650 -0.8065
  753HK4    C2463238   3.831   4.957   1.031 -0.1666  0.1721 -0.2885
  753HK4    H1163239   3.876   4.912   0.941 -0.0864  3.1458 -1.7694
  753HK4    C2363240   3.742   4.875   1.100 -0.1790  0.0499 -0.4506
  753HK4    H1063241   3.759   4.767   1.099  2.6010  0.4464 -1.0847
  753HK4    C3963242   3.493   4.752   1.250  0.0439  0.0857 -0.2436
  753HK4    C4163243   3.355   4.726   1.244  0.2154 -0.7232 -0.8519
  753HK4    H2163244   3.292   4.811   1.211  0.7320 -0.3559 -0.8917
  753HK4    C4263245   3.296   4.603   1.269 -0.2123 -0.4202 -0.3597
  753HK4    H2263246   3.186   4.591   1.263 -0.0437 -2.0807 -0.4285
  753HK4    C4363247   3.385   4.500   1.298  0.0184 -0.3068 -0.6651
  753HK4    H2363248   3.346   4.398   1.300 -1.5070  0.2550 -0.7486
  753HK4    C4463249   3.521   4.517   1.316 -0.0471  0.2319 -0.6567
  753HK4    H2463250   3.580   4.425   1.330 -1.4764 -0.6579 -0.3981
  753HK4    C4563251   3.572   4.645   1.296  0.1090  0.2955  0.1309
  753HK4    H2563252   3.681   4.649   1.309  0.0970 -1.0843  0.7433
  754HK4    H2863253   4.366   8.200   9.737  0.0782 -0.9078  1.5274
  754HK4    C4863254   4.450   8.143   9.698  0.2045  0.0533  0.3559
  754HK4    C4763255   4.579   8.143   9.749  0.1828 -0.7800  0.4198
  754HK4    H2763256   4.604   8.190   9.845 -1.5763 -0.6351  0.8189
  754HK4    C4663257   4.681   8.070   9.689 -0.2231 -0.7184 -0.3582
  754HK4    H2663258   4.788   8.088   9.711 -0.5711  0.7673  0.2003
  754HK4    C4063259   4.657   7.986   9.579 -0.5916 -0.4780 -0.4635
  754HK4    C5063260   4.523   7.984   9.536 -0.7325 -0.1834 -0.0403
  754HK4    H3063261   4.486   7.909   9.464  1.1962 -0.9298 -0.2848
  754HK4    C4963262   4.420   8.060   9.590 -0.1857  0.3765  0.2132
  754HK4    H2963263   4.325   8.054   9.535  1.6862  0.5549 -3.2244
  754HK4     N263264   4.759   7.911   9.518  0.0607  0.1941 -0.2063
  754HK4    C3063265   4.744   7.857   9.389 -0.1706  0.0078 -0.1014
  754HK4    C2963266   4.688   7.914   9.275 -0.4252 -0.2237 -0.0955
  754HK4    H1563267   4.626   8.003   9.286  2.3022  1.8434 -0.7423
  754HK4    C2863268   4.703   7.857   9.148  0.7379  0.4627 -0.2748
  754HK4    C2763269   4.779   7.740   9.133  0.1822  0.0312  0.2369
  754HK4    H1463270   4.785   7.678   9.042 -1.3363  0.5503 -0.2364
  754HK4    C3263271   4.837   7.681   9.244  0.3686 -0.1026  0.0667
  754HK4    H1663272   4.908   7.600   9.229  0.8058  0.4197 -0.7058
  754HK4    C3163273   4.815   7.732   9.372  0.0623  0.1374 -0.0800
  754HK4    C3463274   4.873   7.710   9.503  0.4550  0.1989 -0.2418
  754HK4    C3363275   4.833   7.817   9.592 -0.0113  0.0704 -0.2914
  754HK4    C3563276   4.888   7.829   9.720 -0.6388  0.0135 -0.0165
  754HK4    H1763277   4.879   7.925   9.771  1.5889  0.7557 -0.9897
  754HK4    C3663278   4.977   7.737   9.772 -0.4213  0.2963  0.1136
  754HK4    H1863279   5.009   7.742   9.877  1.1292 -1.2577 -0.2552
  754HK4    C3763280   5.019   7.636   9.686 -0.2847  0.0582  0.4624
  754HK4    H1963281   5.108   7.580   9.717  1.6176  0.9406 -3.1478
  754HK4    C3863282   4.965   7.622   9.559  0.0366  0.1114  0.3168
  754HK4    H2063283   5.002   7.552   9.484 -0.0182  0.1409  0.2645
  754HK4    C1463284   4.631   7.926   9.040 -0.1737 -0.1006 -0.0330
  754HK4     C963285   4.593   7.853   8.926 -0.9432 -0.5967  0.5304
  754HK4     C863286   4.572   7.918   8.803 -0.2572  0.0482  0.7492
  754HK4    C1163287   4.581   8.057   8.793 -0.2243 -0.0179 -0.2003
  754HK4     H463288   4.546   8.106   8.701  0.9214  0.9306 -0.1442
  754HK4    C1263289   4.620   8.131   8.904 -0.9647 -0.3105  0.2581
  754HK4     H563290   4.643   8.237   8.883  0.2970 -0.8409 -1.0603
  754HK4    C1363291   4.640   8.066   9.025 -0.1441 -0.0705  0.2512
  754HK4     H663292   4.648   8.125   9.117 -3.0153  0.2763  0.3322
  754HK4     C763293   4.575   7.840   8.677  0.3641  0.3782  0.5526
  754HK4     O263294   4.551   7.895   8.570 -0.2582 -0.0418  0.4750
  754HK4     C463295   4.587   7.693   8.688 -0.0100  0.2966 -0.1310
  754HK4     C363296   4.606   7.617   8.573 -0.3738  0.2368 -0.1524
  754HK4     H363297   4.649   7.661   8.482  2.0138 -0.1198  0.7824
  754HK4     C263298   4.590   7.479   8.578  0.5895  0.1381  0.3697
  754HK4     H263299   4.593   7.422   8.484  0.5078  0.6466  0.0561
  754HK4     C163300   4.568   7.420   8.702 -0.1175 -0.1694  0.1010
  754HK4     H163301   4.575   7.311   8.714  2.0198  0.0020  0.5519
  754HK4     C663302   4.548   7.492   8.822 -0.0075 -0.1286  0.0941
  754HK4     C563303   4.552   7.631   8.810  0.7461 -0.1647 -0.1432
  754HK4    C1063304   4.541   7.714   8.934 -0.3781 -0.8260  0.2087
  754HK4     O163305   4.441   7.698   9.003 -0.8559 -0.6073 -0.4255
  754HK4    C1663306   4.495   7.410   8.932  0.3090  0.0722  0.4020
  754HK4    C1563307   4.432   7.285   8.912 -0.0437  0.2409  0.4503
  754HK4     H763308   4.381   7.263   8.816 -0.2749 -3.4332  1.3307
  754HK4    C2063309   4.417   7.185   9.007  0.1117  0.0716  0.2970
  754HK4     H963310   4.352   7.098   8.997 -0.9861  0.6783  1.8984
  754HK4    C1963311   4.469   7.208   9.134 -0.0271  0.1901  0.3358
  754HK4    C1863312   4.533   7.335   9.162  0.1069  0.1313  0.2975
  754HK4    C1763313   4.551   7.425   9.058  0.1073  0.3235  0.4600
  754HK4     H863314   4.621   7.507   9.072 -0.3721  0.7900  0.1627
  754HK4     N163315   4.567   7.342   9.299 -0.4104  0.3273  0.4171
  754HK4    C2163316   4.545   7.212   9.349  0.3028 -0.1081 -0.3881
  754HK4    C2263317   4.466   7.132   9.258 -0.3638 -0.0798  0.1584
  754HK4    C2663318   4.463   6.995   9.277 -1.0688 -0.0108  0.5642
  754HK4    H1363319   4.407   6.928   9.211  0.8544 -1.4404  0.3454
  754HK4    C2563320   4.523   6.947   9.393 -0.0177  0.0537  0.0532
  754HK4    H1263321   4.501   6.847   9.430  1.1631  0.8070  2.8654
  754HK4    C2463322   4.606   7.019   9.478  0.2390  0.3456 -0.4443
  754HK4    H1163323   4.658   6.972   9.563 -1.4123 -1.5783 -0.4670
  754HK4    C2363324   4.610   7.157   9.459  0.3827  0.3768 -0.1865
  754HK4    H1063325   4.651   7.221   9.536  0.9371  0.6737 -0.7231
  754HK4    C3963326   4.551   7.460   9.373  0.2823  0.7697 -0.1230
  754HK4    C4163327   4.639   7.490   9.479  0.1087  0.3244  0.1488
  754HK4    H2163328   4.743   7.457   9.467 -0.5686 -1.8983  0.2997
  754HK4    C4263329   4.597   7.568   9.587  0.5824 -0.0582  0.6116
  754HK4    H2263330   4.670   7.583   9.668  0.7796  0.9627  0.2496
  754HK4    C4363331   4.470   7.624   9.589  0.3779 -0.4816 -0.3056
  754HK4    H2363332   4.452   7.708   9.656 -0.4508 -0.4139 -0.6102
  754HK4    C4463333   4.378   7.592   9.490 -0.0918  0.1818 -0.0873
  754HK4    H2463334   4.271   7.606   9.510 -0.1270 -2.0492  1.3122
  754HK4    C4563335   4.422   7.516   9.382  0.0039  0.1205 -0.0059
  754HK4    H2563336   4.361   7.491   9.294  5.1763 -1.8988 -3.2001
  755HK4    H2863337   2.045   4.908   4.070 -0.5448 -0.1305  1.5181
  755HK4    C4863338   2.129   4.839   4.077 -0.1820  0.1097 -0.1214
  755HK4    C4763339   2.185   4.777   3.966 -0.7877 -0.1495 -0.2800
  755HK4    H2763340   2.118   4.758   3.881 -0.7271 -0.4955 -0.2507
  755HK4    C4663341   2.283   4.680   3.987 -1.0232 -0.2730  0.2603
  755HK4    H2663342   2.315   4.620   3.900  1.7361  1.9677 -0.3326
  755HK4    C4063343   2.327   4.653   4.118 -0.2445  0.2819  0.1149
  755HK4    C5063344   2.269   4.716   4.230 -0.4534 -0.1492  0.2492
  755HK4    H3063345   2.295   4.690   4.333  2.5100  0.9509 -0.1942
  755HK4    C4963346   2.161   4.801   4.207 -0.3463 -0.1202 -0.1483
  755HK4    H2963347   2.101   4.818   4.297  2.2889 -1.3878  1.9199
  755HK4     N263348   2.418   4.548   4.136 -0.5276  0.0570  0.2415
  755HK4    C3063349   2.422   4.427   4.063  0.3643  0.0861  0.2300
  755HK4    C2963350   2.323   4.335   4.030  0.4717 -0.0194  0.2015
  755HK4    H1563351   2.218   4.343   4.059  0.6688 -2.3631  1.6758
  755HK4    C2863352   2.344   4.210   3.974  0.2721  0.1631 -0.2811
  755HK4    C2763353   2.478   4.169   3.961  0.0764 -0.5275 -0.1347
  755HK4    H1463354   2.509   4.074   3.914  0.7801 -1.3464  1.9457
  755HK4    C3263355   2.580   4.255   3.999 -0.5203  0.2537 -0.2906
  755HK4    H1663356   2.683   4.227   3.976 -0.0101  1.2117  0.7454
  755HK4    C3163357   2.559   4.381   4.055  0.4045  0.2130  0.1707
  755HK4    C3463358   2.640   4.474   4.130  0.2124  0.3313  0.2346
  755HK4    C3363359   2.548   4.571   4.186 -0.5424 -0.5835  0.5781
  755HK4    C3563360   2.599   4.674   4.263  0.4748 -0.0071 -0.8459
  755HK4    H1763361   2.531   4.753   4.294  0.4987 -0.0423 -0.7051
  755HK4    C3663362   2.734   4.691   4.292  0.2359  0.0062  0.2958
  755HK4    H1863363   2.775   4.768   4.358 -2.0447  0.9144  0.6812
  755HK4    C3763364   2.815   4.587   4.246  0.0652  0.0623 -0.1339
  755HK4    H1963365   2.920   4.597   4.276  0.2029  0.4862 -0.7384
  755HK4    C3863366   2.774   4.481   4.166  0.3606  0.0358 -0.2514
  755HK4    H2063367   2.841   4.395   4.157  3.0773  2.2648 -2.5163
  755HK4    C1463368   2.232   4.120   3.942  0.1557 -0.0466  0.6873
  755HK4     C963369   2.257   3.984   3.920  0.1519  0.0811 -0.1376
  755HK4     C863370   2.224   3.923   3.797  0.1474 -0.1036 -0.0438
  755HK4    C1163371   2.134   3.994   3.719 -0.0691 -0.4704 -0.1294
  755HK4     H463372   2.107   3.947   3.624  1.2599  0.6242 -1.0776
  755HK4    C1263373   2.082   4.120   3.748  0.1300 -0.5775  0.7057
  755HK4     H563374   2.013   4.175   3.683  2.3531  1.0536 -0.3114
  755HK4    C1363375   2.135   4.183   3.860  0.2752 -0.2011  0.4268
  755HK4     H663376   2.091   4.280   3.887 -1.2199 -0.8473  0.3526
  755HK4     C763377   2.295   3.801   3.753  0.4254  0.0746 -0.0926
  755HK4     O263378   2.270   3.748   3.645 -0.3226  0.2388 -0.0037
  755HK4     C463379   2.387   3.740   3.852  0.3399  0.2596  0.1023
  755HK4     C363380   2.483   3.654   3.800 -0.4128 -0.2585 -0.4406
  755HK4     H363381   2.512   3.656   3.693  3.9473 -0.4013  0.6613
  755HK4     C263382   2.560   3.585   3.892 -0.5562 -0.1121 -0.2134
  755HK4     H263383   2.654   3.533   3.866  0.5263  1.5319  0.3253
  755HK4     C163384   2.537   3.595   4.029 -0.0980 -0.6357 -0.0926
  755HK4     H163385   2.595   3.526   4.092 -1.7259 -2.0033 -0.0629
  755HK4     C663386   2.434   3.676   4.081  0.5758  0.0262  0.2243
  755HK4     C563387   2.368   3.759   3.990  1.2182  0.5017  0.1918
  755HK4    C1063388   2.314   3.894   4.024 -0.4074 -0.0961  0.0202
  755HK4     O163389   2.317   3.935   4.140 -0.4917  0.8114 -0.2929
  755HK4    C1663390   2.414   3.673   4.227 -0.1627  0.6956  0.1380
  755HK4    C1563391   2.515   3.633   4.316 -0.5030 -0.1766  0.1362
  755HK4     H763392   2.619   3.628   4.281 -0.1028  0.8869  1.1487
  755HK4    C2063393   2.488   3.600   4.448 -0.2267  0.0445  0.2504
  755HK4     H963394   2.566   3.550   4.506 -0.2266  0.7756  0.8946
  755HK4    C1963395   2.357   3.595   4.495 -0.3725  0.4483 -0.1127
  755HK4    C1863396   2.251   3.644   4.409 -0.5299  0.4045  0.0563
  755HK4    C1763397   2.285   3.673   4.278 -0.2463 -0.4207 -0.0592
  755HK4     H863398   2.207   3.690   4.203  0.7501 -1.0901 -1.2730
  755HK4     N163399   2.127   3.646   4.476 -0.6160 -0.0560 -0.0843
  755HK4    C2163400   2.154   3.583   4.599 -0.4662 -0.2886 -0.2372
  755HK4    C2263401   2.296   3.564   4.623 -0.4573 -0.3633 -0.3445
  755HK4    C2663402   2.349   3.493   4.730 -0.0951 -0.2880 -0.4771
  755HK4    H1363403   2.457   3.477   4.735 -0.2030 -0.9039 -0.1476
  755HK4    C2563404   2.259   3.430   4.815  0.2641 -0.2522 -0.0682
  755HK4    H1263405   2.298   3.373   4.899  0.4440 -1.4896 -0.9812
  755HK4    C2463406   2.123   3.446   4.793  0.3573  0.3742 -0.2216
  755HK4    H1163407   2.052   3.413   4.871 -1.6307  1.9227 -1.3199
  755HK4    C2363408   2.068   3.517   4.687 -0.5087  0.3184  0.1792
  755HK4    H1063409   1.961   3.509   4.671 -0.4658 -0.9891  0.4762
  755HK4    C3963410   2.028   3.738   4.439 -0.2561 -0.0121 -0.9525
  755HK4    C4163411   1.897   3.723   4.489  0.1987  0.3450  0.3684
  755HK4    H2163412   1.870   3.635   4.550 -0.0002  1.2907  1.6780
  755HK4    C4263413   1.802   3.824   4.482 -0.3891 -0.1991  0.3945
  755HK4    H2263414   1.711   3.810   4.542  0.3476 -1.1913  1.2937
  755HK4    C4363415   1.835   3.951   4.436 -0.3861 -0.2543  0.2482
  755HK4    H2363416   1.754   4.018   4.409  0.0641 -0.3885 -1.5350
  755HK4    C4463417   1.964   3.973   4.388 -0.3850  0.2570  0.4898
  755HK4    H2463418   1.992   4.064   4.332  0.8488  0.5296  1.5093
  755HK4    C4563419   2.056   3.869   4.396 -0.3201  0.2618 -0.1673
  755HK4    H2563420   2.160   3.895   4.372 -0.5455 -0.0630 -1.4916
  756HK4    H2863421   9.094   8.712   0.382 -1.3860 -0.1607 -1.2501
  756HK4    C4863422   9.133   8.748   0.287  0.6190 -0.1635 -0.4477
  756HK4    C4763423   9.049   8.803   0.190 -0.5142 -0.2496  0.4813
  756HK4    H2763424   8.939   8.805   0.201 -0.2791  2.7255  3.1559
  756HK4    C4663425   9.111   8.860   0.080  0.5167 -0.9047  0.7167
  756HK4    H2663426   9.055   8.941   0.032  0.5773 -1.0059  0.4738
  756HK4    C4063427   9.248   8.852   0.046  0.6128  0.3818  0.7476
  756HK4    C5063428   9.322   8.771   0.134  0.4340 -1.0753 -0.4133
  756HK4    H3063429   9.423   8.732   0.113  0.3272 -0.6820 -1.6929
  756HK4    C4963430   9.267   8.728   0.254  0.6358 -0.5563 -0.1367
  756HK4    H2963431   9.337   8.682   0.325  1.2064  1.1128  0.4163
  756HK4     N263432   9.292   8.861  11.161 -0.1109  0.2458  0.4968
  756HK4    C3063433   9.211   8.846  11.046  0.1463 -0.2670  0.3778
  756HK4    C2963434   9.081   8.801  11.032  0.0044  0.0799  0.5876
  756HK4    H1563435   9.050   8.736  11.114 -1.5756  0.1669  0.0814
  756HK4    C2863436   9.004   8.804  10.916  0.0769  0.4081  0.5484
  756HK4    C2763437   9.080   8.839  10.802  0.0430  0.8153  0.6473
  756HK4    H1463438   9.034   8.826  10.702 -0.6833 -0.0757  1.0833
  756HK4    C3263439   9.211   8.883  10.802  0.2560  0.1804 -0.1161
  756HK4    H1663440   9.262   8.918  10.712  1.4551  1.1528  0.9088
  756HK4    C3163441   9.274   8.895  10.925 -0.6073  0.5081  0.2955
  756HK4    C3463442   9.402   8.945  10.972 -0.1302 -0.1024 -0.3558
  756HK4    C3363443   9.414   8.911  11.112 -0.0801 -0.7831 -0.5204
  756HK4    C3563444   9.528   8.945  11.184 -0.4748 -0.1250 -0.1985
  756HK4    H1763445   9.532   8.902   0.036 -0.0913 -1.1093 -0.6331
  756HK4    C3663446   9.642   9.000  11.127 -0.5041 -0.1257 -0.2604
  756HK4    H1863447   9.733   9.031  11.181  0.1061 -1.1721 -0.6662
  756HK4    C3763448   9.631   9.026  10.991 -0.2329  0.1318 -0.2344
  756HK4    H1963449   9.718   9.069  10.942 -0.5259  1.6064  0.5294
  756HK4    C3863450   9.515   9.005  10.918 -0.1368 -0.0645 -0.3309
  756HK4    H2063451   9.496   9.067  10.830 -0.3736  0.0704 -0.1832
  756HK4    C1463452   8.861   8.772  10.908  0.0697  0.6113 -0.1930
  756HK4     C963453   8.798   8.729  10.791  0.0520  0.5180 -0.1541
  756HK4     C863454   8.658   8.743  10.780  0.0373  0.2693 -0.2566
  756HK4    C1163455   8.584   8.786  10.889  0.2220 -0.1037  0.0130
  756HK4     H463456   8.476   8.809  10.883  0.4792  1.8590  2.2915
  756HK4    C1263457   8.652   8.827  11.003 -0.0155 -0.1324  0.1632
  756HK4     H563458   8.596   8.887  11.077  0.3448  1.6191 -0.9416
  756HK4    C1363459   8.789   8.818  11.020  0.0540  0.3672 -0.1053
  756HK4     H663460   8.834   8.822  11.121 -0.0339  1.6228 -0.0987
  756HK4     C763461   8.593   8.719  10.649 -0.5039 -0.7011  0.1849
  756HK4     O263462   8.474   8.744  10.627 -0.4588 -0.4486  0.2329
  756HK4     C463463   8.673   8.650  10.545  0.1271  0.0541  0.1661
  756HK4     C363464   8.611   8.635  10.422  0.0676 -0.5807  0.2678
  756HK4     H363465   8.529   8.703  10.394 -0.6293  0.0699  3.6482
  756HK4     C263466   8.664   8.559  10.319  0.3447 -0.1014  0.0529
  756HK4     H263467   8.601   8.542  10.230 -0.6839 -0.7417  0.8998
  756HK4     C163468   8.791   8.505  10.338  0.9226  1.0771 -0.4527
  756HK4     H163469   8.841   8.456  10.254 -0.4464 -1.1428  0.0041
  756HK4     C663470   8.866   8.530  10.455  0.3350  0.1932  0.1140
  756HK4     C563471   8.804   8.601  10.559  0.5462  1.0375 -0.3360
  756HK4    C1063472   8.864   8.643  10.689 -0.1271 -0.2784  0.4013
  756HK4     O163473   8.931   8.550  10.735  0.3151  0.0366  0.3953
  756HK4    C1663474   9.003   8.477  10.458  0.1704 -0.2356 -0.0042
  756HK4    C1563475   9.027   8.347  10.408 -0.1917 -0.1447 -0.4140
  756HK4     H763476   8.943   8.277  10.421 -3.2136  3.2195 -0.8768
  756HK4    C2063477   9.153   8.299  10.374  0.1550  0.3818  0.1063
  756HK4     H963478   9.164   8.191  10.361 -0.1111 -0.1737  3.8914
  756HK4    C1963479   9.265   8.380  10.383  0.3254  0.1656 -0.0790
  756HK4    C1863480   9.243   8.516  10.429 -0.3034 -0.1001  0.4099
  756HK4    C1763481   9.116   8.558  10.466 -0.3027  0.4548 -0.2206
  756HK4     H863482   9.115   8.623  10.553  1.2528 -2.0102  1.7205
  756HK4     N163483   9.364   8.587  10.442 -0.2329 -0.1166 -0.1838
  756HK4    C2163484   9.466   8.495  10.409 -0.0582  0.1813 -0.4827
  756HK4    C2263485   9.409   8.365  10.378  0.3156 -0.3128  0.8595
  756HK4    C2663486   9.486   8.254  10.345 -0.5943 -0.8391  0.5036
  756HK4    H1363487   9.441   8.155  10.348  1.1729 -1.6698 -0.1611
  756HK4    C2563488   9.624   8.271  10.337 -0.7199 -0.0645 -0.0895
  756HK4    H1263489   9.687   8.183  10.341 -0.5704  0.0490  0.0170
  756HK4    C2463490   9.680   8.397  10.351 -0.3626 -0.3088  0.6981
  756HK4    H1163491   9.789   8.396  10.335 -0.7454 -1.0733 -2.0870
  756HK4    C2363492   9.602   8.508  10.383 -0.0234  0.2162 -0.2816
  756HK4    H1063493   9.660   8.600  10.386 -1.1305  0.9352 -0.5252
  756HK4    C3963494   9.380   8.726  10.447  0.4421 -0.1774 -0.5300
  756HK4    C4163495   9.491   8.787  10.510  0.1325  0.1349 -0.2761
  756HK4    H2163496   9.530   8.727  10.593  1.2282  0.6331 -0.4300
  756HK4    C4263497   9.521   8.921  10.492  0.0973  0.1430 -0.2476
  756HK4    H2263498   9.578   8.977  10.568 -1.6242 -1.0292  1.9538
  756HK4    C4363499   9.447   8.996  10.401  0.1339  0.4701 -0.0121
  756HK4    H2363500   9.462   9.103  10.390 -0.2957  0.6118  0.7406
  756HK4    C4463501   9.332   8.942  10.344  0.7975 -0.3504 -0.5853
  756HK4    H2463502   9.266   8.996  10.275  0.3043 -0.9463 -0.5807
  756HK4    C4563503   9.300   8.809  10.366  0.2686 -0.1883 -0.3699
  756HK4    H2563504   9.202   8.772  10.332 -1.5038  4.1412 -0.2113
  757HK4    H2863505   7.384   4.029   5.100  0.9687 -1.1431 -1.8302
  757HK4    C4863506   7.340   3.934   5.130 -0.4395  0.3527  1.0647
  757HK4    C4763507   7.209   3.897   5.099 -0.1327  0.6048 -0.5924
  757HK4    H2763508   7.145   3.958   5.033 -0.0278  1.5862  0.1889
  757HK4    C4663509   7.154   3.785   5.160  0.2406  0.7565  0.0301
  757HK4    H2663510   7.060   3.754   5.112  1.1617  0.8710 -1.8964
  757HK4    C4063511   7.217   3.699   5.253 -0.1206 -0.0580 -0.4735
  757HK4    C5063512   7.349   3.741   5.278 -0.2938  0.3290 -0.1835
  757HK4    H3063513   7.400   3.678   5.352  1.8359  0.5682 -1.3978
  757HK4    C4963514   7.409   3.851   5.218  0.6974 -0.3357 -0.4430
  757HK4    H2963515   7.502   3.897   5.254  0.3197  0.0263  0.1013
  757HK4     N263516   7.146   3.605   5.327 -0.2716 -0.2602 -0.8729
  757HK4    C3063517   7.200   3.490   5.389  0.3235  0.7384  0.4953
  757HK4    C2963518   7.325   3.430   5.383 -0.0194  0.0856 -0.3347
  757HK4    H1563519   7.398   3.459   5.308  0.9118 -1.3307 -0.0078
  757HK4    C2863520   7.362   3.316   5.454  0.3874  0.0997 -0.5227
  757HK4    C2763521   7.269   3.263   5.546  0.6447  0.2333 -0.1839
  757HK4    H1463522   7.304   3.201   5.630  1.0516  1.7549  0.7795
  757HK4    C3263523   7.140   3.312   5.554  0.8926  0.8153  0.3547
  757HK4    H1663524   7.068   3.272   5.626 -0.4874  1.3813 -0.6713
  757HK4    C3163525   7.107   3.424   5.478  0.1558  0.4259  0.0915
  757HK4    C3463526   6.984   3.501   5.466 -0.0742  0.0883  0.2596
  757HK4    C3363527   7.017   3.614   5.383  0.4159  0.2585  0.6785
  757HK4    C3563528   6.928   3.721   5.383 -0.0815 -0.1494  0.1042
  757HK4    H1763529   6.956   3.815   5.335 -0.6418 -1.2717 -2.5190
  757HK4    C3663530   6.803   3.711   5.443 -0.2264  0.0123 -0.1690
  757HK4    H1863531   6.726   3.788   5.424 -2.0722 -1.4509  1.1606
  757HK4    C3763532   6.769   3.596   5.513  0.3331 -0.0900 -0.0650
  757HK4    H1963533   6.665   3.585   5.543  0.3672 -0.4370 -0.0657
  757HK4    C3863534   6.862   3.494   5.532 -0.4468 -0.8910 -0.5250
  757HK4    H2063535   6.849   3.417   5.608  1.2246 -1.6786 -1.0146
  757HK4    C1463536   7.456   3.229   5.382 -0.0790 -0.5092 -0.3942
  757HK4     C963537   7.445   3.091   5.362 -0.3847 -0.6021  0.3631
  757HK4     C863538   7.560   3.009   5.360 -0.2274 -0.3719 -0.3951
  757HK4    C1163539   7.685   3.069   5.377 -0.4061  0.0017 -0.3878
  757HK4     H463540   7.766   3.011   5.423 -0.9722 -0.0283  0.5775
  757HK4    C1263541   7.697   3.208   5.380  0.0868 -0.0487 -0.0462
  757HK4     H563542   7.796   3.256   5.376 -0.9656  2.1039 -0.8396
  757HK4    C1363543   7.584   3.288   5.384 -0.1413 -0.3911  0.3257
  757HK4     H663544   7.588   3.391   5.346 -0.7384 -0.9741 -1.3392
  757HK4     C763545   7.544   2.862   5.367 -0.1520 -0.3455  0.4352
  757HK4     O263546   7.635   2.780   5.371  0.5016  0.3287 -0.4515
  757HK4     C463547   7.406   2.810   5.372 -0.3723  0.2255  0.4501
  757HK4     C363548   7.379   2.679   5.413 -0.4836  0.2012  0.3010
  757HK4     H363549   7.450   2.620   5.473  1.4961  0.6026 -1.5865
  757HK4     C263550   7.258   2.619   5.381 -0.4973  0.0509  0.6284
  757HK4     H263551   7.235   2.520   5.422 -0.8632  0.3479  1.1452
  757HK4     C163552   7.173   2.688   5.295 -0.0146 -0.2122 -0.0609
  757HK4     H163553   7.078   2.638   5.272 -0.2909  0.2344  0.1252
  757HK4     C663554   7.205   2.811   5.235 -0.0503 -0.2237 -0.1031
  757HK4     C563555   7.311   2.881   5.296 -0.2727 -0.0407  0.0756
  757HK4    C1063556   7.319   3.028   5.313 -0.4625  0.0045 -0.2248
  757HK4     O163557   7.216   3.093   5.295 -0.5015 -0.0747 -0.2874
  757HK4    C1663558   7.164   2.830   5.095  0.3080  0.0661 -0.1694
  757HK4    C1563559   7.090   2.736   5.021 -0.0124 -0.1401  0.4027
  757HK4     H763560   7.067   2.639   5.067 -2.0351  0.2748  0.2783
  757HK4    C2063561   7.041   2.760   4.893  0.6449  0.0577  0.1870
  757HK4     H963562   7.007   2.666   4.848  0.3408  0.3533 -0.2086
  757HK4    C1963563   7.063   2.882   4.830 -0.5847  0.2961  0.2184
  757HK4    C1863564   7.150   2.978   4.895 -0.0693 -0.1158  0.1391
  757HK4    C1763565   7.192   2.946   5.024  0.1171  0.3343  0.1909
  757HK4     H863566   7.283   2.994   5.058 -0.4772  0.6212  1.4140
  757HK4     N163567   7.157   3.101   4.826  0.2331 -0.1976  0.0240
  757HK4    C2163568   7.069   3.088   4.717  0.2984 -0.1759 -0.0327
  757HK4    C2263569   7.013   2.954   4.714 -0.5835  0.1813  0.1477
  757HK4    C2663570   6.911   2.919   4.626 -0.1473  0.3140 -0.4155
  757HK4    H1363571   6.879   2.815   4.619  2.5482 -0.5324 -0.8657
  757HK4    C2563572   6.841   3.016   4.556 -0.1555  0.1968 -0.5676
  757HK4    H1263573   6.742   2.992   4.517 -0.1828 -1.3820  0.4493
  757HK4    C2463574   6.891   3.146   4.561  0.3346 -0.0035 -0.2395
  757HK4    H1163575   6.833   3.230   4.520 -0.8993  0.2488  1.9753
  757HK4    C2363576   7.007   3.177   4.631 -0.0031 -0.0311  0.3340
  757HK4    H1063577   7.061   3.267   4.601 -0.1996 -0.7284 -2.2543
  757HK4    C3963578   7.189   3.228   4.876  0.1971 -0.1338 -0.1167
  757HK4    C4163579   7.236   3.331   4.792  0.6890 -0.0225  0.2987
  757HK4    H2163580   7.295   3.300   4.705 -1.2821 -3.4584  0.1223
  757HK4    C4263581   7.240   3.465   4.831 -0.2576  0.0387  0.1951
  757HK4    H2263582   7.270   3.536   4.753  1.7634 -1.2798 -0.2801
  757HK4    C4363583   7.202   3.505   4.959  0.0680  0.3037  0.2092
  757HK4    H2363584   7.208   3.607   4.996  0.0953  0.0550  0.8875
  757HK4    C4463585   7.146   3.406   5.039 -0.7263  0.3480 -0.2825
  757HK4    H2463586   7.099   3.432   5.135  0.0723 -1.4012  0.6145
  757HK4    C4563587   7.141   3.273   5.000  0.3225  0.2804 -0.2182
  757HK4    H2563588   7.097   3.196   5.065 -0.0010 -0.5100 -1.3571
  758HK4    H2863589   7.473  11.067   1.985  0.9046  1.0040  1.7950
  758HK4    C4863590   7.452  11.158   1.930 -0.5557 -0.5170 -0.2358
  758HK4    C4763591   7.488  11.169   1.797  0.6361 -0.3062  0.1024
  758HK4    H2763592   7.539  11.084   1.750  1.6003  0.5930 -0.5177
  758HK4    C4663593   7.473   0.036   1.719 -0.2699  0.0145  0.7512
  758HK4    H2663594   7.497   0.037   1.612 -0.4750  3.6050  0.6752
  758HK4    C4063595   7.428   0.152   1.785 -0.7125  0.0678  0.3591
  758HK4    C5063596   7.390   0.147   1.921 -0.2043 -0.2618  0.4879
  758HK4    H3063597   7.347   0.238   1.965 -3.3714 -0.9775 -0.9756
  758HK4    C4963598   7.407   0.027   1.990  0.3299 -0.3766  0.1632
  758HK4    H2963599   7.402   0.021   2.100  2.4702  0.2581  0.3135
  758HK4     N263600   7.442   0.270   1.711 -0.2517 -0.2401 -0.0427
  758HK4    C3063601   7.350   0.376   1.717 -0.1772 -0.1301 -0.8303
  758HK4    C2963602   7.213   0.367   1.740  0.0972 -0.0704  0.8905
  758HK4    H1563603   7.167   0.273   1.707  0.4631 -0.7097  2.1574
  758HK4    C2863604   7.151   0.490   1.754  0.4988  0.2120  0.2289
  758HK4    C2763605   7.219   0.612   1.738  0.6571  0.0449 -0.3688
  758HK4    H1463606   7.170   0.709   1.753  1.6146  0.5706 -0.5577
  758HK4    C3263607   7.353   0.619   1.701  0.6470  0.5318 -0.3127
  758HK4    H1663608   7.397   0.709   1.658  2.0009  0.8859  1.7565
  758HK4    C3163609   7.423   0.499   1.696 -0.1943  0.0240  0.0290
  758HK4    C3463610   7.562   0.466   1.671 -0.1172  0.1618  0.2651
  758HK4    C3363611   7.570   0.322   1.684 -0.4041  0.1129 -0.0806
  758HK4    C3563612   7.695   0.261   1.678 -0.3138  0.2739  0.1505
  758HK4    H1763613   7.711   0.154   1.665 -1.4535  0.2441 -1.0406
  758HK4    C3663614   7.807   0.344   1.668 -0.2090  0.1205  0.0575
  758HK4    H1863615   7.906   0.301   1.647 -0.2963  0.3782 -0.9342
  758HK4    C3763616   7.803   0.483   1.664  0.1547  0.1109 -0.8343
  758HK4    H1963617   7.888   0.533   1.619 -0.6753  0.3742 -2.1177
  758HK4    C3863618   7.677   0.543   1.664  0.0327 -0.1437 -0.8172
  758HK4    H2063619   7.672   0.643   1.620  1.0595 -0.4698 -1.6873
  758HK4    C1463620   7.004   0.491   1.741  0.4356  0.7735  0.9285
  758HK4     C963621   6.941   0.585   1.658  0.1833  0.0602  0.3066
  758HK4     C863622   6.820   0.638   1.707 -0.0654 -0.2054 -0.0185
  758HK4    C1163623   6.761   0.596   1.825  0.2090  0.9019  0.5169
  758HK4     H463624   6.666   0.643   1.856 -1.3498 -0.0087 -2.6021
  758HK4    C1263625   6.822   0.497   1.900 -0.0087  0.4646  0.1197
  758HK4     H563626   6.791   0.488   2.005 -2.2459  1.0573 -0.4609
  758HK4    C1363627   6.942   0.442   1.857 -0.2990 -0.1847  0.1374
  758HK4     H663628   6.983   0.359   1.916  0.1041  0.3779  0.6510
  758HK4     C763629   6.742   0.718   1.610  0.1757  0.4072  0.2919
  758HK4     O263630   6.635   0.767   1.646 -0.5255 -0.3748 -0.6882
  758HK4     C463631   6.782   0.737   1.469 -0.6277 -0.6567 -0.0844
  758HK4     C363632   6.699   0.804   1.379  0.2895  0.0931 -0.3850
  758HK4     H363633   6.605   0.853   1.411 -0.3568  0.6058 -2.9968
  758HK4     C263634   6.714   0.781   1.243 -0.2567 -0.2331 -0.3927
  758HK4     H263635   6.656   0.845   1.175 -1.9321 -0.3180  0.9066
  758HK4     C163636   6.795   0.678   1.194  0.0270 -0.1365 -0.1292
  758HK4     H163637   6.809   0.676   1.085  1.2755  2.7928 -0.0706
  758HK4     C663638   6.863   0.592   1.282  0.1236  0.0005 -0.0691
  758HK4     C563639   6.862   0.634   1.416  0.3343  0.0871 -0.0947
  758HK4    C1063640   6.966   0.587   1.511 -0.1570 -0.3385  0.2415
  758HK4     O163641   7.084   0.585   1.475 -0.2394 -0.7292 -0.0075
  758HK4    C1663642   6.910   0.462   1.230  0.4016 -0.0574  0.3266
  758HK4    C1563643   6.921   0.441   1.092  0.0783 -0.5666  0.3801
  758HK4     H763644   6.931   0.527   1.024 -0.4923  0.0305  1.0551
  758HK4    C2063645   6.939   0.317   1.031 -0.7832 -0.3639 -0.3072
  758HK4     H963646   6.936   0.311   0.923  2.3561 -0.8489 -0.4135
  758HK4    C1963647   6.943   0.204   1.112 -0.8172 -0.1775 -0.0445
  758HK4    C1863648   6.923   0.218   1.255  0.5354  0.2423  0.1083
  758HK4    C1763649   6.908   0.346   1.307 -0.2611  0.0220  0.4375
  758HK4     H863650   6.870   0.356   1.409 -0.1877  2.5924  0.2466
  758HK4     N163651   6.895   0.093   1.314  0.3480  0.1454 -0.1864
  758HK4    C2163652   6.912  11.245   1.212 -0.4173 -0.2177  0.0264
  758HK4    C2263653   6.945   0.061   1.086 -0.0575 -0.2014  0.1265
  758HK4    C2663654   6.984  11.240   0.972 -0.7373 -0.0847 -0.1809
  758HK4    H1363655   7.009   0.045   0.881  2.2879 -0.9181  0.0995
  758HK4    C2563656   6.999  11.101   0.977  0.3979  0.0301 -0.2822
  758HK4    H1263657   7.043  11.038   0.901  0.1102 -2.9179  1.9029
  758HK4    C2463658   6.960  11.038   1.095  0.4746 -0.0467 -0.2979
  758HK4    H1163659   6.963  10.928   1.097 -0.9079 -0.1301 -1.7735
  758HK4    C2363660   6.918  11.106   1.208  0.7534 -0.1695 -0.1213
  758HK4    H1063661   6.872  11.052   1.291  1.9291  0.5498  1.0258
  758HK4    C3963662   6.873   0.065   1.449 -0.3139  0.0097 -0.3212
  758HK4    C4163663   6.776  11.217   1.484  0.0814 -0.2508  0.0667
  758HK4    H2163664   6.704  11.192   1.405 -0.9621 -2.2099  1.5776
  758HK4    C4263665   6.756  11.194   1.620 -0.4316  0.4603  0.1103
  758HK4    H2263666   6.679  11.122   1.654  0.4907 -0.8329 -0.5009
  758HK4    C4363667   6.831   0.015   1.714 -0.2919  0.4527  0.0038
  758HK4    H2363668   6.820  11.236   1.819 -2.1948  0.6569 -0.1256
  758HK4    C4463669   6.931   0.107   1.685 -0.5062  0.8390  0.4830
  758HK4    H2463670   7.000   0.162   1.751  1.7727 -0.1666 -0.9895
  758HK4    C4563671   6.951   0.127   1.549 -0.6868 -0.4446  0.2589
  758HK4    H2563672   7.017   0.207   1.513 -0.1433 -1.6626 -1.5328
  759HK4    H2863673   1.304   5.940   6.770  1.2876 -0.1098  0.9511
  759HK4    C4863674   1.394   5.996   6.746  0.6528  0.5122  0.0023
  759HK4    C4763675   1.452   6.080   6.840  0.5659  0.1684  0.3676
  759HK4    H2763676   1.409   6.091   6.941 -3.4581  0.3127 -1.2810
  759HK4    C4663677   1.569   6.152   6.817  0.6372 -0.0101  0.1734
  759HK4    H2663678   1.596   6.222   6.897  0.0182  0.3280  0.0861
  759HK4    C4063679   1.641   6.130   6.697  0.6086 -0.9903  0.3338
  759HK4    C5063680   1.575   6.057   6.596 -0.0997  0.6756 -0.4246
  759HK4    H3063681   1.601   6.055   6.489  0.1345  0.1764 -0.3656
  759HK4    C4963682   1.459   5.986   6.624  0.2168  0.2384 -0.2077
  759HK4    H2963683   1.418   5.923   6.544 -2.9192  0.1337  1.3811
  759HK4     N263684   1.754   6.202   6.658 -0.1129  0.1728  0.3869
  759HK4    C3063685   1.791   6.337   6.678  0.0227  0.1493  0.2913
  759HK4    C2963686   1.708   6.446   6.701  0.1156  0.2853 -0.0029
  759HK4    H1563687   1.601   6.427   6.695 -0.1531  1.9574 -0.8252
  759HK4    C2863688   1.760   6.573   6.723 -0.3148  0.5288 -0.3956
  759HK4    C2763689   1.900   6.586   6.711 -0.2584  0.0011 -0.3051
  759HK4    H1463690   1.940   6.685   6.735 -0.1643  0.3751 -2.0043
  759HK4    C3263691   1.990   6.485   6.679 -0.0921 -0.1482  0.6267
  759HK4    H1663692   2.097   6.504   6.679 -0.3476  1.3223 -0.1001
  759HK4    C3163693   1.934   6.357   6.672  0.0720 -0.2008  0.2701
  759HK4    C3463694   1.989   6.227   6.637  0.0193 -0.0147 -0.5230
  759HK4    C3363695   1.875   6.138   6.626 -0.2352  0.2793 -0.2994
  759HK4    C3563696   1.905   6.014   6.571 -0.0232  0.1824  0.0342
  759HK4    H1763697   1.835   5.933   6.594 -1.2697  1.1116 -0.4472
  759HK4    C3663698   2.027   5.987   6.510 -0.0620  0.0355  0.0215
  759HK4    H1863699   2.046   5.905   6.439  0.5386  0.4995 -0.3585
  759HK4    C3763700   2.137   6.071   6.522  0.0574 -0.1140 -0.0294
  759HK4    H1963701   2.233   6.054   6.473  1.3128  1.3893  1.8636
  759HK4    C3863702   2.114   6.190   6.590  0.0979  0.1233 -0.4255
  759HK4    H2063703   2.202   6.244   6.623 -0.4116  1.6014 -1.4404
  759HK4    C1463704   1.675   6.688   6.755 -0.2593  0.4923 -0.1087
  759HK4     C963705   1.721   6.819   6.732 -0.4773  0.5687 -0.1092
  759HK4     C863706   1.686   6.921   6.822 -1.0993  0.5432 -0.3176
  759HK4    C1163707   1.594   6.898   6.923 -0.5474  0.0645  0.0737
  759HK4     H463708   1.565   6.972   6.999  2.3917  1.4990 -0.1346
  759HK4    C1263709   1.535   6.773   6.935  0.3366 -0.3109  0.5696
  759HK4     H563710   1.461   6.758   7.015 -1.0055  0.4111 -0.5121
  759HK4    C1363711   1.578   6.668   6.856 -0.5617  0.0995 -0.4757
  759HK4     H663712   1.502   6.591   6.836 -2.0168  1.6170 -0.8474
  759HK4     C763713   1.748   7.055   6.817 -0.0107  0.0533  0.0887
  759HK4     O263714   1.753   7.133   6.912 -0.1599  0.4758 -0.2483
  759HK4     C463715   1.821   7.093   6.694 -0.4035 -0.0373 -0.1740
  759HK4     C363716   1.851   7.227   6.675  0.7904 -0.2825 -0.0721
  759HK4     H363717   1.826   7.306   6.748 -0.0157  0.7423 -1.4286
  759HK4     C263718   1.924   7.267   6.563  0.5387  0.9818  0.2013
  759HK4     H263719   1.943   7.370   6.532 -1.8307  1.9607  1.8162
  759HK4     C163720   1.967   7.164   6.480  0.4504  0.1221  1.1997
  759HK4     H163721   2.007   7.190   6.380 -2.0085  0.9831  0.4059
  759HK4     C663722   1.953   7.026   6.505  0.1698 -0.0140  0.3122
  759HK4     C563723   1.862   6.991   6.605  0.1473 -0.1772  0.2353
  759HK4    C1063724   1.801   6.855   6.612 -0.0014 -0.1232 -0.0048
  759HK4     O163725   1.797   6.782   6.513 -0.3222  0.1112 -0.1672
  759HK4    C1663726   2.064   6.942   6.459 -0.4129 -0.4272 -0.3516
  759HK4    C1563727   2.114   6.836   6.538  0.0380 -0.0528 -0.1303
  759HK4     H763728   2.089   6.839   6.644 -1.7237  1.9536 -0.5708
  759HK4    C2063729   2.201   6.743   6.482 -0.0968 -0.3687  0.1868
  759HK4     H963730   2.223   6.655   6.542 -1.0503  0.0633  1.1889
  759HK4    C1963731   2.245   6.747   6.350 -0.2180  0.2682  0.1648
  759HK4    C1863732   2.184   6.847   6.264 -0.2189  0.0296 -0.1155
  759HK4    C1763733   2.099   6.940   6.325  0.3143  0.5700 -0.1873
  759HK4     H863734   2.035   6.998   6.259 -1.0215  0.6649  1.1822
  759HK4     N163735   2.268   6.874   6.154  0.1823  0.3819  0.2733
  759HK4    C2163736   2.386   6.798   6.170 -0.1750 -0.3397 -0.4504
  759HK4    C2263737   2.377   6.724   6.294 -0.4691 -0.0496 -0.2972
  759HK4    C2663738   2.481   6.638   6.330 -0.1637  0.2679 -0.4275
  759HK4    H1363739   2.494   6.609   6.434 -2.1233  0.0244 -0.2241
  759HK4    C2563740   2.585   6.623   6.239  0.1979  0.0406  0.0275
  759HK4    H1263741   2.663   6.549   6.257 -0.3124 -0.4557  0.2228
  759HK4    C2463742   2.594   6.696   6.121  0.4844 -0.0192  0.0115
  759HK4    H1163743   2.664   6.660   6.043 -0.5505 -1.0713 -0.4447
  759HK4    C2363744   2.496   6.788   6.086  0.8624  0.6724  0.7475
  759HK4    H1063745   2.523   6.871   6.022 -0.7000 -0.9124 -2.0884
  759HK4    C3963746   2.216   6.914   6.031 -0.0302 -0.0552  0.2175
  759HK4    C4163747   2.290   6.977   5.929 -0.4023  0.5201  0.2990
  759HK4    H2163748   2.391   7.016   5.952  0.9249 -0.7509 -3.0094
  759HK4    C4263749   2.256   6.988   5.794  0.0439  0.2477  0.1623
  759HK4    H2263750   2.297   7.076   5.743  1.7890  1.4110  3.3718
  759HK4    C4363751   2.146   6.914   5.752  0.3750  0.0680 -0.3866
  759HK4    H2363752   2.115   6.918   5.647  1.0717  1.7499 -0.5554
  759HK4    C4463753   2.065   6.853   5.847  0.3316  0.7950  0.0501
  759HK4    H2463754   2.000   6.770   5.814 -1.6200  1.4965  2.0503
  759HK4    C4563755   2.098   6.854   5.982  0.2255 -0.4554  0.0944
  759HK4    H2563756   2.028   6.804   6.051  0.5389 -0.2567  0.5585
  760HK4    H2863757   6.847  10.694   5.317 -1.8962 -1.4178  1.1703
  760HK4    C4863758   6.839  10.765   5.400  0.3893  0.2454  0.0207
  760HK4    C4763759   6.718  10.826   5.431  0.8751  1.1368  0.1754
  760HK4    H2763760   6.626  10.806   5.374  1.8177 -0.4230 -0.8465
  760HK4    C4663761   6.711  10.918   5.535 -0.7190  0.3761  0.7657
  760HK4    H2663762   6.614  10.966   5.554 -1.6737 -0.2994 -2.1003
  760HK4    C4063763   6.825  10.944   5.613 -0.0549  0.8254 -0.3317
  760HK4    C5063764   6.942  10.873   5.579 -0.4808 -0.0752  0.0795
  760HK4    H3063765   7.026  10.882   5.650  0.8493  2.1028 -1.6948
  760HK4    C4963766   6.955  10.781   5.475  0.3645  0.0051  0.1086
  760HK4    H2963767   7.059  10.758   5.449  0.5043  1.7109 -0.9388
  760HK4     N263768   6.822  11.024   5.728  0.0326  0.3313  0.0196
  760HK4    C3063769   6.717  11.051   5.819 -0.2528 -0.1621 -0.1658
  760HK4    C2963770   6.624  10.959   5.866 -0.3303 -0.2760 -0.5363
  760HK4    H1563771   6.589  10.884   5.795 -0.6847 -0.3888 -0.2483
  760HK4    C2863772   6.556  10.973   5.986 -0.1258 -0.0195 -0.4501
  760HK4    C2763773   6.592  11.085   6.064  0.0352  0.0161 -0.5751
  760HK4    H1463774   6.567  11.083   6.171  1.3791 -0.2211 -0.2471
  760HK4    C3263775   6.678  11.184   6.018 -0.3715  0.6975  0.1221
  760HK4    H1663776   6.708   0.021   6.080 -1.8284 -0.4292  2.4272
  760HK4    C3163777   6.737  11.175   5.892 -0.6203 -0.2452  0.0742
  760HK4    C3463778   6.861  11.231   5.843 -0.7902 -0.0997 -0.1963
  760HK4    C3363779   6.912  11.130   5.752  0.3783 -0.0454  0.3877
  760HK4    C3563780   7.041  11.155   5.707  0.1042  0.0558 -0.3575
  760HK4    H1763781   7.088  11.108   5.621 -2.6672 -1.0144 -1.3233
  760HK4    C3663782   7.116   0.012   5.758 -0.1565 -0.0894  0.3392
  760HK4    H1863783   7.226   0.009   5.753 -0.2314 -0.1774 -1.8113
  760HK4    C3763784   7.065   0.109   5.844 -0.3982 -0.1827  0.3011
  760HK4    H1963785   7.136   0.163   5.907 -0.5086  1.3538 -0.8586
  760HK4    C3863786   6.933   0.096   5.882 -0.4594 -0.3877  0.0270
  760HK4    H2063787   6.878   0.182   5.922  1.3469  0.3132  1.0342
  760HK4    C1463788   6.474  10.866   6.044 -0.2171  0.2081 -0.1530
  760HK4     C963789   6.415  10.873   6.171 -0.1811 -0.3840 -0.1036
  760HK4     C863790   6.418  10.761   6.258 -0.1386 -0.3151 -0.0178
  760HK4    C1163791   6.434  10.636   6.199  0.2084 -0.1485 -0.2794
  760HK4     H463792   6.409  10.547   6.258 -2.2226  1.0143  0.5129
  760HK4    C1263793   6.470  10.620   6.066  0.1803 -0.4095 -0.2580
  760HK4     H563794   6.462  10.523   6.015  1.6003  0.1345 -1.5741
  760HK4    C1363795   6.492  10.736   5.992 -0.3580  0.0250  0.2534
  760HK4     H663796   6.542  10.707   5.898 -0.5650 -3.2762  1.0934
  760HK4     C763797   6.399  10.780   6.403 -0.2551 -0.2091 -0.0447
  760HK4     O263798   6.436  10.693   6.483  0.5954 -0.0319 -0.2495
  760HK4     C463799   6.333  10.905   6.447  0.4709  0.2108 -0.1607
  760HK4     C363800   6.331  10.947   6.579  0.1358 -0.5702  0.0808
  760HK4     H363801   6.370  10.879   6.657  0.1484  0.4777  0.9926
  760HK4     C263802   6.263  11.060   6.624  0.2843 -0.1185 -0.8197
  760HK4     H263803   6.280  11.094   6.727  0.7198  0.4368 -1.0727
  760HK4     C163804   6.176  11.114   6.531 -0.2895 -0.3852 -0.4405
  760HK4     H163805   6.091  11.180   6.557  0.0523  0.9127 -2.4617
  760HK4     C663806   6.171  11.071   6.397  0.4222  0.3604 -0.7111
  760HK4     C563807   6.265  10.980   6.348 -0.0712 -0.3986 -0.2471
  760HK4    C1063808   6.316  10.978   6.208 -0.2029 -0.3361 -0.2972
  760HK4     O163809   6.284  11.071   6.135 -0.1138 -0.4846 -0.5223
  760HK4    C1663810   6.059  11.129   6.322 -0.4509 -0.2269  0.1305
  760HK4    C1563811   5.995  11.248   6.365 -0.0412 -0.0775  0.3244
  760HK4     H763812   6.048   0.064   6.436 -1.4006  0.2666  1.0508
  760HK4    C2063813   5.865   0.028   6.324  0.1196 -0.0400 -0.1525
  760HK4     H963814   5.814   0.111   6.372  0.4702 -0.3396  0.7533
  760HK4    C1963815   5.797  11.193   6.235 -0.1580  0.5298 -0.4731
  760HK4    C1863816   5.871  11.085   6.173 -0.0360  0.3411 -0.0017
  760HK4    C1763817   5.998  11.056   6.221  0.2299  0.3557 -0.7044
  760HK4     H863818   6.022  10.951   6.205 -0.3966 -0.1482  1.5594
  760HK4     N163819   5.786  11.014   6.085 -0.1952  0.4676  0.0526
  760HK4    C2163820   5.659  11.076   6.093 -0.3607  0.1281  0.0735
  760HK4    C2263821   5.660  11.186   6.188 -0.3343  0.0983  0.1100
  760HK4    C2663822   5.547   0.016   6.209 -0.5072 -0.1972  0.2829
  760HK4    H1363823   5.550   0.080   6.297  0.9730 -0.3010  0.3275
  760HK4    C2563824   5.433  11.233   6.136 -0.1288 -0.5952 -0.1436
  760HK4    H1263825   5.340   0.043   6.137  0.3920  0.2421  0.9053
  760HK4    C2463826   5.432  11.126   6.047 -0.6188 -0.5407 -0.2068
  760HK4    H1163827   5.347  11.105   5.980 -1.5133 -0.4281  0.8877
  760HK4    C2363828   5.542  11.045   6.025 -0.4109 -0.4285  0.4181
  760HK4    H1063829   5.542  10.972   5.944 -1.1642 -0.2226  0.2276
  760HK4    C3963830   5.828  10.946   5.971  0.0175  0.5144  0.1021
  760HK4    C4163831   5.951  10.966   5.906  0.1706 -0.1761  0.1745
  760HK4    H2163832   6.007  11.059   5.923  0.5665 -0.7757  2.3321
  760HK4    C4263833   5.997  10.878   5.808 -0.4346 -0.3473  0.0416
  760HK4    H2263834   6.104  10.870   5.787 -0.2006  1.7404  0.2757
  760HK4    C4363835   5.923  10.768   5.766 -0.1158 -0.6161  0.1862
  760HK4    H2363836   5.954  10.706   5.681  1.6722  0.6964 -0.1586
  760HK4    C4463837   5.798  10.748   5.823 -0.3018  0.0853  0.0251
  760HK4    H2463838   5.733  10.666   5.789  2.4706 -2.1672 -0.0316
  760HK4    C4563839   5.757  10.832   5.926  0.7637 -0.1711  0.6565
  760HK4    H2563840   5.657  10.811   5.967 -0.5639  1.6267 -1.5950
  761HK4    H2863841   3.526   7.886   3.962 -2.2035 -1.9539 -1.5388
  761HK4    C4863842   3.528   7.958   3.880 -0.6925  0.4809  0.5669
  761HK4    C4763843   3.417   7.953   3.796 -0.2934  0.4176  0.0464
  761HK4    H2763844   3.352   7.865   3.801  0.6966 -0.4514 -1.6111
  761HK4    C4663845   3.388   8.045   3.696  0.2676  0.2708 -0.2585
  761HK4    H2663846   3.312   8.026   3.619  0.3542 -1.5245  0.0992
  761HK4    C4063847   3.475   8.156   3.691  0.0341  0.4795  0.1946
  761HK4    C5063848   3.588   8.165   3.776  0.4533 -0.0302 -0.3043
  761HK4    H3063849   3.662   8.242   3.753  0.2035 -0.1128 -1.4558
  761HK4    C4963850   3.614   8.067   3.871 -0.8945  0.6594  0.7904
  761HK4    H2963851   3.707   8.079   3.928  0.1888  0.8674 -1.0025
  761HK4     N263852   3.445   8.260   3.602  0.2789  0.3140 -0.0856
  761HK4    C3063853   3.475   8.396   3.626 -0.5522  0.4515  0.2005
  761HK4    C2963854   3.477   8.462   3.748  0.5887  0.7472  0.0331
  761HK4    H1563855   3.494   8.415   3.845 -0.9240  1.6068  0.7392
  761HK4    C2863856   3.471   8.601   3.750  1.0881  0.7649  0.4412
  761HK4    C2763857   3.468   8.672   3.628 -0.2355 -0.1642 -0.0759
  761HK4    H1463858   3.460   8.781   3.617  0.2894 -0.4503 -3.9198
  761HK4    C3263859   3.468   8.611   3.503 -0.0657  0.0683 -0.1879
  761HK4    H1663860   3.463   8.676   3.416  1.8063  2.2838  1.2907
  761HK4    C3163861   3.467   8.472   3.503 -0.2081  0.0699 -0.0617
  761HK4    C3463862   3.436   8.376   3.399  0.3861 -0.1931  0.0004
  761HK4    C3363863   3.427   8.247   3.463 -0.0693 -0.1602  0.0048
  761HK4    C3563864   3.385   8.138   3.387  0.3859 -0.0084 -0.4589
  761HK4    H1763865   3.388   8.040   3.434  0.2934 -0.8472 -2.1493
  761HK4    C3663866   3.357   8.159   3.252 -0.3433 -0.4871 -0.3841
  761HK4    H1863867   3.323   8.071   3.196  0.8137 -2.6859  2.2182
  761HK4    C3763868   3.370   8.283   3.191  0.2185 -0.2231  0.2655
  761HK4    H1963869   3.344   8.286   3.085 -0.7679 -1.3954  0.4693
  761HK4    C3863870   3.405   8.396   3.265 -0.1626 -0.0312  0.1492
  761HK4    H2063871   3.426   8.487   3.209  0.2282 -1.2778 -1.7966
  761HK4    C1463872   3.447   8.670   3.877  0.5564  0.5615  0.4517
  761HK4     C963873   3.380   8.793   3.876 -0.6297 -0.0795  0.3940
  761HK4     C863874   3.434   8.903   3.946 -0.3350 -0.0999  0.2026
  761HK4    C1163875   3.529   8.883   4.046 -0.1774  0.2543  0.1273
  761HK4     H463876   3.564   8.972   4.099  1.6488  0.1774 -0.9242
  761HK4    C1263877   3.576   8.754   4.067 -1.1619 -0.0593  0.4782
  761HK4     H563878   3.623   8.718   4.160  1.6918 -1.1841 -1.3105
  761HK4    C1363879   3.542   8.652   3.979 -0.0761 -0.7216  0.8186
  761HK4     H663880   3.589   8.554   3.997 -1.5974 -1.6667 -0.2736
  761HK4     C763881   3.393   9.039   3.906  0.0553 -0.1007 -0.1960
  761HK4     O263882   3.468   9.130   3.938 -0.2376  0.0868 -0.0384
  761HK4     C463883   3.287   9.061   3.805  0.4217  0.0825 -0.5414
  761HK4     C363884   3.242   9.190   3.777 -0.4133 -0.0665  0.1187
  761HK4     H363885   3.303   9.278   3.799 -1.6183  0.3914  1.7313
  761HK4     C263886   3.129   9.207   3.698  0.0389  0.1299 -0.4806
  761HK4     H263887   3.083   9.307   3.701  2.2275  1.1905 -1.2527
  761HK4     C163888   3.080   9.098   3.625 -0.7175 -0.2026  0.5187
  761HK4     H163889   3.023   9.121   3.534 -0.3752  0.1282  0.3820
  761HK4     C663890   3.132   8.967   3.636 -0.6240 -0.1821  0.3540
  761HK4     C563891   3.226   8.952   3.739  0.2055  0.0961 -0.3637
  761HK4    C1063892   3.259   8.817   3.792 -0.1257  0.0388 -0.3032
  761HK4     O163893   3.165   8.739   3.811 -0.3065  0.3119 -0.0707
  761HK4    C1663894   3.067   8.870   3.547 -0.0588 -0.0903 -0.1564
  761HK4    C1563895   3.140   8.756   3.509  0.1413 -0.0014 -0.0414
  761HK4     H763896   3.240   8.784   3.471 -0.5667  0.9305 -1.2812
  761HK4    C2063897   3.072   8.642   3.469  0.4722 -0.3298  0.3206
  761HK4     H963898   3.135   8.556   3.447 -0.0101 -0.4593 -0.6231
  761HK4    C1963899   2.933   8.640   3.462  0.5006 -0.1213 -0.4110
  761HK4    C1863900   2.859   8.760   3.497  0.0152 -0.5891  0.1649
  761HK4    C1763901   2.928   8.873   3.539 -0.0369 -0.2725 -0.5924
  761HK4     H863902   2.874   8.966   3.550 -0.2575 -0.3318 -1.1942
  761HK4     N163903   2.720   8.740   3.487 -0.0288 -0.0375 -0.3063
  761HK4    C2163904   2.703   8.612   3.431 -0.7654 -0.2379  0.3621
  761HK4    C2263905   2.831   8.546   3.418 -0.4051  0.4434  0.4590
  761HK4    C2663906   2.828   8.411   3.386 -0.1068  0.6803 -0.5796
  761HK4    H1363907   2.921   8.354   3.385 -0.5660 -0.0631 -1.2985
  761HK4    C2563908   2.710   8.339   3.375 -0.0498  0.4473  0.3113
  761HK4    H1263909   2.716   8.231   3.361  0.6473  0.3081  1.6478
  761HK4    C2463910   2.586   8.402   3.380 -0.6207 -0.5942 -0.2565
  761HK4    H1163911   2.495   8.344   3.365 -1.2700  0.3804 -0.1481
  761HK4    C2363912   2.587   8.539   3.406 -0.4423 -0.6593  0.0917
  761HK4    H1063913   2.490   8.572   3.445  0.1079  1.6419 -0.4040
  761HK4    C3963914   2.624   8.825   3.545  0.1414 -0.0967  0.0648
  761HK4    C4163915   2.503   8.848   3.477  0.0017 -0.7952  0.0778
  761HK4    H2163916   2.476   8.818   3.375 -1.9232 -0.2964  0.4094
  761HK4    C4263917   2.398   8.919   3.534  0.2407  0.4157 -0.9567
  761HK4    H2263918   2.302   8.920   3.480 -0.9244 -4.1191  0.7952
  761HK4    C4363919   2.416   8.972   3.661  0.4058 -0.7242 -0.4952
  761HK4    H2363920   2.326   9.012   3.708  2.3012  1.6818  1.2549
  761HK4    C4463921   2.533   8.944   3.732  0.2518  0.2961  0.1852
  761HK4    H2463922   2.541   8.982   3.835  1.2141 -1.8905  0.9618
  761HK4    C4563923   2.640   8.874   3.676  0.2078  0.5114 -0.1679
  761HK4    H2563924   2.712   8.836   3.749  0.5072  0.2702 -0.5908
  762HK4    H2863925   9.613   3.930   1.295 -1.9753  1.9052  0.4633
  762HK4    C4863926   9.597   3.891   1.395  0.1599  0.3168  0.2212
  762HK4    C4763927   9.606   3.986   1.497 -0.1260 -0.2364  0.7693
  762HK4    H2763928   9.659   4.081   1.480 -1.0129 -0.0478 -1.0481
  762HK4    C4663929   9.555   3.956   1.622  0.3161  0.6955  1.1810
  762HK4    H2663930   9.577   4.031   1.699 -1.3243  2.7824 -0.3040
  762HK4    C4063931   9.489   3.834   1.650 -0.4318  0.8127 -0.0067
  762HK4    C5063932   9.475   3.741   1.546 -1.4117  0.5868  0.3209
  762HK4    H3063933   9.424   3.644   1.554 -1.3377  0.3984 -1.2854
  762HK4    C4963934   9.530   3.772   1.422 -0.1009  0.6119  0.9002
  762HK4    H2963935   9.560   3.681   1.367 -0.4375  0.3550  1.1410
  762HK4     N263936   9.427   3.822   1.775  0.0042  0.1044  0.1458
  762HK4    C3063937   9.395   3.702   1.842  1.0433  0.0480  0.5509
  762HK4    C2963938   9.467   3.583   1.846  0.7835 -0.1230  0.1830
  762HK4    H1563939   9.547   3.567   1.774  0.5162 -0.9079  0.0570
  762HK4    C2863940   9.442   3.476   1.930 -0.3814 -0.1586 -0.1957
  762HK4    C2763941   9.333   3.491   2.017 -0.2874  0.0183 -0.1052
  762HK4    H1463942   9.311   3.417   2.095 -2.0192 -0.1901 -0.7532
  762HK4    C3263943   9.255   3.606   2.022 -0.5512 -0.1561 -0.2305
  762HK4    H1663944   9.163   3.601   2.080  1.2935 -0.3779  2.7641
  762HK4    C3163945   9.289   3.714   1.940  0.2306 -0.4288 -0.2643
  762HK4    C3463946   9.256   3.855   1.935 -0.0028 -0.4695  0.1318
  762HK4    C3363947   9.344   3.917   1.838 -0.0640 -0.0762  0.3284
  762HK4    C3563948   9.331   4.055   1.825 -0.3100 -0.1754 -0.5113
  762HK4    H1763949   9.386   4.111   1.750  0.3186  2.6589  1.9624
  762HK4    C3663950   9.234   4.124   1.897  0.5328  0.1561  0.3278
  762HK4    H1863951   9.231   4.234   1.888 -0.7533  0.1539  0.5687
  762HK4    C3763952   9.147   4.062   1.986  0.2926 -0.1677 -0.1316
  762HK4    H1963953   9.092   4.112   2.066 -0.9607 -0.7658 -0.5956
  762HK4    C3863954   9.161   3.926   2.008 -0.4727 -0.3288 -0.6194
  762HK4    H2063955   9.128   3.888   2.104 -0.3169  0.0236 -0.4286
  762HK4    C1463956   9.504   3.344   1.910  0.3459  0.1277  0.1219
  762HK4     C963957   9.441   3.222   1.939  0.5146  0.1216  0.4711
  762HK4     C863958   9.517   3.112   1.984  0.2412 -0.3060 -0.0923
  762HK4    C1163959   9.652   3.128   2.016  0.2534 -0.1724 -0.2153
  762HK4     H463960   9.703   3.055   2.080 -0.2675 -0.5392 -0.2105
  762HK4    C1263961   9.718   3.243   1.976  0.3677 -0.2052 -0.1216
  762HK4     H563962   9.825   3.268   1.987 -0.3244  2.8330  0.3172
  762HK4    C1363963   9.644   3.349   1.924  0.2956  0.1340  0.6516
  762HK4     H663964   9.695   3.435   1.879  1.8426 -1.0813  0.0160
  762HK4     C763965   9.453   2.990   2.036 -0.3367 -0.3173 -0.8316
  762HK4     O263966   9.510   2.881   2.040  0.1742 -0.0102  0.3480
  762HK4     C463967   9.306   3.003   2.050 -0.2378  0.2529 -0.3364
  762HK4     C363968   9.247   2.908   2.132  0.4670 -0.2444 -0.4087
  762HK4     H363969   9.306   2.855   2.209  0.7975 -0.2530 -0.6649
  762HK4     C263970   9.117   2.865   2.108  0.4142 -0.2314 -0.1477
  762HK4     H263971   9.078   2.793   2.181 -1.6308  0.8427 -0.1530
  762HK4     C163972   9.047   2.930   2.007  0.1424 -0.1004  0.1245
  762HK4     H163973   8.963   2.870   1.967  1.1587 -0.1300 -2.0534
  762HK4     C663974   9.097   3.038   1.931 -0.5035  0.0370 -0.1128
  762HK4     C563975   9.229   3.076   1.956 -0.4397 -0.0161 -0.3800
  762HK4    C1063976   9.301   3.192   1.898  0.7178 -0.4409  0.1742
  762HK4     O163977   9.269   3.230   1.785 -0.3491  0.3155  0.7238
  762HK4    C1663978   8.997   3.093   1.839 -0.2515  0.1808 -0.3004
  762HK4    C1563979   8.892   3.015   1.785 -0.1927  0.1051 -0.3104
  762HK4     H763980   8.921   2.911   1.768 -1.1885 -0.1412 -0.5340
  762HK4    C2063981   8.769   3.062   1.740 -0.5158  0.1164  0.5845
  762HK4     H963982   8.684   2.997   1.722 -1.1666  0.8235  1.0349
  762HK4    C1963983   8.751   3.200   1.748 -0.6040  0.1313  0.1298
  762HK4    C1863984   8.864   3.285   1.781 -0.2601 -0.1081 -0.4167
  762HK4    C1763985   8.981   3.231   1.834 -0.2401  0.1865 -0.1524
  762HK4     H863986   9.058   3.296   1.875 -0.2640  1.1189 -1.5662
  762HK4     N163987   8.832   3.417   1.744  0.3445  0.2446  0.3064
  762HK4    C2163988   8.703   3.420   1.687  0.1737 -0.1256  0.6640
  762HK4    C2263989   8.648   3.287   1.695 -0.5409  0.1318  0.0092
  762HK4    C2663990   8.526   3.260   1.632 -0.3443 -0.2558 -0.2190
  762HK4    H1363991   8.485   3.160   1.641  2.8472 -1.5717  0.2376
  762HK4    C2563992   8.462   3.353   1.551  0.1760  0.2421 -0.0621
  762HK4    H1263993   8.356   3.343   1.529  0.0810 -3.2051  1.5669
  762HK4    C2463994   8.523   3.475   1.525 -0.0178  0.4015  0.2245
  762HK4    H1163995   8.490   3.530   1.436  2.5935  1.1667 -0.3332
  762HK4    C2363996   8.637   3.505   1.598  0.0371 -0.4245  0.4813
  762HK4    H1063997   8.706   3.574   1.550  0.0439 -0.9425 -0.2605
  762HK4    C3963998   8.926   3.521   1.749  0.4536  0.1506  0.2011
  762HK4    C4163999   8.866   3.648   1.759 -0.3469 -0.2309  0.2744
  762HK4    H2164000   8.772   3.656   1.817  1.0366  0.6284  2.4421
  762HK4    C4264001   8.922   3.762   1.704  0.5633 -0.6908  0.2438
  762HK4    H2264002   8.893   3.863   1.738  2.9909  0.2425 -0.3141
  762HK4    C4364003   9.038   3.755   1.628  0.2680  0.0377 -0.2878
  762HK4    H2364004   9.080   3.843   1.580  1.5456 -1.0809 -1.2743
  762HK4    C4464005   9.096   3.629   1.615  0.3536  0.1451 -0.9724
  762HK4    H2464006   9.179   3.630   1.544 -0.2749  0.1023 -1.7142
  762HK4    C4564007   9.044   3.513   1.673  0.4319  0.6489  0.1157
  762HK4    H2564008   9.115   3.432   1.696 -0.7885 -0.8244 -1.1627
  763HK4    H2864009   0.464   8.236   8.085  0.8619  0.1060  0.5096
  763HK4    C4864010   0.462   8.328   8.027  0.2928 -0.1305  0.1468
  763HK4    C4764011   0.366   8.424   8.058 -0.2683 -0.5064 -0.4281
  763HK4    H2764012   0.304   8.420   8.149 -1.4924 -1.7585 -1.2962
  763HK4    C4664013   0.349   8.533   7.973  0.2870 -0.0903 -0.0065
  763HK4    H2664014   0.252   8.584   7.971  1.1906  1.6360 -1.4148
  763HK4    C4064015   0.434   8.547   7.862 -0.2676 -0.3396 -0.4645
  763HK4    C5064016   0.537   8.453   7.839  0.0375  0.0448 -0.6780
  763HK4    H3064017   0.615   8.469   7.763 -0.5227  0.4796 -1.1687
  763HK4    C4964018   0.547   8.339   7.918 -0.1647  0.3836 -0.1587
  763HK4    H2964019   0.600   8.251   7.877 -1.0673  0.1577 -0.8723
  763HK4     N264020   0.448   8.675   7.806 -0.2111 -0.1044  0.0831
  763HK4    C3064021   0.479   8.693   7.670  0.5647 -0.5504  0.1985
  763HK4    C2964022   0.457   8.614   7.558 -0.1068 -0.5117  0.3030
  763HK4    H1564023   0.451   8.506   7.575  1.6654 -0.5145  0.9644
  763HK4    C2864024   0.470   8.657   7.427  0.4616 -0.1179  0.4892
  763HK4    C2764025   0.521   8.789   7.421  0.3317 -0.0891  0.0250
  763HK4    H1464026   0.515   8.842   7.325  1.4013 -0.2561 -0.1359
  763HK4    C3264027   0.562   8.869   7.526 -0.4275  0.2935  0.0364
  763HK4    H1664028   0.608   8.967   7.509 -2.3379  1.0393 -1.0291
  763HK4    C3164029   0.542   8.823   7.656 -0.2398 -0.1906 -0.1069
  763HK4    C3464030   0.555   8.887   7.785 -0.0538 -0.2130 -0.1133
  763HK4    C3364031   0.486   8.793   7.872 -0.0025 -0.1346  0.0117
  763HK4    C3564032   0.452   8.830   8.002 -0.4909  0.4955 -0.2949
  763HK4    H1764033   0.404   8.761   8.071 -1.3164  1.0576 -0.2997
  763HK4    C3664034   0.506   8.950   8.048  0.3192  0.0551 -0.1006
  763HK4    H1864035   0.505   8.975   8.155 -0.0946 -2.1221  0.4245
  763HK4    C3764036   0.570   9.042   7.965  0.1231 -0.1698 -0.4996
  763HK4    H1964037   0.603   9.133   8.015 -2.4894  1.9244 -2.4814
  763HK4    C3864038   0.599   9.009   7.833 -0.2112  0.0508 -0.6304
  763HK4    H2064039   0.618   9.089   7.762 -1.6075 -0.2662 -1.3772
  763HK4    C1464040   0.454   8.584   7.301 -0.8272  0.3880  0.3489
  763HK4     C964041   0.503   8.632   7.179 -0.5480 -0.3283  0.1776
  763HK4     C864042   0.415   8.634   7.068 -0.0122 -0.4972 -0.2521
  763HK4    C1164043   0.300   8.556   7.065 -0.5273  0.2517 -0.1163
  763HK4     H464044   0.230   8.571   6.982 -1.6975 -0.5235  0.7312
  763HK4    C1264045   0.271   8.480   7.177 -0.3022 -0.0826 -0.2844
  763HK4     H564046   0.197   8.399   7.162 -0.0555 -0.0655 -1.6506
  763HK4    C1364047   0.347   8.492   7.293 -0.8346  0.4259  0.0124
  763HK4     H664048   0.355   8.404   7.358  1.5909 -0.8246 -1.9046
  763HK4     C764049   0.446   8.709   6.944 -0.2761  0.8149  0.4607
  763HK4     O264050   0.359   8.727   6.859  0.4657  0.2963 -0.4241
  763HK4     C464051   0.582   8.768   6.940  0.1239 -0.1024  0.3144
  763HK4     C364052   0.624   8.819   6.818 -0.1808  0.6302  0.5141
  763HK4     H364053   0.555   8.838   6.734 -1.3768  0.5821  1.4689
  763HK4     C264054   0.754   8.863   6.796 -0.1025 -0.0459 -0.3970
  763HK4     H264055   0.796   8.891   6.698 -0.5954 -0.2826 -0.6745
  763HK4     C164056   0.837   8.879   6.907 -0.3281  0.5643 -0.3161
  763HK4     H164057   0.934   8.929   6.891 -0.4332  0.3560 -1.6930
  763HK4     C664058   0.794   8.845   7.037  0.2916 -0.0973 -0.2832
  763HK4     C564059   0.675   8.772   7.046  0.5652 -0.5171 -0.0584
  763HK4    C1064060   0.642   8.681   7.159 -0.5416 -0.5801 -0.4254
  763HK4     O164061   0.728   8.607   7.207 -0.0726 -0.2268 -0.7167
  763HK4    C1664062   0.837   8.934   7.146 -0.6408 -0.0171  0.0213
  763HK4    C1564063   0.879   9.066   7.124  0.3014 -0.2951  0.1592
  763HK4     H764064   0.859   9.104   7.023 -0.9545  1.2980  0.9774
  763HK4    C2064065   0.920   9.152   7.226  0.0447  0.4270 -0.3376
  763HK4     H964066   0.978   9.243   7.210  4.1436 -1.9670 -0.0187
  763HK4    C1964067   0.924   9.100   7.355  0.0638 -0.2754 -0.6206
  763HK4    C1864068   0.907   8.957   7.374  0.6020 -0.3041 -0.3507
  763HK4    C1764069   0.862   8.877   7.270 -0.5415 -0.0851 -0.0301
  763HK4     H864070   0.908   8.778   7.270  0.5713  0.4150  1.2423
  763HK4     N164071   0.910   8.929   7.513 -0.1104  0.1238 -0.2447
  763HK4    C2164072   0.918   9.054   7.578 -0.4288  0.0136  0.0025
  763HK4    C2264073   0.928   9.164   7.484 -0.9900 -0.3836 -0.5287
  763HK4    C2664074   0.902   9.295   7.525 -0.1453 -0.5047  0.4291
  763HK4    H1364075   0.903   9.379   7.455  1.0086  0.7330  1.9061
  763HK4    C2564076   0.876   9.319   7.659 -0.6899  0.0829  0.2202
  763HK4    H1264077   0.868   9.423   7.689 -0.6927  0.0918  0.1808
  763HK4    C2464078   0.865   9.213   7.748 -0.6845 -0.2223 -0.1372
  763HK4    H1164079   0.860   9.230   7.857 -0.3840 -0.4296 -0.0941
  763HK4    C2364080   0.883   9.081   7.710 -0.1898 -0.2284  0.1170
  763HK4    H1064081   0.870   8.996   7.777  1.8530  0.1590  1.0388
  763HK4    C3964082   0.928   8.803   7.570  0.3973  0.3558  0.1191
  763HK4    C4164083   0.975   8.781   7.701  0.1117 -0.1492  0.1391
  763HK4    H2164084   1.040   8.857   7.747 -0.2520 -0.2621  0.8494
  763HK4    C4264085   0.942   8.667   7.773 -0.1153  0.0376  0.3313
  763HK4    H2264086   0.951   8.673   7.882 -0.4701  0.0800  0.3610
  763HK4    C4364087   0.887   8.556   7.708  0.5457 -0.1044  0.0132
  763HK4    H2364088   0.882   8.463   7.765 -1.4159  0.3920  0.7062
  763HK4    C4464089   0.844   8.568   7.576  0.5304  0.0167  0.0280
  763HK4    H2464090   0.789   8.491   7.521  2.2144  0.8066 -2.8526
  763HK4    C4564091   0.867   8.689   7.512 -0.0621  0.3945  0.5229
  763HK4    H2564092   0.815   8.702   7.416  1.0531 -1.6213 -0.3748
  764HK4    H2864093   7.881   3.331   1.540 -0.2818  0.0204 -0.2498
  764HK4    C4864094   7.779   3.336   1.576 -0.2776 -0.8102 -0.1163
  764HK4    C4764095   7.678   3.383   1.492  0.2990 -0.1029 -0.4244
  764HK4    H2764096   7.698   3.404   1.386 -1.9178  3.6925 -0.1694
  764HK4    C4664097   7.549   3.383   1.543  0.5782 -0.0769  0.3028
  764HK4    H2664098   7.467   3.415   1.476  0.4763 -0.6588  0.1449
  764HK4    C4064099   7.515   3.325   1.667 -0.1153 -0.3724 -0.0210
  764HK4    C5064100   7.618   3.268   1.743  0.0928 -0.0590 -0.0655
  764HK4    H3064101   7.589   3.207   1.830 -0.3506 -0.0913 -0.2359
  764HK4    C4964102   7.750   3.279   1.699  0.2061 -0.4063  0.1870
  764HK4    H2964103   7.831   3.264   1.772 -1.0417  0.9254  1.8954
  764HK4     N264104   7.410   3.377   1.743  0.2976  0.2331  0.1462
  764HK4    C3064105   7.359   3.507   1.730  0.0998  0.1229 -0.1796
  764HK4    C2964106   7.432   3.626   1.726  0.1772  0.0837  0.0560
  764HK4    H1564107   7.538   3.613   1.705  0.2090  1.0848 -0.4169
  764HK4    C2864108   7.394   3.749   1.778 -0.3444  0.2555 -0.7263
  764HK4    C2764109   7.259   3.750   1.821  0.0199  0.2924  0.4301
  764HK4    H1464110   7.229   3.840   1.876  0.1979  1.3098 -1.0875
  764HK4    C3264111   7.178   3.638   1.831  0.2652  0.0818  0.0794
  764HK4    H1664112   7.076   3.644   1.868 -0.8490 -3.8978 -2.0404
  764HK4    C3164113   7.228   3.514   1.792  0.2200  0.0629  0.0823
  764HK4    C3464114   7.202   3.383   1.847  0.0333 -0.0024 -0.1643
  764HK4    C3364115   7.314   3.298   1.811  0.2022  0.1744 -0.0593
  764HK4    C3564116   7.318   3.163   1.843  0.0996  0.2257  0.1697
  764HK4    H1764117   7.407   3.104   1.820  0.0723  1.0601 -2.2634
  764HK4    C3664118   7.213   3.111   1.918  0.0254  0.2272  0.0662
  764HK4    H1864119   7.208   3.006   1.949 -2.2079 -0.0816 -1.2023
  764HK4    C3764120   7.100   3.189   1.940 -0.0388  0.2575 -0.3622
  764HK4    H1964121   7.007   3.142   1.972  0.0167  1.7227  2.1253
  764HK4    C3864122   7.088   3.321   1.898  0.1080  0.6496  0.8041
  764HK4    H2064123   6.992   3.373   1.904 -0.6751 -0.6172 -0.4313
  764HK4    C1464124   7.487   3.847   1.835 -0.7721 -0.0346  0.4835
  764HK4     C964125   7.479   3.911   1.959 -0.2815  0.1514  0.4208
  764HK4     C864126   7.515   4.046   1.972  0.7033 -0.0692  0.0336
  764HK4    C1164127   7.583   4.109   1.868  0.7078 -0.0783  0.0318
  764HK4     H464128   7.578   4.218   1.858  0.4632 -0.0179  0.7373
  764HK4    C1264129   7.617   4.036   1.755 -0.3459 -0.6194  0.0667
  764HK4     H564130   7.676   4.080   1.674  1.1773 -1.2805  0.8086
  764HK4    C1364131   7.567   3.907   1.736 -0.8089 -0.4596  0.1928
  764HK4     H664132   7.599   3.846   1.651  0.6970  1.7311 -0.8667
  764HK4     C764133   7.500   4.120   2.100  0.3364  0.0816 -0.0961
  764HK4     O264134   7.490   4.241   2.084  0.2082  0.0748 -0.0783
  764HK4     C464135   7.475   4.045   2.225  0.4239  0.1468 -0.0417
  764HK4     C364136   7.459   4.118   2.342  0.3202 -0.4728  0.3330
  764HK4     H364137   7.461   4.227   2.352 -0.4918 -0.3269 -0.9415
  764HK4     C264138   7.444   4.047   2.460  0.1387  0.0482  0.6239
  764HK4     H264139   7.422   4.101   2.554  0.0735  0.1309  0.5612
  764HK4     C164140   7.460   3.909   2.459 -0.1369  0.0245 -0.0707
  764HK4     H164141   7.470   3.858   2.556  2.0112  3.4737  1.6082
  764HK4     C664142   7.491   3.837   2.341 -0.4067 -0.0551 -0.0958
  764HK4     C564143   7.485   3.904   2.219  0.6312  0.1605 -0.0328
  764HK4    C1064144   7.466   3.836   2.088 -0.0379 -0.1930  0.2452
  764HK4     O164145   7.407   3.729   2.080 -0.5401  0.1164 -0.1827
  764HK4    C1664146   7.568   3.713   2.357 -0.1375  0.1101 -0.1061
  764HK4    C1564147   7.549   3.636   2.474 -0.2497  0.3480  0.0318
  764HK4     H764148   7.444   3.622   2.505  0.4123 -1.9339  1.3513
  764HK4    C2064149   7.653   3.561   2.529 -0.1960  0.1007 -0.3949
  764HK4     H964150   7.625   3.506   2.619  0.0931  2.0121  0.9138
  764HK4    C1964151   7.778   3.547   2.471 -0.3686  0.0693 -0.7580
  764HK4    C1864152   7.791   3.613   2.343 -0.3247  0.2743 -0.6467
  764HK4    C1764153   7.692   3.698   2.296 -0.3249  0.3351 -0.5370
  764HK4     H864154   7.705   3.748   2.199  1.2150  2.0508  0.5159
  764HK4     N164155   7.917   3.588   2.285 -0.1660  0.4053 -0.3607
  764HK4    C2164156   7.987   3.512   2.381 -0.3226  0.5017 -0.1686
  764HK4    C2264157   7.899   3.469   2.487 -0.5037 -0.1010 -0.5617
  764HK4    C2664158   7.934   3.370   2.579 -0.3129  0.6204  0.1500
  764HK4    H1364159   7.873   3.364   2.669  0.2032 -0.6628  0.4323
  764HK4    C2564160   8.065   3.324   2.580 -0.3571  0.4922  0.1337
  764HK4    H1264161   8.097   3.253   2.656  0.9425 -0.1304 -0.9627
  764HK4    C2464162   8.156   3.384   2.492 -0.4320  0.2214 -0.1304
  764HK4    H1164163   8.263   3.360   2.499 -0.8496 -1.1946  2.1048
  764HK4    C2364164   8.120   3.472   2.391 -0.4916 -0.1342 -0.4196
  764HK4    H1064165   8.200   3.503   2.324  0.6377  0.9582  1.4133
  764HK4    C3964166   7.956   3.605   2.151 -0.1295  0.5001 -0.3385
  764HK4    C4164167   8.093   3.610   2.118 -0.0096 -0.3892  0.0229
  764HK4    H2164168   8.165   3.651   2.189 -1.1273  0.8715  0.4531
  764HK4    C4264169   8.137   3.582   1.989 -0.2146 -0.8100  0.0407
  764HK4    H2264170   8.241   3.596   1.957 -0.3003 -0.3425 -0.0416
  764HK4    C4364171   8.045   3.545   1.892 -0.4849 -0.2478  0.0818
  764HK4    H2364172   8.090   3.511   1.799  0.7730  4.5104 -1.1844
  764HK4    C4464173   7.909   3.545   1.921 -0.5742 -0.3775 -0.3353
  764HK4    H2464174   7.841   3.512   1.841 -0.0640 -1.8094 -0.1888
  764HK4    C4564175   7.865   3.567   2.051 -0.0167 -0.2250 -0.1694
  764HK4    H2564176   7.757   3.590   2.060  0.3811  1.1732  1.0713
  765HK4    H2864177   1.166   6.543   3.687 -0.2950  0.3445  1.8736
  765HK4    C4864178   1.060   6.530   3.662  0.0568 -0.0913  0.5606
  765HK4    C4764179   1.007   6.405   3.632 -0.5046  0.1946  0.3741
  765HK4    H2764180   1.079   6.325   3.610 -1.5656 -0.0244 -2.5233
  765HK4    C4664181   0.871   6.390   3.605 -0.4685 -0.2118  0.4109
  765HK4    H2664182   0.845   6.288   3.573  0.0334 -0.3912  0.5655
  765HK4    C4064183   0.785   6.502   3.600  0.1541  0.2525 -0.0399
  765HK4    C5064184   0.841   6.626   3.636  0.1231  0.1632  0.3254
  765HK4    H3064185   0.766   6.702   3.662 -0.3691 -0.3869  0.4956
  765HK4    C4964186   0.977   6.641   3.662  0.1008 -0.0592  0.5610
  765HK4    H2964187   1.030   6.737   3.664 -0.0932  0.0626 -0.1384
  765HK4     N264188   0.662   6.500   3.533  0.0887 -0.1252  0.0897
  765HK4    C3064189   0.626   6.420   3.422  0.0646 -0.2791  0.2078
  765HK4    C2964190   0.709   6.372   3.321 -0.3259  0.0048 -0.2459
  765HK4    H1564191   0.817   6.382   3.326 -0.4351  0.7233  0.9777
  765HK4    C2864192   0.659   6.322   3.202 -0.3335 -0.3561 -0.0905
  765HK4    C2764193   0.518   6.323   3.192 -0.3195 -0.0110 -0.2396
  765HK4    H1464194   0.476   6.270   3.106 -0.3645  0.8097 -0.7279
  765HK4    C3264195   0.429   6.361   3.291 -0.1047 -0.5407  0.1590
  765HK4    H1664196   0.321   6.373   3.278 -0.1128 -1.4554 -0.6259
  765HK4    C3164197   0.482   6.409   3.411  0.0707 -0.0218 -0.1237
  765HK4    C3464198   0.428   6.497   3.512 -0.0445  0.0861 -0.2798
  765HK4    C3364199   0.541   6.543   3.590 -0.0342 -0.1487 -0.1549
  765HK4    C3564200   0.516   6.619   3.703  0.4084  0.1352 -0.2464
  765HK4    H1764201   0.600   6.661   3.759 -0.6658 -0.7788  2.1217
  765HK4    C3664202   0.386   6.648   3.743  0.2035 -0.7417 -0.2698
  765HK4    H1864203   0.359   6.721   3.821  0.9835 -1.5118  0.7339
  765HK4    C3764204   0.282   6.593   3.669  0.0387 -0.3755 -0.3137
  765HK4    H1964205   0.180   6.596   3.706 -0.4482  0.1003 -1.6967
  765HK4    C3864206   0.296   6.522   3.551 -0.1443 -0.0101 -0.5553
  765HK4    H2064207   0.210   6.480   3.499  0.5953 -0.8090 -1.1663
  765HK4    C1464208   0.749   6.320   3.085 -0.0869  0.0935  0.0926
  765HK4     C964209   0.707   6.360   2.958  0.0112 -0.0142  0.0264
  765HK4     C864210   0.751   6.289   2.844  0.6047  0.5146 -0.0792
  765HK4    C1164211   0.850   6.194   2.867  0.1093  0.0466  0.1368
  765HK4     H464212   0.886   6.140   2.779 -1.3971  0.1028 -0.5101
  765HK4    C1264213   0.912   6.167   2.989  0.5352  0.0562 -0.0744
  765HK4     H564214   1.003   6.106   2.993  0.2025 -0.4208  0.4453
  765HK4    C1364215   0.857   6.231   3.100 -0.4343 -0.3946 -0.2876
  765HK4     H664216   0.891   6.213   3.203  1.0029  3.1240 -0.0839
  765HK4     C764217   0.702   6.321   2.708  0.1676  0.0844 -0.0256
  765HK4     O264218   0.716   6.235   2.621  0.6458  0.2512 -0.1163
  765HK4     C464219   0.620   6.443   2.690 -0.3810 -0.2846 -0.0175
  765HK4     C364220   0.590   6.489   2.562 -0.3224  0.0393  0.0846
  765HK4     H364221   0.616   6.429   2.474  0.2863  1.2824 -0.5869
  765HK4     C264222   0.523   6.608   2.539 -0.2173  0.0439 -0.1991
  765HK4     H264223   0.519   6.640   2.434 -1.1791 -0.4013 -0.3013
  765HK4     C164224   0.481   6.677   2.653  0.2738  0.0620 -0.0312
  765HK4     H164225   0.445   6.779   2.633 -0.1048 -0.5509 -2.7764
  765HK4     C664226   0.489   6.625   2.784 -0.6548 -0.6401 -0.2505
  765HK4     C564227   0.568   6.511   2.801  0.3594  0.1068  0.0925
  765HK4    C1064228   0.625   6.482   2.936 -0.2983 -0.1735  0.3128
  765HK4     O164229   0.647   6.570   3.019  0.4200 -0.5791  0.5547
  765HK4    C1664230   0.413   6.698   2.887 -0.1948 -0.2819 -0.1638
  765HK4    C1564231   0.339   6.623   2.980 -0.5676 -0.4851 -0.6192
  765HK4     H764232   0.314   6.516   2.971  0.9953 -1.3898  4.2689
  765HK4    C2064233   0.314   6.676   3.106  0.0254  0.0593 -0.7291
  765HK4     H964234   0.267   6.613   3.182  0.4392  0.1887 -0.3655
  765HK4    C1964235   0.353   6.805   3.141  0.3231 -0.2718  0.1580
  765HK4    C1864236   0.420   6.888   3.043  0.2683 -0.2533  0.1368
  765HK4    C1764237   0.446   6.829   2.920 -0.2489 -0.3261  0.0605
  765HK4     H864238   0.517   6.877   2.852  0.6959 -2.4714 -0.5079
  765HK4     N164239   0.466   7.010   3.096 -0.3559  0.1147 -0.1673
  765HK4    C2164240   0.420   7.004   3.229  0.2200  0.1006  0.0326
  765HK4    C2264241   0.349   6.882   3.264  0.2959  0.0368 -0.0351
  765HK4    C2664242   0.294   6.861   3.390 -0.4317  0.3635 -0.2991
  765HK4    H1364243   0.250   6.763   3.409  0.0463 -0.1709 -1.8656
  765HK4    C2564244   0.289   6.965   3.482  0.0931  0.3637 -0.2675
  765HK4    H1264245   0.247   6.953   3.582 -1.8939 -0.3756 -1.1558
  765HK4    C2464246   0.348   7.085   3.447  0.2900  0.3530  0.0304
  765HK4    H1164247   0.336   7.171   3.515 -0.7514  1.7091 -1.8116
  765HK4    C2364248   0.417   7.102   3.327  0.7858 -0.0959  0.2500
  765HK4    H1064249   0.470   7.197   3.322 -0.0645  0.4437  1.1253
  765HK4    C3964250   0.499   7.124   3.021  0.0117  0.0349 -0.1301
  765HK4    C4164251   0.565   7.228   3.089  0.2649 -0.0132 -0.3053
  765HK4    H2164252   0.637   7.192   3.165 -0.3883 -1.3128 -0.2920
  765HK4    C4264253   0.564   7.361   3.048 -0.2656  0.0658 -0.0366
  765HK4    H2264254   0.587   7.442   3.118 -2.2843  0.8225 -0.2113
  765HK4    C4364255   0.506   7.384   2.924 -0.4043 -0.2018 -0.0229
  765HK4    H2364256   0.535   7.470   2.863 -1.0003 -0.9926 -1.4625
  765HK4    C4464257   0.438   7.283   2.856 -0.6386 -0.3699  0.4640
  765HK4    H2464258   0.385   7.314   2.765 -0.7983 -1.1917  0.2765
  765HK4    C4564259   0.430   7.152   2.901 -0.5818 -0.5058  0.0810
  765HK4    H2564260   0.399   7.070   2.835  0.4913 -0.3403 -0.6461
  766HK4    H2864261  10.978   4.094  10.849 -0.2977  0.7426 -1.3897
  766HK4    C4864262  10.902   4.020  10.823 -0.2204  0.2258 -0.1697
  766HK4    C4764263  10.910   3.951  10.702  0.6556  0.0689 -0.0285
  766HK4    H2764264  10.979   3.991  10.627 -1.1994  1.0905 -1.2241
  766HK4    C4664265  10.812   3.854  10.681  0.1491  0.5689 -0.0032
  766HK4    H2664266  10.813   3.792  10.590 -0.1784 -0.9731  1.0249
  766HK4    C4064267  10.714   3.829  10.779 -0.2013  0.1580 -0.4522
  766HK4    C5064268  10.710   3.905  10.898 -0.5285 -0.3766 -0.1183
  766HK4    H3064269  10.631   3.883  10.970  0.7673 -1.0922  1.1088
  766HK4    C4964270  10.804   4.006  10.920 -0.4146 -0.4061 -0.4546
  766HK4    H2964271  10.793   4.075  11.005  0.5496 -0.4419 -0.2959
  766HK4     N264272  10.622   3.726  10.756  0.0025 -0.1726  0.2128
  766HK4    C3064273  10.492   3.727  10.812 -0.2266  0.0311 -0.3125
  766HK4    C2964274  10.400   3.824  10.848 -0.1086 -0.0095  0.1000
  766HK4    H1564275  10.436   3.927  10.848 -0.6911  0.1993 -1.2184
  766HK4    C2864276  10.265   3.805  10.875 -0.0907  0.0692  0.2473
  766HK4    C2764277  10.218   3.674  10.856  0.0243  0.0834 -0.1391
  766HK4    H1464278  10.121   3.655  10.904  0.9729  0.7425  2.0679
  766HK4    C3264279  10.297   3.571  10.807  0.1299  0.0143  0.1811
  766HK4    H1664280  10.254   3.477  10.772  1.1525 -0.8359  1.1605
  766HK4    C3164281  10.434   3.595  10.796  0.1273 -0.1384 -0.2202
  766HK4    C3464282  10.538   3.509  10.744  0.3410 -0.0216  0.0196
  766HK4    C3364283  10.653   3.594  10.718  0.5115 -0.1200  0.4457
  766HK4    C3564284  10.765   3.536  10.661  0.5456  0.0801  0.3094
  766HK4    H1764285  10.844   3.607  10.636  0.9085 -0.3829  0.1068
  766HK4    C3664286  10.766   3.402  10.624  0.5205  0.2377 -0.2722
  766HK4    H1864287  10.861   3.361  10.587  0.8193 -0.6931  1.4223
  766HK4    C3764288  10.656   3.320  10.648  0.4181  0.4088 -0.1651
  766HK4    H1964289  10.646   3.230  10.588 -1.5419  0.1214  0.5585
  766HK4    C3864290  10.544   3.375  10.709  0.4253 -0.0945  0.3059
  766HK4    H2064291  10.461   3.307  10.727 -0.1008 -0.0542 -1.8051
  766HK4    C1464292  10.197   3.905  10.959  0.0290  0.3933 -0.0394
  766HK4     C964293  10.109   3.884  11.065 -0.4242 -0.4129 -0.5766
  766HK4     C864294  10.002   3.971  11.091  0.1312  0.0304  0.2849
  766HK4    C1164295   9.989   4.083  11.008  0.3327 -0.2565 -0.1322
  766HK4     H464296   9.922   4.160  11.049  2.6797  0.4869  2.5136
  766HK4    C1264297  10.082   4.115  10.910 -0.2018  0.1459 -0.5097
  766HK4     H564298  10.072   4.206  10.849 -2.1167  0.5833  0.4200
  766HK4    C1364299  10.186   4.026  10.886 -0.1437  0.1765 -0.3725
  766HK4     H664300  10.254   4.035  10.800  0.4601  0.1155  0.0974
  766HK4     C764301   9.898   3.937  11.191  0.3105 -0.0964  0.4269
  766HK4     O264302   9.808   4.014  11.222 -0.0319 -0.2327 -0.2082
  766HK4     C464303   9.914   3.808   0.015 -0.0752 -0.1820  0.3608
  766HK4     C364304   9.808   3.758   0.089 -0.3065  0.1126  0.2272
  766HK4     H364305   9.703   3.783   0.069 -0.3475 -0.1517  0.1143
  766HK4     C264306   9.837   3.662   0.185 -0.1238  0.2088  0.2685
  766HK4     H264307   9.765   3.655   0.268 -0.7499  2.1327 -0.0687
  766HK4     C164308   9.967   3.620   0.208 -0.0652  0.2873  0.0872
  766HK4     H164309   9.985   3.545   0.287  0.1353  0.1643 -0.0763
  766HK4     C664310  10.078   3.671   0.137  0.0112 -0.0529 -0.0355
  766HK4     C564311  10.045   3.761   0.034  0.1408  0.3819  0.3044
  766HK4    C1064312  10.140   3.781  11.169  0.0322  0.5455  0.2465
  766HK4     O164313  10.239   3.712  11.147 -0.6406 -0.3734  0.0492
  766HK4    C1664314  10.209   3.628   0.186  0.0722  0.2458  0.0687
  766HK4    C1564315  10.235   3.501   0.242  0.0055  0.3550  0.3447
  766HK4     H764316  10.157   3.426   0.220 -1.1472  2.0459 -1.4889
  766HK4    C2064317  10.357   3.474   0.303  0.4569  0.1620 -0.6372
  766HK4     H964318  10.382   3.375   0.339  1.2959  0.5519 -0.1275
  766HK4    C1964319  10.454   3.574   0.313  0.5452 -0.0337  0.4989
  766HK4    C1864320  10.433   3.702   0.250  0.4059 -0.2178  0.1717
  766HK4    C1764321  10.310   3.723   0.187  0.2187  0.0824  0.6303
  766HK4     H864322  10.292   3.825   0.153 -0.0003  0.6486  2.4037
  766HK4     N164323  10.553   3.774   0.236  0.3186 -0.0589  0.2189
  766HK4    C2164324  10.655   3.692   0.288  0.1590 -0.2361  0.2486
  766HK4    C2264325  10.596   3.572   0.343  0.6469 -0.5976 -0.0186
  766HK4    C2664326  10.682   3.472   0.388  0.2221 -1.0982 -0.3049
  766HK4    H1364327  10.637   3.397   0.453 -0.2511 -1.0513 -0.5755
  766HK4    C2564328  10.820   3.486   0.380  0.1224  0.3548  0.3323
  766HK4    H1264329  10.877   3.397   0.407  2.0773  1.4758 -0.0397
  766HK4    C2464330  10.875   3.599   0.322  0.2895 -0.2393 -0.6652
  766HK4    H1164331  10.985   3.606   0.329  0.1977  1.0026 -0.3644
  766HK4    C2364332  10.793   3.703   0.279  0.1017 -0.5257 -1.0007
  766HK4    H1064333  10.834   3.803   0.265 -0.0469 -0.4802 -1.1084
  766HK4    C3964334  10.576   3.886   0.154  0.5265 -0.5102 -0.3403
  766HK4    C4164335  10.667   3.985   0.196 -0.1832  0.1222 -0.2732
  766HK4    H2164336  10.710   3.970   0.296 -0.6684  0.6424  0.0115
  766HK4    C4264337  10.687   4.107   0.132  0.5245  0.0189 -0.2551
  766HK4    H2264338  10.736   4.186   0.190  3.6118 -0.8804 -1.5462
  766HK4    C4364339  10.610   4.125   0.017 -0.3655  0.0407  0.3352
  766HK4    H2364340  10.636   4.206  11.198  0.1454 -1.7034 -1.6213
  766HK4    C4464341  10.520   4.032  11.214 -0.6579  0.3884  0.2244
  766HK4    H2464342  10.463   4.062  11.125  0.5564  0.5556 -0.5124
  766HK4    C4564343  10.508   3.911   0.033  0.2025  0.1614 -0.0178
  766HK4    H2564344  10.465   3.824  11.229 -1.1532  0.6126  0.3296
  767HK4    H2864345   9.517   3.717   7.925 -1.1644 -1.5976 -2.9883
  767HK4    C4864346   9.606   3.660   7.899  0.2694 -0.6081 -0.4536
  767HK4    C4764347   9.690   3.684   7.791 -0.7079 -0.0851 -1.1054
  767HK4    H2764348   9.693   3.783   7.745  0.5654  0.3076 -0.2114
  767HK4    C4664349   9.790   3.598   7.747 -0.1840  0.1136 -0.3066
  767HK4    H2664350   9.887   3.634   7.708  2.1476 -2.0478  3.1798
  767HK4    C4064351   9.799   3.469   7.803 -0.1423  0.2185 -0.0678
  767HK4    C5064352   9.704   3.441   7.903  0.2664  0.1556  0.3003
  767HK4    H3064353   9.693   3.336   7.933  0.3021 -1.7266 -5.7811
  767HK4    C4964354   9.615   3.533   7.957  0.1458 -0.1382  0.6084
  767HK4    H2964355   9.554   3.515   8.046 -1.1315 -0.4743 -0.3223
  767HK4     N264356   9.861   3.361   7.739  0.4048  0.3704  0.2022
  767HK4    C3064357   9.876   3.231   7.794 -0.1537  0.2274  0.0138
  767HK4    C2964358   9.867   3.186   7.924 -0.0397  0.3380  0.0616
  767HK4    H1564359   9.888   3.253   8.007  2.0330  1.4961 -1.3774
  767HK4    C2864360   9.860   3.050   7.956  0.8076  0.4093  0.5703
  767HK4    C2764361   9.885   2.957   7.853 -0.1099  0.0766  0.6502
  767HK4    H1464362   9.895   2.848   7.866  0.3201  0.0917  0.4458
  767HK4    C3264363   9.903   2.997   7.721  0.2755  0.1756  0.7322
  767HK4    H1664364   9.912   2.929   7.636 -1.2948 -0.6668  1.2144
  767HK4    C3164365   9.893   3.132   7.689 -0.1717  0.0220  0.2062
  767HK4    C3464366   9.890   3.207   7.565  0.1903  0.0219  0.1960
  767HK4    C3364367   9.874   3.347   7.599  0.4106  0.0370  0.2356
  767HK4    C3564368   9.850   3.435   7.495  0.1889 -0.6903 -0.3325
  767HK4    H1764369   9.877   3.541   7.494 -1.5506 -0.2246 -3.3771
  767HK4    C3664370   9.825   3.392   7.365  0.8703 -0.1526 -0.6463
  767HK4    H1864371   9.805   3.468   7.288 -2.2308 -0.0202  0.2272
  767HK4    C3764372   9.842   3.257   7.335  0.4898 -0.3074 -0.1723
  767HK4    H1964373   9.838   3.223   7.232  3.5342  2.2889 -1.2434
  767HK4    C3864374   9.879   3.165   7.433  0.0797 -0.0505  0.2275
  767HK4    H2064375   9.889   3.059   7.411  2.9524  0.4813 -1.3191
  767HK4    C1464376   9.842   3.001   8.093  0.2968  0.2587  0.4471
  767HK4     C964377   9.857   2.867   8.131  0.1559  0.2794  0.5767
  767HK4     C864378   9.750   2.814   8.205 -0.1117  0.4769  0.3375
  767HK4    C1164379   9.658   2.893   8.273 -0.4471  0.4370 -0.0722
  767HK4     H464380   9.572   2.843   8.320 -2.2323  2.9059 -0.5826
  767HK4    C1264381   9.665   3.032   8.266 -0.2490  0.4481  0.3398
  767HK4     H564382   9.602   3.093   8.333 -1.0185  1.0888 -0.9621
  767HK4    C1364383   9.751   3.079   8.168  0.1547  0.0475  0.4961
  767HK4     H664384   9.748   3.188   8.155  2.1895  0.0669  0.0173
  767HK4     C764385   9.740   2.669   8.233  0.1425  0.3500 -0.2376
  767HK4     O264386   9.631   2.615   8.250  0.6557 -0.6767 -0.1366
  767HK4     C464387   9.859   2.586   8.202 -0.0323  0.0616 -0.1294
  767HK4     C364388   9.853   2.452   8.238  0.2941  0.0866  0.0190
  767HK4     H364389   9.771   2.423   8.306 -0.2397 -2.4868 -1.6275
  767HK4     C264390   9.929   2.354   8.175 -0.2834  0.0200 -0.5937
  767HK4     H264391   9.915   2.246   8.184 -0.9741  0.0325 -1.5092
  767HK4     C164392  10.021   2.403   8.082  0.2183  0.2505  0.0155
  767HK4     H164393  10.078   2.329   8.024 -0.0707  0.6004 -0.7263
  767HK4     C664394  10.041   2.539   8.051  0.2275  0.2229 -0.0975
  767HK4     C564395   9.967   2.633   8.124 -0.1906  0.0840 -0.3415
  767HK4    C1064396   9.975   2.780   8.103  0.2139  0.2492  0.9164
  767HK4     O164397  10.082   2.840   8.105  0.1741  0.3701 -0.0395
  767HK4    C1664398  10.089   2.558   7.914 -0.2458  0.3951 -0.2420
  767HK4    C1564399  10.041   2.481   7.806 -0.2789  0.0851 -0.0039
  767HK4     H764400   9.964   2.403   7.815 -0.1392 -0.4427 -3.0179
  767HK4    C2064401  10.071   2.511   7.674 -0.5713  0.2443 -0.0339
  767HK4     H964402  10.039   2.447   7.592  0.3331  0.4382 -0.5467
  767HK4    C1964403  10.159   2.616   7.649  0.4981 -0.6443 -0.0275
  767HK4    C1864404  10.228   2.682   7.758 -0.4931  0.3316  0.0185
  767HK4    C1764405  10.187   2.654   7.888  0.7136 -0.4336  0.2534
  767HK4     H864406  10.248   2.690   7.970 -0.7344  0.7206  0.8545
  767HK4     N164407  10.296   2.797   7.714  0.1734 -0.2263 -0.4331
  767HK4    C2164408  10.260   2.819   7.579  0.0739 -0.0692 -0.3813
  767HK4    C2264409  10.174   2.710   7.540 -0.3892  0.0075  0.4102
  767HK4    C2664410  10.110   2.723   7.417 -0.1614 -0.1678  0.2733
  767HK4    H1364411  10.051   2.637   7.383  1.0434 -1.4777  1.4304
  767HK4    C2564412  10.141   2.829   7.333 -0.9545  0.0934  0.3042
  767HK4    H1264413  10.077   2.851   7.247 -1.0847 -1.2911  0.0272
  767HK4    C2464414  10.235   2.924   7.370 -0.5098 -0.1978 -0.0591
  767HK4    H1164415  10.294   2.977   7.294  1.0995 -0.5676  0.9189
  767HK4    C2364416  10.290   2.928   7.497 -0.8680  0.5453  0.0799
  767HK4    H1064417  10.386   2.979   7.505 -0.3685  0.3308 -3.7423
  767HK4    C3964418  10.423   2.831   7.761 -0.5449  0.5301  1.0071
  767HK4    C4164419  10.482   2.958   7.742  0.5514 -0.1823 -0.4731
  767HK4    H2164420  10.419   3.042   7.712  1.1194  0.8209  1.0682
  767HK4    C4264421  10.617   2.985   7.764  0.4129  0.0401  0.1264
  767HK4    H2264422  10.653   3.086   7.740  0.8923  0.4841  2.6205
  767HK4    C4364423  10.701   2.881   7.802  0.2916 -0.0286  0.2058
  767HK4    H2364424  10.808   2.894   7.813  0.5636 -0.5881 -1.5846
  767HK4    C4464425  10.649   2.752   7.810 -0.5244  0.2516 -0.4813
  767HK4    H2464426  10.727   2.675   7.820  0.4931  1.3007 -0.1639
  767HK4    C4564427  10.515   2.727   7.787 -0.5338  0.1941 -0.3559
  767HK4    H2564428  10.482   2.622   7.795  2.0851 -0.7292 -1.3426
  768HK4    H2864429   6.744   4.223   5.245  1.6918  0.0865 -0.4857
  768HK4    C4864430   6.714   4.220   5.140 -0.6060 -0.4766  0.1377
  768HK4    C4764431   6.598   4.285   5.103 -0.8120 -0.9642 -0.0781
  768HK4    H2764432   6.542   4.336   5.183  1.9291  0.3739  1.0220
  768HK4    C4664433   6.577   4.307   4.967  0.0604  0.2508 -0.0238
  768HK4    H2664434   6.496   4.377   4.943 -0.0225 -0.0238 -0.5621
  768HK4    C4064435   6.666   4.262   4.867 -0.0486 -0.2012  0.0797
  768HK4    C5064436   6.782   4.195   4.910  0.1326  0.1326  0.1138
  768HK4    H3064437   6.861   4.169   4.837  0.0549  1.5600 -0.4928
  768HK4    C4964438   6.803   4.170   5.045 -0.4681 -0.2357  0.1417
  768HK4    H2964439   6.891   4.116   5.082 -0.5269  0.5330  1.4620
  768HK4     N264440   6.623   4.242   4.736  0.2230  0.1063 -0.0608
  768HK4    C3064441   6.491   4.240   4.684  0.1246  0.7986  0.1556
  768HK4    C2964442   6.380   4.182   4.743  0.3852 -0.1737 -0.2837
  768HK4    H1564443   6.385   4.164   4.851  1.2294 -1.1520 -0.4770
  768HK4    C2864444   6.264   4.146   4.675  0.3190 -0.0871 -0.2186
  768HK4    C2764445   6.265   4.172   4.536 -0.1875  0.0773 -0.1897
  768HK4    H1464446   6.173   4.154   4.477 -0.5620  1.1053  0.0797
  768HK4    C3264447   6.372   4.223   4.464 -0.1098  0.2987  0.0820
  768HK4    H1664448   6.363   4.277   4.370  1.1373  1.0670  0.3912
  768HK4    C3164449   6.486   4.247   4.539  0.2772 -1.2587  0.0241
  768HK4    C3464450   6.624   4.264   4.496  0.0130  0.4941 -0.1949
  768HK4    C3364451   6.700   4.258   4.619 -0.0365  0.6213 -0.1609
  768HK4    C3564452   6.833   4.298   4.607  0.0483  0.3766 -0.0528
  768HK4    H1764453   6.894   4.331   4.691  0.0808 -1.1654  0.5570
  768HK4    C3664454   6.891   4.326   4.484  0.3120  0.2801  0.0507
  768HK4    H1864455   7.001   4.312   4.483  0.5734  2.0383  1.3866
  768HK4    C3764456   6.813   4.327   4.369  0.3765  0.0097  0.0047
  768HK4    H1964457   6.846   4.363   4.272  1.4949  2.3903  1.2218
  768HK4    C3864458   6.677   4.298   4.373  0.1968  0.8449 -0.0213
  768HK4    H2064459   6.613   4.303   4.284 -2.6664 -1.9919  1.7905
  768HK4    C1464460   6.180   4.042   4.734  0.2953 -0.1842 -0.4218
  768HK4     C964461   6.128   3.932   4.665 -0.2547  0.0451 -0.3756
  768HK4     C864462   6.007   3.871   4.703 -0.3900  0.4620 -0.1280
  768HK4    C1164463   5.945   3.920   4.818 -0.4038 -0.0144  0.0697
  768HK4     H464464   5.842   3.886   4.836  0.6236 -2.8305  0.9585
  768HK4    C1264465   6.005   4.017   4.897 -0.2033  0.3246 -0.4940
  768HK4     H564466   5.976   4.029   5.002  0.4248  1.7002 -0.4605
  768HK4    C1364467   6.125   4.076   4.860  0.1793 -0.4017 -0.4128
  768HK4     H664468   6.188   4.138   4.925  0.3527  1.0284 -1.9006
  768HK4     C764469   5.954   3.762   4.619 -0.1351 -0.0568  0.3815
  768HK4     O264470   5.846   3.713   4.651 -0.0768 -0.2746  0.2546
  768HK4     C464471   6.027   3.713   4.499 -0.1609  0.2504  0.2417
  768HK4     C364472   5.962   3.631   4.408 -0.3302  0.6919 -0.0393
  768HK4     H364473   5.906   3.541   4.441 -0.8741  0.1321 -2.4087
  768HK4     C264474   5.987   3.626   4.271  0.4883 -0.3329  0.1386
  768HK4     H264475   5.910   3.597   4.198  0.2973  1.3252 -0.3305
  768HK4     C164476   6.098   3.702   4.237 -0.0015  0.3813  0.1303
  768HK4     H164477   6.128   3.688   4.132  0.8484  0.5564  0.3480
  768HK4     C664478   6.178   3.781   4.322 -0.0784  0.2012  0.3729
  768HK4     C564479   6.141   3.785   4.457  0.1529 -0.1288  0.4428
  768HK4    C1064480   6.208   3.879   4.551  0.2954  0.3533 -0.1347
  768HK4     O164481   6.330   3.870   4.555  0.2532 -0.5069 -0.6520
  768HK4    C1664482   6.248   3.895   4.261  0.0520 -0.1627 -0.1586
  768HK4    C1564483   6.181   3.968   4.161 -0.5451 -0.2640  0.1644
  768HK4     H764484   6.072   3.959   4.150 -0.6699  0.7174  0.4809
  768HK4    C2064485   6.245   4.055   4.073  0.2611 -1.0066  0.0172
  768HK4     H964486   6.184   4.120   4.010  1.3742  0.6282  0.5811
  768HK4    C1964487   6.384   4.059   4.079  0.2107  0.4174  0.3388
  768HK4    C1864488   6.457   3.976   4.172 -0.1224 -0.4387 -0.1504
  768HK4    C1764489   6.386   3.906   4.269  0.0375 -0.1924  0.1467
  768HK4     H864490   6.440   3.835   4.332  0.1538  0.6501  1.0100
  768HK4     N164491   6.593   3.970   4.136 -0.2037 -0.4430 -0.4594
  768HK4    C2164492   6.608   4.050   4.021  0.0864  0.4010  0.1559
  768HK4    C2264493   6.480   4.106   3.980  0.0089  0.1067 -0.0062
  768HK4    C2664494   6.475   4.195   3.874 -0.0412 -0.3904 -0.4245
  768HK4    H1364495   6.383   4.236   3.833 -0.5672 -0.8358  0.2902
  768HK4    C2564496   6.593   4.233   3.811 -0.1816  0.1752 -0.3494
  768HK4    H1264497   6.606   4.318   3.744 -1.3491 -0.4466 -1.3756
  768HK4    C2464498   6.715   4.175   3.843 -0.2306  0.2809  0.0263
  768HK4    H1164499   6.800   4.194   3.776 -0.1413  0.6759  0.2490
  768HK4    C2364500   6.722   4.089   3.952  0.0003 -0.0341 -0.2384
  768HK4    H1064501   6.815   4.034   3.969 -0.2915 -1.1859 -2.2035
  768HK4    C3964502   6.698   3.931   4.220 -0.1803  0.4006 -0.1003
  768HK4    C4164503   6.816   3.875   4.168 -0.4207 -0.4628  0.2758
  768HK4    H2164504   6.819   3.826   4.070 -1.3350  2.2999 -1.1835
  768HK4    C4264505   6.931   3.864   4.247 -0.3144  0.0833  0.2029
  768HK4    H2264506   7.025   3.823   4.209  0.6152 -0.1253  2.6746
  768HK4    C4364507   6.931   3.904   4.380  0.0809 -0.3687  0.3393
  768HK4    H2364508   7.013   3.871   4.444  0.0467 -1.2185 -0.0579
  768HK4    C4464509   6.816   3.963   4.430  0.0020  0.0412 -0.3252
  768HK4    H2464510   6.812   3.978   4.539  0.4244  1.9025 -0.5357
  768HK4    C4564511   6.697   3.963   4.358 -0.1813  0.0691 -0.0232
  768HK4    H2564512   6.601   3.989   4.406 -0.1594 -0.7481  0.4645
  769HK4    H2864513   3.115   7.398   3.539 -0.5106  0.5993  1.1138
  769HK4    C4864514   3.011   7.368   3.545 -0.4972  0.1814 -0.4261
  769HK4    C4764515   2.971   7.246   3.492 -0.5570  0.0948 -0.1873
  769HK4    H2764516   3.037   7.185   3.428  0.3131 -0.5971  1.3393
  769HK4    C4664517   2.844   7.200   3.523 -0.3502 -0.1735  0.2598
  769HK4    H2664518   2.822   7.101   3.479 -0.7640 -0.5811  1.3592
  769HK4    C4064519   2.743   7.267   3.596 -0.0136 -0.0601  0.6177
  769HK4    C5064520   2.790   7.392   3.641 -0.0315  0.4516 -0.7766
  769HK4    H3064521   2.728   7.470   3.689  2.4352  2.1126 -0.1896
  769HK4    C4964522   2.920   7.438   3.623  0.1542  0.3310  0.2102
  769HK4    H2964523   2.953   7.526   3.680  1.5867 -1.1333  1.7053
  769HK4     N264524   2.609   7.256   3.557  0.2155  0.3890 -0.3128
  769HK4    C3064525   2.563   7.213   3.431  0.5235 -1.0920  0.0722
  769HK4    C2964526   2.624   7.172   3.313  0.2168  0.0178 -0.4806
  769HK4    H1564527   2.724   7.210   3.292  1.3772 -1.5891  1.7693
  769HK4    C2864528   2.579   7.076   3.223 -0.5025 -0.1690  0.0736
  769HK4    C2764529   2.456   7.018   3.260 -0.1350 -0.6001  0.6246
  769HK4    H1464530   2.416   6.926   3.215  0.2570 -0.4849  0.0402
  769HK4    C3264531   2.382   7.071   3.365 -1.0002 -0.1369 -0.2097
  769HK4    H1664532   2.274   7.060   3.359 -0.7869 -2.1132 -0.9160
  769HK4    C3164533   2.425   7.174   3.448  0.1625 -0.1622 -0.7555
  769HK4    C3464534   2.384   7.210   3.582  0.6359 -0.0769 -0.6331
  769HK4    C3364535   2.501   7.267   3.646  0.3010  0.0945 -0.1718
  769HK4    C3564536   2.486   7.330   3.769 -0.3875  0.0794 -0.2451
  769HK4    H1764537   2.569   7.379   3.820 -1.1241  0.0845  0.9819
  769HK4    C3664538   2.358   7.335   3.824 -0.3031  0.0534 -0.0468
  769HK4    H1864539   2.334   7.379   3.922 -1.3032  0.5716 -0.5146
  769HK4    C3764540   2.247   7.282   3.761  0.2434 -0.6216 -0.4445
  769HK4    H1964541   2.160   7.258   3.822  1.4276 -0.0045  1.5394
  769HK4    C3864542   2.257   7.215   3.639  0.5929 -0.0621 -0.7289
  769HK4    H2064543   2.193   7.129   3.620  0.8525 -0.1730 -1.0988
  769HK4    C1464544   2.613   7.078   3.080 -0.1085  0.2422  0.1705
  769HK4     C964545   2.527   7.048   2.974 -0.1604 -0.5861  0.4467
  769HK4     C864546   2.574   6.975   2.863 -0.3930  0.2006 -0.1721
  769HK4    C1164547   2.709   6.946   2.851 -0.4549 -0.2055  0.1117
  769HK4     H464548   2.743   6.878   2.771 -0.9641 -0.1235 -0.1776
  769HK4    C1264549   2.799   6.988   2.947  0.1453 -0.2352 -0.4322
  769HK4     H564550   2.900   7.014   2.912  0.3059  2.1611  1.6552
  769HK4    C1364551   2.749   7.044   3.064 -0.3594 -0.4332 -0.5555
  769HK4     H664552   2.816   7.072   3.147  0.2391 -0.5661 -0.9921
  769HK4     C764553   2.474   6.926   2.764 -0.3851  0.2888 -0.2246
  769HK4     O264554   2.509   6.836   2.688 -0.4740 -0.0396  0.1206
  769HK4     C464555   2.329   6.955   2.775 -0.3036  0.7699 -0.3831
  769HK4     C364556   2.236   6.910   2.683 -0.0836  0.4494 -0.4534
  769HK4     H364557   2.277   6.850   2.601  1.0948  0.5096  0.0826
  769HK4     C264558   2.099   6.921   2.704 -0.0984  0.0258 -0.3254
  769HK4     H264559   2.034   6.915   2.615 -2.0696 -1.2081  1.1663
  769HK4     C164560   2.053   6.963   2.829 -0.4695 -0.3141 -0.3471
  769HK4     H164561   1.946   6.979   2.849 -0.6702 -0.5080 -1.2273
  769HK4     C664562   2.145   7.010   2.924 -0.4490 -0.6078 -0.2207
  769HK4     C564563   2.281   7.018   2.892 -0.4424  0.0386 -0.0364
  769HK4    C1064564   2.382   7.082   2.981 -0.1535 -0.4666 -0.0012
  769HK4     O164565   2.358   7.197   3.016 -0.1474 -0.4861  0.0701
  769HK4    C1664566   2.100   7.002   3.064 -0.0817 -0.3607 -0.0874
  769HK4    C1564567   2.032   6.885   3.105 -0.3998 -0.1086  0.0964
  769HK4     H764568   2.091   6.793   3.095  1.7691  1.3216 -0.7249
  769HK4    C2064569   1.928   6.891   3.198 -0.2475  0.1590  0.2521
  769HK4     H964570   1.863   6.804   3.212  1.8313 -1.8172 -1.7100
  769HK4    C1964571   1.898   7.011   3.260 -0.1740  0.2437  0.1246
  769HK4    C1864572   1.979   7.126   3.227  0.0013  0.0499 -0.1158
  769HK4    C1764573   2.066   7.125   3.118 -0.1746 -0.3116 -0.2554
  769HK4     H864574   2.121   7.213   3.085  1.5853 -1.7940 -1.3656
  769HK4     N164575   1.950   7.236   3.309 -0.2100 -0.2132  0.1615
  769HK4    C2164576   1.854   7.185   3.400  0.0484 -0.3304  0.3693
  769HK4    C2264577   1.814   7.049   3.373 -0.6525 -0.0293 -0.1368
  769HK4    C2664578   1.730   6.978   3.458 -0.4229 -0.2944 -0.1267
  769HK4    H1364579   1.724   6.873   3.431  2.5724 -0.3664 -0.6775
  769HK4    C2564580   1.695   7.042   3.576 -0.4559  0.1998 -0.4032
  769HK4    H1264581   1.647   6.990   3.658  0.0935 -0.0008 -0.2074
  769HK4    C2464582   1.729   7.175   3.601  0.5141 -0.0584 -0.3644
  769HK4    H1164583   1.687   7.219   3.693  0.0292 -1.0721 -0.0893
  769HK4    C2364584   1.811   7.248   3.516  0.5470  0.4744  0.1226
  769HK4    H1064585   1.841   7.347   3.551 -0.1560  0.2035  1.5214
  769HK4    C3964586   2.028   7.352   3.318  0.0052 -0.3793  0.4248
  769HK4    C4164587   1.973   7.471   3.370 -0.0529 -0.3230  0.2387
  769HK4    H2164588   1.863   7.482   3.365 -0.0131 -0.7423 -2.2406
  769HK4    C4264589   2.053   7.580   3.402 -0.9871  0.3944  0.1511
  769HK4    H2264590   2.012   7.666   3.456 -0.9482 -1.0166  2.4801
  769HK4    C4364591   2.187   7.584   3.364 -0.7147 -0.0160  1.0623
  769HK4    H2364592   2.251   7.672   3.358 -1.8581  0.7794  0.1221
  769HK4    C4464593   2.243   7.475   3.300 -0.3326 -0.0824  1.5100
  769HK4    H2464594   2.345   7.485   3.260 -1.1753 -0.2299 -0.7345
  769HK4    C4564595   2.165   7.361   3.287 -0.0446 -0.1468  0.2661
  769HK4    H2564596   2.213   7.276   3.236 -0.4931  1.0564 -2.2117
  770HK4    H2864597  11.244   9.938   4.735 -0.0521 -1.5779 -0.3662
  770HK4    C4864598   0.017   9.919   4.840 -0.4135 -0.2072 -0.0339
  770HK4    C4764599   0.112   9.823   4.873  0.3677  0.6232  0.1462
  770HK4    H2764600   0.182   9.797   4.792 -0.6190  1.6608 -1.0512
  770HK4    C4664601   0.132   9.781   5.004  0.3936  0.5371  0.1136
  770HK4    H2664602   0.177   9.682   5.021  0.7476  0.7923  0.6523
  770HK4    C4064603   0.057   9.841   5.107 -0.1489 -0.4617  0.3056
  770HK4    C5064604  11.213   9.942   5.071 -0.2902 -0.7562 -0.1776
  770HK4    H3064605  11.159  10.005   5.143  0.1727 -1.1295  0.4965
  770HK4    C4964606  11.190   9.981   4.940  0.3710  0.5585  0.0898
  770HK4    H2964607  11.129  10.071   4.921  1.7832  1.7012  0.8700
  770HK4     N264608   0.085   9.818   5.242 -0.1993 -0.0990  0.3803
  770HK4    C3064609   0.211   9.787   5.297  0.0478  0.1807 -0.0263
  770HK4    C2964610   0.333   9.816   5.238  0.0260 -0.7588 -0.5409
  770HK4    H1564611   0.342   9.887   5.155 -0.9227  0.3139  0.2692
  770HK4    C2864612   0.450   9.786   5.306  0.0410 -0.2949 -0.3601
  770HK4    C2764613   0.444   9.735   5.437 -0.3547  0.1502 -0.2039
  770HK4    H1464614   0.537   9.706   5.489  0.0089 -1.3112 -1.6374
  770HK4    C3264615   0.322   9.709   5.500 -0.1162  0.1933  0.2770
  770HK4    H1664616   0.308   9.671   5.601 -0.0946 -2.9188 -0.8194
  770HK4    C3164617   0.204   9.739   5.434  0.0582  0.3456  0.0338
  770HK4    C3464618   0.061   9.737   5.461  0.1938  0.6608  0.7605
  770HK4    C3364619  11.241   9.768   5.337  0.0106  0.2199  0.7478
  770HK4    C3564620  11.110   9.726   5.319  0.4323 -0.6517 -0.3350
  770HK4    H1764621  11.055   9.755   5.230 -1.4589 -1.7742  0.4263
  770HK4    C3664622  11.043   9.660   5.422  0.0963  0.6477  0.2898
  770HK4    H1864623  10.933   9.664   5.421  0.1199  2.3292  1.5401
  770HK4    C3764624  11.104   9.639   5.545  0.4732  0.1541  0.0165
  770HK4    H1964625  11.037   9.609   5.626 -0.1798  1.9445  0.1607
  770HK4    C3864626  11.234   9.683   5.565  0.4528 -0.0433  0.5878
  770HK4    H2064627   0.032   9.679   5.664  2.5893  0.2453 -0.3600
  770HK4    C1464628   0.571   9.762   5.226 -0.1855 -0.7538 -0.5712
  770HK4     C964629   0.673   9.671   5.256  0.0603 -0.0428  0.8083
  770HK4     C864630   0.808   9.701   5.228 -0.1377 -0.0745 -0.1846
  770HK4    C1164631   0.841   9.815   5.156 -0.3667 -0.1381 -0.3982
  770HK4     H464632   0.944   9.820   5.117  0.7178  0.2216  2.4200
  770HK4    C1264633   0.742   9.903   5.115 -0.1729  0.1756 -0.1914
  770HK4     H564634   0.776   9.995   5.064 -0.4617  0.8933  0.8923
  770HK4    C1364635   0.612   9.875   5.152  0.1670  0.1587  0.9941
  770HK4     H664636   0.536   9.949   5.123  1.8311  1.6029  0.2485
  770HK4     C764637   0.915   9.619   5.290 -0.3373 -0.7119 -0.6751
  770HK4     O264638   1.032   9.645   5.263 -0.2828 -0.1495  0.0915
  770HK4     C464639   0.876   9.507   5.378 -0.0615 -0.5106 -0.2982
  770HK4     C364640   0.984   9.445   5.440 -0.3072 -0.3389  0.3099
  770HK4     H364641   1.088   9.478   5.422  0.7239 -2.8956  1.3291
  770HK4     C264642   0.954   9.357   5.543  0.1177  0.2938  0.9764
  770HK4     H264643   1.031   9.285   5.575 -0.2154 -0.3837  0.2495
  770HK4     C164644   0.822   9.322   5.570  0.1115 -0.3002  0.1842
  770HK4     H164645   0.810   9.236   5.637  1.8675 -1.4815 -0.9733
  770HK4     C664646   0.712   9.372   5.497  0.0997 -0.2947  0.2063
  770HK4     C564647   0.742   9.470   5.401 -0.0346 -0.3677  0.0868
  770HK4    C1064648   0.637   9.544   5.326  0.0940 -0.7880 -0.5108
  770HK4     O164649   0.545   9.483   5.272 -0.1916 -0.4184 -0.4473
  770HK4    C1664650   0.588   9.377   5.575 -0.3889  0.4680 -0.6120
  770HK4    C1564651   0.582   9.427   5.706  0.2695 -0.7987 -0.0917
  770HK4     H764652   0.675   9.449   5.761  0.2028 -0.7574  0.0042
  770HK4    C2064653   0.463   9.432   5.778  0.1720  0.6760 -0.3448
  770HK4     H964654   0.457   9.454   5.884  0.5090 -2.3720  0.3493
  770HK4    C1964655   0.344   9.386   5.721  0.2394 -0.4646  0.4250
  770HK4    C1864656   0.354   9.328   5.589 -0.1607  0.6627 -0.1107
  770HK4    C1764657   0.473   9.325   5.516 -0.3787  0.2650 -0.4516
  770HK4     H864658   0.465   9.292   5.413  1.3140 -0.1644 -0.4467
  770HK4     N164659   0.227   9.277   5.555 -0.0213 -0.3131  0.7784
  770HK4    C2164660   0.135   9.321   5.652 -0.2635 -0.3262  0.5572
  770HK4    C2264661   0.204   9.400   5.753  0.1615  0.3592 -0.2588
  770HK4    C2664662   0.134   9.464   5.854  0.1431  0.0434 -0.0698
  770HK4    H1364663   0.179   9.515   5.940 -1.3984 -0.2853  0.9490
  770HK4    C2564664  11.244   9.445   5.854  0.0447  0.6852  0.4252
  770HK4    H1264665  11.198   9.477   5.947  2.5884 -0.6120  2.2012
  770HK4    C2464666  11.175   9.370   5.759  0.7089 -0.1855  0.6239
  770HK4    H1164667  11.066   9.366   5.770  0.4297  1.2289 -1.2469
  770HK4    C2364668  11.244   9.313   5.653 -0.3105  0.3172 -0.3278
  770HK4    H1064669  11.192   9.251   5.580 -0.7602  0.8529 -0.4565
  770HK4    C3964670   0.204   9.172   5.465  0.3968  0.3616 -0.1322
  770HK4    C4164671   0.083   9.152   5.395  0.0694 -0.7030  0.7244
  770HK4    H2164672   0.017   9.236   5.371  3.5378  1.9194 -0.1128
  770HK4    C4264673   0.041   9.028   5.347 -0.4458 -0.3297  0.2054
  770HK4    H2264674  11.195   9.015   5.291  0.2966 -1.2555 -0.8279
  770HK4    C4364675   0.122   8.918   5.370  0.0693 -0.0901 -0.4559
  770HK4    H2364676   0.122   8.841   5.292  0.6338 -0.1577 -0.3870
  770HK4    C4464677   0.239   8.935   5.443 -0.3891  0.0199  0.2542
  770HK4    H2464678   0.306   8.849   5.458 -1.6024 -1.0777 -0.5082
  770HK4    C4564679   0.282   9.058   5.491  0.1174  0.1056 -0.4194
  770HK4    H2564680   0.367   9.060   5.560  0.3098  0.5759 -0.6658
  771HK4    H2864681   0.595   8.760  10.085  1.2903 -2.3687 -1.0517
  771HK4    C4864682   0.600   8.772   9.977  0.0704 -0.1577 -0.8807
  771HK4    C4764683   0.527   8.681   9.902 -0.0205 -1.0111  0.2479
  771HK4    H2764684   0.478   8.599   9.957 -0.1146  0.0718  1.8159
  771HK4    C4664685   0.510   8.711   9.767  0.3020  0.1708  0.4651
  771HK4    H2664686   0.436   8.660   9.703 -0.3319  2.3490 -0.5653
  771HK4    C4064687   0.562   8.825   9.705  0.4211 -0.0351  0.1815
  771HK4    C5064688   0.640   8.910   9.787  0.0220  0.3279  0.1866
  771HK4    H3064689   0.694   8.991   9.737  0.2787  0.1142  0.1153
  771HK4    C4964690   0.657   8.887   9.923  0.3885  0.1567  0.1139
  771HK4    H2964691   0.718   8.958   9.981  1.7423  0.4311 -1.6075
  771HK4     N264692   0.562   8.832   9.565 -0.8308  0.5601  0.2082
  771HK4    C3064693   0.548   8.734   9.464  0.5758  0.4422  0.1344
  771HK4    C2964694   0.597   8.604   9.470 -0.3578  0.0654 -0.3930
  771HK4    H1564695   0.639   8.564   9.563 -3.9236 -1.0502  0.8215
  771HK4    C2864696   0.612   8.527   9.355  0.3521 -0.1834 -0.1380
  771HK4    C2764697   0.577   8.590   9.233 -0.3192  0.3113  0.3041
  771HK4    H1464698   0.598   8.535   9.140 -0.9738 -0.1871  0.4511
  771HK4    C3264699   0.527   8.719   9.215 -0.9152 -0.0073 -0.3272
  771HK4    H1664700   0.498   8.762   9.120 -1.4092  0.3777 -0.0087
  771HK4    C3164701   0.518   8.790   9.334  0.2721 -0.2380 -0.0926
  771HK4    C3464702   0.517   8.934   9.353  0.0743 -0.2096 -0.3379
  771HK4    C3364703   0.533   8.952   9.496 -0.0295  0.4060 -0.4005
  771HK4    C3564704   0.522   9.084   9.539 -1.1254  0.1203  0.2184
  771HK4    H1764705   0.502   9.108   9.643  1.4990  1.0212  0.5406
  771HK4    C3664706   0.500   9.187   9.448 -0.2820  0.0796 -0.0459
  771HK4    H1864707   0.472   9.288   9.483 -3.9882 -1.4746  1.8031
  771HK4    C3764708   0.487   9.163   9.312 -0.7056  0.0757 -0.0015
  771HK4    H1964709   0.450   9.251   9.258 -3.8542 -1.1162  0.0939
  771HK4    C3864710   0.484   9.034   9.262 -0.4789  0.0215  0.1140
  771HK4    H2064711   0.440   9.015   9.164 -1.5766  0.6927  0.4697
  771HK4    C1464712   0.684   8.400   9.361  0.5034 -0.0878  0.0667
  771HK4     C964713   0.765   8.339   9.265 -0.2720 -0.6568 -0.2272
  771HK4     C864714   0.763   8.200   9.240  0.3303 -0.6794 -0.1774
  771HK4    C1164715   0.688   8.122   9.327 -0.3257  0.0328 -0.0981
  771HK4     H464716   0.675   8.015   9.303  0.2754  0.1182 -0.7804
  771HK4    C1264717   0.617   8.175   9.434  0.0830  0.0900  0.1492
  771HK4     H564718   0.581   8.113   9.518  0.1796  1.9703  1.6040
  771HK4    C1364719   0.614   8.313   9.447 -0.0488  0.1186 -0.1740
  771HK4     H664720   0.555   8.349   9.533  1.6348 -0.5123  1.2656
  771HK4     C764721   0.844   8.137   9.134  0.3525 -0.2753 -0.3979
  771HK4     O264722   0.858   8.015   9.136 -0.1160 -0.3229  0.1454
  771HK4     C464723   0.898   8.224   9.027  0.0259  0.0034 -0.3362
  771HK4     C364724   0.952   8.173   8.910  0.3875 -0.2419 -0.0624
  771HK4     H364725   0.958   8.063   8.901  1.2367 -0.0400 -2.2850
  771HK4     C264726   0.998   8.248   8.802  0.1868  0.1150  0.1009
  771HK4     H264727   1.004   8.210   8.699  0.7515 -0.5423  0.3764
  771HK4     C164728   1.000   8.385   8.824  0.7999  0.0821  0.2706
  771HK4     H164729   1.059   8.459   8.768  2.8216  0.0466  2.2736
  771HK4     C664730   0.935   8.440   8.937  0.5162  0.1378  0.0839
  771HK4     C564731   0.892   8.364   9.046 -0.2451 -0.0111 -0.3225
  771HK4    C1064732   0.848   8.424   9.175  0.4676 -0.8146  0.3050
  771HK4     O164733   0.920   8.501   9.239  0.1616  0.0951 -0.4253
  771HK4    C1664734   0.869   8.566   8.899 -0.4347 -0.3775  0.0172
  771HK4    C1564735   0.797   8.591   8.781 -1.1344  0.1771  0.5548
  771HK4     H764736   0.779   8.514   8.704  2.2157 -0.3934  0.2359
  771HK4    C2064737   0.749   8.716   8.744  0.0233  0.4389 -0.1024
  771HK4     H964738   0.713   8.718   8.641  1.5425  0.0178 -0.6637
  771HK4    C1964739   0.765   8.827   8.826  0.1010  0.1978  0.2052
  771HK4    C1864740   0.835   8.804   8.951  0.1277 -0.1000  0.1352
  771HK4    C1764741   0.892   8.679   8.977 -0.6728 -0.4554  0.2007
  771HK4     H864742   0.968   8.671   9.054  0.2802  0.4806 -0.6281
  771HK4     N164743   0.825   8.917   9.035  0.1589  0.2334 -0.3121
  771HK4    C2164744   0.745   9.009   8.964 -0.1458  0.1508 -0.0720
  771HK4    C2264745   0.700   8.956   8.837  0.1197  0.2444 -0.2049
  771HK4    C2664746   0.587   9.005   8.772 -0.1825  0.2693  0.3370
  771HK4    H1364747   0.585   8.982   8.665 -1.5940 -1.0491  0.6340
  771HK4    C2564748   0.520   9.116   8.820 -0.0849  0.6298 -0.3370
  771HK4    H1264749   0.439   9.164   8.765 -0.5356  1.1114  0.7313
  771HK4    C2464750   0.560   9.162   8.945 -1.0467 -0.3414  0.3455
  771HK4    H1164751   0.494   9.231   9.000  1.4918  2.0222  0.5897
  771HK4    C2364752   0.667   9.110   9.018 -0.8313 -0.4046 -0.0156
  771HK4    H1064753   0.667   9.155   9.117 -0.6530 -0.9717  0.2416
  771HK4    C3964754   0.874   8.931   9.165  0.8391 -0.0348 -0.5350
  771HK4    C4164755   0.899   9.061   9.214  0.4843 -0.2433  0.2180
  771HK4    H2164756   0.913   9.140   9.137 -2.2179 -0.4261 -0.5077
  771HK4    C4264757   0.902   9.090   9.350 -0.0755  0.1123  0.1551
  771HK4    H2264758   0.911   9.194   9.385 -1.6009  0.0208  0.8742
  771HK4    C4364759   0.880   8.987   9.440 -0.6580  0.0427 -0.0614
  771HK4    H2364760   0.880   9.012   9.546  1.5481  0.0279 -0.0419
  771HK4    C4464761   0.859   8.856   9.397 -0.1727 -0.0055 -0.1443
  771HK4    H2464762   0.825   8.778   9.466 -0.8992 -1.5018 -2.1488
  771HK4    C4564763   0.861   8.829   9.261  0.6688  0.3024 -0.1957
  771HK4    H2564764   0.858   8.725   9.224  2.0942  0.2845 -0.2892
  772HK4    H2864765   3.708   2.633   4.243  1.6796  1.3511 -1.7233
  772HK4    C4864766   3.759   2.536   4.237  0.1475  0.3962  0.0217
  772HK4    C4764767   3.888   2.535   4.186  0.0094 -0.0751 -0.3312
  772HK4    H2764768   3.950   2.626   4.194 -2.0104  1.4527 -1.5239
  772HK4    C4664769   3.946   2.415   4.149  0.3963  0.0320 -0.0813
  772HK4    H2664770   4.038   2.411   4.088  0.9189 -1.4622  0.7705
  772HK4    C4064771   3.880   2.294   4.178 -0.2334  0.2773 -0.4723
  772HK4    C5064772   3.754   2.295   4.240 -0.0513 -0.2130 -0.0890
  772HK4    H3064773   3.711   2.197   4.267 -0.7344  0.4382  1.2324
  772HK4    C4964774   3.697   2.417   4.274  0.3717  0.1065 -0.5303
  772HK4    H2964775   3.608   2.414   4.338  0.9394 -1.2358  0.2259
  772HK4     N264776   3.949   2.172   4.177 -0.7780 -0.0308 -0.3996
  772HK4    C3064777   3.891   2.045   4.157 -0.8010 -0.1313  0.2704
  772HK4    C2964778   3.806   2.003   4.055 -0.4971  0.2554 -0.1494
  772HK4    H1564779   3.746   2.084   4.015  2.1150  1.1979 -2.3128
  772HK4    C2864780   3.787   1.868   4.025  0.6817  0.0943 -0.2129
  772HK4    C2764781   3.853   1.774   4.107 -0.1276 -0.1652  0.1505
  772HK4    H1464782   3.813   1.672   4.105 -1.0007  0.1441  1.1989
  772HK4    C3264783   3.944   1.812   4.205 -0.2862  0.1507  0.1780
  772HK4    H1664784   4.000   1.734   4.258 -0.4218 -0.6331 -0.8146
  772HK4    C3164785   3.967   1.946   4.232  0.1267  0.1705 -0.2578
  772HK4    C3464786   4.077   2.017   4.295 -0.0628  0.3048 -0.0754
  772HK4    C3364787   4.064   2.156   4.258 -0.8612  0.1880 -0.2388
  772HK4    C3564788   4.165   2.243   4.297 -0.4229 -0.4009 -0.0647
  772HK4    H1764789   4.151   2.349   4.275  1.0083 -0.1575  0.1332
  772HK4    C3664790   4.275   2.196   4.368 -0.0892 -0.1762 -0.4243
  772HK4    H1864791   4.348   2.273   4.395  1.3695 -1.7460  0.2407
  772HK4    C3764792   4.284   2.062   4.405 -0.1900 -0.1265 -0.2182
  772HK4    H1964793   4.366   2.031   4.470 -0.0844 -2.4427 -1.4121
  772HK4    C3864794   4.185   1.971   4.370 -0.1625 -0.1588 -0.2108
  772HK4    H2064795   4.179   1.873   4.417 -2.4920 -0.4312 -1.0133
  772HK4    C1464796   3.718   1.823   3.904 -0.0255 -0.5415  0.4225
  772HK4     C964797   3.598   1.880   3.860  0.6414  0.2804 -0.3356
  772HK4     C864798   3.564   1.880   3.723 -0.0187  0.1165 -0.1726
  772HK4    C1164799   3.639   1.809   3.631 -0.3301 -0.4834  0.0373
  772HK4     H464800   3.627   1.818   3.522 -0.5099 -0.2313  0.0763
  772HK4    C1264801   3.749   1.737   3.676 -0.4517 -0.6647  0.0474
  772HK4     H564802   3.821   1.690   3.608 -1.4223 -4.0645  1.2547
  772HK4    C1364803   3.788   1.745   3.810  0.0454  0.1980 -0.1412
  772HK4     H664804   3.876   1.687   3.840  0.0366  0.3699  0.2139
  772HK4     C764805   3.448   1.954   3.667 -0.2597 -0.0716  0.0740
  772HK4     O264806   3.394   1.918   3.562 -0.7321 -0.1421  0.3415
  772HK4     C464807   3.375   2.044   3.758 -0.2831 -0.2202  0.2026
  772HK4     C364808   3.272   2.117   3.701  0.3433  0.3716 -0.1795
  772HK4     H364809   3.257   2.116   3.592  0.5649 -0.5248 -0.2045
  772HK4     C264810   3.181   2.186   3.781 -0.0996 -0.4148 -0.0060
  772HK4     H264811   3.109   2.252   3.731  2.1027  0.6149 -1.9136
  772HK4     C164812   3.204   2.176   3.918  0.1922 -0.6680 -0.0726
  772HK4     H164813   3.119   2.216   3.975 -0.3245  1.6985 -2.4265
  772HK4     C664814   3.304   2.102   3.985  0.0285 -0.5386  0.3137
  772HK4     C564815   3.389   2.032   3.898  0.3389  0.0195  0.1666
  772HK4    C1064816   3.495   1.942   3.949  0.5680  0.0478 -0.2585
  772HK4     O164817   3.467   1.869   4.044  0.7067 -0.1766 -0.3887
  772HK4    C1664818   3.291   2.090   4.131  0.0487  0.2173  0.3800
  772HK4    C1564819   3.163   2.108   4.186 -0.0576 -0.3029  0.3113
  772HK4     H764820   3.082   2.074   4.120 -0.3330 -2.3340  1.6612
  772HK4    C2064821   3.138   2.129   4.321 -0.3166 -0.0852  0.2304
  772HK4     H964822   3.033   2.135   4.350 -0.0016 -0.1575  1.4021
  772HK4    C1964823   3.247   2.131   4.407 -0.1071  0.7476 -0.0469
  772HK4    C1864824   3.381   2.112   4.356  0.0460  0.3147  0.5035
  772HK4    C1764825   3.398   2.100   4.218 -0.0373 -0.4255  0.5590
  772HK4     H864826   3.497   2.121   4.176  0.4202 -0.8939  1.3830
  772HK4     N164827   3.479   2.131   4.455  0.5108  0.5589  0.0003
  772HK4    C2164828   3.403   2.167   4.568 -0.0979 -0.0357 -0.2217
  772HK4    C2264829   3.260   2.151   4.550 -0.1856  0.5002 -0.0042
  772HK4    C2664830   3.174   2.137   4.659 -0.2252  0.2458 -0.0708
  772HK4    H1364831   3.080   2.093   4.625  0.2494  0.1137 -1.2473
  772HK4    C2564832   3.224   2.146   4.788  0.2339  0.4293 -0.2588
  772HK4    H1264833   3.152   2.150   4.870 -0.5356  2.4853 -1.0264
  772HK4    C2464834   3.357   2.183   4.808  0.2310  0.3655 -0.1233
  772HK4    H1164835   3.391   2.214   4.908  1.7850 -3.3506  0.5705
  772HK4    C2364836   3.443   2.190   4.699 -0.0270  0.4325 -0.3255
  772HK4    H1064837   3.547   2.220   4.717  0.1001  2.0696 -3.4794
  772HK4    C3964838   3.603   2.066   4.465 -0.0242 -0.4065  0.3658
  772HK4    C4164839   3.707   2.133   4.532  0.0139 -0.0738 -0.0244
  772HK4    H2164840   3.709   2.242   4.524  2.2507 -0.1273 -0.6431
  772HK4    C4264841   3.821   2.058   4.562 -0.2312 -0.1389  0.7503
  772HK4    H2264842   3.912   2.106   4.601  0.1375 -0.8107  0.7344
  772HK4    C4364843   3.838   1.924   4.528 -0.0940  0.0575  0.0558
  772HK4    H2364844   3.928   1.870   4.555 -0.1914  0.4609  1.2268
  772HK4    C4464845   3.737   1.865   4.453  0.1119 -0.3484  0.0949
  772HK4    H2464846   3.746   1.759   4.428 -0.1320 -0.3384 -0.0360
  772HK4    C4564847   3.619   1.932   4.423  0.2099 -0.2442 -0.0683
  772HK4    H2564848   3.552   1.891   4.346  0.7942 -1.8898  0.2912
  773HK4    H2864849   4.719   0.749   0.486  3.1495 -2.4605  1.7165
  773HK4    C4864850   4.682   0.653   0.449 -0.1608 -0.4444 -0.4690
  773HK4    C4764851   4.741   0.589   0.341  0.1383 -0.2134 -0.4428
  773HK4    H2764852   4.836   0.624   0.299  1.3515 -2.0359  0.6778
  773HK4    C4664853   4.680   0.473   0.296 -0.1929 -0.1544 -0.1460
  773HK4    H2664854   4.725   0.408   0.219 -3.0937 -0.8748 -1.2884
  773HK4    C4064855   4.560   0.418   0.347 -0.1283 -0.3227 -0.1753
  773HK4    C5064856   4.498   0.493   0.449  0.0119 -0.1777 -0.1962
  773HK4    H3064857   4.402   0.457   0.489 -1.7935  0.3902 -3.8369
  773HK4    C4964858   4.560   0.608   0.497 -0.3457  0.1065 -0.4173
  773HK4    H2964859   4.506   0.661   0.577 -1.2209  1.3907 -1.8327
  773HK4     N264860   4.493   0.309   0.291 -0.2113 -0.2203 -0.2772
  773HK4    C3064861   4.516   0.258   0.161  0.6374 -0.3218 -0.0882
  773HK4    C2964862   4.589   0.309   0.054  0.7496  0.3790  0.3179
  773HK4    H1564863   4.610   0.416   0.053  0.8201  0.3693  0.6903
  773HK4    C2864864   4.612   0.236  11.187 -0.4118  0.1466  0.2209
  773HK4    C2764865   4.558   0.106  11.183 -0.4173  0.1540  0.0483
  773HK4    H1464866   4.592   0.040  11.102  1.2242  2.4226 -1.1796
  773HK4    C3264867   4.480   0.050   0.036  0.0399 -0.5645  0.0077
  773HK4    H1664868   4.419  11.210   0.016 -2.1221  0.7351  0.6858
  773HK4    C3164869   4.452   0.129   0.147  0.0348  0.0079 -0.3970
  773HK4    C3464870   4.400   0.098   0.278  0.1453 -0.0875 -0.3751
  773HK4    C3364871   4.425   0.211   0.366 -0.2782 -0.1217 -0.2086
  773HK4    C3564872   4.407   0.193   0.503 -0.6922 -0.0043 -0.2480
  773HK4    H1764873   4.440   0.266   0.577  0.3351 -0.2119 -0.4881
  773HK4    C3664874   4.362   0.069   0.547 -0.0641 -0.1058  0.1140
  773HK4    H1864875   4.353   0.065   0.656 -0.3443  2.4366  0.2072
  773HK4    C3764876   4.331  11.213   0.460  0.6187  0.0306 -0.3016
  773HK4    H1964877   4.290  11.121   0.502 -2.2152  1.8448  1.0629
  773HK4    C3864878   4.350  11.224   0.323 -0.3061  0.0765 -0.4284
  773HK4    H2064879   4.317  11.148   0.252  1.1673  0.9423 -2.0774
  773HK4    C1464880   4.683   0.302  11.076 -0.4723  0.0752  0.1401
  773HK4     C964881   4.659   0.271  10.942 -0.4218  0.2513  0.0908
  773HK4     C864882   4.763   0.249  10.849 -0.0570 -0.2131  0.6035
  773HK4    C1164883   4.892   0.281  10.888  0.0730  0.3931 -0.3002
  773HK4     H464884   4.981   0.242  10.836 -0.6987 -2.2151  0.2518
  773HK4    C1264885   4.917   0.329  11.016  0.0093  0.1335 -0.1901
  773HK4     H564886   5.017   0.359  11.049 -1.7396  1.9900  3.8512
  773HK4    C1364887   4.814   0.342  11.109 -0.2359 -0.2423 -0.4077
  773HK4     H664888   4.835   0.387  11.207  0.2742 -5.7336  2.1892
  773HK4     C764889   4.737   0.191  10.715 -0.1609 -0.5533  0.7709
  773HK4     O264890   4.827   0.180  10.633 -0.6054  0.5316  0.1190
  773HK4     C464891   4.599   0.147  10.684 -0.1822  0.3673 -0.4718
  773HK4     C364892   4.584   0.070  10.570  1.2341 -0.7526  0.0925
  773HK4     H364893   4.665   0.063  10.495 -0.4815  0.7378 -1.9738
  773HK4     C264894   4.467  11.246  10.551  0.5030  0.3492  0.3912
  773HK4     H264895   4.472  11.158  10.486 -2.3871  1.1283 -0.9610
  773HK4     C164896   4.366   0.003  10.647 -0.0334  0.1346 -0.1610
  773HK4     H164897   4.278  11.189  10.627 -0.1922 -0.5195  2.4532
  773HK4     C664898   4.381   0.076  10.767  0.5071 -0.2761  0.0251
  773HK4     C564899   4.496   0.155  10.780 -0.0680  0.6288 -0.3703
  773HK4    C1064900   4.519   0.240  10.901 -0.3780  0.0401  0.1074
  773HK4     O164901   4.441   0.329  10.932  0.2884  0.5689  0.2774
  773HK4    C1664902   4.299   0.030  10.880  0.5370 -0.6435 -0.1015
  773HK4    C1564903   4.272  11.141  10.900 -0.3272 -0.4414  0.1621
  773HK4     H764904   4.317  11.068  10.830  1.3766 -1.7856  2.6017
  773HK4    C2064905   4.200  11.105  11.013 -0.3533 -0.0857  0.2600
  773HK4     H964906   4.173  11.000  11.022  0.5853 -0.4130 -0.6043
  773HK4    C1964907   4.145  11.202  11.096  0.6124  0.3689  0.3699
  773HK4    C1864908   4.160   0.096  11.071 -0.1071  0.2732 -0.6307
  773HK4    C1764909   4.236   0.125  10.958  0.3544 -0.4347 -0.5048
  773HK4     H864910   4.213   0.223  10.916  1.2304 -1.2753 -3.0523
  773HK4     N164911   4.105   0.175  11.174 -0.1880 -0.2601 -0.2634
  773HK4    C2164912   4.056   0.084   0.021 -0.0767 -0.0797 -0.0318
  773HK4    C2264913   4.080  11.196  11.225 -0.3924 -0.0940 -0.1589
  773HK4    C2664914   4.048  11.096   0.068  0.0660 -0.2458 -0.1672
  773HK4    H1364915   4.056  10.992   0.035 -0.2875 -0.4328  0.3199
  773HK4    C2564916   4.004  11.123   0.197  0.4677 -0.4200  0.0085
  773HK4    H1264917   3.985  11.060   0.284 -0.2988  0.9292  0.8360
  773HK4    C2464918   3.982   0.007   0.236  0.1244 -0.3413 -0.4470
  773HK4    H1164919   3.946   0.024   0.338 -0.3401  0.2896 -0.7169
  773HK4    C2364920   4.004   0.112   0.147 -0.8948 -0.0657 -0.3724
  773HK4    H1064921   3.988   0.216   0.175  0.4604  0.0446  0.0015
  773HK4    C3964922   4.056   0.306  11.157  0.9735  0.1840 -0.2117
  773HK4    C4164923   4.060   0.403   0.011  0.4274 -0.2811  0.2514
  773HK4    H2164924   4.111   0.374   0.105  2.4528 -1.1897 -1.0967
  773HK4    C4264925   4.006   0.529  11.241  0.3570 -0.3978 -0.3440
  773HK4    H2264926   4.056   0.612   0.045 -0.1811 -0.4260  0.2225
  773HK4    C4364927   3.940   0.564  11.123 -0.5948 -0.2725  0.2132
  773HK4    H2364928   3.918   0.670  11.111  0.7810 -0.0071 -0.0366
  773HK4    C4464929   3.926   0.468  11.023  0.0252  0.1278 -0.2606
  773HK4    H2464930   3.874   0.485  10.927 -0.5245  1.0848  0.1963
  773HK4    C4564931   3.984   0.343  11.042 -0.2235  0.1314  0.5153
  773HK4    H2564932   3.956   0.260  10.975 -2.1293  0.8254  0.4053
  774HK4    H2864933   3.207   5.469   1.952 -1.7375 -1.4834 -0.2124
  774HK4    C4864934   3.167   5.488   2.052  0.1699  0.2315  0.2656
  774HK4    C4764935   3.209   5.416   2.163 -0.3739 -0.6101 -0.0702
  774HK4    H2764936   3.269   5.323   2.157 -0.1808 -0.4702 -0.3511
  774HK4    C4664937   3.159   5.449   2.288 -0.3843 -0.3388 -0.1460
  774HK4    H2664938   3.200   5.404   2.380 -2.0949 -1.4089  0.1205
  774HK4    C4064939   3.054   5.543   2.294 -0.0838 -0.0177  0.1013
  774HK4    C5064940   3.005   5.607   2.179  0.0016  0.2678  0.2230
  774HK4    H3064941   2.903   5.648   2.182 -1.0190 -2.0841 -0.3552
  774HK4    C4964942   3.070   5.588   2.057 -0.0457  0.0251  0.2350
  774HK4    H2964943   3.060   5.670   1.985 -0.7587 -1.3984 -1.3407
  774HK4     N264944   2.977   5.554   2.411  0.1970  0.4149  0.2455
  774HK4    C3064945   2.949   5.454   2.507 -0.0882  0.2214 -0.0373
  774HK4    C2964946   2.958   5.316   2.495  0.5323  0.2329  0.3305
  774HK4    H1564947   2.979   5.276   2.396 -1.1708  0.1091  0.0049
  774HK4    C2864948   2.936   5.232   2.604  0.0095 -0.1291 -0.0533
  774HK4    C2764949   2.900   5.291   2.727  0.0250  0.1803 -0.1981
  774HK4    H1464950   2.861   5.227   2.807 -0.0082  0.0876 -0.2892
  774HK4    C3264951   2.879   5.428   2.738 -0.3361  0.0844  0.3555
  774HK4    H1664952   2.812   5.458   2.818 -0.6738 -0.1395  0.1549
  774HK4    C3164953   2.903   5.514   2.631  0.0145 -0.2018  0.2054
  774HK4    C3464954   2.893   5.657   2.612  0.0417 -0.1715  0.4124
  774HK4    C3364955   2.955   5.674   2.482  0.2301  0.2395  0.5550
  774HK4    C3564956   2.994   5.802   2.445  0.1136  0.0322 -0.3117
  774HK4    H1764957   3.044   5.822   2.351  1.2215 -1.6392 -0.0847
  774HK4    C3664958   2.962   5.908   2.529  0.1698  0.0825 -0.3525
  774HK4    H1864959   3.014   6.005   2.518 -0.0374  0.4085  1.3903
  774HK4    C3764960   2.893   5.891   2.649 -0.2539  0.0672 -0.5981
  774HK4    H1964961   2.876   5.977   2.713  0.2427 -0.8660  0.8073
  774HK4    C3864962   2.860   5.764   2.694  0.5649  0.1376  0.2185
  774HK4    H2064963   2.796   5.753   2.781 -1.0260  1.0486 -0.8206
  774HK4    C1464964   2.903   5.090   2.586 -0.0837 -0.1046 -0.0850
  774HK4     C964965   2.799   5.026   2.655 -0.0324 -0.2304 -0.1233
  774HK4     C864966   2.828   4.907   2.723  0.4346  0.2590  0.5384
  774HK4    C1164967   2.945   4.837   2.696  0.2647 -0.1545  0.8612
  774HK4     H464968   2.972   4.756   2.765  0.5402 -1.1548 -0.3819
  774HK4    C1264969   3.046   4.896   2.622 -0.5315 -0.1487 -0.2446
  774HK4     H564970   3.135   4.837   2.596  0.0385  0.1348  1.0276
  774HK4    C1364971   3.026   5.023   2.568  0.0586  0.1027  0.1153
  774HK4     H664972   3.107   5.077   2.517  0.7612  1.1763  2.3159
  774HK4     C764973   2.720   4.837   2.797  0.2152  0.2922  0.2480
  774HK4     O264974   2.750   4.761   2.888 -0.1299 -0.1640 -0.0140
  774HK4     C464975   2.580   4.883   2.780  0.1013 -0.2588 -0.3516
  774HK4     C364976   2.483   4.830   2.864  0.0055 -0.3103 -0.4959
  774HK4     H364977   2.515   4.757   2.940 -0.2334  0.5378  0.4299
  774HK4     C264978   2.348   4.859   2.844  0.0343  0.1449 -0.0238
  774HK4     H264979   2.274   4.797   2.897  1.4595 -1.6867 -0.1226
  774HK4     C164980   2.313   4.940   2.737  0.1651  0.1237 -0.0830
  774HK4     H164981   2.210   4.976   2.725  0.0265 -0.5411 -0.9323
  774HK4     C664982   2.409   4.988   2.645  0.0271 -0.0429 -0.3134
  774HK4     C564983   2.544   4.970   2.675 -0.0332  0.2918  0.1494
  774HK4    C1064984   2.656   5.056   2.625  0.0354 -0.0426 -0.2656
  774HK4     O164985   2.630   5.176   2.618 -0.1958 -0.0810 -0.1153
  774HK4    C1664986   2.364   5.004   2.506  0.2584 -0.4981 -0.4425
  774HK4    C1564987   2.258   4.929   2.452 -0.5395 -0.1983  0.7133
  774HK4     H764988   2.260   4.821   2.468  0.0875 -0.2461  0.2932
  774HK4    C2064989   2.177   4.967   2.346  0.4770  0.2193  0.0871
  774HK4     H964990   2.107   4.896   2.302 -0.7662 -0.1703  2.6508
  774HK4    C1964991   2.204   5.089   2.285  0.0443  0.0340 -0.4773
  774HK4    C1864992   2.317   5.169   2.328  0.1360 -0.2022 -0.2831
  774HK4    C1764993   2.388   5.124   2.439 -0.4319 -0.0151  0.1621
  774HK4     H864994   2.428   5.202   2.504  0.1931 -0.1508 -0.0501
  774HK4     N164995   2.338   5.279   2.243 -0.0483  0.1390  0.1071
  774HK4    C2164996   2.243   5.265   2.140  0.4386 -0.1714 -0.3081
  774HK4    C2264997   2.155   5.152   2.164 -0.1001  0.2474 -0.3071
  774HK4    C2664998   2.055   5.122   2.072 -0.1605 -0.0380 -0.1487
  774HK4    H1364999   1.973   5.053   2.090 -0.8196  0.5500 -0.8940
  774HK4    C2565000   2.050   5.191   1.951  0.2014 -0.4821 -0.4206
  774HK4    H1265001   1.993   5.152   1.867 -0.7034 -1.8225  0.7719
  774HK4    C2465002   2.143   5.288   1.916  0.2567 -0.4592 -0.2155
  774HK4    H1165003   2.143   5.340   1.819  1.3259 -0.4145 -0.1967
  774HK4    C2365004   2.230   5.328   2.016 -0.2530  0.2232 -0.0414
  774HK4    H1065005   2.311   5.393   1.983 -0.5277  1.2969  1.3622
  774HK4    C3965006   2.463   5.339   2.223 -0.1224  0.2427 -0.0434
  774HK4    C4165007   2.460   5.466   2.161  0.5026  0.3045  0.0530
  774HK4    H2165008   2.374   5.531   2.181  1.1290  0.4197  2.5269
  774HK4    C4265009   2.568   5.515   2.089  0.0710  0.2044 -0.6540
  774HK4    H2265010   2.562   5.614   2.041 -0.5850  0.5857  0.2035
  774HK4    C4365011   2.680   5.438   2.060  0.2958  0.0458  0.6310
  774HK4    H2365012   2.772   5.481   2.021  0.9699 -2.0696 -0.1848
  774HK4    C4465013   2.679   5.310   2.116 -0.0613 -0.4637 -0.5179
  774HK4    H2465014   2.737   5.232   2.065 -2.0928 -1.1552 -1.8305
  774HK4    C4565015   2.580   5.263   2.201  0.0186  0.4245  0.0774
  774HK4    H2565016   2.584   5.165   2.250  0.0243  0.0012 -0.7734
  775HK4    H2865017   3.337   7.284   9.967 -0.0565 -0.2823  1.0962
  775HK4    C4865018   3.321   7.386  10.004 -1.1540  0.0982 -0.4080
  775HK4    C4765019   3.348   7.495   9.922 -0.4889  0.1330 -0.1395
  775HK4    H2765020   3.357   7.472   9.815  0.4193  0.2631 -0.0981
  775HK4    C4665021   3.347   7.622   9.978 -0.0382 -0.0298  0.2355
  775HK4    H2665022   3.376   7.700   9.907 -3.2957  1.8767  0.9318
  775HK4    C4065023   3.321   7.652  10.113  0.2024 -0.2284  0.3310
  775HK4    C5065024   3.270   7.542  10.184 -0.3340 -0.4358 -0.3723
  775HK4    H3065025   3.223   7.555  10.283  0.0159 -0.8945 -0.1424
  775HK4    C4965026   3.277   7.413  10.133 -0.4364 -0.5862 -0.0130
  775HK4    H2965027   3.250   7.339  10.209 -0.4093  1.0583  1.6227
  775HK4     N265028   3.388   7.759  10.174  0.3444 -0.4520  0.5656
  775HK4    C3065029   3.502   7.824  10.121 -0.1339 -0.1455 -0.0862
  775HK4    C2965030   3.611   7.769  10.055  0.4079  0.4396  0.3114
  775HK4    H1565031   3.626   7.661  10.043  4.1384  1.0857 -1.3918
  775HK4    C2865032   3.725   7.840  10.021  0.5018  0.1293 -0.0219
  775HK4    C2765033   3.735   7.970  10.073 -0.1295  0.0698  0.2513
  775HK4    H1465034   3.819   8.038  10.054 -1.5948  1.2835 -2.1718
  775HK4    C3265035   3.634   8.029  10.148 -0.1334 -0.2250  0.4797
  775HK4    H1665036   3.651   8.123  10.201  2.0843 -0.4580  0.2091
  775HK4    C3165037   3.515   7.960  10.170 -0.3741 -0.0516 -0.2809
  775HK4    C3465038   3.409   7.972  10.268 -0.1326  0.0871 -0.0332
  775HK4    C3365039   3.334   7.848  10.269  0.2749 -0.1577  0.2498
  775HK4    C3565040   3.211   7.848  10.332 -0.2831  0.2492 -0.8169
  775HK4    H1765041   3.146   7.760  10.330 -0.7182  0.3449  3.2278
  775HK4    C3665042   3.160   7.960  10.398  0.0602 -0.2713  0.3490
  775HK4    H1865043   3.051   7.959  10.410 -0.0984 -1.6686 -1.0831
  775HK4    C3765044   3.243   8.071  10.403 -0.1174 -0.0730 -0.9850
  775HK4    H1965045   3.200   8.162  10.445 -0.3556 -0.4539 -0.4132
  775HK4    C3865046   3.365   8.084  10.339  0.1766  0.4007 -0.3388
  775HK4    H2065047   3.408   8.184  10.329 -0.6127  0.8335  0.6059
  775HK4    C1465048   3.840   7.766   9.967  0.3831 -0.0856  0.0180
  775HK4     C965049   3.975   7.800   9.985  0.2985  0.5767 -0.5801
  775HK4     C865050   4.077   7.778   9.890  0.0773 -0.0497 -0.6769
  775HK4    C1165051   4.048   7.708   9.774 -0.2014 -0.3348 -0.4333
  775HK4     H465052   4.128   7.683   9.703  0.8958  0.8999  0.3444
  775HK4    C1265053   3.918   7.658   9.762 -0.3747  0.0805 -0.2695
  775HK4     H565054   3.908   7.568   9.700 -1.7595  0.1974 -0.2290
  775HK4    C1365055   3.817   7.686   9.853  0.0800 -0.6502  0.4725
  775HK4     H665056   3.714   7.647   9.845 -0.3710  0.6233 -0.1023
  775HK4     C765057   4.198   7.863   9.896  0.3305 -0.4754  0.4106
  775HK4     O265058   4.276   7.853   9.801 -0.2762 -0.1850 -0.1192
  775HK4     C465059   4.220   7.957  10.008  0.5217 -0.2685  0.2046
  775HK4     C365060   4.319   8.052   9.993  0.1066  0.1902  0.3700
  775HK4     H365061   4.406   8.034   9.927 -0.9197 -1.4764 -0.5374
  775HK4     C265062   4.321   8.157  10.084  1.0131  0.2624  0.2791
  775HK4     H265063   4.386   8.244  10.068 -0.0442  0.8977 -0.6440
  775HK4     C165064   4.223   8.167  10.183  0.2445 -0.8866 -0.3507
  775HK4     H165065   4.245   8.242  10.260  0.0902 -0.2418 -0.9324
  775HK4     C665066   4.121   8.072  10.202 -0.1775 -0.3401  0.1116
  775HK4     C565067   4.127   7.962  10.115 -0.0218 -0.0207 -0.2816
  775HK4    C1065068   4.014   7.866  10.113 -0.1792  0.1615 -0.2160
  775HK4     O165069   4.000   7.795  10.213  1.2385 -0.2539 -0.2992
  775HK4    C1665070   3.995   8.129  10.253 -0.0071 -0.0254  0.1841
  775HK4    C1565071   3.958   8.264  10.235 -0.2651 -0.0826  0.2832
  775HK4     H765072   4.019   8.332  10.174  2.2016 -1.9502  0.5884
  775HK4    C2065073   3.850   8.326  10.296  0.3060  0.6827  0.5154
  775HK4     H965074   3.858   8.434  10.311  0.2586  0.5362  1.6564
  775HK4    C1965075   3.776   8.251  10.387  0.2732  0.3203  0.1872
  775HK4    C1865076   3.819   8.116  10.418 -0.0046  0.1664 -0.0839
  775HK4    C1765077   3.926   8.058  10.350  0.1772  0.0089  0.3379
  775HK4     H865078   3.966   7.961  10.379 -2.9939 -1.4267  0.2014
  775HK4     N165079   3.745   8.064  10.526 -0.1702 -0.1679 -0.3612
  775HK4    C2165080   3.645   8.159  10.558  0.2355  0.1387 -0.0031
  775HK4    C2265081   3.661   8.274  10.472  0.1487  0.1944  0.0520
  775HK4    C2665082   3.563   8.374  10.471 -0.2092 -0.1561  0.0851
  775HK4    H1365083   3.579   8.461  10.408 -0.0536 -0.0185  0.3086
  775HK4    C2565084   3.455   8.358  10.557 -0.1882 -0.2899  0.0851
  775HK4    H1265085   3.365   8.417  10.538 -1.1342 -2.2588 -1.8406
  775HK4    C2465086   3.440   8.250  10.643 -0.0166  0.0117  0.4959
  775HK4    H1165087   3.354   8.231  10.709 -0.0702 -1.7914 -0.0533
  775HK4    C2365088   3.538   8.152  10.646 -0.0508 -0.0519 -0.3669
  775HK4    H1065089   3.543   8.079  10.727  0.3329  0.3433 -0.0308
  775HK4    C3965090   3.737   7.928  10.559  0.0385 -0.1599 -0.2766
  775HK4    C4165091   3.713   7.887  10.691  0.4812 -0.2950 -0.2345
  775HK4    H2165092   3.729   7.962  10.770  0.0404 -0.3394 -0.1022
  775HK4    C4265093   3.683   7.755  10.725  0.2402 -0.1050  0.3007
  775HK4    H2265094   3.655   7.724  10.826 -2.5622  0.8568 -0.1251
  775HK4    C4365095   3.669   7.664  10.621  0.1494 -0.0315  0.2494
  775HK4    H2365096   3.638   7.563  10.650 -0.0732  0.1784  0.7454
  775HK4    C4465097   3.703   7.700  10.491  0.2487 -0.5108  0.1426
  775HK4    H2465098   3.685   7.629  10.408 -1.3035  1.1442 -0.9784
  775HK4    C4565099   3.728   7.832  10.456 -0.3339 -0.4300  0.0088
  775HK4    H2565100   3.749   7.852  10.350  0.5448  1.1558  0.4691
  776HK4    H2865101   0.349   0.862   6.104 -2.8377  0.5612 -2.0627
  776HK4    C4865102   0.297   0.867   6.200  0.1456  0.1194 -0.3485
  776HK4    C4765103   0.336   0.772   6.294  0.0843  0.2189 -0.2208
  776HK4    H2765104   0.403   0.688   6.269 -0.3751 -0.4708  0.8658
  776HK4    C4665105   0.266   0.770   6.413  0.6142 -0.2356  0.0857
  776HK4    H2665106   0.283   0.692   6.489 -0.4459  1.1577  1.8098
  776HK4    C4065107   0.160   0.859   6.442  0.6444 -0.2184  0.1421
  776HK4    C5065108   0.127   0.955   6.344  0.7189 -0.2909  0.0456
  776HK4    H3065109   0.062   1.040   6.368  0.6993 -0.1813 -0.3929
  776HK4    C4965110   0.195   0.959   6.224  0.0759  0.0323 -0.3107
  776HK4    H2965111   0.188   1.051   6.165 -1.2975 -0.3066 -0.7008
  776HK4     N265112   0.050   0.816   6.516 -0.2605  0.0849 -1.0157
  776HK4    C3065113   0.011   0.684   6.550 -0.6590  0.4373 -0.0642
  776HK4    C2965114   0.046   0.562   6.493  0.0800  0.4049  0.4476
  776HK4    H1565115   0.089   0.570   6.394 -1.0605  0.0377 -0.0922
  776HK4    C2865116   0.007   0.442   6.551  0.3352  0.0216 -0.1719
  776HK4    C2765117  11.183   0.446   6.673  0.2654 -0.2536 -0.2023
  776HK4    H1465118  11.168   0.351   6.726 -0.5997  0.2257  0.4156
  776HK4    C3265119  11.146   0.563   6.737 -0.1478 -0.4974  0.0047
  776HK4    H1665120  11.097   0.565   6.834 -1.6200  0.1490 -0.7240
  776HK4    C3165121  11.178   0.681   6.670  0.0016 -0.3308  0.3686
  776HK4    C3465122  11.166   0.820   6.707 -0.5305 -0.1428 -0.5008
  776HK4    C3365123   0.002   0.900   6.619  0.3990 -0.6575 -0.0883
  776HK4    C3565124   0.013   1.036   6.643  0.3799 -0.6356 -0.2040
  776HK4    H1765125   0.087   1.098   6.593 -1.4969  2.0242  0.1840
  776HK4    C3665126  11.188   1.081   6.753  0.3974 -0.0681 -0.4235
  776HK4    H1865127  11.204   1.189   6.769  2.6954 -0.1853 -1.6386
  776HK4    C3765128  11.108   1.012   6.842 -0.0820 -0.0215 -0.8132
  776HK4    H1965129  11.037   1.066   6.905  2.5215  2.0355  0.4088
  776HK4    C3865130  11.098   0.876   6.814  0.3119 -0.2386  0.0859
  776HK4    H2065131  11.042   0.804   6.875 -0.9077 -2.1781 -3.2168
  776HK4    C1465132  11.233   0.331   6.457 -0.1464  0.4936 -0.6167
  776HK4     C965133  11.129   0.237   6.460  0.2914 -0.0010 -0.7004
  776HK4     C865134  11.153   0.099   6.447 -0.1034 -0.1147 -0.2389
  776HK4    C1165135   0.035   0.059   6.419 -0.2293 -0.1749 -0.7367
  776HK4     H465136   0.065  11.208   6.456 -0.3518 -0.0426 -0.2710
  776HK4    C1265137   0.132   0.152   6.386  0.1224 -0.2509  0.0603
  776HK4     H565138   0.219   0.109   6.332  0.7297 -0.4509  1.1906
  776HK4    C1365139   0.107   0.288   6.401  0.0681 -0.3057  0.4477
  776HK4     H665140   0.171   0.357   6.346 -1.9078  2.0193  0.9826
  776HK4     C765141  11.041   0.002   6.437 -0.2571 -0.0008  0.2904
  776HK4     O265142  11.066  11.137   6.479  0.8839  0.2403  0.2797
  776HK4     C465143  10.909   0.062   6.410 -0.1630  0.0916  0.0379
  776HK4     C365144  10.806  11.226   6.371 -0.0353 -0.1901  0.3096
  776HK4     H365145  10.823  11.131   6.318 -2.6806 -1.1948  1.1290
  776HK4     C265146  10.673   0.014   6.395  0.2102  0.9448 -0.0077
  776HK4     H265147  10.589  11.218   6.340  0.7344 -3.0699  2.1996
  776HK4     C165148  10.647   0.125   6.474 -0.5803  0.3971  0.5067
  776HK4     H165149  10.544   0.133   6.513 -1.2813  2.7689 -1.6684
  776HK4     C665150  10.750   0.210   6.518 -0.0549  0.1808 -0.2875
  776HK4     C565151  10.879   0.187   6.469  0.1563  0.0279  0.3348
  776HK4    C1065152  10.989   0.288   6.466  0.2776 -0.1165 -0.0362
  776HK4     O165153  10.965   0.405   6.439  0.1723 -0.0736  0.2427
  776HK4    C1665154  10.713   0.305   6.624 -0.2392 -0.0957 -0.1022
  776HK4    C1565155  10.811   0.345   6.718 -0.0800  0.5537 -0.5407
  776HK4     H765156  10.879   0.266   6.751  1.1608  1.2300 -1.4398
  776HK4    C2065157  10.798   0.461   6.795 -0.1922  0.3075 -0.1873
  776HK4     H965158  10.896   0.495   6.829 -0.1818 -0.9966  1.1377
  776HK4    C1965159  10.684   0.539   6.785  0.1400  0.7212 -0.8005
  776HK4    C1865160  10.586   0.499   6.687 -0.4538  0.1201  0.0283
  776HK4    C1765161  10.599   0.384   6.609  0.2921  0.5982 -0.5588
  776HK4     H865162  10.517   0.345   6.549 -1.4719  0.1135  2.0846
  776HK4     N165163  10.470   0.577   6.701 -0.2161  0.5439 -0.3661
  776HK4    C2165164  10.489   0.660   6.813 -0.2852  0.2655 -0.1516
  776HK4    C2265165  10.625   0.647   6.862 -0.5445 -0.4816  0.3993
  776HK4    C2665166  10.662   0.728   6.969  0.3024  0.1015 -0.3190
  776HK4    H1365167  10.766   0.733   7.001  0.3088  0.1387 -0.3415
  776HK4    C2565168  10.566   0.799   7.040  0.3741 -0.0110 -0.1106
  776HK4    H1265169  10.591   0.853   7.132 -0.8952 -1.4834  1.1326
  776HK4    C2465170  10.431   0.796   7.004  0.3819  0.1834 -0.1602
  776HK4    H1165171  10.359   0.841   7.072  0.9370 -1.2451  1.4037
  776HK4    C2365172  10.395   0.732   6.886 -0.0006  0.9409 -0.4581
  776HK4    H1065173  10.300   0.756   6.838 -1.0928 -0.0063  1.1846
  776HK4    C3965174  10.370   0.602   6.606 -0.4828  0.1295 -0.1919
  776HK4    C4165175  10.400   0.578   6.470  0.1870  0.5928 -0.1238
  776HK4    H2165176  10.496   0.607   6.425 -0.2581  2.2402 -0.0576
  776HK4    C4265177  10.298   0.551   6.380  0.5355 -0.0501 -0.3235
  776HK4    H2265178  10.333   0.521   6.280 -0.2711 -0.3945 -0.5019
  776HK4    C4365179  10.166   0.541   6.422  0.6075  0.1984 -0.0275
  776HK4    H2365180  10.081   0.516   6.358  1.5584 -2.3194 -0.3487
  776HK4    C4465181  10.136   0.566   6.555 -0.1863 -0.5368 -0.0670
  776HK4    H2465182  10.036   0.540   6.592 -0.2422 -0.3856 -0.1044
  776HK4    C4565183  10.235   0.594   6.648 -0.3448 -0.5994  0.1213
  776HK4    H2565184  10.222   0.581   6.756  4.5327  0.3668  0.9494
  777HK4    H2865185   0.040   9.439   2.415  1.9449  2.4328  0.3409
  777HK4    C4865186  11.212   9.500   2.366  0.4317  0.3037 -0.0737
  777HK4    C4765187  11.110   9.562   2.437  0.5869  0.5692 -0.0867
  777HK4    H2765188  11.095   9.543   2.544  0.8921 -1.0922 -0.3247
  777HK4    C4665189  11.014   9.633   2.365 -0.2010 -0.3700  0.0215
  777HK4    H2665190  10.938   9.688   2.423  0.4772  0.5279  0.0684
  777HK4    C4065191  11.005   9.633   2.225 -0.0781 -0.4634  0.0130
  777HK4    C5065192  11.118   9.578   2.161  0.3655  0.1739  0.2404
  777HK4    H3065193  11.137   9.615   2.059  1.3772  0.1515  0.4185
  777HK4    C4965194  11.220   9.510   2.227  0.4519 -0.0291 -0.0969
  777HK4    H2965195   0.065   9.497   2.171  0.6365 -0.1606  0.2418
  777HK4     N265196  10.879   9.641   2.166 -0.0423  0.0695  0.0061
  777HK4    C3065197  10.760   9.610   2.235 -0.0225 -0.0171 -0.0016
  777HK4    C2965198  10.736   9.527   2.344  0.0043 -0.3217 -0.2289
  777HK4    H1565199  10.808   9.452   2.376 -2.2660 -2.8443 -0.7731
  777HK4    C2865200  10.605   9.505   2.385  0.0035  0.1136  0.0004
  777HK4    C2765201  10.502   9.577   2.321 -0.1676 -0.4123 -0.3146
  777HK4    H1465202  10.402   9.556   2.363  0.7164 -0.9918  1.5879
  777HK4    C3265203  10.523   9.666   2.217  0.3724  0.3439  0.4288
  777HK4    H1665204  10.439   9.722   2.176  0.5637 -1.0148 -1.9487
  777HK4    C3165205  10.653   9.684   2.171  0.1827  0.0991 -0.2080
  777HK4    C3465206  10.705   9.746   2.050 -0.3476  0.7405 -0.1115
  777HK4    C3365207  10.848   9.723   2.055 -0.4261  0.3304  0.2996
  777HK4    C3565208  10.922   9.732   1.937 -0.2035  0.2355  0.4336
  777HK4    H1765209  11.031   9.734   1.941 -0.1216  3.1017 -1.9750
  777HK4    C3665210  10.857   9.761   1.818 -0.0802 -0.7720  0.1117
  777HK4    H1865211  10.921   9.773   1.729 -2.6292 -4.1303 -2.3030
  777HK4    C3765212  10.721   9.787   1.814  0.1306  0.2544 -0.3909
  777HK4    H1965213  10.665   9.821   1.726 -0.3655 -1.1691 -0.6277
  777HK4    C3865214  10.644   9.779   1.929 -0.0166 -0.0737 -0.5101
  777HK4    H2065215  10.544   9.822   1.931  0.1458  0.2773  0.4954
  777HK4    C1465216  10.573   9.397   2.480  0.1176  0.3936  0.3600
  777HK4     C965217  10.452   9.328   2.493  0.5431 -0.4137  0.1676
  777HK4     C865218  10.390   9.293   2.615 -0.3658  0.6379  0.0230
  777HK4    C1165219  10.475   9.306   2.725  0.1709  0.4948 -0.3716
  777HK4     H465220  10.433   9.276   2.822 -2.4790 -1.3197 -2.0103
  777HK4    C1265221  10.605   9.352   2.714  0.3602  0.1601  0.4440
  777HK4     H565222  10.670   9.340   2.802  4.1947  1.5142 -2.0645
  777HK4    C1365223  10.656   9.401   2.594  0.3102 -0.2694  0.2464
  777HK4     H665224  10.761   9.432   2.591  0.2503 -0.1080 -0.2900
  777HK4     C765225  10.268   9.209   2.621  0.3335 -0.4085 -0.2709
  777HK4     O265226  10.195   9.218   2.719  0.5946 -0.1168 -0.1021
  777HK4     C465227  10.229   9.136   2.498 -0.3974  0.3161 -0.4690
  777HK4     C365228  10.117   9.054   2.502 -0.0996 -0.0705 -0.0392
  777HK4     H365229  10.053   9.070   2.590  0.0841  0.1514  0.0561
  777HK4     C265230  10.088   8.972   2.394 -0.3025 -0.3505  0.2292
  777HK4     H265231   9.988   8.927   2.385 -1.0013  0.5036  3.0581
  777HK4     C165232  10.185   8.961   2.294 -0.0801 -0.0348  0.4077
  777HK4     H165233  10.154   8.901   2.208 -0.0957 -1.5450  1.4463
  777HK4     C665234  10.307   9.031   2.293  0.0862 -0.3323  0.0659
  777HK4     C565235  10.321   9.131   2.391  0.2912 -0.4402  0.1505
  777HK4    C1065236  10.408   9.251   2.374 -0.1646 -0.1014  0.2232
  777HK4     O165237  10.412   9.297   2.261  0.6044 -0.2274  0.1991
  777HK4    C1665238  10.412   8.984   2.202  0.1291  0.7399 -0.4390
  777HK4    C1565239  10.378   8.911   2.086 -0.3896 -0.0921  0.2327
  777HK4     H765240  10.276   8.908   2.045  0.9048  0.6319 -3.2237
  777HK4    C2065241  10.474   8.844   2.012 -0.3402  0.3973 -0.1440
  777HK4     H965242  10.444   8.789   1.922  0.0463 -0.3527  0.1815
  777HK4    C1965243  10.606   8.840   2.055 -0.5452 -0.3335  0.4322
  777HK4    C1865244  10.644   8.930   2.162 -0.1162 -0.4806  0.4052
  777HK4    C1765245  10.546   8.993   2.239  0.0321  0.1925  0.0403
  777HK4     H865246  10.579   9.042   2.330 -0.5215  1.0256 -0.1998
  777HK4     N165247  10.779   8.907   2.197  0.2619  0.1148 -0.6343
  777HK4    C2165248  10.825   8.797   2.122  0.0900 -0.0628 -0.4826
  777HK4    C2265249  10.718   8.750   2.036 -0.1543  0.3291 -0.3926
  777HK4    C2665250  10.729   8.626   1.974  0.1149  0.1498  0.0136
  777HK4    H1365251  10.650   8.595   1.906  0.4990  0.8528 -0.7567
  777HK4    C2565252  10.849   8.556   1.982 -0.2546 -0.4386  0.4224
  777HK4    H1265253  10.860   8.458   1.936 -1.8686  0.2796 -1.5636
  777HK4    C2465254  10.960   8.607   2.048 -0.6352  0.1315  0.6225
  777HK4    H1165255  11.050   8.547   2.066 -1.3895 -1.3518 -0.4668
  777HK4    C2365256  10.944   8.725   2.120  0.2927  0.2282  0.6807
  777HK4    H1065257  11.038   8.772   2.151  0.5078  0.1127  0.2069
  777HK4    C3965258  10.862   8.996   2.266 -0.4642 -0.2315  0.7176
  777HK4    C4165259  10.983   8.954   2.326  0.4659  0.4298 -0.6678
  777HK4    H2165260  10.992   8.859   2.381  1.3404  1.1695  0.4963
  777HK4    C4265261  11.097   9.032   2.339  0.9503 -0.3619 -0.1655
  777HK4    H2265262  11.189   8.991   2.384  1.2355  0.2568 -0.1860
  777HK4    C4365263  11.090   9.163   2.293 -0.0543 -0.4659 -0.3102
  777HK4    H2365264  11.170   9.231   2.321  2.9744 -3.7016 -0.6813
  777HK4    C4465265  10.972   9.214   2.241 -0.1167 -0.1909  0.1015
  777HK4    H2465266  10.973   9.320   2.211 -1.4601 -0.1356  0.2157
  777HK4    C4565267  10.860   9.132   2.230  0.0704 -0.4266 -0.0463
  777HK4    H2565268  10.763   9.181   2.214 -0.1455 -0.6498  0.5492
  778HK4    H2865269   3.074   1.621   3.591 -2.1941 -1.3012 -0.1502
  778HK4    C4865270   3.056   1.642   3.697 -0.9500 -0.3527 -0.1207
  778HK4    C4765271   2.987   1.544   3.767 -0.9798 -0.1625  0.1138
  778HK4    H2765272   2.924   1.479   3.706 -1.8267  1.2074 -0.5022
  778HK4    C4665273   2.966   1.554   3.904  0.2823 -0.2386  0.3178
  778HK4    H2665274   2.912   1.478   3.963  1.8520 -2.9666 -1.6777
  778HK4    C4065275   3.010   1.670   3.972 -0.3452  0.2763 -0.1541
  778HK4    C5065276   3.090   1.758   3.897 -0.0962 -0.2901 -0.5624
  778HK4    H3065277   3.139   1.844   3.946 -1.2803  1.2117 -1.9741
  778HK4    C4965278   3.117   1.749   3.761 -0.1595 -0.5302 -0.5589
  778HK4    H2965279   3.150   1.826   3.690  0.0155  0.3876  0.4963
  778HK4     N265280   2.952   1.702   4.095  0.1773 -0.9881  0.4296
  778HK4    C3065281   2.817   1.691   4.136 -0.1112  0.3848 -0.1283
  778HK4    C2965282   2.700   1.671   4.064  0.1867 -0.4469 -0.3869
  778HK4    H1565283   2.716   1.624   3.967 -1.0043 -0.5570 -0.5354
  778HK4    C2865284   2.575   1.710   4.111  0.5204  0.2655 -0.0801
  778HK4    C2765285   2.565   1.764   4.241  0.5955  0.5155 -0.1786
  778HK4    H1465286   2.468   1.798   4.279  0.6365  1.2472 -0.7030
  778HK4    C3265287   2.679   1.785   4.318  0.2446  0.1780  0.4332
  778HK4    H1665288   2.677   1.821   4.421  0.0717 -2.5000  1.4210
  778HK4    C3165289   2.804   1.749   4.269  0.1054  0.5077 -0.1608
  778HK4    C3465290   2.936   1.788   4.315  0.2690 -0.2340 -0.0069
  778HK4    C3365291   3.024   1.747   4.208  0.3187 -0.0972 -0.0175
  778HK4    C3565292   3.161   1.756   4.232  0.2707  0.6124  0.0043
  778HK4    H1765293   3.239   1.728   4.162  0.9477  2.1223  0.1217
  778HK4    C3665294   3.217   1.802   4.351  0.1100 -0.2737  0.4267
  778HK4    H1865295   3.325   1.787   4.367  0.4148 -0.5443 -1.7202
  778HK4    C3765296   3.124   1.831   4.451 -0.5373 -1.0258  0.0482
  778HK4    H1965297   3.164   1.847   4.551  0.6778 -1.2398 -0.3904
  778HK4    C3865298   2.986   1.827   4.439 -0.5911  0.5984  0.0810
  778HK4    H2065299   2.929   1.814   4.531  0.6346 -0.4382  0.7134
  778HK4    C1465300   2.459   1.692   4.023  0.0251  0.2342  0.5769
  778HK4     C965301   2.340   1.762   4.048 -0.2572  0.0003 -0.0973
  778HK4     C865302   2.216   1.696   4.038 -0.1299 -0.2409 -0.0948
  778HK4    C1165303   2.205   1.563   4.000 -0.0663 -0.2974  0.0844
  778HK4     H465304   2.108   1.520   3.973 -0.1574 -0.7456  1.0851
  778HK4    C1265305   2.321   1.494   3.967  0.0441 -0.0167 -0.1149
  778HK4     H565306   2.316   1.388   3.937 -2.1033  0.1510 -0.4703
  778HK4    C1365307   2.443   1.560   3.978 -0.2309  0.4897 -0.0804
  778HK4     H665308   2.528   1.506   3.934  0.2376 -0.0562  1.4647
  778HK4     C765309   2.087   1.757   4.081 -0.0739 -0.0158 -0.2412
  778HK4     O265310   1.992   1.691   4.123 -0.2969  0.4418 -0.0255
  778HK4     C465311   2.090   1.901   4.115 -0.4610  0.1073 -0.7260
  778HK4     C365312   1.971   1.969   4.133 -0.2149  0.4259 -0.3057
  778HK4     H365313   1.877   1.925   4.096 -0.0250  1.7359 -2.4147
  778HK4     C265314   1.968   2.101   4.177  0.3302  0.1730  0.5168
  778HK4     H265315   1.875   2.159   4.177  0.7155  0.8095 -0.7488
  778HK4     C165316   2.088   2.162   4.209  0.4382 -0.2097  0.8330
  778HK4     H165317   2.091   2.271   4.222  0.0700 -0.3491  2.1545
  778HK4     C665318   2.211   2.092   4.201  0.2995 -0.3648  0.0600
  778HK4     C565319   2.213   1.965   4.143 -0.3914 -0.2034 -0.3228
  778HK4    C1065320   2.338   1.905   4.089 -0.1047 -0.0870  0.2149
  778HK4     O165321   2.410   1.977   4.020  0.4829 -0.3099  0.5902
  778HK4    C1665322   2.316   2.142   4.291  0.2308  0.1011 -0.1173
  778HK4    C1565323   2.399   2.046   4.353 -0.3505 -0.3887 -0.0980
  778HK4     H765324   2.362   1.944   4.368 -3.1571  0.7570  1.2538
  778HK4    C2065325   2.522   2.083   4.406 -0.5893  0.4492 -0.1162
  778HK4     H965326   2.586   2.018   4.464 -0.0914 -1.0827 -2.3018
  778HK4    C1965327   2.567   2.213   4.383  0.6757 -0.0798 -0.7022
  778HK4    C1865328   2.479   2.314   4.326 -0.0322  0.1304  0.7399
  778HK4    C1765329   2.354   2.275   4.279  0.2620  0.1007 -0.0215
  778HK4     H865330   2.287   2.357   4.252 -1.0929 -0.6133  1.1456
  778HK4     N165331   2.521   2.447   4.347  0.3108  0.1184  0.1357
  778HK4    C2165332   2.629   2.431   4.436  0.2885  0.1322  0.1680
  778HK4    C2265333   2.668   2.292   4.449  0.0484  0.0585  0.1094
  778HK4    C2665334   2.765   2.263   4.544 -0.4850 -0.1151  0.5999
  778HK4    H1365335   2.803   2.161   4.542  0.5302  0.2565  0.2277
  778HK4    C2565336   2.826   2.356   4.628 -0.4064  0.3402  0.0429
  778HK4    H1265337   2.904   2.326   4.698  1.6183  1.7151 -1.5677
  778HK4    C2465338   2.774   2.484   4.617  0.0058  0.5363  0.3472
  778HK4    H1165339   2.816   2.557   4.688  2.9975 -1.3435  0.5727
  778HK4    C2365340   2.674   2.525   4.529  0.3383  0.3774 -0.1050
  778HK4    H1065341   2.615   2.611   4.557 -0.4354 -0.9625  2.5270
  778HK4    C3965342   2.518   2.543   4.245 -0.2543  0.4176  0.4321
  778HK4    C4165343   2.546   2.677   4.278 -0.4801  0.5823 -0.0380
  778HK4    H2165344   2.497   2.718   4.368 -2.8277  1.5413 -1.7080
  778HK4    C4265345   2.585   2.774   4.186  0.2775  0.2455 -0.0818
  778HK4    H2265346   2.579   2.881   4.213 -0.0558  0.8312 -2.4373
  778HK4    C4365347   2.596   2.741   4.052  0.1560  0.0591 -0.0466
  778HK4    H2365348   2.636   2.813   3.980  0.5304 -0.1570 -0.0583
  778HK4    C4465349   2.561   2.611   4.016 -0.3419  0.3113 -0.4696
  778HK4    H2465350   2.585   2.572   3.916  1.0519 -1.4558  0.5474
  778HK4    C4565351   2.521   2.514   4.107  0.0765  0.8955  0.3384
  778HK4    H2565352   2.500   2.410   4.078  0.8503  0.8596 -0.0953
  779HK4    H2865353   6.644  11.004   9.418 -1.4685 -0.7474  0.8510
  779HK4    C4865354   6.730  10.952   9.460 -0.3845 -0.0275 -0.4894
  779HK4    C4765355   6.856  11.011   9.464 -0.1338 -0.6213  0.5040
  779HK4    H2765356   6.864  11.116   9.434  1.2237 -0.7668  0.3116
  779HK4    C4665357   6.954  10.946   9.538  0.3405 -0.2891  0.1806
  779HK4    H2665358   7.057  10.984   9.540 -0.3818  2.0302 -3.3718
  779HK4    C4065359   6.935  10.820   9.598 -0.1594 -0.0630  0.4975
  779HK4    C5065360   6.805  10.766   9.588 -0.0878 -0.1508  0.0109
  779HK4    H3065361   6.780  10.669   9.634  0.8866  0.1640  1.2296
  779HK4    C4965362   6.702  10.830   9.520 -0.1193  0.4447  0.6092
  779HK4    H2965363   6.611  10.775   9.492 -0.8678  1.4313  1.0731
  779HK4     N265364   7.021  10.777   9.700  0.4802  0.1468  0.0481
  779HK4    C3065365   7.111  10.852   9.779  0.1851  0.4706  0.0736
  779HK4    C2965366   7.091  10.981   9.824  0.0751  0.4074  0.2067
  779HK4    H1565367   7.031  11.052   9.765 -0.0643 -0.8735 -1.2199
  779HK4    C2865368   7.179  11.032   9.918  0.4838  0.2047 -0.0682
  779HK4    C2765369   7.294  10.961   9.959  0.3218  0.0323  0.0867
  779HK4    H1465370   7.373  10.993  10.029  0.7705  1.5850 -1.0975
  779HK4    C3265371   7.311  10.831   9.911  0.5340  0.1234 -0.0822
  779HK4    H1665372   7.409  10.783   9.914  0.4413 -0.0241  1.1037
  779HK4    C3165373   7.221  10.770   9.825  0.0054  0.3556  0.3004
  779HK4    C3465374   7.189  10.633   9.792 -0.1935  0.3370  0.5733
  779HK4    C3365375   7.069  10.645   9.711  0.3218  0.0617 -0.2367
  779HK4    C3565376   7.011  10.529   9.661 -0.5567  0.2716  0.2938
  779HK4    H1765377   6.938  10.533   9.581 -0.2458 -2.0832 -0.1388
  779HK4    C3665378   7.071  10.406   9.687 -0.5780  0.1952 -0.0329
  779HK4    H1865379   7.025  10.314   9.648 -0.3164 -0.0002  0.1211
  779HK4    C3765380   7.188  10.392   9.761 -0.3073  0.2785 -0.4333
  779HK4    H1965381   7.209  10.296   9.808  1.3658  0.5249 -0.6521
  779HK4    C3865382   7.248  10.508   9.809  0.1555  0.2789 -1.0222
  779HK4    H2065383   7.353  10.505   9.836 -0.1663  3.2573  0.7111
  779HK4    C1465384   7.136  11.156   9.983  0.1863  0.0346  0.0629
  779HK4     C965385   7.227  11.246  10.039 -0.0616  0.0796  0.3932
  779HK4     C865386   7.196   0.055  10.164 -0.1812 -0.4178  0.5930
  779HK4    C1165387   7.072   0.041  10.225 -0.5280 -0.2970 -0.0859
  779HK4     H465388   7.054   0.097  10.318 -0.5336  1.1716 -0.9689
  779HK4    C1265389   6.974  11.218  10.156 -0.5444  0.0158 -0.3862
  779HK4     H565390   6.868  11.224  10.183 -0.1018  4.2817  0.8185
  779HK4    C1365391   7.005  11.158  10.035 -0.0493  0.5808 -0.5414
  779HK4     H665392   6.932  11.121   9.961  0.0987 -1.7209  0.4491
  779HK4     C765393   7.293   0.143  10.235 -0.3984  0.2961  0.0186
  779HK4     O265394   7.319   0.134  10.355  0.2916 -0.0788 -0.1550
  779HK4     C465395   7.392   0.212  10.150  0.4067 -0.4214  0.3752
  779HK4     C365396   7.436   0.335  10.195  0.0304 -0.0929 -0.1564
  779HK4     H365397   7.406   0.376  10.293 -0.9869 -0.7715 -0.1758
  779HK4     C265398   7.527   0.407  10.119  0.1402 -0.0566  0.0094
  779HK4     H265399   7.557   0.513  10.125 -0.6048  0.3563 -2.7179
  779HK4     C165400   7.580   0.335  10.013 -0.7007 -0.2940 -0.2533
  779HK4     H165401   7.667   0.380   9.963  1.2930 -2.9385  0.6983
  779HK4     C665402   7.550   0.205   9.966 -0.4943 -0.3525 -0.2204
  779HK4     C565403   7.441   0.149  10.034 -0.3695 -0.3356 -0.0052
  779HK4    C1065404   7.353   0.044   9.976  0.0546 -0.7188  0.0419
  779HK4     O165405   7.393   0.000   9.868 -0.2042 -0.1560 -0.2826
  779HK4    C1665406   7.641   0.153   9.863 -0.2860 -0.4813  0.0244
  779HK4    C1565407   7.696   0.238   9.765 -0.2608 -0.4471  0.0697
  779HK4     H765408   7.633   0.324   9.737  0.0483  0.1171  1.0573
  779HK4    C2065409   7.797   0.203   9.677  0.2949 -0.0532  0.5412
  779HK4     H965410   7.833   0.269   9.598 -2.2673  0.5411 -0.1971
  779HK4    C1965411   7.852   0.076   9.691  0.6008  0.0411  0.2094
  779HK4    C1865412   7.798  11.229   9.787 -0.3399  0.2157 -0.1374
  779HK4    C1765413   7.696   0.025   9.870 -0.4752 -0.5592  0.1103
  779HK4     H865414   7.645  11.198   9.930  1.7368 -1.6573  0.6481
  779HK4     N165415   7.842  11.096   9.772  0.0246  0.3799 -0.5683
  779HK4    C2165416   7.934  11.111   9.666  0.6920  0.3633  0.0021
  779HK4    C2265417   7.944  11.245   9.611  0.5647  0.3245 -0.1156
  779HK4    C2665418   8.035   0.028   9.512  0.1728  0.2094 -0.5093
  779HK4    H1365419   8.035   0.132   9.478 -1.0401  0.1904 -0.5884
  779HK4    C2565420   8.127  11.179   9.475 -0.0162 -0.2323  0.1708
  779HK4    H1265421   8.183  11.208   9.386  1.5810  2.7839  2.0866
  779HK4    C2465422   8.126  11.053   9.534 -0.1306 -0.2978  0.0269
  779HK4    H1165423   8.221  10.997   9.537  1.0092  1.6010  3.8790
  779HK4    C2365424   8.025  11.016   9.622  0.0855 -0.3425  0.2655
  779HK4    H1065425   8.015  10.911   9.650  1.1306 -0.8329 -1.1408
  779HK4    C3965426   7.760  10.982   9.775  0.2720  0.1989 -0.6420
  779HK4    C4165427   7.809  10.850   9.773 -0.2396  0.0054 -0.5919
  779HK4    H2165428   7.911  10.839   9.813 -0.3587  0.2221 -0.2242
  779HK4    C4265429   7.727  10.743   9.741 -0.0209 -0.3730  0.1029
  779HK4    H2265430   7.775  10.644   9.741  0.7405 -0.0134 -0.5505
  779HK4    C4365431   7.592  10.757   9.715  0.0704  0.2835 -0.0177
  779HK4    H2365432   7.518  10.677   9.714  0.8532 -0.4268 -1.3440
  779HK4    C4465433   7.547  10.889   9.705 -0.3925  0.1040 -0.2848
  779HK4    H2465434   7.444  10.907   9.670 -0.1809  2.2308  0.1411
  779HK4    C4565435   7.625  10.999   9.738  0.0850 -0.2639 -0.1762
  779HK4    H2565436   7.575  11.097   9.736  0.8925  0.3058  3.8462
  780HK4    H2865437  10.179   1.327  10.136  0.2925  0.1532 -0.6552
  780HK4    C4865438  10.277   1.282  10.153 -0.0334 -0.2093  0.2910
  780HK4    C4765439  10.293   1.157  10.213 -0.1210 -0.4683 -0.2228
  780HK4    H2765440  10.205   1.097  10.240 -0.0110 -1.0181 -1.0782
  780HK4    C4665441  10.417   1.101  10.239  0.0295 -0.1805 -0.3078
  780HK4    H2665442  10.416   0.991  10.247 -1.5625 -0.0299  1.9878
  780HK4    C4065443  10.536   1.175  10.220 -0.3425  0.6637  0.6297
  780HK4    C5065444  10.517   1.310  10.184 -0.4388  0.5126  0.1012
  780HK4    H3065445  10.595   1.382  10.213  0.2132 -0.4107  0.6216
  780HK4    C4965446  10.392   1.360  10.150 -0.4975  0.4713  0.2541
  780HK4    H2965447  10.378   1.469  10.137  0.5361  1.6456  7.0330
  780HK4     N265448  10.665   1.122  10.227 -0.8068 -0.6684 -0.5589
  780HK4    C3065449  10.702   1.011  10.305 -0.4357 -0.3957 -0.3459
  780HK4    C2965450  10.673   0.977  10.437 -0.4110  0.1497 -0.1971
  780HK4    H1565451  10.598   1.033  10.493 -2.5358 -0.5831 -2.2061
  780HK4    C2865452  10.741   0.869  10.493 -0.5633 -0.0541 -0.4050
  780HK4    C2765453  10.849   0.810  10.425 -0.0585  0.0123  0.3263
  780HK4    H1465454  10.911   0.742  10.484 -2.4223  0.4868  3.4619
  780HK4    C3265455  10.891   0.855  10.300 -0.5009  0.0384  0.1828
  780HK4    H1665456  10.990   0.825  10.267 -0.3813  1.3578 -0.6802
  780HK4    C3165457  10.812   0.948  10.235  0.2386  0.4825 -0.0773
  780HK4    C3465458  10.831   1.014  10.107  0.2497  0.4177 -0.1088
  780HK4    C3365459  10.747   1.132  10.112 -0.2131  0.0879 -0.0722
  780HK4    C3565460  10.730   1.207   9.997 -0.1965 -0.4846 -0.4509
  780HK4    H1765461  10.680   1.304   9.994  1.0648  0.2087  0.5128
  780HK4    C3665462  10.791   1.172   9.877 -0.1847 -0.3277 -0.4898
  780HK4    H1865463  10.761   1.221   9.784 -1.9796 -1.2484 -0.4145
  780HK4    C3765464  10.854   1.048   9.873  0.1229 -0.1796 -0.2910
  780HK4    H1965465  10.911   1.009   9.789 -2.9735 -1.0623 -2.1033
  780HK4    C3865466  10.878   0.968   9.985 -0.1936 -0.0334 -0.1171
  780HK4    H2065467  10.909   0.865   9.970 -1.9701 -0.4212 -1.3304
  780HK4    C1465468  10.718   0.852  10.638  0.0499  0.6108 -0.2265
  780HK4     C965469  10.814   0.807  10.729 -0.0190 -0.4613 -0.6736
  780HK4     C865470  10.776   0.727  10.838  0.4432  0.4760  0.1781
  780HK4    C1165471  10.641   0.710  10.866  0.3976  0.4021 -0.0795
  780HK4     H465472  10.606   0.671  10.963 -1.4920  0.3730 -0.7510
  780HK4    C1265473  10.542   0.754  10.779 -0.1999 -0.3052  0.2301
  780HK4     H565474  10.439   0.722  10.802 -0.7266  1.0634 -0.1412
  780HK4    C1365475  10.583   0.822  10.665  0.3663 -0.1659  0.5105
  780HK4     H665476  10.520   0.820  10.575 -0.3647 -1.4044  1.0488
  780HK4     C765477  10.875   0.648  10.914 -0.0929  0.3063  0.7092
  780HK4     O265478  10.837   0.575  11.005  0.2295 -0.0718  0.5420
  780HK4     C465479  11.016   0.647  10.869 -0.5020 -0.3839 -0.6019
  780HK4     C365480  11.099   0.548  10.921 -0.6074 -0.4296 -0.5191
  780HK4     H365481  11.067   0.475  10.997  0.6937 -0.3934  0.0754
  780HK4     C265482  11.231   0.536  10.880 -0.4580 -0.2054 -0.1026
  780HK4     H265483   0.043   0.466  10.941 -1.6005 -0.6049  0.5761
  780HK4     C165484   0.030   0.621  10.781 -0.0840 -0.3430 -0.0456
  780HK4     H165485   0.139   0.632  10.772  0.1882 -2.1826  0.7834
  780HK4     C665486  11.195   0.717  10.719  0.2871 -0.2846 -0.4614
  780HK4     C565487  11.063   0.729  10.764  0.2652 -0.6206 -0.4510
  780HK4    C1065488  10.961   0.821  10.707  0.1237 -0.2598  0.3718
  780HK4     O165489  10.992   0.939  10.689  0.0158 -0.2546  0.2227
  780HK4    C1665490  11.246   0.775  10.594  0.3074  0.0149 -0.3170
  780HK4    C1565491   0.075   0.696  10.506 -0.0358 -0.2417 -0.3858
  780HK4     H765492   0.072   0.586  10.515 -2.1662 -0.2231 -0.5176
  780HK4    C2065493   0.167   0.742  10.414 -0.1803 -0.4974 -0.6612
  780HK4     H965494   0.228   0.670  10.360 -0.3963 -1.1495 -0.0383
  780HK4    C1965495   0.166   0.877  10.379 -0.1782 -0.3312 -0.0297
  780HK4    C1865496   0.085   0.963  10.463 -0.0313 -0.2178 -0.0011
  780HK4    C1765497   0.009   0.911  10.568 -0.6909  0.1048 -0.3140
  780HK4     H865498  11.228   0.980  10.647  2.7328  0.8454  0.3762
  780HK4     N165499   0.099   1.097  10.424 -0.1280 -0.1353  0.2467
  780HK4    C2165500   0.200   1.098  10.326 -0.2296 -0.0699  0.1422
  780HK4    C2265501   0.235   0.963  10.285  0.3209 -0.0616  0.5801
  780HK4    C2665502   0.342   0.946  10.198  0.2137  0.6004  0.3137
  780HK4    H1365503   0.376   0.845  10.174 -1.8033  0.2209 -1.0998
  780HK4    C2565504   0.419   1.051  10.150  0.5272  0.3895  0.3607
  780HK4    H1265505   0.500   1.044  10.077 -0.0723  4.6184 -0.8412
  780HK4    C2465506   0.381   1.179  10.189  0.4733  0.4185  0.2114
  780HK4    H1165507   0.451   1.261  10.166  1.0503 -0.5224 -1.5147
  780HK4    C2365508   0.273   1.203  10.273  0.0032 -0.3780 -0.1526
  780HK4    H1065509   0.243   1.305  10.298  0.5263 -0.6198  1.5372
  780HK4    C3965510  11.243   1.191  10.422 -0.0809 -0.0811  0.3750
  780HK4    C4165511  11.105   1.161  10.410 -0.0155 -0.0889 -0.4387
  780HK4    H2165512  11.079   1.056  10.390 -0.9943  0.2897 -1.1952
  780HK4    C4265513  11.008   1.260  10.414 -0.0188 -0.1208  0.5455
  780HK4    H2265514  10.903   1.230  10.400 -0.1349  0.7289 -0.5029
  780HK4    C4365515  11.039   1.395  10.431  0.3418 -0.1992  0.5078
  780HK4    H2365516  10.966   1.473  10.447 -1.8198 -2.2419  0.9089
  780HK4    C4465517  11.174   1.424  10.451  0.2776  0.6084 -0.2295
  780HK4    H2465518  11.196   1.532  10.447  1.4620  0.5074  2.7783
  780HK4    C4565519   0.023   1.326  10.451 -0.1757  0.1552 -0.6063
  780HK4    H2565520   0.113   1.344  10.512 -0.4656 -1.1284  0.2279
  781HK4    H2865521   9.312   6.193  10.236 -0.7071  0.1301 -0.3336
  781HK4    C4865522   9.356   6.251  10.155  0.3330 -0.4718 -0.2030
  781HK4    C4765523   9.470   6.325  10.187  0.2024 -0.1211 -0.5337
  781HK4    H2765524   9.500   6.348  10.290 -0.0302  0.8390 -0.6825
  781HK4    C4665525   9.540   6.379  10.080 -0.2778  0.7950 -0.3804
  781HK4    H2665526   9.629   6.442  10.096 -0.5989  0.8705  1.2494
  781HK4    C4065527   9.496   6.358   9.948 -0.6377  0.1097 -0.1573
  781HK4    C5065528   9.383   6.276   9.927 -0.0843 -0.7329  0.1341
  781HK4    H3065529   9.358   6.266   9.821  2.8457  1.4508 -0.8627
  781HK4    C4965530   9.308   6.219  10.029 -0.5070 -0.2866  0.0704
  781HK4    H2965531   9.210   6.173  10.009 -0.3508 -1.8390  2.6184
  781HK4     N265532   9.578   6.384   9.837 -0.1579  0.1074  0.1908
  781HK4    C3065533   9.718   6.381   9.823 -0.1743 -0.4841  0.1457
  781HK4    C2965534   9.816   6.346   9.914 -0.1309 -0.7316  0.0044
  781HK4    H1565535   9.796   6.365  10.020 -1.8176 -2.9598  0.1095
  781HK4    C2865536   9.939   6.298   9.869  0.0281 -0.1751 -0.1560
  781HK4    C2765537   9.969   6.301   9.732  0.1096 -0.1595 -0.1416
  781HK4    H1465538  10.058   6.246   9.698  0.0841 -0.8091  0.8224
  781HK4    C3265539   9.880   6.349   9.636  0.0741 -0.1316 -0.0902
  781HK4    H1665540   9.912   6.343   9.532 -0.7320 -0.7730 -0.3022
  781HK4    C3165541   9.754   6.385   9.682  0.2238 -0.0503  0.2616
  781HK4    C3465542   9.631   6.412   9.611  0.3402 -0.4231 -0.0748
  781HK4    C3365543   9.526   6.420   9.711  0.2941 -0.3659 -0.1276
  781HK4    C3565544   9.414   6.496   9.681  0.1828 -0.4889 -0.0229
  781HK4    H1765545   9.328   6.492   9.747 -0.2733  0.8430 -0.5198
  781HK4    C3665546   9.403   6.558   9.557 -0.2847  0.0901  0.3072
  781HK4    H1865547   9.310   6.617   9.547 -0.1365  0.4655  1.0912
  781HK4    C3765548   9.499   6.542   9.458  0.1082  0.2272  0.6644
  781HK4    H1965549   9.490   6.592   9.361 -1.0853  0.3648  0.8350
  781HK4    C3865550   9.615   6.471   9.486 -0.0723 -0.3349  0.0212
  781HK4    H2065551   9.693   6.458   9.411 -0.6573  0.5187 -0.7579
  781HK4    C1465552  10.043   6.272   9.969 -0.1519  0.3835  0.1756
  781HK4     C965553  10.178   6.292   9.936 -0.1258 -0.0496  0.0174
  781HK4     C865554  10.274   6.199   9.982 -0.0318 -0.1684 -0.4219
  781HK4    C1165555  10.238   6.102  10.074 -0.0407 -0.1004 -0.3515
  781HK4     H465556  10.311   6.021  10.087  1.7706  1.3064 -1.5831
  781HK4    C1265557  10.106   6.085  10.113  0.0657 -0.5450 -0.1796
  781HK4     H565558  10.076   5.988  10.155  1.4588 -0.0886  1.9288
  781HK4    C1365559  10.009   6.171  10.061  0.5073  0.2014  0.2255
  781HK4     H665560   9.904   6.156  10.089  0.9601 -0.7156  1.4779
  781HK4     C765561  10.418   6.222   9.956 -0.0677  0.3707 -0.1668
  781HK4     O265562  10.500   6.132   9.974 -0.3247  0.2197  0.2465
  781HK4     C465563  10.454   6.343   9.878 -0.0110  0.1624 -0.4666
  781HK4     C365564  10.587   6.348   9.838  0.0194 -0.4627 -0.4514
  781HK4     H365565  10.665   6.297   9.897 -1.6090 -0.4120  1.7875
  781HK4     C265566  10.621   6.440   9.740 -0.0248 -0.1413 -0.1653
  781HK4     H265567  10.724   6.448   9.704 -0.4708 -2.7381 -2.1786
  781HK4     C165568  10.523   6.519   9.680 -0.0685  0.3866  0.5808
  781HK4     H165569  10.551   6.588   9.599  0.3066  0.5824  0.8732
  781HK4     C665570  10.386   6.511   9.712 -0.1646  0.6803  0.2438
  781HK4     C565571  10.360   6.433   9.826  0.0018  0.5677  0.2055
  781HK4    C1065572  10.219   6.421   9.874  0.0598 -0.0040  0.2351
  781HK4     O165573  10.167   6.524   9.916 -0.0513  0.0068  0.0720
  781HK4    C1665574  10.292   6.540   9.603  0.0824 -0.3739 -0.2560
  781HK4    C1565575  10.322   6.531   9.465  0.0198 -0.1981 -0.2838
  781HK4     H765576  10.416   6.480   9.437 -1.6001 -2.3085 -2.0002
  781HK4    C2065577  10.231   6.568   9.367 -0.1563 -0.4444 -0.2109
  781HK4     H965578  10.250   6.550   9.261 -1.9001  0.2341 -0.6590
  781HK4    C1965579  10.111   6.630   9.400 -0.0306 -0.1518 -0.2881
  781HK4    C1865580  10.079   6.640   9.541 -0.0328  0.2877 -0.3185
  781HK4    C1765581  10.171   6.599   9.637  0.0760 -0.1700 -0.6224
  781HK4     H865582  10.168   6.653   9.732  0.5840  0.2314 -0.8313
  781HK4     N165583   9.945   6.679   9.561  0.1380  0.6859  0.0818
  781HK4    C2165584   9.897   6.706   9.432 -0.0443  0.7615  0.1622
  781HK4    C2265585   9.992   6.671   9.328 -0.1471  0.3645  0.2012
  781HK4    C2665586   9.961   6.706   9.197 -0.1280  0.2955  0.1783
  781HK4    H1365587  10.042   6.709   9.124 -1.3137  2.3695 -1.1120
  781HK4    C2565588   9.842   6.768   9.163  0.1080  0.7064  0.0938
  781HK4    H1265589   9.812   6.792   9.060 -0.8266 -2.4006 -0.4155
  781HK4    C2465590   9.749   6.797   9.261  0.1191 -0.0016  0.3167
  781HK4    H1165591   9.644   6.825   9.241  0.1179 -0.3957 -0.2147
  781HK4    C2365592   9.776   6.763   9.393 -0.4289  0.1612  0.4783
  781HK4    H1065593   9.686   6.771   9.454  0.0421  0.4575  1.1447
  781HK4    C3965594   9.893   6.743   9.674 -0.2142  0.3114  0.1303
  781HK4    C4165595   9.754   6.741   9.699 -0.1659  0.6742  0.4428
  781HK4    H2165596   9.689   6.684   9.631  0.3901  0.4568  0.0994
  781HK4    C4265597   9.700   6.813   9.805 -0.3799  0.0655  0.7522
  781HK4    H2265598   9.591   6.805   9.815 -0.4574 -0.5187 -0.4685
  781HK4    C4365599   9.779   6.885   9.895  0.1863  0.2655  0.0987
  781HK4    H2365600   9.737   6.933   9.983  1.1763  0.3630  0.5197
  781HK4    C4465601   9.916   6.885   9.871  0.0922  0.4472 -0.4700
  781HK4    H2465602   9.976   6.954   9.933  1.2493 -1.4396  0.5366
  781HK4    C4565603   9.971   6.821   9.761  0.5673 -0.9343  0.5604
  781HK4    H2565604  10.068   6.861   9.727 -0.9233 -0.0876 -2.9187
  782HK4    H2865605   2.910   0.184   0.278  1.2051  1.6164 -0.0679
  782HK4    C4865606   2.935   0.166   0.173  0.0359  0.0294 -0.0840
  782HK4    C4765607   3.007   0.261   0.102  0.5965 -0.4113 -0.1151
  782HK4    H2765608   3.007   0.363   0.142 -0.3730 -0.8073  0.9001
  782HK4    C4665609   3.042   0.240  11.217  0.3998 -0.1567 -0.2095
  782HK4    H2665610   3.115   0.303  11.164 -0.1393 -0.5348 -1.4312
  782HK4    C4065611   3.002   0.122  11.151 -0.2745  0.0146 -0.1064
  782HK4    C5065612   2.913   0.037  11.220 -0.0808 -0.0596  0.0535
  782HK4    H3065613   2.872  11.197  11.167 -1.1645  0.7057 -0.3966
  782HK4    C4965614   2.891   0.051   0.109  0.3049 -0.1934  0.1282
  782HK4    H2965615   2.846  11.215   0.164 -3.5719  0.2838 -2.1140
  782HK4     N265616   3.029   0.099  11.016 -0.1039 -0.3337 -0.0125
  782HK4    C3065617   3.057   0.195  10.917 -0.7468 -0.2798 -0.1472
  782HK4    C2965618   3.025   0.331  10.919 -0.8663 -0.3072 -0.2242
  782HK4    H1565619   2.972   0.375  11.003 -1.2868 -2.0810  0.4654
  782HK4    C2865620   3.065   0.407  10.810 -0.6349 -0.8552 -0.5274
  782HK4    C2765621   3.143   0.349  10.708 -0.2802 -0.3200 -0.5662
  782HK4    H1465622   3.161   0.414  10.622 -1.7171  1.5601  0.5055
  782HK4    C3265623   3.169   0.213  10.698 -0.0043 -0.2715 -0.5191
  782HK4    H1665624   3.235   0.172  10.622  0.9765 -1.2231  0.8228
  782HK4    C3165625   3.119   0.134  10.801  0.1895  0.3202  0.0324
  782HK4    C3465626   3.128  11.241  10.834  0.2673  0.2001 -0.5018
  782HK4    C3365627   3.063  11.221  10.962  0.0542 -0.0227 -0.6436
  782HK4    C3565628   3.032  11.090  10.999  0.5175  0.1304  0.2978
  782HK4    H1765629   2.980  11.054  11.088 -0.1462 -1.1156 -0.5804
  782HK4    C3665630   3.069  10.983  10.918 -0.5061  0.0236 -0.0374
  782HK4    H1865631   3.025  10.883  10.934  1.3064 -1.0749 -1.8025
  782HK4    C3765632   3.137  11.001  10.799 -0.0881 -0.1281  0.1740
  782HK4    H1965633   3.179  10.913  10.750  1.3165  1.4779 -1.6130
  782HK4    C3865634   3.167  11.131  10.759 -0.1919 -0.2037 -0.1528
  782HK4    H2065635   3.227  11.147  10.669  0.0321  2.1110  0.3705
  782HK4    C1465636   2.986   0.528  10.784 -0.0304 -0.3091  0.1171
  782HK4     C965637   2.961   0.576  10.654  0.9986  0.1610  0.0914
  782HK4     C865638   2.956   0.714  10.626  0.3606  0.1118 -0.0501
  782HK4    C1165639   2.977   0.801  10.733  0.3918  0.5260 -0.3941
  782HK4     H465640   2.982   0.907  10.703 -0.4242  0.2597 -1.5309
  782HK4    C1265641   2.998   0.759  10.864 -0.3500 -0.2397 -0.5156
  782HK4     H565642   2.996   0.832  10.946  2.5890  0.7285 -1.2731
  782HK4    C1365643   3.002   0.622  10.888  0.3424 -0.1456 -0.0856
  782HK4     H665644   3.011   0.578  10.988 -1.0389  1.2892  0.6922
  782HK4     C765645   2.941   0.764  10.488 -0.7517 -0.3257 -0.0911
  782HK4     O265646   2.887   0.873  10.467 -0.8871 -0.3027  0.3798
  782HK4     C465647   2.953   0.662  10.382  0.1434 -0.2450 -0.0729
  782HK4     C365648   2.957   0.707  10.250 -0.6133  0.0923  0.0123
  782HK4     H365649   2.975   0.812  10.223  0.4028 -0.1707 -0.3749
  782HK4     C265650   2.945   0.613  10.148  0.0415  0.3106 -0.2668
  782HK4     H265651   2.969   0.660  10.051  1.0631  0.3722  0.0147
  782HK4     C165652   2.938   0.476  10.167  0.4807  0.3791  0.4072
  782HK4     H165653   2.930   0.406  10.082 -1.3409  1.1024 -0.0275
  782HK4     C665654   2.938   0.428  10.300 -0.8644 -0.2534  0.1971
  782HK4     C565655   2.937   0.524  10.402 -0.2203 -0.1724  0.1355
  782HK4    C1065656   2.929   0.480  10.545 -0.0761  0.2894  0.2871
  782HK4     O165657   2.832   0.408  10.567  0.4015 -0.3534  0.2897
  782HK4    C1665658   3.002   0.298  10.324  0.1781  0.3533  0.7833
  782HK4    C1565659   3.114   0.259  10.249 -0.3373  0.2772  0.0511
  782HK4     H765660   3.168   0.341  10.199  0.2802 -0.9048 -1.2874
  782HK4    C2065661   3.177   0.135  10.245 -0.6518  0.1358 -0.7113
  782HK4     H965662   3.263   0.115  10.181  0.4662  0.5576  0.6177
  782HK4    C1965663   3.125   0.040  10.331  0.1506  0.4632  0.1471
  782HK4    C1865664   3.000   0.066  10.401  0.1892 -0.2091  0.4703
  782HK4    C1765665   2.943   0.192  10.393  0.0719 -0.3056 -0.3010
  782HK4     H865666   2.836   0.196  10.413 -0.2074 -4.0329 -0.7950
  782HK4     N165667   2.948  11.199  10.465  0.0489 -0.0373  0.6608
  782HK4    C2165668   3.040  11.096  10.436  0.6714  0.5462  0.5428
  782HK4    C2265669   3.148  11.147  10.354  0.4853  0.5433  0.2934
  782HK4    C2665670   3.250  11.061  10.313 -0.0108  0.3175 -0.4646
  782HK4    H1365671   3.309  11.088  10.226  2.7740 -2.0480  0.5993
  782HK4    C2565672   3.257  10.929  10.356 -0.8538  0.5926  0.5662
  782HK4    H1265673   3.350  10.881  10.324 -0.7427  0.3943  1.1825
  782HK4    C2465674   3.149  10.881  10.429 -0.6113 -0.0558  0.5113
  782HK4    H1165675   3.159  10.778  10.465 -1.1843  0.0775  1.0588
  782HK4    C2365676   3.046  10.963  10.475 -0.2444  0.4636  0.4129
  782HK4    H1065677   2.963  10.921  10.532  0.2788 -2.2240 -0.7274
  782HK4    C3965678   2.851  11.202  10.565 -0.2917  0.3483  0.3239
  782HK4    C4165679   2.787  11.082  10.604  0.1083  0.1036  0.2185
  782HK4    H2165680   2.786  10.990  10.544  0.3082 -0.1848  0.6642
  782HK4    C4265681   2.709  11.076  10.719 -0.3449  0.3952 -0.0694
  782HK4    H2265682   2.664  10.979  10.745 -0.4394  0.4468 -0.0387
  782HK4    C4365683   2.685  11.186  10.799  0.3555  0.0854  0.5641
  782HK4    H2365684   2.635  11.171  10.895 -0.3448  1.2894  0.3975
  782HK4    C4465685   2.752   0.055  10.765 -0.4243  0.4596  0.3148
  782HK4    H2465686   2.770   0.130  10.844 -3.5716  1.6152  0.0218
  782HK4    C4565687   2.828   0.065  10.649 -0.9469  0.4824 -0.0268
  782HK4    H2565688   2.888   0.156  10.632  1.0171 -0.3137  2.2825
  783HK4    H2865689  10.582   5.632   2.253 -1.6778  0.8304 -1.6275
  783HK4    C4865690  10.566   5.714   2.323 -0.5404 -0.1077 -0.2323
  783HK4    C4765691  10.519   5.841   2.291 -0.4707  0.0155  0.1512
  783HK4    H2765692  10.528   5.883   2.190 -1.4189  1.4167  0.6339
  783HK4    C4665693  10.492   5.929   2.395 -0.0710 -0.0208  0.2840
  783HK4    H2665694  10.452   6.026   2.360 -0.2521 -0.3129 -0.3232
  783HK4    C4065695  10.497   5.901   2.533  0.3246  0.2263  0.3219
  783HK4    C5065696  10.546   5.769   2.551  0.3232  0.0965 -0.6002
  783HK4    H3065697  10.572   5.748   2.656  1.2452  0.7754 -0.6840
  783HK4    C4965698  10.580   5.675   2.455  1.2528  0.1548 -0.3307
  783HK4    H2965699  10.625   5.576   2.477 -0.6693 -0.8035 -0.6146
  783HK4     N265700  10.463   5.995   2.631  0.0403  0.3904  0.0640
  783HK4    C3065701  10.454   6.135   2.615 -0.0644  0.3759 -0.0007
  783HK4    C2965702  10.522   6.220   2.529  0.3491 -0.3151 -0.3676
  783HK4    H1565703  10.610   6.185   2.475  1.2353  0.1862  0.7368
  783HK4    C2865704  10.481   6.351   2.507 -0.0226 -0.4232 -0.3214
  783HK4    C2765705  10.375   6.394   2.589 -0.1750  0.0420 -0.7523
  783HK4    H1465706  10.325   6.490   2.569  1.7223  1.1697 -0.2318
  783HK4    C3265707  10.316   6.320   2.691  0.4378  0.2693 -0.2301
  783HK4    H1665708  10.239   6.361   2.757  0.6625 -1.4689  1.1447
  783HK4    C3165709  10.358   6.189   2.709 -0.3759  0.0224 -0.1164
  783HK4    C3465710  10.311   6.079   2.792 -0.3183 -0.0294 -0.1492
  783HK4    C3365711  10.387   5.965   2.746 -0.0118  0.1307 -0.0377
  783HK4    C3565712  10.356   5.844   2.807 -0.1546  0.1468 -0.0801
  783HK4    H1765713  10.387   5.753   2.755  1.1616  0.6119 -0.1266
  783HK4    C3665714  10.261   5.830   2.907  0.4110 -0.6458  0.3487
  783HK4    H1865715  10.259   5.739   2.970  0.2542 -2.2118 -1.8542
  783HK4    C3765716  10.188   5.943   2.943  0.2680 -0.6355  0.0265
  783HK4    H1965717  10.096   5.937   3.001  0.3134 -0.7158  0.0952
  783HK4    C3865718  10.216   6.069   2.892  0.3048 -0.4904  0.3991
  783HK4    H2065719  10.156   6.150   2.933  0.6852  0.5011 -0.9900
  783HK4    C1465720  10.543   6.431   2.400  0.5388 -0.2298  0.1454
  783HK4     C965721  10.521   6.568   2.387 -0.0661 -0.3300  0.0751
  783HK4     C865722  10.525   6.615   2.254 -0.5033 -0.3900  0.0405
  783HK4    C1165723  10.577   6.541   2.149  0.3762  0.2623  0.0089
  783HK4     H465724  10.607   6.595   2.058 -3.3970  0.5287 -1.1265
  783HK4    C1265725  10.623   6.410   2.166 -0.0661  0.1313  0.1849
  783HK4     H565726  10.663   6.356   2.079  0.7201  1.1127 -0.0861
  783HK4    C1365727  10.589   6.356   2.289  0.9601 -0.2250  0.3159
  783HK4     H665728  10.609   6.248   2.283  0.0549 -0.3627 -0.3013
  783HK4     C765729  10.471   6.748   2.222 -0.9936 -0.5783  0.0822
  783HK4     O265730  10.431   6.759   2.106 -0.2300  0.1894 -0.1122
  783HK4     C465731  10.439   6.842   2.331 -0.7370  0.1061 -0.4226
  783HK4     C365732  10.407   6.971   2.291  0.1513  0.5176  0.1702
  783HK4     H365733  10.412   7.001   2.185  0.2610  1.7620  0.5167
  783HK4     C265734  10.370   7.065   2.386 -0.6230  0.2199  0.1657
  783HK4     H265735  10.358   7.168   2.348  1.2179  1.1981  2.1697
  783HK4     C165736  10.359   7.020   2.517 -0.9115 -0.4976 -0.1066
  783HK4     H165737  10.299   7.083   2.584 -0.3547  1.6269 -1.5455
  783HK4     C665738  10.392   6.890   2.561  0.0333 -0.2979 -0.2040
  783HK4     C565739  10.435   6.798   2.465  0.6338  0.1486 -0.3640
  783HK4    C1065740  10.500   6.667   2.497 -0.0203 -0.1186 -0.1081
  783HK4     O165741  10.572   6.653   2.596  0.0035  0.4260 -0.0488
  783HK4    C1665742  10.388   6.875   2.707  0.6335 -0.0205 -0.1610
  783HK4    C1565743  10.351   6.753   2.768 -0.3074  0.3605  0.0303
  783HK4     H765744  10.304   6.681   2.699  0.8317  0.2838 -0.6783
  783HK4    C2065745  10.324   6.739   2.904 -0.0437 -0.1073  0.0357
  783HK4     H965746  10.309   6.643   2.953  1.2059 -0.2459  0.1637
  783HK4    C1965747  10.331   6.855   2.981 -0.8165 -0.0659  0.0445
  783HK4    C1865748  10.394   6.976   2.932  0.2065 -0.4730  0.3482
  783HK4    C1765749  10.414   6.981   2.794 -0.0652 -0.2408  0.3183
  783HK4     H865750  10.486   7.056   2.763 -0.9784  0.5798  0.1692
  783HK4     N165751  10.365   7.086   3.014 -0.2820 -0.0755 -0.3535
  783HK4    C2165752  10.296   7.031   3.123  0.8092 -0.2330  0.2625
  783HK4    C2265753  10.277   6.887   3.111 -0.1523 -0.1163  0.3318
  783HK4    C2665754  10.201   6.815   3.203 -0.1386 -0.7640 -0.1602
  783HK4    H1365755  10.172   6.713   3.178 -1.4012 -0.3567 -0.4033
  783HK4    C2565756  10.144   6.881   3.311  0.3794 -0.0946 -0.2863
  783HK4    H1265757  10.086   6.831   3.390  1.2794 -0.2919  0.2538
  783HK4    C2465758  10.156   7.019   3.324 -0.2420 -0.0179 -0.4726
  783HK4    H1165759  10.091   7.068   3.398 -1.7033 -0.7349 -1.2551
  783HK4    C2365760  10.238   7.088   3.236 -0.0858 -0.0003 -0.3147
  783HK4    H1065761  10.245   7.196   3.251  0.3610 -0.0537 -0.1480
  783HK4    C3965762  10.432   7.209   3.022 -0.6056  0.0763  0.0598
  783HK4    C4165763  10.364   7.324   3.068 -0.1812  0.0809  0.6681
  783HK4    H2165764  10.255   7.330   3.063 -0.3531 -1.4524  2.1220
  783HK4    C4265765  10.430   7.439   3.111  0.1920 -0.1749  0.7778
  783HK4    H2265766  10.383   7.510   3.180  1.2722 -0.0111  1.3565
  783HK4    C4365767  10.568   7.445   3.096  0.1336  0.0346  0.2973
  783HK4    H2365768  10.630   7.533   3.114 -2.6861  2.1334  0.1041
  783HK4    C4465769  10.637   7.339   3.037 -0.2378 -0.0305 -0.0249
  783HK4    H2465770  10.737   7.347   2.991 -0.2173 -0.8949 -0.1365
  783HK4    C4565771  10.571   7.222   3.003 -0.7034  0.3638 -0.4689
  783HK4    H2565772  10.636   7.138   2.975  1.0110  2.1731 -2.1432
  784HK4    H2865773   1.504   7.255   0.614 -1.5701 -0.6894 -1.0540
  784HK4    C4865774   1.511   7.358   0.580 -0.4554 -0.3789  0.0260
  784HK4    C4765775   1.638   7.411   0.564 -0.6617  0.0953 -0.0532
  784HK4    H2765776   1.725   7.362   0.610 -0.3082  0.3732 -0.4290
  784HK4    C4665777   1.650   7.522   0.481 -0.0847 -0.0590 -0.1829
  784HK4    H2665778   1.746   7.574   0.481 -0.5108  0.7513  1.1055
  784HK4    C4065779   1.540   7.588   0.422 -0.0198 -0.0566 -0.3006
  784HK4    C5065780   1.416   7.526   0.450 -0.1940  0.5128  0.1822
  784HK4    H3065781   1.325   7.579   0.419 -0.3534 -0.5046 -1.1264
  784HK4    C4965782   1.394   7.412   0.526 -0.0781  0.2713 -0.1468
  784HK4    H2965783   1.300   7.354   0.521  0.8993 -1.4210  0.5464
  784HK4     N265784   1.551   7.716   0.366  0.2935 -0.0826 -0.2975
  784HK4    C3065785   1.653   7.811   0.382  0.4640 -0.3152 -0.0039
  784HK4    C2965786   1.722   7.851   0.497  0.4138  0.2153 -0.1566
  784HK4    H1565787   1.687   7.823   0.596 -0.5395  1.8643 -0.0002
  784HK4    C2865788   1.822   7.948   0.491  0.4647  0.1594 -0.2295
  784HK4    C2765789   1.853   8.017   0.373 -0.2375  0.1075 -0.4505
  784HK4    H1465790   1.923   8.102   0.381  0.9531 -0.8841 -0.2231
  784HK4    C3265791   1.775   7.990   0.261 -0.2916  0.3937 -0.4831
  784HK4    H1665792   1.793   8.029   0.161 -0.7562  1.1489 -0.2775
  784HK4    C3165793   1.676   7.892   0.264  0.0653  0.0501  0.1649
  784HK4    C3465794   1.569   7.854   0.175  0.3449 -0.1956 -0.0687
  784HK4    C3365795   1.493   7.751   0.242 -0.0755  0.1173 -0.0660
  784HK4    C3565796   1.383   7.693   0.180  0.0399 -0.3995  0.2037
  784HK4    H1765797   1.332   7.607   0.224 -1.0044 -0.4045 -0.9684
  784HK4    C3665798   1.352   7.737   0.051 -0.1960 -0.4757  0.2334
  784HK4    H1865799   1.283   7.679  11.236  1.3742  0.8725 -2.8404
  784HK4    C3765800   1.427   7.833  11.233 -0.1485 -0.1974  0.6896
  784HK4    H1965801   1.404   7.858  11.129 -0.7573  2.2844  1.3632
  784HK4    C3865802   1.532   7.898   0.048  0.0808  0.0251  0.0854
  784HK4    H2065803   1.585   7.983   0.004 -0.0471 -0.9799 -2.0774
  784HK4    C1465804   1.864   8.005   0.620  0.6248  0.0377 -0.2291
  784HK4     C965805   1.907   8.137   0.639  0.6478  0.0385 -0.2699
  784HK4     C865806   2.003   8.161   0.740  0.0800 -0.1325  0.3202
  784HK4    C1165807   2.044   8.067   0.833 -0.1616 -0.2482  0.3086
  784HK4     H465808   2.125   8.083   0.907  0.1106  0.5316 -0.1595
  784HK4    C1265809   1.985   7.941   0.824  0.0453 -0.3319  0.1190
  784HK4     H565810   2.032   7.858   0.878 -0.7527 -2.0446 -1.7253
  784HK4    C1365811   1.899   7.912   0.719 -0.2247  0.1706  0.1966
  784HK4     H665812   1.874   7.805   0.711 -1.0175  0.3754 -0.1503
  784HK4     C765813   2.059   8.297   0.752  0.3483 -0.1979 -0.1132
  784HK4     O265814   2.145   8.326   0.836 -0.0991 -0.1457  0.3350
  784HK4     C465815   2.014   8.403   0.659 -0.4982  0.0058  0.5151
  784HK4     C365816   2.081   8.524   0.650 -0.0088 -0.3090 -0.0700
  784HK4     H365817   2.170   8.544   0.712  1.6393 -1.9590 -1.8185
  784HK4     C265818   2.052   8.627   0.560  0.1841 -0.2384 -0.0532
  784HK4     H265819   2.081   8.728   0.593 -0.9049 -0.0276  0.2757
  784HK4     C165820   1.954   8.597   0.467 -0.0171  0.1726  0.0265
  784HK4     H165821   1.904   8.675   0.408  0.3235  1.2972  1.2056
  784HK4     C665822   1.883   8.475   0.466 -0.0617  0.1994 -0.2378
  784HK4     C565823   1.912   8.380   0.564  0.1372  0.2641 -0.2353
  784HK4    C1065824   1.841   8.249   0.567  0.2841  0.1954  0.2967
  784HK4     O165825   1.719   8.253   0.585  0.1408 -0.1183 -0.5867
  784HK4    C1665826   1.826   8.440   0.335 -0.3715 -0.2940  0.0294
  784HK4    C1565827   1.885   8.476   0.212 -0.8181  0.0875 -0.0742
  784HK4     H765828   1.983   8.524   0.218  1.0866 -3.6563 -0.0086
  784HK4    C2065829   1.829   8.446   0.088  0.0309 -0.4502 -0.3334
  784HK4     H965830   1.878   8.491   0.002 -0.0330 -1.7224 -1.0449
  784HK4    C1965831   1.707   8.380   0.086 -0.0210 -0.3588 -0.2904
  784HK4    C1865832   1.635   8.353   0.210  0.1884 -0.4065 -0.1803
  784HK4    C1765833   1.696   8.390   0.329 -0.3021 -0.4824  0.0938
  784HK4     H865834   1.637   8.423   0.414 -2.1706 -2.3121 -0.4512
  784HK4     N165835   1.502   8.317   0.180 -0.0144 -0.1763  0.4519
  784HK4    C2165836   1.496   8.314   0.040  0.0310  0.1705  0.4437
  784HK4    C2265837   1.620   8.349  11.222 -0.2375 -0.0823 -0.2004
  784HK4    C2665838   1.637   8.336  11.084 -0.3229 -0.0064 -0.2192
  784HK4    H1365839   1.731   8.362  11.036 -0.4161 -0.7564 -0.8048
  784HK4    C2565840   1.529   8.298  11.005 -0.1388 -0.9433 -0.0308
  784HK4    H1265841   1.556   8.278  10.901 -4.0593 -1.9261 -0.9151
  784HK4    C2465842   1.408   8.272  11.068 -0.1113 -0.4007  0.2533
  784HK4    H1165843   1.332   8.257  10.990  0.5175 -2.0947 -0.0491
  784HK4    C2365844   1.394   8.266  11.206  0.1874  0.0721  0.3056
  784HK4    H1065845   1.324   8.188  11.236  2.3105 -1.5264  1.2193
  784HK4    C3965846   1.407   8.273   0.274 -0.3835  0.4012  0.3473
  784HK4    C4165847   1.267   8.280   0.259 -0.3332  0.1948 -0.2326
  784HK4    H2165848   1.237   8.307   0.156  1.5206  1.2761 -0.5119
  784HK4    C4265849   1.175   8.241   0.355  0.0381 -0.5138 -0.1602
  784HK4    H2265850   1.068   8.264   0.345  0.5348  1.1696 -1.8365
  784HK4    C4365851   1.227   8.185   0.471 -0.2968  0.4336  0.4519
  784HK4    H2365852   1.162   8.130   0.540 -1.1703  0.0206 -0.6836
  784HK4    C4465853   1.364   8.172   0.491 -0.1426  0.3813 -0.6084
  784HK4    H2465854   1.405   8.121   0.579 -0.9517  1.2927  0.3194
  784HK4    C4565855   1.453   8.217   0.394  0.5326 -0.8154 -0.5526
  784HK4    H2565856   1.550   8.165   0.394  2.3702  2.4847 -0.2434
  785HK4    H2865857   5.170  10.392   2.036  0.3019  3.5014  0.4129
  785HK4    C4865858   5.071  10.406   1.992  0.0331  0.0165 -0.1909
  785HK4    C4765859   5.057  10.492   1.883 -0.2137  0.4748  0.2021
  785HK4    H2765860   5.150  10.528   1.837 -0.9162  2.0267 -0.0125
  785HK4    C4665861   4.930  10.534   1.846 -0.1919  0.7492  0.4328
  785HK4    H2665862   4.933  10.588   1.750  0.9515  0.6945  0.4324
  785HK4    C4065863   4.810  10.499   1.911 -0.4442 -0.0668 -0.4613
  785HK4    C5065864   4.832  10.423   2.027 -0.0387  0.3134 -0.2862
  785HK4    H3065865   4.766  10.426   2.115  0.1334 -0.6679 -0.1129
  785HK4    C4965866   4.955  10.367   2.059 -0.1362 -0.0389 -0.5187
  785HK4    H2965867   4.972  10.319   2.156 -0.2794 -0.8322 -0.8818
  785HK4     N265868   4.681  10.544   1.882 -0.4354  0.2321 -0.0306
  785HK4    C3065869   4.660  10.662   1.808 -0.3968  0.6182  0.5712
  785HK4    C2965870   4.737  10.778   1.801  0.4324  0.0268 -0.1751
  785HK4    H1565871   4.803  10.791   1.887  0.9177 -1.6694 -0.2659
  785HK4    C2865872   4.696  10.889   1.729 -0.1159  0.2815  0.5191
  785HK4    C2765873   4.574  10.876   1.658  0.1803  0.3996 -0.0175
  785HK4    H1465874   4.547  10.955   1.587 -0.1415 -0.5881 -1.0124
  785HK4    C3265875   4.483  10.773   1.675  0.0717  0.4684 -0.1910
  785HK4    H1665876   4.385  10.770   1.626 -0.1552 -1.1195  0.3238
  785HK4    C3165877   4.523  10.669   1.758 -0.0032  0.1010 -0.6073
  785HK4    C3465878   4.459  10.552   1.813 -0.0141  0.3824 -0.0070
  785HK4    C3365879   4.557  10.476   1.889 -0.2952 -0.0205 -0.0473
  785HK4    C3565880   4.527  10.364   1.965  0.2990  0.1266  0.4141
  785HK4    H1765881   4.610  10.307   2.007  1.0529  0.7118 -0.2642
  785HK4    C3665882   4.397  10.315   1.956  0.3435  0.1697 -0.5130
  785HK4    H1865883   4.371  10.222   2.008 -0.2417  0.8892  0.5316
  785HK4    C3765884   4.303  10.389   1.885 -0.0110  0.0567 -0.1596
  785HK4    H1965885   4.203  10.349   1.902  0.2388  0.2434  1.8423
  785HK4    C3865886   4.328  10.507   1.815  0.0890  0.0774 -0.0928
  785HK4    H2065887   4.264  10.550   1.738 -0.0262 -0.4446 -0.2901
  785HK4    C1465888   4.757  11.019   1.756  0.2917  0.1663  0.1384
  785HK4     C965889   4.701  11.146   1.738  0.0460  0.0537  0.1056
  785HK4     C865890   4.776   0.016   1.719 -0.0613  0.1149  0.0662
  785HK4    C1165891   4.913  11.245   1.715 -0.0614 -0.0163  0.6220
  785HK4     H465892   4.982   0.066   1.664 -0.0537 -1.0106 -0.7340
  785HK4    C1265893   4.973  11.124   1.750  0.4850  0.0638 -0.0130
  785HK4     H565894   5.079  11.116   1.724 -0.0489  0.2086 -2.3069
  785HK4    C1365895   4.897  11.009   1.770  0.3356  0.1050 -0.3275
  785HK4     H665896   4.941  10.942   1.846 -0.4654 -1.2445 -1.0452
  785HK4     C765897   4.718   0.147   1.680 -0.3875  0.0021  0.1711
  785HK4     O265898   4.789   0.245   1.656  0.1251 -0.4100 -0.0113
  785HK4     C465899   4.571   0.160   1.684 -0.3722  0.1029  0.5889
  785HK4     C365900   4.506   0.275   1.639 -0.0529 -0.1978 -0.6738
  785HK4     H365901   4.566   0.363   1.612  1.5281 -1.0620 -0.0870
  785HK4     C265902   4.367   0.281   1.632 -0.0794 -0.4574 -0.3442
  785HK4     H265903   4.324   0.380   1.612  0.9222 -0.0382 -0.4772
  785HK4     C165904   4.291   0.170   1.669 -0.0054 -0.4086 -0.0420
  785HK4     H165905   4.185   0.185   1.694  0.2319 -0.6164  1.1120
  785HK4     C665906   4.355   0.049   1.701 -0.1070 -0.4468  0.0141
  785HK4     C565907   4.493   0.048   1.720 -0.1422 -0.1565  0.2832
  785HK4    C1065908   4.555  11.168   1.763  0.0168 -0.1413  0.1057
  785HK4     O165909   4.503  11.113   1.860 -0.1466  0.2993  0.2697
  785HK4    C1665910   4.281  11.184   1.642 -0.2114 -0.2189 -0.2948
  785HK4    C1565911   4.249  11.183   1.505  1.0244 -0.1133 -0.5888
  785HK4     H765912   4.285   0.022   1.448  2.8610 -1.6915 -1.9001
  785HK4    C2065913   4.185  11.080   1.437  0.0380 -0.0889  0.3035
  785HK4     H965914   4.197  11.070   1.330  1.1971  1.4653  0.2800
  785HK4    C1965915   4.140  10.975   1.516 -0.0253 -0.2985 -0.0113
  785HK4    C1865916   4.169  10.970   1.658  0.3366 -0.4553 -0.0918
  785HK4    C1765917   4.237  11.076   1.718 -0.4900  0.0574 -0.0651
  785HK4     H865918   4.244  11.080   1.826 -1.8715  0.2486  0.0289
  785HK4     N165919   4.108  10.856   1.715  0.0000 -0.4281 -0.3936
  785HK4    C2165920   4.041  10.787   1.612 -0.2121 -0.5449 -0.1743
  785HK4    C2265921   4.063  10.855   1.486  0.1500 -0.4070 -0.0340
  785HK4    C2665922   3.975  10.830   1.382 -0.0408  0.0663  0.0097
  785HK4    H1365923   3.978  10.882   1.287  0.5868  0.8851  0.4784
  785HK4    C2565924   3.874  10.734   1.392 -0.0616  0.0972  0.0956
  785HK4    H1265925   3.814  10.709   1.305 -1.0554  0.6414  0.6184
  785HK4    C2465926   3.851  10.670   1.514 -0.5124 -0.5514 -0.3308
  785HK4    H1165927   3.810  10.568   1.509  1.7007 -1.5366  0.9407
  785HK4    C2365928   3.934  10.699   1.621 -0.6512 -0.0397 -0.3596
  785HK4    H1065929   3.932  10.624   1.701  0.9522  1.3801  1.0524
  785HK4    C3965930   4.107  10.827   1.852  0.3793 -0.5264 -0.4107
  785HK4    C4165931   4.000  10.757   1.912  0.2119  0.1415  0.0764
  785HK4    H2165932   3.901  10.762   1.864  0.0110 -2.7663  0.1047
  785HK4    C4265933   4.005  10.699   2.038  0.6997 -0.3141 -0.1497
  785HK4    H2265934   3.915  10.649   2.077  1.3916 -0.7377  0.9357
  785HK4    C4365935   4.124  10.713   2.109  0.4772 -0.0778  0.1785
  785HK4    H2365936   4.138  10.681   2.212  2.3818 -3.4727 -1.0713
  785HK4    C4465937   4.235  10.774   2.052  0.1194  0.4640  0.0525
  785HK4    H2465938   4.325  10.787   2.115 -0.3216 -0.8176  0.9603
  785HK4    C4565939   4.228  10.829   1.925  0.3577 -0.4707 -0.3752
  785HK4    H2565940   4.319  10.838   1.864  0.9248 -0.5752  0.4510
  786HK4    H2865941   6.613   4.210  11.088  1.9432  0.6956  0.0850
  786HK4    C4865942   6.588   4.284  11.012  0.3384  0.2298  0.1256
  786HK4    C4765943   6.601   4.256  10.876  0.7047 -0.4583  0.2987
  786HK4    H2765944   6.639   4.157  10.847  2.6600  0.4085 -0.2090
  786HK4    C4665945   6.572   4.357  10.785 -0.1197 -0.5928  0.4124
  786HK4    H2665946   6.577   4.335  10.677  0.7051 -1.5730  0.6322
  786HK4    C4065947   6.522   4.479  10.833  0.0406 -0.3126 -0.1219
  786HK4    C5065948   6.505   4.506  10.971  0.7931 -0.0280 -0.0813
  786HK4    H3065949   6.453   4.597  11.002  0.7665 -0.1072  0.1004
  786HK4    C4965950   6.542   4.405  11.060 -0.7688 -0.2595  0.3032
  786HK4    H2965951   6.565   4.438  11.162 -0.1340  0.1156  0.0389
  786HK4     N265952   6.458   4.561  10.739 -0.0138 -0.0662  0.1325
  786HK4    C3065953   6.363   4.526  10.641 -0.0955  0.3232  0.0707
  786HK4    C2965954   6.285   4.411  10.636  0.4382 -0.0443  0.2151
  786HK4    H1565955   6.277   4.351  10.727 -1.6738  0.3243  0.2838
  786HK4    C2865956   6.207   4.375  10.526  0.2373  0.1091  0.3089
  786HK4    C2765957   6.200   4.475  10.427 -0.2218 -0.0188  0.2139
  786HK4    H1465958   6.137   4.455  10.339 -0.3079 -0.4160  0.3681
  786HK4    C3265959   6.260   4.600  10.435  0.1106 -0.1475 -0.2404
  786HK4    H1665960   6.271   4.658  10.343 -0.0514  2.5217  1.3804
  786HK4    C3165961   6.346   4.628  10.540  0.4372 -0.1547 -0.5058
  786HK4    C3465962   6.435   4.734  10.585 -0.5732  0.2428  0.5620
  786HK4    C3365963   6.500   4.691  10.707  0.0696 -0.0997  0.1004
  786HK4    C3565964   6.584   4.777  10.777  0.1978 -0.3097  0.2038
  786HK4    H1765965   6.638   4.735  10.861 -1.3840  0.5185  1.6662
  786HK4    C3665966   6.611   4.904  10.727 -0.1398 -0.2748  0.1060
  786HK4    H1865967   6.706   4.944  10.764 -0.4844  1.7372 -1.1101
  786HK4    C3765968   6.550   4.940  10.607 -0.3234 -0.3338  0.1858
  786HK4    H1965969   6.574   5.035  10.559  2.1539 -0.6749  0.7142
  786HK4    C3865970   6.458   4.863  10.537 -0.4747  0.0142 -0.0038
  786HK4    H2065971   6.416   4.905  10.446 -0.4897 -1.9950 -0.9556
  786HK4    C1465972   6.203   4.232  10.496  0.4541  0.0685  0.4745
  786HK4     C965973   6.220   4.181  10.367 -0.0365 -0.3306  0.5671
  786HK4     C865974   6.134   4.083  10.314 -0.2580  0.0965  0.1230
  786HK4    C1165975   6.046   4.015  10.398 -0.3418 -0.0641 -0.0964
  786HK4     H465976   5.981   3.935  10.360  1.5217 -1.5126 -0.3324
  786HK4    C1265977   6.033   4.050  10.531 -0.6926  0.0439 -0.1556
  786HK4     H565978   5.971   4.002  10.609 -1.4276  2.3812  0.7386
  786HK4    C1365979   6.112   4.157  10.573 -0.6085  0.1794 -0.6670
  786HK4     H665980   6.099   4.191  10.677  1.2936  1.8948 -0.9617
  786HK4     C765981   6.117   4.061  10.168 -0.1049 -0.1694  0.1467
  786HK4     O265982   6.078   3.953  10.124  0.1463 -0.4040  0.4900
  786HK4     C465983   6.181   4.160  10.079 -0.2872  0.3089  0.5415
  786HK4     C365984   6.146   4.157   9.944  0.0585  0.5745  0.4434
  786HK4     H365985   6.073   4.086   9.902  1.2497 -1.4651  1.7786
  786HK4     C265986   6.196   4.248   9.852  0.5085 -0.0681  0.0541
  786HK4     H265987   6.155   4.247   9.750 -0.5906  1.7002  0.4525
  786HK4     C165988   6.286   4.343   9.899  0.3810 -0.0918  0.3430
  786HK4     H165989   6.313   4.427   9.835  0.9523 -0.1526  0.5044
  786HK4     C665990   6.321   4.353  10.036  0.7096 -0.1579  0.2671
  786HK4     C565991   6.276   4.254  10.124  0.0992  0.0786  0.2146
  786HK4    C1065992   6.311   4.247  10.268 -0.3287 -0.3150  0.3032
  786HK4     O165993   6.428   4.270  10.298 -0.2681 -0.5461  0.2376
  786HK4    C1665994   6.333   4.492  10.082  0.2508 -0.0706  0.1284
  786HK4    C1565995   6.227   4.580  10.056 -0.0245 -0.2576  0.6107
  786HK4     H765996   6.143   4.540   9.997 -0.1699  0.4743  0.3048
  786HK4    C2065997   6.241   4.717  10.078  0.1439 -0.0966 -0.5002
  786HK4     H965998   6.157   4.785  10.096 -0.0632 -0.6567  0.6965
  786HK4    C1965999   6.364   4.773  10.110 -0.0088 -0.0824  0.0547
  786HK4    C1866000   6.478   4.685  10.107  0.1524  0.1111  0.4153
  786HK4    C1766001   6.459   4.547  10.100  0.1050  0.1030  0.6471
  786HK4     H866002   6.544   4.483  10.124  0.2845  0.5170  1.1257
  786HK4     N166003   6.597   4.757  10.128  0.3122 -0.2495  0.7592
  786HK4    C2166004   6.548   4.880  10.176 -0.2659 -0.1983  0.0526
  786HK4    C2266005   6.408   4.905  10.151 -0.3083 -0.0882  0.4000
  786HK4    C2666006   6.346   5.021  10.198  0.1590  0.4237 -0.2320
  786HK4    H1366007   6.255   5.055  10.148 -0.4569 -2.7658 -1.4511
  786HK4    C2566008   6.423   5.110  10.271  0.4844  0.0569 -0.1229
  786HK4    H1266009   6.374   5.198  10.312 -2.1087 -1.3092 -0.1864
  786HK4    C2466010   6.559   5.090  10.290  0.3890 -0.4182  0.0500
  786HK4    H1166011   6.605   5.170  10.351  0.3804 -0.2468 -0.1695
  786HK4    C2366012   6.622   4.975  10.246  0.1995 -0.4816 -0.0560
  786HK4    H1066013   6.710   4.948  10.304 -0.9772 -1.2409  1.4015
  786HK4    C3966014   6.717   4.750  10.055 -0.3420 -0.1126 -0.3371
  786HK4    C4166015   6.845   4.787  10.099 -0.1754 -0.7684 -0.2698
  786HK4    H2166016   6.863   4.798  10.207 -0.5031 -0.6404 -0.2259
  786HK4    C4266017   6.961   4.783  10.022 -0.0462 -0.4245 -0.0939
  786HK4    H2266018   7.054   4.822  10.064 -0.5509 -0.7592  1.3522
  786HK4    C4366019   6.949   4.739   9.890 -0.0651 -0.5929 -0.0352
  786HK4    H2366020   7.037   4.737   9.826  1.1053  0.6152  1.4868
  786HK4    C4466021   6.822   4.704   9.845  0.0070  0.1479 -0.8135
  786HK4    H2466022   6.818   4.668   9.741  1.0919 -0.8321 -0.5239
  786HK4    C4566023   6.706   4.709   9.921  0.2436  0.0836 -0.4475
  786HK4    H2566024   6.615   4.700   9.859  1.2356 -1.2625 -1.7577
  787HK4    H2866025   1.187   1.975   0.549  0.8200 -0.3956 -1.5140
  787HK4    C4866026   1.111   2.043   0.511 -0.0556 -0.5176 -0.0034
  787HK4    C4766027   1.025   2.000   0.411  0.4059 -0.3240 -0.4853
  787HK4    H2766028   1.052   1.918   0.343  2.1454  0.3264 -0.6215
  787HK4    C4666029   0.913   2.078   0.383  0.3963 -0.1946 -0.0851
  787HK4    H2666030   0.834   2.036   0.320 -0.0457  1.2629 -0.5068
  787HK4    C4066031   0.894   2.203   0.444  0.4854  0.0353 -0.5288
  787HK4    C5066032   0.984   2.240   0.547 -0.2167  0.0611  0.0834
  787HK4    H3066033   0.968   2.332   0.604 -0.5889  0.1298 -0.1323
  787HK4    C4966034   1.099   2.167   0.574 -0.2966 -0.2881 -0.4990
  787HK4    H2966035   1.168   2.200   0.653  1.4871 -1.3820 -1.5494
  787HK4     N266036   0.822   2.300   0.374  0.2916  0.2616 -0.0216
  787HK4    C3066037   0.808   2.315   0.234 -0.3071 -0.4012 -0.0349
  787HK4    C2966038   0.882   2.266   0.127  0.2005  0.2190  0.0282
  787HK4    H1566039   0.980   2.224   0.152  0.3293  0.2618 -0.3966
  787HK4    C2866040   0.861   2.305  11.243  0.4664  0.5062  0.0697
  787HK4    C2766041   0.752   2.391  11.218  0.1492  0.1661  0.2687
  787HK4    H1466042   0.730   2.411  11.112 -2.3524 -1.0382  0.5327
  787HK4    C3266043   0.674   2.446   0.071  0.1196  0.5865  0.0150
  787HK4    H1666044   0.608   2.532   0.055  0.0076  0.3832 -0.6391
  787HK4    C3166045   0.704   2.410   0.201  0.3312  0.2718 -0.1213
  787HK4    C3466046   0.652   2.462   0.326  0.8202  0.5968 -0.0512
  787HK4    C3366047   0.721   2.383   0.427 -0.0076 -0.1002 -0.0202
  787HK4    C3566048   0.697   2.413   0.561 -0.9547  0.0363 -0.2178
  787HK4    H1766049   0.716   2.348   0.647 -0.1433  0.5164 -0.0293
  787HK4    C3666050   0.624   2.527   0.593 -0.5389  0.2993 -0.2010
  787HK4    H1866051   0.628   2.569   0.694 -0.9733  2.4197 -1.0380
  787HK4    C3766052   0.553   2.601   0.499  0.2264  0.6242 -0.5222
  787HK4    H1966053   0.489   2.686   0.524  0.9817  1.0801 -0.0999
  787HK4    C3866054   0.564   2.561   0.366 -0.0048 -0.0108 -0.3505
  787HK4    H2066055   0.503   2.614   0.293  0.4369  0.3378 -0.4693
  787HK4    C1466056   0.983   2.296  11.162  0.3185  0.0499 -0.1042
  787HK4     C966057   1.019   2.390  11.064  0.1558 -0.1742 -0.3831
  787HK4     C866058   1.085   2.357  10.945  0.4340 -0.4701 -0.1436
  787HK4    C1166059   1.119   2.225  10.919 -0.3276 -0.6070 -0.4587
  787HK4     H466060   1.149   2.189  10.820 -2.7743 -1.4424 -0.9328
  787HK4    C1266061   1.091   2.128  11.015 -0.4920 -0.0001  0.1138
  787HK4     H566062   1.117   2.022  11.004  0.1974  0.3720 -2.0386
  787HK4    C1366063   1.030   2.166  11.134 -0.1592 -0.2236  0.3595
  787HK4     H666064   1.050   2.106  11.224  0.6740  1.0023  1.0036
  787HK4     C766065   1.115   2.464  10.846  0.0430 -0.3824 -0.1701
  787HK4     O266066   1.202   2.444  10.761  0.2976 -0.0129  0.0047
  787HK4     C466067   1.070   2.603  10.868  0.3712 -0.3054  0.0223
  787HK4     C366068   1.071   2.691  10.761  0.2225 -0.0522  0.2276
  787HK4     H366069   1.111   2.664  10.662 -0.8567 -0.9304  0.0339
  787HK4     C266070   1.006   2.813  10.773  0.2230 -0.0667  0.3880
  787HK4     H266071   0.995   2.878  10.685  2.8969 -1.1451 -0.8003
  787HK4     C166072   0.936   2.845  10.889 -0.2875 -0.4589  0.1920
  787HK4     H166073   0.883   2.941  10.890  0.6569  0.0583  1.2186
  787HK4     C666074   0.931   2.755  10.998 -0.6127 -0.9161 -0.1943
  787HK4     C566075   1.005   2.637  10.989  0.2681 -0.3848 -0.0070
  787HK4    C1066076   1.002   2.535  11.097 -0.0261 -0.2961  0.0653
  787HK4     O166077   1.032   2.573  11.210  0.3258 -0.5889  0.0747
  787HK4    C1666078   0.813   2.768  11.085 -0.3295 -0.1230  0.0867
  787HK4    C1566079   0.685   2.796  11.033 -0.2291 -0.1815 -0.1947
  787HK4     H766080   0.667   2.764  10.929 -1.1185  0.2500 -0.1806
  787HK4    C2066081   0.578   2.841  11.109 -0.1114 -0.8010  0.3383
  787HK4     H966082   0.480   2.851  11.063 -0.3111 -1.7914  0.5375
  787HK4    C1966083   0.603   2.858  11.245  0.1285 -0.2359  0.2245
  787HK4    C1866084   0.735   2.836   0.053  0.1141  0.0441  0.3715
  787HK4    C1766085   0.836   2.783  11.221  0.0560  0.5777 -0.0567
  787HK4     H866086   0.937   2.783   0.013  0.3907  0.9729 -0.8923
  787HK4     N166087   0.746   2.895   0.180 -0.3723 -0.0763  0.4688
  787HK4    C2166088   0.616   2.934   0.217 -0.5173 -0.3898  0.2878
  787HK4    C2266089   0.526   2.917   0.104 -0.0784  0.1772 -0.1494
  787HK4    C2666090   0.398   2.972   0.109  0.0497  0.5108 -0.5212
  787HK4    H1366091   0.333   2.950   0.024  0.7474  2.0142 -1.4444
  787HK4    C2566092   0.362   3.036   0.227  0.7650  0.5649 -0.3310
  787HK4    H1266093   0.265   3.083   0.244 -0.4476 -1.8008 -0.4845
  787HK4    C2466094   0.442   3.036   0.341  0.1000  0.5167  0.1361
  787HK4    H1166095   0.394   3.055   0.438  0.1485  1.0385  0.0574
  787HK4    C2366096   0.574   2.995   0.335  0.0744  0.4441  0.0633
  787HK4    H1066097   0.634   3.011   0.424  1.4747  1.2038 -0.9758
  787HK4    C3966098   0.839   2.850   0.275 -0.1497 -0.6291 -0.0051
  787HK4    C4166099   0.882   2.943   0.372  0.1336 -0.2538 -0.4861
  787HK4    H2166100   0.850   3.048   0.377  1.0855 -0.0439  2.2664
  787HK4    C4266101   0.944   2.892   0.486  0.3427 -0.0491 -0.5078
  787HK4    H2266102   0.994   2.964   0.553 -0.1799  0.1451 -0.3233
  787HK4    C4366103   0.974   2.757   0.499 -0.5214 -0.1890  0.1065
  787HK4    H2366104   1.019   2.722   0.592 -0.4698 -0.3942  0.0050
  787HK4    C4466105   0.956   2.672   0.391  0.3157  0.1860 -0.3373
  787HK4    H2466106   0.999   2.572   0.406  0.2611 -0.0181 -1.4845
  787HK4    C4566107   0.883   2.716   0.282  0.2271 -0.5360 -0.5760
  787HK4    H2566108   0.880   2.644   0.199 -1.1703  0.1021 -1.0935
  788HK4    H2866109  10.459   4.905   0.575 -0.5001 -0.2704 -0.3241
  788HK4    C4866110  10.536   4.928   0.501 -0.1294 -0.0664  0.1238
  788HK4    C4766111  10.498   5.002   0.390  0.1870 -0.0272  0.0414
  788HK4    H2766112  10.397   5.044   0.382 -0.6357 -1.8253  0.8475
  788HK4    C4666113  10.595   5.046   0.301  0.2083 -0.0519  0.0505
  788HK4    H2666114  10.561   5.113   0.220 -2.2095 -1.8381 -0.4752
  788HK4    C4066115  10.731   5.017   0.323  0.1670 -0.1905  0.1175
  788HK4    C5066116  10.769   4.957   0.445  0.2143 -0.5539 -0.0758
  788HK4    H3066117  10.874   4.929   0.457  0.8405  1.3816 -0.8450
  788HK4    C4966118  10.670   4.922   0.536 -0.0697  0.3293 -0.0341
  788HK4    H2966119  10.700   4.911   0.642 -0.3139 -0.2131 -0.0187
  788HK4     N266120  10.830   5.018   0.223  0.2121  0.4316  0.1641
  788HK4    C3066121  10.808   5.009   0.084 -0.3332  0.2499  0.2596
  788HK4    C2966122  10.724   4.928   0.009  0.2908 -0.2140  0.0506
  788HK4    H1566123  10.656   4.862   0.064 -1.1581  0.4724 -0.8807
  788HK4    C2866124  10.717   4.927  11.118  0.1122 -0.0598  0.0558
  788HK4    C2766125  10.804   5.016  11.052  0.2239 -0.0203  0.2542
  788HK4    H1466126  10.782   5.056  10.952  0.1181  1.6697  0.9374
  788HK4    C3266127  10.893   5.099  11.120 -0.1881  0.4356  0.2343
  788HK4    H1666128  10.936   5.172  11.051  0.0191 -0.4992 -0.6371
  788HK4    C3166129  10.903   5.090   0.010 -0.1154 -0.0644  0.1975
  788HK4    C3466130  10.998   5.143   0.106  0.3712 -0.4517 -0.0681
  788HK4    C3366131  10.945   5.097   0.233  0.5227 -0.0111  0.1541
  788HK4    C3566132  11.039   5.110   0.335  0.3982  0.0921  0.2569
  788HK4    H1766133  11.007   5.082   0.435  0.6069 -1.4342 -0.0882
  788HK4    C3666134  11.166   5.164   0.317  0.1589  0.4159 -0.4697
  788HK4    H1866135  11.232   5.164   0.405 -1.5903  0.0868  0.8608
  788HK4    C3766136  11.210   5.210   0.193  0.3994  0.4472 -0.3724
  788HK4    H1966137   0.056   5.266   0.188 -1.1318  3.4297  1.9720
  788HK4    C3866138  11.124   5.199   0.085  0.1116  0.1187 -0.1079
  788HK4    H2066139  11.148   5.243  11.236  2.3762  0.7176  0.7132
  788HK4    C1466140  10.671   4.807  11.047  0.2961 -0.5756  0.8023
  788HK4     C966141  10.724   4.778  10.920  0.1316  0.1420  0.5667
  788HK4     C866142  10.631   4.749  10.819  0.4307 -0.1160  0.3633
  788HK4    C1166143  10.500   4.711  10.847  0.2277  0.3722  0.0866
  788HK4     H466144  10.454   4.655  10.764  1.2204 -0.1146 -0.1412
  788HK4    C1266145  10.450   4.722  10.976 -0.3825  0.1152 -0.1284
  788HK4     H566146  10.354   4.680  11.008 -0.6073  0.1559 -0.7422
  788HK4    C1366147  10.538   4.768  11.073  0.0371 -0.4018 -0.2531
  788HK4     H666148  10.512   4.756  11.179  1.3014  1.2575  0.2749
  788HK4     C766149  10.682   4.737  10.680  0.1398  0.4173  0.2057
  788HK4     O266150  10.606   4.754  10.586 -0.0098  0.4271  0.3278
  788HK4     C466151  10.829   4.740  10.660  0.0914 -0.6228 -0.3752
  788HK4     C366152  10.883   4.713  10.535  0.4449 -0.2982 -0.2940
  788HK4     H366153  10.813   4.691  10.452 -1.1531  3.5068 -0.0974
  788HK4     C266154  11.019   4.717  10.509  0.4386 -0.6595 -0.3906
  788HK4     H266155  11.055   4.659  10.423  2.8587  0.6577 -0.3045
  788HK4     C166156  11.107   4.766  10.605 -0.1319  0.0428 -0.2205
  788HK4     H166157  11.215   4.768  10.585  0.0368 -2.3201  0.2616
  788HK4     C666158  11.061   4.797  10.735 -0.2574  0.6764 -0.4194
  788HK4     C566159  10.923   4.780  10.756 -0.1294 -0.2676 -0.3047
  788HK4    C1066160  10.871   4.776  10.896 -0.0111 -0.3518 -0.2654
  788HK4     O166161  10.942   4.738  10.989  0.1607 -0.0520 -0.2777
  788HK4    C1666162  11.145   4.900  10.797 -0.6372  0.3501  0.6485
  788HK4    C1566163  11.211   4.999  10.721  0.0162 -0.6683 -0.1351
  788HK4     H766164  11.149   5.047  10.645 -0.4352  0.2928  0.8316
  788HK4    C2066165   0.074   5.072  10.762 -0.5293  0.1683 -0.1333
  788HK4     H966166   0.117   5.148  10.697  0.5940 -1.4946 -1.3929
  788HK4    C1966167   0.125   5.047  10.890 -0.2395  0.3647 -0.2077
  788HK4    C1866168   0.066   4.944  10.973  0.0958  0.2386 -0.1289
  788HK4    C1766169  11.204   4.877  10.920 -0.0706  0.1378  0.3425
  788HK4     H866170  11.195   4.778  10.965 -2.6460 -0.0849 -0.6026
  788HK4     N166171   0.123   4.935  11.102  0.1482 -0.4531 -0.1973
  788HK4    C2166172   0.220   5.038  11.100 -0.2506 -0.0706  0.0786
  788HK4    C2266173   0.231   5.103  10.971  0.2038 -0.5803 -0.1374
  788HK4    C2666174   0.336   5.190  10.945 -0.1369 -0.0735  0.1613
  788HK4    H1366175   0.362   5.226  10.845 -0.3702  3.0401  1.1783
  788HK4    C2566176   0.430   5.217  11.043 -0.1507  0.5893 -0.0094
  788HK4    H1266177   0.529   5.254  11.014 -0.8305  0.5349 -2.5257
  788HK4    C2466178   0.416   5.168  11.172  0.2523  0.0886 -0.1564
  788HK4    H1166179   0.482   5.197   0.007  0.3433 -1.4459  0.3287
  788HK4    C2366180   0.312   5.078  11.196 -0.0903  0.4461 -0.2937
  788HK4    H1066181   0.290   5.037   0.046  0.6117 -0.9233 -0.6943
  788HK4    C3966182   0.059   4.869  11.208 -0.2121  0.2219  0.0087
  788HK4    C4166183   0.142   4.830   0.067 -0.3997  0.5134  0.2609
  788HK4    H2166184   0.248   4.831   0.035 -1.4205  0.9416 -3.3274
  788HK4    C4266185   0.089   4.790   0.189  0.4242 -0.4480  0.3136
  788HK4    H2266186   0.157   4.791   0.276  2.9557  0.2503 -1.5803
  788HK4    C4366187  11.200   4.772   0.204  0.2972  0.0622 -0.2179
  788HK4    H2366188  11.158   4.747   0.301  2.5383 -0.2880  0.6970
  788HK4    C4466189  11.117   4.805   0.097 -0.2532 -0.0770  0.1667
  788HK4    H2466190  11.009   4.793   0.108 -0.1324 -0.0843  1.4324
  788HK4    C4566191  11.168   4.863  11.230 -0.1716 -0.1548  0.1618
  788HK4    H2566192  11.093   4.905  11.161 -2.1134  0.0088  2.3341
  789HK4    H2866193   4.250   6.530   0.893 -0.5588  1.8157 -1.3715
  789HK4    C4866194   4.304   6.502   0.802 -0.1718 -0.0808 -0.5825
  789HK4    C4766195   4.299   6.369   0.763  0.5638 -0.1389 -0.4746
  789HK4    H2766196   4.225   6.308   0.815  1.4293 -1.4505 -0.7548
  789HK4    C4666197   4.396   6.325   0.673  0.8097 -0.8761  0.1448
  789HK4    H2666198   4.387   6.218   0.652 -1.3752 -0.6349 -0.3277
  789HK4    C4066199   4.499   6.407   0.622 -0.2721  0.2369 -0.2897
  789HK4    C5066200   4.497   6.541   0.665 -0.5435 -0.0523  0.6325
  789HK4    H3066201   4.563   6.617   0.622 -1.3347  0.7208  0.7618
  789HK4    C4966202   4.400   6.589   0.752 -0.5250  0.7696  0.2085
  789HK4    H2966203   4.405   6.693   0.789 -0.3868  0.8068  0.0876
  789HK4     N266204   4.573   6.367   0.510  0.2092 -0.2459  0.1953
  789HK4    C3066205   4.555   6.244   0.442 -0.6620  0.0746 -0.1644
  789HK4    C2966206   4.548   6.113   0.487 -0.0744  0.0582 -0.1175
  789HK4    H1566207   4.578   6.094   0.590  2.7405  0.8746 -0.7434
  789HK4    C2866208   4.538   6.009   0.396  0.5720 -0.0101 -0.1155
  789HK4    C2766209   4.544   6.032   0.257 -0.6611  0.2604 -0.1324
  789HK4    H1466210   4.533   5.945   0.190  2.1806 -0.4590  0.2789
  789HK4    C3266211   4.563   6.161   0.208  0.0686  0.1936 -0.0345
  789HK4    H1666212   4.589   6.184   0.105  0.3151  0.8133  0.1615
  789HK4    C3166213   4.571   6.265   0.300  0.1061  0.2133 -0.0605
  789HK4    C3466214   4.620   6.400   0.280  0.0325  0.2578  0.0597
  789HK4    C3366215   4.637   6.449   0.415 -0.2764  0.0951  0.1577
  789HK4    C3566216   4.721   6.554   0.448 -0.5183  0.5069 -0.5560
  789HK4    H1766217   4.748   6.562   0.553 -0.7633  1.0388 -0.5297
  789HK4    C3666218   4.786   6.616   0.341  0.5297  0.0059 -0.2168
  789HK4    H1866219   4.873   6.680   0.362  0.5402 -0.1991  0.3714
  789HK4    C3766220   4.763   6.578   0.209  0.3157 -0.5023 -0.0351
  789HK4    H1966221   4.782   6.649   0.129 -0.7684  1.6604  1.5724
  789HK4    C3866222   4.685   6.467   0.177  0.3497 -0.4714 -0.2264
  789HK4    H2066223   4.655   6.444   0.075  1.7184 -1.4840 -0.4223
  789HK4    C1466224   4.513   5.869   0.435 -0.3234  0.1439 -0.1072
  789HK4     C966225   4.528   5.754   0.357 -0.4665 -0.0139  0.1008
  789HK4     C866226   4.432   5.651   0.370 -0.3921 -0.0912  0.0455
  789HK4    C1166227   4.332   5.650   0.466 -0.3431 -0.3251  0.0947
  789HK4     H466228   4.247   5.580   0.462  0.1287 -1.0241  1.8437
  789HK4    C1266229   4.330   5.755   0.557  0.3602  0.2147 -0.5019
  789HK4     H566230   4.289   5.734   0.658 -3.4725  0.8560 -1.8411
  789HK4    C1366231   4.415   5.863   0.535 -0.0060  0.6595  0.2425
  789HK4     H666232   4.404   5.951   0.600  2.7473  2.1497 -1.2440
  789HK4     C766233   4.460   5.525   0.297 -0.4360 -0.0763  0.0033
  789HK4     O266234   4.360   5.472   0.250 -0.4330  0.0466 -0.1433
  789HK4     C466235   4.598   5.488   0.259 -0.0771  0.8219  0.3932
  789HK4     C366236   4.620   5.360   0.207 -0.2644  0.9445  0.0047
  789HK4     H366237   4.549   5.276   0.206  0.1637  0.5897 -0.9223
  789HK4     C266238   4.745   5.328   0.156 -0.5188 -0.3743  0.2064
  789HK4     H266239   4.767   5.242   0.090 -0.0455 -0.3304  0.3020
  789HK4     C166240   4.848   5.418   0.180 -0.3583 -0.5584  0.2099
  789HK4     H166241   4.946   5.389   0.138 -1.3231 -1.3866 -1.5344
  789HK4     C666242   4.836   5.530   0.265  0.0673  0.1853 -0.6993
  789HK4     C566243   4.705   5.575   0.285  0.3013  0.3199  0.5188
  789HK4    C1066244   4.664   5.716   0.309 -0.5350  0.2161 -0.2817
  789HK4     O166245   4.733   5.801   0.253 -0.1974  0.3239  0.2945
  789HK4    C1666246   4.960   5.588   0.319 -0.0915 -0.7660  0.7139
  789HK4    C1566247   5.087   5.541   0.280  0.2583  0.3538  0.4677
  789HK4     H766248   5.103   5.482   0.188  0.6576  0.9276  0.1736
  789HK4    C2066249   5.205   5.580   0.342  0.5694 -0.2385  0.2539
  789HK4     H966250   5.302   5.550   0.304  0.5553  0.0562 -0.0205
  789HK4    C1966251   5.199   5.671   0.446 -0.3506 -0.7012  0.6178
  789HK4    C1866252   5.071   5.727   0.486 -0.2203  0.3227 -0.3645
  789HK4    C1766253   4.956   5.678   0.425 -0.3184 -0.2272  0.2560
  789HK4     H866254   4.861   5.705   0.471  1.4070 -0.0242  3.8503
  789HK4     N166255   5.087   5.819   0.591 -0.1967 -0.3745  0.2470
  789HK4    C2166256   5.221   5.809   0.634  0.0949  0.4138 -0.4624
  789HK4    C2266257   5.294   5.723   0.543 -0.1776 -0.9331  0.5741
  789HK4    C2666258   5.433   5.715   0.550 -0.1569 -0.4798  0.6748
  789HK4    H1366259   5.483   5.670   0.464 -1.7710  0.5759 -0.8435
  789HK4    C2566260   5.497   5.782   0.654  0.2710 -0.2773  0.2817
  789HK4    H1266261   5.605   5.796   0.653  0.5191 -2.0579 -0.0315
  789HK4    C2466262   5.424   5.854   0.747 -0.4646 -0.9237  0.2066
  789HK4    H1166263   5.481   5.901   0.828  1.9524  0.5862 -2.3036
  789HK4    C2366264   5.286   5.872   0.739 -0.3480 -0.0837  0.1142
  789HK4    H1066265   5.247   5.946   0.810  2.4359  0.7918  0.7887
  789HK4    C3966266   5.005   5.931   0.609  0.5312  0.1654  0.2519
  789HK4    C4166267   4.997   5.997   0.733  0.2569  0.3808  0.1219
  789HK4    H2166268   5.011   5.936   0.824  1.2854  0.6769  0.1715
  789HK4    C4266269   4.956   6.128   0.758  0.2217  0.2632  0.7005
  789HK4    H2266270   4.968   6.167   0.860 -1.3699  0.2621  0.8944
  789HK4    C4366271   4.915   6.198   0.646 -0.0227 -0.2291  0.4820
  789HK4    H2366272   4.890   6.303   0.662  2.1237  0.2085  1.1664
  789HK4    C4466273   4.916   6.138   0.521  0.0871  0.0598  0.3439
  789HK4    H2466274   4.887   6.204   0.438 -2.8674 -1.3389  0.2134
  789HK4    C4566275   4.960   6.007   0.499 -0.5047 -0.1576  0.4448
  789HK4    H2566276   4.962   5.971   0.395  2.1600  1.9285 -0.2674
  790HK4    H2866277   0.893   2.065   1.371  0.7805 -0.3468 -0.6341
  790HK4    C4866278   0.940   2.010   1.452 -0.3143 -0.3805 -0.0089
  790HK4    C4766279   0.937   2.052   1.584  0.0194 -0.2875 -0.0309
  790HK4    H2766280   0.885   2.144   1.616 -1.1152 -1.3571  1.2493
  790HK4    C4666281   0.984   1.976   1.691  0.3411  0.5480  0.4299
  790HK4    H2666282   0.977   2.021   1.791  0.2033  0.5472  0.4206
  790HK4    C4066283   1.031   1.846   1.664 -0.4314  0.3912 -0.1493
  790HK4    C5066284   1.030   1.803   1.529 -0.5462 -0.5358  0.1445
  790HK4    H3066285   1.071   1.704   1.502  2.8248  1.0341 -0.8384
  790HK4    C4966286   0.989   1.882   1.423  0.3250 -0.1591  0.0815
  790HK4    H2966287   1.001   1.851   1.319  0.0684  1.4696 -0.4565
  790HK4     N266288   1.071   1.759   1.765  0.0399  0.2616 -0.4482
  790HK4    C3066289   1.029   1.765   1.900  0.4932  0.3541 -0.3083
  790HK4    C2966290   0.912   1.814   1.956  0.4132 -0.1746 -0.0091
  790HK4    H1566291   0.844   1.841   1.876  0.8576 -0.2005 -0.4004
  790HK4    C2866292   0.873   1.788   2.087  0.0803  0.2743 -0.0179
  790HK4    C2766293   0.958   1.715   2.173 -0.1106 -0.1760 -0.2167
  790HK4    H1466294   0.956   1.727   2.282  2.0206  0.5194 -0.2259
  790HK4    C3266295   1.077   1.665   2.121  0.0347 -0.1482  0.0890
  790HK4    H1666296   1.149   1.621   2.189  0.5480 -2.4524 -1.8700
  790HK4    C3166297   1.107   1.678   1.986  0.0785  0.4357  0.1518
  790HK4    C3466298   1.214   1.633   1.899 -0.4480 -0.2838 -0.1370
  790HK4    C3366299   1.190   1.682   1.765 -0.0001  0.1968 -0.0480
  790HK4    C3566300   1.282   1.659   1.664 -0.2804 -0.3725 -0.1796
  790HK4    H1766301   1.269   1.701   1.564  1.7687 -1.1061 -0.7856
  790HK4    C3666302   1.390   1.574   1.685  0.1254  0.3406  0.6755
  790HK4    H1866303   1.456   1.539   1.604 -1.4275 -0.4571 -0.2791
  790HK4    C3766304   1.414   1.520   1.811  0.6312 -0.2345  0.3370
  790HK4    H1966305   1.484   1.439   1.832  0.8348  0.0499  0.7704
  790HK4    C3866306   1.328   1.554   1.914 -0.3908 -0.2720 -0.4967
  790HK4    H2066307   1.346   1.496   2.005 -0.2949 -0.5776 -0.7124
  790HK4    C1466308   0.747   1.838   2.144  0.0799  0.1102  0.1242
  790HK4     C966309   0.739   1.879   2.277 -0.0763  0.0751  0.1260
  790HK4     C866310   0.630   1.827   2.351  0.0147 -0.1528  0.1019
  790HK4    C1166311   0.525   1.757   2.293  0.2933 -0.3591 -0.1556
  790HK4     H466312   0.429   1.740   2.343 -1.2990  2.3084 -2.1697
  790HK4    C1266313   0.523   1.737   2.156 -0.3302 -0.4360 -0.1368
  790HK4     H566314   0.438   1.680   2.115 -0.5100  0.4972 -1.1058
  790HK4    C1366315   0.634   1.779   2.083  0.1055 -0.3865  0.5532
  790HK4     H666316   0.617   1.763   1.976  1.4816 -1.1082  0.4340
  790HK4     C766317   0.629   1.861   2.495 -0.6520  0.8071 -0.1236
  790HK4     O266318   0.606   1.770   2.574 -0.1462  0.6520 -0.1525
  790HK4     C466319   0.689   1.988   2.540  0.0941  0.3599  0.1458
  790HK4     C366320   0.677   2.027   2.673 -0.1882 -0.0924  0.2522
  790HK4     H366321   0.606   1.977   2.740  0.6087 -1.1840  0.2995
  790HK4     C266322   0.731   2.149   2.712 -0.3303  0.0523  0.0039
  790HK4     H266323   0.741   2.175   2.818  3.0409 -0.0242 -0.2206
  790HK4     C166324   0.786   2.233   2.615 -0.0875 -0.0040  0.0920
  790HK4     H166325   0.854   2.311   2.652  0.2526 -0.4172  0.3478
  790HK4     C666326   0.794   2.202   2.478 -0.2494  0.3035  0.0102
  790HK4     C566327   0.759   2.069   2.448  0.5003  0.0608  0.1893
  790HK4    C1066328   0.809   2.002   2.325  0.2121 -0.1022  0.1628
  790HK4     O166329   0.928   2.013   2.298  0.1652  0.3043  0.1240
  790HK4    C1666330   0.786   2.314   2.384 -0.8027  0.1316 -0.1496
  790HK4    C1566331   0.830   2.298   2.251  0.0902 -0.0350  0.1580
  790HK4     H766332   0.907   2.224   2.228 -0.6118 -0.2976 -1.4257
  790HK4    C2066333   0.814   2.395   2.152 -0.1061 -0.1089  0.1165
  790HK4     H966334   0.839   2.376   2.048  0.7040  0.8626  0.1194
  790HK4    C1966335   0.746   2.513   2.182  0.0133  0.0696 -0.3161
  790HK4    C1866336   0.707   2.538   2.319  0.7754 -0.0022 -0.0845
  790HK4    C1766337   0.718   2.433   2.409 -0.0656  0.4206  0.5165
  790HK4     H866338   0.642   2.432   2.487 -0.6151  0.9497 -0.0117
  790HK4     N166339   0.648   2.666   2.332  0.3982 -0.1598 -0.2445
  790HK4    C2166340   0.645   2.718   2.201 -0.3270 -0.1597 -0.2253
  790HK4    C2266341   0.710   2.631   2.106 -0.4805 -0.1154 -0.3710
  790HK4    C2666342   0.722   2.665   1.971  0.5395 -0.3778 -0.3536
  790HK4    H1366343   0.741   2.584   1.901 -1.9042 -1.2434 -0.0752
  790HK4    C2566344   0.665   2.783   1.925  0.3314 -0.2824  0.1358
  790HK4    H1266345   0.663   2.802   1.817 -0.6285  2.0683  0.5394
  790HK4    C2466346   0.598   2.868   2.012  0.0429  0.1340 -0.4819
  790HK4    H1166347   0.518   2.937   1.984 -0.1627  0.1104  0.0476
  790HK4    C2366348   0.592   2.835   2.147  0.0988 -0.1071 -0.5370
  790HK4    H1066349   0.557   2.917   2.211 -1.4624 -1.7338  0.7647
  790HK4    C3966350   0.639   2.736   2.452 -0.0521 -0.6930  0.0362
  790HK4    C4166351   0.556   2.850   2.460  0.0832 -0.6255  0.5024
  790HK4    H2166352   0.463   2.849   2.402  1.2492  1.1864 -1.5085
  790HK4    C4266353   0.566   2.939   2.567  0.5606  0.0576 -0.0994
  790HK4    H2266354   0.489   3.017   2.578  1.6782  0.7482  3.1932
  790HK4    C4366355   0.656   2.914   2.670  0.3755 -0.3444 -0.0297
  790HK4    H2366356   0.645   2.954   2.771  0.2312  0.6899 -0.4441
  790HK4    C4466357   0.749   2.812   2.662  1.0186  0.1927  0.5535
  790HK4    H2466358   0.799   2.778   2.754 -1.0801 -3.3846  0.4490
  790HK4    C4566359   0.742   2.731   2.549 -0.0681  0.8545  0.1475
  790HK4    H2566360   0.836   2.680   2.528 -0.7341 -0.1813 -0.3528
  791HK4    H2866361   2.521   2.023   2.809  0.2473 -0.6048 -0.3586
  791HK4    C4866362   2.570   2.116   2.780 -0.1557 -0.2437  0.1205
  791HK4    C4766363   2.508   2.235   2.816  0.6349  0.0667  0.4626
  791HK4    H2766364   2.404   2.225   2.847  0.1569  3.1083  0.0158
  791HK4    C4666365   2.568   2.359   2.793 -0.0047  0.2499 -0.2237
  791HK4    H2666366   2.523   2.455   2.822 -0.0678  0.1749 -0.0773
  791HK4    C4066367   2.695   2.366   2.733  0.1716  0.4559  0.1741
  791HK4    C5066368   2.757   2.243   2.702 -0.4753  0.1353  0.1618
  791HK4    H3066369   2.866   2.252   2.699 -0.3999 -0.7959 -0.2349
  791HK4    C4966370   2.691   2.121   2.712 -0.2402 -0.0062 -0.0111
  791HK4    H2966371   2.731   2.035   2.656  0.9129  0.7816 -0.4247
  791HK4     N266372   2.745   2.477   2.663  0.3079  0.1952 -0.1444
  791HK4    C3066373   2.658   2.569   2.601  0.1817  0.3464  0.2570
  791HK4    C2966374   2.525   2.553   2.566  0.3338 -0.0848 -0.1404
  791HK4    H1566375   2.477   2.462   2.600 -1.3087  1.2777  1.3241
  791HK4    C2866376   2.447   2.655   2.511  0.1525 -0.2834 -0.2484
  791HK4    C2766377   2.511   2.779   2.497 -0.2968  0.0223  0.3983
  791HK4    H1466378   2.448   2.865   2.471 -2.9994 -2.5343 -1.7475
  791HK4    C3266379   2.647   2.800   2.523 -0.1500  0.0673 -0.3957
  791HK4    H1666380   2.693   2.880   2.467 -0.2229  2.2272  2.5287
  791HK4    C3166381   2.724   2.696   2.573 -0.0201  0.4300  0.1619
  791HK4    C3466382   2.859   2.678   2.624  0.2547 -0.2216 -0.7731
  791HK4    C3366383   2.870   2.542   2.673  0.3542  0.0764  0.0449
  791HK4    C3566384   2.983   2.500   2.742 -0.0719 -0.2589  0.5458
  791HK4    H1766385   2.979   2.407   2.798 -1.8738 -1.2123 -1.0862
  791HK4    C3666386   3.088   2.591   2.752 -0.5842  0.3799  0.1998
  791HK4    H1866387   3.174   2.562   2.814  0.2303  0.4428 -0.8832
  791HK4    C3766388   3.090   2.720   2.702 -0.1528  0.5088  0.5519
  791HK4    H1966389   3.171   2.793   2.695  0.6581 -0.4054  0.3850
  791HK4    C3866390   2.972   2.757   2.639  0.0221 -0.0105 -0.0843
  791HK4    H2066391   2.967   2.859   2.598  1.1518  0.8193  1.7906
  791HK4    C1466392   2.318   2.624   2.448  0.0238  0.4376 -0.3352
  791HK4     C966393   2.268   2.679   2.329 -0.2894  0.3198 -0.2589
  791HK4     C866394   2.129   2.682   2.304 -0.2820  0.0815 -0.3276
  791HK4    C1166395   2.040   2.615   2.388  0.0553  0.0518  0.0098
  791HK4     H466396   1.931   2.617   2.372  0.1798  0.0230 -0.9177
  791HK4    C1266397   2.098   2.543   2.491  0.0254  0.1898  0.1232
  791HK4     H566398   2.029   2.481   2.550  0.8130 -0.0950  0.7526
  791HK4    C1366399   2.232   2.548   2.530  0.2449 -0.0872 -0.5898
  791HK4     H666400   2.275   2.491   2.614  2.9164  1.2402 -1.0118
  791HK4     C766401   2.076   2.792   2.220 -0.4098  0.4575  0.2448
  791HK4     O266402   1.957   2.790   2.189 -0.3313  0.6552 -0.0622
  791HK4     C466403   2.166   2.892   2.159  0.0020 -0.2292 -0.2881
  791HK4     C366404   2.114   3.002   2.092 -0.1957 -0.1943 -0.0793
  791HK4     H366405   2.008   3.000   2.060  1.1028 -0.1966 -4.8640
  791HK4     C266406   2.193   3.086   2.014 -0.1838 -0.2636 -0.1405
  791HK4     H266407   2.144   3.149   1.938 -1.3914  1.3195  1.9257
  791HK4     C166408   2.329   3.060   2.023 -0.1297  0.0794  0.0182
  791HK4     H166409   2.393   3.131   1.969 -0.2254  2.1476  2.5078
  791HK4     C666410   2.392   2.957   2.096 -0.0433 -0.0805 -0.2844
  791HK4     C566411   2.305   2.870   2.162  0.0749  0.2830  0.3549
  791HK4    C1066412   2.357   2.750   2.234  0.0686 -0.0682 -0.2152
  791HK4     O166413   2.437   2.673   2.180  0.0252  0.0905 -0.5086
  791HK4    C1666414   2.538   2.972   2.113 -0.0182  0.0262 -0.5871
  791HK4    C1566415   2.591   3.101   2.130  0.3204 -0.2285  0.3088
  791HK4     H766416   2.517   3.171   2.171 -0.0217  0.0847 -0.8052
  791HK4    C2066417   2.720   3.138   2.093 -0.1184 -0.1126 -1.1304
  791HK4     H966418   2.759   3.229   2.138  1.3275 -1.9464  1.4499
  791HK4    C1966419   2.805   3.036   2.052 -0.1132 -0.2881 -0.6860
  791HK4    C1866420   2.762   2.898   2.043  0.0943 -0.3974 -0.0172
  791HK4    C1766421   2.627   2.876   2.065 -0.0678 -0.0157 -0.5935
  791HK4     H866422   2.582   2.786   2.022  2.0978 -0.6457 -1.5918
  791HK4     N166423   2.866   2.812   2.003  0.5109  0.1417 -0.1080
  791HK4    C2166424   2.975   2.896   1.974  0.3254  0.3179 -0.2950
  791HK4    C2266425   2.945   3.032   2.014  0.0641  0.2019 -0.0961
  791HK4    C2666426   3.043   3.131   2.018  0.1473  0.0803  0.9567
  791HK4    H1366427   3.026   3.233   2.051 -1.8271 -0.4177  1.5690
  791HK4    C2566428   3.175   3.096   1.994 -0.1030  0.4468 -0.9959
  791HK4    H1266429   3.253   3.171   2.006  0.2973 -0.1353  0.0912
  791HK4    C2466430   3.206   2.965   1.960 -0.1824  0.1450  0.0871
  791HK4    H1166431   3.309   2.936   1.935 -1.0165 -2.0726 -0.9374
  791HK4    C2366432   3.108   2.867   1.944  0.2479 -0.2617 -0.0908
  791HK4    H1066433   3.131   2.772   1.898 -1.3381  0.2868 -2.1013
  791HK4    C3966434   2.880   2.679   2.044  0.1477  0.2240  0.2877
  791HK4    C4166435   2.983   2.596   1.996  0.0379 -0.0387  0.5056
  791HK4    H2166436   3.014   2.600   1.891  0.0158  1.0068  0.5426
  791HK4    C4266437   3.032   2.486   2.067  0.4536 -0.0277  0.2364
  791HK4    H2266438   3.127   2.441   2.034  0.2773 -0.8196  0.8034
  791HK4    C4366439   2.983   2.453   2.193 -0.4181 -0.4569 -0.2141
  791HK4    H2366440   3.019   2.368   2.251 -2.0131  0.4089  2.0938
  791HK4    C4466441   2.886   2.537   2.244 -0.0493  0.0019 -0.2639
  791HK4    H2466442   2.856   2.521   2.349 -1.2292 -2.3464 -0.9266
  791HK4    C4566443   2.839   2.648   2.176 -0.4231  0.0510  0.0696
  791HK4    H2566444   2.744   2.693   2.209 -1.7334 -1.5692 -1.3382
  792HK4    H2866445   8.798   8.446   5.457  0.6875 -0.6275  0.0377
  792HK4    C4866446   8.818   8.406   5.357  0.3534 -0.2195 -0.1952
  792HK4    C4766447   8.826   8.270   5.328 -0.3232 -0.3400  0.1514
  792HK4    H2766448   8.821   8.196   5.409  1.1906 -0.4750  0.1433
  792HK4    C4666449   8.842   8.213   5.202 -0.8775 -0.2722  0.0476
  792HK4    H2666450   8.850   8.103   5.197  0.4454 -0.2698  1.5072
  792HK4    C4066451   8.848   8.300   5.092  0.4578 -0.0400  0.2917
  792HK4    C5066452   8.847   8.438   5.119  0.2247  0.0557 -0.1741
  792HK4    H3066453   8.846   8.512   5.038  1.4311 -2.2120 -2.3145
  792HK4    C4966454   8.838   8.489   5.248  0.1710 -0.0824 -0.1241
  792HK4    H2966455   8.869   8.591   5.275  0.5054 -0.0136 -0.7616
  792HK4     N266456   8.879   8.249   4.965  0.4908  0.4416  0.1042
  792HK4    C3066457   8.808   8.286   4.849 -0.0499 -0.3702  0.1694
  792HK4    C2966458   8.677   8.331   4.851 -0.0147 -0.2601  0.0650
  792HK4    H1566459   8.633   8.368   4.944  1.3401 -2.9450  1.8243
  792HK4    C2866460   8.605   8.326   4.732  0.2023  0.7206 -0.1122
  792HK4    C2766461   8.676   8.280   4.619  0.2684 -0.0809  0.2524
  792HK4    H1466462   8.623   8.303   4.525 -3.3258  0.1162  2.2131
  792HK4    C3266463   8.809   8.241   4.615  0.2655 -0.0691 -0.0079
  792HK4    H1666464   8.873   8.232   4.527 -0.2549 -0.7155 -0.3260
  792HK4    C3166465   8.881   8.236   4.734  0.3384  0.6111 -0.0179
  792HK4    C3466466   8.979   8.143   4.785 -0.0395  0.0911 -0.2444
  792HK4    C3366467   8.975   8.152   4.929 -0.5280 -0.4517 -0.2221
  792HK4    C3566468   9.063   8.076   5.006  0.4232  0.3395 -0.5159
  792HK4    H1766469   9.080   8.088   5.113  0.9447  1.5261 -0.7176
  792HK4    C3666470   9.146   7.983   4.945 -0.0541 -0.1335 -0.4401
  792HK4    H1866471   9.183   7.903   5.010 -1.4488 -1.6210 -1.4181
  792HK4    C3766472   9.151   7.972   4.806 -0.0028 -0.2530 -0.4287
  792HK4    H1966473   9.228   7.907   4.764  0.5115  0.4520 -0.5916
  792HK4    C3866474   9.066   8.050   4.728 -0.2334 -0.1762 -0.1016
  792HK4    H2066475   9.086   8.054   4.621  2.8401 -0.1715  0.4320
  792HK4    C1466476   8.459   8.340   4.733  0.1055 -0.2123 -0.2115
  792HK4     C966477   8.384   8.284   4.629 -0.0393 -0.2459 -0.0914
  792HK4     C866478   8.288   8.367   4.568 -0.2219 -0.3619  0.0369
  792HK4    C1166479   8.265   8.495   4.618  0.6278 -0.1322 -0.1490
  792HK4     H466480   8.198   8.574   4.578 -0.2928 -0.0881  1.4489
  792HK4    C1266481   8.335   8.546   4.726  0.5001 -0.7309  0.2201
  792HK4     H566482   8.324   8.647   4.767 -0.6372 -1.0489  0.6982
  792HK4    C1366483   8.429   8.466   4.790  0.7566 -0.3163  0.3661
  792HK4     H666484   8.458   8.488   4.894 -0.7135 -3.2959  1.4481
  792HK4     C766485   8.198   8.311   4.465 -0.2392  0.4496 -0.3923
  792HK4     O266486   8.138   8.381   4.384 -0.3510  0.1454 -0.5742
  792HK4     C466487   8.188   8.163   4.458  0.3570  0.3962 -0.2062
  792HK4     C366488   8.101   8.110   4.364  0.9107 -0.6228 -0.1440
  792HK4     H366489   8.086   8.161   4.267 -0.3302  1.1300  0.9477
  792HK4     C266490   8.065   7.976   4.369  0.2538 -0.4408  0.0313
  792HK4     H266491   7.993   7.932   4.299  0.0058 -2.2449  1.3847
  792HK4     C166492   8.116   7.897   4.472 -0.0812 -0.7384 -0.0307
  792HK4     H166493   8.061   7.802   4.481 -2.1265  0.3217 -0.9795
  792HK4     C666494   8.202   7.947   4.571  0.1219 -0.1680 -0.4870
  792HK4     C566495   8.245   8.079   4.556 -0.4456  0.0772 -0.0025
  792HK4    C1066496   8.363   8.136   4.627 -0.2545 -0.2114 -0.0840
  792HK4     O166497   8.463   8.066   4.638 -0.1481 -0.0669 -0.1214
  792HK4    C1666498   8.247   7.853   4.676 -0.0907  0.6278  0.3224
  792HK4    C1566499   8.231   7.714   4.660  0.0884  0.6820 -0.3781
  792HK4     H766500   8.223   7.670   4.560 -0.3151 -2.2340  0.8854
  792HK4    C2066501   8.234   7.625   4.767  0.4845  0.4702 -0.5634
  792HK4     H966502   8.196   7.526   4.742 -2.7249  0.4704  3.7988
  792HK4    C1966503   8.253   7.675   4.896  0.3400 -0.2956 -0.2476
  792HK4    C1866504   8.265   7.818   4.911 -0.0597 -0.2790 -0.0844
  792HK4    C1766505   8.266   7.906   4.803  0.6033  0.2791  0.3686
  792HK4     H866506   8.246   8.011   4.825 -3.8743 -0.7877  1.8884
  792HK4     N166507   8.277   7.854   5.046 -0.2169  0.0490 -0.1568
  792HK4    C2166508   8.271   7.732   5.117 -0.3827  0.0213 -0.2180
  792HK4    C2266509   8.253   7.618   5.029 -0.0125 -0.0846 -0.1557
  792HK4    C2666510   8.280   7.488   5.070  0.5805 -0.1979 -0.9055
  792HK4    H1366511   8.299   7.412   4.994 -1.5107 -0.5782 -1.0723
  792HK4    C2566512   8.311   7.461   5.202 -0.9753  0.1249 -0.4635
  792HK4    H1266513   8.328   7.357   5.231 -1.1375 -0.6467 -3.0900
  792HK4    C2466514   8.332   7.566   5.291  0.2518 -0.2063 -0.3397
  792HK4    H1166515   8.385   7.546   5.385 -0.9978  2.3035  0.9365
  792HK4    C2366516   8.311   7.696   5.245  0.7852 -0.2322 -0.6506
  792HK4    H1066517   8.354   7.769   5.313 -0.1683 -1.3001  1.1441
  792HK4    C3966518   8.346   7.965   5.096 -0.3186 -0.0065  0.1068
  792HK4    C4166519   8.322   8.003   5.230 -0.0259 -0.4894  0.2964
  792HK4    H2166520   8.250   7.942   5.287 -3.4237  0.8616 -2.3304
  792HK4    C4266521   8.389   8.110   5.286  0.1499 -0.1895 -0.4755
  792HK4    H2266522   8.354   8.142   5.386  0.8916 -3.0794  0.7381
  792HK4    C4366523   8.483   8.182   5.214  0.4644 -0.3614 -0.2333
  792HK4    H2366524   8.529   8.268   5.262  2.5129 -1.3373 -0.4071
  792HK4    C4466525   8.512   8.141   5.084 -0.0546  0.2530 -0.5417
  792HK4    H2466526   8.609   8.166   5.038 -2.0227  1.5144 -4.2431
  792HK4    C4566527   8.440   8.039   5.022  0.1024 -0.3609  0.2775
  792HK4    H2566528   8.482   8.003   4.927 -1.2561  0.4851 -0.6625
  793HK4    H2866529   4.240   4.716   8.082  0.6472  0.7816 -1.5492
  793HK4    C4866530   4.251   4.617   8.039  0.0250 -0.0780  0.2338
  793HK4    C4766531   4.353   4.530   8.073  0.2824  0.1348  0.0100
  793HK4    H2766532   4.423   4.572   8.147  1.5761  2.9422 -2.7033
  793HK4    C4666533   4.365   4.404   8.014 -0.2510  0.1956 -0.2238
  793HK4    H2666534   4.441   4.335   8.051 -1.5592 -0.8638  0.5210
  793HK4    C4066535   4.275   4.362   7.914  0.0088  0.3262 -0.5137
  793HK4    C5066536   4.179   4.455   7.869 -0.6576 -0.1359 -0.0474
  793HK4    H3066537   4.136   4.446   7.768  0.4683 -1.3816 -0.4421
  793HK4    C4966538   4.168   4.576   7.935 -0.1960 -0.4069  0.5398
  793HK4    H2966539   4.077   4.635   7.913 -0.0246  0.5488  2.2804
  793HK4     N266540   4.302   4.247   7.837  0.4339  0.1040 -0.0379
  793HK4    C3066541   4.431   4.192   7.824  0.4870 -0.0208  0.9528
  793HK4    C2966542   4.551   4.260   7.809  0.0437  0.4997 -0.3074
  793HK4    H1566543   4.558   4.366   7.833 -0.4929 -0.0060  2.2705
  793HK4    C2866544   4.666   4.199   7.761 -0.0956  0.1720 -0.2230
  793HK4    C2766545   4.660   4.061   7.732 -0.1192  0.1814 -0.2635
  793HK4    H1466546   4.754   4.008   7.713  0.6150  1.2578  0.3806
  793HK4    C3266547   4.546   3.983   7.750 -0.2151  0.3030 -0.3505
  793HK4    H1666548   4.542   3.875   7.736  0.7458  0.1359  0.6636
  793HK4    C3166549   4.431   4.051   7.790  0.0068  0.0253  0.7507
  793HK4    C3466550   4.289   4.025   7.773  0.0795  0.2017 -0.1480
  793HK4    C3366551   4.212   4.142   7.810  0.2432  0.2155  0.1549
  793HK4    C3566552   4.075   4.136   7.831  0.2393 -0.0713  0.0473
  793HK4    H1766553   4.025   4.224   7.871  0.0085  0.1198 -0.6682
  793HK4    C3666554   4.006   4.016   7.826  0.0859  0.0548 -0.7878
  793HK4    H1866555   3.897   4.022   7.809 -0.0611  0.1828  0.1890
  793HK4    C3766556   4.080   3.901   7.798  0.0485 -0.1234 -0.1562
  793HK4    H1966557   4.017   3.815   7.775  0.2132 -0.4554  0.6246
  793HK4    C3866558   4.215   3.908   7.767  0.0597  0.2087 -0.0370
  793HK4    H2066559   4.265   3.811   7.755 -3.0661 -1.4433 -0.2443
  793HK4    C1466560   4.768   4.285   7.699 -0.0126  0.3424  0.1498
  793HK4     C966561   4.845   4.242   7.590  0.1403 -0.0004  0.3898
  793HK4     C866562   4.985   4.237   7.606  0.2410  0.8884 -0.1738
  793HK4    C1166563   5.044   4.295   7.718 -0.0916  0.3129  0.3064
  793HK4     H466564   5.154   4.294   7.726  0.0816  1.6543 -1.4606
  793HK4    C1266565   4.970   4.369   7.809  0.0264  0.1482  0.5373
  793HK4     H566566   5.027   4.418   7.889  0.1611 -0.3237  0.7316
  793HK4    C1366567   4.832   4.363   7.797  0.0535  0.3863  0.0722
  793HK4     H666568   4.770   4.435   7.853 -0.2748 -0.7671  1.2032
  793HK4     C766569   5.063   4.160   7.507  0.2075  0.2369  0.3041
  793HK4     O266570   5.173   4.114   7.535  0.1141  0.0721  0.4053
  793HK4     C466571   4.999   4.134   7.376 -0.0794  0.3267  0.4245
  793HK4     C366572   5.058   4.054   7.279 -0.2301  0.7358 -0.0077
  793HK4     H366573   5.142   3.987   7.306 -1.1272  0.5849  2.5533
  793HK4     C266574   5.008   4.050   7.149 -0.4580 -0.5324  0.1087
  793HK4     H266575   5.052   3.981   7.076 -0.8195 -1.5190  0.8131
  793HK4     C166576   4.907   4.141   7.119 -0.1298 -0.1331  0.2105
  793HK4     H166577   4.862   4.124   7.020 -0.9087  0.2391  0.4913
  793HK4     C666578   4.850   4.234   7.209 -0.3972 -0.0955  0.0027
  793HK4     C566579   4.887   4.213   7.343 -0.0224  0.2094 -0.0545
  793HK4    C1066580   4.790   4.242   7.451  0.2126 -0.5668  0.3613
  793HK4     O166581   4.674   4.202   7.440  0.0758  0.0045 -0.3081
  793HK4    C1666582   4.770   4.342   7.151  0.0144  0.1841 -0.0475
  793HK4    C1566583   4.721   4.354   7.020  0.3296  0.2547 -0.1591
  793HK4     H766584   4.713   4.260   6.964 -1.9655  0.4924 -0.2869
  793HK4    C2066585   4.655   4.467   6.972  0.0842  0.1194 -0.1397
  793HK4     H966586   4.608   4.465   6.874  1.3130  1.8202 -0.7907
  793HK4    C1966587   4.618   4.571   7.057  0.0309 -0.2106  0.2448
  793HK4    C1866588   4.653   4.553   7.196  0.0942 -0.2703  0.2205
  793HK4    C1766589   4.734   4.447   7.236  0.6406  0.1567  0.2511
  793HK4     H866590   4.771   4.465   7.337 -0.4317  2.6759  0.2398
  793HK4     N166591   4.601   4.659   7.274  0.1780  0.1551 -0.2971
  793HK4    C2166592   4.539   4.744   7.180  0.2134 -0.0034 -0.4629
  793HK4    C2266593   4.542   4.693   7.044 -0.0927 -0.3474 -0.3418
  793HK4    C2666594   4.485   4.761   6.937 -0.1487 -0.0653 -0.1348
  793HK4    H1366595   4.502   4.733   6.833  1.1861 -0.2852  0.1246
  793HK4    C2566596   4.430   4.885   6.967  0.1115 -0.0378  0.2300
  793HK4    H1266597   4.371   4.931   6.888  2.7838 -0.5122 -2.1001
  793HK4    C2466598   4.427   4.936   7.097  0.1789 -0.0737  0.2461
  793HK4    H1166599   4.380   5.033   7.112 -0.0967 -0.0542 -0.6855
  793HK4    C2366600   4.482   4.868   7.205  0.2044 -0.1374  0.1951
  793HK4    H1066601   4.471   4.907   7.306 -3.3791 -2.5882  0.8315
  793HK4    C3966602   4.548   4.639   7.402 -0.0693  0.0902 -0.4071
  793HK4    C4166603   4.520   4.508   7.444 -0.0455  0.2427  0.0971
  793HK4    H2166604   4.525   4.430   7.367  0.8876 -0.8903  1.2731
  793HK4    C4266605   4.484   4.485   7.577 -0.4404  0.2480 -0.0099
  793HK4    H2266606   4.479   4.379   7.605  0.2501  0.5986  1.4691
  793HK4    C4366607   4.487   4.590   7.669 -0.1496  0.2505 -0.0200
  793HK4    H2366608   4.435   4.577   7.763 -0.1667  0.5044  0.0053
  793HK4    C4466609   4.515   4.720   7.628 -0.3270  0.2815 -0.0397
  793HK4    H2466610   4.505   4.807   7.695  0.8848  1.0128 -0.7916
  793HK4    C4566611   4.546   4.745   7.495 -0.3576 -0.1584 -0.1319
  793HK4    H2566612   4.606   4.830   7.459 -0.3838 -0.4080 -0.7729
  794HK4    H2866613   8.383   4.172   8.577 -1.2687 -0.7764  0.6557
  794HK4    C4866614   8.449   4.086   8.594  0.1117  0.2033  0.3952
  794HK4    C4766615   8.392   3.961   8.617  0.1804  0.0431 -0.2794
  794HK4    H2766616   8.283   3.957   8.609  0.4371 -2.5679 -3.3542
  794HK4    C4666617   8.469   3.855   8.664 -0.3567 -0.1422  0.1845
  794HK4    H2666618   8.419   3.761   8.691 -1.2508 -0.3085 -1.9552
  794HK4    C4066619   8.609   3.870   8.664 -0.3039 -0.5783 -0.2652
  794HK4    C5066620   8.661   3.999   8.641 -0.8338 -0.3607 -0.2476
  794HK4    H3066621   8.768   4.017   8.656 -1.4717  2.1992  1.6624
  794HK4    C4966622   8.586   4.106   8.594  0.0563  0.5593  0.4167
  794HK4    H2966623   8.620   4.211   8.600  0.0968  0.3967  4.1399
  794HK4     N266624   8.700   3.775   8.713  0.4375  0.7456  0.9704
  794HK4    C3066625   8.667   3.669   8.799 -0.3522 -0.4149 -0.7345
  794HK4    C2966626   8.554   3.648   8.877  0.0870  0.2140  0.0784
  794HK4    H1566627   8.482   3.728   8.900  1.9298  1.8340  0.3289
  794HK4    C2866628   8.539   3.536   8.958 -0.3374 -0.1143 -0.4590
  794HK4    C2766629   8.635   3.434   8.942 -0.2330 -0.0559 -0.1869
  794HK4    H1466630   8.607   3.340   8.992  0.6010 -1.5927 -2.5229
  794HK4    C3266631   8.746   3.441   8.859 -0.1275  0.0688 -0.0367
  794HK4    H1666632   8.818   3.360   8.866 -1.4577 -1.3115 -1.7734
  794HK4    C3166633   8.767   3.564   8.797  0.2228  0.1052  0.1538
  794HK4    C3466634   8.869   3.611   8.705 -0.4892 -0.1291 -0.7736
  794HK4    C3366635   8.820   3.737   8.651 -0.2696  0.2490 -0.1049
  794HK4    C3566636   8.918   3.808   8.584 -0.2930  0.2060 -0.1880
  794HK4    H1766637   8.891   3.905   8.543  0.1588 -0.3947 -2.0048
  794HK4    C3666638   9.042   3.755   8.550 -0.6360 -0.3291 -0.6147
  794HK4    H1866639   9.117   3.816   8.497  0.3663  0.5084  1.7118
  794HK4    C3766640   9.086   3.634   8.601 -0.0641  0.1012 -0.0809
  794HK4    H1966641   9.183   3.592   8.574  0.6126  1.9647 -0.6164
  794HK4    C3866642   8.999   3.566   8.685 -0.2233  0.3164 -0.0719
  794HK4    H2066643   9.043   3.501   8.761  0.8558 -0.5717 -1.4332
  794HK4    C1466644   8.438   3.534   9.065  0.2270  0.3825  0.0868
  794HK4     C966645   8.449   3.451   9.177 -0.0237 -0.1348 -0.2684
  794HK4     C866646   8.334   3.385   9.225  0.0479  0.3792  0.6257
  794HK4    C1166647   8.212   3.422   9.171 -0.0943  0.5915  1.0902
  794HK4     H466648   8.124   3.371   9.214 -0.9701  0.4780 -0.7642
  794HK4    C1266649   8.199   3.525   9.078 -0.4076 -0.6243 -0.2495
  794HK4     H566650   8.101   3.573   9.061 -0.8094 -0.3700  2.4903
  794HK4    C1366651   8.313   3.582   9.023 -0.1783 -0.0959  0.7464
  794HK4     H666652   8.302   3.669   8.955  3.3645 -0.1988 -0.0379
  794HK4     C766653   8.345   3.276   9.325 -0.1251 -0.3927 -0.1892
  794HK4     O266654   8.242   3.234   9.379 -0.1643  0.0403  0.0751
  794HK4     C466655   8.480   3.240   9.374  0.2076 -0.1535 -0.9181
  794HK4     C366656   8.489   3.122   9.446  0.8716  0.0693 -0.6353
  794HK4     H366657   8.395   3.068   9.467  0.0279  0.7045 -2.6558
  794HK4     C266658   8.609   3.070   9.492  0.1051 -0.6375  0.6011
  794HK4     H266659   8.628   2.971   9.537  0.4079 -0.9646 -0.2336
  794HK4     C166660   8.723   3.145   9.463 -0.3851  0.3375  1.1770
  794HK4     H166661   8.815   3.108   9.510  0.3267  1.8308  0.9745
  794HK4     C666662   8.720   3.264   9.387  0.2103  0.0821  0.7528
  794HK4     C566663   8.597   3.311   9.341  0.4161 -0.0463  0.0598
  794HK4    C1066664   8.577   3.427   9.249 -0.2313 -0.1236  0.0999
  794HK4     O166665   8.637   3.529   9.281  0.2797 -0.3701 -0.0585
  794HK4    C1666666   8.850   3.306   9.333  0.0516 -0.0458  0.2652
  794HK4    C1566667   8.939   3.206   9.288 -0.1620 -0.3748  0.5810
  794HK4     H766668   8.902   3.104   9.271  1.9057 -1.2734  1.3120
  794HK4    C2066669   9.070   3.235   9.250 -0.4031  0.1723  0.1512
  794HK4     H966670   9.138   3.157   9.217 -2.3346 -1.3812 -0.2739
  794HK4    C1966671   9.112   3.367   9.257  0.1082 -0.0199  0.7352
  794HK4    C1866672   9.022   3.472   9.301 -0.2013  0.1722 -0.3467
  794HK4    C1766673   8.896   3.436   9.349 -0.2103  0.1330 -0.3957
  794HK4     H866674   8.866   3.503   9.431  0.2930 -2.2500  1.7991
  794HK4     N166675   9.077   3.598   9.269  0.3357 -0.1531 -0.7108
  794HK4    C2166676   9.209   3.576   9.226  0.6044 -0.3257  0.1952
  794HK4    C2266677   9.232   3.434   9.211  0.0672 -0.3981  0.0725
  794HK4    C2666678   9.353   3.382   9.168  0.0796 -0.0628 -0.3070
  794HK4    H1366679   9.371   3.274   9.175 -3.0194 -0.4769  2.2893
  794HK4    C2566680   9.453   3.471   9.128  0.0264 -0.0745 -0.4604
  794HK4    H1266681   9.554   3.432   9.120  0.7139  1.6734 -0.3343
  794HK4    C2466682   9.430   3.608   9.138  0.2479 -0.0629 -0.0933
  794HK4    H1166683   9.505   3.672   9.089  0.0162 -0.3236 -0.7856
  794HK4    C2366684   9.312   3.662   9.186  0.3824 -0.0475  0.2217
  794HK4    H1066685   9.307   3.770   9.199 -2.2688  0.1450 -1.8994
  794HK4    C3966686   9.003   3.710   9.229 -0.3516 -0.3818 -0.0986
  794HK4    C4166687   9.061   3.837   9.249 -0.5162 -0.3162 -0.0450
  794HK4    H2166688   9.133   3.851   9.331  2.7414  1.7399 -3.1406
  794HK4    C4266689   9.003   3.951   9.194 -0.5843 -0.4370 -0.2247
  794HK4    H2266690   9.045   4.049   9.220 -0.0667 -0.1436 -2.1303
  794HK4    C4366691   8.893   3.941   9.111 -0.4779 -0.0757 -0.4062
  794HK4    H2366692   8.830   4.027   9.088  0.7181  1.4285  1.8325
  794HK4    C4466693   8.833   3.817   9.088  0.0468 -0.4088  0.0165
  794HK4    H2466694   8.736   3.798   9.041  0.9362  0.2009 -2.1141
  794HK4    C4566695   8.888   3.705   9.148  0.0620 -0.7739 -0.6758
  794HK4    H2566696   8.821   3.617   9.145 -1.2686  0.2455 -1.0696
  795HK4    H2866697   7.165   3.230   7.686 -0.1549 -0.5026  0.6310
  795HK4    C4866698   7.138   3.209   7.583  0.3067 -0.0858  0.4195
  795HK4    C4766699   7.079   3.087   7.552  0.3587  0.0472 -0.2127
  795HK4    H2766700   7.043   3.025   7.636  1.3781 -0.9089 -0.4809
  795HK4    C4666701   7.064   3.043   7.421 -0.0219 -0.0192 -0.1484
  795HK4    H2666702   7.003   2.954   7.400 -1.0651  0.6512 -0.0078
  795HK4    C4066703   7.114   3.124   7.317  0.1914 -0.1660 -0.1603
  795HK4    C5066704   7.173   3.247   7.353 -0.3928  0.0948 -0.0939
  795HK4    H3066705   7.214   3.316   7.278 -2.6271 -1.1272 -2.5356
  795HK4    C4966706   7.183   3.295   7.483  0.1319 -0.4123  0.0581
  795HK4    H2966707   7.232   3.390   7.509 -1.0145  0.2242 -0.0342
  795HK4     N266708   7.061   3.111   7.188 -0.3389  0.3190  0.0059
  795HK4    C3066709   6.941   3.065   7.131  0.2336 -0.7999 -0.3139
  795HK4    C2966710   6.829   3.005   7.188 -0.0502  0.2882  0.2886
  795HK4    H1566711   6.850   2.940   7.274  0.0446  2.9416  2.3501
  795HK4    C2866712   6.706   2.988   7.127  0.0611  0.0709  0.1248
  795HK4    C2766713   6.706   3.025   6.991  0.4115 -0.3767  0.0008
  795HK4    H1466714   6.618   3.001   6.929  0.8987 -0.9266 -0.4839
  795HK4    C3266715   6.815   3.078   6.922 -0.0812  0.0967 -0.4185
  795HK4    H1666716   6.804   3.122   6.823 -0.4812 -0.7780 -0.7677
  795HK4    C3166717   6.933   3.103   6.991 -0.1231 -0.3686 -0.1790
  795HK4    C3466718   7.062   3.159   6.955 -0.1463  0.2395  0.6792
  795HK4    C3366719   7.140   3.148   7.077  0.4004 -0.4601  0.2674
  795HK4    C3566720   7.278   3.161   7.061  0.3133  0.1673  0.0453
  795HK4    H1766721   7.334   3.159   7.154  1.7938 -0.7853 -0.8465
  795HK4    C3666722   7.340   3.173   6.937 -0.0659  0.5047 -0.1177
  795HK4    H1866723   7.450   3.169   6.931 -0.1206  0.6943 -1.2248
  795HK4    C3766724   7.264   3.192   6.823 -0.0029  0.0559 -0.2386
  795HK4    H1966725   7.312   3.232   6.734 -0.4914 -2.4965 -1.7081
  795HK4    C3866726   7.126   3.180   6.834  0.0909 -0.1913  0.7269
  795HK4    H2066727   7.073   3.195   6.740  1.2497 -2.7024 -0.3762
  795HK4    C1466728   6.593   2.922   7.194 -0.1191  0.1897 -0.0608
  795HK4     C966729   6.483   2.871   7.124 -0.2410  0.4977 -0.0950
  795HK4     C866730   6.358   2.875   7.189 -0.2506  0.6261 -0.1168
  795HK4    C1166731   6.353   2.917   7.321 -0.2203  0.3139 -0.0175
  795HK4     H466732   6.254   2.952   7.351 -1.0389 -2.0462  0.1735
  795HK4    C1266733   6.464   2.952   7.398  0.0184 -0.3964 -0.0327
  795HK4     H566734   6.452   2.956   7.507 -0.4632  0.2210 -0.1051
  795HK4    C1366735   6.586   2.956   7.331  0.1902 -0.9619  0.2435
  795HK4     H666736   6.677   2.975   7.390 -0.4050 -3.1908  1.9577
  795HK4     C766737   6.233   2.852   7.113 -0.3416  0.5951  0.0441
  795HK4     O266738   6.124   2.850   7.169 -0.3443 -0.2021  0.0113
  795HK4     C466739   6.243   2.830   6.967  0.1320 -0.1169  0.1848
  795HK4     C366740   6.125   2.828   6.893  0.2775  0.4585 -0.0645
  795HK4     H366741   6.027   2.825   6.942  1.7604  1.0311  3.0288
  795HK4     C266742   6.128   2.790   6.759  0.3632 -0.8865  0.3108
  795HK4     H266743   6.031   2.767   6.713  1.4665 -1.6022 -1.7272
  795HK4     C166744   6.253   2.766   6.702  0.3502 -0.1368 -0.0476
  795HK4     H166745   6.255   2.799   6.598 -1.4131  1.3517  0.3629
  795HK4     C666746   6.374   2.761   6.774  0.5334  0.2561 -0.3325
  795HK4     C566747   6.366   2.790   6.911 -0.0808 -0.1104 -0.2893
  795HK4    C1066748   6.490   2.801   6.993 -0.4641 -0.2910  0.3127
  795HK4     O166749   6.582   2.720   6.987 -0.5597 -0.4104  0.4552
  795HK4    C1666750   6.489   2.707   6.700  0.5374 -0.2759  0.0573
  795HK4    C1566751   6.475   2.620   6.590  0.4039  0.0392 -0.1757
  795HK4     H766752   6.385   2.560   6.606 -0.3773 -0.0086 -4.1739
  795HK4    C2066753   6.562   2.608   6.482  0.2224 -0.2945 -0.2866
  795HK4     H966754   6.546   2.544   6.395 -0.1999  0.8015 -1.0281
  795HK4    C1966755   6.678   2.685   6.485 -0.2797  0.4527 -0.1030
  795HK4    C1866756   6.709   2.764   6.602 -0.1374  0.4573 -0.1436
  795HK4    C1766757   6.612   2.772   6.702  0.2902  0.1872  0.2980
  795HK4     H866758   6.632   2.840   6.784  1.4380 -0.3481  0.4812
  795HK4     N166759   6.844   2.805   6.599  0.0346 -0.0911 -0.1000
  795HK4    C2166760   6.896   2.761   6.476  0.0578 -0.5039  0.0570
  795HK4    C2266761   6.796   2.688   6.400 -0.1763 -0.1439  0.0174
  795HK4    C2666762   6.811   2.662   6.265  0.1156 -0.2098  0.0599
  795HK4    H1366763   6.742   2.606   6.202  1.5468 -2.4426  0.4531
  795HK4    C2566764   6.920   2.709   6.193 -0.1057 -0.1965 -0.2752
  795HK4    H1266765   6.918   2.702   6.085 -0.2760 -1.7043 -0.1737
  795HK4    C2466766   7.020   2.779   6.262 -0.4954  0.0940 -0.0030
  795HK4    H1166767   7.119   2.801   6.221  0.1720 -1.3294  0.8287
  795HK4    C2366768   7.002   2.804   6.397 -0.3287  0.3089 -0.0223
  795HK4    H1066769   7.079   2.856   6.454  1.4069 -0.0721 -1.9761
  795HK4    C3966770   6.913   2.821   6.720 -0.2706 -0.4658  0.1228
  795HK4    C4166771   7.038   2.883   6.702 -0.5349  0.1452  0.3976
  795HK4    H2166772   7.053   2.959   6.624  0.1813 -1.7812 -1.3898
  795HK4    C4266773   7.141   2.874   6.796  0.0507 -0.1991 -0.2714
  795HK4    H2266774   7.236   2.929   6.789  0.4714 -0.8600  0.1893
  795HK4    C4366775   7.125   2.795   6.909  0.5266 -0.3462 -0.3051
  795HK4    H2366776   7.215   2.765   6.962 -0.2230  0.1965  1.3075
  795HK4    C4466777   7.004   2.727   6.927  0.5687 -0.4743 -0.5031
  795HK4    H2466778   6.998   2.656   7.011  0.9358 -1.4130 -1.2681
  795HK4    C4566779   6.901   2.740   6.835 -0.2619  0.0457  0.4872
  795HK4    H2566780   6.798   2.727   6.872 -0.6681 -1.3525 -1.0617
  796HK4    H2866781   1.816   2.929   6.196 -0.2456 -1.6209  1.9328
  796HK4    C4866782   1.757   3.007   6.244 -0.1149 -0.0006 -0.4908
  796HK4    C4766783   1.671   2.960   6.342 -0.0820  0.2166 -0.3572
  796HK4    H2766784   1.671   2.854   6.372  0.2711  0.8404  1.9761
  796HK4    C4666785   1.599   3.052   6.417  0.1616 -0.0540  0.2129
  796HK4    H2666786   1.554   3.019   6.512 -1.2251 -1.2106 -0.8246
  796HK4    C4066787   1.588   3.189   6.385 -0.2841 -0.1054  0.1415
  796HK4    C5066788   1.676   3.230   6.282 -0.5212 -0.3507 -0.1627
  796HK4    H3066789   1.667   3.326   6.229 -2.9381 -0.7779 -0.5900
  796HK4    C4966790   1.756   3.142   6.211 -0.3986  0.0037 -0.4657
  796HK4    H2966791   1.854   3.174   6.172 -0.1466 -2.4865 -1.9737
  796HK4     N266792   1.490   3.277   6.433 -0.2612 -0.1081  0.1923
  796HK4    C3066793   1.376   3.230   6.500 -0.4668 -0.0275 -0.0987
  796HK4    C2966794   1.308   3.109   6.490  0.1328 -0.3950  0.2639
  796HK4    H1566795   1.314   3.050   6.399  1.0627  0.2040 -0.0655
  796HK4    C2866796   1.207   3.084   6.582 -0.1185 -0.0733  0.0746
  796HK4    C2766797   1.156   3.188   6.663  0.6056 -0.2143  0.7158
  796HK4    H1466798   1.079   3.163   6.737  0.4256 -0.8026  0.3345
  796HK4    C3266799   1.205   3.318   6.656 -0.1331  0.0275 -0.0593
  796HK4    H1666800   1.169   3.394   6.725  1.1412 -0.5975  1.3200
  796HK4    C3166801   1.315   3.340   6.573  0.3801 -0.0186  0.6063
  796HK4    C3466802   1.385   3.462   6.538 -0.2791  0.1870 -0.0222
  796HK4    C3366803   1.490   3.417   6.448  0.1582 -0.1578  0.6574
  796HK4    C3566804   1.568   3.518   6.394 -0.0685 -0.5643 -0.4394
  796HK4    H1766805   1.652   3.494   6.329 -0.9479 -2.5691 -0.8565
  796HK4    C3666806   1.533   3.649   6.424 -0.0555 -0.5477 -0.4937
  796HK4    H1866807   1.586   3.728   6.369  1.1167 -0.9951 -0.0388
  796HK4    C3766808   1.430   3.688   6.509  0.3857 -0.3153 -0.0567
  796HK4    H1966809   1.407   3.793   6.527 -0.9904 -0.7740  1.0106
  796HK4    C3866810   1.356   3.592   6.577 -0.3855  0.2034 -0.1551
  796HK4    H2066811   1.297   3.615   6.666 -2.4258 -0.7476 -1.2266
  796HK4    C1466812   1.126   2.963   6.560 -0.1942  0.0587 -0.3679
  796HK4     C966813   0.986   2.962   6.572 -0.1383 -0.1639  0.2292
  796HK4     C866814   0.933   2.847   6.635 -0.2316 -0.0788  0.3041
  796HK4    C1166815   1.014   2.738   6.663  0.2274  0.3185  0.5237
  796HK4     H466816   0.975   2.646   6.708 -0.3830  0.1078 -0.4243
  796HK4    C1266817   1.151   2.740   6.640  0.0538  0.0973 -0.5449
  796HK4     H566818   1.208   2.652   6.671  1.1245  0.7074 -0.7593
  796HK4    C1366819   1.210   2.854   6.587  0.0512  0.3331 -0.0353
  796HK4     H666820   1.320   2.858   6.592  0.0844 -2.1131  3.6064
  796HK4     C766821   0.787   2.848   6.659 -0.3364 -0.5083 -0.2977
  796HK4     O266822   0.732   2.746   6.700  0.0797 -0.4927  0.3132
  796HK4     C466823   0.701   2.954   6.601  0.4485  0.4931  0.3500
  796HK4     C366824   0.565   2.953   6.631  0.3303  0.9036 -0.1658
  796HK4     H366825   0.520   2.888   6.707  0.9437  2.5611  1.6515
  796HK4     C266826   0.477   3.022   6.548 -0.6451  0.1206  0.1995
  796HK4     H266827   0.371   3.022   6.576 -0.1863 -0.9831  2.0476
  796HK4     C166828   0.525   3.091   6.437 -0.1245  0.4086  0.5987
  796HK4     H166829   0.452   3.137   6.370 -1.0978 -0.8869  0.7544
  796HK4     C666830   0.661   3.084   6.400 -0.3486 -0.0759 -0.1496
  796HK4     C566831   0.751   3.028   6.492 -0.1894  0.3151 -0.0665
  796HK4    C1066832   0.898   3.051   6.492 -0.0671 -0.4758 -0.1938
  796HK4     O166833   0.948   3.150   6.439  0.0202 -0.4709 -0.1017
  796HK4    C1666834   0.710   3.135   6.272 -0.1549  0.0020 -0.0463
  796HK4    C1566835   0.637   3.234   6.201 -0.4399  0.2908  0.6479
  796HK4     H766836   0.549   3.285   6.242 -0.7729  0.2267  0.0117
  796HK4    C2066837   0.674   3.270   6.072 -0.0899 -0.2563  0.5928
  796HK4     H966838   0.616   3.344   6.017  0.3569  1.1820  2.0278
  796HK4    C1966839   0.775   3.203   6.004 -0.0330 -0.1098  0.5354
  796HK4    C1866840   0.846   3.096   6.070  0.2565 -0.1548  0.1576
  796HK4    C1766841   0.807   3.065   6.200  0.0798  0.1078  0.1644
  796HK4     H866842   0.843   2.973   6.246 -3.0616 -0.2336  2.1563
  796HK4     N166843   0.974   3.078   6.015  0.0137 -0.4182 -0.3280
  796HK4    C2166844   0.984   3.164   5.904 -0.1377  0.3360  0.2375
  796HK4    C2266845   0.867   3.249   5.901 -0.2660  0.1656  0.4494
  796HK4    C2666846   0.853   3.343   5.799  0.3970  0.7096  0.8567
  796HK4    H1366847   0.786   3.428   5.812 -0.6979 -0.1471  0.9121
  796HK4    C2566848   0.950   3.349   5.701 -0.3524 -0.1922  0.0497
  796HK4    H1266849   0.950   3.436   5.635  1.9788  0.1896  0.5183
  796HK4    C2466850   1.061   3.264   5.697 -0.0401  0.2336 -0.4673
  796HK4    H1166851   1.124   3.268   5.608  0.1636  1.1586 -0.2898
  796HK4    C2366852   1.074   3.169   5.798 -0.3836  0.7278  0.0475
  796HK4    H1066853   1.135   3.080   5.783 -1.4750 -0.2034  1.0407
  796HK4    C3966854   1.063   2.972   6.037  0.4140  0.1759  1.0204
  796HK4    C4166855   1.015   2.847   6.082  0.1567 -0.3623 -0.7003
  796HK4    H2166856   0.913   2.815   6.058 -0.5175  1.2305 -0.0038
  796HK4    C4266857   1.103   2.765   6.152 -0.3631 -0.5896 -0.3147
  796HK4    H2266858   1.059   2.681   6.208  0.6155 -0.4853  0.6290
  796HK4    C4366859   1.240   2.786   6.160 -0.4197 -0.4650  0.3623
  796HK4    H2366860   1.310   2.716   6.206 -4.2230 -3.2103  2.2417
  796HK4    C4466861   1.289   2.906   6.111  0.1660 -0.9652 -0.2838
  796HK4    H2466862   1.392   2.933   6.136 -0.2172 -0.1175  0.4154
  796HK4    C4566863   1.200   2.997   6.053  0.5101 -0.0630  0.5963
  796HK4    H2566864   1.246   3.084   6.003 -1.9078 -0.0579 -1.6926
  797HK4    H2866865  10.495   3.169   5.535 -1.0668  0.8812 -0.8285
  797HK4    C4866866  10.574   3.160   5.460 -0.0954  0.3051  0.2374
  797HK4    C4766867  10.699   3.123   5.507  0.1780  0.4109 -0.3993
  797HK4    H2766868  10.723   3.110   5.614 -0.7470  1.6132 -0.0386
  797HK4    C4666869  10.804   3.111   5.417  0.4891 -0.4793  0.0739
  797HK4    H2666870  10.905   3.096   5.459 -0.2764 -2.0865  1.4053
  797HK4    C4066871  10.784   3.136   5.280 -0.3737 -0.4429  0.2062
  797HK4    C5066872  10.653   3.161   5.234  0.0305  0.7784 -0.3021
  797HK4    H3066873  10.626   3.143   5.129  0.1308  0.0548 -0.2081
  797HK4    C4966874  10.550   3.182   5.325  0.3519  0.3419  0.1636
  797HK4    H2966875  10.454   3.230   5.300 -0.2528 -0.4916  0.8135
  797HK4     N266876  10.890   3.137   5.188 -0.2002  0.2984  0.4175
  797HK4    C3066877  11.026   3.154   5.222 -0.0395  0.4063 -0.2774
  797HK4    C2966878  11.086   3.220   5.328 -0.0422 -0.1976  0.1044
  797HK4    H1566879  11.030   3.298   5.378  0.6346  1.2489 -1.3476
  797HK4    C2866880  11.221   3.208   5.358  0.0876  0.2086 -0.3003
  797HK4    C2766881   0.052   3.138   5.265 -0.1487 -0.2226 -0.1788
  797HK4    H1466882   0.138   3.085   5.308  0.3888  1.1477  0.4766
  797HK4    C3266883   0.005   3.081   5.147 -0.0247 -0.3662 -0.1581
  797HK4    H1666884   0.068   3.010   5.093 -0.2376 -1.0408  0.4711
  797HK4    C3166885  11.116   3.093   5.126  0.0060  0.1556 -0.0731
  797HK4    C3466886  11.030   3.028   5.030 -0.2368  0.2716  0.0679
  797HK4    C3366887  10.894   3.061   5.070 -0.1356  0.1431  0.5203
  797HK4    C3566888  10.794   2.998   4.996  0.4054  0.4296 -0.4696
  797HK4    H1766889  10.711   2.961   5.057  0.1330 -1.7181 -2.1213
  797HK4    C3666890  10.824   2.928   4.880 -0.1806  0.2181 -0.4942
  797HK4    H1866891  10.744   2.882   4.821 -0.3828  1.5493 -1.2771
  797HK4    C3766892  10.955   2.906   4.838  0.1347  0.9381  0.0599
  797HK4    H1966893  10.981   2.844   4.752 -0.1699 -0.8377  1.2119
  797HK4    C3866894  11.059   2.955   4.915  0.3386  0.0686  0.3434
  797HK4    H2066895  11.159   2.966   4.873  1.2110  1.5703  2.7214
  797HK4    C1466896   0.030   3.303   5.456  0.1115  0.0270 -0.1386
  797HK4     C966897   0.161   3.353   5.454  0.3298 -0.5308  0.2632
  797HK4     C866898   0.224   3.404   5.570  0.0388  0.0521  0.1675
  797HK4    C1166899   0.145   3.419   5.683  0.0956 -0.1441  0.2342
  797HK4     H466900   0.183   3.479   5.767  1.4240  0.5370 -0.8329
  797HK4    C1266901   0.015   3.371   5.688 -0.1399  0.5079  0.3079
  797HK4     H566902  11.223   3.347   5.788 -2.8722  2.0477 -0.3379
  797HK4    C1366903  11.209   3.306   5.578  0.3376  0.6684 -0.0224
  797HK4     H666904  11.111   3.257   5.593  0.6021  0.4590  1.1094
  797HK4     C766905   0.371   3.408   5.583  0.0672  0.1854 -0.1754
  797HK4     O266906   0.422   3.495   5.653 -0.2972  0.1281  0.1659
  797HK4     C466907   0.453   3.340   5.479 -0.0594  0.2382 -0.3085
  797HK4     C366908   0.586   3.314   5.507 -0.0293  0.7243  0.0089
  797HK4     H366909   0.633   3.318   5.607 -0.6728 -2.0951  0.4777
  797HK4     C266910   0.666   3.269   5.403 -0.7661  0.4423 -0.4409
  797HK4     H266911   0.774   3.250   5.410 -0.7184  0.2027 -1.7146
  797HK4     C166912   0.609   3.246   5.279  0.7694 -0.4935 -0.9866
  797HK4     H166913   0.676   3.227   5.193  0.6756  1.5985 -1.5596
  797HK4     C666914   0.472   3.260   5.250  0.6185  0.2169  0.0538
  797HK4     C566915   0.396   3.319   5.352 -0.1081 -0.2587 -0.2062
  797HK4    C1066916   0.250   3.340   5.335 -0.0208  0.4344 -0.1065
  797HK4     O166917   0.215   3.416   5.245 -0.8715  0.3608  0.1569
  797HK4    C1666918   0.422   3.172   5.144  0.8560  0.2746 -0.1052
  797HK4    C1566919   0.474   3.042   5.125  0.2537  0.0924 -0.5123
  797HK4     H766920   0.570   3.022   5.174 -0.0082  0.5703  0.1987
  797HK4    C2066921   0.435   2.959   5.020 -0.4556 -0.5192  0.2266
  797HK4     H966922   0.450   2.853   5.037  1.6668 -0.4719 -1.2160
  797HK4    C1966923   0.354   3.009   4.918  0.3580  0.4954  0.0640
  797HK4    C1866924   0.308   3.145   4.938 -0.3489  0.2341  0.2678
  797HK4    C1766925   0.344   3.228   5.044 -0.1369 -0.0976  0.4567
  797HK4     H866926   0.348   3.335   5.023 -0.7208 -0.1469  0.0716
  797HK4     N166927   0.208   3.171   4.842 -0.2887 -0.0303  0.1345
  797HK4    C2166928   0.184   3.049   4.776 -0.2191 -0.3106  0.6236
  797HK4    C2266929   0.270   2.941   4.821  0.5388  0.1028  0.1824
  797HK4    C2666930   0.250   2.811   4.775 -0.3039  0.3588 -0.1787
  797HK4    H1366931   0.327   2.738   4.799 -0.0200  0.5938 -0.3755
  797HK4    C2566932   0.152   2.783   4.681 -0.3268 -0.0823 -0.0214
  797HK4    H1266933   0.140   2.677   4.655  1.5775 -0.9087  2.3221
  797HK4    C2466934   0.068   2.886   4.641 -0.6195 -0.1134  0.5107
  797HK4    H1166935  11.223   2.853   4.593  0.3593 -1.4597 -0.4953
  797HK4    C2366936   0.084   3.018   4.684 -0.2885 -0.2034  0.6630
  797HK4    H1066937   0.033   3.103   4.639  1.0036  0.0731 -0.2983
  797HK4    C3966938   0.121   3.280   4.843 -0.0606  0.1555 -0.1879
  797HK4    C4166939   0.077   3.328   4.718  0.2132  0.1758 -0.2769
  797HK4    H2166940   0.131   3.306   4.625 -0.2886  2.1740 -1.0663
  797HK4    C4266941  11.218   3.417   4.707 -0.0914 -0.1287  0.1871
  797HK4    H2266942  11.190   3.469   4.614  1.0830 -2.4162 -1.4997
  797HK4    C4366943  11.151   3.455   4.822 -0.4674  0.1417 -0.1217
  797HK4    H2366944  11.099   3.551   4.823 -0.6992  0.0537 -1.9128
  797HK4    C4466945  11.189   3.404   4.945  0.2085 -0.3875 -0.5506
  797HK4    H2466946  11.126   3.418   5.034  0.1552  4.1496 -1.1932
  797HK4    C4566947   0.054   3.324   4.959 -0.2480 -0.9215  0.1166
  797HK4    H2566948   0.083   3.306   5.064 -0.1723  0.1457  0.2823
  798HK4    H2866949   2.297   4.949   4.825  1.3395 -0.6166 -0.0980
  798HK4    C4866950   2.329   4.987   4.728  0.1119 -0.1949 -0.3449
  798HK4    C4766951   2.445   5.063   4.717 -0.2519  0.4102 -0.0564
  798HK4    H2766952   2.510   5.078   4.804  1.4264  3.4509 -1.7586
  798HK4    C4666953   2.482   5.128   4.600  0.3138 -0.4459 -0.3581
  798HK4    H2666954   2.564   5.202   4.602  0.7185 -0.9129  0.7877
  798HK4    C4066955   2.401   5.117   4.485 -0.2862 -0.0354  0.0242
  798HK4    C5066956   2.284   5.039   4.493 -0.3944  0.1067 -0.1843
  798HK4    H3066957   2.221   5.025   4.403  1.7241  0.5657 -1.7705
  798HK4    C4966958   2.247   4.985   4.616 -0.3664  0.4775 -0.0126
  798HK4    H2966959   2.144   4.948   4.617 -0.5337  0.9425  0.3061
  798HK4     N266960   2.415   5.202   4.375  0.3713 -0.3588 -0.1428
  798HK4    C3066961   2.465   5.333   4.386 -0.2219 -0.1258 -0.2508
  798HK4    C2966962   2.476   5.421   4.494  0.3189  0.1212 -0.5062
  798HK4    H1566963   2.437   5.388   4.591  1.5826  0.1831  0.0313
  798HK4    C2866964   2.545   5.541   4.493  0.1075  0.2479 -0.1163
  798HK4    C2766965   2.605   5.578   4.371  0.1053  0.5961 -0.0112
  798HK4    H1466966   2.682   5.656   4.382 -0.7240  1.1685  2.0406
  798HK4    C3266967   2.587   5.502   4.256 -0.6026  0.3689  0.2470
  798HK4    H1666968   2.598   5.556   4.162  1.2959  1.5130  1.0915
  798HK4    C3166969   2.520   5.381   4.261 -0.0699  0.0558 -0.1162
  798HK4    C3466970   2.496   5.276   4.163  0.3978 -0.2179  0.0588
  798HK4    C3366971   2.423   5.174   4.237  0.5128 -0.4284 -0.1215
  798HK4    C3566972   2.376   5.068   4.161  0.2260 -0.2561 -0.1858
  798HK4    H1766973   2.305   5.003   4.213  1.6443 -1.8420 -0.1647
  798HK4    C3666974   2.401   5.049   4.026  0.8998  0.1210 -0.1148
  798HK4    H1866975   2.383   4.948   3.985 -0.7967  1.0033 -1.5974
  798HK4    C3766976   2.480   5.142   3.959  0.3864  0.3659 -0.3751
  798HK4    H1966977   2.509   5.121   3.856 -1.4917  0.0953 -0.8752
  798HK4    C3866978   2.524   5.253   4.029  0.3947  0.1281 -0.0009
  798HK4    H2066979   2.595   5.319   3.978  1.2344 -1.0191 -0.3433
  798HK4    C1466980   2.536   5.626   4.613 -0.1273 -0.3006  0.2536
  798HK4     C966981   2.572   5.761   4.609  0.0447 -0.3557 -0.0543
  798HK4     C866982   2.646   5.818   4.715  0.0449 -0.1981 -0.1388
  798HK4    C1166983   2.677   5.736   4.823 -0.2209 -0.5730 -0.3419
  798HK4     H466984   2.748   5.772   4.899 -0.1546 -1.9162  0.2345
  798HK4    C1266985   2.637   5.604   4.836  0.1634 -0.6053  0.5738
  798HK4     H566986   2.677   5.543   4.918  0.8862  0.5256  1.0765
  798HK4    C1366987   2.558   5.554   4.733  0.4097 -0.2275  0.2026
  798HK4     H666988   2.507   5.460   4.758  2.5867 -1.2031  1.0398
  798HK4     C766989   2.706   5.952   4.702  0.3465 -0.3438 -0.2385
  798HK4     O266990   2.728   6.025   4.799  0.3502 -0.4032 -0.1938
  798HK4     C466991   2.706   6.011   4.566 -0.1999 -0.1519 -0.1555
  798HK4     C366992   2.784   6.122   4.537 -0.2881 -0.0508 -0.0035
  798HK4     H366993   2.812   6.188   4.620  0.5192 -1.1656  0.6243
  798HK4     C266994   2.811   6.165   4.407 -0.0226  0.4810  0.2260
  798HK4     H266995   2.890   6.238   4.385 -0.0600 -0.0194 -1.6117
  798HK4     C166996   2.740   6.101   4.306  0.3807  0.1280  0.1639
  798HK4     H166997   2.774   6.119   4.203  2.0072 -1.0459  0.4763
  798HK4     C666998   2.637   6.008   4.330  0.0913  0.3617 -0.1736
  798HK4     C566999   2.624   5.962   4.462  0.2726 -0.3938 -0.4164
  798HK4    C1067000   2.537   5.845   4.491  0.1623 -0.2043  0.0187
  798HK4     O167001   2.423   5.841   4.444  0.1136 -0.0382  0.1202
  798HK4    C1667002   2.525   6.010   4.235 -0.1143 -0.1164  0.0573
  798HK4    C1567003   2.487   6.130   4.171  0.3000  0.1758  0.3618
  798HK4     H767004   2.501   6.222   4.231 -2.5385  1.7329 -1.2748
  798HK4    C2067005   2.429   6.140   4.046  0.3065 -0.1473  0.3332
  798HK4     H967006   2.385   6.227   3.996  0.0641  0.0106  0.8208
  798HK4    C1967007   2.413   6.022   3.974  0.4584  0.0741 -0.0651
  798HK4    C1867008   2.440   5.895   4.038  0.3179  0.0646 -0.0242
  798HK4    C1767009   2.503   5.894   4.162  0.1818 -0.1631  0.0420
  798HK4     H867010   2.526   5.799   4.210  2.0921  0.7271  0.9272
  798HK4     N167011   2.396   5.791   3.954 -0.4387 -0.0164  0.4752
  798HK4    C2167012   2.353   5.851   3.833  0.3264 -0.1526  0.1318
  798HK4    C2267013   2.363   5.995   3.840  0.5330 -0.1571 -0.0461
  798HK4    C2667014   2.345   6.074   3.727 -0.3567  0.1615  0.3123
  798HK4    H1367015   2.394   6.169   3.746 -0.7875 -0.4637  5.4326
  798HK4    C2567016   2.316   6.021   3.602 -0.2461  0.1963  0.2724
  798HK4    H1267017   2.303   6.076   3.509  0.3027 -0.9051 -0.4757
  798HK4    C2467018   2.310   5.882   3.601 -0.7374  0.2153  0.2331
  798HK4    H1167019   2.260   5.828   3.520  0.0135 -0.6532  0.3339
  798HK4    C2367020   2.324   5.795   3.709 -0.1992  0.1523  0.1170
  798HK4    H1067021   2.303   5.689   3.700 -2.8148  0.7425 -1.3979
  798HK4    C3967022   2.360   5.664   3.998  0.1082 -0.2744  0.1742
  798HK4    C4167023   2.367   5.552   3.913 -0.6059  0.0428 -0.3018
  798HK4    H2167024   2.445   5.543   3.835  0.7234 -0.3170  1.0539
  798HK4    C4267025   2.293   5.437   3.937  0.3326 -0.5303 -0.1237
  798HK4    H2267026   2.297   5.353   3.866  0.7459  0.3899 -1.2011
  798HK4    C4367027   2.240   5.417   4.064 -0.0878  0.0433 -0.2087
  798HK4    H2367028   2.194   5.321   4.086 -3.2737  1.7897  1.1221
  798HK4    C4467029   2.240   5.519   4.158 -0.7524  0.0621 -0.2277
  798HK4    H2467030   2.200   5.507   4.260 -0.4310  1.7422  0.1128
  798HK4    C4567031   2.296   5.641   4.122  0.3508 -0.2792  0.3000
  798HK4    H2567032   2.272   5.725   4.189 -0.0838  0.3830 -0.6679
  799HK4    H2867033   7.432   1.251   3.602  0.6564  2.5954 -0.7366
  799HK4    C4867034   7.530   1.243   3.647  0.0303 -0.2963  0.1856
  799HK4    C4767035   7.535   1.237   3.786  0.1829 -0.2231  0.1833
  799HK4    H2767036   7.451   1.281   3.841  0.0555 -1.0166  0.6250
  799HK4    C4667037   7.652   1.184   3.840  0.1453 -0.0094  0.4768
  799HK4    H2667038   7.652   1.180   3.949 -2.6273  0.7280  0.5319
  799HK4    C4067039   7.765   1.139   3.767 -0.5012 -0.7835 -0.0506
  799HK4    C5067040   7.753   1.159   3.628 -0.5334  0.2062  0.0866
  799HK4    H3067041   7.835   1.128   3.561  0.3572 -1.3624  1.8468
  799HK4    C4967042   7.638   1.208   3.566 -0.3440 -0.0064 -0.4403
  799HK4    H2967043   7.633   1.255   3.467 -0.5122  3.4585  1.1507
  799HK4     N267044   7.877   1.081   3.826  0.0064  0.0407 -0.1931
  799HK4    C3067045   7.999   1.059   3.757 -0.0574 -0.0935 -0.2659
  799HK4    C2967046   8.055   1.130   3.652 -0.3680  0.2387 -0.2091
  799HK4    H1567047   8.012   1.230   3.642 -2.0878 -0.3460  1.1123
  799HK4    C2867048   8.180   1.109   3.595 -0.1587  0.0502  0.3187
  799HK4    C2767049   8.258   1.008   3.654 -0.1168 -0.1362 -0.0556
  799HK4    H1467050   8.350   0.971   3.607 -1.6201 -2.4763 -1.2927
  799HK4    C3267051   8.208   0.932   3.760  0.1821 -0.3428 -0.0615
  799HK4    H1667052   8.279   0.880   3.824 -2.0922  0.5100  3.3000
  799HK4    C3167053   8.081   0.952   3.811  0.0138 -0.1770 -0.5410
  799HK4    C3467054   8.004   0.904   3.925 -0.0721 -0.0261 -0.5360
  799HK4    C3367055   7.881   0.980   3.925  0.2761  0.5495  0.3146
  799HK4    C3567056   7.812   0.971   4.045  0.4245 -0.0108  0.3584
  799HK4    H1767057   7.718   1.024   4.059 -0.5010 -0.9273 -2.2482
  799HK4    C3667058   7.848   0.904   4.161 -0.0952 -0.3051  0.3522
  799HK4    H1867059   7.825   0.958   4.254 -1.0936 -0.6035  0.2807
  799HK4    C3767060   7.959   0.821   4.146  0.1556  0.0750  0.0919
  799HK4    H1967061   7.999   0.773   4.236 -0.4489 -2.8705 -1.1532
  799HK4    C3867062   8.038   0.822   4.032 -0.1856  0.4393 -0.1429
  799HK4    H2067063   8.121   0.755   4.010 -1.1458  0.0093 -2.6406
  799HK4    C1467064   8.206   1.152   3.457 -0.5179 -0.8875 -0.0379
  799HK4     C967065   8.285   1.076   3.370  0.2392 -0.4382  0.2612
  799HK4     C867066   8.389   1.141   3.300 -0.2320  0.3799  0.3152
  799HK4    C1167067   8.382   1.279   3.295 -0.0918  0.3670 -0.2404
  799HK4     H467068   8.443   1.329   3.218  1.2452 -2.3377 -0.9861
  799HK4    C1267069   8.293   1.358   3.367 -0.0656  0.0140  0.1813
  799HK4     H567070   8.296   1.467   3.353 -2.4622  0.1723  0.6554
  799HK4    C1367071   8.202   1.292   3.449  0.3800 -0.8615 -0.0206
  799HK4     H667072   8.111   1.339   3.489 -0.0948 -0.0098 -2.0341
  799HK4     C767073   8.490   1.060   3.228 -0.7075  0.2035 -0.1549
  799HK4     O267074   8.584   1.118   3.173 -0.3830  0.0101  0.1953
  799HK4     C467075   8.484   0.912   3.233  0.2606  0.1584 -0.1391
  799HK4     C367076   8.581   0.840   3.165  0.0056 -0.1057 -0.2171
  799HK4     H367077   8.639   0.893   3.089 -1.1764  2.2675  0.4980
  799HK4     C267078   8.597   0.703   3.182  0.4905 -0.0052  0.1544
  799HK4     H267079   8.669   0.644   3.124  0.1467  0.2723 -0.5555
  799HK4     C167080   8.518   0.648   3.283 -0.1393 -0.3493 -0.5213
  799HK4     H167081   8.531   0.538   3.286 -1.0152 -0.4376  0.1230
  799HK4     C667082   8.416   0.714   3.354 -0.0726 -0.4281 -0.3522
  799HK4     C567083   8.392   0.847   3.319  0.1693 -0.4804 -0.7159
  799HK4    C1067084   8.279   0.927   3.372  0.3203 -0.4536 -0.4438
  799HK4     O167085   8.166   0.878   3.359 -0.2808  0.7145  0.2310
  799HK4    C1667086   8.394   0.669   3.492  0.1938 -0.2143 -0.2396
  799HK4    C1567087   8.500   0.622   3.571 -0.2111 -0.5428  0.1092
  799HK4     H767088   8.604   0.641   3.540  0.1635 -3.3705 -0.4901
  799HK4    C2067089   8.472   0.570   3.697  0.5101  0.4922  0.7095
  799HK4     H967090   8.559   0.543   3.757  1.4989 -0.2720 -1.0405
  799HK4    C1967091   8.346   0.549   3.752  0.1866  0.4279 -0.0521
  799HK4    C1867092   8.237   0.589   3.665  0.0264 -0.4423 -0.2509
  799HK4    C1767093   8.266   0.640   3.539  0.2365 -0.1389 -0.0774
  799HK4     H867094   8.183   0.652   3.470  0.1984 -0.1318 -0.0302
  799HK4     N167095   8.113   0.570   3.731  0.1625  0.0303  0.1434
  799HK4    C2167096   8.147   0.527   3.861  0.1144  0.4768  0.3052
  799HK4    C2267097   8.289   0.504   3.877  0.0878 -0.1524 -0.3047
  799HK4    C2667098   8.344   0.474   4.001  0.1253 -1.0345 -0.5353
  799HK4    H1367099   8.446   0.435   4.009  1.1754  1.9822  1.6252
  799HK4    C2567100   8.255   0.468   4.107  0.1371  0.7181 -0.4256
  799HK4    H1267101   8.300   0.491   4.204 -0.3065  0.2410 -0.1038
  799HK4    C2467102   8.119   0.487   4.089 -0.0949 -0.6614 -0.2006
  799HK4    H1167103   8.054   0.475   4.178  2.1436 -1.1056  1.4282
  799HK4    C2367104   8.058   0.515   3.967 -0.2080 -0.1473 -0.0272
  799HK4    H1067105   7.956   0.552   3.967  0.3640  1.4994  0.0623
  799HK4    C3967106   7.986   0.616   3.697  0.1596  0.1739  0.3522
  799HK4    C4167107   7.958   0.733   3.623 -0.1178  0.5112  0.9850
  799HK4    H2167108   8.042   0.800   3.601  0.2198  0.0669  0.9102
  799HK4    C4267109   7.833   0.769   3.575  0.0969  0.5011  0.4162
  799HK4    H2267110   7.836   0.852   3.503  0.7845  0.1871  0.0800
  799HK4    C4367111   7.725   0.686   3.602  0.4117 -0.0883 -0.1309
  799HK4    H2367112   7.629   0.714   3.559  0.4518 -1.5019 -1.1975
  799HK4    C4467113   7.746   0.569   3.675 -0.0695 -0.0773  0.0277
  799HK4    H2467114   7.662   0.500   3.690 -0.5926  0.6922  0.6790
  799HK4    C4567115   7.872   0.538   3.725  0.2531 -0.4663 -0.9997
  799HK4    H2567116   7.883   0.450   3.789  0.6766  0.0747 -0.3207
  800HK4    H2867117   7.313   3.405   0.917 -0.4754 -0.5802  0.7912
  800HK4    C4867118   7.219   3.367   0.878 -0.6678  0.1612  0.5080
  800HK4    C4767119   7.158   3.252   0.928 -0.2591 -0.0705  0.4738
  800HK4    H2767120   7.203   3.198   1.014  1.2742 -0.7036 -0.6982
  800HK4    C4667121   7.041   3.200   0.875 -0.2506  0.0513  0.3368
  800HK4    H2667122   6.994   3.111   0.919  1.2296 -0.9122 -0.0012
  800HK4    C4067123   6.983   3.272   0.768 -0.0984 -0.1708  0.1046
  800HK4    C5067124   7.042   3.392   0.722 -0.7608  0.3266  0.5340
  800HK4    H3067125   7.010   3.451   0.634  1.0140 -0.2010 -0.4860
  800HK4    C4967126   7.162   3.438   0.773 -0.7793  0.2590  0.6351
  800HK4    H2967127   7.183   3.546   0.768  0.0184 -0.0004 -1.7443
  800HK4     N267128   6.866   3.231   0.703  0.1977  0.0120 -0.5452
  800HK4    C3067129   6.819   3.098   0.706  0.0274  0.0499 -1.4621
  800HK4    C2967130   6.890   2.978   0.702 -0.0808 -0.0678 -0.1279
  800HK4    H1567131   6.996   2.980   0.675  0.1433 -2.6559  0.4317
  800HK4    C2867132   6.825   2.856   0.712 -0.0897  0.0331  1.0322
  800HK4    C2767133   6.684   2.856   0.705 -0.0323 -0.1402 -0.1571
  800HK4    H1467134   6.626   2.763   0.709 -1.4601  0.7673  0.6653
  800HK4    C3267135   6.610   2.974   0.701  0.3499  0.1263  0.5090
  800HK4    H1667136   6.506   2.971   0.670  1.1391 -1.1181 -2.2076
  800HK4    C3167137   6.674   3.097   0.705  0.0010  0.3131  0.3507
  800HK4    C3467138   6.628   3.232   0.677  0.2787  0.1942 -0.7220
  800HK4    C3367139   6.751   3.309   0.683  0.2608  0.1871 -0.2213
  800HK4    C3567140   6.736   3.447   0.672  0.3041  0.2281  0.2287
  800HK4    H1767141   6.822   3.513   0.682 -0.6599  1.5401  0.0333
  800HK4    C3667142   6.612   3.504   0.646  0.6377  0.1347 -1.6216
  800HK4    H1867143   6.598   3.612   0.632 -0.7290  0.0255 -1.1678
  800HK4    C3767144   6.496   3.427   0.638  0.3240  0.4761 -0.4355
  800HK4    H1967145   6.399   3.472   0.615  0.4066  0.7895 -0.1799
  800HK4    C3867146   6.505   3.289   0.646  0.2646  0.4898 -0.1300
  800HK4    H2067147   6.417   3.226   0.633  0.0470  0.7375  0.1359
  800HK4    C1467148   6.907   2.736   0.689 -0.1001  0.2314 -0.0512
  800HK4     C967149   6.861   2.618   0.630  0.5921  0.1970 -0.5305
  800HK4     C867150   6.884   2.489   0.684  0.0571  0.0422 -0.6683
  800HK4    C1167151   6.982   2.474   0.781 -0.4809  0.3508 -0.0734
  800HK4     H467152   7.002   2.379   0.833 -0.1902  0.9516  0.9311
  800HK4    C1267153   7.048   2.587   0.829  0.0665  0.2244 -0.5228
  800HK4     H567154   7.133   2.579   0.898  0.2046  1.1288 -0.5788
  800HK4    C1367155   7.001   2.712   0.791 -0.2199  0.2974  0.0746
  800HK4     H667156   7.031   2.794   0.858  3.6373 -0.3761 -0.7102
  800HK4     C767157   6.799   2.376   0.641  0.0653 -0.0696 -0.3860
  800HK4     O267158   6.810   2.267   0.697 -0.4562  0.1260  0.1012
  800HK4     C467159   6.687   2.393   0.546 -0.3883 -0.2314  0.1174
  800HK4     C367160   6.603   2.287   0.514 -0.3875 -0.1550 -0.1401
  800HK4     H367161   6.633   2.188   0.551  3.6665 -0.1381 -3.0701
  800HK4     C267162   6.492   2.309   0.433 -0.4753  0.3596  0.1154
  800HK4     H267163   6.414   2.234   0.413  1.4143 -1.7509  0.4787
  800HK4     C167164   6.469   2.438   0.386 -0.2265  0.3437 -0.0528
  800HK4     H167165   6.378   2.448   0.324 -0.6518 -1.3468  0.2603
  800HK4     C667166   6.551   2.548   0.417  0.0177  0.1181  0.1055
  800HK4     C567167   6.667   2.521   0.490  0.1615 -0.3265 -0.2919
  800HK4    C1067168   6.764   2.630   0.518 -0.2027 -0.1091  0.1132
  800HK4     O167169   6.798   2.699   0.421 -0.0479  0.3206  0.4705
  800HK4    C1667170   6.473   2.671   0.440  0.0569  0.2595 -0.5013
  800HK4    C1567171   6.348   2.674   0.506  0.3033  0.0030 -0.0204
  800HK4     H767172   6.319   2.585   0.564  2.5301 -1.1542 -0.6152
  800HK4    C2067173   6.272   2.789   0.522  0.0253 -0.1429 -0.3060
  800HK4     H967174   6.176   2.786   0.573  0.9755 -1.0188  1.4690
  800HK4    C1967175   6.321   2.908   0.470 -0.2737  0.3465  0.5228
  800HK4    C1867176   6.449   2.906   0.400 -0.3724 -0.2144  0.3548
  800HK4    C1767177   6.518   2.787   0.378 -0.0899  0.1596 -0.7942
  800HK4     H867178   6.593   2.775   0.300 -0.1030 -3.4946 -0.3102
  800HK4     N167179   6.467   3.028   0.332  0.2757 -0.2935  0.3867
  800HK4    C2167180   6.360   3.110   0.371  0.2564 -0.0960 -0.0759
  800HK4    C2267181   6.266   3.041   0.458 -0.0262  0.4043  0.0169
  800HK4    C2667182   6.164   3.112   0.519  0.2966  0.0140  1.0146
  800HK4    H1367183   6.087   3.049   0.564  1.3723 -1.6682  0.5086
  800HK4    C2567184   6.151   3.249   0.498 -0.1384 -0.2302 -0.3852
  800HK4    H1267185   6.054   3.290   0.527 -0.3703 -1.0784  0.0696
  800HK4    C2467186   6.241   3.316   0.416  0.2647 -0.0340  0.2092
  800HK4    H1167187   6.234   3.425   0.404  1.7377 -0.2043 -2.4791
  800HK4    C2367188   6.344   3.247   0.354  0.3291 -0.0364  0.3180
  800HK4    H1067189   6.406   3.311   0.291 -1.2471  0.4505 -0.7811
  800HK4    C3967190   6.589   3.070   0.277 -0.2301 -0.0626 -0.5653
  800HK4    C4167191   6.598   3.168   0.176 -0.5762  0.4000 -0.1461
  800HK4    H2167192   6.506   3.175   0.116  0.4790 -0.0062 -1.8464
  800HK4    C4267193   6.712   3.227   0.124 -0.1010  0.3289  0.8009
  800HK4    H2267194   6.716   3.299   0.041 -2.6512 -0.0358  0.3364
  800HK4    C4367195   6.832   3.175   0.172  0.0372  0.1851  0.3084
  800HK4    H2367196   6.922   3.228   0.142 -0.0548  0.3589  0.3415
  800HK4    C4467197   6.829   3.077   0.271 -0.5902 -0.4182 -0.3002
  800HK4    H2467198   6.929   3.041   0.301 -0.8325 -1.5982 -0.8716
  800HK4    C4567199   6.713   3.028   0.329 -0.5247  0.2866  0.4264
  800HK4    H2567200   6.720   2.992   0.433 -0.0658  1.6892  0.8964
  801HK4    H2867201   7.042   6.218  10.117  0.2801  0.4499 -0.0829
  801HK4    C4867202   7.081   6.262  10.026  0.2209 -1.0888 -0.8663
  801HK4    C4767203   7.208   6.318  10.020  0.1895 -0.9656 -0.3822
  801HK4    H2767204   7.286   6.273  10.083 -0.8587 -2.6536 -0.2750
  801HK4    C4667205   7.246   6.407   9.920 -0.7857  0.4279  0.4601
  801HK4    H2667206   7.346   6.453   9.926 -0.0847 -0.9432 -0.3696
  801HK4    C4067207   7.157   6.437   9.815  0.0129 -0.3244 -0.4442
  801HK4    C5067208   7.038   6.361   9.810  0.1306 -0.5472  0.1291
  801HK4    H3067209   6.982   6.358   9.716  3.2898 -1.4398 -1.7886
  801HK4    C4967210   6.998   6.280   9.916 -0.7276 -0.3338 -0.0310
  801HK4    H2967211   6.907   6.218   9.904  1.0214 -2.9975  0.0525
  801HK4     N267212   7.181   6.543   9.727  0.4979  0.0526  0.1400
  801HK4    C3067213   7.238   6.668   9.758  0.7869 -0.1944  0.6050
  801HK4    C2967214   7.253   6.724   9.884 -0.0821  0.1504  0.5547
  801HK4    H1567215   7.206   6.679   9.972  1.6080 -0.0299  1.3900
  801HK4    C2867216   7.335   6.834   9.909 -0.8137  0.8128  0.0492
  801HK4    C2767217   7.388   6.885   9.789 -0.4606  0.0127 -0.1437
  801HK4    H1467218   7.453   6.974   9.802 -0.7976  0.4925 -1.6425
  801HK4    C3267219   7.381   6.837   9.659  0.4304 -0.3970 -0.0441
  801HK4    H1667220   7.438   6.874   9.574 -0.0261 -0.7071 -0.4953
  801HK4    C3167221   7.310   6.718   9.643 -0.1888 -0.0466  0.0586
  801HK4    C3467222   7.293   6.628   9.530 -0.3506  0.2200 -0.1318
  801HK4    C3367223   7.207   6.527   9.589  0.3985 -0.2561  0.1560
  801HK4    C3567224   7.187   6.417   9.507 -0.3800 -0.1203  0.1549
  801HK4    H1767225   7.122   6.335   9.536 -0.1740 -0.6408 -0.8247
  801HK4    C3667226   7.259   6.394   9.390 -0.3891 -0.4432  0.2106
  801HK4    H1867227   7.255   6.293   9.347 -0.1984 -0.1953 -0.4017
  801HK4    C3767228   7.355   6.483   9.344 -0.6219 -0.3128 -0.0224
  801HK4    H1967229   7.436   6.445   9.281 -1.0307 -0.3818 -0.5102
  801HK4    C3867230   7.366   6.602   9.415 -0.4726 -0.2843 -0.0927
  801HK4    H2067231   7.448   6.670   9.392  0.8070 -1.1971  1.6879
  801HK4    C1467232   7.372   6.890  10.039 -0.1779 -0.2351  0.3294
  801HK4     C967233   7.416   7.022  10.056 -0.5739 -0.0640  0.0067
  801HK4     C867234   7.501   7.051  10.164  0.0005  0.3586 -0.5526
  801HK4    C1167235   7.522   6.952  10.259 -0.4486  0.2770 -0.5413
  801HK4     H467236   7.606   6.964  10.329 -0.2876  2.8361 -1.1236
  801HK4    C1267237   7.453   6.832  10.257  0.1382 -0.0714 -0.0603
  801HK4     H567238   7.463   6.770  10.348 -1.6112  3.2663  2.5096
  801HK4    C1367239   7.383   6.795  10.142 -0.2623 -0.3204  0.2565
  801HK4     H667240   7.362   6.688  10.123 -0.1717 -0.0094 -1.6961
  801HK4     C767241   7.548   7.189  10.191  0.1317  0.2265 -0.0964
  801HK4     O267242   7.658   7.209  10.241 -0.1853 -0.1472  0.7580
  801HK4     C467243   7.479   7.300  10.121 -0.0520 -0.0303 -0.3289
  801HK4     C367244   7.500   7.433  10.158 -0.9275 -0.0698  0.3374
  801HK4     H367245   7.570   7.460  10.238  0.9580  0.3487 -1.4017
  801HK4     C267246   7.461   7.544  10.084  0.5002  0.1830 -0.0366
  801HK4     H267247   7.463   7.639  10.138  0.9573  0.9427 -1.3440
  801HK4     C167248   7.397   7.516   9.964  0.2311 -0.0262  0.1556
  801HK4     H167249   7.369   7.602   9.902 -3.3076 -0.9457  0.3662
  801HK4     C667250   7.363   7.385   9.922  0.3613  0.0252 -0.1083
  801HK4     C567251   7.398   7.280  10.007 -0.8156 -0.1069  0.2216
  801HK4    C1067252   7.356   7.139   9.985 -0.2427 -0.1749 -0.4603
  801HK4     O167253   7.238   7.126   9.951 -0.2851 -0.5086 -0.1877
  801HK4    C1667254   7.356   7.360   9.777  0.2250 -0.3747 -0.0337
  801HK4    C1567255   7.433   7.446   9.695 -0.3002  0.4057  0.2858
  801HK4     H767256   7.526   7.489   9.733  0.7336 -0.9551 -0.6772
  801HK4    C2067257   7.392   7.480   9.566 -0.4452 -0.3375  0.1352
  801HK4     H967258   7.442   7.565   9.521 -0.6859  0.0831  0.6574
  801HK4    C1967259   7.276   7.428   9.509 -0.1947 -0.3328 -0.3791
  801HK4    C1867260   7.197   7.333   9.585  0.4732 -0.5827  0.0107
  801HK4    C1767261   7.241   7.312   9.715 -0.5397  0.6636  0.5618
  801HK4     H867262   7.168   7.273   9.786  0.6576 -0.8055  1.0276
  801HK4     N167263   7.088   7.283   9.511 -0.0744  0.4361  0.1157
  801HK4    C2167264   7.103   7.344   9.384 -0.3682  0.3696  0.0446
  801HK4    C2267265   7.208   7.443   9.382 -0.2105  0.1957 -0.3072
  801HK4    C2667266   7.222   7.531   9.275  0.3325  0.1595 -0.2707
  801HK4    H1367267   7.281   7.622   9.284  0.7451 -0.1822  0.5775
  801HK4    C2567268   7.143   7.514   9.162  0.2362  0.0012 -0.1827
  801HK4    H1267269   7.167   7.573   9.073  0.2336  2.2188  1.2409
  801HK4    C2467270   7.044   7.417   9.163  0.4612 -0.2287  0.0240
  801HK4    H1167271   6.976   7.400   9.078 -0.5595  0.0996  0.7658
  801HK4    C2367272   7.026   7.331   9.270  0.0180 -0.3403 -0.1397
  801HK4    H1067273   6.958   7.247   9.257 -1.5534  1.0080 -0.7497
  801HK4    C3967274   7.020   7.164   9.540  0.2594  0.1818 -0.1271
  801HK4    C4167275   6.896   7.130   9.482  0.3475 -0.4913  0.0800
  801HK4    H2167276   6.837   7.214   9.442 -2.4440 -1.8434  1.1672
  801HK4    C4267277   6.843   7.001   9.493  0.2461 -0.4531  0.0420
  801HK4    H2267278   6.764   6.964   9.427 -0.7208  0.3100  0.7562
  801HK4    C4367279   6.910   6.906   9.568 -0.2944 -0.2337  0.8042
  801HK4    H2367280   6.869   6.805   9.565 -3.1812  0.7542  3.8930
  801HK4    C4467281   7.035   6.931   9.624  0.0523 -0.2825  0.0606
  801HK4    H2467282   7.068   6.857   9.699  3.6993 -1.8967 -2.9869
  801HK4    C4567283   7.086   7.059   9.606 -0.4145 -0.0856  0.1286
  801HK4    H2567284   7.182   7.079   9.657 -1.1637  1.2153  1.0485
  802HK4    H2867285   9.678   4.232   3.361  0.5487 -0.3996 -0.0405
  802HK4    C4867286   9.665   4.222   3.253  0.0914  0.2273 -0.0390
  802HK4    C4767287   9.657   4.331   3.167 -0.2334  0.2929  0.0760
  802HK4    H2767288   9.682   4.434   3.194 -3.6263  0.7643  1.6845
  802HK4    C4667289   9.653   4.306   3.030  0.5644  0.0073  0.1041
  802HK4    H2667290   9.658   4.392   2.962 -0.0308  0.2047  0.3062
  802HK4    C4067291   9.656   4.176   2.977  0.3561  0.1183 -0.1813
  802HK4    C5067292   9.660   4.069   3.069 -0.1736  0.1385 -0.1336
  802HK4    H3067293   9.677   3.964   3.039  0.1772 -0.3006  1.5434
  802HK4    C4967294   9.670   4.092   3.206  0.4407  0.2997 -0.2053
  802HK4    H2967295   9.705   4.009   3.269 -0.1162 -0.5989 -1.0549
  802HK4     N267296   9.642   4.146   2.841  0.4397 -0.2018 -0.1197
  802HK4    C3067297   9.689   4.231   2.739 -0.1414  0.1873 -0.0614
  802HK4    C2967298   9.798   4.317   2.745 -0.0775  0.1363 -0.4728
  802HK4    H1567299   9.826   4.350   2.846  3.2807 -3.3661 -0.1511
  802HK4    C2867300   9.868   4.360   2.633  0.1298  0.0967 -0.3586
  802HK4    C2767301   9.808   4.329   2.509  0.2412 -0.1849 -0.3413
  802HK4    H1467302   9.857   4.367   2.418  1.3963 -0.0786  0.3221
  802HK4    C3267303   9.698   4.244   2.498 -0.2020  0.3311  0.1016
  802HK4    H1667304   9.665   4.205   2.401 -0.7839 -0.3261  0.5639
  802HK4    C3167305   9.639   4.188   2.610 -0.1467  0.0443 -0.0111
  802HK4    C3467306   9.553   4.074   2.637 -0.2102  0.1448  0.2156
  802HK4    C3367307   9.557   4.051   2.780  0.2806 -0.2297  0.1423
  802HK4    C3567308   9.465   3.964   2.837 -0.5795  0.3607 -0.3367
  802HK4    H1767309   9.464   3.950   2.945 -0.7586  0.8582 -0.2709
  802HK4    C3667310   9.371   3.897   2.760 -0.7843  0.1479  0.0988
  802HK4    H1867311   9.329   3.807   2.807  1.7774 -1.6418 -0.9404
  802HK4    C3767312   9.363   3.918   2.623  0.3171 -0.3976 -0.0473
  802HK4    H1967313   9.308   3.844   2.566  1.1664 -1.7935  0.9151
  802HK4    C3867314   9.457   4.003   2.565 -0.1070  0.1521  0.0717
  802HK4    H2067315   9.483   4.002   2.459 -0.7140 -3.4255 -0.0974
  802HK4    C1467316   9.996   4.431   2.639  0.1802  0.0089 -0.3042
  802HK4     C967317  10.053   4.500   2.531  0.1158  0.0475 -0.3117
  802HK4     C867318  10.192   4.485   2.513  0.1277 -0.0568 -0.1418
  802HK4    C1167319  10.273   4.416   2.602  0.4314  0.0345 -0.3437
  802HK4     H467320  10.372   4.379   2.572  1.3611  2.4275 -0.3383
  802HK4    C1267321  10.220   4.369   2.722  0.0113  0.0802 -0.5099
  802HK4     H567322  10.291   4.342   2.802  0.1020  0.8710 -0.3242
  802HK4    C1367323  10.082   4.377   2.736  0.1123  0.6772  0.1308
  802HK4     H667324  10.049   4.340   2.834  4.3316 -1.9565  0.7077
  802HK4     C767325  10.248   4.546   2.389  0.2566  0.3469  0.1141
  802HK4     O267326  10.352   4.495   2.350  0.3065  0.2816  0.3296
  802HK4     C467327  10.174   4.645   2.307 -0.2131  0.0502  0.1730
  802HK4     C367328  10.239   4.711   2.204 -0.7154  0.0602 -0.1354
  802HK4     H367329  10.347   4.695   2.192 -0.5824  0.1474  0.9457
  802HK4     C267330  10.171   4.800   2.122 -0.4686 -0.1757 -0.6010
  802HK4     H267331  10.224   4.888   2.081  0.6344 -0.5783 -0.0432
  802HK4     C167332  10.034   4.809   2.143 -0.4400 -0.0132 -0.4832
  802HK4     H167333   9.977   4.866   2.068 -0.3407  1.2217  0.3638
  802HK4     C667334   9.959   4.736   2.237 -0.0741  0.1162 -0.0908
  802HK4     C567335  10.035   4.654   2.322 -0.3298 -0.5475 -0.4951
  802HK4    C1067336   9.976   4.595   2.446 -0.2949 -0.3446 -0.3820
  802HK4     O167337   9.881   4.651   2.499  0.1824  0.0655  0.0527
  802HK4    C1667338   9.815   4.765   2.241 -0.1595 -0.3116  0.1171
  802HK4    C1567339   9.758   4.888   2.201  0.0163 -0.0839  0.5745
  802HK4     H767340   9.812   4.982   2.222 -2.0406  1.4846 -0.9973
  802HK4    C2067341   9.638   4.897   2.132  0.3412  0.0125  0.0234
  802HK4     H967342   9.604   4.995   2.100 -0.1281 -0.4537 -0.9299
  802HK4    C1967343   9.567   4.781   2.103  0.0413  0.2649 -0.2643
  802HK4    C1867344   9.614   4.657   2.161 -0.1404  0.0632 -0.5461
  802HK4    C1767345   9.735   4.652   2.230 -0.5506 -0.0425  0.1739
  802HK4     H867346   9.760   4.556   2.273 -0.3037  0.0198  0.1657
  802HK4     N167347   9.534   4.552   2.111 -0.4157 -0.2180  0.4803
  802HK4    C2167348   9.439   4.608   2.023  0.2779  0.0341 -0.1098
  802HK4    C2267349   9.456   4.752   2.014 -0.4032  0.1450  0.3260
  802HK4    C2667350   9.370   4.832   1.939 -0.0655 -0.2556 -0.4965
  802HK4    H1367351   9.392   4.936   1.918 -1.1698 -0.1808 -1.2942
  802HK4    C2567352   9.262   4.772   1.876 -0.5651  0.2255 -0.1043
  802HK4    H1267353   9.185   4.839   1.836 -0.8298  0.4012  0.7017
  802HK4    C2467354   9.246   4.635   1.888 -0.1889  0.2225  0.3656
  802HK4    H1167355   9.153   4.590   1.850 -0.7164  1.0830  0.6157
  802HK4    C2367356   9.334   4.550   1.953 -0.4036  0.2655  0.7107
  802HK4    H1067357   9.308   4.444   1.952  2.2654 -0.4245  0.3703
  802HK4    C3967358   9.507   4.433   2.180  0.1606 -0.3106  0.5466
  802HK4    C4167359   9.487   4.309   2.115  0.6785 -0.1303  0.0361
  802HK4    H2167360   9.491   4.301   2.005  0.4793 -2.5974  0.1773
  802HK4    C4267361   9.412   4.210   2.177 -0.1342  0.5140  0.0903
  802HK4    H2267362   9.399   4.113   2.128 -0.6299  0.4749  0.2949
  802HK4    C4367363   9.359   4.224   2.305  0.3688 -0.0966  0.3692
  802HK4    H2367364   9.278   4.161   2.340  0.9182 -0.8149  0.3713
  802HK4    C4467365   9.389   4.345   2.367  0.7539 -0.2540  0.4967
  802HK4    H2467366   9.335   4.376   2.458  0.8038  2.2850 -0.2769
  802HK4    C4567367   9.465   4.448   2.313 -0.0118  0.2760  0.4233
  802HK4    H2567368   9.513   4.524   2.377  1.6156  0.8342 -1.4068
  803HK4    H2867369   8.799  10.257   5.233 -0.8553  1.4151 -1.0849
  803HK4    C4867370   8.886  10.252   5.168  0.0821  0.1260  0.2239
  803HK4    C4767371   8.952  10.372   5.142  0.0399  0.1699  0.3295
  803HK4    H2767372   8.921  10.462   5.198 -0.8114  0.0123  0.1225
  803HK4    C4667373   9.059  10.378   5.054 -0.2923 -0.1908 -0.1043
  803HK4    H2667374   9.110  10.474   5.039  1.0193 -0.5481  1.8433
  803HK4    C4067375   9.115  10.260   4.999 -0.2220  0.1554 -0.7768
  803HK4    C5067376   9.047  10.141   5.029 -0.6169  0.5415 -0.1368
  803HK4    H3067377   9.071  10.049   4.973 -0.4219  0.2301  0.4471
  803HK4    C4967378   8.936  10.135   5.113 -0.5834  0.0041 -0.1257
  803HK4    H2967379   8.887  10.041   5.142 -0.8316 -0.1725 -1.0929
  803HK4     N267380   9.220  10.256   4.906 -0.1243 -0.3572 -0.6431
  803HK4    C3067381   9.243  10.358   4.811  0.2028 -0.1282 -0.3167
  803HK4    C2967382   9.170  10.469   4.770  0.1765 -0.0249  0.0050
  803HK4    H1567383   9.079  10.492   4.825  0.6302  0.1924  0.6589
  803HK4    C2867384   9.204  10.551   4.663  0.2639 -0.6693 -0.4701
  803HK4    C2767385   9.326  10.517   4.600  0.2335  0.1530 -0.9865
  803HK4    H1467386   9.369  10.588   4.528  2.4344  0.0424  0.1654
  803HK4    C3267387   9.406  10.408   4.631  0.0556  0.2561 -0.1228
  803HK4    H1667388   9.514  10.408   4.613 -0.0254 -0.1119 -0.6305
  803HK4    C3167389   9.358  10.323   4.730  0.1189 -0.1406 -0.4317
  803HK4    C3467390   9.408  10.198   4.784 -0.2131 -0.0430  0.1039
  803HK4    C3367391   9.320  10.158   4.892  0.6166  0.1529  0.8606
  803HK4    C3567392   9.344  10.037   4.956 -0.0844 -0.4729 -0.0349
  803HK4    H1767393   9.275  10.011   5.036 -0.3008 -0.8421 -0.3453
  803HK4    C3667394   9.444   9.951   4.913 -0.2331 -0.6327 -0.0753
  803HK4    H1867395   9.454   9.861   4.976  2.3842 -1.6996 -1.9038
  803HK4    C3767396   9.524   9.983   4.804  0.3242  0.0295  0.5250
  803HK4    H1967397   9.588   9.907   4.758  1.0837  0.8242  0.2479
  803HK4    C3867398   9.508  10.109   4.748 -0.3718 -0.2325  0.1314
  803HK4    H2067399   9.578  10.141   4.671 -1.7641 -0.3228 -1.1910
  803HK4    C1467400   9.113  10.652   4.608  0.2234 -0.5348 -0.1487
  803HK4     C967401   9.108  10.706   4.479  0.2115  0.0583  0.0952
  803HK4     C867402   9.035  10.821   4.444 -0.4157 -0.4038 -0.1247
  803HK4    C1167403   8.964  10.889   4.542  0.2936  0.1757 -0.0012
  803HK4     H467404   8.896  10.971   4.515 -0.8436 -0.8170 -0.2216
  803HK4    C1267405   8.961  10.834   4.670  0.1996 -0.2552 -0.1886
  803HK4     H567406   8.923  10.895   4.753  1.2556 -0.8518  0.7278
  803HK4    C1367407   9.033  10.720   4.703  0.0264 -0.4243 -0.3898
  803HK4     H667408   9.038  10.696   4.810  2.1172  0.7977 -0.1804
  803HK4     C767409   9.055  10.889   4.314  0.5375  0.2066  0.3344
  803HK4     O267410   8.992  10.991   4.284  0.2034 -0.1947 -0.3454
  803HK4     C467411   9.152  10.834   4.217  0.3455  0.4915 -0.0239
  803HK4     C367412   9.190  10.904   4.103  0.0217 -0.0551 -0.4730
  803HK4     H367413   9.136  10.996   4.075  2.5005  1.4158 -0.5788
  803HK4     C267414   9.292  10.858   4.021  0.0507 -0.2305 -0.3431
  803HK4     H267415   9.328  10.912   3.932 -1.1986  1.5731  0.2352
  803HK4     C167416   9.361  10.743   4.059 -0.3587 -0.4031 -0.1211
  803HK4     H167417   9.458  10.733   4.008 -0.5722 -1.1776 -0.3845
  803HK4     C667418   9.322  10.664   4.168  0.0738  0.0842  0.3870
  803HK4     C567419   9.214  10.710   4.245 -0.0627  0.3033  0.0659
  803HK4    C1067420   9.180  10.635   4.369  0.2054  0.1378  0.0395
  803HK4     O167421   9.140  10.519   4.358 -0.2244  0.2887 -0.0216
  803HK4    C1667422   9.425  10.568   4.209  0.0372 -0.2292 -0.2469
  803HK4    C1567423   9.557  10.608   4.235 -0.1573  0.2405  0.0396
  803HK4     H767424   9.600  10.703   4.200 -0.5241 -0.2799 -1.8563
  803HK4    C2067425   9.647  10.516   4.290 -0.4025  0.0474  0.1217
  803HK4     H967426   9.744  10.565   4.302 -0.6566  0.1146  1.9784
  803HK4    C1967427   9.614  10.385   4.320 -0.2457  0.0189  0.1558
  803HK4    C1867428   9.486  10.338   4.269 -0.2988  0.2507  0.0756
  803HK4    C1767429   9.398  10.431   4.216 -0.3005 -0.1854 -0.7091
  803HK4     H867430   9.303  10.395   4.178 -0.4806 -0.1223 -0.3221
  803HK4     N167431   9.465  10.199   4.277  0.2346  0.1570 -0.1720
  803HK4    C2167432   9.587  10.155   4.333 -0.0180 -0.3756 -0.0354
  803HK4    C2267433   9.678  10.263   4.365  0.1025 -0.2080 -0.9466
  803HK4    C2667434   9.807  10.238   4.411 -0.2919  0.0464  0.3039
  803HK4    H1367435   9.868  10.315   4.458 -1.6937 -0.1846  2.6389
  803HK4    C2567436   9.845  10.105   4.425  0.0236  0.1722  0.6752
  803HK4    H1267437   9.931  10.068   4.481  0.5855 -2.4794 -1.7831
  803HK4    C2467438   9.762   9.999   4.389  0.0976  0.2504  0.2633
  803HK4    H1167439   9.797   9.895   4.385 -1.2757 -0.2431  0.8439
  803HK4    C2367440   9.631  10.024   4.347  0.0745 -0.3441 -0.0216
  803HK4    H1067441   9.558   9.943   4.347  0.0630 -0.3367  0.7434
  803HK4    C3967442   9.344  10.134   4.302  0.1969  0.1430 -0.3876
  803HK4    C4167443   9.321  10.003   4.254  0.1240  0.0919 -0.2187
  803HK4    H2167444   9.381   9.976   4.166  0.9019 -4.1610  1.5160
  803HK4    C4267445   9.218   9.924   4.302  0.2310  0.0594 -0.0378
  803HK4    H2267446   9.185   9.851   4.227 -0.1918  1.3800 -1.1697
  803HK4    C4367447   9.144   9.979   4.407 -0.3270 -0.0761 -0.3561
  803HK4    H2367448   9.053   9.931   4.444 -0.0316 -0.0839  0.3631
  803HK4    C4467449   9.162  10.106   4.460 -0.0499 -0.2720  0.0338
  803HK4    H2467450   9.104  10.140   4.547  2.7774  1.9098  1.1342
  803HK4    C4567451   9.263  10.185   4.406 -0.2159 -0.3920 -0.4471
  803HK4    H2567452   9.264  10.291   4.434  0.0366 -0.8771  1.4541
  804HK4    H2867453   8.613  10.924   9.541  1.2230  0.8449  1.9383
  804HK4    C4867454   8.689  10.849   9.522  0.0993  0.2350 -0.2906
  804HK4    C4767455   8.770  10.807   9.627 -0.3734 -0.4523 -0.2067
  804HK4    H2767456   8.759  10.865   9.720 -0.0223  0.5369 -0.7791
  804HK4    C4667457   8.875  10.717   9.610  0.3602  0.3009  0.3141
  804HK4    H2667458   8.884  10.654   9.700  1.4372 -0.8895 -0.6165
  804HK4    C4067459   8.909  10.661   9.485 -0.4821 -0.1890  0.3027
  804HK4    C5067460   8.828  10.702   9.378  0.0556  0.2732  0.0673
  804HK4    H3067461   8.831  10.652   9.280  1.3352 -1.0314  0.7512
  804HK4    C4967462   8.724  10.792   9.400 -0.5458 -0.3382 -0.2137
  804HK4    H2967463   8.662  10.830   9.317 -0.9945 -3.2409 -1.2456
  804HK4     N267464   9.036  10.606   9.463 -0.4350 -0.3574  0.9592
  804HK4    C3067465   9.155  10.646   9.527 -0.3792 -0.0427  0.6672
  804HK4    C2967466   9.182  10.739   9.626 -0.4219  0.1563  0.4940
  804HK4    H1567467   9.117  10.826   9.629 -0.2058  0.3356 -0.0510
  804HK4    C2867468   9.297  10.730   9.705 -0.3728 -0.6663  0.3344
  804HK4    C2767469   9.388  10.625   9.678  0.3470 -0.0542  0.3847
  804HK4    H1467470   9.455  10.587   9.757  0.2672 -0.4125  0.2793
  804HK4    C3267471   9.369  10.538   9.572  0.0261  0.3497  0.1115
  804HK4    H1667472   9.459  10.487   9.537 -1.0614 -2.7854  1.7114
  804HK4    C3167473   9.252  10.542   9.498 -0.0203  0.4329  0.1835
  804HK4    C3467474   9.202  10.443   9.404  0.2370  0.3355  0.1509
  804HK4    C3367475   9.064  10.485   9.396  0.1470  0.0903  0.3853
  804HK4    C3567476   8.984  10.409   9.311  0.2468  0.2265  0.1671
  804HK4    H1767477   8.878  10.432   9.303  0.1569  0.4180  1.6507
  804HK4    C3667478   9.037  10.314   9.225 -0.1491 -0.1070  0.2904
  804HK4    H1867479   8.972  10.251   9.164 -0.0847  0.5081 -0.4210
  804HK4    C3767480   9.175  10.294   9.224 -0.0039  0.8253  0.1323
  804HK4    H1967481   9.210  10.211   9.162 -3.6823  0.7731 -2.0489
  804HK4    C3867482   9.260  10.351   9.317  0.2310  0.1677  0.3185
  804HK4    H2067483   9.369  10.356   9.307  0.1376 -0.5089 -1.1504
  804HK4    C1467484   9.313  10.819   9.821  0.2088 -0.3087 -0.0189
  804HK4     C967485   9.438  10.841   9.880  0.0916 -0.6535  0.3654
  804HK4     C867486   9.450  10.847  10.020 -0.4365 -0.5224  0.4056
  804HK4    C1167487   9.333  10.853  10.096 -0.4907  0.8576  0.2189
  804HK4     H467488   9.336  10.866  10.205  1.0171 -3.8069  0.8141
  804HK4    C1267489   9.207  10.838  10.041 -0.2755  0.7182 -0.2305
  804HK4     H567490   9.116  10.819  10.100 -0.7876 -1.4653 -1.6468
  804HK4    C1367491   9.200  10.813   9.904  0.2084 -0.5283 -0.0348
  804HK4     H667492   9.098  10.798   9.864 -1.1523  0.5533  2.8774
  804HK4     C767493   9.576  10.863  10.095 -0.2980  0.2998 -0.0063
  804HK4     O267494   9.579  10.848  10.217  0.3210 -0.3315 -0.0982
  804HK4     C467495   9.699  10.860  10.013 -0.1957 -0.4544  0.1719
  804HK4     C367496   9.824  10.880  10.070  0.0724 -0.6443 -0.3517
  804HK4     H367497   9.833  10.856  10.177 -1.0415  2.2468  0.4296
  804HK4     C267498   9.944  10.894  10.000  0.3037 -0.0531  0.1615
  804HK4     H267499  10.038  10.911  10.055  0.0694  2.2732 -0.1033
  804HK4     C167500   9.935  10.869   9.864 -0.2893 -0.3424  0.2490
  804HK4     H167501  10.024  10.814   9.830  0.8952  1.8309 -0.2519
  804HK4     C667502   9.813  10.851   9.796 -0.1572 -0.2732 -0.0107
  804HK4     C567503   9.695  10.852   9.873 -0.0352 -0.8771  0.1911
  804HK4    C1067504   9.564  10.860   9.802 -0.0472 -0.0994  0.2873
  804HK4     O167505   9.555  10.922   9.697 -0.4284  0.3051  0.5548
  804HK4    C1667506   9.828  10.856   9.650 -0.0065 -0.1872  0.0097
  804HK4    C1567507   9.945  10.917   9.598 -0.0633 -0.1338 -0.0492
  804HK4     H767508   9.983  11.007   9.647 -2.5313  1.0118 -0.1638
  804HK4    C2067509  10.007  10.878   9.480  0.6970 -0.2053  0.3748
  804HK4     H967510  10.105  10.917   9.453  0.1775  0.1261 -1.1108
  804HK4    C1967511   9.956  10.774   9.403  0.3285  0.1932  0.0790
  804HK4    C1867512   9.836  10.713   9.458  0.5297 -0.1473  0.1439
  804HK4    C1767513   9.772  10.755   9.574  0.2546 -0.3841  0.0746
  804HK4     H867514   9.664  10.745   9.572  0.0708  0.8067  2.3075
  804HK4     N167515   9.802  10.596   9.386  0.3421 -0.2613  0.4173
  804HK4    C2167516   9.917  10.569   9.310 -0.0799 -0.1371 -0.2664
  804HK4    C2267517  10.004  10.685   9.300  0.1395 -0.2494  0.3692
  804HK4    C2667518  10.135  10.664   9.258  0.2206 -0.0563  0.5144
  804HK4    H1367519  10.195  10.749   9.225  0.7152 -0.7470 -0.4104
  804HK4    C2567520  10.181  10.533   9.247 -0.2814 -0.2374  0.5891
  804HK4    H1267521  10.284  10.515   9.216 -0.7098  0.5397 -1.3314
  804HK4    C2467522  10.103  10.419   9.264 -0.1482 -0.5388 -0.7962
  804HK4    H1167523  10.157  10.325   9.279  0.0240 -0.5609 -1.5429
  804HK4    C2367524   9.968  10.441   9.290  0.0872 -0.1224  0.0704
  804HK4    H1067525   9.901  10.362   9.325  0.5535 -0.2638  0.6584
  804HK4    C3967526   9.675  10.585   9.329  0.5316  0.3188 -0.1258
  804HK4    C4167527   9.648  10.468   9.255  0.5837  0.3837 -0.2511
  804HK4    H2167528   9.668  10.373   9.307  1.2133  1.1782  1.0056
  804HK4    C4267529   9.560  10.461   9.149 -0.6082 -0.1194  0.7524
  804HK4    H2267530   9.547  10.367   9.094  2.9498 -0.2205 -0.0153
  804HK4    C4367531   9.482  10.572   9.117 -0.4562 -0.1684  0.1926
  804HK4    H2367532   9.387  10.558   9.066 -0.0640 -1.3165 -0.2239
  804HK4    C4467533   9.506  10.691   9.186  0.4412 -0.0714 -0.2960
  804HK4    H2467534   9.456  10.784   9.155 -0.2387 -0.5149 -0.5504
  804HK4    C4567535   9.598  10.697   9.290  0.3417  0.1530 -0.2160
  804HK4    H2567536   9.621  10.796   9.331 -0.4588  0.5125 -0.6272
  805HK4    H2867537  10.847   5.852   2.636 -0.3883  2.1695 -3.5666
  805HK4    C4867538  10.823   5.938   2.698 -0.0883 -0.0387 -0.2435
  805HK4    C4767539  10.764   5.915   2.822 -0.4396 -0.2287 -0.4454
  805HK4    H2767540  10.737   5.813   2.853  2.0546 -0.0737  2.3794
  805HK4    C4667541  10.735   6.020   2.908  0.6131 -0.1179 -0.2278
  805HK4    H2667542  10.661   6.001   2.987 -0.7459 -0.4950 -1.5672
  805HK4    C4067543  10.765   6.154   2.874  0.8570 -0.0433  0.2901
  805HK4    C5067544  10.814   6.175   2.744  0.1613 -0.4754 -0.0419
  805HK4    H3067545  10.847   6.275   2.710 -0.4045 -0.4574 -0.5554
  805HK4    C4967546  10.844   6.070   2.658  0.3436 -0.1490 -0.3793
  805HK4    H2967547  10.892   6.088   2.561  2.2149 -3.2598 -0.0980
  805HK4     N267548  10.796   6.241   2.980 -0.5624  0.2264  0.4974
  805HK4    C3067549  10.852   6.206   3.104  0.2054 -0.3978 -0.0154
  805HK4    C2967550  10.950   6.111   3.128  0.5003 -0.1023 -0.0481
  805HK4    H1567551  10.953   6.023   3.064 -0.5475 -0.4272  0.3382
  805HK4    C2867552  11.039   6.123   3.235 -0.1200 -0.1312  0.4706
  805HK4    C2767553  11.027   6.229   3.327 -0.3377  0.0869  0.1952
  805HK4    H1467554  11.094   6.231   3.415 -1.1710  0.9215  0.8175
  805HK4    C3267555  10.926   6.322   3.307 -0.3665 -0.0881 -0.4592
  805HK4    H1667556  10.922   6.412   3.368 -2.6292 -0.5376  0.0801
  805HK4    C3167557  10.847   6.321   3.193 -0.0425  0.1096 -0.6871
  805HK4    C3467558  10.767   6.423   3.127 -0.5464  0.1977  0.0532
  805HK4    C3367559  10.751   6.374   2.991 -0.2846  0.3721 -0.0433
  805HK4    C3567560  10.691   6.456   2.897 -0.7138 -0.3430 -0.3991
  805HK4    H1767561  10.667   6.423   2.795 -2.9565 -2.0391  0.6396
  805HK4    C3667562  10.651   6.583   2.937 -0.6281 -0.4018 -0.1303
  805HK4    H1867563  10.614   6.650   2.859  0.3938 -0.7280 -0.8974
  805HK4    C3767564  10.668   6.631   3.067 -0.2391 -0.1173 -0.2885
  805HK4    H1967565  10.620   6.724   3.097 -0.7503 -1.0901  1.9725
  805HK4    C3867566  10.734   6.553   3.161  0.2401  0.4557 -0.1457
  805HK4    H2067567  10.766   6.601   3.254 -2.4065  1.5681  0.2384
  805HK4    C1467568  11.146   6.026   3.257  0.3767  0.4313  0.5569
  805HK4     C967569  11.203   6.007   3.384  0.1288 -0.6060  0.5211
  805HK4     C867570   0.095   6.011   3.393  0.1101  1.0663  0.2603
  805HK4    C1167571   0.177   6.024   3.281  0.3052 -0.1946  0.2508
  805HK4     H467572   0.284   6.048   3.281  0.2580  0.0325 -0.3018
  805HK4    C1267573   0.120   6.022   3.154 -0.2889 -0.0856  0.5122
  805HK4     H567574   0.174   5.999   3.061 -0.2435  2.5998 -0.1706
  805HK4    C1367575  11.230   6.026   3.144 -0.2520  0.1359  0.0886
  805HK4     H667576  11.184   6.031   3.044  1.9035  1.6193 -0.8792
  805HK4     C767577   0.164   5.991   3.522 -0.4137  0.8122  0.4979
  805HK4     O267578   0.273   6.045   3.538  0.0279  0.1267 -0.2068
  805HK4     C467579   0.085   5.951   3.641 -0.3327 -0.6418  0.0707
  805HK4     C367580   0.147   5.942   3.766  0.5773 -0.2882 -0.3507
  805HK4     H367581   0.252   5.968   3.782  0.0248  0.5743  2.1162
  805HK4     C267582   0.082   5.885   3.875 -0.0829  0.6563 -0.2403
  805HK4     H267583   0.132   5.871   3.972  1.1880 -1.9480 -1.2015
  805HK4     C167584  11.203   5.833   3.853  0.0697  0.0534  0.3182
  805HK4     H167585  11.156   5.775   3.934  0.7605 -0.8945  0.0532
  805HK4     C667586  11.140   5.839   3.727  0.0146 -0.4737  0.3183
  805HK4     C567587  11.201   5.906   3.621 -0.3841 -0.4938  0.0731
  805HK4    C1067588  11.128   5.945   3.497 -0.3769 -1.3377 -0.2055
  805HK4     O167589  11.009   5.977   3.507  0.1780  0.8113 -0.2141
  805HK4    C1667590  11.007   5.777   3.716 -0.3005  0.2419  0.0846
  805HK4    C1567591  10.932   5.744   3.831 -0.1502 -0.1018  0.0882
  805HK4     H767592  10.929   5.810   3.919 -1.8783 -0.3387  0.2363
  805HK4    C2067593  10.841   5.640   3.845 -0.0754 -0.2522 -0.5579
  805HK4     H967594  10.784   5.620   3.935  0.0364 -0.8283 -0.6067
  805HK4    C1967595  10.817   5.561   3.733  0.0740 -0.4694 -0.4372
  805HK4    C1867596  10.871   5.606   3.606  0.3517 -0.0703 -0.1766
  805HK4    C1767597  10.975   5.698   3.606  0.3076 -0.0214  0.0915
  805HK4     H867598  11.024   5.720   3.511  1.4339  0.3850  0.7547
  805HK4     N167599  10.811   5.543   3.495  0.1892  0.4210 -0.3727
  805HK4    C2167600  10.724   5.452   3.558  0.7109  0.0147 -0.2294
  805HK4    C2267601  10.716   5.461   3.703  0.3339 -0.8108 -0.1948
  805HK4    C2667602  10.641   5.364   3.769 -0.1695  0.3084  0.9054
  805HK4    H1367603  10.653   5.364   3.877 -1.7195  0.9062  1.0910
  805HK4    C2567604  10.571   5.266   3.699  0.3830  0.6608 -0.1569
  805HK4    H1267605  10.499   5.204   3.753  1.4595  0.2898  0.8595
  805HK4    C2467606  10.573   5.253   3.561 -0.4503  0.1865 -0.1260
  805HK4    H1167607  10.534   5.163   3.511  3.0464 -0.9698 -0.9028
  805HK4    C2367608  10.648   5.352   3.498  0.2427 -0.0059  0.3933
  805HK4    H1067609  10.629   5.343   3.391 -0.7367 -3.8372  0.8061
  805HK4    C3967610  10.792   5.609   3.373  0.3773  0.1244 -0.5650
  805HK4    C4167611  10.737   5.538   3.265  0.6816  0.1288 -0.7220
  805HK4    H2167612  10.767   5.432   3.260 -0.7624 -0.3896  0.9106
  805HK4    C4267613  10.658   5.599   3.168 -0.2300 -0.1086 -0.1366
  805HK4    H2267614  10.611   5.543   3.085  2.0844 -0.4417 -1.2537
  805HK4    C4367615  10.615   5.732   3.174 -0.5321 -0.2124  0.0043
  805HK4    H2367616  10.541   5.782   3.113 -0.5871 -1.3411 -0.8805
  805HK4    C4467617  10.675   5.804   3.277 -0.1678 -0.2109 -0.2072
  805HK4    H2467618  10.629   5.900   3.304 -1.7090 -1.2782  1.1589
  805HK4    C4567619  10.762   5.747   3.368 -0.3086  0.0039  0.0625
  805HK4    H2567620  10.817   5.815   3.435 -1.9688  0.2993  1.1517
  806HK4    H2867621   7.326   4.924   3.854 -1.4199 -0.5504 -0.8366
  806HK4    C4867622   7.264   5.010   3.831 -0.7552  0.2791  0.3672
  806HK4    C4767623   7.141   4.987   3.770 -0.2673 -0.2147 -0.4474
  806HK4    H2767624   7.107   4.884   3.750 -1.3519 -0.0921  0.6535
  806HK4    C4667625   7.062   5.092   3.724  0.2723  0.1494 -0.5447
  806HK4    H2667626   6.956   5.077   3.700  0.0733  1.0339 -0.2411
  806HK4    C4067627   7.120   5.221   3.725  0.4512  0.0675 -0.0014
  806HK4    C5067628   7.242   5.245   3.792  0.2141  0.0297  0.4488
  806HK4    H3067629   7.288   5.343   3.776 -1.8200  0.9007 -0.1946
  806HK4    C4967630   7.315   5.139   3.844  0.0578 -0.0539  0.4959
  806HK4    H2967631   7.405   5.161   3.902  1.0267 -2.3596 -0.0631
  806HK4     N267632   7.071   5.319   3.639  0.1339 -0.2850 -0.2269
  806HK4    C3067633   7.005   5.284   3.520 -0.1364  0.3378 -0.2650
  806HK4    C2967634   7.047   5.184   3.433 -0.7234 -0.3228  0.2027
  806HK4    H1567635   7.138   5.131   3.460 -2.0853 -3.7492 -1.6341
  806HK4    C2867636   6.983   5.152   3.313 -0.5312 -0.1800  0.0630
  806HK4    C2767637   6.866   5.224   3.284 -0.3694 -0.0945 -0.3864
  806HK4    H1467638   6.808   5.190   3.197 -0.7968 -1.2052  0.3216
  806HK4    C3267639   6.814   5.322   3.368 -0.2429 -0.2557 -0.1204
  806HK4    H1667640   6.722   5.378   3.351 -1.0480 -1.3248  0.6370
  806HK4    C3167641   6.884   5.355   3.484 -0.3950 -0.0131 -0.0982
  806HK4    C3467642   6.882   5.448   3.596  0.0059 -0.1918  0.0544
  806HK4    C3367643   7.008   5.442   3.669 -0.1188 -0.5288  0.2452
  806HK4    C3567644   7.029   5.530   3.774 -0.1502 -0.3672  0.1166
  806HK4    H1767645   7.120   5.517   3.832 -0.5613 -0.2396  0.7990
  806HK4    C3667646   6.928   5.612   3.825  0.0403  0.0596 -0.1892
  806HK4    H1867647   6.969   5.704   3.870 -0.3096 -0.2150  0.7013
  806HK4    C3767648   6.807   5.603   3.757  0.3097 -0.6155 -0.5881
  806HK4    H1967649   6.723   5.657   3.799  0.6131 -0.7312  0.1861
  806HK4    C3867650   6.781   5.532   3.641 -0.3857 -0.2932 -0.6319
  806HK4    H2067651   6.702   5.579   3.583  1.1877  1.7582 -1.1466
  806HK4    C1467652   7.041   5.054   3.221  0.1817  0.0234  0.2849
  806HK4     C967653   7.019   5.043   3.083 -0.0190  0.0634  0.3130
  806HK4     C867654   7.029   4.922   3.011  0.2877  0.2235  0.0832
  806HK4    C1167655   7.083   4.812   3.077 -0.3790  0.1801  0.5713
  806HK4     H467656   7.119   4.726   3.017 -0.9638  0.0382  0.4233
  806HK4    C1267657   7.125   4.819   3.209  0.6102 -0.2723  0.2932
  806HK4     H567658   7.145   4.733   3.274 -0.8079  1.1124  2.6444
  806HK4    C1367659   7.108   4.941   3.273  0.0241 -0.2007  0.0057
  806HK4     H667660   7.173   4.954   3.361 -0.3301  1.0451  0.0939
  806HK4     C767661   6.967   4.907   2.878 -0.0470  0.3348  0.2260
  806HK4     O267662   6.993   4.813   2.803 -0.9518 -0.2673  0.6545
  806HK4     C467663   6.888   5.018   2.822 -0.0013  0.1708 -0.1629
  806HK4     C367664   6.796   5.004   2.718 -0.3947  0.0133  0.2053
  806HK4     H367665   6.803   4.912   2.657  2.3438  1.3502 -1.5901
  806HK4     C267666   6.716   5.108   2.674  0.0766  0.2562 -0.0830
  806HK4     H267667   6.627   5.086   2.613  0.1400  2.7250 -1.1556
  806HK4     C167668   6.732   5.233   2.734 -0.8698  0.1379  0.4358
  806HK4     H167669   6.688   5.319   2.683  2.3070  1.9117  0.5471
  806HK4     C667670   6.826   5.257   2.836 -0.1605  0.1014 -0.1985
  806HK4     C567671   6.905   5.148   2.874 -0.1901  0.1418 -0.0208
  806HK4    C1067672   6.990   5.160   2.996  0.3834 -0.3434 -0.3689
  806HK4     O167673   7.068   5.254   3.010  0.4580 -0.3962 -0.4274
  806HK4    C1667674   6.799   5.374   2.922  0.1140  0.1338 -0.1549
  806HK4    C1567675   6.663   5.398   2.951  0.0825  0.0487 -0.2240
  806HK4     H767676   6.596   5.313   2.973  1.0415 -0.4367  0.8776
  806HK4    C2067677   6.620   5.526   2.985 -0.7513 -0.1983 -0.3382
  806HK4     H967678   6.513   5.538   2.998 -1.0434 -2.1186 -0.7634
  806HK4    C1967679   6.710   5.631   2.985 -0.3484 -0.5372  0.0661
  806HK4    C1867680   6.850   5.609   2.952 -0.1129 -0.0510  0.7267
  806HK4    C1767681   6.889   5.480   2.919 -0.0201  0.2435 -0.3456
  806HK4     H867682   6.992   5.455   2.895  0.6444  0.2077  2.3537
  806HK4     N167683   6.926   5.728   2.961  0.1739 -0.1527 -0.2755
  806HK4    C2167684   6.831   5.828   2.989  0.2326 -0.0526 -0.4388
  806HK4    C2267685   6.697   5.774   3.003  0.4119 -0.4319 -0.1824
  806HK4    C2667686   6.599   5.848   3.068  0.3919 -0.5221 -0.1142
  806HK4    H1367687   6.493   5.823   3.068  0.3754 -0.8946 -5.1317
  806HK4    C2567688   6.625   5.969   3.131  0.3567 -0.5048 -0.1322
  806HK4    H1267689   6.554   6.020   3.196 -0.4572  0.5394 -1.7814
  806HK4    C2467690   6.756   6.015   3.133  0.2134 -0.0708 -0.5539
  806HK4    H1167691   6.776   6.116   3.170 -2.1683  0.0891  0.3749
  806HK4    C2367692   6.851   5.949   3.054  0.4719 -0.2919 -0.0630
  806HK4    H1067693   6.953   5.986   3.050 -0.1384  1.3039 -1.5996
  806HK4    C3967694   7.063   5.729   2.989  0.0964  0.1868  0.0854
  806HK4    C4167695   7.138   5.833   2.931 -0.1101  0.0572 -0.4169
  806HK4    H2167696   7.087   5.899   2.859  1.4397  2.3177  0.5069
  806HK4    C4267697   7.273   5.850   2.963 -0.0911  0.0311 -0.4862
  806HK4    H2267698   7.321   5.936   2.915 -1.0340  0.0984 -1.3236
  806HK4    C4367699   7.341   5.768   3.051 -0.3718  0.2414 -0.0684
  806HK4    H2367700   7.449   5.778   3.064 -0.1860  0.5693 -1.7791
  806HK4    C4467701   7.265   5.665   3.105 -0.1299  0.3288  0.4492
  806HK4    H2467702   7.316   5.600   3.177 -1.0381 -0.5474  0.3132
  806HK4    C4567703   7.131   5.641   3.075  0.1730 -0.2678 -0.4438
  806HK4    H2567704   7.085   5.545   3.104  0.3415 -0.3199 -0.3504
  807HK4    H2867705   0.199   0.826   8.311 -1.5636  0.3724  2.1312
  807HK4    C4867706   0.226   0.721   8.325 -0.3062  0.4502  0.4360
  807HK4    C4767707   0.352   0.685   8.372 -0.3068  0.0433  0.1277
  807HK4    H2767708   0.427   0.763   8.391 -0.1948 -0.0537  0.0826
  807HK4    C4667709   0.367   0.556   8.421  0.4687 -0.0570 -0.3578
  807HK4    H2667710   0.468   0.518   8.440 -0.0147 -1.1397  0.1070
  807HK4    C4067711   0.264   0.460   8.435  0.2617  0.1962 -0.1368
  807HK4    C5067712   0.140   0.500   8.381  0.4957  0.5374 -0.4270
  807HK4    H3067713   0.070   0.425   8.341 -1.5302  1.7785  0.6730
  807HK4    C4967714   0.124   0.627   8.326 -0.4873  0.6424  0.0756
  807HK4    H2967715   0.019   0.659   8.321 -0.3241  1.2919  0.7839
  807HK4     N267716   0.278   0.327   8.474 -0.3938  0.1537 -0.0359
  807HK4    C3067717   0.401   0.259   8.486 -0.3538  0.2046 -0.1525
  807HK4    C2967718   0.489   0.245   8.379 -0.4318 -0.2898 -0.1529
  807HK4    H1567719   0.458   0.296   8.288 -2.3519  0.1468  0.7124
  807HK4    C2867720   0.585   0.144   8.374 -0.7820 -0.6182 -0.3133
  807HK4    C2767721   0.597   0.063   8.489  0.6031  0.6558  0.4549
  807HK4    H1467722   0.677  11.236   8.487  0.0230  0.0360  0.4664
  807HK4    C3267723   0.518   0.082   8.602  0.3687 -0.1353  0.4236
  807HK4    H1667724   0.537   0.024   8.693  1.4832 -0.1077  0.2149
  807HK4    C3167725   0.410   0.169   8.600  0.6465  0.1967 -0.2321
  807HK4    C3467726   0.284   0.188   8.670  0.3963 -0.3521 -0.5356
  807HK4    C3367727   0.208   0.278   8.587 -0.2358 -0.6381 -0.2737
  807HK4    C3567728   0.074   0.294   8.617 -0.1359 -0.1346 -0.0893
  807HK4    H1767729   0.006   0.370   8.579  1.3825  1.7345  0.8273
  807HK4    C3667730   0.016   0.217   8.717 -0.2345 -0.2875 -0.2639
  807HK4    H1867731  11.165   0.247   8.752  0.8001  1.7796  0.9576
  807HK4    C3767732   0.092   0.128   8.793 -0.2160 -0.3786 -0.3917
  807HK4    H1967733   0.053   0.061   8.870  2.0691 -1.1485  0.1442
  807HK4    C3867734   0.229   0.115   8.775 -0.1329  0.3651 -0.3117
  807HK4    H2067735   0.294   0.069   8.849 -0.2216  1.4125  0.4198
  807HK4    C1467736   0.626   0.097   8.241  0.3421 -0.0225 -0.1842
  807HK4     C967737   0.638  11.211   8.204  0.1671 -0.1966  0.3832
  807HK4     C867738   0.725  11.181   8.097 -0.1864  0.0423  0.0246
  807HK4    C1167739   0.786   0.040   8.032  0.3712  0.0064  0.4853
  807HK4     H467740   0.854   0.011   7.950 -1.2080 -0.8765 -0.5354
  807HK4    C1267741   0.770   0.176   8.056 -0.9308 -0.1506  0.5312
  807HK4     H567742   0.818   0.261   8.007  0.3770 -0.7817  0.6970
  807HK4    C1367743   0.685   0.199   8.164 -0.4470  1.0790  0.6488
  807HK4     H667744   0.642   0.299   8.181 -1.0890  0.8792  0.2362
  807HK4     C767745   0.735  11.041   8.052 -0.3545  0.1567 -0.3665
  807HK4     O267746   0.812  11.012   7.960 -0.6833 -0.4680 -0.4490
  807HK4     C467747   0.659  10.930   8.114  0.6890 -0.3877 -0.0550
  807HK4     C367748   0.654  10.800   8.065 -0.3302 -0.1721 -0.5407
  807HK4     H367749   0.673  10.771   7.960 -1.5087 -2.7175 -0.0620
  807HK4     C267750   0.603  10.695   8.140  1.0326 -0.3475  0.1552
  807HK4     H267751   0.601  10.596   8.093  2.2846  0.1855 -1.0655
  807HK4     C167752   0.553  10.725   8.266 -0.5658 -0.1291 -0.5126
  807HK4     H167753   0.504  10.642   8.318 -2.1332  0.6046 -0.7893
  807HK4     C667754   0.555  10.855   8.322 -0.4576 -0.2254 -0.2860
  807HK4     C567755   0.599  10.958   8.238  0.4735 -0.4891 -0.1368
  807HK4    C1067756   0.562  11.100   8.269  0.1236 -0.5502 -0.2769
  807HK4     O167757   0.445  11.118   8.299  0.1240 -0.4240 -0.3479
  807HK4    C1667758   0.501  10.877   8.456 -0.3134  0.4204 -0.3334
  807HK4    C1567759   0.572  10.949   8.554 -0.0941 -0.0125 -0.1689
  807HK4     H767760   0.679  10.964   8.533  0.1931 -1.7850 -0.0692
  807HK4    C2067761   0.512  10.987   8.674  0.0938 -0.1443 -0.0337
  807HK4     H967762   0.575  11.042   8.743  1.0662 -1.3714  0.0834
  807HK4    C1967763   0.378  10.961   8.701  0.0497  0.1767  0.0534
  807HK4    C1867764   0.300  10.891   8.601 -0.0740 -0.2658  0.4610
  807HK4    C1767765   0.371  10.843   8.492 -0.0489  0.0774  0.3240
  807HK4     H867766   0.315  10.783   8.420 -0.1943  0.4169  0.1517
  807HK4     N167767   0.165  10.893   8.641 -0.0800 -0.3591  0.4420
  807HK4    C2167768   0.159  10.944   8.772 -0.0851  0.1826  0.2363
  807HK4    C2267769   0.292  10.980   8.816  0.0961 -0.4387  0.1858
  807HK4    C2667770   0.317  11.029   8.944  0.5547  0.0577 -0.0895
  807HK4    H1367771   0.417  11.038   8.987 -0.3710 -1.4666  2.4882
  807HK4    C2567772   0.207  11.048   9.026  0.2007 -0.8195 -0.3492
  807HK4    H1267773   0.215  11.072   9.132  0.7820 -0.3000 -0.5039
  807HK4    C2467774   0.077  11.018   8.987 -0.0744  0.1566 -0.1971
  807HK4    H1167775  11.243  11.055   9.050  0.6877  0.9701  0.3223
  807HK4    C2367776   0.053  10.967   8.860 -0.3249 -0.6070  0.1547
  807HK4    H1067777  11.204  10.935   8.823 -0.8006  0.9263  0.0185
  807HK4    C3967778   0.062  10.907   8.547  0.1734  0.0215  0.2245
  807HK4    C4167779  11.180  10.855   8.561  0.2054  0.0065  0.4612
  807HK4    H2167780  11.153  10.793   8.648  0.0053 -0.6157 -0.0416
  807HK4    C4267781  11.074  10.893   8.479 -0.1699  0.5467  1.2011
  807HK4    H2267782  10.973  10.851   8.492 -0.6141  1.0388 -0.6113
  807HK4    C4367783  11.100  10.978   8.373 -0.3234 -0.3951  0.4050
  807HK4    H2367784  11.020  11.003   8.303  0.7535  0.7031 -0.4646
  807HK4    C4467785  11.225  11.038   8.356 -0.3004 -0.3746  0.6645
  807HK4    H2467786   0.003  11.097   8.267 -2.7642  0.2170  0.2993
  807HK4    C4567787   0.078  11.005   8.446  0.1932  0.0747  0.2783
  807HK4    H2567788   0.171  11.064   8.445  0.5542 -0.4952 -1.5959
  808HK4    H2867789   2.262   3.365   0.434 -1.6503  0.2727 -1.4509
  808HK4    C4867790   2.176   3.381   0.499 -0.4790 -0.0833  0.2122
  808HK4    C4767791   2.172   3.303   0.614 -0.0802 -0.0007  0.2802
  808HK4    H2767792   2.247   3.222   0.613 -0.4634 -0.3501 -0.1324
  808HK4    C4667793   2.064   3.311   0.701 -0.0140  0.3189  0.3348
  808HK4    H2667794   2.076   3.259   0.797  0.1454 -2.4890 -1.1462
  808HK4    C4067795   1.949   3.385   0.666  0.1883  0.6313  0.3345
  808HK4    C5067796   1.957   3.460   0.547 -0.1174  0.2994  0.1085
  808HK4    H3067797   1.864   3.506   0.510  0.3215  0.3756 -0.9300
  808HK4    C4967798   2.067   3.458   0.461 -0.1189  0.3734  0.1049
  808HK4    H2967799   2.079   3.532   0.380  0.5827  0.3664  0.2028
  808HK4     N267800   1.824   3.364   0.725  0.0002  0.2993 -0.1860
  808HK4    C3067801   1.778   3.246   0.785  0.4103  0.2137 -0.0393
  808HK4    C2967802   1.820   3.114   0.791  0.4956  0.2826  1.0160
  808HK4    H1567803   1.912   3.083   0.742 -0.6198  1.2437 -1.7430
  808HK4    C2867804   1.749   3.011   0.854  0.2801 -0.1309  0.1077
  808HK4    C2767805   1.620   3.038   0.904  0.0996 -0.2807 -0.2800
  808HK4    H1467806   1.559   2.957   0.946 -1.0049  0.5133 -0.3353
  808HK4    C3267807   1.570   3.167   0.901  0.2620 -0.2088  0.0702
  808HK4    H1667808   1.476   3.198   0.948  2.0123  0.8362  2.9814
  808HK4    C3167809   1.647   3.268   0.844  0.3449 -0.3054  0.0113
  808HK4    C3467810   1.614   3.406   0.815  0.0666 -0.3213  0.2395
  808HK4    C3367811   1.728   3.465   0.746 -0.2991 -0.0047 -0.0940
  808HK4    C3567812   1.733   3.604   0.734 -0.2100  0.0224  0.2532
  808HK4    H1767813   1.822   3.645   0.687 -0.9450  0.7005 -0.5516
  808HK4    C3667814   1.638   3.685   0.794 -0.3537 -0.0783  0.1615
  808HK4    H1867815   1.651   3.794   0.793 -0.2181 -0.0994 -0.9410
  808HK4    C3767816   1.526   3.630   0.856 -0.3239  0.1225  0.3929
  808HK4    H1967817   1.440   3.694   0.877 -0.1902  0.9304 -1.4348
  808HK4    C3867818   1.516   3.492   0.863  0.1593  0.0548 -0.2288
  808HK4    H2067819   1.418   3.447   0.879  0.8716 -1.1057  1.0035
  808HK4    C1467820   1.796   2.872   0.853 -0.1041 -0.2611  0.1634
  808HK4     C967821   1.715   2.758   0.847 -0.3806 -0.0845  0.5319
  808HK4     C867822   1.749   2.648   0.930  0.2302  0.2433  0.7199
  808HK4    C1167823   1.870   2.649   0.999  0.7240 -0.8085 -0.1232
  808HK4     H467824   1.892   2.565   1.066  0.1203 -1.2214 -0.4378
  808HK4    C1267825   1.958   2.757   1.002  0.2777 -0.4495  0.0130
  808HK4     H567826   2.055   2.751   1.053  1.3204  0.6420 -1.8221
  808HK4    C1367827   1.913   2.868   0.931 -0.2012 -0.4585  0.2988
  808HK4     H667828   1.976   2.958   0.937 -1.8864  0.7942 -0.3379
  808HK4     C767829   1.644   2.547   0.951 -0.2244  0.5542 -0.0450
  808HK4     O267830   1.630   2.499   1.063  0.4375  0.2616 -0.0840
  808HK4     C467831   1.532   2.536   0.855 -0.1237  0.2270 -0.1253
  808HK4     C367832   1.443   2.430   0.868  0.2567 -0.0758  0.0010
  808HK4     H367833   1.438   2.381   0.967  0.8939  0.8069  0.4729
  808HK4     C267834   1.370   2.378   0.762 -0.2826  0.5861  0.0468
  808HK4     H267835   1.309   2.287   0.776  0.2333  0.5539  2.3446
  808HK4     C167836   1.400   2.431   0.637  0.0520  0.1816 -0.0474
  808HK4     H167837   1.375   2.372   0.548 -0.1118 -1.0399  0.7872
  808HK4     C667838   1.480   2.546   0.621  0.3096 -0.0190 -0.1851
  808HK4     C567839   1.536   2.607   0.733  0.0171  0.1789 -0.1490
  808HK4    C1067840   1.616   2.733   0.739 -0.4451  0.4482  0.4682
  808HK4     O167841   1.589   2.820   0.657  0.2915 -0.0687 -0.3364
  808HK4    C1667842   1.489   2.600   0.485  0.0948 -0.6072 -0.4375
  808HK4    C1567843   1.401   2.575   0.377 -0.6648  0.8102 -0.1587
  808HK4     H767844   1.293   2.590   0.392 -0.4731  1.2075  0.9145
  808HK4    C2067845   1.437   2.570   0.243 -0.2626  0.0579 -0.0264
  808HK4     H967846   1.352   2.562   0.175 -0.2486 -0.1026 -0.0247
  808HK4    C1967847   1.568   2.592   0.203 -0.2903  0.0289 -0.1324
  808HK4    C1867848   1.663   2.627   0.307 -0.0267  0.2131 -0.4318
  808HK4    C1767849   1.618   2.626   0.439 -0.0044 -0.0822 -0.4273
  808HK4     H867850   1.701   2.653   0.504  1.4943 -1.4491 -1.7159
  808HK4     N167851   1.782   2.678   0.252  0.1608  0.4233  0.1624
  808HK4    C2167852   1.769   2.661   0.112 -0.1722  0.0235  0.2411
  808HK4    C2267853   1.639   2.608   0.077  0.0655 -0.4129  0.0097
  808HK4    C2667854   1.624   2.535  11.208 -0.6881 -0.3364  0.0550
  808HK4    H1367855   1.534   2.478  11.186 -0.6817 -0.2302 -0.2601
  808HK4    C2567856   1.728   2.529  11.116 -0.3070 -0.0120  0.4616
  808HK4    H1267857   1.711   2.475  11.022  0.0343  2.2912 -0.9697
  808HK4    C2467858   1.851   2.587  11.144 -0.3559  0.3495 -0.0538
  808HK4    H1167859   1.926   2.591  11.064  1.1882 -1.1746  1.2644
  808HK4    C2367860   1.872   2.647   0.020 -0.1778 -0.4565  0.3083
  808HK4    H1067861   1.974   2.671   0.052 -0.1404 -0.0662 -0.1024
  808HK4    C3967862   1.858   2.777   0.314  0.7378 -0.2373  0.5234
  808HK4    C4167863   1.996   2.792   0.286  0.5975 -0.2954 -0.1951
  808HK4    H2167864   2.056   2.709   0.246 -2.4344 -3.5445  1.6703
  808HK4    C4267865   2.059   2.913   0.313  0.3191 -0.1958  0.0105
  808HK4    H2267866   2.165   2.925   0.285  0.8681  1.0653  2.4261
  808HK4    C4367867   1.993   3.022   0.368 -0.1137 -0.2827 -0.3358
  808HK4    H2367868   2.048   3.115   0.383 -1.3329  0.5806 -1.0323
  808HK4    C4467869   1.857   3.008   0.397 -0.3411  0.7628 -0.8776
  808HK4    H2467870   1.814   3.094   0.451  0.5335 -0.8541  2.5353
  808HK4    C4567871   1.793   2.888   0.372  0.3766  0.4285 -1.1420
  808HK4    H2567872   1.686   2.881   0.399  0.7602 -0.8711  0.0594
  809HK4    H2867873   4.891   5.314   5.223 -0.1040  0.6978  0.6199
  809HK4    C4867874   4.869   5.406   5.168  0.1398  0.5675  0.3012
  809HK4    C4767875   4.971   5.498   5.150  0.5120  0.1971  0.5245
  809HK4    H2767876   5.068   5.450   5.128 -0.4697 -1.8275  0.5424
  809HK4    C4667877   4.956   5.634   5.126 -0.1242 -0.0131 -0.2884
  809HK4    H2667878   5.044   5.699   5.118  1.5219 -2.1874 -0.2839
  809HK4    C4067879   4.826   5.689   5.132 -0.2447 -0.4281  0.9229
  809HK4    C5067880   4.724   5.592   5.141 -0.1869 -0.5884 -0.1837
  809HK4    H3067881   4.619   5.615   5.121 -0.3013  0.7133  1.7870
  809HK4    C4967882   4.739   5.455   5.159 -0.2781 -0.5495  0.1897
  809HK4    H2967883   4.645   5.400   5.175  0.2590 -1.6183 -0.2751
  809HK4     N267884   4.792   5.823   5.111 -0.1841 -0.6000 -0.2838
  809HK4    C3067885   4.874   5.920   5.049  0.1548 -0.3011  0.6353
  809HK4    C2967886   4.966   5.906   4.945 -0.5586 -0.6702  0.0443
  809HK4    H1567887   5.006   5.808   4.920  0.4557 -0.3553  0.3934
  809HK4    C2867888   5.028   6.019   4.893  0.0494 -0.6812  0.7312
  809HK4    C2767889   4.992   6.148   4.936 -0.8611 -0.4346 -0.7255
  809HK4    H1467890   5.034   6.239   4.891 -0.3198 -0.5894 -0.5360
  809HK4    C3267891   4.898   6.163   5.038  0.1615 -0.0548  0.1659
  809HK4    H1667892   4.879   6.265   5.070  2.6690 -0.2232  2.3598
  809HK4    C3167893   4.836   6.052   5.095  0.1923 -0.1054  0.0983
  809HK4    C3467894   4.729   6.028   5.190  0.1384 -0.2011  0.0163
  809HK4    C3367895   4.700   5.886   5.196  0.0812 -0.2021 -0.2896
  809HK4    C3567896   4.574   5.849   5.241  0.1648 -0.5615 -0.3502
  809HK4    H1767897   4.549   5.743   5.250  0.8013 -0.6205  0.8998
  809HK4    C3667898   4.482   5.943   5.288  0.8114 -0.0122 -0.1799
  809HK4    H1867899   4.392   5.911   5.341  0.0163 -0.7653 -1.9431
  809HK4    C3767900   4.516   6.078   5.287  0.1458  0.1567  0.2538
  809HK4    H1967901   4.439   6.152   5.310 -0.6438 -0.6923  0.3961
  809HK4    C3867902   4.641   6.120   5.245  0.1813 -0.1705  0.0323
  809HK4    H2067903   4.679   6.218   5.276 -1.9649 -0.0680  2.5545
  809HK4    C1467904   5.150   6.005   4.813 -0.0514 -0.1517  0.4800
  809HK4     C967905   5.249   6.104   4.820 -0.7055  0.5260  0.2634
  809HK4     C867906   5.303   6.157   4.702  0.2242 -0.2545  0.3374
  809HK4    C1167907   5.274   6.094   4.581  0.3732  0.4598 -0.0694
  809HK4     H467908   5.304   6.137   4.484  1.1412  0.3501  0.1191
  809HK4    C1267909   5.188   5.985   4.578  0.3963  0.4256  0.5248
  809HK4     H567910   5.170   5.929   4.485 -0.8223  0.6306  0.6392
  809HK4    C1367911   5.124   5.937   4.692  0.2563  0.0610  0.2926
  809HK4     H667912   5.061   5.847   4.692 -1.4308  1.0972 -3.6465
  809HK4     C767913   5.421   6.246   4.700  0.3005 -0.3596 -0.0087
  809HK4     O267914   5.438   6.322   4.605  0.0558 -0.2246  0.0559
  809HK4     C467915   5.497   6.261   4.827  0.1108  0.1865  0.0390
  809HK4     C367916   5.625   6.313   4.815  0.1933 -0.0017  0.1128
  809HK4     H367917   5.659   6.342   4.715 -0.2447  1.2465  0.3053
  809HK4     C267918   5.720   6.312   4.917 -0.1517  0.3047  0.4399
  809HK4     H267919   5.826   6.337   4.904 -0.3833  2.0949  1.7679
  809HK4     C167920   5.671   6.263   5.038 -0.1079 -0.1627  0.2682
  809HK4     H167921   5.727   6.293   5.128 -1.5184  3.1600  0.1356
  809HK4     C667922   5.541   6.214   5.055 -0.0944 -0.2707  0.0524
  809HK4     C567923   5.450   6.208   4.948  0.0537 -0.0530 -0.0868
  809HK4    C1067924   5.321   6.132   4.948  0.5050 -0.8232 -0.1133
  809HK4     O167925   5.259   6.119   5.053  0.2726  0.0514 -0.1373
  809HK4    C1667926   5.492   6.219   5.194 -0.1972  0.3141 -0.0049
  809HK4    C1567927   5.541   6.318   5.281  0.2054 -0.0640  0.1998
  809HK4     H767928   5.531   6.423   5.247 -0.2992 -0.2939 -0.3633
  809HK4    C2067929   5.578   6.299   5.414 -0.1441 -0.1663  0.2818
  809HK4     H967930   5.610   6.382   5.476  0.3779  0.1369 -0.3849
  809HK4    C1967931   5.561   6.175   5.474 -0.3841 -0.2229  0.0994
  809HK4    C1867932   5.488   6.078   5.395  0.0590 -0.4168 -0.0655
  809HK4    C1767933   5.469   6.099   5.259  0.6660  0.1060 -0.0748
  809HK4     H867934   5.460   6.007   5.200 -0.2144  0.2230 -0.1276
  809HK4     N167935   5.457   5.964   5.472 -0.3892 -0.0008  0.3689
  809HK4    C2167936   5.530   5.981   5.592  0.3583 -0.1594 -0.0589
  809HK4    C2267937   5.578   6.117   5.605 -0.6322  0.1564  0.2995
  809HK4    C2667938   5.664   6.138   5.712  0.5016 -1.0728 -0.3610
  809HK4    H1367939   5.683   6.238   5.750 -1.1012 -0.6706 -0.5833
  809HK4    C2567940   5.710   6.042   5.802 -0.2424 -0.5144  0.6288
  809HK4    H1267941   5.784   6.067   5.877 -1.8439  1.6966  1.4962
  809HK4    C2467942   5.664   5.912   5.785  0.1193 -0.5351 -0.2512
  809HK4    H1167943   5.695   5.832   5.854 -1.0595  0.9903  2.1125
  809HK4    C2367944   5.575   5.885   5.681 -0.0673 -0.4233 -0.1211
  809HK4    H1067945   5.538   5.783   5.676  1.2100 -0.8906 -0.4491
  809HK4    C3967946   5.331   5.906   5.451 -0.1498 -0.3151 -0.2110
  809HK4    C4167947   5.304   5.779   5.508 -0.0774  0.3772  1.3997
  809HK4    H2167948   5.375   5.746   5.584 -0.1201 -0.9764  0.8663
  809HK4    C4267949   5.184   5.714   5.479  0.6142  0.0637 -0.8646
  809HK4    H2267950   5.187   5.604   5.488 -0.5166  0.0682 -0.4674
  809HK4    C4367951   5.077   5.774   5.415  0.1599 -0.1818 -0.3375
  809HK4    H2367952   4.983   5.724   5.390 -1.4335  1.0771  2.8815
  809HK4    C4467953   5.100   5.902   5.365 -0.0732 -0.0890 -0.2140
  809HK4    H2467954   5.020   5.947   5.306 -0.5827 -0.9978 -0.2352
  809HK4    C4567955   5.222   5.965   5.385 -0.1748  0.0014  0.1113
  809HK4    H2567956   5.235   6.065   5.340 -0.6814  0.0135 -0.0064
  810HK4    H2867957   1.404   8.167   9.058  0.3193 -0.0580  0.8791
  810HK4    C4867958   1.343   8.082   9.027  0.3440 -0.0060  0.6854
  810HK4    C4767959   1.354   8.031   8.898 -0.3611 -0.0391  0.6371
  810HK4    H2767960   1.436   8.071   8.837  1.4254 -1.8753  1.7824
  810HK4    C4667961   1.270   7.931   8.850  0.1419 -0.1252 -0.0691
  810HK4    H2667962   1.272   7.906   8.743  1.6707  0.1615 -0.1151
  810HK4    C4067963   1.178   7.865   8.934 -0.1155 -0.1322 -0.3564
  810HK4    C5067964   1.175   7.916   9.065  0.0772 -0.0259 -0.3927
  810HK4    H3067965   1.115   7.861   9.139  0.3407 -0.5128 -0.5435
  810HK4    C4967966   1.250   8.023   9.112 -0.0333 -0.1877  0.1531
  810HK4    H2967967   1.223   8.057   9.214 -2.7885 -2.5278  0.2539
  810HK4     N267968   1.074   7.782   8.891 -0.3501  0.1719 -0.3782
  810HK4    C3067969   1.015   7.782   8.763 -0.8288  0.1507 -0.1539
  810HK4    C2967970   1.007   7.885   8.670 -0.1768  0.3145 -0.0260
  810HK4    H1567971   1.057   7.975   8.705 -0.7326 -0.6090  3.3128
  810HK4    C2867972   0.959   7.866   8.541  0.2872 -0.0710 -0.1470
  810HK4    C2767973   0.914   7.734   8.514  0.1533  0.0939 -0.7372
  810HK4    H1467974   0.879   7.711   8.413 -1.7238  0.4265 -0.1878
  810HK4    C3267975   0.922   7.628   8.603  0.6835  0.7205 -0.0287
  810HK4    H1667976   0.880   7.533   8.572  1.3754  0.4455 -0.1324
  810HK4    C3167977   0.972   7.647   8.731 -0.5238 -0.1169  0.5812
  810HK4    C3467978   0.999   7.562   8.846  0.1878 -0.1059  0.4245
  810HK4    C3367979   1.069   7.649   8.938 -0.3001  0.4109  0.3039
  810HK4    C3567980   1.104   7.604   9.065  0.2562  0.1167  0.0480
  810HK4    H1767981   1.159   7.672   9.129 -1.9649  1.2486  0.8137
  810HK4    C3667982   1.068   7.477   9.107  0.0915  0.0045 -0.4291
  810HK4    H1867983   1.103   7.440   9.205 -0.5544  0.8800  0.1320
  810HK4    C3767984   0.993   7.394   9.024  0.0776 -0.1555 -0.2563
  810HK4    H1967985   0.941   7.308   9.067 -1.6148  1.2251  0.4930
  810HK4    C3867986   0.962   7.437   8.896 -0.4799 -0.1285 -0.1138
  810HK4    H2067987   0.886   7.382   8.840 -0.2387  0.4453 -1.0086
  810HK4    C1467988   0.932   7.974   8.446  0.1605 -0.2578 -0.3233
  810HK4     C967989   0.829   7.977   8.351  0.3942 -0.5926 -0.5860
  810HK4     C867990   0.853   8.039   8.226  0.2809 -0.3590 -0.4923
  810HK4    C1167991   0.968   8.109   8.194  0.1530 -0.1364 -0.4679
  810HK4     H467992   0.994   8.127   8.089  2.1524 -2.5963 -0.4759
  810HK4    C1267993   1.065   8.115   8.293  0.5502 -0.0418 -0.8619
  810HK4     H567994   1.145   8.189   8.275  1.8202 -1.7361 -2.3391
  810HK4    C1367995   1.046   8.051   8.415 -0.3362  0.2798 -0.8299
  810HK4     H667996   1.125   8.052   8.491  1.8450 -0.6171 -3.0299
  810HK4     C767997   0.747   8.033   8.122 -0.5788  0.8274  0.3032
  810HK4     O267998   0.759   8.110   8.027 -0.1652 -0.2706 -0.5396
  810HK4     C467999   0.617   7.968   8.151 -0.2253 -0.0382 -0.0316
  810HK4     C368000   0.520   7.967   8.051 -0.3502  0.1375  0.0847
  810HK4     H368001   0.535   8.000   7.947  0.4669  2.0669  0.7950
  810HK4     C268002   0.397   7.905   8.069  0.0180 -0.7732 -0.4551
  810HK4     H268003   0.322   7.898   7.989 -2.5330 -2.5137  2.0244
  810HK4     C168004   0.377   7.846   8.193 -0.1558 -0.1252 -0.1704
  810HK4     H168005   0.278   7.801   8.209  0.4680 -0.9952  1.4165
  810HK4     C668006   0.470   7.837   8.299 -0.3565  0.0140  0.0172
  810HK4     C568007   0.587   7.910   8.276 -0.4967  0.2447  0.0329
  810HK4    C1068008   0.691   7.929   8.381 -0.2100  1.2098 -0.4147
  810HK4     O168009   0.646   7.947   8.494 -0.0381  0.2369 -0.1844
  810HK4    C1668010   0.477   7.707   8.365  0.6158  0.0312 -0.0408
  810HK4    C1568011   0.462   7.585   8.295 -0.1378  0.1755 -0.1309
  810HK4     H768012   0.462   7.591   8.185 -3.9923 -2.9688 -0.4148
  810HK4    C2068013   0.437   7.463   8.356 -0.0925  0.1245 -0.2146
  810HK4     H968014   0.420   7.383   8.284  2.0240  0.1079 -0.7295
  810HK4    C1968015   0.453   7.449   8.493  0.7837  0.2098 -0.3072
  810HK4    C1868016   0.478   7.569   8.570  0.7502  0.2289 -0.3263
  810HK4    C1768017   0.485   7.691   8.503  0.4204  0.4375  0.0153
  810HK4     H868018   0.475   7.780   8.565  0.7620 -0.5676  1.5271
  810HK4     N168019   0.505   7.540   8.705 -0.0636  0.0311 -0.2001
  810HK4    C2168020   0.527   7.401   8.705 -0.7137 -0.0706  0.0518
  810HK4    C2268021   0.481   7.338   8.583 -0.3626  0.0495 -0.1415
  810HK4    C2668022   0.505   7.202   8.564  0.0959  0.0658  0.3307
  810HK4    H1368023   0.451   7.154   8.482  0.1906  0.1037  0.2461
  810HK4    C2568024   0.581   7.127   8.653 -0.4423  0.0417  0.7673
  810HK4    H1268025   0.583   7.018   8.646 -1.1767  0.0240  0.7394
  810HK4    C2468026   0.632   7.193   8.764  0.4112  0.2468  0.2562
  810HK4    H1168027   0.711   7.146   8.824  0.5828  0.2376  0.0239
  810HK4    C2368028   0.607   7.327   8.791  0.1271  0.3259 -0.3871
  810HK4    H1068029   0.635   7.379   8.883 -0.9713  1.6434 -0.7809
  810HK4    C3968030   0.536   7.634   8.805 -0.8136  0.5028 -0.4110
  810HK4    C4168031   0.514   7.603   8.940  0.9254 -0.2828 -0.2912
  810HK4    H2168032   0.429   7.535   8.961  1.5942 -0.1641  3.1562
  810HK4    C4268033   0.585   7.660   9.045  0.1651 -0.1785  0.1777
  810HK4    H2268034   0.591   7.612   9.144 -0.2939 -0.6687 -0.0308
  810HK4    C4368035   0.683   7.754   9.014  0.5581 -0.7622 -0.3706
  810HK4    H2368036   0.752   7.803   9.082 -0.0450  0.6192 -0.7425
  810HK4    C4468037   0.703   7.789   8.881  0.6831 -0.3232 -0.2347
  810HK4    H2468038   0.764   7.879   8.861  1.3220 -1.0026 -1.4196
  810HK4    C4568039   0.629   7.736   8.776 -0.7406  0.6290  0.2773
  810HK4    H2568040   0.629   7.784   8.677  0.5139 -0.7802 -0.4238
  811HK4    H2868041   0.930   4.808   5.927  2.1042  2.5459  1.4772
  811HK4    C4868042   0.946   4.754   6.020 -0.4072 -0.2999  0.3584
  811HK4    C4768043   0.854   4.754   6.125 -0.5684 -0.3243  0.2183
  811HK4    H2768044   0.748   4.779   6.111  0.0487  1.6895 -1.1947
  811HK4    C4668045   0.896   4.708   6.249  0.1222 -0.3699 -0.0244
  811HK4    H2668046   0.826   4.722   6.333 -0.2303  0.3482 -0.4309
  811HK4    C4068047   1.025   4.655   6.267  0.5711  0.5257 -0.5750
  811HK4    C5068048   1.113   4.641   6.158  0.4637  0.4498 -0.6514
  811HK4    H3068049   1.205   4.579   6.164 -0.3170 -0.6222  0.5313
  811HK4    C4968050   1.072   4.699   6.039  0.0504  0.4471 -0.5133
  811HK4    H2968051   1.148   4.709   5.960 -0.7138  1.9830 -1.0716
  811HK4     N268052   1.073   4.619   6.393 -0.5976 -0.1405 -0.3125
  811HK4    C3068053   1.035   4.685   6.511 -0.6372 -0.3775 -0.1908
  811HK4    C2968054   1.016   4.823   6.522  1.2884 -0.1081 -0.0015
  811HK4    H1568055   1.009   4.885   6.433 -0.5608 -2.5373 -1.6429
  811HK4    C2868056   1.008   4.882   6.648  0.0707  0.0432 -0.1417
  811HK4    C2768057   1.008   4.794   6.758  0.4974  0.3779  0.1269
  811HK4    H1468058   0.992   4.828   6.861  0.2926  0.3460  0.1055
  811HK4    C3268059   1.029   4.657   6.749  1.0276  0.4807 -0.2213
  811HK4    H1668060   1.035   4.596   6.839 -1.6399 -0.0277 -0.3726
  811HK4    C3168061   1.053   4.598   6.626 -0.5818 -0.3186 -0.1542
  811HK4    C3468062   1.106   4.475   6.571  0.7133  0.2952 -0.2811
  811HK4    C3368063   1.114   4.488   6.427  0.3194  0.1386 -0.3188
  811HK4    C3568064   1.187   4.391   6.360  0.2313 -0.1391 -0.0108
  811HK4    H1768065   1.197   4.392   6.251  3.0785 -0.2661  0.2292
  811HK4    C3668066   1.243   4.281   6.424 -0.4152 -0.2945  0.2932
  811HK4    H1868067   1.296   4.198   6.376  1.2407 -1.0243  3.2668
  811HK4    C3768068   1.228   4.267   6.562  0.9319 -0.0162  0.4716
  811HK4    H1968069   1.273   4.179   6.606  3.2295  0.3588 -0.9990
  811HK4    C3868070   1.161   4.364   6.635 -0.2709 -0.2279 -0.3376
  811HK4    H2068071   1.157   4.361   6.744 -0.0329 -0.2634 -0.3301
  811HK4    C1468072   1.046   5.023   6.665  0.3558 -0.0617  0.1154
  811HK4     C968073   1.127   5.078   6.765  0.0986 -0.0843  0.3347
  811HK4     C868074   1.135   5.216   6.791 -0.4053  0.0359 -0.1364
  811HK4    C1168075   1.054   5.301   6.715  0.2737  0.4651 -0.3841
  811HK4     H468076   1.043   5.408   6.736  1.1329  0.4877 -0.0089
  811HK4    C1268077   0.986   5.251   6.605 -0.1228 -0.3358  0.2205
  811HK4     H568078   0.948   5.322   6.530 -1.8473  1.5096  2.7760
  811HK4    C1368079   0.981   5.114   6.579  0.5911 -0.2689 -0.2821
  811HK4     H668080   0.896   5.080   6.519  0.5902 -1.3323  0.3303
  811HK4     C768081   1.192   5.269   6.917  0.1427 -0.1799 -0.2940
  811HK4     O268082   1.220   5.388   6.927 -0.5585 -0.0414  0.0429
  811HK4     C468083   1.234   5.171   7.020 -0.1856 -0.2566 -0.2351
  811HK4     C368084   1.263   5.216   7.148 -0.3488 -0.2601 -0.1948
  811HK4     H368085   1.231   5.316   7.177 -0.6648  0.1519 -1.9098
  811HK4     C268086   1.314   5.127   7.242 -0.0790  0.0971 -0.0015
  811HK4     H268087   1.369   5.160   7.331  1.5924 -0.3798 -0.8354
  811HK4     C168088   1.319   4.990   7.215  1.0525  0.1618 -0.1264
  811HK4     H168089   1.319   4.911   7.290 -0.0156  0.4373  0.1672
  811HK4     C668090   1.291   4.945   7.084 -0.1820 -0.0964  0.2249
  811HK4     C568091   1.255   5.036   6.984  0.5083 -0.1830 -0.1079
  811HK4    C1068092   1.219   4.994   6.846 -0.1251 -0.5046  0.1534
  811HK4     O168093   1.307   4.934   6.785 -0.2286 -0.1651 -0.3324
  811HK4    C1668094   1.271   4.800   7.075  0.2632 -0.1426 -0.0655
  811HK4    C1568095   1.190   4.731   7.168  0.3322 -0.3470 -0.1567
  811HK4     H768096   1.121   4.781   7.237 -0.0543 -0.7708 -0.2349
  811HK4    C2068097   1.189   4.593   7.183 -0.8635 -0.3445 -0.1415
  811HK4     H968098   1.155   4.549   7.276 -0.2756 -1.1821 -0.3092
  811HK4    C1968099   1.264   4.513   7.097 -0.2687 -0.1288  0.1716
  811HK4    C1868100   1.345   4.577   6.995  0.1027 -0.2779  0.3745
  811HK4    C1768101   1.346   4.716   6.993  0.3236 -0.2808  0.1321
  811HK4     H868102   1.442   4.755   6.959  0.5412 -0.4514  0.5385
  811HK4     N168103   1.409   4.482   6.913  0.0818 -0.1107  0.1640
  811HK4    C2168104   1.378   4.355   6.968  0.1585  0.0482  0.5807
  811HK4    C2268105   1.287   4.371   7.080  0.1167 -0.1146  0.5701
  811HK4    C2668106   1.238   4.260   7.148 -0.2471 -0.3084 -0.0017
  811HK4    H1368107   1.160   4.269   7.223  0.2574  1.0206  0.3876
  811HK4    C2568108   1.285   4.132   7.120  0.5757 -0.0456  0.1723
  811HK4    H1268109   1.272   4.060   7.200 -0.9493  1.3510  1.2211
  811HK4    C2468110   1.376   4.117   7.016  0.1294 -0.3956 -0.1650
  811HK4    H1168111   1.420   4.019   6.990  1.5290 -0.0569  0.8806
  811HK4    C2368112   1.410   4.224   6.935  0.5963  0.1227  0.7109
  811HK4    H1068113   1.484   4.218   6.855  1.0798  0.7410  1.1064
  811HK4    C3968114   1.456   4.507   6.784  0.1541 -0.2903  0.1553
  811HK4    C4168115   1.552   4.422   6.725 -0.2209 -0.1950 -0.6052
  811HK4    H2168116   1.627   4.381   6.795 -2.0504 -0.1172  1.4495
  811HK4    C4268117   1.586   4.435   6.591 -0.2044 -0.2009 -0.6015
  811HK4    H2268118   1.679   4.403   6.543  0.7278 -1.2891  1.8595
  811HK4    C4368119   1.520   4.534   6.519  0.1379 -0.1163 -0.7980
  811HK4    H2368120   1.527   4.536   6.410  0.9823 -0.2980 -0.7478
  811HK4    C4468121   1.427   4.622   6.574  1.2465  0.4801  0.1333
  811HK4    H2468122   1.373   4.704   6.524  0.5718 -1.1976 -1.9828
  811HK4    C4568123   1.393   4.608   6.708 -0.0988 -0.8105 -0.3334
  811HK4    H2568124   1.299   4.657   6.738  0.2625 -0.3378  0.0404
  812HK4    H2868125   3.046  10.495   2.726  1.4956  0.2339 -0.4407
  812HK4    C4868126   3.016  10.581   2.666  0.4654 -0.1048 -0.4150
  812HK4    C4768127   3.068  10.707   2.694  0.7311 -0.2669 -0.1808
  812HK4    H2768128   3.167  10.715   2.742  0.5821  0.3414  0.0386
  812HK4    C4668129   2.992  10.817   2.653 -0.2391 -0.7612  0.2805
  812HK4    H2668130   3.038  10.916   2.664 -1.4458 -0.3858  2.3334
  812HK4    C4068131   2.880  10.811   2.568 -0.2191 -0.0011  0.1986
  812HK4    C5068132   2.830  10.683   2.537  0.2150 -0.0727 -0.2299
  812HK4    H3068133   2.747  10.668   2.467  1.0879 -0.8261 -1.1034
  812HK4    C4968134   2.898  10.575   2.593  0.4105 -0.0034 -0.3355
  812HK4    H2968135   2.844  10.480   2.579  0.8998 -0.0095 -2.2677
  812HK4     N268136   2.796  10.919   2.542 -0.2286 -0.0056  0.2205
  812HK4    C3068137   2.787  11.028   2.631  0.2660  0.0501  0.2053
  812HK4    C2968138   2.794  11.030   2.770 -0.2285 -0.2131  0.2349
  812HK4    H1568139   2.841  10.952   2.829 -1.9273 -1.1434  0.4002
  812HK4    C2868140   2.753  11.140   2.843  0.7605  0.3059  0.0221
  812HK4    C2768141   2.721   0.008   2.769  0.0563  0.0186 -0.1263
  812HK4    H1468142   2.701   0.099   2.827 -2.2472  0.3020 -1.2730
  812HK4    C3268143   2.720   0.013   2.630  0.4906 -0.0070 -0.1305
  812HK4    H1668144   2.690   0.106   2.580 -0.0813 -0.2104 -0.1732
  812HK4    C3168145   2.745  11.146   2.557  0.0757 -0.1631 -0.0253
  812HK4    C3468146   2.738  11.104   2.418 -0.6648 -0.2850  0.0429
  812HK4    C3368147   2.767  10.962   2.410  0.5642 -0.0354  0.0366
  812HK4    C3568148   2.771  10.900   2.286 -0.6401 -0.4697  0.2080
  812HK4    H1768149   2.774  10.791   2.283  0.4506 -0.4096 -1.3596
  812HK4    C3668150   2.760  10.974   2.170  0.2019  0.0151  0.4364
  812HK4    H1868151   2.768  10.926   2.071 -0.1426  2.4407 -0.8046
  812HK4    C3768152   2.743  11.112   2.176  0.7535  0.1074 -0.0058
  812HK4    H1968153   2.740  11.168   2.082  0.9164  0.7334  0.3603
  812HK4    C3868154   2.729  11.175   2.299 -0.4643 -0.2582  0.0440
  812HK4    H2068155   2.710   0.034   2.300  0.6579 -0.0371 -1.2478
  812HK4    C1468156   2.701  11.133   2.981  0.5622 -0.0612 -0.0699
  812HK4     C968157   2.601  11.217   3.031  0.1030 -0.6587  0.0178
  812HK4     C868158   2.604   0.022   3.162 -0.3587 -0.1805 -0.1613
  812HK4    C1168159   2.703  11.211   3.240  0.7304  0.9686 -0.6635
  812HK4     H468160   2.703  11.231   3.348  1.1148 -2.1574 -0.0403
  812HK4    C1268161   2.800  11.119   3.202  0.3554  0.2245  0.1561
  812HK4     H568162   2.852  11.055   3.274  1.5663 -0.4557 -1.2966
  812HK4    C1368163   2.799  11.081   3.068 -0.1658 -0.6435  0.4052
  812HK4     H668164   2.884  11.022   3.033 -0.1259  1.3054 -2.9370
  812HK4     C768165   2.508   0.129   3.194 -0.4745 -0.4505  0.3970
  812HK4     O268166   2.521   0.192   3.299 -0.2270  0.2877 -0.0715
  812HK4     C468167   2.404   0.162   3.094 -0.6629 -0.1271  0.6992
  812HK4     C368168   2.323   0.273   3.118 -0.4578  0.1990 -0.0871
  812HK4     H368169   2.330   0.321   3.217 -0.0243 -1.0204  0.4903
  812HK4     C268170   2.237   0.330   3.025 -0.3260  0.4353 -0.0655
  812HK4     H268171   2.175   0.420   3.039 -0.7379  0.2327 -0.5708
  812HK4     C168172   2.232   0.273   2.898  0.9788  0.3901 -0.0986
  812HK4     H168173   2.172   0.321   2.820  1.0523  1.4205  0.4764
  812HK4     C668174   2.319   0.167   2.863  0.6150  0.0740 -0.0530
  812HK4     C568175   2.396   0.108   2.964  0.0550  0.2638  0.4891
  812HK4    C1068176   2.485  11.239   2.940 -0.3406 -0.0819  0.7151
  812HK4     O168177   2.432  11.137   2.894 -0.4326  0.2512  0.0759
  812HK4    C1668178   2.367   0.173   2.724  0.4912 -0.4527 -0.1197
  812HK4    C1568179   2.411   0.293   2.664 -0.4790 -0.1765 -0.2917
  812HK4     H768180   2.396   0.383   2.725  1.6637  0.1163 -0.1844
  812HK4    C2068181   2.438   0.305   2.528  0.5136  0.3459 -0.0513
  812HK4     H968182   2.472   0.397   2.481 -0.8405  1.0365  0.2731
  812HK4    C1968183   2.416   0.195   2.446  0.2446  0.3962 -0.0496
  812HK4    C1868184   2.371   0.069   2.501 -0.6279  0.3857 -0.7819
  812HK4    C1768185   2.342   0.068   2.637  0.5411 -0.1298 -0.5278
  812HK4     H868186   2.271  11.238   2.666 -1.7397  1.7785 -0.7906
  812HK4     N168187   2.365  11.214   2.405  0.0809 -0.2922 -0.1078
  812HK4    C2168188   2.403   0.026   2.284 -0.1472 -0.0156 -0.0420
  812HK4    C2268189   2.427   0.168   2.304  0.4478 -0.1291  0.0634
  812HK4    C2668190   2.459   0.248   2.195 -0.0622  0.2730  0.2089
  812HK4    H1368191   2.464   0.356   2.211  1.5158  0.1102  0.8588
  812HK4    C2568192   2.477   0.189   2.071 -0.3547  0.1359  0.2316
  812HK4    H1268193   2.509   0.240   1.980  2.1386  0.6168  1.3678
  812HK4    C2468194   2.451   0.053   2.052 -0.6961  0.2346 -0.0176
  812HK4    H1168195   2.473   0.018   1.951  0.3405 -0.4991  0.4617
  812HK4    C2368196   2.413  11.218   2.157 -0.0195 -0.0663 -0.0107
  812HK4    H1068197   2.418  11.111   2.142 -2.6821 -0.2768  0.3872
  812HK4    C3968198   2.363  11.079   2.445  0.2747 -0.2130  0.1779
  812HK4    C4168199   2.324  10.976   2.357 -0.2068 -0.2307  0.4100
  812HK4    H2168200   2.281  11.002   2.259  0.6654  1.4622  0.4490
  812HK4    C4268201   2.338  10.843   2.393 -0.2051 -0.2870  0.1979
  812HK4    H2268202   2.314  10.766   2.319 -0.3231  0.6811 -0.7700
  812HK4    C4368203   2.407  10.799   2.506 -0.3240  0.2598  0.4834
  812HK4    H2368204   2.430  10.694   2.524  2.3145  0.5516 -0.8864
  812HK4    C4468205   2.447  10.898   2.596  0.7143  0.1880  0.0943
  812HK4    H2468206   2.462  10.865   2.699  1.2712 -0.2795 -0.1327
  812HK4    C4568207   2.428  11.031   2.560  0.2536  0.1948  0.3621
  812HK4    H2568208   2.471  11.108   2.626 -0.6953  0.5688  0.5567
  813HK4    H2868209  10.703   6.822   6.605 -0.2823  2.6772  1.9193
  813HK4    C4868210  10.603   6.782   6.621  0.3613  0.2599  0.0936
  813HK4    C4768211  10.500   6.872   6.647  0.0782 -0.1408  0.3701
  813HK4    H2768212  10.536   6.973   6.671  0.5860 -0.2782  0.2105
  813HK4    C4668213  10.369   6.825   6.649  0.1256 -0.3135 -0.3494
  813HK4    H2668214  10.290   6.900   6.656 -0.2012 -0.7574  0.6611
  813HK4    C4068215  10.338   6.689   6.627  0.1539 -0.4720  0.5874
  813HK4    C5068216  10.447   6.606   6.595  0.3673  0.0821 -0.1437
  813HK4    H3068217  10.417   6.502   6.570  0.0507  0.1830 -0.1885
  813HK4    C4968218  10.579   6.648   6.590  0.2464  0.4146 -0.4960
  813HK4    H2968219  10.653   6.576   6.551  1.0297  0.9476 -0.0158
  813HK4     N268220  10.206   6.643   6.617  0.0505 -0.0384 -0.0673
  813HK4    C3068221  10.105   6.719   6.555 -0.2508 -0.0793  0.3739
  813HK4    C2968222  10.113   6.803   6.444 -0.0565 -0.5446  0.0339
  813HK4    H1568223  10.208   6.839   6.405 -0.2844  2.0589  1.7119
  813HK4    C2868224   9.998   6.849   6.380  0.1836 -0.2437 -0.1792
  813HK4    C2768225   9.874   6.813   6.435  0.4604 -0.1903  0.4805
  813HK4    H1468226   9.784   6.866   6.401  2.7292  2.1174 -2.0708
  813HK4    C3268227   9.858   6.733   6.548 -0.7134 -0.4995  0.0989
  813HK4    H1668228   9.759   6.691   6.571 -0.5227 -0.4100  1.0978
  813HK4    C3168229   9.974   6.685   6.607 -0.4327  0.0510  0.0026
  813HK4    C3468230   9.999   6.587   6.711  0.0535  0.0008 -0.1619
  813HK4    C3368231  10.142   6.564   6.714  0.1090  0.3954  0.3250
  813HK4    C3568232  10.193   6.453   6.781 -0.3354 -0.1093 -0.1597
  813HK4    H1768233  10.300   6.433   6.780 -0.4677 -0.8143 -0.5593
  813HK4    C3668234  10.107   6.373   6.855  0.3883 -0.8350 -0.1047
  813HK4    H1868235  10.149   6.300   6.927 -0.0287 -1.1508 -0.1814
  813HK4    C3768236   9.971   6.399   6.856  0.5763  0.1941 -0.2945
  813HK4    H1968237   9.902   6.332   6.908  0.8257 -0.3483 -0.6500
  813HK4    C3868238   9.915   6.499   6.779  0.0432 -0.4560 -0.7620
  813HK4    H2068239   9.807   6.499   6.761 -0.0122  1.9256 -0.6044
  813HK4    C1468240   9.996   6.948   6.271  0.3437 -0.1290 -0.0786
  813HK4     C968241   9.892   7.039   6.249  0.0010 -0.4451  0.2216
  813HK4     C868242   9.846   7.055   6.117  0.6065  0.8943  0.1708
  813HK4    C1168243   9.907   6.988   6.012  0.5176  0.3056  0.4933
  813HK4     H468244   9.873   7.006   5.909 -0.9346 -1.9586  0.5497
  813HK4    C1268245  10.022   6.912   6.029  0.2563 -0.3162 -0.4631
  813HK4     H568246  10.050   6.848   5.944  0.9343  1.0968 -1.3065
  813HK4    C1368247  10.067   6.899   6.160  0.3861  0.6740 -0.4073
  813HK4     H668248  10.166   6.850   6.170 -0.5695 -1.3326 -0.5139
  813HK4     C768249   9.751   7.164   6.084  0.1350  0.3039 -0.4246
  813HK4     O268250   9.674   7.148   5.989  0.0631  0.5622 -0.4100
  813HK4     C468251   9.715   7.255   6.194  0.4137  0.2124 -0.2604
  813HK4     C368252   9.650   7.372   6.157  0.0846 -0.1377 -0.8031
  813HK4     H368253   9.616   7.398   6.056 -0.2655  1.5599 -0.2817
  813HK4     C268254   9.618   7.464   6.256 -0.1414 -0.7484 -0.3075
  813HK4     H268255   9.562   7.556   6.235 -0.6562 -0.7928  0.7943
  813HK4     C168256   9.630   7.430   6.390  0.1395  0.6641  0.0414
  813HK4     H168257   9.623   7.509   6.467 -1.2250 -0.1215  0.7376
  813HK4     C668258   9.675   7.303   6.432 -0.0335  0.4798 -0.3343
  813HK4     C568259   9.738   7.229   6.331 -0.5535 -0.2073 -0.1663
  813HK4    C1068260   9.845   7.129   6.358  0.0936  0.4114 -0.4418
  813HK4     O168261   9.932   7.158   6.442 -0.0127 -0.3047 -0.0824
  813HK4    C1668262   9.623   7.253   6.560 -0.1916  0.4262 -0.4215
  813HK4    C1568263   9.520   7.319   6.630 -0.2469 -0.3338  0.2357
  813HK4     H768264   9.464   7.393   6.570  0.0624  0.0032  0.3662
  813HK4    C2068265   9.481   7.304   6.762 -0.5974 -0.5580  0.1064
  813HK4     H968266   9.409   7.370   6.811  0.3811  0.8661 -0.3660
  813HK4    C1968267   9.548   7.204   6.831 -0.0489 -0.0645  0.2909
  813HK4    C1868268   9.654   7.130   6.767 -0.5033 -0.2082 -0.2919
  813HK4    C1768269   9.687   7.154   6.634 -0.9245 -0.0081 -0.3624
  813HK4     H868270   9.759   7.084   6.591  1.5277  0.6544  2.5216
  813HK4     N168271   9.710   7.039   6.859 -0.4717  0.0578 -0.0496
  813HK4    C2168272   9.638   7.053   6.980 -0.1982 -0.1082  0.1304
  813HK4    C2268273   9.539   7.158   6.969  0.2136  0.3176  0.4380
  813HK4    C2668274   9.475   7.208   7.081 -0.1849  0.0736  0.3195
  813HK4    H1368275   9.394   7.279   7.064 -1.9990 -1.7526  1.1202
  813HK4    C2568276   9.499   7.153   7.207  0.1820  0.4170  0.3997
  813HK4    H1268277   9.432   7.179   7.289  1.0878 -1.8841  1.9102
  813HK4    C2468278   9.589   7.048   7.218 -0.4240 -0.1710 -0.1643
  813HK4    H1168279   9.605   7.004   7.317 -2.9954 -0.3732  0.1723
  813HK4    C2368280   9.657   6.998   7.107 -0.0450 -0.1831  0.0753
  813HK4    H1068281   9.718   6.909   7.120 -0.3842 -0.1408  2.1311
  813HK4    C3968282   9.839   6.986   6.853 -0.4619 -0.0340  0.7916
  813HK4    C4168283   9.860   6.864   6.920 -0.2062 -0.1960  0.4219
  813HK4    H2168284   9.776   6.804   6.959 -0.2101 -0.6177 -0.2345
  813HK4    C4268285   9.993   6.826   6.930 -0.1435 -0.0011  0.3430
  813HK4    H2268286  10.009   6.728   6.977 -1.0814 -0.6664 -0.6983
  813HK4    C4368287  10.101   6.897   6.878 -0.0910  0.1784  0.6954
  813HK4    H2368288  10.195   6.845   6.867 -0.6969 -0.4985 -1.6129
  813HK4    C4468289  10.080   7.025   6.828 -0.8144 -0.5331 -0.8737
  813HK4    H2468290  10.161   7.096   6.802  1.1794 -2.1052  0.8233
  813HK4    C4568291   9.948   7.065   6.812 -0.7568  0.3368  0.7231
  813HK4    H2568292   9.940   7.165   6.765  3.2770 -0.0796 -1.1285
  814HK4    H2868293   8.304   8.175   7.043 -1.1327  0.2892 -2.4395
  814HK4    C4868294   8.229   8.227   7.102  0.4024 -0.0539 -0.1309
  814HK4    C4768295   8.094   8.230   7.067  0.4573  0.2800 -0.3290
  814HK4    H2768296   8.063   8.210   6.963  0.1730 -1.0050  0.0028
  814HK4    C4668297   8.005   8.300   7.148  0.4324 -0.4314  0.2530
  814HK4    H2668298   7.906   8.327   7.109  0.0352  0.4443  1.8537
  814HK4    C4068299   8.047   8.368   7.264  0.2295  0.3959 -0.1557
  814HK4    C5068300   8.183   8.353   7.298  0.1835  0.4965  0.0782
  814HK4    H3068301   8.216   8.372   7.401  0.5703  2.7108 -0.4119
  814HK4    C4968302   8.275   8.283   7.221 -0.3261 -0.5088  0.3740
  814HK4    H2968303   8.372   8.257   7.266 -0.9380  0.6556  2.4352
  814HK4     N268304   7.971   8.482   7.295 -0.2267  0.0741 -0.0856
  814HK4    C3068305   7.932   8.518   7.425  0.1588  0.3114 -0.0342
  814HK4    C2968306   7.939   8.453   7.548 -0.1043  0.6573  0.1666
  814HK4    H1568307   7.923   8.345   7.546 -0.2895  0.6918 -0.0949
  814HK4    C2868308   7.913   8.513   7.671 -0.4958  0.3489  0.2382
  814HK4    C2768309   7.857   8.642   7.660 -0.1775  0.4652 -0.0232
  814HK4    H1468310   7.837   8.694   7.755 -1.4611  0.4636 -0.2793
  814HK4    C3268311   7.840   8.712   7.542 -0.2563  0.2360 -0.1494
  814HK4    H1668312   7.776   8.801   7.536  0.9091  1.2354  1.7298
  814HK4    C3168313   7.886   8.656   7.424 -0.2892  0.1657 -0.1268
  814HK4    C3468314   7.898   8.706   7.288  0.2549  0.3729 -0.0040
  814HK4    C3368315   7.951   8.594   7.213  0.1470  0.2644  0.0810
  814HK4    C3568316   7.981   8.615   7.078  0.2012 -0.2366  0.0173
  814HK4    H1768317   8.058   8.555   7.029  0.8904  0.2599  0.4662
  814HK4    C3668318   7.946   8.735   7.019  0.2937 -0.2067  0.0210
  814HK4    H1868319   7.976   8.758   6.915  2.1863  1.2560  0.8631
  814HK4    C3768320   7.892   8.842   7.089 -0.1849 -0.3530 -0.1219
  814HK4    H1968321   7.858   8.936   7.045 -0.2821 -1.2828 -2.1218
  814HK4    C3868322   7.871   8.827   7.225 -0.0151  0.3057 -0.0225
  814HK4    H2068323   7.802   8.895   7.275 -0.6653  1.0093 -1.8641
  814HK4    C1468324   7.933   8.432   7.792 -0.6471 -0.1446 -0.0615
  814HK4     C968325   7.863   8.460   7.910  0.1277  0.2976  0.3026
  814HK4     C868326   7.931   8.443   8.032  0.0792 -0.1161  0.2715
  814HK4    C1168327   8.058   8.389   8.046  0.1976  0.0982  0.0206
  814HK4     H468328   8.117   8.369   8.137  0.8047 -1.5768 -0.7234
  814HK4    C1268329   8.118   8.353   7.926 -0.0102  0.3972 -0.1712
  814HK4     H568330   8.219   8.311   7.936  0.9135  2.7360  0.6959
  814HK4    C1368331   8.062   8.376   7.801 -0.3093  0.6401  0.0046
  814HK4     H668332   8.112   8.337   7.711 -0.5481 -0.4100  0.3244
  814HK4     C768333   7.858   8.481   8.156  0.1464  0.5207  0.1231
  814HK4     O268334   7.925   8.471   8.259 -0.0409  0.6831  0.2603
  814HK4     C468335   7.722   8.538   8.154 -0.2204 -0.3382  0.1124
  814HK4     C368336   7.652   8.559   8.273  0.4177  0.1612  0.4035
  814HK4     H368337   7.704   8.530   8.365  1.0271 -0.4767 -0.1331
  814HK4     C268338   7.523   8.611   8.272  0.4735  0.3124 -0.6746
  814HK4     H268339   7.476   8.641   8.367  0.9470 -1.1581  0.0368
  814HK4     C168340   7.470   8.654   8.151 -0.4036  0.0267 -0.3895
  814HK4     H168341   7.374   8.709   8.149 -1.3005 -1.5014  0.1171
  814HK4     C668342   7.538   8.629   8.031  0.1062  0.0212 -0.1033
  814HK4     C568343   7.659   8.558   8.030 -0.3102 -0.7044  0.1019
  814HK4    C1068344   7.723   8.510   7.904 -0.0927 -0.3353  0.0694
  814HK4     O168345   7.653   8.474   7.810 -0.1176  0.0061 -0.0436
  814HK4    C1668346   7.457   8.671   7.915  0.0975 -0.6769 -0.3517
  814HK4    C1568347   7.523   8.736   7.809  0.2965 -0.6341 -0.2017
  814HK4     H768348   7.621   8.780   7.835  0.9536 -2.0265 -0.2557
  814HK4    C2068349   7.463   8.743   7.684 -0.0244 -0.3195 -0.0275
  814HK4     H968350   7.517   8.791   7.603 -2.1261  0.7479 -0.8336
  814HK4    C1968351   7.333   8.698   7.665 -0.1937  0.1771 -0.0638
  814HK4    C1868352   7.270   8.617   7.768 -0.1226 -0.0620 -0.2087
  814HK4    C1768353   7.334   8.610   7.891 -0.2864 -0.0017 -0.1210
  814HK4     H868354   7.296   8.538   7.964 -0.2006 -0.8665 -0.9296
  814HK4     N168355   7.165   8.537   7.719 -0.0977 -0.1382 -0.1365
  814HK4    C2168356   7.152   8.581   7.586 -0.4790  0.3193  0.0498
  814HK4    C2268357   7.252   8.678   7.547 -0.9886  0.9622  0.3472
  814HK4    C2668358   7.269   8.715   7.414  0.3663 -0.5600  0.0821
  814HK4    H1368359   7.349   8.784   7.388  2.0724 -2.5216  0.0665
  814HK4    C2568360   7.195   8.661   7.309  0.0035 -0.0894  0.0943
  814HK4    H1268361   7.200   8.686   7.203 -0.6455 -0.8816 -0.1232
  814HK4    C2468362   7.102   8.564   7.343  0.6006 -0.7016 -0.0048
  814HK4    H1168363   7.036   8.530   7.262  0.3240 -1.0182  0.3548
  814HK4    C2368364   7.084   8.529   7.476 -0.6404  0.3803  0.1211
  814HK4    H1068365   7.003   8.458   7.494 -1.2010  0.1824 -2.9178
  814HK4    C3968366   7.169   8.400   7.751 -0.0997 -0.0583  0.2065
  814HK4    C4168367   7.048   8.330   7.733 -0.2045  0.1986 -0.1157
  814HK4    H2168368   6.955   8.373   7.693  0.7096  2.5531  0.2269
  814HK4    C4268369   7.041   8.191   7.743  0.4371  0.1606 -0.1883
  814HK4    H2268370   6.945   8.140   7.733  1.1124 -0.7893 -1.9953
  814HK4    C4368371   7.159   8.121   7.770 -0.0977 -0.3947  0.7303
  814HK4    H2368372   7.152   8.014   7.749 -1.4898 -0.1249 -0.2989
  814HK4    C4468373   7.280   8.188   7.777 -0.1707 -0.2332  0.4872
  814HK4    H2468374   7.370   8.127   7.798  1.6687  0.3463 -4.8419
  814HK4    C4568375   7.286   8.326   7.775 -0.2853 -0.2277  0.5982
  814HK4    H2568376   7.387   8.368   7.786 -0.9224  2.1880 -2.1338
  815HK4    H2868377   3.139  10.478   4.524 -1.4569 -2.5649 -0.6388
  815HK4    C4868378   3.069  10.496   4.606  0.2374 -0.0610  0.3060
  815HK4    C4768379   2.983  10.605   4.600  0.3218 -0.0164 -0.0940
  815HK4    H2768380   2.960  10.644   4.500 -2.6664  2.1618  1.3707
  815HK4    C4668381   2.907  10.639   4.711 -0.3603  0.1578 -0.6117
  815HK4    H2668382   2.837  10.724   4.704 -0.6008 -0.0033 -0.1273
  815HK4    C4068383   2.908  10.562   4.829 -0.3027  0.2428 -0.5600
  815HK4    C5068384   2.986  10.445   4.827  0.1613  0.5337  0.1771
  815HK4    H3068385   3.014  10.389   4.918 -0.0458  1.0092  0.5360
  815HK4    C4968386   3.069  10.416   4.720 -0.0254 -0.1854  0.2190
  815HK4    H2968387   3.122  10.320   4.721  1.0752  0.4084 -0.1511
  815HK4     N268388   2.878  10.615   4.955  0.5520 -0.0709 -0.2246
  815HK4    C3068389   2.837  10.544   5.070  0.2908  0.1250 -0.1981
  815HK4    C2968390   2.767  10.425   5.084 -0.0822  0.4062  0.3437
  815HK4    H1568391   2.750  10.369   4.992  3.1554  1.5307 -0.9939
  815HK4    C2868392   2.718  10.375   5.204 -0.3945  0.1057  0.0946
  815HK4    C2768393   2.755  10.444   5.322 -0.3557  0.0375  0.1213
  815HK4    H1468394   2.745  10.390   5.417 -3.2833 -1.5471 -1.0090
  815HK4    C3268395   2.818  10.568   5.315  0.6917 -0.5020 -0.0102
  815HK4    H1668396   2.839  10.620   5.408  0.9816  0.2564 -0.4988
  815HK4    C3168397   2.848  10.624   5.191 -0.9692  0.1795 -0.1132
  815HK4    C3468398   2.901  10.752   5.149 -0.2312 -0.0067  0.2424
  815HK4    C3368399   2.919  10.740   5.005  0.5534 -0.3067  0.3664
  815HK4    C3568400   2.965  10.855   4.942  0.0727 -0.2539  0.1056
  815HK4    H1768401   2.973  10.850   4.834 -1.9236 -0.6630 -0.0341
  815HK4    C3668402   2.978  10.976   5.008 -0.2091 -0.3352  0.3137
  815HK4    H1868403   3.029  11.057   4.954 -1.5782 -0.3897 -1.0906
  815HK4    C3768404   2.952  10.988   5.144  0.2785  0.4878  0.3381
  815HK4    H1968405   2.976  11.081   5.197  0.8980  0.6020 -0.1324
  815HK4    C3868406   2.912  10.875   5.213  0.3118  0.1655 -0.1725
  815HK4    H2068407   2.856  10.886   5.306  0.3395 -2.3583  0.1906
  815HK4    C1468408   2.607  10.279   5.211 -0.1753 -0.1256  0.5145
  815HK4     C968409   2.513  10.276   5.314  0.4074  0.2685  1.0632
  815HK4     C868410   2.482  10.158   5.385 -0.1745 -0.1372  0.1493
  815HK4    C1168411   2.515  10.036   5.328  0.3900  0.0421  0.0787
  815HK4     H468412   2.463   9.945   5.361 -0.4315 -0.1765 -1.7624
  815HK4    C1268413   2.592  10.033   5.212  0.5579 -0.2932  0.1987
  815HK4     H568414   2.602   9.937   5.159  2.3388 -0.8893  1.5345
  815HK4    C1368415   2.642  10.152   5.160  0.1671 -0.0117  0.4690
  815HK4     H668416   2.713  10.141   5.077 -0.5203  2.4066 -0.4959
  815HK4     C768417   2.445  10.170   5.528  0.5139 -0.1975  0.3369
  815HK4     O268418   2.480  10.074   5.597  0.3046 -0.4439  0.1001
  815HK4     C468419   2.399  10.301   5.579 -0.4566 -0.3846 -0.0390
  815HK4     C368420   2.360  10.313   5.712 -0.4235  0.1278 -0.0723
  815HK4     H368421   2.343  10.216   5.762 -0.6683  0.4592  0.4927
  815HK4     C268422   2.323  10.434   5.769  0.8915  0.1228  0.8369
  815HK4     H268423   2.260  10.438   5.859 -0.9333 -2.0346 -0.2958
  815HK4     C168424   2.329  10.549   5.691 -0.6991 -0.3992 -0.0848
  815HK4     H168425   2.290  10.643   5.732  1.3897  0.1374  0.7532
  815HK4     C668426   2.378  10.543   5.559  0.3620 -0.0571  0.2832
  815HK4     C568427   2.401  10.418   5.500 -0.3716 -0.1851  0.2583
  815HK4    C1068428   2.435  10.396   5.356 -0.1270  0.2116  0.2521
  815HK4     O168429   2.357  10.442   5.273  0.1317 -0.2913 -0.2725
  815HK4    C1668430   2.459  10.657   5.515  0.3949 -0.2025 -0.0430
  815HK4    C1568431   2.546  10.726   5.601  0.3102 -0.1292 -0.0176
  815HK4     H768432   2.560  10.687   5.703  3.0450 -0.6531 -0.5604
  815HK4    C2068433   2.604  10.847   5.564  0.2191 -0.1818 -0.3334
  815HK4     H968434   2.656  10.902   5.642  0.6065 -1.5402  0.3867
  815HK4    C1968435   2.586  10.900   5.437 -0.3578  0.1129 -0.1302
  815HK4    C1868436   2.509  10.821   5.343  0.2522 -0.4158 -0.1892
  815HK4    C1768437   2.438  10.710   5.388 -0.4666  0.2232  0.2691
  815HK4     H868438   2.348  10.688   5.331  0.6496  1.4192 -2.0441
  815HK4     N168439   2.504  10.888   5.219  0.0447 -0.1047 -0.0117
  815HK4    C2168440   2.575  11.009   5.235  0.3787 -0.3045  0.0304
  815HK4    C2268441   2.631  11.020   5.368  0.1966  0.0340  0.0807
  815HK4    C2668442   2.707  11.132   5.398  0.3373 -0.0933  0.1997
  815HK4    H1368443   2.730  11.142   5.504  1.2004  1.6455 -0.1248
  815HK4    C2568444   2.730  11.236   5.309  0.2458  0.0099  0.2957
  815HK4    H1268445   2.765   0.081   5.353 -0.2428  0.2458  0.1933
  815HK4    C2468446   2.667  11.227   5.185  0.3395  0.1482  0.2374
  815HK4    H1168447   2.655   0.067   5.121  1.9220  0.6307  0.5788
  815HK4    C2368448   2.595  11.114   5.146 -0.0228  0.2560  0.5935
  815HK4    H1068449   2.559  11.108   5.043  1.6548 -2.5163  0.1020
  815HK4    C3968450   2.474  10.822   5.100 -0.1035 -0.3383  0.1560
  815HK4    C4168451   2.413  10.881   4.987 -0.2712 -0.5357  0.1421
  815HK4    H2168452   2.368  10.981   4.997 -0.9210 -0.8072 -0.0347
  815HK4    C4268453   2.399  10.819   4.863 -0.3536 -0.3294  0.0459
  815HK4    H2268454   2.343  10.864   4.781 -0.2262 -0.7617 -0.2803
  815HK4    C4368455   2.433  10.684   4.852  0.2177 -0.1930  0.1151
  815HK4    H2368456   2.404  10.621   4.768  1.6747  3.2593 -3.1576
  815HK4    C4468457   2.502  10.618   4.953 -0.1237 -0.3264  0.2573
  815HK4    H2468458   2.532  10.513   4.938 -2.2386 -0.7493 -1.2710
  815HK4    C4568459   2.523  10.693   5.068  0.1885 -0.2244  0.1349
  815HK4    H2568460   2.583  10.648   5.148  0.6287 -0.5121 -0.3589
  816HK4    H2868461   1.203   2.098   5.209 -0.2631 -0.2872  0.4995
  816HK4    C4868462   1.285   2.043   5.255  0.6235 -0.1059 -0.8232
  816HK4    C4768463   1.280   1.904   5.257 -0.5734 -0.0633 -0.0524
  816HK4    H2768464   1.197   1.849   5.210  0.3152 -0.0972 -1.6395
  816HK4    C4668465   1.391   1.836   5.306  0.1072  0.4086 -0.9243
  816HK4    H2668466   1.377   1.731   5.335  0.9639  0.5663  0.0788
  816HK4    C4068467   1.510   1.899   5.349  0.3372 -0.5137 -0.1893
  816HK4    C5068468   1.505   2.040   5.343 -0.1070 -0.5397 -0.4949
  816HK4    H3068469   1.602   2.091   5.351  1.3203 -3.2831  0.2226
  816HK4    C4968470   1.393   2.114   5.306  0.0131  0.0345  0.2869
  816HK4    H2968471   1.382   2.223   5.317  1.7216  0.4461 -1.8150
  816HK4     N268472   1.606   1.842   5.432  0.0158 -0.3777  0.2812
  816HK4    C3068473   1.582   1.730   5.515 -0.2275 -0.5995 -0.0865
  816HK4    C2968474   1.463   1.686   5.572 -0.0672 -0.3261  0.4604
  816HK4    H1568475   1.374   1.749   5.567 -0.2664 -0.5878  0.7125
  816HK4    C2868476   1.461   1.575   5.655  0.3755 -0.9226 -0.3180
  816HK4    C2768477   1.577   1.497   5.673  0.4275 -0.7007  0.3457
  816HK4    H1468478   1.579   1.401   5.727  2.1607 -1.4968 -1.0780
  816HK4    C3268479   1.698   1.542   5.623  0.1599  0.0668  0.3834
  816HK4    H1668480   1.786   1.482   5.647  0.4536 -0.4473 -1.8829
  816HK4    C3168481   1.703   1.656   5.544 -0.0774 -0.5001 -0.4555
  816HK4    C3468482   1.807   1.729   5.473 -0.0603 -0.1497 -0.0722
  816HK4    C3368483   1.746   1.845   5.411  0.0290  0.1793  0.4581
  816HK4    C3568484   1.828   1.929   5.338  0.0463  0.4412  0.7752
  816HK4    H1768485   1.786   2.016   5.286 -0.1334  0.3285  0.7345
  816HK4    C3668486   1.957   1.884   5.312 -0.3163 -0.0276 -0.2625
  816HK4    H1868487   2.014   1.929   5.230  0.7520 -4.6350 -2.1938
  816HK4    C3768488   2.016   1.771   5.366 -0.3455  0.3954  0.6669
  816HK4    H1968489   2.122   1.749   5.349 -1.0159 -0.7559 -2.3817
  816HK4    C3868490   1.937   1.689   5.447  0.0461 -0.1719  0.4805
  816HK4    H2068491   1.974   1.592   5.479  1.9152  0.3874  0.1147
  816HK4    C1468492   1.344   1.544   5.740  0.1350  0.0553 -0.2758
  816HK4     C968493   1.352   1.485   5.866  0.9422 -0.4008 -0.5305
  816HK4     C868494   1.240   1.409   5.907  0.4608  0.4352 -0.2869
  816HK4    C1168495   1.124   1.413   5.830 -0.2697 -0.2535  0.7649
  816HK4     H468496   1.040   1.355   5.870  0.0931 -2.7304 -1.8712
  816HK4    C1268497   1.112   1.486   5.712  1.0863 -0.6101  0.3968
  816HK4     H568498   1.020   1.474   5.654  1.6669 -1.1305 -0.4301
  816HK4    C1368499   1.226   1.549   5.663  0.3011  0.1112 -0.5307
  816HK4     H668500   1.215   1.598   5.565 -0.5573 -1.4120 -1.2179
  816HK4     C768501   1.241   1.343   6.039  0.1317 -0.2275 -0.6157
  816HK4     O268502   1.182   1.236   6.053 -0.2403  0.0839  0.2307
  816HK4     C468503   1.338   1.385   6.143 -0.7162  0.5174 -0.1205
  816HK4     C368504   1.316   1.353   6.276  0.5888 -0.0325 -0.0332
  816HK4     H368505   1.232   1.287   6.303  0.1592  0.5080 -0.0360
  816HK4     C268506   1.402   1.402   6.374 -0.0346  0.6322  0.1799
  816HK4     H268507   1.366   1.408   6.478 -1.0397  2.8634 -0.2725
  816HK4     C168508   1.516   1.471   6.337  0.3081 -0.0180  0.0296
  816HK4     H168509   1.565   1.545   6.402 -0.9436  0.5962  0.2695
  816HK4     C668510   1.550   1.476   6.200 -0.3161  0.6829 -0.1021
  816HK4     C568511   1.453   1.455   6.101 -0.1067 -0.4471 -0.0733
  816HK4    C1068512   1.459   1.514   5.965  0.3790 -0.2410  0.0387
  816HK4     O168513   1.525   1.617   5.951 -0.3002  0.2037  0.1105
  816HK4    C1668514   1.694   1.468   6.172 -0.4349  0.2172 -0.5799
  816HK4    C1568515   1.735   1.393   6.059  0.2071 -0.5254  0.1343
  816HK4     H768516   1.703   1.288   6.052 -2.8249  0.1852  2.2650
  816HK4    C2068517   1.842   1.428   5.978 -0.5584  0.8683 -0.3024
  816HK4     H968518   1.850   1.378   5.882 -1.8875 -2.2163  1.1329
  816HK4    C1968519   1.919   1.541   6.006  0.3099  0.2082 -0.0070
  816HK4    C1868520   1.883   1.614   6.126 -0.0542  0.1274 -0.0657
  816HK4    C1768521   1.772   1.579   6.201  0.1874 -0.3821  0.0517
  816HK4     H868522   1.738   1.650   6.277  1.0198  1.0079 -0.8568
  816HK4     N168523   1.976   1.719   6.146  0.3404 -0.2306 -0.0227
  816HK4    C2168524   2.070   1.716   6.041  0.2418  0.1747 -0.1214
  816HK4    C2268525   2.031   1.612   5.948  0.0445  0.3959 -0.2887
  816HK4    C2668526   2.095   1.592   5.826  0.1208 -0.6184 -0.0898
  816HK4    H1368527   2.046   1.548   5.739  0.1974  1.3945 -1.1945
  816HK4    C2568528   2.207   1.674   5.814  0.0591 -0.5076  0.0853
  816HK4    H1268529   2.277   1.656   5.732  1.9426  0.5114  1.4262
  816HK4    C2468530   2.253   1.773   5.901 -0.5396 -0.0713 -0.0955
  816HK4    H1168531   2.351   1.819   5.882  1.0057 -3.1239  0.1843
  816HK4    C2368532   2.179   1.798   6.016  0.5956 -0.0655  0.6342
  816HK4    H1068533   2.200   1.887   6.077  0.4227  1.1509 -1.0396
  816HK4    C3968534   1.971   1.814   6.248  0.1794  0.1476 -0.3838
  816HK4    C4168535   2.086   1.862   6.315 -0.1668  0.1771  0.1894
  816HK4    H2168536   2.181   1.806   6.310  0.0104  0.5455 -0.5910
  816HK4    C4268537   2.081   1.988   6.373  0.0367  0.3898 -0.2551
  816HK4    H2268538   2.163   2.022   6.438  0.1016 -0.6461  0.2020
  816HK4    C4368539   1.973   2.074   6.361 -0.3590 -0.1038 -0.2305
  816HK4    H2368540   1.968   2.162   6.425 -0.5523 -0.8803  0.8374
  816HK4    C4468541   1.863   2.029   6.289 -0.3938  0.6865 -0.6736
  816HK4    H2468542   1.772   2.091   6.284 -0.8023  0.1928  0.4167
  816HK4    C4568543   1.859   1.899   6.242  0.1685  0.2062  0.5852
  816HK4    H2568544   1.774   1.868   6.178  0.6998 -0.8906  0.3934
  817HK4    H2868545   4.006   0.017   9.414  2.2249  1.3307 -0.5057
  817HK4    C4868546   4.025  11.199   9.330  0.1358  0.1893 -0.1211
  817HK4    C4768547   4.132  11.235   9.248  0.2739  0.4356  0.1679
  817HK4    H2768548   4.201   0.068   9.277  0.8191 -0.8460  2.5257
  817HK4    C4668549   4.151  11.163   9.130 -0.5217  0.2377  0.1540
  817HK4    H2668550   4.234  11.199   9.067 -0.0464  1.2920  1.3645
  817HK4    C4068551   4.068  11.060   9.082 -0.2223  0.0240  0.0853
  817HK4    C5068552   3.963  11.025   9.169  0.5244 -0.9447  0.5967
  817HK4    H3068553   3.913  10.929   9.151 -0.4956 -0.4711  0.8675
  817HK4    C4968554   3.948  11.090   9.291  0.0677  0.2227 -0.0809
  817HK4    H2968555   3.890  11.039   9.370 -0.8476  0.4695 -0.5821
  817HK4     N268556   4.091  10.998   8.958 -0.0675  0.2513 -0.0019
  817HK4    C3068557   4.222  10.996   8.907 -0.0314 -0.9425  0.1315
  817HK4    C2968558   4.346  10.971   8.963  0.1779 -0.0333  0.0882
  817HK4    H1568559   4.353  10.949   9.070 -0.7723 -0.9258 -0.0254
  817HK4    C2868560   4.459  10.976   8.882 -0.0088 -0.4678 -0.1951
  817HK4    C2768561   4.448  11.004   8.745  0.0251 -0.5319 -0.2131
  817HK4    H1468562   4.539  11.011   8.683  0.2359 -0.4742  0.1050
  817HK4    C3268563   4.322  11.018   8.687  0.0375  0.0514 -0.0986
  817HK4    H1668564   4.310  11.047   8.583 -1.3049 -3.3791 -0.9502
  817HK4    C3168565   4.206  11.013   8.764  0.2536  0.5303  0.2633
  817HK4    C3468566   4.065  11.011   8.730  0.3331 -0.3721 -0.0489
  817HK4    C3368567   3.994  11.003   8.856  0.0910 -0.1728 -0.1690
  817HK4    C3568568   3.855  10.990   8.860  0.0667  0.2498  0.2900
  817HK4    H1768569   3.805  10.986   8.957  2.2623 -0.1272  1.4616
  817HK4    C3668570   3.783  10.981   8.742 -0.2446 -0.5275  0.5425
  817HK4    H1868571   3.673  10.977   8.749 -0.2519 -0.2159  0.6100
  817HK4    C3768572   3.850  10.983   8.620 -0.3996 -0.5684  0.4564
  817HK4    H1968573   3.795  11.003   8.528  2.3787  1.1531 -0.8773
  817HK4    C3868574   3.987  11.000   8.615 -0.5032  0.3233  0.4374
  817HK4    H2068575   4.030  11.046   8.526  0.5411  2.4448  2.0016
  817HK4    C1468576   4.587  11.005   8.948  0.1525 -0.7273 -0.3932
  817HK4     C968577   4.675  11.106   8.908 -0.7974  0.1926 -0.1511
  817HK4     C868578   4.813  11.086   8.926 -0.7874  0.7751  0.4341
  817HK4    C1168579   4.860  10.968   8.983 -0.6516  0.4344 -0.3770
  817HK4     H468580   4.966  10.940   8.968 -1.0509 -1.2712 -0.0668
  817HK4    C1268581   4.775  10.872   9.034  0.1838  0.0110  0.2310
  817HK4     H568582   4.817  10.787   9.090 -1.3504 -0.7052  0.3363
  817HK4    C1368583   4.638  10.891   9.015  0.1369 -0.4569  0.0853
  817HK4     H668584   4.564  10.814   9.039  0.0425 -0.1713  0.6979
  817HK4     C768585   4.910  11.194   8.898  0.0124 -0.0520 -0.0388
  817HK4     O268586   5.032  11.182   8.893  0.0193  0.0012 -0.0205
  817HK4     C468587   4.860   0.075   8.845  0.2429 -0.0209 -0.1869
  817HK4     C368588   4.949   0.180   8.831 -0.3226  0.6032  0.8465
  817HK4     H368589   5.039   0.176   8.895  0.3299  1.3868 -0.0001
  817HK4     C268590   4.918   0.301   8.769 -0.2678  0.1417 -0.0839
  817HK4     H268591   4.990   0.383   8.763 -0.3064  0.0590 -1.9698
  817HK4     C168592   4.789   0.308   8.717 -0.4758  0.4623  0.4645
  817HK4     H168593   4.745   0.407   8.695 -2.6584 -0.0219  2.4720
  817HK4     C668594   4.695   0.203   8.722 -0.3872  0.3722  0.2455
  817HK4     C568595   4.727   0.091   8.800  0.3599  0.0593 -0.5038
  817HK4    C1068596   4.632  11.240   8.859  0.0342  0.2830 -0.6514
  817HK4     O168597   4.534   0.043   8.914 -0.0021  0.0616 -0.5152
  817HK4    C1668598   4.601   0.196   8.610 -0.4850  0.0307  0.3476
  817HK4    C1568599   4.632   0.266   8.492 -0.6954  0.3650  0.4886
  817HK4     H768600   4.725   0.324   8.483  0.9954 -2.3265 -0.0840
  817HK4    C2068601   4.536   0.290   8.394 -0.1909 -0.0249 -0.1072
  817HK4     H968602   4.578   0.314   8.297  1.4071  0.6139  0.7269
  817HK4    C1968603   4.406   0.242   8.407 -0.1286 -0.0955  0.2534
  817HK4    C1868604   4.371   0.176   8.532 -0.1281 -0.2356  0.1758
  817HK4    C1768605   4.471   0.148   8.624 -0.3488 -0.3227  0.3906
  817HK4     H868606   4.459   0.066   8.696  0.4416 -0.8003 -0.0111
  817HK4     N168607   4.231   0.159   8.530 -0.2057  0.3819  0.3016
  817HK4    C2168608   4.179   0.217   8.412 -0.1911 -0.2707 -0.0267
  817HK4    C2268609   4.286   0.277   8.335 -0.0658 -0.5772 -0.0955
  817HK4    C2668610   4.266   0.338   8.212  0.2812 -0.4599 -0.0918
  817HK4    H1368611   4.348   0.358   8.143  1.0512 -0.3557  0.8471
  817HK4    C2568612   4.134   0.348   8.168  0.2504 -0.4127  0.0091
  817HK4    H1268613   4.116   0.410   8.080 -1.3981 -0.6227  0.1947
  817HK4    C2468614   4.029   0.300   8.245 -0.1008  0.4005  0.0391
  817HK4    H1168615   3.929   0.294   8.200 -0.2578  0.4686  0.3783
  817HK4    C2368616   4.049   0.239   8.368 -0.0986  0.6997  0.1863
  817HK4    H1068617   3.967   0.235   8.440 -1.5330 -4.2907 -1.5264
  817HK4    C3968618   4.151   0.119   8.637  0.1855 -0.0192  0.4409
  817HK4    C4168619   4.023   0.064   8.615  0.2089  0.0241  0.1986
  817HK4    H2168620   4.013   0.005   8.523  1.3513  0.0468  0.0491
  817HK4    C4268621   3.933   0.066   8.721 -0.5871  0.2362 -0.4749
  817HK4    H2268622   3.830   0.033   8.705  0.3612 -2.0296 -2.1407
  817HK4    C4368623   3.966   0.113   8.848 -0.2327 -0.8446 -0.1549
  817HK4    H2368624   3.886   0.134   8.918  1.3758  1.6973  0.9978
  817HK4    C4468625   4.098   0.142   8.879 -0.5759  0.3481  0.2337
  817HK4    H2468626   4.140   0.117   8.978  0.4827 -0.3068 -0.3603
  817HK4    C4568627   4.184   0.152   8.770 -0.2688  0.3193  0.4716
  817HK4    H2568628   4.270   0.220   8.782 -0.1530  0.1990  0.3094
  818HK4    H2868629   1.814   9.871   8.753 -0.4033 -2.3902 -1.2633
  818HK4    C4868630   1.706   9.867   8.765 -0.3494 -0.0336  0.1870
  818HK4    C4768631   1.630   9.782   8.686 -0.5315  0.3514 -0.0505
  818HK4    H2768632   1.686   9.698   8.641  0.6375 -0.4345  2.7681
  818HK4    C4668633   1.494   9.800   8.668 -0.5949 -0.0813 -0.0119
  818HK4    H2668634   1.443   9.718   8.615  1.0844  0.1853 -2.1142
  818HK4    C4068635   1.431   9.919   8.712 -0.1015  0.1787 -0.0038
  818HK4    C5068636   1.506   9.999   8.801  0.0902 -0.0087  0.0051
  818HK4    H3068637   1.455  10.074   8.863  0.3211  0.0404  0.1321
  818HK4    C4968638   1.640   9.973   8.827  0.2012  0.4758 -0.0905
  818HK4    H2968639   1.695  10.034   8.899  0.5333  1.2375 -0.9729
  818HK4     N268640   1.294   9.939   8.694 -0.2069 -0.2801  0.2780
  818HK4    C3068641   1.234  10.066   8.710 -0.0345 -0.1848  0.1700
  818HK4    C2968642   1.287  10.194   8.723 -0.4205  0.0611 -0.6269
  818HK4    H1568643   1.390  10.222   8.705 -0.7981  3.0439  1.4751
  818HK4    C2868644   1.211  10.310   8.737 -0.1443  0.1557  0.0880
  818HK4    C2768645   1.073  10.289   8.724 -0.0710 -0.2865  0.0179
  818HK4    H1468646   1.011  10.380   8.717  1.0467  0.7528  2.9398
  818HK4    C3268647   1.012  10.165   8.704 -0.6724 -0.0332  0.2506
  818HK4    H1668648   0.905  10.159   8.688 -0.6682 -1.3075  0.6482
  818HK4    C3168649   1.091  10.051   8.696 -0.0873  0.3762  0.1042
  818HK4    C3468650   1.064   9.909   8.686 -0.1513  0.4318 -0.5587
  818HK4    C3368651   1.192   9.842   8.693 -0.4442 -0.0336  0.4315
  818HK4    C3568652   1.189   9.706   8.726  0.1234 -0.2044 -0.2007
  818HK4    H1768653   1.281   9.662   8.764  0.7149  0.8217 -0.4203
  818HK4    C3668654   1.069   9.637   8.741 -0.0558  0.0487 -0.4474
  818HK4    H1868655   1.066   9.527   8.742  2.2191 -0.0360 -0.3497
  818HK4    C3768656   0.948   9.702   8.724 -0.0463  0.1124 -0.2612
  818HK4    H1968657   0.855   9.645   8.721 -0.5447  0.8586  0.5426
  818HK4    C3868658   0.944   9.839   8.702  0.0796  0.1732  0.0776
  818HK4    H2068659   0.848   9.891   8.704  0.9531  1.8309  0.1924
  818HK4    C1468660   1.266  10.433   8.797 -0.2028  0.1333  0.1907
  818HK4     C968661   1.188  10.511   8.883 -0.4657 -0.0035  0.0757
  818HK4     C868662   1.178  10.650   8.868 -0.5544 -0.0117  0.0474
  818HK4    C1168663   1.259  10.707   8.770  0.1764  0.1364  0.7210
  818HK4     H468664   1.243  10.813   8.745 -0.2925  0.0676  0.7181
  818HK4    C1268665   1.350  10.630   8.698 -0.0246 -0.0140  0.6237
  818HK4     H568666   1.428  10.675   8.635  0.8496  1.3598  2.6029
  818HK4    C1368667   1.364  10.493   8.714 -0.0873 -0.0755  0.1774
  818HK4     H668668   1.436  10.437   8.654  1.3235  0.4166  1.3839
  818HK4     C768669   1.083  10.731   8.948 -0.0162  0.4406  0.2323
  818HK4     O268670   1.068  10.849   8.917  0.2642  0.3945 -0.0819
  818HK4     C468671   1.017  10.665   9.063  0.0829 -0.2484 -0.1013
  818HK4     C368672   0.939  10.741   9.149  0.4385 -0.1531  0.1407
  818HK4     H368673   0.929  10.848   9.125 -1.6277 -0.4470 -0.4493
  818HK4     C268674   0.841  10.685   9.230 -0.2497  0.1510 -0.4773
  818HK4     H268675   0.771  10.747   9.288  0.5927 -0.8240  1.6235
  818HK4     C168676   0.830  10.546   9.232  0.0373  0.1358  0.4440
  818HK4     H168677   0.765  10.497   9.307  0.6244  3.1558  3.0560
  818HK4     C668678   0.909  10.466   9.149 -0.1738  0.0341  0.3432
  818HK4     C568679   1.007  10.525   9.067 -0.2521 -0.2204  0.0648
  818HK4    C1068680   1.112  10.448   8.995  0.4067  0.0638  0.7092
  818HK4     O168681   1.156  10.344   9.044 -0.0467 -0.5430 -0.1604
  818HK4    C1668682   0.862  10.327   9.152  0.2276 -0.1020  0.4377
  818HK4    C1568683   0.851  10.253   9.032 -0.2876  0.3662  0.1942
  818HK4     H768684   0.824  10.309   8.941 -1.5082  1.0300  0.9589
  818HK4    C2068685   0.866  10.115   9.026  0.2936  0.4465 -0.2684
  818HK4     H968686   0.854  10.057   8.934  2.7508 -2.0231  0.9043
  818HK4    C1968687   0.888  10.052   9.148 -0.5636 -0.5566 -0.6161
  818HK4    C1868688   0.899  10.126   9.272 -0.1602 -0.4261 -0.7280
  818HK4    C1768689   0.887  10.264   9.274  0.1466 -0.4078  0.2972
  818HK4     H868690   0.906  10.325   9.362 -0.3769  0.5131 -0.2094
  818HK4     N168691   0.892  10.046   9.388  0.4032  0.4515 -0.0782
  818HK4    C2168692   0.907   9.917   9.332  0.8919  0.4926 -0.0445
  818HK4    C2268693   0.900   9.913   9.188 -0.0784 -0.3363  0.0192
  818HK4    C2668694   0.915   9.792   9.121  0.3423 -0.2038 -0.1263
  818HK4    H1368695   0.933   9.788   9.013  0.2709 -1.7737 -0.0867
  818HK4    C2568696   0.938   9.679   9.198  0.1054 -0.1858 -0.0289
  818HK4    H1268697   0.937   9.580   9.152 -2.0598 -0.9476  1.5952
  818HK4    C2468698   0.948   9.690   9.336  0.3801 -0.2275 -0.0441
  818HK4    H1168699   0.973   9.600   9.395 -1.2888  0.0233  1.0901
  818HK4    C2368700   0.941   9.807   9.410  0.7753  0.1055 -0.5348
  818HK4    H1068701   0.976   9.823   9.512 -1.8324  4.3299 -0.2022
  818HK4    C3968702   0.869  10.074   9.523 -0.4349  0.0120 -0.1269
  818HK4    C4168703   0.793   9.988   9.605  0.7568 -0.9371 -0.0043
  818HK4    H2168704   0.763   9.887   9.572  0.7891 -0.1783 -2.4456
  818HK4    C4268705   0.776  10.025   9.738  0.3064 -0.5207 -0.1779
  818HK4    H2268706   0.749   9.944   9.808 -0.4344  0.8782  1.1788
  818HK4    C4368707   0.824  10.144   9.792  0.3148 -0.1576 -0.9718
  818HK4    H2368708   0.807  10.174   9.895  1.6771  1.1564 -1.1120
  818HK4    C4468709   0.903  10.226   9.713  0.1313  0.8540 -0.1137
  818HK4    H2468710   0.936  10.325   9.748 -1.2189  1.5483 -0.7793
  818HK4    C4568711   0.928  10.188   9.582  0.0562 -0.4269  0.2394
  818HK4    H2568712   1.021  10.223   9.535  0.3998 -0.0353  1.2110
  819HK4    H2868713   3.376   2.525   3.200  1.6433 -2.8747  2.4483
  819HK4    C4868714   3.406   2.479   3.106 -0.0837 -0.5149  0.6767
  819HK4    C4768715   3.322   2.387   3.043  0.1530 -0.0995 -0.2601
  819HK4    H2768716   3.253   2.333   3.109  1.1141  2.6023  3.1147
  819HK4    C4668717   3.356   2.347   2.915 -0.1297  0.0610 -0.3852
  819HK4    H2668718   3.278   2.296   2.857 -0.4384 -0.4658  0.4867
  819HK4    C4068719   3.469   2.393   2.844  0.2464  0.4414  0.4586
  819HK4    C5068720   3.548   2.488   2.911 -0.0767  1.0826 -0.0693
  819HK4    H3068721   3.633   2.531   2.856 -1.3783  0.0709 -2.9491
  819HK4    C4968722   3.519   2.528   3.041 -0.5045 -0.1453  0.2149
  819HK4    H2968723   3.589   2.604   3.079 -1.0370  0.7267 -0.5212
  819HK4     N268724   3.526   2.309   2.748 -0.4474  0.1187  0.3287
  819HK4    C3068725   3.515   2.169   2.736 -0.3741  0.0834  0.6763
  819HK4    C2968726   3.443   2.068   2.800  0.1138 -0.2453  0.7118
  819HK4    H1568727   3.397   2.093   2.895 -1.1826  1.2473 -0.2751
  819HK4    C2868728   3.441   1.936   2.758 -0.0396 -0.0974  0.2517
  819HK4    C2768729   3.521   1.894   2.650  0.3873 -0.2424  0.6259
  819HK4    H1468730   3.528   1.788   2.619  0.0406 -0.2969  0.7353
  819HK4    C3268731   3.589   1.994   2.581 -0.6761  0.1645  0.1564
  819HK4    H1668732   3.665   1.961   2.510 -1.5786  1.2460 -1.3326
  819HK4    C3168733   3.584   2.128   2.615 -0.2907  0.0304  0.7413
  819HK4    C3468734   3.632   2.247   2.546 -0.3587 -0.2581  0.1985
  819HK4    C3368735   3.594   2.356   2.634  0.3413 -0.3372  0.6060
  819HK4    C3568736   3.617   2.487   2.594 -0.1786 -0.3881  0.1159
  819HK4    H1768737   3.584   2.573   2.653  1.9215  0.6205 -0.1423
  819HK4    C3668738   3.675   2.511   2.470 -0.2392 -0.2272  0.1182
  819HK4    H1868739   3.712   2.612   2.451 -0.3786 -0.2745 -0.4044
  819HK4    C3768740   3.704   2.403   2.387  0.4191 -0.2390  0.3634
  819HK4    H1968741   3.738   2.427   2.286 -0.2992  1.8455  0.5846
  819HK4    C3868742   3.688   2.270   2.421  0.0670 -0.1865  0.4029
  819HK4    H2068743   3.691   2.188   2.349 -0.0684  0.3205 -0.1782
  819HK4    C1468744   3.368   1.836   2.837  0.0597 -0.1051  0.3351
  819HK4     C968745   3.407   1.702   2.848  0.2642 -0.0473  0.3161
  819HK4     C868746   3.304   1.605   2.853 -0.0692  0.3008  0.2841
  819HK4    C1168747   3.171   1.639   2.871 -0.1864  0.0387 -0.0651
  819HK4     H468748   3.091   1.565   2.853  0.5695 -1.4940  2.6003
  819HK4    C1268749   3.137   1.773   2.878 -0.3276 -0.0206  0.4490
  819HK4     H568750   3.033   1.802   2.900  0.0051 -0.0432  2.0509
  819HK4    C1368751   3.235   1.871   2.868 -0.1170 -0.2907 -0.1979
  819HK4     H668752   3.200   1.975   2.863 -1.8285 -0.6939  2.2767
  819HK4     C768753   3.350   1.469   2.813 -0.1470  0.4433 -0.2862
  819HK4     O268754   3.266   1.380   2.827  0.7576 -0.2635  0.6509
  819HK4     C468755   3.491   1.439   2.782 -0.1853  0.3756 -0.4010
  819HK4     C368756   3.524   1.308   2.749 -0.0168  0.3611 -0.1766
  819HK4     H368757   3.450   1.234   2.716 -0.5036  0.9556 -0.4435
  819HK4     C268758   3.652   1.256   2.766 -0.0449  0.2832 -0.2011
  819HK4     H268759   3.667   1.149   2.790 -1.5827 -0.1945 -1.2931
  819HK4     C168760   3.752   1.349   2.790  0.0043  0.0036  0.6919
  819HK4     H168761   3.852   1.305   2.787 -0.3992 -0.9464  0.9562
  819HK4     C668762   3.729   1.487   2.809  0.0692  0.1872 -0.5299
  819HK4     C568763   3.595   1.529   2.813  0.0384  0.0686 -0.2556
  819HK4    C1068764   3.551   1.666   2.850  0.2805  0.0150  0.2299
  819HK4     O168765   3.628   1.735   2.917  0.1872 -0.3446  0.7079
  819HK4    C1668766   3.850   1.565   2.841  0.0098  0.0430  0.0605
  819HK4    C1568767   3.962   1.514   2.909 -0.2676 -0.3138  0.2556
  819HK4     H768768   3.944   1.441   2.989 -2.1330 -1.9763 -1.6300
  819HK4    C2068769   4.090   1.562   2.883 -0.2886 -0.4719 -0.1448
  819HK4     H968770   4.181   1.530   2.936 -1.2800  0.6194  2.2838
  819HK4    C1968771   4.114   1.660   2.788  0.0055 -0.2113  0.1990
  819HK4    C1868772   4.001   1.717   2.718  0.1439 -0.1986 -0.0173
  819HK4    C1768773   3.875   1.669   2.752  0.0686  0.1536  0.2065
  819HK4     H868774   3.789   1.704   2.695 -0.4322 -4.1961 -1.9493
  819HK4     N168775   4.045   1.805   2.617  0.2080 -0.1890  0.0190
  819HK4    C2168776   4.183   1.822   2.637  0.2117  0.0148 -0.1740
  819HK4    C2268777   4.232   1.721   2.730 -0.1785  0.5569  0.6245
  819HK4    C2668778   4.361   1.731   2.780  0.3006 -0.3363 -0.4115
  819HK4    H1368779   4.401   1.673   2.864  0.1172  2.8804  2.0041
  819HK4    C2568780   4.440   1.837   2.738  0.2012  0.1313  0.5697
  819HK4    H1268781   4.547   1.837   2.760  0.2089  2.3901  0.6547
  819HK4    C2468782   4.396   1.931   2.647 -0.3338 -0.7092 -0.0444
  819HK4    H1168783   4.466   2.014   2.627  0.2581 -1.0419  0.6638
  819HK4    C2368784   4.267   1.926   2.596 -0.1819  0.1850 -0.5458
  819HK4    H1068785   4.230   2.009   2.536 -0.2538  0.6904  0.1929
  819HK4    C3968786   3.972   1.831   2.500  0.2811 -0.0380  0.0070
  819HK4    C4168787   3.988   1.952   2.430 -0.4130  0.1546  0.1726
  819HK4    H2168788   4.027   2.042   2.480  0.0801 -1.7344  3.3104
  819HK4    C4268789   3.935   1.971   2.303  0.1915 -0.0887 -0.1217
  819HK4    H2268790   3.971   2.061   2.251  0.7681  0.6595  1.5359
  819HK4    C4368791   3.866   1.867   2.243  0.0916 -0.2521  0.2704
  819HK4    H2368792   3.816   1.884   2.147 -1.2596 -0.7258  0.8791
  819HK4    C4468793   3.849   1.744   2.305  0.1697 -0.3387  0.1220
  819HK4    H2468794   3.818   1.653   2.252 -0.4039  0.6453 -1.2499
  819HK4    C4568795   3.894   1.733   2.436  0.5385 -0.2409  0.0043
  819HK4    H2568796   3.884   1.633   2.481 -0.3004 -0.0587  0.2336
  820HK4    H2868797   8.376   6.481   6.184 -3.3396 -0.9414  2.9932
  820HK4    C4868798   8.303   6.501   6.106  0.0451 -0.0747 -0.0847
  820HK4    C4768799   8.212   6.604   6.120  0.1794  0.0491 -0.0943
  820HK4    H2768800   8.180   6.628   6.223 -0.1013 -0.8895  0.0323
  820HK4    C4668801   8.147   6.655   6.008 -0.2695  0.0941  0.1854
  820HK4    H2668802   8.079   6.739   6.025  0.4315  0.9548 -1.2096
  820HK4    C4068803   8.164   6.601   5.878 -0.0579  0.2781  0.1364
  820HK4    C5068804   8.235   6.480   5.874  0.1328  0.4150 -0.6524
  820HK4    H3068805   8.245   6.430   5.777  1.7707 -1.7300  0.5651
  820HK4    C4968806   8.306   6.433   5.984 -0.2015  0.4913 -0.4060
  820HK4    H2968807   8.356   6.335   5.985  0.9771  1.0911 -0.0489
  820HK4     N268808   8.125   6.671   5.763  0.1274 -0.3498 -0.3062
  820HK4    C3068809   8.119   6.810   5.741  0.4710 -0.2760  0.0559
  820HK4    C2968810   8.170   6.909   5.823 -0.2349  0.1450 -0.0109
  820HK4    H1568811   8.245   6.883   5.898 -0.5082 -0.4231  0.0688
  820HK4    C2868812   8.146   7.045   5.807 -0.2313  0.1643  0.1393
  820HK4    C2768813   8.061   7.077   5.700 -0.5160 -0.1113  0.2818
  820HK4    H1468814   8.048   7.184   5.675 -3.9454 -0.0436  2.0107
  820HK4    C3268815   7.997   6.980   5.623  0.2623 -0.0420 -0.4558
  820HK4    H1668816   7.903   7.023   5.588  1.0794  2.2836  0.1104
  820HK4    C3168817   8.026   6.845   5.635  0.4382  0.0515  0.1936
  820HK4    C3468818   7.979   6.719   5.581  0.4421  0.1791 -0.1021
  820HK4    C3368819   8.035   6.618   5.668 -0.2186 -0.1698 -0.0805
  820HK4    C3568820   8.033   6.485   5.628  0.0037 -0.2466  0.1653
  820HK4    H1768821   8.051   6.412   5.707  1.1315  0.8105  0.9049
  820HK4    C3668822   7.986   6.450   5.502  0.4495  0.1676 -0.1167
  820HK4    H1868823   8.011   6.346   5.476  2.3406  0.5901 -0.0561
  820HK4    C3768824   7.943   6.548   5.414 -0.0560  0.1259  0.0815
  820HK4    H1968825   7.941   6.524   5.307  1.1027 -1.1604  0.3294
  820HK4    C3868826   7.933   6.680   5.455 -0.2736  0.0737  0.1918
  820HK4    H2068827   7.861   6.745   5.406 -1.3214 -0.0495  1.5292
  820HK4    C1468828   8.172   7.147   5.910  0.4301  0.2321 -0.0943
  820HK4     C968829   8.100   7.264   5.935 -0.1786 -0.2272  0.3100
  820HK4     C868830   8.169   7.381   5.974 -0.7895  0.0784  0.4789
  820HK4    C1168831   8.303   7.372   6.007 -0.5800  0.1692 -0.3491
  820HK4     H468832   8.340   7.463   6.056  2.2793  0.1741 -2.3710
  820HK4    C1268833   8.374   7.252   6.000 -0.2308  0.3549 -0.0126
  820HK4     H568834   8.483   7.245   6.017 -0.0912 -1.5306 -1.5527
  820HK4    C1368835   8.307   7.141   5.951  0.3148 -0.0844  0.2281
  820HK4     H668836   8.349   7.040   5.958 -0.0062 -0.2175  0.2585
  820HK4     C768837   8.097   7.510   5.985 -0.2514  0.4284 -0.1434
  820HK4     O268838   8.155   7.618   5.969  0.5601  0.0582  0.2645
  820HK4     C468839   7.951   7.509   5.966 -0.3195  0.4461  0.3583
  820HK4     C368840   7.883   7.629   5.983 -0.1572  0.4912  0.6804
  820HK4     H368841   7.920   7.705   6.054  2.5288  0.5212 -0.6823
  820HK4     C268842   7.758   7.649   5.925  0.1446 -0.3815 -0.2781
  820HK4     H268843   7.704   7.743   5.939  2.3463  1.0307 -0.9509
  820HK4     C168844   7.699   7.550   5.848 -0.5914 -0.2531  0.1215
  820HK4     H168845   7.603   7.566   5.797  0.8786 -0.4138 -2.8346
  820HK4     C668846   7.766   7.426   5.834 -0.0632  0.0206  0.2104
  820HK4     C568847   7.889   7.404   5.895  0.1828  0.4735 -0.1178
  820HK4    C1068848   7.952   7.270   5.915 -0.0824  0.3267 -0.2547
  820HK4     O168849   7.881   7.177   5.953  0.0480  0.2916 -0.0963
  820HK4    C1668850   7.743   7.345   5.713  0.7140 -0.0743  0.1310
  820HK4    C1568851   7.752   7.411   5.589  0.1385 -0.1772  0.0350
  820HK4     H768852   7.809   7.505   5.578 -2.4524  1.3280 -1.2297
  820HK4    C2068853   7.684   7.357   5.481  0.0025 -0.1401  0.1034
  820HK4     H968854   7.690   7.410   5.386 -3.0417  0.7805  0.3711
  820HK4    C1968855   7.612   7.238   5.489  0.0381 -0.1732 -0.0736
  820HK4    C1868856   7.613   7.167   5.615  0.2788 -0.0815 -0.0234
  820HK4    C1768857   7.671   7.227   5.727 -0.3111  0.5271 -0.0437
  820HK4     H868858   7.662   7.179   5.824 -1.2554 -0.8806 -0.8139
  820HK4     N168859   7.538   7.048   5.608  0.0452  0.0565  0.1225
  820HK4    C2168860   7.499   7.047   5.472 -0.1316  0.3797  0.1707
  820HK4    C2268861   7.533   7.164   5.393 -0.3381  0.2571 -0.0963
  820HK4    C2668862   7.476   7.197   5.270  0.1207 -0.5275 -0.5263
  820HK4    H1368863   7.476   7.302   5.241  0.0525 -0.2895  0.3113
  820HK4    C2568864   7.399   7.101   5.207 -0.9949  0.1387 -0.2025
  820HK4    H1268865   7.352   7.135   5.115 -0.9990  2.5750  0.6719
  820HK4    C2468866   7.375   6.980   5.272  0.2824  0.1672  0.3153
  820HK4    H1168867   7.317   6.909   5.211 -2.2512  1.4574  1.1890
  820HK4    C2368868   7.418   6.959   5.402  0.1509 -0.0091  0.3300
  820HK4    H1068869   7.427   6.852   5.420  4.3632  0.2624  0.4018
  820HK4    C3968870   7.560   6.936   5.688 -0.0017 -0.1978 -0.2208
  820HK4    C4168871   7.472   6.826   5.675 -0.2683 -0.0527  0.3460
  820HK4    H2168872   7.373   6.839   5.627 -1.0777  0.2088  2.0410
  820HK4    C4268873   7.501   6.701   5.728  0.1491 -0.1804 -0.1799
  820HK4    H2268874   7.421   6.625   5.735 -1.0819  1.2333  1.6907
  820HK4    C4368875   7.627   6.681   5.783  0.0307 -0.1561  0.0991
  820HK4    H2368876   7.648   6.592   5.842 -2.8905  1.6633  4.0816
  820HK4    C4468877   7.717   6.786   5.792  0.0411 -0.1574  0.0153
  820HK4    H2468878   7.810   6.766   5.847  0.0014 -1.2970 -0.3210
  820HK4    C4568879   7.686   6.913   5.746 -0.2003 -0.1371  0.2355
  820HK4    H2568880   7.758   6.994   5.766 -0.3206 -0.3309  1.4968
  821HK4    H2868881   6.563   1.220   3.748 -0.7989  0.5537  0.2481
  821HK4    C4868882   6.628   1.221   3.661 -0.4080  0.3502  0.5359
  821HK4    C4768883   6.725   1.124   3.638  0.2179  1.0637  0.1067
  821HK4    H2768884   6.789   1.091   3.722 -2.0026 -1.8259  0.7573
  821HK4    C4668885   6.765   1.097   3.508 -0.4427  0.4715  0.0239
  821HK4    H2668886   6.841   1.019   3.500 -0.2314  0.4174  2.2280
  821HK4    C4068887   6.715   1.163   3.394 -0.1685 -0.0307 -0.3867
  821HK4    C5068888   6.620   1.263   3.423  0.0286 -0.0705  0.4055
  821HK4    H3068889   6.570   1.315   3.339 -1.1281  1.7865  2.2086
  821HK4    C4968890   6.577   1.291   3.552 -0.3708 -0.0405  0.2675
  821HK4    H2968891   6.545   1.396   3.557  3.3445  1.1559  0.2550
  821HK4     N268892   6.759   1.155   3.261  0.1113 -0.0593 -0.2923
  821HK4    C3068893   6.893   1.128   3.229  0.2403  0.4074 -0.1452
  821HK4    C2968894   7.007   1.115   3.308 -0.1491 -0.2502  0.3070
  821HK4    H1568895   7.003   1.142   3.413 -1.2585  3.9333 -0.7175
  821HK4    C2868896   7.121   1.059   3.252 -0.3049 -0.1621 -0.1014
  821HK4    C2768897   7.126   1.004   3.122  0.6354  0.0819 -0.1777
  821HK4    H1468898   7.208   0.934   3.101  2.0725  2.3619 -2.4607
  821HK4    C3268899   7.017   1.032   3.040  0.1871  0.3498  0.5026
  821HK4    H1668900   7.022   1.015   2.933 -1.1102 -0.9241  0.6218
  821HK4    C3168901   6.899   1.088   3.090 -0.1319  0.2288 -0.1087
  821HK4    C3468902   6.765   1.090   3.035 -0.3714 -0.3340  0.4430
  821HK4    C3368903   6.682   1.139   3.143 -0.6883 -0.5190  0.2841
  821HK4    C3568904   6.559   1.195   3.112 -0.3984  0.1175  0.2561
  821HK4    H1768905   6.481   1.194   3.188 -0.1018 -0.7100  0.5535
  821HK4    C3668906   6.522   1.212   2.979  0.2210  0.6715  0.1540
  821HK4    H1868907   6.428   1.263   2.950 -0.3682  0.0171  0.8789
  821HK4    C3768908   6.600   1.161   2.876 -0.1627  0.4568 -0.0331
  821HK4    H1968909   6.565   1.163   2.773  0.7476 -2.4542 -0.4422
  821HK4    C3868910   6.725   1.107   2.903 -0.4221  0.1271  0.5155
  821HK4    H2068911   6.807   1.104   2.831 -0.6421 -1.9612  0.3130
  821HK4    C1468912   7.248   1.075   3.326 -0.2251 -0.5049 -0.1627
  821HK4     C968913   7.372   1.093   3.264 -0.1979  0.1808  0.0852
  821HK4     C868914   7.485   1.033   3.323 -0.3852 -0.2666 -0.0046
  821HK4    C1168915   7.481   0.973   3.448  0.1360 -0.2444  0.0245
  821HK4     H468916   7.572   0.942   3.503  0.4165 -1.3146 -1.0192
  821HK4    C1268917   7.361   0.977   3.517  0.0930 -0.6025 -0.0302
  821HK4     H568918   7.360   0.934   3.619 -1.7994 -1.4226 -0.3680
  821HK4    C1368919   7.244   1.024   3.457  0.3174  0.0930  0.0834
  821HK4     H668920   7.149   1.034   3.511  0.9873 -0.9361  1.4949
  821HK4     C768921   7.609   1.016   3.243 -0.3426 -0.3556  0.0804
  821HK4     O268922   7.711   0.980   3.301 -0.2500 -0.0745  0.0938
  821HK4     C468923   7.606   1.057   3.101  0.7625  0.4914  0.2927
  821HK4     C368924   7.706   1.018   3.014 -0.0184 -0.5700 -0.1379
  821HK4     H368925   7.790   0.960   3.055  0.0613 -1.5700 -1.6475
  821HK4     C268926   7.709   1.041   2.877 -0.2520  0.0444 -0.0401
  821HK4     H268927   7.796   1.019   2.812 -0.4050 -1.5852  0.2991
  821HK4     C168928   7.598   1.107   2.827 -0.4685 -0.3863 -0.1270
  821HK4     H168929   7.578   1.102   2.719  0.6353 -1.6338 -0.2819
  821HK4     C668930   7.493   1.158   2.907  0.3361  0.5906  0.3172
  821HK4     C568931   7.501   1.134   3.045  0.0174 -0.6369  0.1290
  821HK4    C1068932   7.386   1.164   3.134  0.1305  0.0463  0.0466
  821HK4     O168933   7.342   1.279   3.133  0.4354  0.1604 -0.5983
  821HK4    C1668934   7.429   1.275   2.846  0.1258 -0.1419 -0.8834
  821HK4    C1568935   7.511   1.379   2.798  0.0335  0.1754 -0.3509
  821HK4     H768936   7.616   1.365   2.828  0.2365 -0.0144 -1.1504
  821HK4    C2068937   7.462   1.473   2.708  0.2485  0.3305 -0.3062
  821HK4     H968938   7.522   1.545   2.653 -0.2811  0.1878 -1.0723
  821HK4    C1968939   7.329   1.462   2.669  0.1256 -0.0859  0.2228
  821HK4    C1868940   7.245   1.354   2.716 -0.2236  0.2541  0.3773
  821HK4    C1768941   7.295   1.264   2.810 -0.0730 -0.2019 -0.1404
  821HK4     H868942   7.228   1.199   2.865  0.1979 -0.3727 -0.0072
  821HK4     N168943   7.110   1.368   2.678 -0.1663 -0.0139  0.0778
  821HK4    C2168944   7.106   1.490   2.607 -0.0697 -0.0973 -0.0723
  821HK4    C2268945   7.237   1.552   2.602  0.0436 -0.3303  0.0089
  821HK4    C2668946   7.242   1.685   2.563 -0.2139 -0.3650 -0.1401
  821HK4    H1368947   7.339   1.734   2.560 -0.0477 -0.6651  0.2805
  821HK4    C2568948   7.131   1.762   2.531  0.1796  0.3661  0.2565
  821HK4    H1268949   7.141   1.865   2.495  0.8791 -0.7203 -2.7871
  821HK4    C2468950   7.006   1.701   2.540  0.2903  0.0492 -0.3872
  821HK4    H1168951   6.916   1.763   2.528  0.9543  1.3187  0.9989
  821HK4    C2368952   6.996   1.566   2.569  0.0828  0.1377 -0.0456
  821HK4    H1068953   6.922   1.511   2.510  2.4191 -2.1313 -0.9929
  821HK4    C3968954   7.026   1.259   2.650  0.2479 -0.1288 -0.7247
  821HK4    C4168955   6.887   1.273   2.634  0.1271 -0.1637  0.2439
  821HK4    H2168956   6.846   1.365   2.678  1.2593  0.0788  0.8105
  821HK4    C4268957   6.800   1.179   2.579  0.0700  0.0109  0.0361
  821HK4    H2268958   6.693   1.198   2.565  0.1553  0.9678  0.6465
  821HK4    C4368959   6.855   1.056   2.543  0.1035  0.0546 -0.0609
  821HK4    H2368960   6.798   0.968   2.513  0.0233  1.3618 -4.0014
  821HK4    C4468961   6.992   1.037   2.554  0.1617  0.0574 -0.7493
  821HK4    H2468962   7.031   0.939   2.522 -0.5013 -0.5086  0.1118
  821HK4    C4568963   7.076   1.135   2.605  0.2393 -0.4069  0.0295
  821HK4    H2568964   7.185   1.117   2.602  0.1629 -1.3451  1.9288
  822HK4    H2868965   3.897   4.700   8.807  1.7974 -1.3995 -0.5645
  822HK4    C4868966   3.919   4.793   8.754  0.1501 -0.5703  0.1710
  822HK4    C4768967   3.850   4.826   8.638  0.2523 -0.0570  0.2565
  822HK4    H2768968   3.772   4.759   8.599  2.5893 -1.2838 -2.5747
  822HK4    C4668969   3.879   4.940   8.564  0.6178 -0.5882 -0.4220
  822HK4    H2668970   3.817   4.977   8.481  0.3238 -2.8199 -1.2472
  822HK4    C4068971   3.979   5.030   8.605  0.0124 -0.0408 -0.1533
  822HK4    C5068972   4.058   4.988   8.714  0.1269  0.0805 -0.1887
  822HK4    H3068973   4.128   5.059   8.762 -0.4235 -0.0414  0.8141
  822HK4    C4968974   4.026   4.875   8.788 -0.3519  0.2319 -0.1661
  822HK4    H2968975   4.087   4.853   8.876  0.7296 -1.1524 -1.2236
  822HK4     N268976   4.026   5.129   8.518 -0.6937  0.0638 -0.4177
  822HK4    C3068977   4.031   5.121   8.377  0.0108 -0.4769 -0.3643
  822HK4    C2968978   4.028   5.016   8.286 -0.5192 -0.9837  0.2305
  822HK4    H1568979   4.066   4.923   8.328  0.6661  0.4269  2.3872
  822HK4    C2868980   4.012   5.031   8.149  0.1037 -0.1315  0.2430
  822HK4    C2768981   4.024   5.161   8.096 -0.3843 -0.2074 -0.0590
  822HK4    H1468982   4.020   5.178   7.987  1.1227  0.9378  0.0405
  822HK4    C3268983   4.039   5.274   8.176 -0.3187 -0.2273 -0.0436
  822HK4    H1668984   4.032   5.373   8.131  0.0189 -0.1178  0.1382
  822HK4    C3168985   4.045   5.251   8.313 -0.3109 -0.2923 -0.0561
  822HK4    C3468986   4.045   5.341   8.427 -0.2505 -0.1830 -0.1429
  822HK4    C3368987   4.037   5.265   8.550 -0.0392 -0.0729 -0.0624
  822HK4    C3568988   4.012   5.335   8.668 -0.3629 -0.9303  0.3855
  822HK4    H1768989   3.990   5.271   8.753 -2.1284 -0.3930  0.3406
  822HK4    C3668990   4.000   5.473   8.677  0.2969 -0.8616  0.2789
  822HK4    H1868991   3.971   5.517   8.773 -0.1165  2.1184 -1.1325
  822HK4    C3768992   4.010   5.545   8.558  0.3945 -0.3210  0.6123
  822HK4    H1968993   3.983   5.650   8.563  0.6612 -0.3125  1.9906
  822HK4    C3868994   4.027   5.478   8.437 -0.2481 -0.2247  0.4677
  822HK4    H2068995   4.012   5.533   8.344  0.8790 -0.9682 -0.1669
  822HK4    C1468996   3.984   4.912   8.067  0.0443 -0.3296  0.5552
  822HK4     C968997   4.006   4.912   7.929  0.2218 -0.7030  0.5858
  822HK4     C868998   3.908   4.853   7.847  0.1359  0.2135  0.0293
  822HK4    C1168999   3.799   4.786   7.900  0.0413 -0.2391 -0.7220
  822HK4     H469000   3.723   4.738   7.837 -2.3666 -0.3576  2.1426
  822HK4    C1269001   3.786   4.773   8.038  0.1661  0.2488 -0.6592
  822HK4     H569002   3.713   4.696   8.067 -0.4762  0.7606 -0.9388
  822HK4    C1369003   3.881   4.831   8.121 -0.1002 -0.4304  0.1304
  822HK4     H669004   3.889   4.787   8.221  1.5147  3.1773  1.7007
  822HK4     C769005   3.930   4.855   7.700 -0.0904 -0.3214 -0.0118
  822HK4     O269006   3.835   4.860   7.622 -0.4385  0.5991  0.4566
  822HK4     C469007   4.062   4.895   7.648 -0.3440  0.5515  0.0080
  822HK4     C369008   4.088   4.877   7.512 -0.3786  0.2419  0.0433
  822HK4     H369009   4.008   4.827   7.455 -0.6090 -1.0584  1.4494
  822HK4     C269010   4.188   4.942   7.442 -0.2817  0.0389 -0.0077
  822HK4     H269011   4.220   4.897   7.347  0.8322  1.5992 -0.3824
  822HK4     C169012   4.259   5.035   7.517  0.2394 -0.3730  0.0130
  822HK4     H169013   4.333   5.097   7.464 -1.0338  3.3297  2.3582
  822HK4     C669014   4.256   5.042   7.658  0.2772 -0.1209  0.0030
  822HK4     C569015   4.155   4.970   7.723  0.2473 -0.1267 -0.0484
  822HK4    C1069016   4.132   4.965   7.871 -0.3073 -0.2375 -0.1364
  822HK4     O169017   4.235   4.960   7.939 -0.2606 -0.1849 -0.2003
  822HK4    C1669018   4.377   5.100   7.718  0.1071 -0.0758  0.3007
  822HK4    C1569019   4.499   5.092   7.649 -0.1021  0.8777 -0.1839
  822HK4     H769020   4.519   5.002   7.589  0.4738 -0.2585  1.6737
  822HK4    C2069021   4.607   5.179   7.660  0.7368 -0.1262 -0.3380
  822HK4     H969022   4.704   5.164   7.612  0.4712 -2.4553 -0.1923
  822HK4    C1969023   4.590   5.282   7.752  0.1978 -0.0154 -0.5588
  822HK4    C1869024   4.469   5.294   7.832  0.3315 -0.0319 -0.3564
  822HK4    C1769025   4.363   5.208   7.804  0.1642 -0.0208  0.2401
  822HK4     H869026   4.262   5.227   7.838 -0.0356  1.4915 -1.0997
  822HK4     N169027   4.488   5.382   7.940 -0.3542 -0.1785 -0.1142
  822HK4    C2169028   4.618   5.434   7.924 -0.8175  0.8318 -0.6787
  822HK4    C2269029   4.683   5.378   7.807 -0.0846 -0.1728  0.1994
  822HK4    C2669030   4.808   5.427   7.769 -0.4719  0.5438 -0.1584
  822HK4    H1369031   4.869   5.384   7.691 -0.4473 -1.6564  1.0391
  822HK4    C2569032   4.879   5.526   7.835  0.0017  0.0519  0.0717
  822HK4    H1269033   4.984   5.547   7.811  0.3597 -0.2035  1.3753
  822HK4    C2469034   4.819   5.576   7.950 -0.1119 -0.0700  0.0645
  822HK4    H1169035   4.873   5.655   8.004 -2.1623 -0.3850  2.6906
  822HK4    C2369036   4.694   5.530   7.990 -0.2529  0.0750 -0.2088
  822HK4    H1069037   4.669   5.561   8.091 -0.0382  1.7913 -0.6684
  822HK4    C3969038   4.418   5.378   8.061  0.1872 -0.6050  0.1884
  822HK4    C4169039   4.422   5.497   8.135 -0.5990 -0.4299 -0.0446
  822HK4    H2169040   4.426   5.596   8.086  0.3689  0.1092  1.0940
  822HK4    C4269041   4.415   5.495   8.274  0.3440  0.4122  0.0218
  822HK4    H2269042   4.434   5.588   8.330  3.4739 -0.2573  0.1154
  822HK4    C4369043   4.398   5.373   8.337  0.6445  0.2420 -0.2288
  822HK4    H2369044   4.377   5.363   8.444  1.5892  1.0080  0.0289
  822HK4    C4469045   4.393   5.253   8.266 -0.8240 -0.0690  0.3769
  822HK4    H2469046   4.362   5.161   8.318  0.6771 -0.0782  1.2881
  822HK4    C4569047   4.406   5.254   8.128  1.1794 -0.5141  0.5409
  822HK4    H2569048   4.384   5.159   8.077 -0.1774  0.9604 -1.6999
  823HK4    H2869049  10.261   8.312   1.748  1.8529 -0.5055  1.4248
  823HK4    C4869050  10.276   8.220   1.692  0.3450  0.1472 -0.0893
  823HK4    C4769051  10.244   8.092   1.738 -0.8844  0.5022  0.0587
  823HK4    H2769052  10.244   8.081   1.848 -0.2169 -3.0176 -0.2354
  823HK4    C4669053  10.255   7.983   1.653  0.1439  0.4817  0.2052
  823HK4    H2669054  10.257   7.890   1.711 -0.2114  0.9973  1.0516
  823HK4    C4069055  10.289   7.998   1.517 -0.9435 -0.1507 -0.1479
  823HK4    C5069056  10.326   8.129   1.477 -0.2126 -0.3012  0.0163
  823HK4    H3069057  10.337   8.154   1.371  0.1046 -0.2574  0.0620
  823HK4    C4969058  10.324   8.238   1.563 -0.7661  0.1157 -0.5175
  823HK4    H2969059  10.361   8.339   1.539  0.4465 -0.0999  0.3653
  823HK4     N269060  10.269   7.898   1.421  0.1048 -0.0112 -0.5280
  823HK4    C3069061  10.188   7.784   1.440 -0.1689  0.2381 -0.1963
  823HK4    C2969062  10.072   7.767   1.516  0.4028  0.2223  0.6777
  823HK4    H1569063  10.042   7.849   1.580  0.2328  1.1562 -0.5934
  823HK4    C2869064   9.997   7.650   1.522  0.3768  0.2073  0.0776
  823HK4    C2769065  10.048   7.543   1.444  0.1362  0.1874 -0.0520
  823HK4    H1469066   9.986   7.457   1.416 -1.7858  1.0806  1.3200
  823HK4    C3269067  10.164   7.549   1.369 -0.1914 -0.1041 -0.5932
  823HK4    H1669068  10.224   7.468   1.327 -0.3628  0.1310 -1.2858
  823HK4    C3169069  10.225   7.673   1.355 -0.4438  0.0761 -0.1072
  823HK4    C3469070  10.336   7.728   1.278 -0.1853 -0.2221  0.0441
  823HK4    C3369071  10.355   7.867   1.314 -0.0095 -0.0835 -0.5973
  823HK4    C3569072  10.447   7.940   1.239 -0.0050  0.4460 -0.0805
  823HK4    H1769073  10.494   8.035   1.266  1.1059 -0.0687 -0.1764
  823HK4    C3669074  10.516   7.878   1.136 -0.2503 -0.0970  0.0810
  823HK4    H1869075  10.598   7.931   1.086 -0.8553  0.0174 -0.7838
  823HK4    C3769076  10.495   7.746   1.098  0.2685 -0.2067  0.1745
  823HK4    H1969077  10.559   7.694   1.026  0.0971 -1.2562  0.7736
  823HK4    C3869078  10.406   7.671   1.173  0.0789 -0.0399  0.1207
  823HK4    H2069079  10.384   7.568   1.145 -0.8255  0.2527 -0.2719
  823HK4    C1469080   9.889   7.622   1.618 -0.0294  0.1896 -0.3830
  823HK4     C969081   9.855   7.497   1.670 -0.1450  0.0433 -0.7997
  823HK4     C869082   9.720   7.458   1.684  0.0010 -0.0573  0.3860
  823HK4    C1169083   9.626   7.558   1.663 -0.1931 -0.3198 -0.0035
  823HK4     H469084   9.520   7.533   1.678 -0.1530 -0.6791 -0.2957
  823HK4    C1269085   9.654   7.689   1.627  0.3894 -0.3614  0.3000
  823HK4     H569086   9.577   7.766   1.618  0.7755 -0.0079 -0.0038
  823HK4    C1369087   9.788   7.719   1.604  0.2037  0.5434  0.3857
  823HK4     H669088   9.819   7.812   1.554 -2.0565  0.0549 -2.0443
  823HK4     C769089   9.681   7.324   1.734  0.0894 -0.1599  0.1826
  823HK4     O269090   9.570   7.283   1.703  0.0219  0.2788 -0.1632
  823HK4     C469091   9.789   7.234   1.780  0.3159 -0.0136 -0.0625
  823HK4     C369092   9.742   7.115   1.835 -0.0806  0.4271  0.5609
  823HK4     H369093   9.635   7.090   1.834  0.3705 -1.6456  0.6802
  823HK4     C269094   9.831   7.025   1.893  0.1714 -0.1591 -0.7126
  823HK4     H269095   9.796   6.937   1.948 -0.8505  0.8907  0.3477
  823HK4     C169096   9.966   7.060   1.881  0.2517 -0.2390 -0.0160
  823HK4     H169097  10.029   6.985   1.931 -2.3132 -0.6492  2.7963
  823HK4     C669098  10.015   7.169   1.806  0.1690 -0.4774 -0.4119
  823HK4     C569099   9.925   7.266   1.762  0.3618  0.0934  0.4567
  823HK4    C1069100   9.962   7.401   1.709 -0.3552  0.4645  0.8813
  823HK4     O169101  10.063   7.453   1.756  0.3064  0.2671 -0.3070
  823HK4    C1669102  10.162   7.168   1.797  0.1897  0.3251 -0.0978
  823HK4    C1569103  10.235   7.106   1.901 -0.0320  0.4931  0.1618
  823HK4     H769104  10.200   7.106   2.005 -0.6806 -0.0398 -0.0554
  823HK4    C2069105  10.358   7.047   1.873 -0.3854 -0.2667  0.2146
  823HK4     H969106  10.427   7.009   1.949 -1.8134 -1.1230  1.1063
  823HK4    C1969107  10.418   7.064   1.749 -0.0603 -0.1772  0.3828
  823HK4    C1869108  10.357   7.149   1.649  0.0048 -0.5867 -0.0051
  823HK4    C1769109  10.228   7.193   1.678  0.6285  1.0484  0.2908
  823HK4     H869110  10.173   7.250   1.603 -3.2190  0.6752  2.7425
  823HK4     N169111  10.435   7.169   1.534 -0.1794  0.0612 -0.0166
  823HK4    C2169112  10.546   7.085   1.557 -0.0797  0.1820 -0.0541
  823HK4    C2269113  10.537   7.014   1.684 -0.0146  0.3644  0.0540
  823HK4    C2669114  10.632   6.928   1.737  0.1320  0.5049  0.0186
  823HK4    H1369115  10.618   6.874   1.830 -0.5164  1.3694  0.4208
  823HK4    C2569116  10.753   6.915   1.669 -0.0898 -0.8699 -0.1448
  823HK4    H1269117  10.838   6.856   1.704 -0.4798 -2.1499 -1.3530
  823HK4    C2469118  10.769   6.980   1.547 -0.5774  0.2238  0.3665
  823HK4    H1169119  10.855   6.943   1.490 -2.1995 -1.3526 -1.1466
  823HK4    C2369120  10.672   7.069   1.501 -0.0881  0.4776 -0.1636
  823HK4    H1069121  10.706   7.135   1.420  1.1981  0.3048  0.2195
  823HK4    C3969122  10.446   7.287   1.459 -0.1113  0.0879  0.0356
  823HK4    C4169123  10.522   7.289   1.341 -0.5449  0.0411 -0.2428
  823HK4    H2169124  10.513   7.196   1.282  0.7217 -1.4429  1.8513
  823HK4    C4269125  10.602   7.395   1.300 -0.0346 -0.4548 -0.5460
  823HK4    H2269126  10.671   7.383   1.215 -1.0959  1.2233 -1.6800
  823HK4    C4369127  10.594   7.510   1.377 -0.5952  0.0900 -1.4047
  823HK4    H2369128  10.634   7.601   1.331  1.7644  0.0996  0.5260
  823HK4    C4469129  10.508   7.521   1.485  0.6349  0.2785 -0.4246
  823HK4    H2469130  10.508   7.606   1.554  1.8405 -0.0264 -0.0385
  823HK4    C4569131  10.433   7.411   1.526  0.4193  0.4135 -0.4572
  823HK4    H2569132  10.353   7.432   1.598  0.1896  1.0488 -0.8917
  824HK4    H2869133   4.344   8.760   0.704 -1.5639 -2.9979  0.9174
  824HK4    C4869134   4.314   8.760   0.599  0.1143  0.2503  0.3952
  824HK4    C4769135   4.222   8.854   0.553  0.0966  0.0394  0.0124
  824HK4    H2769136   4.174   8.922   0.625 -2.8509 -1.9613  0.0350
  824HK4    C4669137   4.179   8.867   0.421  0.0197 -0.3922 -0.0067
  824HK4    H2669138   4.115   8.950   0.388  0.1031 -0.1967  0.3122
  824HK4    C4069139   4.232   8.782   0.322  0.3050 -0.5131  0.2472
  824HK4    C5069140   4.331   8.689   0.360  0.3967 -0.3146  0.4935
  824HK4    H3069141   4.335   8.597   0.300  1.8042 -0.3791  0.6703
  824HK4    C4969142   4.362   8.682   0.495 -0.4083 -0.4607  0.6776
  824HK4    H2969143   4.426   8.600   0.530  0.1071 -0.5026 -0.3331
  824HK4     N269144   4.198   8.780   0.186 -0.5390  0.2630  0.4401
  824HK4    C3069145   4.157   8.899   0.122  0.1465  0.1626 -0.1973
  824HK4    C2969146   4.188   9.029   0.161 -0.2327  0.0845  0.3821
  824HK4    H1569147   4.263   9.048   0.238 -0.6817 -0.8034  1.0455
  824HK4    C2869148   4.109   9.131   0.109 -0.3171 -0.3959 -0.4394
  824HK4    C2769149   4.010   9.110   0.010 -0.5923 -0.2689 -0.1886
  824HK4    H1469150   3.949   9.198  11.234  2.4786  1.2482 -2.8411
  824HK4    C3269151   3.979   8.978  11.228 -0.1602 -0.3295 -0.3781
  824HK4    H1669152   3.895   8.949  11.164 -0.4860 -1.8885  0.7250
  824HK4    C3169153   4.055   8.870   0.024  0.1019 -0.0296 -0.0949
  824HK4    C3469154   4.042   8.726   0.018 -0.0355 -0.0241  0.0309
  824HK4    C3369155   4.123   8.676   0.127  0.1343  0.0569 -0.0587
  824HK4    C3569156   4.100   8.545   0.168 -0.7554  0.2240 -0.0072
  824HK4    H1769157   4.179   8.498   0.227  0.3409  0.6615 -1.1010
  824HK4    C3669158   3.997   8.470   0.113  0.0175 -0.6792 -0.2349
  824HK4    H1869159   3.968   8.371   0.150 -1.8850 -0.5329 -1.2734
  824HK4    C3769160   3.920   8.517   0.007  0.3926 -0.1712 -0.2851
  824HK4    H1969161   3.844   8.445  11.223 -1.8325  1.3185  1.4386
  824HK4    C3869162   3.946   8.645  11.208  0.3165 -0.1766 -0.3389
  824HK4    H2069163   3.900   8.672  11.113 -1.2444 -1.8374 -0.1059
  824HK4    C1469164   4.110   9.260   0.178  0.2266 -0.6692  0.0672
  824HK4     C969165   4.003   9.349   0.195  0.4642 -0.3411 -0.1750
  824HK4     C869166   4.022   9.489   0.197 -0.1233 -0.2686  0.5160
  824HK4    C1169167   4.151   9.538   0.189 -0.1982 -0.0842  0.4429
  824HK4     H469168   4.163   9.639   0.149  0.4326 -1.5843 -3.4240
  824HK4    C1269169   4.262   9.454   0.181 -0.1222  0.1018 -0.4232
  824HK4     H569170   4.356   9.504   0.152 -0.6732  1.3340 -0.1341
  824HK4    C1369171   4.239   9.318   0.174 -0.0668  0.0356  0.6618
  824HK4     H669172   4.320   9.253   0.137 -2.1451 -1.2053 -1.8994
  824HK4     C769173   3.905   9.579   0.183  0.1272 -0.1397 -0.8142
  824HK4     O269174   3.911   9.698   0.211 -0.0699 -0.3760  0.2983
  824HK4     C469175   3.771   9.526   0.148 -0.1932  0.0385  0.1032
  824HK4     C369176   3.672   9.610   0.099  0.3102  0.3472 -0.3937
  824HK4     H369177   3.689   9.719   0.092  0.1678  0.2762 -2.0819
  824HK4     C269178   3.552   9.565   0.045  0.3617 -0.2646 -0.0034
  824HK4     H269179   3.466   9.627   0.016  0.1036 -0.4133  0.4637
  824HK4     C169180   3.537   9.427   0.052  0.0524 -0.2387 -0.1474
  824HK4     H169181   3.444   9.381   0.015  1.5288 -1.6854 -2.1342
  824HK4     C669182   3.637   9.338   0.097 -0.0425 -0.1715  0.1946
  824HK4     C569183   3.751   9.387   0.160 -0.3245  0.0926  0.5005
  824HK4    C1069184   3.863   9.299   0.204  0.2070  0.3363 -0.3642
  824HK4     O169185   3.847   9.206   0.282 -0.2484  0.1676 -0.6595
  824HK4    C1669186   3.647   9.210   0.026  0.3901 -0.0103 -0.0409
  824HK4    C1569187   3.635   9.197  11.134  0.2494  0.3802 -0.0622
  824HK4     H769188   3.651   9.289  11.077  4.8526  0.8917  1.8699
  824HK4    C2069189   3.618   9.076  11.068  0.7098  0.2502  0.0580
  824HK4     H969190   3.635   9.078  10.961  0.8551  0.2126  0.0810
  824HK4    C1969191   3.609   8.958  11.141  0.7742  0.1781 -0.0549
  824HK4    C1869192   3.628   8.966   0.036  0.0439  0.2064  0.0419
  824HK4    C1769193   3.648   9.090   0.096  0.1443  0.1208  0.1868
  824HK4     H869194   3.645   9.085   0.205  1.0087 -0.4752  0.1906
  824HK4     N169195   3.623   8.835   0.090 -0.1146  0.2254  0.0751
  824HK4    C2169196   3.595   8.749  11.231 -0.0536  0.3360 -0.0305
  824HK4    C2269197   3.572   8.821  11.107 -0.1744  0.4069  0.0334
  824HK4    C2669198   3.524   8.753  10.996  0.0882  0.1321  0.0883
  824HK4    H1369199   3.501   8.807  10.904  0.4780  0.6263  0.2775
  824HK4    C2569200   3.483   8.621  11.005 -0.5025  0.3469  0.5574
  824HK4    H1269201   3.445   8.569  10.917 -1.3105 -1.3851  1.8983
  824HK4    C2469202   3.501   8.557  11.127 -0.0272  0.1015  0.3578
  824HK4    H1169203   3.468   8.452  11.134 -2.3526  0.9274  2.4262
  824HK4    C2369204   3.561   8.615  11.238  0.5216  0.1932  0.0186
  824HK4    H1069205   3.578   8.549   0.076  0.7044  1.1570  0.7380
  824HK4    C3969206   3.662   8.799   0.220 -0.0810  0.1911  0.0552
  824HK4    C4169207   3.600   8.693   0.289  0.1175 -0.1967 -0.3569
  824HK4    H2169208   3.503   8.660   0.250  0.1418 -1.2374  0.4538
  824HK4    C4269209   3.641   8.647   0.413  0.5107  0.8890 -0.0775
  824HK4    H2269210   3.585   8.572   0.472  1.3535 -0.0969 -0.5121
  824HK4    C4369211   3.751   8.707   0.472  0.3008  0.5817  0.6427
  824HK4    H2369212   3.782   8.682   0.573  4.8242  0.4906 -0.6610
  824HK4    C4469213   3.814   8.813   0.406  0.8975 -0.4068 -0.3943
  824HK4    H2469214   3.874   8.876   0.473 -2.5947  1.6967  0.8773
  824HK4    C4569215   3.775   8.858   0.281  0.1144 -0.0852 -0.0340
  824HK4    H2569216   3.834   8.930   0.223  1.3770  0.7323  2.1864
  825HK4    H2869217   1.981   3.625   1.457  0.2728 -0.4712 -0.4688
  825HK4    C4869218   1.953   3.697   1.380  0.5508 -0.0293 -0.1588
  825HK4    C4769219   1.976   3.833   1.396 -0.2167  0.1345 -0.4544
  825HK4    H2769220   2.039   3.867   1.479 -1.7212  2.2593 -0.1360
  825HK4    C4669221   1.920   3.921   1.304 -0.2103  0.2742 -0.3251
  825HK4    H2669222   1.941   4.028   1.321  0.0322  0.1324  0.2705
  825HK4    C4069223   1.844   3.875   1.194  0.1232  0.2401 -0.5440
  825HK4    C5069224   1.824   3.736   1.186  0.4572  0.1596 -0.0151
  825HK4    H3069225   1.757   3.688   1.113  0.4556 -2.0129  1.3370
  825HK4    C4969226   1.875   3.645   1.278  0.2546  0.0735  0.0128
  825HK4    H2969227   1.834   3.542   1.278  0.4330 -0.0012 -1.1450
  825HK4     N269228   1.771   3.966   1.116 -0.0293  0.6092  0.0235
  825HK4    C3069229   1.718   4.090   1.156  0.1533  0.6489  0.1451
  825HK4    C2969230   1.667   4.123   1.281  0.1440 -0.1998  0.3679
  825HK4    H1569231   1.695   4.055   1.361  0.9029 -1.6314 -1.0921
  825HK4    C2869232   1.577   4.228   1.296 -0.2223 -0.4222 -0.2645
  825HK4    C2769233   1.536   4.298   1.181 -0.2262  0.2687  0.1562
  825HK4    H1469234   1.467   4.384   1.190 -0.2255  0.2779  0.0785
  825HK4    C3269235   1.583   4.272   1.053  0.1458  0.3810  0.2695
  825HK4    H1669236   1.558   4.333   0.965  0.2726 -0.2166 -0.1833
  825HK4    C3169237   1.676   4.170   1.042 -0.3071  0.0085 -0.1354
  825HK4    C3469238   1.731   4.104   0.925  0.2150  0.0385  0.0914
  825HK4    C3369239   1.784   3.979   0.977  0.0894 -0.0671 -0.0335
  825HK4    C3569240   1.865   3.902   0.894  0.4100  0.6329 -0.3821
  825HK4    H1769241   1.912   3.810   0.929 -0.7947 -0.6592 -2.0501
  825HK4    C3669242   1.886   3.943   0.763  0.8540  0.5285 -0.3425
  825HK4    H1869243   1.948   3.884   0.693  0.9556 -0.3245  0.4578
  825HK4    C3769244   1.832   4.060   0.711  0.5675  0.6553  0.2351
  825HK4    H1969245   1.855   4.086   0.608 -1.6275  0.9913 -0.2010
  825HK4    C3869246   1.757   4.142   0.794  0.2401  0.3930  0.1994
  825HK4    H2069247   1.721   4.239   0.758  3.2491  0.9800 -1.3394
  825HK4    C1469248   1.523   4.256   1.430 -0.1202  0.3399 -0.3836
  825HK4     C969249   1.412   4.338   1.453 -0.2786 -0.0639  0.3132
  825HK4     C869250   1.424   4.445   1.544 -0.0333  0.0456  0.1545
  825HK4    C1169251   1.541   4.467   1.617  0.1999  0.8843 -0.4695
  825HK4     H469252   1.551   4.557   1.679  1.5659  0.3619  0.0751
  825HK4    C1269253   1.643   4.373   1.614 -0.1134  0.5349 -0.2835
  825HK4     H569254   1.735   4.386   1.674  0.4049  0.4012 -1.0418
  825HK4    C1369255   1.631   4.273   1.519 -0.5109  0.2045  0.1160
  825HK4     H669256   1.706   4.192   1.525 -1.7117 -1.1138 -1.9326
  825HK4     C769257   1.307   4.525   1.584 -0.1267  0.1616 -0.3611
  825HK4     O269258   1.310   4.637   1.635 -0.1525 -0.2197  0.4825
  825HK4     C469259   1.172   4.475   1.551 -0.2720  0.0209  0.4441
  825HK4     C369260   1.060   4.540   1.601 -0.2108  0.6809 -0.2761
  825HK4     H369261   1.070   4.623   1.672 -0.6134  0.4893  0.0069
  825HK4     C269262   0.934   4.488   1.571 -0.0533  0.0878  0.0990
  825HK4     H269263   0.846   4.547   1.598  1.8717  3.0286  0.2229
  825HK4     C169264   0.916   4.364   1.510 -0.0577  0.1790 -0.0858
  825HK4     H169265   0.823   4.324   1.468  1.2663 -1.6705 -1.3600
  825HK4     C669266   1.031   4.291   1.471 -0.0652 -0.0838  0.3905
  825HK4     C569267   1.155   4.355   1.478 -0.1913  0.1864  0.1491
  825HK4    C1069268   1.275   4.299   1.409 -0.2563 -0.0139  0.1999
  825HK4     O169269   1.263   4.258   1.294  0.4731  0.3208  0.0022
  825HK4    C1669270   1.014   4.147   1.450  0.3875 -0.0796 -0.0094
  825HK4    C1569271   0.894   4.085   1.409  0.4065  0.0964 -0.3320
  825HK4     H769272   0.811   4.145   1.368 -0.5122  0.9706  2.6320
  825HK4    C2069273   0.868   3.950   1.429 -0.2932  0.2741 -0.0078
  825HK4     H969274   0.769   3.906   1.412 -0.4077 -0.6618  2.7691
  825HK4    C1969275   0.961   3.865   1.486 -0.2355  0.0620 -0.4142
  825HK4    C1869276   1.084   3.926   1.534 -0.2799 -0.3200  0.1965
  825HK4    C1769277   1.105   4.061   1.510 -0.0327 -0.3509  0.2493
  825HK4     H869278   1.200   4.103   1.545 -0.4526 -0.3590  1.4169
  825HK4     N169279   1.173   3.833   1.590  0.2058 -0.3075 -0.5508
  825HK4    C2169280   1.106   3.710   1.573 -0.1878 -0.1773  0.0775
  825HK4    C2269281   0.974   3.723   1.514 -0.0459  0.1248 -0.1731
  825HK4    C2669282   0.889   3.613   1.518  0.0356  0.0818  0.3479
  825HK4    H1369283   0.790   3.625   1.474  0.5511  3.5744 -0.0012
  825HK4    C2569284   0.925   3.495   1.582  0.1988 -0.0408  0.0266
  825HK4    H1269285   0.863   3.406   1.574 -0.6553  0.5953 -0.4949
  825HK4    C2469286   1.054   3.480   1.633 -0.0417  0.3163  0.7345
  825HK4    H1169287   1.109   3.393   1.669  2.0357  1.7753  1.1801
  825HK4    C2369288   1.141   3.588   1.630  0.1124  0.1907  0.6922
  825HK4    H1069289   1.242   3.573   1.667  0.3548  2.6743  1.1214
  825HK4    C3969290   1.312   3.841   1.571  0.2854 -0.4300 -0.0432
  825HK4    C4169291   1.400   3.788   1.668  0.1826 -0.0999  0.2306
  825HK4    H2169292   1.372   3.772   1.773  1.5310  0.8306  0.7440
  825HK4    C4269293   1.533   3.759   1.640  0.1829 -0.0207  0.1477
  825HK4    H2269294   1.600   3.741   1.725  2.7979  0.1522 -1.8410
  825HK4    C4369295   1.582   3.784   1.512 -0.3359  0.4002  0.0293
  825HK4    H2369296   1.679   3.750   1.478  1.5798  2.1522  3.4359
  825HK4    C4469297   1.508   3.855   1.418 -0.1086  0.3721 -0.1710
  825HK4    H2469298   1.550   3.890   1.323  0.6966  0.8837  0.3619
  825HK4    C4569299   1.372   3.866   1.446 -0.0836  0.4048 -0.0584
  825HK4    H2569300   1.306   3.902   1.365 -1.2757 -0.7744  0.3684
  826HK4    H2869301  10.869   3.935   1.267 -0.7502  0.5914  0.2813
  826HK4    C4869302  10.881   3.867   1.351  0.3713  0.4013 -0.0278
  826HK4    C4769303  10.874   3.902   1.485 -0.4189 -0.1732  0.0842
  826HK4    H2769304  10.862   4.010   1.505 -0.0401 -0.3745  1.5286
  826HK4    C4669305  10.896   3.808   1.586  0.2871  0.0539  0.1452
  826HK4    H2669306  10.891   3.841   1.691 -3.0066 -0.9464  0.3504
  826HK4    C4069307  10.923   3.673   1.557 -0.5576 -0.1110  0.1089
  826HK4    C5069308  10.923   3.639   1.420  0.1155  0.0222  0.0698
  826HK4    H3069309  10.940   3.536   1.384  0.7166 -0.1436  0.8136
  826HK4    C4969310  10.902   3.733   1.321 -0.5408  0.1724  0.3476
  826HK4    H2969311  10.856   3.692   1.230 -2.2250 -0.2024  1.3449
  826HK4     N269312  10.974   3.576   1.644 -0.3874  0.0940  0.2373
  826HK4    C3069313  11.044   3.603   1.763  0.1616 -0.1790 -0.0170
  826HK4    C2969314  11.075   3.723   1.827 -0.0234 -0.2360  0.1796
  826HK4    H1569315  11.084   3.809   1.761 -1.0686  0.3896  0.8550
  826HK4    C2869316  11.129   3.724   1.955  0.0699 -0.2803  0.1409
  826HK4    C2769317  11.165   3.604   2.019  0.5106 -0.1129  0.2113
  826HK4    H1469318  11.219   3.614   2.115  0.6496 -1.8782  0.3356
  826HK4    C3269319  11.147   3.482   1.954  0.2147 -0.2010  0.4562
  826HK4    H1669320  11.178   3.388   2.000  1.7249  1.2416  2.5238
  826HK4    C3169321  11.093   3.482   1.826 -0.1869  0.0117  0.6249
  826HK4    C3469322  11.044   3.377   1.739  0.2356  0.1549  0.2138
  826HK4    C3369323  10.967   3.436   1.632  0.0928  0.0654  0.2656
  826HK4    C3569324  10.903   3.358   1.536  0.7207  0.2756 -0.3259
  826HK4    H1769325  10.808   3.395   1.497  0.5179  1.2255  1.0644
  826HK4    C3669326  10.933   3.222   1.532 -0.7255 -0.0759  0.8269
  826HK4    H1869327  10.898   3.161   1.448  0.6603 -1.8058  1.4810
  826HK4    C3769328  11.013   3.163   1.629  0.2032  0.1056  0.1723
  826HK4    H1969329  11.043   3.058   1.624 -1.3994 -0.3806  0.5319
  826HK4    C3869330  11.059   3.239   1.736  0.1684  0.1491  0.1563
  826HK4    H2069331  11.126   3.192   1.808  2.6200  0.8967 -1.5677
  826HK4    C1469332  11.157   3.857   2.010 -0.0636 -0.3425  0.3615
  826HK4     C969333  11.242   3.878   2.119  0.2991 -0.0051  0.0166
  826HK4     C869334  11.206   3.965   2.224  0.4396  0.3728 -0.2465
  826HK4    C1169335  11.097   4.049   2.208  0.0020 -0.2259 -0.4682
  826HK4     H469336  11.056   4.121   2.281  0.9046  1.3725 -1.5103
  826HK4    C1269337  11.029   4.049   2.087 -0.7114 -0.2074 -0.0677
  826HK4     H569338  10.957   4.126   2.056  0.3186  1.1178  0.7877
  826HK4    C1369339  11.057   3.954   1.989 -0.7555 -0.9909  0.6674
  826HK4     H669340  11.007   3.965   1.892  0.8623  0.8532  0.0045
  826HK4     C769341   0.024   3.947   2.355  0.1330 -0.1073 -0.1554
  826HK4     O269342   0.000   4.032   2.441  0.0281 -0.0539 -0.2363
  826HK4     C469343   0.133   3.848   2.366  0.0414 -0.1746  0.1556
  826HK4     C369344   0.174   3.803   2.491 -0.3343 -0.3626  0.2133
  826HK4     H369345   0.122   3.828   2.584 -1.5008 -0.7706 -0.3283
  826HK4     C269346   0.284   3.719   2.504  0.2887  0.4501  0.2918
  826HK4     H269347   0.301   3.669   2.601 -1.4062 -0.7292  0.0112
  826HK4     C169348   0.358   3.692   2.389 -0.0977 -0.0337  0.1555
  826HK4     H169349   0.464   3.673   2.410  0.1744  0.4285 -0.7834
  826HK4     C669350   0.329   3.744   2.262 -0.1207  0.2302  0.2675
  826HK4     C569351   0.206   3.811   2.251 -0.1978  0.0384 -0.0665
  826HK4    C1069352   0.131   3.818   2.123  0.1380 -0.3938 -0.2889
  826HK4     O169353   0.186   3.796   2.015  0.5636  0.2323 -0.1955
  826HK4    C1669354   0.417   3.692   2.156 -0.4281  0.2699 -0.0111
  826HK4    C1569355   0.479   3.569   2.187 -0.2236  0.3668 -0.0356
  826HK4     H769356   0.418   3.483   2.219  2.4832 -2.5755 -2.4346
  826HK4    C2069357   0.612   3.552   2.149 -0.2558  0.1263 -0.0411
  826HK4     H969358   0.666   3.473   2.201 -1.7409 -1.9850 -1.6260
  826HK4    C1969359   0.681   3.650   2.079 -0.3672  0.0260 -0.2909
  826HK4    C1869360   0.609   3.763   2.022 -0.3820  0.1260 -0.0708
  826HK4    C1769361   0.484   3.785   2.079 -0.3176  0.2267  0.0328
  826HK4     H869362   0.435   3.882   2.065  1.9786  1.5183  0.5055
  826HK4     N169363   0.692   3.839   1.936 -0.0364 -0.3583 -0.1678
  826HK4    C2169364   0.823   3.789   1.952 -0.0467 -0.3251  0.0253
  826HK4    C2269365   0.815   3.665   2.027 -0.1974 -0.3020  0.0481
  826HK4    C2669366   0.930   3.593   2.055  0.1236  0.0569 -0.3246
  826HK4    H1369367   0.922   3.491   2.095 -0.8990  0.8999  1.7044
  826HK4    C2569368   1.047   3.634   1.993  0.5243 -0.0728  0.3341
  826HK4    H1269369   1.141   3.586   2.020  0.4615  0.1107  0.8781
  826HK4    C2469370   1.055   3.749   1.915  0.3383  0.0820  0.5394
  826HK4    H1169371   1.155   3.793   1.898  0.4104 -0.4341 -0.4239
  826HK4    C2369372   0.942   3.826   1.891 -0.0442 -0.6961 -0.1950
  826HK4    H1069373   0.941   3.879   1.796 -0.0909 -0.7088 -0.2015
  826HK4    C3969374   0.642   3.918   1.832 -0.2624 -0.0413  0.1804
  826HK4    C4169375   0.723   4.022   1.781 -0.2513  0.1713  0.6256
  826HK4    H2169376   0.792   4.081   1.844 -2.0445 -0.4833  3.3261
  826HK4    C4269377   0.675   4.096   1.673  0.6564 -0.4595 -0.2086
  826HK4    H2269378   0.734   4.184   1.644 -0.7103  0.1610 -1.1413
  826HK4    C4369379   0.554   4.065   1.614  0.6266  0.2706 -0.5243
  826HK4    H2369380   0.508   4.126   1.535 -1.5775 -2.1432 -1.1745
  826HK4    C4469381   0.467   3.971   1.668  0.1786  0.9618 -0.0214
  826HK4    H2469382   0.381   3.934   1.610  1.2623  1.5703 -2.1064
  826HK4    C4569383   0.515   3.898   1.776  0.0423  0.0702 -0.5540
  826HK4    H2569384   0.446   3.834   1.833  0.5330 -0.4326 -0.5237
  827HK4    H2869385   7.841   0.534   3.347 -2.3782 -1.3376  0.7364
  827HK4    C4869386   7.809   0.524   3.243 -0.8508 -0.0835  0.1144
  827HK4    C4769387   7.822   0.636   3.162 -0.2608 -0.3337 -0.1376
  827HK4    H2769388   7.891   0.717   3.189  0.4019 -0.8794 -0.1751
  827HK4    C4669389   7.777   0.636   3.030 -0.2635  0.2024 -0.1377
  827HK4    H2669390   7.810   0.719   2.966 -0.3651  0.9496  0.7685
  827HK4    C4069391   7.715   0.519   2.983 -0.4325  0.2864 -0.1212
  827HK4    C5069392   7.715   0.401   3.060  0.5323  0.1501 -0.3327
  827HK4    H3069393   7.667   0.308   3.027 -1.1190  0.3103  1.5048
  827HK4    C4969394   7.755   0.405   3.194 -0.2381 -0.2773 -0.0862
  827HK4    H2969395   7.751   0.311   3.251  2.0693  1.2524  2.7424
  827HK4     N269396   7.694   0.500   2.845 -0.2056 -0.1554 -0.0973
  827HK4    C3069397   7.755   0.567   2.737  0.3105 -0.1114  0.2168
  827HK4    C2969398   7.873   0.639   2.726  0.1005  0.3184  0.7196
  827HK4    H1569399   7.942   0.627   2.810 -0.6225 -1.4389  1.0770
  827HK4    C2869400   7.920   0.687   2.604 -0.4644 -0.2050  0.2934
  827HK4    C2769401   7.851   0.654   2.486  0.6078 -0.5469 -0.2411
  827HK4    H1469402   7.903   0.684   2.393  1.5330  1.1182  0.7901
  827HK4    C3269403   7.733   0.579   2.487  0.4197 -0.2507 -0.2699
  827HK4    H1669404   7.678   0.548   2.399 -1.3748 -0.3554  0.8602
  827HK4    C3169405   7.686   0.542   2.612  0.9944 -0.4163 -0.1002
  827HK4    C3469406   7.574   0.457   2.647  0.4676  0.3027 -0.0205
  827HK4    C3369407   7.586   0.429   2.789 -0.1105 -0.3085 -0.0870
  827HK4    C3569408   7.474   0.376   2.851 -0.1383 -0.4375 -0.2479
  827HK4    H1769409   7.465   0.366   2.960  0.5849 -0.3044 -0.1783
  827HK4    C3669410   7.359   0.343   2.779 -0.3251 -0.2214 -0.0551
  827HK4    H1869411   7.270   0.306   2.832 -0.2151 -0.9879 -0.3970
  827HK4    C3769412   7.351   0.368   2.643 -0.2731  0.3053  0.0388
  827HK4    H1969413   7.280   0.316   2.579 -0.9648 -1.3423  2.0952
  827HK4    C3869414   7.460   0.423   2.575  0.3200 -0.3038  0.4955
  827HK4    H2069415   7.447   0.467   2.477 -2.2556 -1.6508  0.1721
  827HK4    C1469416   7.985   0.818   2.620 -0.2234 -0.2887 -0.0100
  827HK4     C969417   7.955   0.928   2.538 -0.0727  0.0467  0.3869
  827HK4     C869418   8.060   1.015   2.504 -0.0272 -0.3289 -0.4363
  827HK4    C1169419   8.187   1.000   2.558 -0.1532  0.0377 -0.0377
  827HK4     H469420   8.276   1.036   2.503 -1.4512  1.3537 -1.3429
  827HK4    C1269421   8.207   0.902   2.654 -0.6848 -0.5232 -0.4944
  827HK4     H569422   8.294   0.919   2.720 -0.6966  0.7819 -0.7931
  827HK4    C1369423   8.108   0.811   2.689 -0.4206 -0.5076  0.3210
  827HK4     H669424   8.119   0.757   2.784  0.1095 -2.7127 -0.9637
  827HK4     C769425   8.044   1.133   2.416 -0.5661  0.4105  0.6382
  827HK4     O269426   8.124   1.226   2.413  0.1543 -0.2299 -0.4633
  827HK4     C469427   7.913   1.152   2.349 -0.3223  0.3979  0.1595
  827HK4     C369428   7.903   1.250   2.251  0.5052 -0.0350 -0.3660
  827HK4     H369429   7.986   1.320   2.230 -0.1338  0.4225 -1.4385
  827HK4     C269430   7.782   1.270   2.185  0.1655 -0.4236  0.1378
  827HK4     H269431   7.751   1.347   2.113 -0.5951 -1.2516 -0.4214
  827HK4     C169432   7.676   1.186   2.215 -0.0776 -0.3454 -0.5129
  827HK4     H169433   7.583   1.197   2.156  0.5740 -0.5850 -1.6027
  827HK4     C669434   7.683   1.083   2.311  0.0076 -0.0417 -0.1931
  827HK4     C569435   7.804   1.068   2.380 -0.0540 -0.0478 -0.0874
  827HK4    C1069436   7.820   0.969   2.490  0.0742  0.0498 -0.0169
  827HK4     O169437   7.728   0.931   2.562 -0.0637 -0.3782 -0.4159
  827HK4    C1669438   7.583   0.977   2.297  0.7872 -0.8185  0.0617
  827HK4    C1569439   7.542   0.928   2.171 -0.1121  0.7892 -0.2754
  827HK4     H769440   7.599   0.965   2.085  0.5105  0.4159 -0.0217
  827HK4    C2069441   7.444   0.832   2.150  0.0509  0.6202 -0.2599
  827HK4     H969442   7.402   0.805   2.053  0.5531 -1.5440  0.1114
  827HK4    C1969443   7.369   0.785   2.258  0.0047  0.2072 -0.4719
  827HK4    C1869444   7.399   0.842   2.388  0.6201 -0.8171 -0.1565
  827HK4    C1769445   7.499   0.938   2.401 -0.3955  0.3013 -0.4531
  827HK4     H869446   7.501   0.986   2.498 -2.2416 -1.1961  0.3536
  827HK4     N169447   7.306   0.791   2.480 -0.1727  0.2786 -0.3480
  827HK4    C2169448   7.230   0.695   2.411 -0.3507  0.3263 -0.2195
  827HK4    C2269449   7.262   0.688   2.270  0.1568  0.0861 -0.0911
  827HK4    C2669450   7.206   0.584   2.197  0.4693 -0.0012 -0.2074
  827HK4    H1369451   7.213   0.586   2.088 -2.2354  0.1425 -0.4049
  827HK4    C2569452   7.124   0.488   2.257  0.5579 -0.0345 -0.1406
  827HK4    H1269453   7.058   0.428   2.195 -0.8211  0.7860  0.5293
  827HK4    C2469454   7.097   0.489   2.393 -0.5371  1.2463 -0.3618
  827HK4    H1169455   7.039   0.404   2.432 -1.5996  1.9861 -0.2815
  827HK4    C2369456   7.154   0.592   2.466  0.4504  0.1090  0.4816
  827HK4    H1069457   7.141   0.583   2.574 -0.4687  0.5417  0.4126
  827HK4    C3969458   7.320   0.801   2.619 -0.5742 -0.6093 -0.2446
  827HK4    C4169459   7.209   0.802   2.706 -0.1947  0.1929  0.2351
  827HK4    H2169460   7.117   0.813   2.647  1.8346  1.4039 -2.8329
  827HK4    C4269461   7.220   0.785   2.843 -0.5962  0.6006  0.3184
  827HK4    H2269462   7.135   0.765   2.911 -0.3049  2.5659  1.2987
  827HK4    C4369463   7.344   0.773   2.905 -0.3933 -0.3602 -0.2613
  827HK4    H2369464   7.343   0.764   3.014  2.8216  1.1040 -0.0654
  827HK4    C4469465   7.454   0.764   2.822  0.0232  0.0196  0.2454
  827HK4    H2469466   7.549   0.780   2.876  1.1678 -2.0075 -1.1075
  827HK4    C4569467   7.444   0.784   2.684 -0.7955 -0.2366  0.2702
  827HK4    H2569468   7.535   0.754   2.631 -0.7877  1.2426 -0.5811
  828HK4    H2869469   4.870   4.116   2.947 -0.8630  2.0391 -1.1757
  828HK4    C4869470   4.888   4.059   2.856  0.1146  0.1730  0.1759
  828HK4    C4769471   4.921   4.134   2.745  0.0002  0.2132  0.1687
  828HK4    H2769472   4.895   4.241   2.752 -0.6216  0.1449 -0.8930
  828HK4    C4669473   4.979   4.076   2.632  0.1198  0.3246  0.1740
  828HK4    H2669474   4.991   4.147   2.548  0.9771  0.4715  0.4074
  828HK4    C4069475   5.016   3.940   2.634 -0.1316  0.2511 -0.2700
  828HK4    C5069476   4.987   3.868   2.752  0.2110 -0.0357 -0.3601
  828HK4    H3069477   4.989   3.759   2.745  0.6763  0.0865 -2.8511
  828HK4    C4969478   4.918   3.923   2.860  0.6624  0.2839 -0.2312
  828HK4    H2969479   4.891   3.866   2.950  0.4839  0.3087 -0.2691
  828HK4     N269480   5.062   3.874   2.520 -0.2129 -0.0467 -0.1298
  828HK4    C3069481   5.022   3.911   2.390 -0.2344 -0.4180 -0.2295
  828HK4    C2969482   4.904   3.967   2.341 -0.2033 -0.1213  0.0400
  828HK4    H1569483   4.841   4.004   2.423  0.0678  0.0031  0.1938
  828HK4    C2869484   4.875   3.979   2.206  0.0943  0.6781  0.0431
  828HK4    C2769485   4.969   3.926   2.116  0.0584  0.6593  0.0176
  828HK4    H1469486   4.961   3.940   2.007  1.1014 -1.4283 -0.3568
  828HK4    C3269487   5.083   3.857   2.154 -0.3596  0.0079  0.0920
  828HK4    H1669488   5.162   3.839   2.081 -0.6260  1.6867 -0.6390
  828HK4    C3169489   5.110   3.852   2.291  0.5200  0.4245 -0.0597
  828HK4    C3469490   5.208   3.778   2.367 -0.3915 -0.4191  0.3057
  828HK4    C3369491   5.174   3.789   2.508 -0.3139 -0.2469  0.3112
  828HK4    C3569492   5.256   3.735   2.606  0.5242  0.3200 -0.0658
  828HK4    H1769493   5.253   3.764   2.711 -0.0237  0.6521 -0.1707
  828HK4    C3669494   5.367   3.667   2.556  0.1654  0.2289 -0.7556
  828HK4    H1869495   5.438   3.625   2.629  0.6337  1.9758 -0.1631
  828HK4    C3769496   5.400   3.651   2.422  0.4837 -0.9684 -0.5322
  828HK4    H1969497   5.492   3.598   2.400  2.0853  1.7747 -0.6286
  828HK4    C3869498   5.323   3.712   2.324 -0.0625  0.0182  0.5049
  828HK4    H2069499   5.358   3.719   2.221 -3.0586 -3.2191 -0.8504
  828HK4    C1469500   4.737   4.003   2.160  0.3624  0.2175 -1.0022
  828HK4     C969501   4.674   3.919   2.067 -0.5328 -0.0968 -0.1116
  828HK4     C869502   4.593   3.980   1.968  0.3146  0.4206 -0.4920
  828HK4    C1169503   4.564   4.115   1.980 -0.0676  0.3093 -0.1421
  828HK4     H469504   4.524   4.169   1.893  1.4034  0.9917 -0.4178
  828HK4    C1269505   4.608   4.199   2.082 -0.4007  0.0274  0.2341
  828HK4     H569506   4.598   4.309   2.087  1.1780  0.0820  2.6325
  828HK4    C1369507   4.695   4.137   2.170 -0.6466 -0.1901  0.3264
  828HK4     H669508   4.730   4.195   2.257  1.2734 -2.4012  1.0837
  828HK4     C769509   4.565   3.902   1.846  0.0716  0.0022 -0.1709
  828HK4     O269510   4.466   3.934   1.779 -0.1815 -0.2024  0.1032
  828HK4     C469511   4.623   3.767   1.829 -0.2428 -0.1695  0.0979
  828HK4     C369512   4.616   3.704   1.705  0.0585 -0.2418  0.1171
  828HK4     H369513   4.566   3.756   1.622  1.3163 -0.9394 -1.1113
  828HK4     C269514   4.686   3.585   1.684  0.2093 -0.1213 -0.0698
  828HK4     H269515   4.651   3.520   1.603 -0.4743  0.6151 -0.3721
  828HK4     C169516   4.762   3.525   1.784 -0.8936 -1.0824  0.2024
  828HK4     H169517   4.818   3.432   1.772 -1.7311 -1.4518 -0.8753
  828HK4     C669518   4.770   3.590   1.910  0.0984 -0.3270 -0.2491
  828HK4     C569519   4.697   3.707   1.933 -0.5000 -0.7419 -0.0526
  828HK4    C1069520   4.694   3.772   2.067  0.0911 -0.0103 -0.3937
  828HK4     O169521   4.667   3.710   2.170 -0.5474 -0.1679 -0.6523
  828HK4    C1669522   4.898   3.567   1.978  0.0195 -0.4444 -0.1396
  828HK4    C1569523   5.018   3.542   1.907  0.1278  0.2809 -0.2082
  828HK4     H769524   5.038   3.612   1.825 -1.3640 -0.1125 -0.9148
  828HK4    C2069525   5.124   3.474   1.967 -0.2983 -0.1197  0.0943
  828HK4     H969526   5.202   3.435   1.902 -1.3852 -0.8748 -0.7868
  828HK4    C1969527   5.127   3.437   2.100 -0.1667  0.0582  0.1411
  828HK4    C1869528   5.003   3.460   2.172 -0.1069  0.3798  0.1407
  828HK4    C1769529   4.893   3.514   2.106 -0.1093  0.5163  0.2552
  828HK4     H869530   4.794   3.496   2.149  0.5074 -1.9636  0.7408
  828HK4     N169531   5.025   3.413   2.303 -0.1174  0.0086  0.0089
  828HK4    C2169532   5.153   3.353   2.312  0.4029  1.0197 -0.5625
  828HK4    C2269533   5.216   3.356   2.182  0.4607  0.0356 -0.5649
  828HK4    C2669534   5.354   3.337   2.177  0.4439 -0.1518 -0.3116
  828HK4    H1369535   5.393   3.324   2.076 -1.9505 -2.6511 -0.9765
  828HK4    C2569536   5.434   3.309   2.287  0.1837 -0.4906 -0.2071
  828HK4    H1269537   5.533   3.263   2.281  1.6345  2.3579  0.8404
  828HK4    C2469538   5.372   3.317   2.411 -0.4595  0.4684 -0.5862
  828HK4    H1169539   5.435   3.293   2.498  0.5348  0.1947 -1.3683
  828HK4    C2369540   5.235   3.336   2.423 -0.5044 -0.1798 -0.0570
  828HK4    H1069541   5.188   3.349   2.520 -1.0479  2.0537 -0.5918
  828HK4    C3969542   4.952   3.451   2.416  0.7530  0.7034  0.3395
  828HK4    C4169543   4.951   3.379   2.537 -0.2233  0.0575 -0.0480
  828HK4    H2169544   4.995   3.278   2.536  0.2905  0.2761  0.3831
  828HK4    C4269545   4.888   3.421   2.653 -0.0593  0.4050 -0.0860
  828HK4    H2269546   4.913   3.365   2.745 -0.8186  0.3983  0.1159
  828HK4    C4369547   4.825   3.545   2.650 -0.0471  0.4009 -0.4200
  828HK4    H2369548   4.804   3.592   2.746  0.0840  0.9103 -0.6351
  828HK4    C4469549   4.813   3.617   2.531 -0.5292  0.5216 -0.2988
  828HK4    H2469550   4.748   3.705   2.521  2.1527  3.1054  3.2617
  828HK4    C4569551   4.881   3.573   2.418 -0.3282  0.0841 -0.0104
  828HK4    H2569552   4.902   3.639   2.333 -0.7644  1.7129  1.1294
  829HK4    H2869553   1.644   4.060   6.646  0.5467 -0.6058 -0.0432
  829HK4    C4869554   1.699   4.051   6.740  0.4810  0.2347  0.0747
  829HK4    C4769555   1.667   3.962   6.842  0.5509 -0.5590 -0.5872
  829HK4    H2769556   1.595   3.881   6.826 -0.9713  0.4233  1.1343
  829HK4    C4669557   1.733   3.966   6.964 -0.4997  0.3258 -0.0352
  829HK4    H2669558   1.712   3.886   7.036 -0.8782 -1.0648 -1.6583
  829HK4    C4069559   1.845   4.050   6.982 -0.0496 -0.3365  0.3206
  829HK4    C5069560   1.874   4.142   6.879  0.0419 -0.7182  0.0074
  829HK4    H3069561   1.956   4.216   6.882  0.6491 -1.2607 -2.2642
  829HK4    C4969562   1.803   4.141   6.759  0.3904  0.4028 -0.2133
  829HK4    H2969563   1.804   4.226   6.690 -0.4827  0.1174 -0.5781
  829HK4     N269564   1.912   4.069   7.103  0.2235  0.5155  0.0449
  829HK4    C3069565   1.860   4.039   7.231 -0.0927 -0.3838 -0.2895
  829HK4    C2969566   1.728   4.013   7.265  0.0293  0.0952  0.5484
  829HK4    H1569567   1.659   4.085   7.221  1.4557  1.2474  0.1621
  829HK4    C2869568   1.692   3.937   7.376  0.0616 -0.3219  0.2760
  829HK4    C2769569   1.799   3.909   7.464  0.0596  0.1671  0.4341
  829HK4    H1469570   1.770   3.859   7.557  0.6843  0.8469  0.9997
  829HK4    C3269571   1.930   3.953   7.443  0.0593 -0.1520 -0.2347
  829HK4    H1669572   2.009   3.942   7.517 -0.8144 -2.0705  0.4597
  829HK4    C3169573   1.967   4.020   7.327 -0.2234  0.4742  0.0335
  829HK4    C3469574   2.093   4.041   7.259 -0.1646  0.3965  0.1182
  829HK4    C3369575   2.052   4.072   7.123  0.2224  0.5994  0.0425
  829HK4    C3569576   2.147   4.107   7.029  0.3468  0.2528  0.0370
  829HK4    H1769577   2.128   4.113   6.922  1.9873  1.6174 -0.2099
  829HK4    C3669578   2.280   4.118   7.068  0.4402  0.0712 -0.2343
  829HK4    H1869579   2.349   4.162   6.994  0.4816  1.8418  0.8591
  829HK4    C3769580   2.320   4.092   7.199 -0.2279  0.6787  0.0908
  829HK4    H1969581   2.424   4.116   7.220 -0.2973  1.0521  0.0135
  829HK4    C3869582   2.228   4.045   7.292 -0.0113 -0.6806 -0.3738
  829HK4    H2069583   2.253   4.036   7.398  0.4281  3.3863 -0.0752
  829HK4    C1469584   1.549   3.905   7.388 -0.1684  0.7027  0.3323
  829HK4     C969585   1.481   3.881   7.508  0.1919 -0.1702  0.3689
  829HK4     C869586   1.356   3.817   7.522  0.1025 -0.1375 -0.2512
  829HK4    C1169587   1.291   3.777   7.405 -0.1822 -0.3967 -0.0064
  829HK4     H469588   1.210   3.704   7.413 -0.0314 -0.4743  0.9667
  829HK4    C1269589   1.354   3.800   7.283  0.0024  0.0368  0.1663
  829HK4     H569590   1.312   3.761   7.189 -1.8925  1.8606  0.2280
  829HK4    C1369591   1.476   3.865   7.274 -0.2066  0.4647  0.4397
  829HK4     H669592   1.517   3.882   7.174 -2.3694  0.1163 -0.5339
  829HK4     C769593   1.271   3.810   7.643  0.2502 -0.1045 -0.1473
  829HK4     O269594   1.191   3.719   7.659 -0.0832  0.1461 -0.3918
  829HK4     C469595   1.321   3.885   7.761 -0.1661  0.0657 -0.0816
  829HK4     C369596   1.247   3.904   7.877  0.3523  0.1302  0.2409
  829HK4     H369597   1.137   3.897   7.874  0.3971 -0.2826 -0.9549
  829HK4     C269598   1.305   3.929   8.000  0.0898 -0.5688  0.5138
  829HK4     H269599   1.257   3.916   8.098 -0.3471 -1.7397  0.1482
  829HK4     C169600   1.442   3.954   8.005  0.0412 -0.1813 -0.0524
  829HK4     H169601   1.480   3.975   8.106  0.7467 -0.1762 -0.3150
  829HK4     C669602   1.521   3.942   7.889  0.0291  0.5456 -0.1369
  829HK4     C569603   1.458   3.915   7.766 -0.1673  0.0417  0.0722
  829HK4    C1069604   1.528   3.939   7.637  0.3571 -0.1754  0.3117
  829HK4     O169605   1.588   4.046   7.630  0.0133 -0.0261 -0.4719
  829HK4    C1669606   1.665   3.954   7.915 -0.0211  0.1371  0.3369
  829HK4    C1569607   1.768   3.891   7.841  0.2598  0.4533  0.4559
  829HK4     H769608   1.746   3.801   7.782 -0.1549  1.0391 -0.3034
  829HK4    C2069609   1.903   3.915   7.864  0.4411 -0.4638  0.3553
  829HK4     H969610   1.976   3.877   7.792  0.7171 -0.0342  0.4064
  829HK4    C1969611   1.944   3.996   7.969 -0.3651 -0.1346  0.4191
  829HK4    C1869612   1.842   4.066   8.045  0.0238  0.0658  0.7542
  829HK4    C1769613   1.709   4.040   8.014  0.1185  0.4400  0.0166
  829HK4     H869614   1.643   4.116   8.057  0.1940  0.0203  0.8935
  829HK4     N169615   1.896   4.138   8.154  0.7083  0.2084  0.3302
  829HK4    C2169616   2.031   4.100   8.153  0.4252 -0.8082  0.0040
  829HK4    C2269617   2.067   4.011   8.044  0.2143 -0.2981 -0.4819
  829HK4    C2669618   2.184   3.937   8.035  0.9070  0.7683 -0.3291
  829HK4    H1369619   2.229   3.910   7.939  0.7789  0.6475 -0.3549
  829HK4    C2569620   2.264   3.937   8.149  0.7395  0.3999 -0.2112
  829HK4    H1269621   2.360   3.886   8.141  0.7181  0.3548 -0.1830
  829HK4    C2469622   2.240   4.029   8.250 -0.0593 -0.3266  0.2669
  829HK4    H1169623   2.300   4.020   8.343 -1.6967  0.4932  1.4294
  829HK4    C2369624   2.129   4.112   8.252  0.2251  0.0634  0.0981
  829HK4    H1069625   2.111   4.148   8.353  0.7117 -1.9178  0.9039
  829HK4    C3969626   1.854   4.262   8.204  0.6609  0.3032  0.0583
  829HK4    C4169627   1.893   4.301   8.333 -0.6092 -0.2292  0.6183
  829HK4    H2169628   1.919   4.225   8.408 -2.2644 -1.6518 -0.2203
  829HK4    C4269629   1.868   4.430   8.381  0.7028  0.1843  0.2248
  829HK4    H2269630   1.891   4.454   8.485 -1.3399  0.0677  0.7224
  829HK4    C4369631   1.794   4.520   8.305  0.6475  0.0807  0.1552
  829HK4    H2369632   1.774   4.619   8.347  2.2489  0.3176  0.3728
  829HK4    C4469633   1.759   4.488   8.175  0.7830 -0.6662  0.3024
  829HK4    H2469634   1.702   4.558   8.112  0.0986 -0.1492  1.4854
  829HK4    C4569635   1.795   4.363   8.125  0.0880 -0.5217 -0.5815
  829HK4    H2569636   1.770   4.357   8.018 -0.6361  0.1300 -0.4513
  830HK4    H2869637   6.675   6.258   1.282  0.2782 -0.0473 -0.0894
  830HK4    C4869638   6.657   6.170   1.219 -0.1432 -0.2896  0.3630
  830HK4    C4769639   6.759   6.085   1.178  0.1827  0.1838  0.1889
  830HK4    H2769640   6.866   6.102   1.202  0.5437  0.2300 -1.4159
  830HK4    C4669641   6.718   5.985   1.092 -0.1241  0.0860  0.4479
  830HK4    H2669642   6.798   5.935   1.034 -1.3247  0.0644 -1.2225
  830HK4    C4069643   6.585   5.966   1.050 -0.0185 -0.0858  0.1829
  830HK4    C5069644   6.485   6.054   1.095 -0.3539 -0.2791 -0.1888
  830HK4    H3069645   6.381   6.043   1.059 -0.1425 -0.6514 -0.6839
  830HK4    C4969646   6.523   6.152   1.185  0.0257 -0.3575 -0.2657
  830HK4    H2969647   6.448   6.225   1.219  1.0606  0.4340  0.3713
  830HK4     N269648   6.540   5.837   1.016  0.2689 -0.1388  0.0063
  830HK4    C3069649   6.597   5.716   1.060  0.0163 -0.2892 -0.0841
  830HK4    C2969650   6.719   5.683   1.116 -0.1190  0.1305  0.4700
  830HK4    H1569651   6.765   5.760   1.178  2.5572 -0.9123 -0.1195
  830HK4    C2869652   6.768   5.552   1.125 -0.0668  0.1137 -0.0677
  830HK4    C2769653   6.683   5.444   1.093  0.4138 -0.1066 -0.6197
  830HK4    H1469654   6.728   5.345   1.083 -0.9744 -0.8287  0.0888
  830HK4    C3269655   6.555   5.473   1.046 -0.0533 -0.3152  0.5022
  830HK4    H1669656   6.480   5.396   1.033  0.9620 -1.3635  0.8328
  830HK4    C3169657   6.511   5.604   1.027  0.1450 -0.3528 -0.2031
  830HK4    C3469658   6.399   5.664   0.956  0.5181  0.0784 -0.4304
  830HK4    C3369659   6.426   5.805   0.940 -0.1475  0.3043  0.4450
  830HK4    C3569660   6.347   5.878   0.852 -0.1665 -0.0640  0.1541
  830HK4    H1769661   6.389   5.975   0.823  0.0465 -0.9150 -2.4763
  830HK4    C3669662   6.251   5.814   0.775 -0.3021  0.0039  0.2687
  830HK4    H1869663   6.202   5.870   0.695  1.2047 -1.0034 -1.3872
  830HK4    C3769664   6.231   5.676   0.784 -0.1508 -0.0341  0.0180
  830HK4    H1969665   6.184   5.624   0.700  1.7029 -0.6886 -0.6398
  830HK4    C3869666   6.301   5.603   0.879  0.1776  0.1666 -0.0686
  830HK4    H2069667   6.280   5.498   0.899 -0.6599 -0.0797 -2.1555
  830HK4    C1469668   6.913   5.535   1.109 -0.0689  0.2059 -0.1981
  830HK4     C969669   6.970   5.456   1.009 -0.0442  0.0813 -0.0843
  830HK4     C869670   7.089   5.385   1.034  0.2049  0.5057 -0.0600
  830HK4    C1169671   7.154   5.403   1.155 -0.0890 -0.4849  0.2496
  830HK4     H469672   7.256   5.362   1.163  0.0227  0.0559  1.8956
  830HK4    C1269673   7.111   5.499   1.246  0.5704 -0.0630  0.1151
  830HK4     H569674   7.160   5.510   1.344  0.0212  1.0109  0.2818
  830HK4    C1369675   6.989   5.561   1.225  0.4087 -0.5384 -0.3421
  830HK4     H669676   6.953   5.634   1.299  0.9148 -2.7020  2.1008
  830HK4     C769677   7.131   5.275   0.944 -0.2198 -0.3213  0.7457
  830HK4     O269678   7.251   5.272   0.917 -0.3318 -0.5715  0.2660
  830HK4     C469679   7.036   5.224   0.842  0.2103 -0.1412  0.2526
  830HK4     C369680   7.044   5.091   0.803 -0.2106 -0.0913 -0.0007
  830HK4     H369681   7.127   5.033   0.847 -0.6358 -0.2601  0.5872
  830HK4     C269682   6.942   5.030   0.730  0.1180 -0.1243 -0.4367
  830HK4     H269683   6.939   4.921   0.719  1.3875 -0.2567  0.3836
  830HK4     C169684   6.832   5.110   0.699  0.2540  0.3107  0.1644
  830HK4     H169685   6.759   5.070   0.627 -1.0908  0.0251  1.6574
  830HK4     C669686   6.822   5.245   0.736  0.0985  0.3388  0.0160
  830HK4     C569687   6.926   5.305   0.808 -0.0603 -0.2886  0.7717
  830HK4    C1069688   6.906   5.436   0.876 -0.3078  0.0474  0.0496
  830HK4     O169689   6.864   5.537   0.820  0.1178  0.0933 -0.1898
  830HK4    C1669690   6.682   5.289   0.731 -0.0751 -0.2354 -0.1933
  830HK4    C1569691   6.575   5.204   0.765  0.2898 -0.3276  0.7353
  830HK4     H769692   6.591   5.106   0.813 -1.3577 -1.0790 -0.1750
  830HK4    C2069693   6.445   5.226   0.720  0.7624  0.0831 -0.4280
  830HK4     H969694   6.358   5.170   0.752  0.4112  0.8651 -0.0015
  830HK4    C1969695   6.410   5.336   0.643 -0.2380  0.1418  0.0982
  830HK4    C1869696   6.521   5.424   0.610  0.0902 -0.2913  0.0351
  830HK4    C1769697   6.651   5.399   0.652  0.1941 -0.1835 -0.2251
  830HK4     H869698   6.734   5.452   0.605  0.5713 -0.2323  0.3743
  830HK4     N169699   6.483   5.509   0.505  0.5440 -0.1523 -0.0181
  830HK4    C2169700   6.348   5.483   0.474  0.5032 -0.0035  0.0308
  830HK4    C2269701   6.302   5.370   0.553  0.1903 -0.3254 -0.6024
  830HK4    C2669702   6.166   5.339   0.550  0.2264 -0.5828  0.3712
  830HK4    H1369703   6.143   5.244   0.597  1.1623 -0.9868  0.0285
  830HK4    C2569704   6.073   5.402   0.468  0.4116 -0.4243  0.2828
  830HK4    H1269705   5.965   5.388   0.469  0.3067  0.0949 -1.4493
  830HK4    C2469706   6.125   5.502   0.387 -0.1626  0.3372  0.8474
  830HK4    H1169707   6.061   5.527   0.301 -0.4256 -0.3201  0.8542
  830HK4    C2369708   6.256   5.550   0.394  0.2220 -0.5575 -0.1127
  830HK4    H1069709   6.285   5.647   0.355 -2.6776  0.4198  0.0119
  830HK4    C3969710   6.540   5.636   0.489 -0.1444  0.1655  0.0008
  830HK4    C4169711   6.528   5.711   0.371  0.0938 -0.3434 -0.3512
  830HK4    H2169712   6.524   5.650   0.279  1.7427 -0.6571 -0.2185
  830HK4    C4269713   6.531   5.850   0.367 -0.2867 -0.3130  0.3616
  830HK4    H2269714   6.502   5.899   0.273  0.0213 -1.7225 -0.4716
  830HK4    C4369715   6.563   5.921   0.482 -0.5994 -0.1274  0.3360
  830HK4    H2369716   6.575   6.029   0.481  0.3155 -0.2369 -0.3590
  830HK4    C4469717   6.577   5.852   0.603 -0.1739 -0.1355  0.2833
  830HK4    H2469718   6.582   5.911   0.696 -1.3480  1.5880 -0.7143
  830HK4    C4569719   6.563   5.714   0.605 -0.1599 -0.1381  0.2109
  830HK4    H2569720   6.552   5.674   0.706  2.0937  1.2041  1.0067
  831HK4    H2869721   6.078   8.987   0.715 -1.0928  0.2422 -0.0790
  831HK4    C4869722   6.010   8.905   0.736 -0.3816 -0.3916 -0.2242
  831HK4    C4769723   5.979   8.827   0.625  0.1791 -0.0557 -0.6140
  831HK4    H2769724   5.992   8.872   0.525 -4.4745  2.3851 -0.2653
  831HK4    C4669725   5.944   8.695   0.646 -0.3678  0.2221  0.2842
  831HK4    H2669726   5.952   8.623   0.563 -1.1515 -1.5171  1.6810
  831HK4    C4069727   5.918   8.649   0.777 -0.3953  0.0515  0.2190
  831HK4    C5069728   5.932   8.739   0.884  0.0469  0.1807  0.0510
  831HK4    H3069729   5.897   8.717   0.986  2.0174 -1.3575  0.4193
  831HK4    C4969730   5.977   8.869   0.867 -0.1577  0.2487  0.0080
  831HK4    H2969731   5.979   8.939   0.952  0.2011 -0.7118  0.8007
  831HK4     N269732   5.872   8.520   0.806  0.4413 -0.2816  0.0746
  831HK4    C3069733   5.805   8.437   0.714  0.0524  0.1060  0.0068
  831HK4    C2969734   5.714   8.457   0.611 -0.6743  0.3185  0.6906
  831HK4    H1569735   5.691   8.559   0.584  0.3105 -0.0081 -1.4625
  831HK4    C2869736   5.648   8.352   0.548  0.0065  0.1884  0.1929
  831HK4    C2769737   5.676   8.220   0.589  0.2222  0.0988 -0.2459
  831HK4    H1469738   5.631   8.142   0.526  0.7205 -0.8135  0.5145
  831HK4    C3269739   5.772   8.189   0.685 -0.0105 -0.0478 -0.0609
  831HK4    H1669740   5.786   8.088   0.723 -1.9131 -0.7365 -1.0962
  831HK4    C3169741   5.833   8.298   0.746 -0.2171  0.0449 -0.0208
  831HK4    C3469742   5.910   8.297   0.868  0.0455 -0.1909 -0.1854
  831HK4    C3369743   5.932   8.436   0.903 -0.4010 -0.3113  0.5757
  831HK4    C3569744   6.015   8.462   1.012 -0.0211  0.6161  0.0729
  831HK4    H1769745   6.022   8.562   1.056 -1.6996  0.0613  1.6830
  831HK4    C3669746   6.077   8.355   1.075 -0.2200  0.5028  0.0815
  831HK4    H1869747   6.159   8.383   1.143 -0.1195  1.3315 -0.3675
  831HK4    C3769748   6.061   8.222   1.041 -0.6178  0.5915 -0.0815
  831HK4    H1969749   6.109   8.146   1.104 -0.1167 -0.0075 -1.1741
  831HK4    C3869750   5.973   8.194   0.937  0.2194 -0.3333 -0.5596
  831HK4    H2069751   5.941   8.092   0.916 -1.7470  0.2367 -0.4451
  831HK4    C1469752   5.544   8.379   0.448 -0.2025  0.2318  0.4200
  831HK4     C969753   5.438   8.289   0.434  0.1458 -0.1332  0.1310
  831HK4     C869754   5.391   8.260   0.305  0.1191 -0.0324  0.1187
  831HK4    C1169755   5.435   8.337   0.197  0.0315  0.0659  0.1535
  831HK4     H469756   5.421   8.296   0.096  1.0660 -0.2578  0.1300
  831HK4    C1269757   5.526   8.440   0.218  0.1115  0.0716 -0.2342
  831HK4     H569758   5.547   8.520   0.145 -0.9449  1.0483  0.5229
  831HK4    C1369759   5.585   8.462   0.341 -0.1689 -0.3549 -0.0228
  831HK4     H669760   5.635   8.557   0.365  0.0862 -0.3702 -0.4862
  831HK4     C769761   5.299   8.148   0.279  0.6319 -0.4081 -0.0891
  831HK4     O269762   5.261   8.119   0.165  0.4783 -0.3741 -0.0478
  831HK4     C469763   5.256   8.063   0.392 -0.0850  0.2668  0.1494
  831HK4     C369764   5.167   7.958   0.371  0.2541 -0.0725  0.3896
  831HK4     H369765   5.093   7.954   0.290 -0.3090 -0.4083  0.9141
  831HK4     C269766   5.133   7.874   0.477  0.2725 -0.5226  0.0400
  831HK4     H269767   5.069   7.785   0.469 -0.4827 -0.4391  4.2337
  831HK4     C169768   5.201   7.883   0.598 -0.2822  0.4360  0.2841
  831HK4     H169769   5.152   7.826   0.678 -2.3030 -1.1242 -2.0099
  831HK4     C669770   5.295   7.986   0.621 -0.1472  0.3124  0.2882
  831HK4     C569771   5.309   8.083   0.521  0.3636 -0.0472  0.0133
  831HK4    C1069772   5.373   8.215   0.546  0.6608 -0.2540  0.3488
  831HK4     O169773   5.324   8.287   0.633 -0.3556 -0.1449 -0.3177
  831HK4    C1669774   5.397   7.941   0.717 -0.2141 -0.1613  0.1333
  831HK4    C1569775   5.417   7.806   0.754  0.5869 -0.0612  0.0627
  831HK4     H769776   5.390   7.726   0.685 -0.1912  0.9552 -0.8245
  831HK4    C2069777   5.492   7.774   0.867  0.0008 -0.2244  0.4037
  831HK4     H969778   5.524   7.672   0.890 -1.8880 -0.9627 -0.0805
  831HK4    C1969779   5.555   7.873   0.941 -0.1283 -0.3331  0.6622
  831HK4    C1869780   5.536   8.013   0.907  0.4897 -0.4819 -0.3132
  831HK4    C1769781   5.458   8.038   0.795 -0.1599 -0.2425  0.1931
  831HK4     H869782   5.451   8.146   0.778 -0.6759 -0.3235 -0.1130
  831HK4     N169783   5.596   8.091   1.007  0.3450 -0.2111 -0.4347
  831HK4    C2169784   5.655   8.009   1.106 -0.1665 -0.0794 -0.0161
  831HK4    C2269785   5.615   7.873   1.073 -0.5987 -0.1704  0.8745
  831HK4    C2669786   5.648   7.770   1.160 -0.9099 -0.6402  0.4372
  831HK4    H1369787   5.618   7.666   1.148 -1.0337 -0.4465 -0.9903
  831HK4    C2569788   5.748   7.792   1.254  0.4041  0.0941 -1.0894
  831HK4    H1269789   5.783   7.711   1.319 -2.2733 -0.3176 -0.0704
  831HK4    C2469790   5.792   7.921   1.281 -0.1739  0.0814 -0.0095
  831HK4    H1169791   5.859   7.942   1.365 -1.5837  3.8080  0.2751
  831HK4    C2369792   5.743   8.030   1.211 -0.1822  0.0628 -0.0310
  831HK4    H1069793   5.736   8.124   1.267 -0.4117 -0.0034  0.0500
  831HK4    C3969794   5.562   8.226   1.025  0.1976 -0.2599 -0.3431
  831HK4    C4169795   5.649   8.312   1.096  0.0794 -0.0089 -0.5077
  831HK4    H2169796   5.756   8.290   1.090 -0.0236 -0.5447 -0.4222
  831HK4    C4269797   5.613   8.437   1.144 -0.0180 -0.2591  0.0711
  831HK4    H2269798   5.684   8.510   1.186  0.8442  0.1645 -2.0855
  831HK4    C4369799   5.484   8.482   1.115  0.4059  0.6800 -0.3796
  831HK4    H2369800   5.460   8.585   1.142  1.6412  1.3958 -1.9438
  831HK4    C4469801   5.395   8.401   1.047  0.7029 -0.1249  0.1830
  831HK4    H2469802   5.290   8.432   1.041  0.6425 -0.7811 -3.5904
  831HK4    C4569803   5.431   8.273   1.006  0.1849 -0.1890 -0.0785
  831HK4    H2569804   5.353   8.207   0.966  0.1446  1.1989 -2.3698
  832HK4    H2869805   6.561   8.152  10.676 -0.3226 -0.5943 -0.5604
  832HK4    C4869806   6.644   8.212  10.639 -0.1470 -0.2534  0.3639
  832HK4    C4769807   6.769   8.180  10.690  0.0471  0.0532  0.0809
  832HK4    H2769808   6.773   8.128  10.787  1.6488  0.6293  0.3342
  832HK4    C4669809   6.884   8.231  10.630  0.1919 -0.3730  0.0019
  832HK4    H2669810   6.985   8.203  10.663  0.6121  0.1035 -0.8696
  832HK4    C4069811   6.881   8.308  10.512 -0.2083 -0.2001  0.1167
  832HK4    C5069812   6.754   8.338  10.461 -0.3227 -0.0673  0.4834
  832HK4    H3069813   6.738   8.397  10.369 -0.4015  0.2681  0.7108
  832HK4    C4969814   6.640   8.297  10.529 -0.3183 -0.2200  0.3954
  832HK4    H2969815   6.542   8.315  10.483  1.1675 -0.6015 -3.0622
  832HK4     N269816   6.994   8.376  10.463 -0.3885  0.2819  0.3741
  832HK4    C3069817   7.106   8.416  10.539 -0.1700  0.2642  0.0584
  832HK4    C2969818   7.113   8.447  10.674 -0.1585  0.7966 -0.0626
  832HK4    H1569819   7.026   8.417  10.733  0.7251 -1.2188  0.2585
  832HK4    C2869820   7.216   8.515  10.738  0.2836 -0.0820  0.1549
  832HK4    C2769821   7.313   8.561  10.647  0.1960 -0.3932 -0.0973
  832HK4    H1469822   7.382   8.631  10.697 -0.5785  0.2712  0.0419
  832HK4    C3269823   7.309   8.536  10.510  0.3636  0.0007 -0.1801
  832HK4    H1669824   7.356   8.608  10.443 -3.8307  3.8532  0.8227
  832HK4    C3169825   7.216   8.451  10.451 -0.2096  0.4461  0.0824
  832HK4    C3469826   7.169   8.430  10.315 -0.5273  0.2612  0.2222
  832HK4    C3369827   7.034   8.377  10.328 -0.3804 -0.0851  0.3740
  832HK4    C3569828   6.974   8.333  10.211  0.3664 -0.3319  0.0782
  832HK4    H1769829   6.873   8.292  10.215  0.4539 -0.7540 -1.5610
  832HK4    C3669830   7.045   8.330  10.092  0.1436  0.5002 -0.0775
  832HK4    H1869831   7.003   8.275  10.006 -0.6814  2.6118 -1.0677
  832HK4    C3769832   7.173   8.382  10.080  0.2551  0.3622  0.4980
  832HK4    H1969833   7.226   8.371   9.985 -0.3936 -1.1550  0.3019
  832HK4    C3869834   7.237   8.429  10.194  0.2115  0.0805  0.6365
  832HK4    H2069835   7.344   8.452  10.191  0.0113  0.7512 -2.0991
  832HK4    C1469836   7.190   8.563  10.874  0.7966 -0.1921  0.2952
  832HK4     C969837   7.237   8.683  10.928  0.4346 -0.0034  0.1850
  832HK4     C869838   7.262   8.688  11.067  0.4276 -0.3330  0.2006
  832HK4    C1169839   7.223   8.586  11.152  0.1081 -0.1133  0.3179
  832HK4     H469840   7.244   8.588   0.012 -1.0407  1.0480  0.5352
  832HK4    C1269841   7.180   8.466  11.097 -0.5433  0.2244  0.0802
  832HK4     H569842   7.150   8.380  11.159 -2.3467  0.7904  0.0389
  832HK4    C1369843   7.159   8.455  10.960  0.0849 -0.2104  0.0156
  832HK4     H669844   7.129   8.359  10.916 -2.1937  0.0256  0.9663
  832HK4     C769845   7.331   8.805  11.125 -0.0066 -0.0438  0.1497
  832HK4     O269846   7.373   8.808  11.240 -0.1488  0.1086  0.1963
  832HK4     C469847   7.367   8.919  11.038 -0.9366  0.5588  0.5502
  832HK4     C369848   7.438   9.028  11.087 -0.0217  0.2914 -0.1548
  832HK4     H369849   7.483   9.023  11.188  0.4026  1.5387 -0.2822
  832HK4     C269850   7.486   9.131  11.008 -0.4172  0.4352 -0.2076
  832HK4     H269851   7.549   9.209  11.054 -0.3445  1.0936 -1.4067
  832HK4     C169852   7.467   9.125  10.871  0.2835 -0.1756 -0.2800
  832HK4     H169853   7.493   9.211  10.807  0.8168 -0.8909 -1.0369
  832HK4     C669854   7.390   9.018  10.819 -0.2105 -0.0100  0.1163
  832HK4     C569855   7.340   8.915  10.899  0.4427 -0.1900  0.2983
  832HK4    C1069856   7.264   8.801  10.841 -0.3218  0.2925  0.3531
  832HK4     O169857   7.182   8.821  10.751 -0.7065 -0.6461  0.4902
  832HK4    C1669858   7.328   9.062  10.693 -0.2833  0.0526  0.1711
  832HK4    C1569859   7.267   9.189  10.688 -0.1356  0.0916 -0.6788
  832HK4     H769860   7.206   9.217  10.775 -0.3033  0.5464 -0.9397
  832HK4    C2069861   7.278   9.265  10.572  0.0678  0.7111 -0.2533
  832HK4     H969862   7.233   9.364  10.580 -0.1575  0.5185  1.0385
  832HK4    C1969863   7.340   9.219  10.457 -0.0797  0.2320 -0.1400
  832HK4    C1869864   7.398   9.086  10.461 -0.0607  0.2545  0.3568
  832HK4    C1769865   7.396   9.016  10.581  0.1297  0.2335  0.3452
  832HK4     H869866   7.438   8.915  10.590  0.4938  0.4431  1.0431
  832HK4     N169867   7.476   9.067  10.345 -0.9480 -0.1045 -0.1848
  832HK4    C2169868   7.477   9.188  10.273 -0.0871 -0.1526 -0.2569
  832HK4    C2269869   7.391   9.284  10.338  0.1542  0.0022 -0.1703
  832HK4    C2669870   7.356   9.404  10.275 -0.1294 -0.2632 -0.5203
  832HK4    H1369871   7.300   9.483  10.325  0.0293  0.4676 -1.4844
  832HK4    C2569872   7.406   9.430  10.148  0.0499  0.2400 -0.3524
  832HK4    H1269873   7.350   9.510  10.098 -1.3850 -1.9076 -2.2969
  832HK4    C2469874   7.497   9.346  10.086 -0.3292 -0.2529 -0.2445
  832HK4    H1169875   7.532   9.369   9.984  0.7073 -2.4699 -0.4163
  832HK4    C2369876   7.525   9.225  10.148  0.2971 -0.0150 -0.0713
  832HK4    H1069877   7.601   9.161  10.102 -2.3435 -1.4204 -2.6678
  832HK4    C3969878   7.488   8.948  10.272 -0.0701 -0.0163 -0.1851
  832HK4    C4169879   7.587   8.928  10.173  0.4975 -0.3780  0.4501
  832HK4    H2169880   7.672   8.996  10.190 -1.6793  2.4497  0.4832
  832HK4    C4269881   7.565   8.835  10.073 -0.3579  0.6207 -0.2915
  832HK4    H2269882   7.627   8.842   9.982  0.4627 -0.1644  0.2042
  832HK4    C4369883   7.457   8.747  10.074  0.1050  0.0550  0.2379
  832HK4    H2369884   7.454   8.675   9.992  2.0118 -2.2063  2.1170
  832HK4    C4469885   7.363   8.763  10.175  0.2920  0.0190  0.4184
  832HK4    H2469886   7.276   8.696  10.179  1.4281 -1.5403 -0.6718
  832HK4    C4569887   7.377   8.861  10.273 -0.0270 -0.0652  0.5482
  832HK4    H2569888   7.305   8.879  10.354 -0.5220 -0.5914  0.2278
  833HK4    H2869889   9.331   0.793   7.730 -1.3238 -2.7483 -1.1689
  833HK4    C4869890   9.241   0.854   7.727  0.4330  0.0397  0.4515
  833HK4    C4769891   9.146   0.848   7.829 -0.3311 -0.0378 -0.2565
  833HK4    H2769892   9.167   0.784   7.916 -0.1354  0.1900 -0.1350
  833HK4    C4669893   9.034   0.930   7.827 -0.3998 -0.1157  0.2597
  833HK4    H2669894   8.969   0.935   7.915 -1.6159 -0.1609 -0.6310
  833HK4    C4069895   9.013   1.016   7.717  0.0048 -0.1441  0.1572
  833HK4    C5069896   9.108   1.021   7.614 -0.0324 -0.1721  0.1234
  833HK4    H3069897   9.103   1.104   7.542  0.0495  0.5372  0.9398
  833HK4    C4969898   9.218   0.935   7.617 -0.0854 -0.2297  0.3576
  833HK4    H2969899   9.272   0.922   7.522 -0.9901  1.0586 -0.3630
  833HK4     N269900   8.884   1.064   7.688  0.2152  0.1574 -0.3014
  833HK4    C3069901   8.774   0.989   7.736  0.5012  0.1552  0.3643
  833HK4    C2969902   8.757   0.854   7.761  0.2051  0.0840 -0.2013
  833HK4    H1569903   8.845   0.789   7.761 -0.3780 -0.7001 -0.9538
  833HK4    C2869904   8.635   0.802   7.803  0.3598  0.1211  0.3152
  833HK4    C2769905   8.533   0.899   7.819  0.1134  0.0157 -0.5761
  833HK4    H1469906   8.455   0.871   7.891 -1.0386  2.6147 -0.7775
  833HK4    C3269907   8.542   1.033   7.785 -0.0516  0.1225 -0.1962
  833HK4    H1669908   8.453   1.097   7.789  0.8104  1.2690  1.1145
  833HK4    C3169909   8.664   1.083   7.740  0.2927 -0.0956  0.4790
  833HK4    C3469910   8.709   1.210   7.687  0.0210 -0.0974  0.2362
  833HK4    C3369911   8.852   1.199   7.667 -0.0621  0.0679 -0.4571
  833HK4    C3569912   8.907   1.305   7.595 -0.0724  0.0199 -0.5346
  833HK4    H1769913   9.011   1.298   7.563  0.1108 -0.3489  0.1287
  833HK4    C3669914   8.837   1.416   7.549 -0.0894  0.1626 -0.1599
  833HK4    H1869915   8.885   1.483   7.476 -0.4726  0.2441 -0.3377
  833HK4    C3769916   8.700   1.426   7.569 -0.0845 -0.0397 -0.0304
  833HK4    H1969917   8.644   1.513   7.535 -0.8435 -0.3261  0.4868
  833HK4    C3869918   8.641   1.320   7.637  0.1213 -0.1446 -0.0104
  833HK4    H2069919   8.532   1.314   7.633  0.0730  1.4130 -1.6359
  833HK4    C1469920   8.617   0.657   7.818  0.0723  0.1580  0.3259
  833HK4     C969921   8.494   0.591   7.806  0.0199  0.3847 -0.3802
  833HK4     C869922   8.476   0.481   7.892  0.2933  0.3237 -0.3996
  833HK4    C1169923   8.579   0.427   7.967 -0.1744  1.0046  0.7311
  833HK4     H469924   8.565   0.338   8.030 -0.2814 -0.0906 -0.8103
  833HK4    C1269925   8.706   0.482   7.970  0.3901 -0.2352 -0.1672
  833HK4     H569926   8.786   0.445   8.035 -0.8972 -0.3500  1.3522
  833HK4    C1369927   8.718   0.602   7.899  0.0006  0.1460  0.4082
  833HK4     H669928   8.812   0.658   7.913  2.1379 -2.4426 -2.7684
  833HK4     C769929   8.340   0.422   7.903  0.4860 -0.0879 -0.2368
  833HK4     O269930   8.306   0.367   8.007 -0.1742  0.5218 -0.1343
  833HK4     C469931   8.236   0.451   7.802  0.1562 -0.1726  0.0811
  833HK4     C369932   8.113   0.385   7.805 -0.0013  0.1172 -0.0254
  833HK4     H369933   8.094   0.300   7.873 -1.0796  0.5991  0.2684
  833HK4     C269934   8.008   0.434   7.729  0.5762  0.6457 -0.4961
  833HK4     H269935   7.927   0.363   7.706 -0.0811  1.4053 -0.5717
  833HK4     C169936   8.011   0.561   7.673 -0.1423  0.8307 -0.1386
  833HK4     H169937   7.918   0.601   7.632 -0.1184  0.8840 -0.1377
  833HK4     C669938   8.131   0.635   7.678  0.3232  0.0976 -0.2601
  833HK4     C569939   8.245   0.571   7.730  0.0956 -0.5199 -0.5100
  833HK4    C1069940   8.383   0.623   7.711 -0.1650  0.2973 -0.1927
  833HK4     O169941   8.415   0.656   7.597 -0.1541 -0.0956 -0.3043
  833HK4    C1669942   8.108   0.775   7.641  0.5695  0.1330 -0.2775
  833HK4    C1569943   8.193   0.878   7.686  0.1220  0.3784  0.0041
  833HK4     H769944   8.266   0.849   7.763  0.1946 -2.4007 -1.0610
  833HK4    C2069945   8.182   1.011   7.645 -0.3706  0.3227 -0.0475
  833HK4     H969946   8.218   1.089   7.712 -1.0653  1.1404 -0.6135
  833HK4    C1969947   8.082   1.044   7.554 -0.4720  0.2495  0.0361
  833HK4    C1869948   8.005   0.936   7.496 -0.3814 -0.0123  0.3973
  833HK4    C1769949   8.018   0.805   7.539 -0.5073  0.0572  0.6439
  833HK4     H869950   7.963   0.727   7.487  0.1133  0.2008 -0.2354
  833HK4     N169951   7.899   0.985   7.416  0.0419  0.1472 -0.0716
  833HK4    C2169952   7.914   1.125   7.426  0.1356  0.1309  0.0179
  833HK4    C2269953   8.019   1.169   7.516 -0.1511  0.4619  0.1966
  833HK4    C2669954   8.040   1.305   7.533 -0.1410  0.4293  0.4313
  833HK4    H1369955   8.096   1.334   7.622  1.6672 -1.1709 -0.1508
  833HK4    C2569956   7.975   1.403   7.460 -0.5226 -0.2398 -0.1296
  833HK4    H1269957   7.972   1.510   7.484 -1.8136 -0.2479 -0.2007
  833HK4    C2469958   7.882   1.362   7.365  0.0027 -0.5974 -0.4943
  833HK4    H1169959   7.829   1.439   7.306 -0.8497 -0.9997 -0.2604
  833HK4    C2369960   7.850   1.227   7.357 -0.8526 -0.4367  0.0833
  833HK4    H1069961   7.769   1.194   7.292 -0.1234  0.5072 -1.3283
  833HK4    C3969962   7.850   0.915   7.305  0.4246  0.0660 -0.1929
  833HK4    C4169963   7.720   0.941   7.258  0.1542 -0.3380  0.3131
  833HK4    H2169964   7.646   0.965   7.335 -1.2634  0.0421 -1.1230
  833HK4    C4269965   7.682   0.914   7.127  0.2152 -0.7907  0.3884
  833HK4    H2269966   7.582   0.948   7.094  1.3279  1.5962 -0.6629
  833HK4    C4369967   7.767   0.852   7.036  0.3613  0.4053 -0.3038
  833HK4    H2369968   7.740   0.856   6.931 -1.6462  0.7359  0.2128
  833HK4    C4469969   7.895   0.825   7.083  0.1795  0.1401  0.0494
  833HK4    H2469970   7.966   0.784   7.009  0.3157  0.2696  0.1102
  833HK4    C4569971   7.936   0.852   7.213  0.6331  0.2248 -0.1074
  833HK4    H2569972   8.039   0.824   7.240  0.6341 -0.0566 -0.3941
  834HK4    H2869973  10.544   6.818   3.291  0.1624 -1.0322 -0.0835
  834HK4    C4869974  10.612   6.885   3.344 -0.4980 -0.3005 -0.1535
  834HK4    C4769975  10.598   7.023   3.329  0.0993 -0.1966  0.2294
  834HK4    H2769976  10.502   7.059   3.290  0.8521  2.6275  0.8580
  834HK4    C4669977  10.684   7.110   3.394  0.0932 -0.3300  0.4120
  834HK4    H2669978  10.717   7.190   3.328 -1.1609 -1.1395 -1.2246
  834HK4    C4069979  10.768   7.063   3.498  0.5406  0.0596  0.2328
  834HK4    C5069980  10.773   6.923   3.518 -0.5800 -0.0690 -0.3082
  834HK4    H3069981  10.844   6.891   3.596 -0.2624  0.5014 -0.3543
  834HK4    C4969982  10.694   6.836   3.445 -0.1860 -0.3281 -0.4217
  834HK4    H2969983  10.710   6.727   3.450  0.6720 -0.1792  0.2344
  834HK4     N269984  10.796   7.140   3.611  0.7040 -0.2813  0.4245
  834HK4    C3069985  10.715   7.243   3.665  0.1446 -0.4305 -0.1342
  834HK4    C2969986  10.631   7.334   3.603  0.6809 -0.0038 -0.2379
  834HK4    H1569987  10.591   7.306   3.505  0.9933 -2.4186  0.3004
  834HK4    C2869988  10.594   7.454   3.662 -0.3006 -0.2968 -0.2527
  834HK4    C2769989  10.642   7.483   3.791  0.1592 -0.0506 -0.4775
  834HK4    H1469990  10.606   7.575   3.840 -0.7255  0.7048 -2.4916
  834HK4    C3269991  10.728   7.397   3.858  0.3168  0.2861 -0.2384
  834HK4    H1669992  10.754   7.417   3.962  1.4305  2.7293 -0.9666
  834HK4    C3169993  10.771   7.282   3.792 -0.1128  0.0858 -0.1769
  834HK4    C3469994  10.895   7.208   3.811  0.1643  0.6236  0.1262
  834HK4    C3369995  10.908   7.121   3.695  1.0100  0.6093  0.2292
  834HK4    C3569996  11.028   7.058   3.665  0.1217 -0.7306 -0.5400
  834HK4    H1769997  11.032   6.970   3.601  1.2281 -1.2193  0.1906
  834HK4    C3669998  11.139   7.085   3.743 -0.2985 -0.2746 -0.0978
  834HK4    H1869999  11.220   7.011   3.736 -1.2356 -1.0708 -3.4076
  834HK4    C3770000  11.129   7.172   3.852  0.3736 -0.1442 -0.1371
  834HK4    H1970001  11.217   7.219   3.896 -0.2885  1.2977 -0.3203
  834HK4    C3870002  11.008   7.230   3.888  0.3902 -0.2114  0.0313
  834HK4    H2070003  11.003   7.303   3.968 -2.2917 -0.9507  0.5891
  834HK4    C1470004  10.543   7.554   3.567 -0.0863  0.0699  0.0155
  834HK4     C970005  10.574   7.689   3.592 -0.0059 -0.0877  0.7673
  834HK4     C870006  10.470   7.783   3.576  0.2375  0.0259 -0.1055
  834HK4    C1170007  10.342   7.740   3.546  0.0537  0.3014  0.2921
  834HK4     H470008  10.255   7.808   3.553 -0.4914 -0.6115  3.2990
  834HK4    C1270009  10.318   7.608   3.509  0.1001  0.0936  1.0055
  834HK4     H570010  10.226   7.591   3.452  1.8727  1.5259 -2.4345
  834HK4    C1370011  10.420   7.514   3.512  0.0673  0.0213 -0.2933
  834HK4     H670012  10.415   7.421   3.452 -1.0788 -0.9222  1.2344
  834HK4     C770013  10.508   7.925   3.593  0.2267 -0.0074  0.1897
  834HK4     O270014  10.437   8.013   3.545  0.6927  0.2007 -0.1277
  834HK4     C470015  10.634   7.953   3.664  0.2205 -0.0091  0.2019
  834HK4     C370016  10.650   8.086   3.702  0.1028  0.1879 -0.4376
  834HK4     H370017  10.587   8.172   3.671  0.0067  0.0265 -0.6825
  834HK4     C270018  10.750   8.115   3.793  0.0164 -0.2434 -0.2035
  834HK4     H270019  10.762   8.207   3.852 -2.1399 -0.6236  0.8746
  834HK4     C170020  10.839   8.016   3.835 -0.3523 -0.2177  0.6479
  834HK4     H170021  10.920   8.043   3.905  0.3180 -0.6942  0.0569
  834HK4     C670022  10.837   7.883   3.790  0.4574  0.0528 -0.2159
  834HK4     C570023  10.733   7.859   3.699 -0.2821 -0.3364  0.7351
  834HK4    C1070024  10.711   7.725   3.637  0.2908  0.0091 -0.2092
  834HK4     O170025  10.801   7.688   3.562  0.3529 -1.2384  0.4786
  834HK4    C1670026  10.906   7.774   3.861 -0.4092 -0.2895  0.1109
  834HK4    C1570027  10.925   7.798   3.999 -0.0869 -0.6644  0.1322
  834HK4     H770028  10.839   7.825   4.062  0.2502 -0.2918  0.4266
  834HK4    C2070029  11.039   7.757   4.067  0.3391  0.2623 -0.0264
  834HK4     H970030  11.060   7.798   4.166  0.2627 -0.0721  0.1274
  834HK4    C1970031  11.132   7.678   4.001  0.1320  0.4234 -0.5215
  834HK4    C1870032  11.113   7.647   3.861  0.0409 -0.6248 -0.2834
  834HK4    C1770033  11.006   7.704   3.794 -0.0765 -0.0673  0.3722
  834HK4     H870034  11.018   7.700   3.686  1.7952 -1.7020  0.6282
  834HK4     N170035  11.229   7.585   3.809  0.5384  0.3244 -0.3286
  834HK4    C2170036   0.071   7.567   3.916  0.1334  0.3751  0.0242
  834HK4    C2270037   0.016   7.628   4.036 -0.2671 -0.1910  0.1278
  834HK4    C2670038   0.089   7.639   4.154 -0.2365 -0.1772  0.1076
  834HK4    H1370039   0.067   7.712   4.231 -0.7697 -1.3518  1.0873
  834HK4    C2570040   0.209   7.570   4.162 -0.2624 -0.2879 -0.4602
  834HK4    H1270041   0.280   7.584   4.244 -1.6533 -3.5027  1.3812
  834HK4    C2470042   0.260   7.504   4.050 -0.2222 -0.3096 -0.4294
  834HK4    H1170043   0.370   7.498   4.059 -0.2964 -1.4982 -0.2286
  834HK4    C2370044   0.190   7.497   3.930 -0.2910 -0.4319 -0.3820
  834HK4    H1070045   0.218   7.419   3.859  1.3439 -0.0228 -0.2186
  834HK4    C3970046  11.232   7.524   3.683 -0.0922  0.2076 -0.2879
  834HK4    C4170047   0.108   7.495   3.624  0.0048 -0.9151  0.4539
  834HK4    H2170048   0.198   7.545   3.662  0.1430  0.8141 -2.0173
  834HK4    C4270049   0.119   7.424   3.504 -0.1980  0.2209 -0.2449
  834HK4    H2270050   0.216   7.391   3.464  0.1737  0.4041  0.5012
  834HK4    C4370051   0.002   7.392   3.437 -0.1798 -0.3014 -0.0284
  834HK4    H2370052  11.244   7.326   3.350 -1.5329  0.3054 -0.4055
  834HK4    C4470053  11.124   7.422   3.486  0.1059  0.7938  0.0309
  834HK4    H2470054  11.034   7.392   3.430  0.7956 -2.3945  0.5360
  834HK4    C4570055  11.118   7.487   3.610 -0.4871 -0.0523  0.4473
  834HK4    H2570056  11.019   7.490   3.658 -1.8011 -1.1581 -2.0619
  835HK4    H2870057   6.811   3.657   9.328 -0.5843 -1.4525  0.1832
  835HK4    C4870058   6.710   3.686   9.300  0.1216  0.2330 -0.6615
  835HK4    C4770059   6.621   3.608   9.226  0.3135 -0.2690 -0.3599
  835HK4    H2770060   6.670   3.535   9.159  1.3252  0.7582 -0.7637
  835HK4    C4670061   6.484   3.627   9.218  0.4167  0.4397 -0.5331
  835HK4    H2670062   6.426   3.568   9.145 -0.8096 -1.3010  1.8062
  835HK4    C4070063   6.426   3.722   9.304  0.4961 -0.1711  0.1989
  835HK4    C5070064   6.515   3.801   9.379  0.0568  0.4191  0.1005
  835HK4    H3070065   6.475   3.897   9.415 -0.0949  1.0087 -1.5988
  835HK4    C4970066   6.653   3.786   9.378 -0.0429 -0.5658  0.2490
  835HK4    H2970067   6.707   3.832   9.463 -0.5880  1.5909 -0.5383
  835HK4     N270068   6.291   3.759   9.298  0.4409 -0.4007 -0.0146
  835HK4    C3070069   6.200   3.749   9.191 -0.0574  0.0191  0.3649
  835HK4    C2970070   6.232   3.722   9.058  0.2813 -0.2429  0.4979
  835HK4    H1570071   6.335   3.695   9.034  0.0881 -2.4528  1.9455
  835HK4    C2870072   6.136   3.729   8.958  0.4518 -0.4047  0.3241
  835HK4    C2770073   6.004   3.751   9.003  0.2662 -0.4680 -0.1904
  835HK4    H1470074   5.917   3.703   8.955  0.8348 -2.4479  0.7293
  835HK4    C3270075   5.972   3.792   9.132  0.3486 -0.3216 -0.2141
  835HK4    H1670076   5.872   3.832   9.151  0.1980 -0.6076 -0.4036
  835HK4    C3170077   6.066   3.784   9.234 -0.0281  0.3464  0.1899
  835HK4    C3470078   6.075   3.797   9.378 -0.0249  0.6874  0.1608
  835HK4    C3370079   6.215   3.790   9.413 -0.0211 -0.9565 -0.1670
  835HK4    C3570080   6.247   3.768   9.547 -0.4833 -0.5156  0.0161
  835HK4    H1770081   6.349   3.779   9.584 -1.4771 -0.5233  2.8951
  835HK4    C3670082   6.147   3.748   9.641 -0.1561 -0.4466  0.3786
  835HK4    H1870083   6.175   3.725   9.745 -0.9293 -2.3195  0.2051
  835HK4    C3770084   6.014   3.765   9.603 -0.0974 -0.7093  0.0466
  835HK4    H1970085   5.938   3.733   9.675 -0.3232  0.2427  0.2395
  835HK4    C3870086   5.974   3.791   9.473  0.0064 -0.0283  0.1459
  835HK4    H2070087   5.872   3.827   9.457  0.1848  2.0483  3.3103
  835HK4    C1470088   6.173   3.740   8.816 -0.0148  0.0071  0.2288
  835HK4     C970089   6.106   3.811   8.716 -0.7737 -0.8406  0.1288
  835HK4     C870090   6.111   3.774   8.580 -0.3421 -0.4384  0.0340
  835HK4    C1170091   6.202   3.675   8.544 -0.4281 -0.5663  0.1773
  835HK4     H470092   6.218   3.655   8.438 -1.2324  2.1884 -0.5127
  835HK4    C1270093   6.278   3.603   8.636  0.1839 -0.0362  0.0865
  835HK4     H570094   6.316   3.500   8.627  0.2905 -0.2381  2.5743
  835HK4    C1370095   6.258   3.638   8.769 -0.1856 -0.0455  0.0345
  835HK4     H670096   6.314   3.587   8.849 -1.6791  0.1866  1.2689
  835HK4     C770097   6.043   3.854   8.476 -0.4204 -0.1590  0.3023
  835HK4     O270098   6.016   3.803   8.367  0.2253 -0.5396  0.3182
  835HK4     C470099   5.966   3.975   8.512  0.6223  0.6698 -0.2470
  835HK4     C370100   5.911   4.048   8.407 -0.3244  0.0265 -0.2024
  835HK4     H370101   5.926   4.014   8.304  0.6370 -3.1667  0.9470
  835HK4     C270102   5.839   4.164   8.435 -0.1134  0.0528  0.2324
  835HK4     H270103   5.812   4.235   8.356  1.5149 -0.0159 -0.4200
  835HK4     C170104   5.813   4.193   8.568  0.2434  0.2473  0.2613
  835HK4     H170105   5.754   4.283   8.590  0.8301  1.1170 -1.5963
  835HK4     C670106   5.856   4.114   8.676  0.7532  0.2328  0.0481
  835HK4     C570107   5.946   4.011   8.646 -0.3846 -0.7685  0.0057
  835HK4    C1070108   6.034   3.939   8.743  0.4894 -0.0388 -0.2313
  835HK4     O170109   6.084   4.013   8.827  0.0515 -0.0750  0.0599
  835HK4    C1670110   5.753   4.094   8.780  0.3768 -0.5905 -0.4778
  835HK4    C1570111   5.618   4.109   8.744  0.1392  0.2702  0.7262
  835HK4     H770112   5.584   4.083   8.642 -0.1296 -1.9700  1.3574
  835HK4    C2070113   5.517   4.131   8.837 -0.4182 -0.4620  0.3066
  835HK4     H970114   5.417   4.161   8.805  0.7520  2.3249 -0.9626
  835HK4    C1970115   5.548   4.142   8.972  0.1824  0.4374  0.0980
  835HK4    C1870116   5.687   4.124   9.011  0.2531  0.8910  0.0696
  835HK4    C1770117   5.785   4.100   8.915 -0.3240  0.1490 -0.3433
  835HK4     H870118   5.890   4.094   8.944  0.4619 -2.1161 -3.4594
  835HK4     N170119   5.701   4.128   9.151  0.0512 -0.3395  0.1314
  835HK4    C2170120   5.570   4.139   9.200  0.0340 -0.2405  0.0636
  835HK4    C2270121   5.473   4.160   9.095  0.0685  0.0416  0.0886
  835HK4    C2670122   5.338   4.186   9.120  0.0243 -0.0023 -0.1031
  835HK4    H1370123   5.272   4.160   9.038  2.0839 -0.7464 -1.5881
  835HK4    C2570124   5.292   4.215   9.248 -0.0774  0.2655 -0.1987
  835HK4    H1270125   5.202   4.275   9.256  0.5084  1.0304  0.7193
  835HK4    C2470126   5.386   4.195   9.348 -0.2934 -0.7992 -0.2117
  835HK4    H1170127   5.349   4.207   9.451  1.1361 -1.4517  0.3960
  835HK4    C2370128   5.521   4.166   9.328 -0.1406 -0.2383 -0.0032
  835HK4    H1070129   5.586   4.153   9.414  0.6469 -1.6135 -0.7830
  835HK4    C3970130   5.816   4.158   9.225  0.1405 -0.1137 -0.0982
  835HK4    C4170131   5.824   4.105   9.355 -0.2244  0.2122  0.0605
  835HK4    H2170132   5.774   4.012   9.385  2.2140 -1.0356  0.4396
  835HK4    C4270133   5.920   4.155   9.443 -0.1592  0.0118  0.1006
  835HK4    H2270134   5.923   4.118   9.547  1.4566  0.4916  0.2380
  835HK4    C4370135   5.998   4.265   9.411 -0.2800  0.0153 -0.1811
  835HK4    H2370136   6.077   4.303   9.477 -0.6401  2.0542 -0.8968
  835HK4    C4470137   5.989   4.323   9.285 -0.3333  0.0201 -0.1784
  835HK4    H2470138   6.032   4.421   9.263  0.5751  0.1397  1.9786
  835HK4    C4570139   5.902   4.265   9.193 -0.3423  0.2162 -0.2909
  835HK4    H2570140   5.920   4.281   9.086 -0.0296  0.0033 -0.2661
  836HK4    H2870141   8.167   8.321   5.220  0.1972 -0.6669 -0.3454
  836HK4    C4870142   8.107   8.286   5.135 -0.1686  0.0748 -0.3915
  836HK4    C4770143   8.147   8.298   5.003  0.5483 -0.0400 -0.1885
  836HK4    H2770144   8.210   8.382   4.970 -0.1162  1.2601  1.7757
  836HK4    C4670145   8.096   8.209   4.909  0.1470  0.3049 -0.3007
  836HK4    H2670146   8.135   8.209   4.807  0.1163 -1.4254 -0.3282
  836HK4    C4070147   8.008   8.101   4.932 -0.0343  0.4541 -0.3013
  836HK4    C5070148   7.972   8.091   5.068 -0.3323  0.2100 -0.3966
  836HK4    H3070149   7.921   8.000   5.103 -2.1627  1.9558  1.6360
  836HK4    C4970150   8.017   8.184   5.161  0.3995 -0.3760 -0.1597
  836HK4    H2970151   7.954   8.197   5.251  1.0777 -1.5794  0.4994
  836HK4     N270152   7.924   8.051   4.832  0.2356  0.0501 -0.3312
  836HK4    C3070153   7.881   8.135   4.727  0.6660 -0.1215 -0.6463
  836HK4    C2970154   7.877   8.274   4.718 -0.1761 -0.0792  0.2833
  836HK4    H1570155   7.900   8.339   4.801 -0.7004  0.1636  0.2402
  836HK4    C2870156   7.821   8.330   4.603 -0.2871 -0.0332  0.3580
  836HK4    C2770157   7.776   8.249   4.497 -0.0676  0.1927  0.0939
  836HK4    H1470158   7.774   8.290   4.395  1.0428  2.7258  1.0563
  836HK4    C3270159   7.762   8.111   4.512  0.0334  0.2058  0.3303
  836HK4    H1670160   7.696   8.054   4.447 -1.0182  0.8445  0.8213
  836HK4    C3170161   7.825   8.053   4.622  0.4525 -0.4677 -0.2656
  836HK4    C3470162   7.834   7.915   4.665  0.0116 -0.4081  0.0192
  836HK4    C3370163   7.891   7.918   4.798 -0.3976  0.0736  0.1843
  836HK4    C3570164   7.917   7.797   4.862 -0.3399  0.1476  0.3011
  836HK4    H1770165   7.922   7.802   4.970  0.6262 -0.2642  0.2831
  836HK4    C3670166   7.899   7.676   4.796  0.7171  0.0418  0.2019
  836HK4    H1870167   7.902   7.577   4.843  0.0150  0.5229  1.2640
  836HK4    C3770168   7.856   7.672   4.664 -0.1042  0.3776  0.4540
  836HK4    H1970169   7.874   7.586   4.598 -1.9867  0.1936  0.1731
  836HK4    C3870170   7.824   7.792   4.602 -0.5750 -0.1653 -0.3663
  836HK4    H2070171   7.810   7.790   4.494 -0.0305 -0.1978 -0.4379
  836HK4    C1470172   7.776   8.469   4.610  0.1269  0.1121  0.1813
  836HK4     C970173   7.675   8.508   4.521  0.0417 -0.3803  0.0605
  836HK4     C870174   7.697   8.628   4.449 -0.0649 -0.3587  0.0638
  836HK4    C1170175   7.809   8.706   4.474 -0.2639 -0.0310 -0.0684
  836HK4     H470176   7.824   8.789   4.404 -1.1286  2.2285  2.3220
  836HK4    C1270177   7.900   8.686   4.577 -0.0127  0.2430 -0.2381
  836HK4     H570178   7.987   8.748   4.605 -0.0548  1.2040 -2.1439
  836HK4    C1370179   7.878   8.563   4.638 -0.1871  0.4623  0.1421
  836HK4     H670180   7.950   8.540   4.718 -0.7023 -0.4099  0.3605
  836HK4     C770181   7.611   8.671   4.337  0.6902  0.2763 -0.2722
  836HK4     O270182   7.591   8.791   4.318  0.0937  0.3805  0.9140
  836HK4     C470183   7.506   8.573   4.303  0.3439  0.4287  0.3421
  836HK4     C370184   7.455   8.585   4.174  0.4169  0.6914  0.3362
  836HK4     H370185   7.498   8.655   4.100 -0.3303  1.2411  0.4129
  836HK4     C270186   7.350   8.505   4.132  0.4501  0.6781  0.2753
  836HK4     H270187   7.324   8.488   4.026  0.0544 -3.1993  0.9110
  836HK4     C170188   7.289   8.432   4.233  0.2999  0.0376 -0.2731
  836HK4     H170189   7.204   8.369   4.202  0.6672 -0.6788  0.1669
  836HK4     C670190   7.331   8.428   4.367 -0.4001  0.6971 -0.0320
  836HK4     C570191   7.450   8.492   4.404 -0.1063  0.1805 -0.1022
  836HK4    C1070192   7.539   8.448   4.515 -0.3305  0.4441  0.1840
  836HK4     O170193   7.505   8.375   4.608 -0.0306  0.1130  0.0399
  836HK4    C1670194   7.237   8.371   4.465 -0.1311 -0.2592 -0.3243
  836HK4    C1570195   7.143   8.273   4.427  0.1297 -0.6244 -0.0194
  836HK4     H770196   7.180   8.182   4.377  1.7449 -0.3157  0.5722
  836HK4    C2070197   7.021   8.258   4.491  0.2161 -0.2759  0.2301
  836HK4     H970198   6.937   8.208   4.443  0.5087 -1.1934  0.6552
  836HK4    C1970199   6.999   8.339   4.602  0.0637  0.1890 -0.1368
  836HK4    C1870200   7.089   8.446   4.641  0.2544 -0.0965  0.2036
  836HK4    C1770201   7.210   8.455   4.573  0.0347 -0.3421 -0.2191
  836HK4     H870202   7.280   8.522   4.622  0.9872 -2.6735  1.7244
  836HK4     N170203   7.053   8.504   4.764 -0.0898 -0.0631  0.0880
  836HK4    C2170204   6.930   8.445   4.799 -0.4496  0.5057 -0.2317
  836HK4    C2270205   6.896   8.342   4.704  0.6866 -0.5941  0.5283
  836HK4    C2670206   6.799   8.249   4.742 -0.5941  0.2567 -0.5809
  836HK4    H1370207   6.759   8.180   4.668  0.3132  1.5048 -2.2941
  836HK4    C2570208   6.745   8.245   4.870  0.2957 -0.2529 -0.2117
  836HK4    H1270209   6.666   8.178   4.903 -1.1890  0.8369 -1.4347
  836HK4    C2470210   6.782   8.342   4.962  0.3760 -0.2046 -0.2944
  836HK4    H1170211   6.711   8.373   5.041 -0.6581 -0.8150 -0.9719
  836HK4    C2370212   6.884   8.431   4.930  0.8713 -0.6203  0.1222
  836HK4    H1070213   6.931   8.489   5.009 -0.3950  0.1818  0.2937
  836HK4    C3970214   7.098   8.630   4.805  0.1799 -0.1715  0.1399
  836HK4    C4170215   7.110   8.649   4.944  0.1164  0.2024  0.0936
  836HK4    H2170216   7.124   8.561   5.008  1.2581 -0.8627 -1.5817
  836HK4    C4270217   7.141   8.774   4.996 -0.3308  0.3450  0.0162
  836HK4    H2270218   7.148   8.794   5.104  0.7175  1.0811 -0.1766
  836HK4    C4370219   7.165   8.879   4.908  0.0716  0.2787  0.0444
  836HK4    H2370220   7.201   8.976   4.943  1.1955 -0.3434  0.6538
  836HK4    C4470221   7.158   8.865   4.770  0.2552  0.6416 -0.0019
  836HK4    H2470222   7.198   8.942   4.702  0.0747  0.6579 -0.0903
  836HK4    C4570223   7.125   8.740   4.720  0.1357  0.3507  0.7997
  836HK4    H2570224   7.102   8.727   4.613  2.9919  1.9921 -0.0670
  837HK4    H2870225   6.686  10.428   5.620 -0.1194  0.1939 -0.7697
  837HK4    C4870226   6.790  10.407   5.642 -0.0641  1.0492 -0.1708
  837HK4    C4770227   6.821  10.354   5.767 -0.1842 -0.3938 -0.7435
  837HK4    H2770228   6.740  10.351   5.841  2.2245 -1.2685  1.9571
  837HK4    C4670229   6.951  10.323   5.806 -0.1709  0.1254 -0.3748
  837HK4    H2670230   6.978  10.279   5.902 -2.6992  1.4504  1.0005
  837HK4    C4070231   7.057  10.354   5.718  0.2253 -0.0519  0.0437
  837HK4    C5070232   7.021  10.413   5.596 -0.0115  0.8217  0.5296
  837HK4    H3070233   7.104  10.449   5.533  1.1875 -2.9190 -0.1679
  837HK4    C4970234   6.891  10.440   5.553  0.1057 -0.0897 -0.4105
  837HK4    H2970235   6.867  10.461   5.447 -3.2653 -1.3121  0.0509
  837HK4     N270236   7.189  10.321   5.754  0.4638  0.7726 -0.0497
  837HK4    C3070237   7.248  10.302   5.880 -0.3862 -0.6051  0.1532
  837HK4    C2970238   7.212  10.371   5.996 -0.2171  0.3036 -0.3325
  837HK4    H1570239   7.120  10.428   5.984 -1.0353 -1.2108 -1.5364
  837HK4    C2870240   7.294  10.376   6.108 -0.5621  0.1135 -0.0699
  837HK4    C2770241   7.407  10.293   6.110 -0.5062  0.1939  0.0099
  837HK4    H1470242   7.474  10.293   6.197 -1.7621  0.2119  0.9943
  837HK4    C3270243   7.450  10.226   5.996 -0.1180 -0.0210  0.2795
  837HK4    H1670244   7.556  10.202   5.982 -0.2136 -0.7076  0.6661
  837HK4    C3170245   7.370  10.224   5.882 -0.3464 -0.5380  0.4478
  837HK4    C3470246   7.395  10.198   5.742 -0.5171 -0.3407  0.3821
  837HK4    C3370247   7.277  10.246   5.673 -0.3885 -0.4169  0.1091
  837HK4    C3570248   7.273  10.216   5.537  0.0274  0.0182  0.0040
  837HK4    H1770249   7.189  10.252   5.479 -1.8366  0.2035  2.7182
  837HK4    C3670250   7.377  10.144   5.480  0.3907  0.3500  0.2368
  837HK4    H1870251   7.372  10.118   5.373 -1.5014 -1.1675  0.6633
  837HK4    C3770252   7.494  10.101   5.543  0.5710 -0.2496 -0.5025
  837HK4    H1970253   7.573  10.040   5.499  0.5038  0.6287 -1.8833
  837HK4    C3870254   7.501  10.136   5.677 -0.6813  0.3730 -0.5905
  837HK4    H2070255   7.582  10.103   5.742 -2.8472 -0.0881  1.9957
  837HK4    C1470256   7.302  10.506   6.176 -0.3869  0.1416 -0.1441
  837HK4     C970257   7.409  10.594   6.200 -0.0662 -0.3534  0.2610
  837HK4     C870258   7.408  10.689   6.304 -0.3640  0.4127 -0.4314
  837HK4    C1170259   7.292  10.703   6.380  0.2482 -0.1956  0.6337
  837HK4     H470260   7.291  10.768   6.469 -1.8904  1.2306 -0.3746
  837HK4    C1270261   7.176  10.632   6.347  0.0368  0.5483 -0.2293
  837HK4     H570262   7.081  10.660   6.393  0.1671 -1.8700  1.5989
  837HK4    C1370263   7.186  10.530   6.253 -0.4879  0.7189 -0.4735
  837HK4     H670264   7.091  10.482   6.226 -1.1087  1.8159 -0.2909
  837HK4     C770265   7.523  10.778   6.330 -0.3662  0.3650 -0.2520
  837HK4     O270266   7.520  10.848   6.431  0.1650  0.0289 -0.0063
  837HK4     C470267   7.641  10.767   6.241 -0.0550 -0.1120  0.2161
  837HK4     C370268   7.741  10.862   6.259 -0.6208  0.5708 -0.2050
  837HK4     H370269   7.733  10.935   6.341  0.7356  1.3966 -0.7847
  837HK4     C270270   7.864  10.834   6.200 -0.3199 -0.1389  0.7518
  837HK4     H270271   7.947  10.905   6.216  0.1091 -0.5040  0.1415
  837HK4     C170272   7.890  10.713   6.137 -0.8869  0.0410  0.1656
  837HK4     H170273   7.990  10.688   6.099 -1.0265  1.4634 -1.2084
  837HK4     C670274   7.790  10.615   6.130 -0.3537 -0.4938 -0.0056
  837HK4     C570275   7.659  10.648   6.168 -0.3208  0.3419 -0.6104
  837HK4    C1070276   7.538  10.570   6.130 -0.2107 -0.0932 -0.0914
  837HK4     O170277   7.526  10.542   6.010  0.3031 -0.1061 -0.1396
  837HK4    C1670278   7.825  10.478   6.089  0.0883 -0.4029  0.0616
  837HK4    C1570279   7.763  10.370   6.155 -0.0902 -0.0192  0.5262
  837HK4     H770280   7.699  10.405   6.237 -2.7614  2.5522 -2.4935
  837HK4    C2070281   7.808  10.239   6.148  0.1626  0.1031 -0.2873
  837HK4     H970282   7.754  10.158   6.199 -0.4757 -0.1159 -1.3068
  837HK4    C1970283   7.923  10.215   6.075  0.3992 -0.0458  0.1312
  837HK4    C1870284   7.985  10.319   5.996 -0.1293 -0.1005 -0.3621
  837HK4    C1770285   7.931  10.447   6.004 -0.3319 -0.1752 -0.5568
  837HK4     H870286   7.956  10.517   5.925 -0.7166  0.9205  0.2794
  837HK4     N170287   8.105  10.280   5.933 -0.2182 -0.4788 -0.2977
  837HK4    C2170288   8.123  10.147   5.978  0.0443 -0.3962 -0.1489
  837HK4    C2270289   8.016  10.104   6.065  0.5424  0.0206  0.6812
  837HK4    C2670290   8.036   9.982   6.129 -0.1707 -0.1023  0.6812
  837HK4    H1370291   7.955   9.941   6.188  0.1571  0.6303  1.6669
  837HK4    C2570292   8.148   9.899   6.120 -0.0642  0.0857  0.2600
  837HK4    H1270293   8.152   9.808   6.179 -2.8314 -0.9817 -1.0830
  837HK4    C2470294   8.248   9.943   6.034 -0.1114 -0.2237  0.0511
  837HK4    H1170295   8.336   9.882   6.010 -0.0650 -1.3038  2.8608
  837HK4    C2370296   8.235  10.065   5.969  0.2361 -0.1633  0.0902
  837HK4    H1070297   8.311  10.092   5.895  0.0520 -2.3007 -0.9214
  837HK4    C3970298   8.145  10.333   5.810  0.4725  0.2532  0.2337
  837HK4    C4170299   8.282  10.348   5.778  0.3875 -0.0192 -0.2685
  837HK4    H2170300   8.352  10.344   5.863 -1.6906  1.0588  1.5580
  837HK4    C4270301   8.318  10.375   5.647  0.3349  1.1859 -0.0403
  837HK4    H2270302   8.425  10.375   5.621 -0.3634 -1.3706 -3.2528
  837HK4    C4370303   8.226  10.398   5.545 -0.0361 -0.1457 -0.0126
  837HK4    H2370304   8.257  10.415   5.442  0.5568  1.8958  0.4851
  837HK4    C4470305   8.092  10.398   5.582  0.0035  0.0912  0.1334
  837HK4    H2470306   8.008  10.411   5.513 -2.0887 -1.1867  2.3393
  837HK4    C4570307   8.050  10.360   5.709  0.3772  0.7591  0.4581
  837HK4    H2570308   7.945  10.335   5.732  0.3344 -0.2096 -0.7530
  838HK4    H2870309   9.459   9.815   6.778 -0.2500  2.9629  0.2208
  838HK4    C4870310   9.548   9.815   6.715 -0.3740  0.4589 -0.0402
  838HK4    C4770311   9.626   9.929   6.699  0.3848 -0.0283  0.1909
  838HK4    H2770312   9.591  10.030   6.726  0.9527  0.2942 -0.2431
  838HK4    C4670313   9.739   9.922   6.617  0.1621  0.7626 -0.1901
  838HK4    H2670314   9.792  10.016   6.600 -1.5351  2.1228  1.7490
  838HK4    C4070315   9.786   9.799   6.565 -0.3940  0.4874 -0.0422
  838HK4    C5070316   9.707   9.685   6.592  0.4149  0.0090  0.3070
  838HK4    H3070317   9.748   9.591   6.554  0.3751  0.1472 -0.0798
  838HK4    C4970318   9.583   9.695   6.655  0.5240  0.4633  0.4488
  838HK4    H2970319   9.503   9.622   6.637  1.2951 -0.2776  0.0051
  838HK4     N270320   9.923   9.789   6.542 -0.3481  0.6527  0.1365
  838HK4    C3070321  10.020   9.866   6.610 -0.2576  0.5018  0.1738
  838HK4    C2970322  10.037   9.875   6.748  0.1270  0.5496  0.1252
  838HK4    H1570323   9.944   9.860   6.802 -0.1236 -1.8091 -0.8985
  838HK4    C2870324  10.164   9.902   6.798  0.4470 -0.5624 -0.0769
  838HK4    C2770325  10.273   9.929   6.714  0.0566  0.3501 -0.2970
  838HK4    H1470326  10.370   9.954   6.760 -0.5121 -2.3782  2.5684
  838HK4    C3270327  10.263   9.918   6.575 -0.1678 -0.0739 -0.2460
  838HK4    H1670328  10.350   9.931   6.511 -0.8896  0.1196 -1.1923
  838HK4    C3170329  10.138   9.881   6.527 -0.2612 -0.1484  0.0490
  838HK4    C3470330  10.105   9.808   6.406  0.3415 -0.6646  0.1969
  838HK4    C3370331   9.972   9.751   6.416  0.0133  0.1251  0.4340
  838HK4    C3570332   9.920   9.670   6.316  0.1504  0.4897  0.0684
  838HK4    H1770333   9.819   9.630   6.329 -0.0301  0.0791 -2.2826
  838HK4    C3670334   9.996   9.647   6.202  0.1609 -0.0773  0.1897
  838HK4    H1870335   9.942   9.611   6.113 -0.9051 -1.9295  1.5451
  838HK4    C3770336  10.122   9.703   6.182  0.4148 -0.7138 -0.0083
  838HK4    H1970337  10.181   9.671   6.096 -1.7436  1.8254 -2.5517
  838HK4    C3870338  10.171   9.779   6.288 -0.0677 -0.2061 -0.1434
  838HK4    H2070339  10.269   9.823   6.271  0.4342 -1.2673 -0.0850
  838HK4    C1470340  10.162   9.924   6.944 -0.3275 -0.2686 -0.1295
  838HK4     C970341  10.253  10.009   7.006 -0.7187 -0.1134  0.2352
  838HK4     C870342  10.322   9.974   7.124  0.0163  0.0340 -0.1449
  838HK4    C1170343  10.292   9.856   7.191 -0.6235  0.1851 -0.1625
  838HK4     H470344  10.327   9.844   7.294 -0.5946 -1.7950 -0.3915
  838HK4    C1270345  10.194   9.771   7.141  0.1259 -0.7784 -0.0235
  838HK4     H570346  10.180   9.667   7.171 -1.7948 -0.1750  1.2778
  838HK4    C1370347  10.131   9.811   7.023  0.1569 -0.2009  0.1519
  838HK4     H670348  10.051   9.742   6.993 -0.3420  0.5239 -0.1984
  838HK4     C770349  10.432  10.060   7.175  0.0064 -0.1349  0.1667
  838HK4     O270350  10.481  10.037   7.285 -0.3296  0.2378  0.3940
  838HK4     C470351  10.457  10.183   7.097 -0.3799 -0.2556 -0.1542
  838HK4     C370352  10.577  10.248   7.128 -0.5841  0.1984 -0.2941
  838HK4     H370353  10.659  10.194   7.177  0.1831  0.6454 -1.0753
  838HK4     C270354  10.588  10.383   7.102  0.1953  0.2525  0.3326
  838HK4     H270355  10.685  10.436   7.105  0.4622  0.0028 -2.3716
  838HK4     C170356  10.470  10.444   7.061  0.3509  0.2340 -0.1519
  838HK4     H170357  10.469  10.548   7.097 -1.1370 -0.8376  3.1436
  838HK4     C670358  10.346  10.388   7.023  0.3393  0.1565 -0.0080
  838HK4     C570359  10.354  10.248   7.027  0.2626  0.1323 -0.7412
  838HK4    C1070360  10.262  10.151   6.961  0.6659 -0.4186 -0.4902
  838HK4     O170361  10.208  10.183   6.855 -0.4079 -0.0520  0.1639
  838HK4    C1670362  10.244  10.471   6.958 -0.2471 -0.5598 -0.0095
  838HK4    C1570363  10.263  10.604   6.914 -0.5290 -0.4794  0.1125
  838HK4     H770364  10.368  10.635   6.900  0.1072 -2.2497  0.8239
  838HK4    C2070365  10.165  10.698   6.886  0.0108  0.0668  0.0363
  838HK4     H970366  10.197  10.801   6.896  2.0679 -0.5697  0.1605
  838HK4    C1970367  10.034  10.652   6.901  0.0864 -0.1208  0.1391
  838HK4    C1870368   9.999  10.520   6.949 -0.2736  0.0932  0.4636
  838HK4    C1770369  10.110  10.440   6.975 -0.3548 -0.2792 -0.3322
  838HK4     H870370  10.089  10.341   7.017 -0.2848 -0.2816 -0.3039
  838HK4     N170371   9.859  10.503   6.948 -0.2279 -0.2806  0.1865
  838HK4    C2170372   9.805  10.618   6.887  0.0528 -0.2783 -0.0681
  838HK4    C2270373   9.909  10.717   6.868  0.1111 -0.4444 -0.5965
  838HK4    C2670374   9.881  10.852   6.849  0.0785 -0.3339  0.2006
  838HK4    H1370375   9.958  10.927   6.834 -0.2165 -0.1873 -0.6247
  838HK4    C2570376   9.745  10.883   6.846  0.0826 -0.2861  0.4016
  838HK4    H1270377   9.722  10.986   6.822  0.8730 -0.2332 -0.1450
  838HK4    C2470378   9.639  10.794   6.859 -0.1887 -0.0034  0.1261
  838HK4    H1170379   9.534  10.823   6.853 -1.4226 -4.2326 -0.5629
  838HK4    C2370380   9.672  10.660   6.876  0.1475  0.0818  0.1528
  838HK4    H1070381   9.601  10.578   6.873  0.4718 -0.2798  1.8417
  838HK4    C3970382   9.794  10.380   6.936 -0.1188 -0.3116 -0.0841
  838HK4    C4170383   9.859  10.267   6.883  0.2453 -0.0886 -0.1161
  838HK4    H2170384   9.949  10.276   6.820 -0.4129 -0.1441 -1.0737
  838HK4    C4270385   9.798  10.142   6.887  0.1125 -0.0322 -0.3466
  838HK4    H2270386   9.860  10.058   6.851  1.3227  1.3254 -1.5319
  838HK4    C4370387   9.673  10.127   6.945  0.3624 -0.1241  0.1667
  838HK4    H2370388   9.636  10.025   6.939 -1.1429  0.4662 -1.0372
  838HK4    C4470389   9.609  10.239   6.998 -0.0484 -0.2566 -0.0446
  838HK4    H2470390   9.505  10.226   7.033 -0.5707  3.1500 -0.1959
  838HK4    C4570391   9.670  10.363   7.001 -0.2736 -0.1354 -0.3366
  838HK4    H2570392   9.648  10.430   7.086  0.7923  0.1911 -0.3144
  839HK4    H2870393   7.929  11.148   0.525  0.2153 -2.0818  0.9701
  839HK4    C4870394   8.002  11.110   0.453  0.3454 -0.3792  0.1767
  839HK4    C4770395   7.968  11.067   0.325 -0.1942  0.0966  0.1552
  839HK4    H2770396   7.871  11.100   0.285  0.4791  1.1055 -0.6614
  839HK4    C4670397   8.062  11.012   0.239 -0.1269  0.4542  0.0004
  839HK4    H2670398   8.024  10.943   0.162  1.4676 -1.7751  1.1676
  839HK4    C4070399   8.198  11.029   0.272 -0.0770 -0.0028  0.0257
  839HK4    C5070400   8.233  11.088   0.395  0.1748  0.2260 -0.1557
  839HK4    H3070401   8.333  11.132   0.408  1.2703 -1.7551 -1.6353
  839HK4    C4970402   8.135  11.124   0.488  0.3298 -0.3840  0.2436
  839HK4    H2970403   8.163  11.169   0.584 -1.4147  0.5545  0.3364
  839HK4     N270404   8.298  11.003   0.178  0.0719  0.5864  0.0257
  839HK4    C3070405   8.279  11.000   0.038  0.1200 -0.2309  0.0369
  839HK4    C2970406   8.168  11.040  11.212  0.3845  0.3999 -0.0281
  839HK4    H1570407   8.087  11.097   0.010  0.8796  2.5325 -1.7642
  839HK4    C2870408   8.156  11.008  11.077 -0.0644 -0.6048  0.2388
  839HK4    C2770409   8.266  10.949  11.012 -0.1911 -0.3825 -0.1796
  839HK4    H1470410   8.232  10.893  10.923  1.0148  1.0434 -1.5563
  839HK4    C3270411   8.385  10.920  11.078  0.0774  0.4460 -0.3054
  839HK4    H1670412   8.478  10.894  11.029 -0.2476 -1.2650 -0.0206
  839HK4    C3170413   8.393  10.945  11.215 -0.0203 -0.2498 -0.1682
  839HK4    C3470414   8.493  10.920   0.069  0.1605  0.0774 -0.2619
  839HK4    C3370415   8.432  10.962   0.193 -0.2583 -0.6102 -0.2370
  839HK4    C3570416   8.513  10.951   0.306 -0.1947 -0.0960 -0.2321
  839HK4    H1770417   8.483  10.991   0.402  1.2666  0.6769 -0.0913
  839HK4    C3670418   8.643  10.901   0.297  0.1218  0.6558  0.1370
  839HK4    H1870419   8.698  10.885   0.391  1.6364 -0.8100 -0.9909
  839HK4    C3770420   8.697  10.859   0.176 -0.3529 -0.4378  0.2985
  839HK4    H1970421   8.796  10.814   0.174 -0.3777 -0.7906  3.8393
  839HK4    C3870422   8.622  10.868   0.060 -0.1680 -0.8087  0.1509
  839HK4    H2070423   8.675  10.869  11.213 -0.2366  1.9948  0.0867
  839HK4    C1470424   8.041  11.052  10.996  0.0120 -0.4172  0.2342
  839HK4     C970425   7.908  11.065  11.038 -0.0537  0.2019 -0.1533
  839HK4     C870426   7.827  11.170  10.991 -0.2800  0.3415  0.5415
  839HK4    C1170427   7.883   0.010  10.899 -0.1177  0.0155  0.3283
  839HK4     H470428   7.831   0.105  10.879 -1.8315 -1.2209 -1.2495
  839HK4    C1270429   8.010  11.242  10.843 -0.3814 -0.0769 -0.2469
  839HK4     H570430   8.053   0.064  10.770  0.1954 -0.1425  0.0249
  839HK4    C1370431   8.085  11.136  10.892 -0.8742 -0.3610 -0.1006
  839HK4     H670432   8.189  11.132  10.855 -0.8485  0.1856 -0.0950
  839HK4     C770433   7.680  11.162  11.003 -0.2987 -0.1146  0.0166
  839HK4     O270434   7.632   0.027  11.013 -0.4344 -0.1403 -0.3447
  839HK4     C470435   7.618  11.042  11.062 -0.0082  0.0414  0.6407
  839HK4     C370436   7.479  11.030  11.057  0.0438 -0.2010 -0.2260
  839HK4     H370437   7.426  11.111  11.005 -1.7277 -2.1004 -1.4254
  839HK4     C270438   7.414  10.924  11.118  0.2426 -0.3566 -0.2823
  839HK4     H270439   7.307  10.936  11.141  0.3955  0.8101 -0.1804
  839HK4     C170440   7.485  10.820  11.177  0.0414 -0.1795  0.2798
  839HK4     H170441   7.429  10.730  11.205 -1.7317  1.6096  2.6791
  839HK4     C670442   7.624  10.841  11.194 -0.1419  0.4685  1.0009
  839HK4     C570443   7.693  10.943  11.129  0.0933 -0.2808  0.0559
  839HK4    C1070444   7.841  10.951  11.107  0.0972  0.3923  0.3177
  839HK4     O170445   7.906  10.851  11.133 -0.3414  0.0472  0.0784
  839HK4    C1670446   7.685  10.731   0.022 -0.6505  0.0394  0.7997
  839HK4    C1570447   7.650  10.596   0.000 -0.3600  0.1686 -0.4711
  839HK4     H770448   7.617  10.563  11.149 -1.7921  3.3896 -1.1387
  839HK4    C2070449   7.689  10.497   0.090  0.5759  0.3949 -0.6247
  839HK4     H970450   7.675  10.391   0.073  1.4113  0.1333  0.2953
  839HK4    C1970451   7.759  10.531   0.205  0.7214 -0.0034 -0.5935
  839HK4    C1870452   7.763  10.671   0.245 -0.7262 -0.1008 -0.0523
  839HK4    C1770453   7.739  10.765   0.146  0.2591  0.5041  0.2818
  839HK4     H870454   7.772  10.868   0.159  1.1755  0.1336  0.9352
  839HK4     N170455   7.819  10.683   0.374 -0.2422  0.2652 -0.2972
  839HK4    C2170456   7.864  10.553   0.406  0.3543  0.4619 -0.3214
  839HK4    C2270457   7.810  10.453   0.316  0.3668  0.3357 -0.1872
  839HK4    C2670458   7.829  10.316   0.330  0.1333  0.2487 -0.6890
  839HK4    H1370459   7.801  10.251   0.246 -2.0284  0.4094 -0.1342
  839HK4    C2570460   7.895  10.272   0.444  0.2267  0.6167 -0.6027
  839HK4    H1270461   7.925  10.168   0.457 -1.1335  0.1979 -0.7502
  839HK4    C2470462   7.949  10.367   0.531 -0.0575 -0.0151  0.2650
  839HK4    H1170463   8.010  10.340   0.618  0.5246  2.4975  0.6738
  839HK4    C2370464   7.941  10.504   0.511 -0.3116 -0.0775 -0.0821
  839HK4    H1070465   8.015  10.567   0.561 -0.4152 -0.6518  0.8045
  839HK4    C3970466   7.801  10.792   0.459  0.4950  0.4332 -0.3548
  839HK4    C4170467   7.889  10.821   0.566  0.0454  0.0154  0.1252
  839HK4    H2170468   7.990  10.780   0.558 -0.9308 -2.5223  0.2038
  839HK4    C4270469   7.863  10.919   0.661  0.0931 -0.1091  0.2691
  839HK4    H2270470   7.937  10.949   0.736  0.3806 -0.1954  0.0229
  839HK4    C4370471   7.737  10.978   0.657 -0.1226 -0.5843 -0.0497
  839HK4    H2370472   7.723  11.063   0.724  0.8203 -1.3393  1.1241
  839HK4    C4470473   7.645  10.955   0.556  0.1895 -0.3700 -0.3830
  839HK4    H2470474   7.552  11.013   0.553 -0.1800 -0.9223  0.4166
  839HK4    C4570475   7.679  10.863   0.457  0.1449 -0.1758 -0.5794
  839HK4    H2570476   7.609  10.845   0.374 -1.6237  2.2544  0.3446
  840HK4    H2870477   6.125  10.916   9.685  2.7575 -0.4129  0.5804
  840HK4    C4870478   6.135  10.914   9.577 -0.3730 -0.0453  0.2435
  840HK4    C4770479   6.217  10.820   9.516 -0.3725 -0.0038  0.1785
  840HK4    H2770480   6.244  10.729   9.571 -2.5863 -1.2263 -0.6849
  840HK4    C4670481   6.232  10.823   9.377  0.5807  0.9065  0.2927
  840HK4    H2670482   6.318  10.762   9.343 -0.2652 -0.1498  0.0260
  840HK4    C4070483   6.169  10.922   9.299 -0.1210 -0.1928 -0.5347
  840HK4    C5070484   6.084  11.012   9.364 -0.2917 -0.7003 -0.0539
  840HK4    H3070485   6.052  11.107   9.318  2.0276 -0.1825 -0.6694
  840HK4    C4970486   6.068  11.010   9.502  0.6395  0.5483  0.0860
  840HK4    H2970487   5.977  11.055   9.546 -0.4476  0.3693 -1.8951
  840HK4     N270488   6.211  10.936   9.166  0.2144 -0.0049 -0.4089
  840HK4    C3070489   6.124  10.959   9.057  0.2307  0.1909 -0.3822
  840HK4    C2970490   5.990  10.926   9.046  0.0989  0.6212 -0.0634
  840HK4    H1570491   5.949  10.852   9.115 -1.1827  1.0822 -0.3069
  840HK4    C2870492   5.917  10.972   8.937 -0.3182  0.2824  0.0697
  840HK4    C2770493   5.986  11.037   8.832 -0.6876  1.0024  0.2735
  840HK4    H1470494   5.938  11.045   8.733 -2.3182  1.8103  1.0978
  840HK4    C3270495   6.122  11.065   8.836 -0.6692  0.9065  0.2809
  840HK4    H1670496   6.179  11.122   8.763 -1.3752  0.9254 -0.2626
  840HK4    C3170497   6.193  11.024   8.948  0.0488  0.4515 -0.3384
  840HK4    C3470498   6.334  11.032   8.983 -0.0893  0.0603  0.2959
  840HK4    C3370499   6.336  10.984   9.120  0.5859 -0.4708  0.1024
  840HK4    C3570500   6.461  10.973   9.180  0.4179 -0.6963  0.4144
  840HK4    H1770501   6.471  10.959   9.288 -0.7027 -0.8616  0.5053
  840HK4    C3670502   6.578  10.992   9.108 -0.1373  0.0564 -0.2957
  840HK4    H1870503   6.676  10.992   9.158  1.1551 -1.1895 -2.7345
  840HK4    C3770504   6.574  11.030   8.975  0.3755 -0.0101 -0.3341
  840HK4    H1970505   6.659  11.058   8.913  1.1236 -1.6845 -0.0766
  840HK4    C3870506   6.451  11.050   8.912 -0.0143 -0.3659  0.3072
  840HK4    H2070507   6.460  11.088   8.810  0.1092  2.1271  1.2149
  840HK4    C1470508   5.788  10.909   8.908  0.1674 -0.7168  0.0483
  840HK4     C970509   5.752  10.886   8.774 -0.0407  0.1932 -0.0550
  840HK4     C870510   5.632  10.927   8.713 -0.4919 -0.4161  0.4168
  840HK4    C1170511   5.544  10.996   8.795 -0.1459  0.3741  0.1217
  840HK4     H470512   5.470  11.065   8.752 -1.5750 -0.5670  1.0161
  840HK4    C1270513   5.570  11.011   8.931  0.2828 -0.0213  0.0849
  840HK4     H570514   5.495  11.063   8.993  0.4923 -1.0958  1.2698
  840HK4    C1370515   5.685  10.959   8.990  0.1310 -0.5594 -0.0917
  840HK4     H670516   5.704  10.970   9.098  2.5457 -2.3888 -0.3060
  840HK4     C770517   5.595  10.898   8.572  0.0048 -0.0291  0.2050
  840HK4     O270518   5.480  10.907   8.532 -0.0716 -0.1941  0.3802
  840HK4     C470519   5.693  10.825   8.489 -0.1899 -0.4509  0.3401
  840HK4     C370520   5.661  10.786   8.359 -0.7290  0.3066  0.2409
  840HK4     H370521   5.576  10.823   8.300  1.6759  1.5461 -2.5645
  840HK4     C270522   5.752  10.715   8.281  0.1859  0.8754  0.7867
  840HK4     H270523   5.720  10.686   8.180 -1.1852  0.1523  1.4164
  840HK4     C170524   5.879  10.694   8.333  0.2903 -0.6305 -0.0657
  840HK4     H170525   5.943  10.624   8.276  0.2266 -0.7341 -0.0073
  840HK4     C670526   5.922  10.736   8.461  0.1239  0.2057 -0.2855
  840HK4     C570527   5.821  10.793   8.540  0.1523  0.0879 -0.1681
  840HK4    C1070528   5.833  10.795   8.688  0.0850  0.4091 -0.1671
  840HK4     O170529   5.874  10.695   8.746 -0.3784  0.2155 -0.1740
  840HK4    C1670530   6.064  10.770   8.469  0.1922 -0.0436 -0.4318
  840HK4    C1570531   6.141  10.799   8.354 -0.1003  0.6497 -0.4578
  840HK4     H770532   6.103  10.771   8.255 -1.9795  1.8591 -0.0865
  840HK4    C2070533   6.274  10.839   8.368 -0.2491  0.9690  0.0410
  840HK4     H970534   6.322  10.891   8.286  0.0271  1.1048  0.2896
  840HK4    C1970535   6.349  10.832   8.485 -0.2657 -0.1773 -0.0071
  840HK4    C1870536   6.272  10.776   8.595 -0.2195 -0.2612 -0.0198
  840HK4    C1770537   6.135  10.758   8.589 -0.2210 -0.1917 -0.2027
  840HK4     H870538   6.089  10.766   8.687  0.8062  1.5103  0.1642
  840HK4     N170539   6.357  10.735   8.699  0.1906  0.4257 -0.0779
  840HK4    C2170540   6.490  10.753   8.656  0.1458  0.6099 -0.1318
  840HK4    C2270541   6.487  10.809   8.522 -0.1417 -0.1586 -0.4550
  840HK4    C2670542   6.599  10.820   8.439  0.2863  0.3270  0.1847
  840HK4    H1370543   6.584  10.860   8.339 -1.5897 -0.1241  0.2673
  840HK4    C2570544   6.715  10.760   8.487 -0.0275 -0.2104  0.2679
  840HK4    H1270545   6.810  10.764   8.434 -0.6224 -2.5894 -1.0636
  840HK4    C2470546   6.720  10.707   8.615 -0.0148 -0.3816  0.1994
  840HK4    H1170547   6.822  10.685   8.648  0.6907 -2.0913 -3.0093
  840HK4    C2370548   6.611  10.701   8.701 -0.1462  0.1102  0.0645
  840HK4    H1070549   6.611  10.638   8.790  0.8938  1.8275  1.3014
  840HK4    C3970550   6.316  10.674   8.818  0.4072 -0.5002 -0.4698
  840HK4    C4170551   6.398  10.691   8.932 -0.1248  0.0753 -0.1691
  840HK4    H2170552   6.470  10.774   8.942 -1.0647  0.9390 -0.4895
  840HK4    C4270553   6.368  10.629   9.052  0.0766 -0.4056 -0.3683
  840HK4    H2270554   6.436  10.653   9.136  1.5195 -0.9102 -1.3605
  840HK4    C4370555   6.265  10.537   9.064 -0.2607  0.0566  0.3275
  840HK4    H2370556   6.257  10.476   9.154 -1.3358 -0.6204 -0.2204
  840HK4    C4470557   6.189  10.512   8.950  0.2823 -0.6056  0.1055
  840HK4    H2470558   6.106  10.439   8.957 -0.0940 -0.1185  0.7679
  840HK4    C4570559   6.217  10.574   8.830  0.5378 -0.5587  0.1886
  840HK4    H2570560   6.160  10.540   8.742 -0.9768  0.2098  0.8671
  841HK4    H2870561   3.313   2.040  10.797 -0.0952  0.6899 -0.3247
  841HK4    C4870562   3.292   2.025  10.691 -0.0141  0.0089 -0.2413
  841HK4    C4770563   3.346   2.119  10.604  0.0016 -0.1251 -0.3758
  841HK4    H2770564   3.395   2.212  10.634 -0.6151  0.8212 -2.2355
  841HK4    C4670565   3.316   2.109  10.468 -0.2456 -0.3379 -0.3051
  841HK4    H2670566   3.383   2.172  10.408  0.0439  0.5365  0.9162
  841HK4    C4070567   3.236   2.005  10.416 -0.8730  0.0396 -0.1023
  841HK4    C5070568   3.180   1.914  10.509 -0.0678  0.0619  0.4145
  841HK4    H3070569   3.124   1.830  10.467  2.6301 -0.3608 -2.5189
  841HK4    C4970570   3.211   1.922  10.644  0.2081 -0.4546  0.3818
  841HK4    H2970571   3.183   1.845  10.717 -0.2498 -1.0305 -0.3948
  841HK4     N270572   3.239   1.980  10.279  0.0892 -0.0178 -0.0746
  841HK4    C3070573   3.343   2.007  10.188  0.0415 -0.2517 -0.1991
  841HK4    C2970574   3.479   2.021  10.215  0.0463 -0.1119 -0.2917
  841HK4    H1570575   3.501   1.998  10.319 -0.8105  0.2751 -0.0174
  841HK4    C2870576   3.570   2.060  10.118 -0.2356  0.1255 -0.4605
  841HK4    C2770577   3.525   2.066   9.984 -0.2930  0.5212 -0.4257
  841HK4    H1470578   3.599   2.082   9.904 -0.1944 -0.3993 -0.5242
  841HK4    C3270579   3.392   2.047   9.951 -0.2070  0.2465 -0.6163
  841HK4    H1670580   3.364   2.071   9.848 -2.1342 -1.5260 -0.5309
  841HK4    C3170581   3.299   2.019  10.050  0.3024 -0.2908 -0.2894
  841HK4    C3470582   3.156   1.996  10.063  0.1552  0.9832  0.4477
  841HK4    C3370583   3.121   1.976  10.202 -0.1437  0.2558  0.2690
  841HK4    C3570584   2.988   1.995  10.237 -0.1792 -0.0599  0.3135
  841HK4    H1770585   2.959   1.976  10.340 -1.1357 -1.1779 -0.1608
  841HK4    C3670586   2.897   2.026  10.137 -0.0318 -0.0015  0.1983
  841HK4    H1870587   2.794   2.028  10.176  0.2625  1.1622  0.9489
  841HK4    C3770588   2.934   2.040  10.004  0.6110 -0.2715  0.3452
  841HK4    H1970589   2.868   2.089   9.932  2.7490  1.3527 -0.5710
  841HK4    C3870590   3.065   2.027   9.962  0.3849 -0.6332 -0.2555
  841HK4    H2070591   3.076   2.028   9.853  1.7488  0.1057 -0.1207
  841HK4    C1470592   3.696   2.122  10.162 -0.0101 -0.4409 -0.3029
  841HK4     C970593   3.766   2.216  10.085 -0.1111 -0.0144  0.1232
  841HK4     C870594   3.907   2.225  10.090 -0.1124  0.2929 -0.4034
  841HK4    C1170595   3.966   2.155  10.194 -0.6120  0.2410 -0.1505
  841HK4     H470596   4.072   2.179  10.209 -0.4462 -0.1333 -0.6756
  841HK4    C1270597   3.903   2.068  10.282  0.0252  0.1702  0.2333
  841HK4     H570598   3.962   2.012  10.356  2.0668  1.2118 -0.5660
  841HK4    C1370599   3.767   2.052  10.262 -0.0247  0.4559  0.3416
  841HK4     H670600   3.718   1.972  10.318 -2.9228  2.4352  0.7310
  841HK4     C770601   3.982   2.322  10.007 -0.1677  0.5654 -0.1386
  841HK4     O270602   4.097   2.293   9.974 -0.3222 -0.1290 -0.0849
  841HK4     C470603   3.911   2.439   9.950 -0.1334  0.5710 -0.1718
  841HK4     C370604   3.980   2.541   9.886  1.0047 -0.3207 -0.3687
  841HK4     H370605   4.071   2.584   9.930  0.5658  0.4301 -0.1967
  841HK4     C270606   3.928   2.606   9.775  0.5270 -0.0579  0.0135
  841HK4     H270607   3.981   2.688   9.726 -0.0076 -0.8975 -2.0300
  841HK4     C170608   3.797   2.577   9.738  0.3800  0.0695  0.4237
  841HK4     H170609   3.761   2.636   9.652  0.1904 -2.1276 -1.0221
  841HK4     C670610   3.721   2.479   9.805 -0.1319  0.4016  0.3370
  841HK4     C570611   3.775   2.417   9.918 -0.0652 -0.1314  0.0179
  841HK4    C1070612   3.699   2.320  10.002 -0.0952  0.1239  0.2876
  841HK4     O170613   3.591   2.360  10.047 -0.5525 -0.4685 -0.2701
  841HK4    C1670614   3.612   2.420   9.726 -0.1404  0.2544  0.4647
  841HK4    C1570615   3.629   2.386   9.591 -0.2666  0.3394  0.4242
  841HK4     H770616   3.728   2.400   9.545 -0.4499 -0.3874 -0.2083
  841HK4    C2070617   3.526   2.357   9.501 -0.1245  0.3480  0.2601
  841HK4     H970618   3.543   2.321   9.400 -2.1151 -1.6281  0.5896
  841HK4    C1970619   3.396   2.360   9.550 -0.1604  0.5751  0.1533
  841HK4    C1870620   3.375   2.395   9.690  0.1260 -0.3500  0.4333
  841HK4    C1770621   3.481   2.435   9.770 -0.1264 -0.0609  0.6164
  841HK4     H870622   3.458   2.492   9.861  0.2221  0.3687  0.4379
  841HK4     N170623   3.240   2.370   9.722  0.0449 -0.2312  0.1890
  841HK4    C2170624   3.189   2.302   9.610 -0.1034 -0.0628  0.1575
  841HK4    C2270625   3.275   2.304   9.493 -0.1099  0.4637  0.1555
  841HK4    C2670626   3.244   2.230   9.380 -0.4245  0.0989  0.4787
  841HK4    H1370627   3.283   2.264   9.284  1.2313  1.4689  1.6081
  841HK4    C2570628   3.133   2.147   9.373 -0.5299  0.3032 -0.3696
  841HK4    H1270629   3.104   2.089   9.285  0.6089 -0.5254 -0.2158
  841HK4    C2470630   3.061   2.137   9.492  0.6742 -0.3304  0.3139
  841HK4    H1170631   2.980   2.063   9.495 -0.0404  0.4793  1.7277
  841HK4    C2370632   3.079   2.218   9.603 -0.3069  0.2056  0.0880
  841HK4    H1070633   2.992   2.218   9.670  1.3236  2.3705  2.2899
  841HK4    C3970634   3.188   2.370   9.852  0.1835 -0.1982  0.2477
  841HK4    C4170635   3.049   2.375   9.870  0.1171  0.2281 -0.3808
  841HK4    H2170636   2.994   2.427   9.790 -0.0166  0.1215 -0.3584
  841HK4    C4270637   2.984   2.360   9.992  0.2032 -0.1520 -0.3777
  841HK4    H2270638   2.876   2.351  10.008  0.0453  0.5002 -1.0211
  841HK4    C4370639   3.059   2.345  10.108 -0.0515  0.5113 -0.1235
  841HK4    H2370640   3.022   2.309  10.204  2.1907 -0.5325  0.3999
  841HK4    C4470641   3.198   2.344  10.094  0.0032 -0.0558  0.4300
  841HK4    H2470642   3.262   2.341  10.183 -1.4928 -1.3533  1.4792
  841HK4    C4570643   3.262   2.351   9.971 -0.0809 -0.4997  0.3611
  841HK4    H2570644   3.360   2.302   9.968  1.4085  2.1038  3.5263
  842HK4    H2870645   6.535   5.493   1.631 -2.5609 -2.2161  0.6352
  842HK4    C4870646   6.616   5.439   1.681 -0.0315  0.1179 -0.8090
  842HK4    C4770647   6.595   5.306   1.712  0.4433  0.2049 -0.0895
  842HK4    H2770648   6.490   5.271   1.706  0.6622 -0.2148 -1.6183
  842HK4    C4670649   6.704   5.235   1.761 -0.1547 -0.2959  0.5395
  842HK4    H2670650   6.701   5.127   1.745 -1.7037 -0.2370  0.3604
  842HK4    C4070651   6.829   5.292   1.794 -0.1854  0.0781  0.0104
  842HK4    C5070652   6.837   5.429   1.761  0.2508 -0.0469 -0.4038
  842HK4    H3070653   6.927   5.483   1.794  0.2100 -0.1799 -0.0742
  842HK4    C4970654   6.738   5.503   1.699 -0.0365 -0.0852  0.0104
  842HK4    H2970655   6.750   5.613   1.701  0.1335 -0.1260  1.2521
  842HK4     N270656   6.923   5.226   1.874  0.0289 -0.1694 -0.4380
  842HK4    C3070657   6.892   5.116   1.956  0.0657  0.0039 -0.1877
  842HK4    C2970658   6.776   5.071   2.017  0.1089  0.6234  0.3504
  842HK4    H1570659   6.699   5.146   2.034 -0.5806  0.3669 -1.5541
  842HK4    C2870660   6.763   4.946   2.077  0.3548  0.4109 -0.0332
  842HK4    C2770661   6.881   4.869   2.084 -0.3758 -0.6750  0.5078
  842HK4    H1470662   6.871   4.763   2.110 -1.0546 -0.9516 -0.8465
  842HK4    C3270663   7.006   4.915   2.044 -0.8177  0.2521  0.1704
  842HK4    H1670664   7.099   4.871   2.079 -0.6732  2.2021  2.3117
  842HK4    C3170665   7.012   5.036   1.975  0.1872  0.3229  0.3764
  842HK4    C3470666   7.120   5.104   1.909  0.0906 -0.2652 -0.3938
  842HK4    C3370667   7.061   5.220   1.845  0.0650 -0.2011 -0.2543
  842HK4    C3570668   7.138   5.310   1.773  0.0005  0.6281  0.7031
  842HK4    H1770669   7.099   5.390   1.710 -1.9152 -0.8144  0.0174
  842HK4    C3670670   7.273   5.282   1.754 -0.1243  0.3715  0.1683
  842HK4    H1870671   7.339   5.359   1.712  0.9967 -0.0064  1.1859
  842HK4    C3770672   7.329   5.167   1.807 -0.3890  0.1554 -0.0230
  842HK4    H1970673   7.436   5.156   1.786 -0.1211  0.6961  1.0280
  842HK4    C3870674   7.257   5.083   1.891  0.0903 -0.4337 -0.1940
  842HK4    H2070675   7.312   5.015   1.956 -0.4803 -0.3494  0.3823
  842HK4    C1470676   6.652   4.914   2.169  0.1842  0.1756 -0.3215
  842HK4     C970677   6.671   4.835   2.282 -0.0253 -0.4699 -0.7341
  842HK4     C870678   6.577   4.738   2.323 -0.1050 -0.1469 -0.1423
  842HK4    C1170679   6.460   4.733   2.248 -0.4300 -0.0332  0.3520
  842HK4     H470680   6.380   4.672   2.292 -0.5268 -0.0744  0.1225
  842HK4    C1270681   6.430   4.817   2.142  0.2756 -0.1277  0.0745
  842HK4     H570682   6.333   4.807   2.091 -0.3043  3.9608  0.2143
  842HK4    C1370683   6.526   4.911   2.106  0.1128 -0.0551 -0.1695
  842HK4     H670684   6.505   4.983   2.025  0.2499  2.2373  1.7794
  842HK4     C770685   6.602   4.643   2.434 -0.1103  0.4336  0.3526
  842HK4     O270686   6.506   4.589   2.488  0.2505 -0.0302  0.5307
  842HK4     C470687   6.738   4.647   2.492  0.0996  0.1314 -0.1252
  842HK4     C370688   6.772   4.535   2.567 -0.1152  0.1760  0.0390
  842HK4     H370689   6.688   4.480   2.612 -1.0753  0.1199 -1.7890
  842HK4     C270690   6.905   4.499   2.588 -0.1166  0.0181 -0.2238
  842HK4     H270691   6.922   4.407   2.645 -1.2781  0.3645  0.6929
  842HK4     C170692   7.007   4.581   2.541  0.2550 -0.3398 -0.0499
  842HK4     H170693   7.108   4.573   2.582 -0.0930 -0.3632  0.8190
  842HK4     C670694   6.973   4.698   2.469  0.1662 -0.1969  0.2243
  842HK4     C570695   6.840   4.735   2.450  0.2532  0.1543  0.2914
  842HK4    C1070696   6.795   4.848   2.364 -0.5269 -0.3580  0.0194
  842HK4     O170697   6.834   4.963   2.382  0.4161 -0.6609 -0.0402
  842HK4    C1670698   7.081   4.740   2.378 -0.2522  0.4345  0.0170
  842HK4    C1570699   7.166   4.650   2.309 -0.1493 -0.0749  0.8053
  842HK4     H770700   7.135   4.545   2.300  1.4702 -0.6349  1.6123
  842HK4    C2070701   7.284   4.684   2.244 -0.5236  0.4674  0.3973
  842HK4     H970702   7.344   4.608   2.194 -2.0322 -0.1220 -0.5425
  842HK4    C1970703   7.314   4.818   2.229 -0.6307  0.4480  0.0151
  842HK4    C1870704   7.238   4.910   2.311 -0.2738  0.3231  0.4900
  842HK4    C1770705   7.120   4.873   2.375 -0.6433  0.5481 -0.0590
  842HK4     H870706   7.068   4.949   2.433 -0.6453  1.2754 -1.0067
  842HK4     N170707   7.286   5.042   2.297  0.4244  0.0644  0.4427
  842HK4    C2170708   7.401   5.030   2.217  0.0944 -0.1737 -0.0002
  842HK4    C2270709   7.417   4.897   2.163 -0.0593 -0.2318  0.0972
  842HK4    C2670710   7.516   4.861   2.073  0.2318  0.1030  0.2815
  842HK4    H1370711   7.507   4.766   2.020 -0.1816  0.1978  0.1851
  842HK4    C2570712   7.608   4.956   2.029  0.1174  0.0779 -0.0141
  842HK4    H1270713   7.674   4.933   1.946 -1.6505 -2.5006 -0.8055
  842HK4    C2470714   7.588   5.087   2.069  0.0502  0.1068 -0.1439
  842HK4    H1170715   7.650   5.167   2.026  1.1900 -0.0578  1.1515
  842HK4    C2370716   7.491   5.122   2.163  0.3120 -0.2397  0.2519
  842HK4    H1070717   7.484   5.229   2.182  3.4124 -0.1108  0.9955
  842HK4    C3970718   7.215   5.158   2.329  0.2884  0.1496 -0.1695
  842HK4    C4170719   7.288   5.276   2.355  0.6432  0.0256 -0.6030
  842HK4    H2170720   7.387   5.273   2.402  0.3763  2.3926  0.1894
  842HK4    C4270721   7.240   5.406   2.336  0.1203 -0.0539  0.1939
  842HK4    H2270722   7.299   5.495   2.362  0.3774  0.8246 -3.2438
  842HK4    C4370723   7.118   5.419   2.271 -0.0323 -0.1747  0.4492
  842HK4    H2370724   7.083   5.519   2.243  1.0883  0.3488  0.8951
  842HK4    C4470725   7.043   5.307   2.239 -0.4249  0.0391  0.6198
  842HK4    H2470726   6.942   5.325   2.199 -1.0228 -0.6965  1.7613
  842HK4    C4570727   7.088   5.179   2.271  0.2452  0.0918 -0.0965
  842HK4    H2570728   7.019   5.096   2.252 -0.7335  0.8992 -0.1427
  843HK4    H2870729   3.928   2.065   7.113 -0.6041 -1.2248  2.9207
  843HK4    C4870730   3.980   2.153   7.150 -0.5200 -0.1215  0.2629
  843HK4    C4770731   3.906   2.260   7.199 -0.2160  0.2979 -0.1779
  843HK4    H2770732   3.800   2.236   7.219 -0.7186  1.1507 -1.7688
  843HK4    C4670733   3.957   2.388   7.213  0.3253 -0.0011  0.6278
  843HK4    H2670734   3.890   2.474   7.219 -1.5670 -1.5469  2.2065
  843HK4    C4070735   4.090   2.419   7.175  0.0342 -0.1504 -0.5566
  843HK4    C5070736   4.165   2.307   7.135  0.1028 -0.5360  0.6241
  843HK4    H3070737   4.274   2.325   7.128  0.2292 -1.5217  0.0068
  843HK4    C4970738   4.115   2.178   7.128 -0.6349 -0.1957 -0.5654
  843HK4    H2970739   4.181   2.097   7.093 -0.7585 -0.0255 -1.1834
  843HK4     N270740   4.127   2.546   7.129 -0.2113 -0.1217 -0.6778
  843HK4    C3070741   4.029   2.630   7.071  0.0050  0.6362  0.0434
  843HK4    C2970742   3.939   2.593   6.972  0.3629  0.3387 -0.1741
  843HK4    H1570743   3.943   2.502   6.911  1.3352  0.7325 -0.6999
  843HK4    C2870744   3.854   2.684   6.910  0.2947  0.1574 -0.3439
  843HK4    C2770745   3.864   2.819   6.950 -0.6946  0.1495 -0.0529
  843HK4    H1470746   3.782   2.889   6.930 -1.6011 -1.1060 -0.7860
  843HK4    C3270747   3.971   2.858   7.029 -0.1138 -0.2187 -0.6437
  843HK4    H1670748   3.996   2.964   7.030 -0.6444 -0.0927  1.1747
  843HK4    C3170749   4.060   2.770   7.090 -0.0838  0.5939  0.5032
  843HK4    C3470750   4.191   2.771   7.151 -0.2092 -0.3365  0.7895
  843HK4    C3370751   4.225   2.633   7.181 -0.2336 -0.5095  0.0235
  843HK4    C3570752   4.334   2.598   7.260  0.1639  0.2946 -0.1605
  843HK4    H1770753   4.356   2.494   7.282  2.4676  0.8335  0.2042
  843HK4    C3670754   4.400   2.707   7.315  0.2359  0.0696  0.2013
  843HK4    H1870755   4.472   2.684   7.395  1.0964 -1.9727 -1.1093
  843HK4    C3770756   4.363   2.839   7.292  0.1071 -0.0144 -0.0791
  843HK4    H1970757   4.432   2.920   7.319 -0.4186  0.6998 -0.8658
  843HK4    C3870758   4.264   2.877   7.203 -0.5897 -0.0230  0.6818
  843HK4    H2070759   4.242   2.974   7.157  1.1090 -0.0784 -0.3199
  843HK4    C1470760   3.767   2.656   6.795  0.3206 -0.1963 -0.2794
  843HK4     C970761   3.718   2.741   6.696 -0.1854 -0.0754  0.0694
  843HK4     C870762   3.586   2.732   6.646 -0.3956 -0.3014  0.6666
  843HK4    C1170763   3.507   2.629   6.695 -0.0360 -1.0581 -0.3297
  843HK4     H470764   3.398   2.642   6.686 -0.0869 -0.9950  0.3808
  843HK4    C1270765   3.560   2.526   6.771  0.0184 -0.8374 -0.0680
  843HK4     H570766   3.496   2.446   6.811  1.0145 -1.3218  0.5742
  843HK4    C1370767   3.691   2.539   6.816  0.0307 -0.0193 -0.3381
  843HK4     H670768   3.746   2.448   6.843  2.6569  1.5331 -0.3128
  843HK4     C770769   3.536   2.831   6.549  0.6588 -0.8173 -0.4196
  843HK4     O270770   3.432   2.807   6.488  0.3958 -0.0440 -0.2847
  843HK4     C470771   3.626   2.946   6.522  0.0634 -0.3906 -0.6124
  843HK4     C370772   3.575   3.040   6.433 -0.0766 -0.0281 -0.1427
  843HK4     H370773   3.499   3.017   6.358 -2.3662  2.4068  1.3541
  843HK4     C270774   3.616   3.173   6.436  0.4122 -0.1854  0.2762
  843HK4     H270775   3.584   3.229   6.347  0.9307  0.3266  0.4108
  843HK4     C170776   3.721   3.209   6.519 -0.0517  0.8962  0.4030
  843HK4     H170777   3.766   3.309   6.508 -1.0082  1.0504 -2.4891
  843HK4     C670778   3.780   3.114   6.605 -0.8203 -0.1472 -0.2249
  843HK4     C570779   3.737   2.980   6.602 -0.1796 -0.3538 -0.2909
  843HK4    C1070780   3.801   2.861   6.664 -0.0808 -0.1828 -0.0615
  843HK4     O170781   3.917   2.836   6.631 -0.0647 -0.0390 -0.1118
  843HK4    C1670782   3.858   3.175   6.713 -0.6843 -0.6619 -0.0283
  843HK4    C1570783   3.817   3.296   6.772  1.1043 -0.0457 -0.0211
  843HK4     H770784   3.713   3.314   6.804  0.2798  1.7149 -3.5066
  843HK4    C2070785   3.912   3.390   6.810  0.3829  0.7143 -0.0838
  843HK4     H970786   3.886   3.494   6.833 -1.3951  0.2271  0.1223
  843HK4    C1970787   4.047   3.358   6.817  0.0477 -0.4223  1.1140
  843HK4    C1870788   4.088   3.227   6.770 -0.1873 -0.0848 -0.0200
  843HK4    C1770789   3.993   3.142   6.714 -0.4941  0.1031  0.2161
  843HK4     H870790   4.022   3.059   6.650  0.0862  0.8986 -0.5497
  843HK4     N170791   4.225   3.205   6.794 -0.1829  0.0799  0.1073
  843HK4    C2170792   4.270   3.321   6.860  0.5949 -0.0795 -0.1437
  843HK4    C2270793   4.163   3.415   6.883  0.7983  0.3261 -0.8323
  843HK4    C2670794   4.194   3.547   6.917  0.0335  0.2231  0.3060
  843HK4    H1370795   4.107   3.611   6.933 -1.3367 -0.7760 -2.5952
  843HK4    C2570796   4.324   3.590   6.938  0.1184  0.2839 -0.3269
  843HK4    H1270797   4.341   3.697   6.949  0.2689  0.0626  1.7033
  843HK4    C2470798   4.427   3.497   6.927 -0.2791 -0.2057  0.0626
  843HK4    H1170799   4.530   3.533   6.943 -0.4631  0.2761  0.1881
  843HK4    C2370800   4.398   3.368   6.884  0.7790 -0.0621 -1.1012
  843HK4    H1070801   4.481   3.300   6.863  2.0538  0.5991  1.4756
  843HK4    C3970802   4.306   3.107   6.734 -0.1233  0.1812  0.0218
  843HK4    C4170803   4.435   3.069   6.776 -0.2522 -0.2579  0.0183
  843HK4    H2170804   4.462   3.094   6.880  2.5245  0.3465 -0.8224
  843HK4    C4270805   4.533   3.003   6.704 -0.1986  0.2655 -0.3879
  843HK4    H2270806   4.633   2.992   6.749 -1.6678 -0.9847  2.6850
  843HK4    C4370807   4.501   2.963   6.575 -0.3041 -0.1465 -0.2366
  843HK4    H2370808   4.578   2.936   6.503  0.8078  1.6612  0.2506
  843HK4    C4470809   4.371   2.985   6.530 -0.3438  0.1520  0.0203
  843HK4    H2470810   4.365   2.975   6.421  3.0391 -0.3915 -0.1735
  843HK4    C4570811   4.279   3.057   6.605 -0.3830 -0.0413  0.1587
  843HK4    H2570812   4.184   3.087   6.558  0.6959 -0.8927 -2.6508
  844HK4    H2870813   1.036   3.392   5.275 -1.0621  0.7975  2.1102
  844HK4    C4870814   1.126   3.454   5.284 -0.4945  0.2304  0.5331
  844HK4    C4770815   1.126   3.531   5.399 -0.4965  0.6845  0.2287
  844HK4    H2770816   1.034   3.558   5.453 -1.3735 -1.0990 -0.3723
  844HK4    C4670817   1.243   3.568   5.465 -0.3748  0.4047  0.1674
  844HK4    H2670818   1.245   3.625   5.558 -1.2265  1.3478 -0.3971
  844HK4    C4070819   1.368   3.523   5.415 -0.5645  0.3347 -0.2456
  844HK4    C5070820   1.364   3.454   5.292  0.7303 -0.5741  0.2132
  844HK4    H3070821   1.455   3.421   5.240  0.9298  1.0129 -0.4689
  844HK4    C4970822   1.247   3.414   5.228 -0.1434  0.2780  1.2618
  844HK4    H2970823   1.247   3.350   5.139 -1.9428  2.4151 -0.3143
  844HK4     N270824   1.487   3.581   5.460 -0.4693  0.0581 -0.1394
  844HK4    C3070825   1.492   3.696   5.542 -0.5732 -0.5739  0.7592
  844HK4    C2970826   1.403   3.802   5.546  0.3484  0.2892 -0.9531
  844HK4    H1570827   1.331   3.815   5.466  0.3008  0.5345 -0.8699
  844HK4    C2870828   1.423   3.917   5.622 -0.0855 -0.1270 -0.2029
  844HK4    C2770829   1.542   3.918   5.698  0.0257 -0.4432 -0.3723
  844HK4    H1470830   1.568   3.990   5.776  2.6303 -1.5929 -0.1334
  844HK4    C3270831   1.637   3.817   5.687  0.2873 -0.2213 -0.1220
  844HK4    H1670832   1.716   3.819   5.762  0.8537  2.0003 -0.7410
  844HK4    C3170833   1.620   3.702   5.611 -0.1579 -0.2126 -0.0373
  844HK4    C3470834   1.703   3.596   5.560  0.1295  0.2700 -0.5773
  844HK4    C3370835   1.617   3.527   5.466 -0.4648  0.0927  0.0944
  844HK4    C3570836   1.669   3.414   5.404 -0.0215  0.2879  0.1152
  844HK4    H1770837   1.636   3.389   5.304 -0.1833 -0.9395  0.4646
  844HK4    C3670838   1.798   3.374   5.439  0.1223  0.3069 -0.3974
  844HK4    H1870839   1.845   3.294   5.380 -1.1405 -0.7167 -0.0376
  844HK4    C3770840   1.882   3.437   5.530 -0.1345 -0.1684  0.1739
  844HK4    H1970841   1.981   3.395   5.543 -0.7114 -1.5307  0.2874
  844HK4    C3870842   1.829   3.548   5.595 -0.2313 -0.1858  0.1254
  844HK4    H2070843   1.879   3.598   5.678  0.7355 -0.8696 -0.0357
  844HK4    C1470844   1.330   4.031   5.619 -0.1152 -0.1361  0.2438
  844HK4     C970845   1.365   4.159   5.665  0.2527 -0.3494  0.5640
  844HK4     C870846   1.271   4.243   5.729  0.2342 -0.1154  0.2300
  844HK4    C1170847   1.137   4.208   5.720  0.2704 -0.2426  0.1906
  844HK4     H470848   1.061   4.265   5.774  2.2515  0.8979  1.8223
  844HK4    C1270849   1.089   4.095   5.654 -0.0568 -0.0631  0.1169
  844HK4     H570850   0.988   4.084   5.613  1.3162 -1.0775 -3.1767
  844HK4    C1370851   1.191   4.010   5.612 -0.1326  0.2321 -0.6727
  844HK4     H670852   1.151   3.914   5.575  2.2682 -1.5135  1.1226
  844HK4     C770853   1.307   4.369   5.797 -0.1739 -0.0465  0.3223
  844HK4     O270854   1.223   4.443   5.848 -0.2662  0.1627 -0.1315
  844HK4     C470855   1.450   4.406   5.806 -0.2376  0.3434 -0.2734
  844HK4     C370856   1.497   4.515   5.878  0.1953  0.0126 -0.0479
  844HK4     H370857   1.425   4.595   5.904 -0.6434 -0.3743 -1.1596
  844HK4     C270858   1.630   4.538   5.910  0.0951  0.1288  0.2943
  844HK4     H270859   1.658   4.630   5.964  0.8493 -1.3720  2.5100
  844HK4     C170860   1.725   4.449   5.863  0.0336 -0.1728  0.7389
  844HK4     H170861   1.831   4.460   5.892  0.2807  1.1632 -0.5728
  844HK4     C670862   1.681   4.342   5.783 -0.4461 -0.0356  0.8239
  844HK4     C570863   1.548   4.328   5.740 -0.2377 -0.0186  0.1594
  844HK4    C1070864   1.504   4.212   5.659  0.1748 -0.1862  0.1749
  844HK4     O170865   1.551   4.208   5.546 -0.5241  0.4582 -0.1444
  844HK4    C1670866   1.772   4.227   5.787 -0.3585 -0.0111 -0.2617
  844HK4    C1570867   1.823   4.182   5.911 -0.2784 -0.3018 -0.3983
  844HK4     H770868   1.807   4.242   6.001  0.1268  0.9857 -1.1632
  844HK4    C2070869   1.913   4.077   5.924  0.0407 -0.0551 -0.5924
  844HK4     H970870   1.948   4.041   6.021  0.7876 -1.0387 -1.2183
  844HK4    C1970871   1.951   4.010   5.809  0.2853 -0.2268 -0.4120
  844HK4    C1870872   1.902   4.054   5.680 -0.3195 -0.0002 -0.1060
  844HK4    C1770873   1.817   4.163   5.672 -0.1729  0.1024 -0.2530
  844HK4     H870874   1.810   4.220   5.579  0.6607  0.5995 -0.0097
  844HK4     N170875   1.944   3.966   5.578  0.5619  0.3850 -0.0785
  844HK4    C2170876   2.026   3.869   5.640  0.0291 -0.1905 -0.2691
  844HK4    C2270877   2.040   3.899   5.781 -0.3110 -0.7826 -0.1089
  844HK4    C2670878   2.104   3.810   5.867 -0.2958 -0.4457  0.2284
  844HK4    H1370879   2.124   3.837   5.971 -0.9981  0.1496  0.2168
  844HK4    C2570880   2.160   3.693   5.817  0.8562 -0.1628  0.8534
  844HK4    H1270881   2.205   3.615   5.878  1.2109 -2.0446 -1.7240
  844HK4    C2470882   2.156   3.670   5.680 -0.2511  0.2841  0.8071
  844HK4    H1170883   2.216   3.594   5.628 -3.1099  1.1629 -4.0823
  844HK4    C2370884   2.082   3.750   5.594  0.5916  0.0314 -0.1550
  844HK4    H1070885   2.034   3.714   5.503 -0.9304 -2.4147  1.5653
  844HK4    C3970886   1.903   3.964   5.444  0.2715  0.0952  0.0142
  844HK4    C4170887   1.776   4.014   5.410  0.0958 -0.2523  0.1558
  844HK4    H2170888   1.690   3.989   5.474 -0.6377 -0.0658 -0.7564
  844HK4    C4270889   1.760   4.094   5.298  0.2669  0.3506  0.5622
  844HK4    H2270890   1.665   4.140   5.267  1.1429  0.5377 -2.0248
  844HK4    C4370891   1.863   4.119   5.207  0.3673  0.2408  0.6451
  844HK4    H2370892   1.846   4.156   5.106 -1.4517 -1.6403  0.2405
  844HK4    C4470893   1.989   4.069   5.239  0.4407  0.0392  0.0305
  844HK4    H2470894   2.072   4.091   5.170 -0.0398  1.0558 -0.2394
  844HK4    C4570895   2.006   3.990   5.352  0.0933 -0.6690 -0.4082
  844HK4    H2570896   2.097   3.928   5.349  0.6724  0.2097 -1.7155
  845HK4    H2870897   7.653   9.367   9.031 -0.9432  0.0828  1.0475
  845HK4    C4870898   7.659   9.471   9.000  0.0679 -0.3861 -0.3396
  845HK4    C4770899   7.543   9.537   8.963  0.1813 -0.2352 -0.4273
  845HK4    H2770900   7.446   9.486   8.960 -0.4429  0.6952  2.3148
  845HK4    C4670901   7.542   9.674   8.939 -0.1104 -0.0513  0.6136
  845HK4    H2670902   7.452   9.728   8.905  1.1917  2.6605  1.3588
  845HK4    C4070903   7.663   9.747   8.939 -0.2468  0.1818 -0.0380
  845HK4    C5070904   7.780   9.678   8.978 -0.2333  0.0285 -0.3485
  845HK4    H3070905   7.871   9.730   9.011 -0.8082  1.2659 -0.6460
  845HK4    C4970906   7.778   9.543   9.010 -0.4561  0.3139  0.8466
  845HK4    H2970907   7.870   9.494   9.044 -0.6779 -1.4918 -1.0737
  845HK4     N270908   7.685   9.873   8.883  0.1826  0.1146 -0.0223
  845HK4    C3070909   7.628   9.925   8.765  0.1950 -0.3301 -0.2278
  845HK4    C2970910   7.540   9.863   8.677 -0.1908  0.0516 -0.1215
  845HK4    H1570911   7.536   9.754   8.674  0.1150 -0.0137  1.4414
  845HK4    C2870912   7.488   9.936   8.572 -0.3225  0.4095  0.1940
  845HK4    C2770913   7.546  10.061   8.539  0.0411  0.1823 -0.0230
  845HK4    H1470914   7.513  10.109   8.445 -1.3236 -0.6434  0.0120
  845HK4    C3270915   7.634  10.126   8.624  0.0604 -0.0021  0.1000
  845HK4    H1670916   7.686  10.217   8.592 -0.2038 -0.2154 -0.9740
  845HK4    C3170917   7.665  10.064   8.744  0.2007 -0.3112 -0.0957
  845HK4    C3470918   7.749  10.097   8.857  0.5343  0.1619 -0.4816
  845HK4    C3370919   7.750   9.982   8.945  0.3627  0.2224 -0.4018
  845HK4    C3570920   7.831   9.989   9.057  0.0681 -0.1890 -0.1588
  845HK4    H1770921   7.821   9.905   9.126  1.3683  0.5642  0.9709
  845HK4    C3670922   7.921  10.092   9.080 -0.4085  0.1296  0.2823
  845HK4    H1870923   7.997  10.082   9.159 -1.9675 -2.4666  1.4918
  845HK4    C3770924   7.911  10.207   9.002  0.1725  0.4192  0.6322
  845HK4    H1970925   7.973  10.294   9.025 -1.2570  0.7176  3.6325
  845HK4    C3870926   7.826  10.207   8.892  0.2291  0.0411  0.5887
  845HK4    H2070927   7.841  10.286   8.818  2.4142 -0.0525  0.8993
  845HK4    C1470928   7.390   9.877   8.480  0.4369 -0.3268 -0.1503
  845HK4     C970929   7.368   9.901   8.344 -0.0943 -0.1120 -0.0312
  845HK4     C870930   7.243   9.889   8.280 -0.2020  0.2449  0.1132
  845HK4    C1170931   7.140   9.851   8.365 -0.0148 -0.3536  0.0731
  845HK4     H470932   7.043   9.823   8.319 -0.8786  2.0382  0.3634
  845HK4    C1270933   7.156   9.819   8.499  0.0469 -0.1831  0.1072
  845HK4     H570934   7.064   9.803   8.557 -0.4509  1.6712 -0.1418
  845HK4    C1370935   7.281   9.834   8.558  0.1020  0.4738 -0.1665
  845HK4     H670936   7.295   9.826   8.667  1.5658  0.1605 -0.3700
  845HK4     C770937   7.209   9.953   8.151  0.6418 -0.1391 -0.2986
  845HK4     O270938   7.124   9.899   8.082  0.3127  0.1587 -0.1245
  845HK4     C470939   7.319  10.036   8.095  0.5309  0.1932 -0.0231
  845HK4     C370940   7.281  10.105   7.981  0.1277  0.4790  0.2797
  845HK4     H370941   7.174  10.127   7.966  0.4195  0.8274 -1.4416
  845HK4     C270942   7.376  10.145   7.888 -0.0322  0.0725 -0.0625
  845HK4     H270943   7.357  10.231   7.822  1.4287  0.2517 -0.2590
  845HK4     C170944   7.509  10.119   7.918 -0.1465 -0.7006 -0.2148
  845HK4     H170945   7.583  10.143   7.841 -1.0913 -1.5101 -1.3940
  845HK4     C670946   7.555  10.065   8.040  0.5862 -0.0281 -0.1868
  845HK4     C570947   7.455  10.016   8.125  0.5586  0.8184  0.2712
  845HK4    C1070948   7.479   9.942   8.252 -0.1550  0.0787 -0.0175
  845HK4     O170949   7.586   9.884   8.271 -0.1156  0.1565 -0.0027
  845HK4    C1670950   7.701  10.065   8.057  0.5510  0.2630  0.1225
  845HK4    C1570951   7.787  10.046   7.947  0.3727 -0.0814  0.0406
  845HK4     H770952   7.758   9.964   7.880 -0.7618  0.7921 -0.5498
  845HK4    C2070953   7.915  10.100   7.940  0.2545  0.1842 -0.0648
  845HK4     H970954   7.991  10.071   7.868  1.1179 -0.7032  1.1865
  845HK4    C1970955   7.963  10.175   8.047  0.2290 -0.4261  0.3781
  845HK4    C1870956   7.883  10.178   8.168 -0.0960  0.3908  0.1464
  845HK4    C1770957   7.756  10.123   8.170  0.1586 -0.1870  0.5438
  845HK4     H870958   7.696  10.142   8.259 -1.5915 -1.5381 -0.3159
  845HK4     N170959   7.965  10.231   8.270  0.4662 -0.4940  0.1605
  845HK4    C2170960   8.086  10.271   8.211  0.0632  0.5713  0.0400
  845HK4    C2270961   8.088  10.244   8.068  0.3252 -0.5609  0.2507
  845HK4    C2670962   8.204  10.239   7.992  0.1315 -0.4640 -0.0489
  845HK4    H1370963   8.199  10.225   7.884 -1.3308 -0.6205  0.0297
  845HK4    C2570964   8.325  10.246   8.060 -0.0474 -0.6766  0.2873
  845HK4    H1270965   8.417  10.217   8.011  1.4610  0.9023  2.0866
  845HK4    C2470966   8.332  10.273   8.196  0.1810  0.0748  0.1257
  845HK4    H1170967   8.426  10.241   8.243  1.3270  1.8361 -0.8819
  845HK4    C2370968   8.213  10.293   8.264  0.1757 -0.9811  0.4323
  845HK4    H1070969   8.221  10.344   8.360 -0.0153 -1.9314  0.9622
  845HK4    C3970970   7.941  10.216   8.408 -0.5462 -0.1185  0.0302
  845HK4    C4170971   8.007  10.300   8.500 -0.1538 -0.3811 -0.0119
  845HK4    H2170972   8.034  10.404   8.474 -0.7569 -0.2734 -0.2149
  845HK4    C4270973   8.048  10.255   8.624 -0.4261 -0.4797  0.0430
  845HK4    H2270974   8.097  10.319   8.698 -0.8914  0.4942 -0.4851
  845HK4    C4370975   8.021  10.126   8.668 -0.6226 -0.2502  0.5930
  845HK4    H2370976   8.055  10.093   8.767 -2.1389 -1.0558  0.8585
  845HK4    C4470977   7.946  10.043   8.586  0.3818 -0.2501 -0.3333
  845HK4    H2470978   7.938   9.936   8.609  0.4501 -1.1423 -4.0608
  845HK4    C4570979   7.910  10.089   8.460  0.0202 -0.3805 -0.2792
  845HK4    H2570980   7.864  10.011   8.397  0.1613 -0.6135 -0.0959
  846HK4    H2870981   6.200   9.345  10.839  0.1953 -0.0131  3.4818
  846HK4    C4870982   6.092   9.353  10.837  0.1928  0.0073 -0.0661
  846HK4    C4770983   6.025   9.387  10.720 -0.2935  0.1652  0.2544
  846HK4    H2770984   6.077   9.370  10.625 -1.1685  0.5082 -0.2861
  846HK4    C4670985   5.896   9.439  10.715 -0.3646 -0.0499 -0.1536
  846HK4    H2670986   5.847   9.464  10.620 -0.2862 -1.8122 -0.6859
  846HK4    C4070987   5.823   9.434  10.836 -0.3182 -0.4342 -0.1366
  846HK4    C5070988   5.890   9.398  10.955  0.1911  0.0251 -0.2769
  846HK4    H3070989   5.840   9.418  11.051  0.8815 -3.3905  0.8567
  846HK4    C4970990   6.024   9.361  10.958  0.2379  0.2043 -0.0567
  846HK4    H2970991   6.070   9.330  11.054 -0.3148  0.7403  0.3870
  846HK4     N270992   5.697   9.495  10.842 -0.0927  0.0523 -0.2857
  846HK4    C3070993   5.636   9.604  10.777 -0.4230  0.0078 -0.0504
  846HK4    C2970994   5.693   9.695  10.689 -0.1246 -0.6313 -0.5237
  846HK4    H1570995   5.800   9.713  10.690 -0.3613  1.0316  2.1946
  846HK4    C2870996   5.615   9.779  10.609 -0.3234 -0.3354 -0.0200
  846HK4    C2770997   5.475   9.780  10.625 -0.3621 -0.2585 -0.3517
  846HK4    H1470998   5.405   9.818  10.550 -0.2929  0.9580  0.1870
  846HK4    C3270999   5.421   9.708  10.732 -0.3155 -0.0048 -0.1524
  846HK4    H1671000   5.320   9.742  10.753 -1.1100 -2.0587 -0.5589
  846HK4    C3171001   5.495   9.618  10.807 -0.3730  0.1734  0.1152
  846HK4    C3471002   5.473   9.505  10.896 -0.2716  0.1204  0.0753
  846HK4    C3371003   5.595   9.430  10.915  0.1309  0.9753  0.8542
  846HK4    C3571004   5.580   9.314  10.990 -0.2097  0.1634 -0.4516
  846HK4    H1771005   5.663   9.244  10.981  0.7362  1.1994  0.0296
  846HK4    C3671006   5.460   9.271  11.045 -0.0183  0.2463  0.0336
  846HK4    H1871007   5.456   9.171  11.091 -1.3465  0.1439 -0.2832
  846HK4    C3771008   5.344   9.344  11.021 -0.2185 -0.1665 -0.2510
  846HK4    H1971009   5.247   9.297  11.037  0.6747 -2.1533 -0.4564
  846HK4    C3871010   5.353   9.465  10.954 -0.4796 -0.3887 -0.6942
  846HK4    H2071011   5.267   9.532  10.948  0.4564  1.2072  2.5234
  846HK4    C1471012   5.675   9.868  10.508  0.1064 -0.0728  0.4582
  846HK4     C971013   5.619   9.987  10.459  1.0411  0.3340  0.3831
  846HK4     C871014   5.630  10.019  10.322 -0.5452 -0.1912  0.1329
  846HK4    C1171015   5.714   9.944  10.241 -0.3293  0.3059 -0.1073
  846HK4     H471016   5.737   9.978  10.139 -0.4270 -4.2472 -1.7628
  846HK4    C1271017   5.794   9.846  10.298 -0.2479  0.5084  0.1245
  846HK4     H571018   5.870   9.789  10.243 -0.3886  0.0328  0.4185
  846HK4    C1371019   5.768   9.800  10.427 -0.4993 -0.1752 -0.1646
  846HK4     H671020   5.819   9.711  10.467  1.1486  0.1645 -1.4789
  846HK4     C771021   5.575  10.145  10.267 -0.1367 -0.1433 -0.1666
  846HK4     O271022   5.540  10.149  10.149  0.5290  0.1806 -0.3545
  846HK4     C471023   5.557  10.259  10.360 -0.0780 -0.1925 -0.0970
  846HK4     C371024   5.525  10.383  10.306 -0.4919 -0.1020  0.3610
  846HK4     H371025   5.541  10.406  10.200  1.8995  0.2472  0.7604
  846HK4     C271026   5.473  10.488  10.381 -0.4875 -0.0965  0.3563
  846HK4     H271027   5.453  10.590  10.345 -0.2600  0.2306  1.1484
  846HK4     C171028   5.466  10.462  10.517 -0.3725  0.2057  0.4193
  846HK4     H171029   5.404  10.531  10.576 -1.3619  0.7342 -1.2126
  846HK4     C671030   5.506  10.342  10.581  0.3255  0.2173  0.0036
  846HK4     C571031   5.549  10.237  10.499 -0.0043  0.1197 -0.0439
  846HK4    C1071032   5.582  10.100  10.548 -0.3706  0.0846  0.1095
  846HK4     O171033   5.577  10.084  10.670  0.7535  0.2977  0.1882
  846HK4    C1671034   5.544  10.368  10.720  0.4656 -0.3474  0.0730
  846HK4    C1571035   5.607  10.484  10.770  0.3098 -0.2370  0.0054
  846HK4     H771036   5.692  10.507  10.703  2.0934 -1.0292  1.9308
  846HK4    C2071037   5.597  10.536  10.898 -0.5294  0.1841 -0.2223
  846HK4     H971038   5.657  10.624  10.922  1.1037 -0.8667 -0.3831
  846HK4    C1971039   5.536  10.459  10.996  0.2385  0.1681  0.2435
  846HK4    C1871040   5.487  10.330  10.954  0.0597  0.3736 -0.1793
  846HK4    C1771041   5.480  10.295  10.819 -0.2659  0.0717 -0.0863
  846HK4     H871042   5.421  10.206  10.797  0.0751  0.3225 -2.0464
  846HK4     N171043   5.441  10.256  11.065 -0.1268 -0.0955 -0.5655
  846HK4    C2171044   5.453  10.345  11.174  0.2123 -0.7678 -0.0403
  846HK4    C2271045   5.520  10.469  11.140 -0.2231 -0.4557  0.2372
  846HK4    C2671046   5.580  10.554  11.232 -0.2429  0.0223 -0.1807
  846HK4    H1371047   5.635  10.643  11.202 -0.4223  0.4500  0.7502
  846HK4    C2571048   5.573  10.510   0.116  0.3770  0.0932 -0.1239
  846HK4    H1271049   5.655  10.537   0.183 -1.8943  0.3926  2.6594
  846HK4    C2471050   5.509  10.393   0.155  0.3363  0.2741  0.3549
  846HK4    H1171051   5.514  10.361   0.260 -0.7365  0.5109  0.4848
  846HK4    C2371052   5.451  10.310   0.060  0.1773  0.4607  0.2892
  846HK4    H1071053   5.386  10.229   0.094 -0.1644  0.0030 -1.3974
  846HK4    C3971054   5.432  10.116  11.070 -0.6312 -0.0413  0.0416
  846HK4    C4171055   5.335  10.060  11.156 -0.4584  0.1272  0.3481
  846HK4    H2171056   5.263  10.121  11.212 -0.9104 -1.5328  1.6296
  846HK4    C4271057   5.326   9.922  11.170  0.5664  0.0313  0.1460
  846HK4    H2271058   5.274   9.882   0.010  1.2642  3.7360  2.3598
  846HK4    C4371059   5.415   9.841  11.100  0.0408 -0.1712 -0.2889
  846HK4    H2371060   5.416   9.734  11.117 -0.8050 -0.0593  0.5324
  846HK4    C4471061   5.518   9.895  11.024  0.5470 -0.2430  0.3398
  846HK4    H2471062   5.585   9.830  10.966  1.3834 -1.5927  2.7444
  846HK4    C4571063   5.525  10.032  11.007 -0.2699 -0.1498  0.7120
  846HK4    H2571064   5.621  10.076  10.976 -0.4854  1.8117  2.6866
  847HK4    H2871065   1.530   1.243   0.977 -0.1437 -0.7440  0.1880
  847HK4    C4871066   1.463   1.204   1.054 -0.1339 -0.0922  0.5257
  847HK4    C4771067   1.499   1.108   1.147  0.1534 -0.2699  0.2317
  847HK4    H2771068   1.604   1.081   1.166 -0.3914 -1.0499  2.3187
  847HK4    C4671069   1.405   1.043   1.227  0.2720 -0.2083  0.4226
  847HK4    H2671070   1.446   0.977   1.305  1.0152 -0.4290 -0.1394
  847HK4    C4071071   1.267   1.071   1.233  0.2609 -0.2088  0.1748
  847HK4    C5071072   1.238   1.177   1.144  0.2340  0.3371  0.8288
  847HK4    H3071073   1.148   1.239   1.152  0.8746  1.8220 -2.6996
  847HK4    C4971074   1.328   1.236   1.056 -0.1842 -0.2692 -0.0112
  847HK4    H2971075   1.290   1.296   0.971  0.5107 -0.7927 -0.6975
  847HK4     N271076   1.173   0.974   1.266  0.3856 -0.3247  0.1874
  847HK4    C3071077   1.192   0.834   1.277  0.1900 -0.3826 -0.2040
  847HK4    C2971078   1.276   0.758   1.197  0.6276  0.1751 -0.2784
  847HK4    H1571079   1.351   0.818   1.147 -0.3155  1.3541 -0.2962
  847HK4    C2871080   1.277   0.619   1.202 -0.2816  0.1766  0.0600
  847HK4    C2771081   1.186   0.559   1.291 -0.1580  0.0702  0.1143
  847HK4    H1471082   1.208   0.454   1.317  0.2583  0.5413  1.7692
  847HK4    C3271083   1.096   0.633   1.367  0.1529  0.3461  0.2147
  847HK4    H1671084   1.031   0.574   1.432  1.2517 -2.2858 -0.9898
  847HK4    C3171085   1.096   0.772   1.367  0.0431  0.3470  0.1496
  847HK4    C3471086   1.014   0.881   1.416 -0.2885  0.0871  0.1776
  847HK4    C3371087   1.060   1.000   1.346  0.2560 -0.2375 -0.0255
  847HK4    C3571088   0.999   1.119   1.385  0.1315 -0.2869 -0.0707
  847HK4    H1771089   1.010   1.201   1.313  0.8137 -0.9633 -0.7478
  847HK4    C3671090   0.899   1.125   1.481  0.3973  0.0020  0.1885
  847HK4    H1871091   0.861   1.224   1.511  4.9174  1.7371  0.5457
  847HK4    C3771092   0.856   1.011   1.548  0.1721  0.1421  0.2827
  847HK4    H1971093   0.769   1.007   1.614  1.0495  0.6804  1.4890
  847HK4    C3871094   0.907   0.890   1.504 -0.4122 -0.0160  0.0367
  847HK4    H2071095   0.840   0.806   1.523  0.4904 -0.3793  1.6870
  847HK4    C1471096   1.335   0.550   1.086 -0.1327  0.1177  0.1699
  847HK4     C971097   1.283   0.434   1.028 -0.3568  0.3907 -0.1805
  847HK4     C871098   1.370   0.353   0.951  0.0416 -0.3506  1.0298
  847HK4    C1171099   1.499   0.398   0.926  0.1392 -0.7297  0.8619
  847HK4     H471100   1.559   0.362   0.840  0.7060  1.7818  0.1712
  847HK4    C1271101   1.553   0.512   0.984 -0.0698 -0.3505  0.3179
  847HK4     H571102   1.655   0.543   0.959 -1.0319 -0.5683 -4.2486
  847HK4    C1371103   1.467   0.592   1.058 -0.1124 -0.0767 -0.0304
  847HK4     H671104   1.514   0.689   1.082  1.4456 -0.1928 -2.4185
  847HK4     C771105   1.320   0.227   0.892  0.5714 -0.1108  0.0612
  847HK4     O271106   1.386   0.174   0.802  0.0046 -0.0522 -0.3902
  847HK4     C471107   1.180   0.186   0.913  0.4277  0.1928 -0.2942
  847HK4     C371108   1.134   0.064   0.864  0.1841  0.3237 -0.3923
  847HK4     H371109   1.203   0.011   0.796  0.9228  0.0946  0.5286
  847HK4     C271110   1.011   0.008   0.897  0.1998  0.3366 -0.3121
  847HK4     H271111   0.989  11.149   0.889 -3.5627  0.8904  1.5303
  847HK4     C171112   0.932   0.085   0.982  0.1317  0.3911 -0.4244
  847HK4     H171113   0.839   0.040   1.018  0.5091  0.7662  1.0709
  847HK4     C671114   0.970   0.212   1.031  0.0597  0.3804 -0.3414
  847HK4     C571115   1.093   0.265   0.991 -0.0423  0.2317 -0.8593
  847HK4    C1071116   1.137   0.403   1.026 -0.3130  0.1926 -0.3619
  847HK4     O171117   1.060   0.493   0.995 -0.5620  0.1962  0.2591
  847HK4    C1671118   0.907   0.251   1.158  0.4353  0.1963 -0.1002
  847HK4    C1571119   0.867   0.151   1.249 -0.1646  0.3274 -0.2180
  847HK4     H771120   0.917   0.054   1.233  2.7957  1.5758  0.9746
  847HK4    C2071121   0.767   0.163   1.344  0.2322  0.4211  0.1938
  847HK4     H971122   0.732   0.074   1.396  1.3078  1.0050  1.9460
  847HK4    C1971123   0.701   0.284   1.358  0.2169  0.4367 -0.0073
  847HK4    C1871124   0.733   0.389   1.263 -0.1799  0.4961 -0.0773
  847HK4    C1771125   0.837   0.370   1.172  0.3082  0.0418  0.5734
  847HK4     H871126   0.861   0.452   1.105  1.6982 -0.5521  0.3247
  847HK4     N171127   0.630   0.485   1.264 -0.5344  0.1269 -0.4255
  847HK4    C2171128   0.542   0.452   1.369  0.1182  0.2904  0.1887
  847HK4    C2271129   0.581   0.326   1.429  0.3097  0.3554  0.1989
  847HK4    C2671130   0.517   0.278   1.542 -0.2675  0.3339 -0.1364
  847HK4    H1371131   0.540   0.179   1.581 -2.9694 -0.0163  0.7094
  847HK4    C2571132   0.409   0.344   1.600 -0.1592 -0.0939  0.5611
  847HK4    H1271133   0.360   0.312   1.692 -2.2241 -0.3483 -0.5986
  847HK4    C2471134   0.369   0.462   1.538  0.2002 -0.4036 -0.2618
  847HK4    H1171135   0.296   0.521   1.595 -2.2518 -2.1942 -1.4424
  847HK4    C2371136   0.434   0.517   1.428  0.3753  0.5845  0.3317
  847HK4    H1071137   0.390   0.605   1.381 -0.5678 -0.7520 -1.3344
  847HK4    C3971138   0.651   0.615   1.215  0.3204  0.5021  0.8995
  847HK4    C4171139   0.547   0.699   1.172  0.2951  0.3119  0.5927
  847HK4    H2171140   0.450   0.651   1.156  0.6436 -0.2978  0.2873
  847HK4    C4271141   0.558   0.836   1.148  0.0648  0.2204 -0.0621
  847HK4    H2271142   0.472   0.904   1.143  0.9780  1.4953  1.2344
  847HK4    C4371143   0.685   0.892   1.144 -0.1241  0.6357 -0.2646
  847HK4    H2371144   0.702   0.997   1.121  0.6432  0.4318 -0.6603
  847HK4    C4471145   0.794   0.812   1.181 -0.1878  0.6579 -0.0298
  847HK4    H2471146   0.886   0.869   1.197  0.2011  0.1712 -0.5126
  847HK4    C4571147   0.777   0.678   1.212  0.3077  0.4760 -0.5341
  847HK4    H2571148   0.853   0.635   1.279  1.3458 -0.1731 -2.1251
  848HK4    H2871149   0.294   6.688  11.048 -1.7182  1.1901 -0.6455
  848HK4    C4871150   0.329   6.634  10.960 -0.2313  0.1236  0.5644
  848HK4    C4771151   0.333   6.496  10.962 -0.0263  0.1223 -0.0671
  848HK4    H2771152   0.290   6.439  11.046 -0.7415 -1.0135 -1.1753
  848HK4    C4671153   0.372   6.427  10.847 -0.0698 -0.5906  0.3432
  848HK4    H2671154   0.352   6.318  10.848  1.9475 -0.9691  1.2637
  848HK4    C4071155   0.411   6.493  10.729 -0.3965 -0.2657  0.4135
  848HK4    C5071156   0.406   6.634  10.730  0.3392 -0.2362  0.3272
  848HK4    H3071157   0.434   6.689  10.639  0.9966  1.0865  1.3092
  848HK4    C4971158   0.369   6.702  10.845  0.1629 -0.4239  0.3794
  848HK4    H2971159   0.385   6.811  10.846  0.5432 -0.4717 -0.3014
  848HK4     N271160   0.498   6.428  10.641 -0.0567  0.1612  0.4328
  848HK4    C3071161   0.581   6.317  10.668  0.3364  0.4137  0.2553
  848HK4    C2971162   0.656   6.305  10.785  0.0640  0.0846  0.3923
  848HK4    H1571163   0.611   6.344  10.876 -4.7303  1.8154 -2.4766
  848HK4    C2871164   0.770   6.226  10.784 -0.3225 -0.4774  0.1572
  848HK4    C2771165   0.808   6.153  10.669 -0.3480 -0.2880  0.0273
  848HK4    H1471166   0.872   6.065  10.680  1.3860  0.6058 -2.5312
  848HK4    C3271167   0.738   6.174  10.550 -0.1642  0.2142  0.0062
  848HK4    H1671168   0.764   6.134  10.452 -2.5249  1.7438 -1.3042
  848HK4    C3171169   0.627   6.256  10.544 -0.1800  0.2065  0.1685
  848HK4    C3471170   0.569   6.335  10.437 -0.3895 -0.0007  0.1257
  848HK4    C3371171   0.492   6.439  10.501 -0.5471 -0.2916  0.4160
  848HK4    C3571172   0.444   6.537  10.414 -0.5000 -0.1627  0.5323
  848HK4    H1771173   0.373   6.612  10.447  1.9178  1.7946  1.5018
  848HK4    C3671174   0.466   6.540  10.277 -0.5083  0.0692  0.5365
  848HK4    H1871175   0.399   6.600  10.213  1.7514  1.5391 -0.5465
  848HK4    C3771176   0.546   6.442  10.219 -0.7095  0.0567  0.2816
  848HK4    H1971177   0.557   6.439  10.110 -0.1725  3.0402  0.2079
  848HK4    C3871178   0.597   6.342  10.300 -0.1607  0.2591  0.1881
  848HK4    H2071179   0.638   6.252  10.255  1.9210  1.0281  0.4740
  848HK4    C1471180   0.858   6.228  10.901 -0.0002  0.4964 -0.0957
  848HK4     C971181   0.996   6.208  10.883 -0.0850 -0.1049 -0.0860
  848HK4     C871182   1.064   6.109  10.956  0.1057  0.1521  0.0829
  848HK4    C1171183   1.000   6.060  11.069  0.1321 -0.5691 -0.2042
  848HK4     H471184   1.038   5.972  11.122 -1.9545 -1.3194  0.0968
  848HK4    C1271185   0.870   6.094  11.103  0.2322 -0.2532 -0.1334
  848HK4     H571186   0.824   6.059  11.197 -0.2849 -1.8802 -0.9715
  848HK4    C1371187   0.796   6.174  11.016  0.3665 -0.2621 -0.2527
  848HK4     H671188   0.693   6.201  11.043 -0.2227  0.1056 -2.7238
  848HK4     C771189   1.185   6.043  10.901 -0.2864 -0.0338 -0.5605
  848HK4     O271190   1.250   5.968  10.973 -0.6302  0.2262  0.0201
  848HK4     C471191   1.239   6.091  10.772  0.0142  0.3852 -0.2780
  848HK4     C371192   1.352   6.034  10.714 -0.2648 -0.8710  0.4122
  848HK4     H371193   1.365   5.925  10.727  0.0959 -0.6835  1.6872
  848HK4     C271194   1.420   6.095  10.609 -0.3498 -0.6818  0.4643
  848HK4     H271195   1.518   6.052  10.586 -0.8221 -0.1504 -2.8046
  848HK4     C171196   1.377   6.217  10.557  0.2304 -0.6582  0.0419
  848HK4     H171197   1.439   6.276  10.489 -2.2464  1.6155 -0.3149
  848HK4     C671198   1.255   6.269  10.606  0.6367  0.0093  0.3374
  848HK4     C571199   1.197   6.215  10.721 -0.7377  0.1145 -0.3069
  848HK4    C1071200   1.078   6.281  10.783 -0.9591  0.0758 -0.6826
  848HK4     O171201   1.079   6.403  10.799 -1.1064  0.0225 -0.2829
  848HK4    C1671202   1.205   6.382  10.525 -0.2633 -0.2594  0.5282
  848HK4    C1571203   1.068   6.382  10.490 -0.0349  0.0852 -0.3679
  848HK4     H771204   1.015   6.286  10.491 -0.4844  0.3342 -0.4203
  848HK4    C2071205   0.992   6.497  10.472 -0.1014  0.1595  0.3744
  848HK4     H971206   0.884   6.490  10.458 -0.0922 -1.3559  0.8897
  848HK4    C1971207   1.059   6.618  10.477  0.0976  0.0599  0.1486
  848HK4    C1871208   1.194   6.623  10.531  0.0712  0.1809  0.2059
  848HK4    C1771209   1.265   6.505  10.547 -0.3390 -0.1111 -0.0973
  848HK4     H871210   1.371   6.512  10.572 -0.1641 -0.7340 -0.6406
  848HK4     N171211   1.245   6.753  10.519  0.2315  0.0880 -0.1404
  848HK4    C2171212   1.144   6.838  10.469  0.0339 -0.4672 -0.6882
  848HK4    C2271213   1.028   6.756  10.442 -0.1640 -0.2029 -0.6494
  848HK4    C2671214   0.922   6.809  10.369 -0.2347 -0.0116 -0.4074
  848HK4    H1371215   0.836   6.745  10.348  0.3686 -0.0564 -2.9445
  848HK4    C2571216   0.933   6.936  10.315 -0.0516  0.2000  0.1232
  848HK4    H1271217   0.842   6.974  10.267  0.3829  0.9585 -0.1057
  848HK4    C2471218   1.042   7.017  10.345  0.0590  0.2843 -0.4841
  848HK4    H1171219   1.032   7.124  10.324 -1.5419 -0.1281 -1.9596
  848HK4    C2371220   1.144   6.971  10.428 -0.6259 -0.2248  0.0834
  848HK4    H1071221   1.229   7.036  10.446 -0.5960 -0.8005  2.2010
  848HK4    C3971222   1.363   6.796  10.581  0.1705  0.2211 -0.1168
  848HK4    C4171223   1.443   6.894  10.518  0.3961 -0.2476 -0.5679
  848HK4    H2171224   1.466   6.886  10.411  0.0428  1.1894 -0.7574
  848HK4    C4271225   1.526   6.975  10.594 -0.1447 -0.3500  0.1392
  848HK4    H2271226   1.578   7.058  10.544 -2.7131  1.6156  0.6326
  848HK4    C4371227   1.537   6.960  10.732 -0.0742 -0.1702  0.1532
  848HK4    H2371228   1.622   7.008  10.780  0.0553  1.3793 -1.5609
  848HK4    C4471229   1.462   6.863  10.797 -0.3390 -0.1117 -0.0631
  848HK4    H2471230   1.453   6.863  10.907 -1.1222  0.7683 -0.1168
  848HK4    C4571231   1.378   6.783  10.721 -0.0664 -0.3255 -0.1390
  848HK4    H2571232   1.331   6.695  10.766  0.6828  0.6936  2.7011
  849HK4    H2871233   8.740   6.605   6.025 -2.0481 -0.4426 -1.0205
  849HK4    C4871234   8.718   6.520   6.090 -0.0694 -0.1806  0.0273
  849HK4    C4771235   8.639   6.416   6.043 -0.2886  0.1308 -0.2965
  849HK4    H2771236   8.601   6.421   5.940 -1.7397 -0.3081  0.2125
  849HK4    C4671237   8.626   6.297   6.114 -0.0054  0.3579  0.1371
  849HK4    H2671238   8.576   6.212   6.067  0.3443  0.0176  0.3847
  849HK4    C4071239   8.688   6.270   6.237  0.3747 -0.1632 -0.1658
  849HK4    C5071240   8.769   6.376   6.282 -0.2310  0.0401  0.4619
  849HK4    H3071241   8.815   6.364   6.382 -1.2418 -1.3168  0.7764
  849HK4    C4971242   8.783   6.493   6.210  0.2819 -0.4364 -0.2199
  849HK4    H2971243   8.840   6.576   6.256  0.5858 -0.8280  0.1070
  849HK4     N271244   8.633   6.178   6.328  0.1004  0.5363  0.3786
  849HK4    C3071245   8.498   6.145   6.353  0.1707 -0.3710 -0.4205
  849HK4    C2971246   8.384   6.210   6.307 -0.2097 -0.6779  0.0912
  849HK4    H1571247   8.388   6.286   6.230  2.1609 -1.3375 -0.4775
  849HK4    C2871248   8.264   6.183   6.373 -0.5797 -0.2049 -0.3927
  849HK4    C2771249   8.256   6.085   6.473  0.1319  0.0004 -0.1297
  849HK4    H1471250   8.161   6.055   6.518 -0.3936 -0.1352 -1.3062
  849HK4    C3271251   8.367   6.007   6.503 -0.0564 -0.2183 -0.0038
  849HK4    H1671252   8.359   5.923   6.572  0.5049  0.1716  0.5462
  849HK4    C3171253   8.492   6.036   6.448 -0.1244 -0.0411 -0.0614
  849HK4    C3471254   8.628   6.010   6.491 -0.0933  0.3398  0.0803
  849HK4    C3371255   8.712   6.091   6.406  0.0038 -0.3024 -0.4428
  849HK4    C3571256   8.851   6.083   6.419  0.0786  1.0845 -0.2584
  849HK4    H1771257   8.902   6.177   6.397 -0.3974  1.9285  2.1493
  849HK4    C3671258   8.901   5.997   6.515 -0.9388  0.5798 -0.1659
  849HK4    H1871259   9.011   5.987   6.522 -0.8943 -0.2902 -1.8762
  849HK4    C3771260   8.821   5.917   6.596  0.1401 -0.1821  0.1588
  849HK4    H1971261   8.854   5.820   6.635  1.0634  0.6852  1.6188
  849HK4    C3871262   8.683   5.921   6.583  0.2082 -0.1445 -0.5664
  849HK4    H2071263   8.619   5.870   6.654 -1.1636  0.4034 -1.3857
  849HK4    C1471264   8.148   6.269   6.346 -0.2313  0.2846 -0.3491
  849HK4     C971265   8.055   6.292   6.448 -0.2358 -0.3738 -0.2023
  849HK4     C871266   7.921   6.320   6.414 -0.0562  0.9604  0.1577
  849HK4    C1171267   7.889   6.326   6.279 -0.1772 -0.2871  0.1201
  849HK4     H471268   7.785   6.352   6.254 -0.3216  0.2707  1.2607
  849HK4    C1271269   7.979   6.297   6.178  0.0133  0.2369  0.1380
  849HK4     H571270   7.947   6.303   6.073 -0.8519  1.6320  0.4671
  849HK4    C1371271   8.112   6.270   6.210  0.0258 -0.3872 -0.4247
  849HK4     H671272   8.186   6.245   6.132  2.4048 -0.7823  1.8906
  849HK4     C771273   7.815   6.321   6.518 -0.1787  0.1599  0.0463
  849HK4     O271274   7.698   6.337   6.485 -0.3049 -0.3714  0.2350
  849HK4     C471275   7.854   6.301   6.660  0.2943 -0.2969 -0.1467
  849HK4     C371276   7.759   6.297   6.760  0.4710 -0.2094  0.0237
  849HK4     H371277   7.654   6.297   6.727  0.3866  2.4232  0.1438
  849HK4     C271278   7.788   6.283   6.895  0.1419 -0.1837  0.0998
  849HK4     H271279   7.708   6.277   6.970  0.1513  1.8596  0.3061
  849HK4     C171280   7.922   6.266   6.929  0.1525  0.2462  0.2801
  849HK4     H171281   7.946   6.276   7.036 -1.2168 -1.7042  0.7842
  849HK4     C671282   8.023   6.265   6.831  0.2528  0.3503  0.3825
  849HK4     C571283   7.990   6.298   6.699  0.1656  0.0097  0.3196
  849HK4    C1071284   8.092   6.310   6.591 -0.4049  0.1076 -0.2171
  849HK4     O171285   8.182   6.390   6.618 -0.7863  0.5503 -0.2671
  849HK4    C1671286   8.132   6.173   6.867  0.0629  0.1862  0.5443
  849HK4    C1571287   8.108   6.045   6.921 -0.2991 -0.0184 -0.0940
  849HK4     H771288   8.012   6.034   6.973 -0.0127  1.7264  0.8677
  849HK4    C2071289   8.209   5.953   6.946 -0.1895  0.0184 -0.4103
  849HK4     H971290   8.181   5.859   6.993  0.1192 -0.5561 -1.3502
  849HK4    C1971291   8.341   5.993   6.927 -0.0858  0.0647  0.4272
  849HK4    C1871292   8.373   6.127   6.880 -0.4656  0.0262  0.0549
  849HK4    C1771293   8.266   6.211   6.856 -0.0708  0.2803 -0.8167
  849HK4     H871294   8.285   6.317   6.839 -1.8588  0.5835 -1.0348
  849HK4     N171295   8.511   6.152   6.869 -0.4133 -0.3292 -0.0914
  849HK4    C2171296   8.568   6.027   6.903  0.1103 -0.1853 -0.4282
  849HK4    C2271297   8.470   5.929   6.944 -0.0212 -0.0046 -0.3152
  849HK4    C2671298   8.500   5.806   7.001  0.2897  0.0956 -0.2638
  849HK4    H1371299   8.415   5.748   7.037 -1.0188  2.3313  0.3086
  849HK4    C2571300   8.633   5.773   7.025  0.2728  0.1461 -0.1173
  849HK4    H1271301   8.665   5.679   7.069 -0.9298 -0.4652 -0.5325
  849HK4    C2471302   8.727   5.873   7.000  0.5003  0.1162  0.5766
  849HK4    H1171303   8.833   5.855   7.023  1.0592  0.3454 -1.7263
  849HK4    C2371304   8.699   5.989   6.929 -0.0386 -0.0366  0.5348
  849HK4    H1071305   8.779   6.037   6.872  1.0005  1.6842  3.3232
  849HK4    C3971306   8.569   6.251   6.788  0.0292 -0.5695 -0.0733
  849HK4    C4171307   8.704   6.279   6.816 -0.1576 -0.0834  0.3258
  849HK4    H2171308   8.752   6.253   6.911  3.4211  0.6492 -1.2176
  849HK4    C4271309   8.772   6.366   6.731  0.3789 -0.2161  0.6212
  849HK4    H2271310   8.880   6.377   6.750  0.0277  2.0157  1.5076
  849HK4    C4371311   8.710   6.429   6.625 -0.1645  0.0570  1.1024
  849HK4    H2371312   8.777   6.494   6.568  0.0515 -2.5691 -1.7735
  849HK4    C4471313   8.582   6.386   6.590  0.1307  0.1886 -0.1818
  849HK4    H2471314   8.556   6.397   6.484  1.1381 -0.5847 -0.5242
  849HK4    C4571315   8.509   6.297   6.669 -0.0959  1.0725  0.6120
  849HK4    H2571316   8.412   6.254   6.640  1.0140  1.4275 -4.1985
  850HK4    H2871317   0.911   9.937  10.795 -1.6926 -2.7995  0.5498
  850HK4    C4871318   0.823   9.998  10.774  0.3566  0.0580 -0.0535
  850HK4    C4771319   0.700   9.940  10.801 -0.0995  0.7087 -0.7079
  850HK4    H2771320   0.685   9.837  10.837  0.6709  0.3878 -1.2915
  850HK4    C4671321   0.584  10.015  10.784 -0.6704  0.0265  0.1392
  850HK4    H2671322   0.493   9.977  10.832  0.1896 -1.9481  0.2564
  850HK4    C4071323   0.592  10.145  10.730 -0.2696 -0.1387 -0.2070
  850HK4    C5071324   0.720  10.202  10.712 -0.0766 -0.2080  0.8681
  850HK4    H3071325   0.730  10.306  10.679 -1.8043 -0.9007 -2.1331
  850HK4    C4971326   0.837  10.130  10.733  0.2650  0.2388  0.5077
  850HK4    H2971327   0.928  10.188  10.757  0.9000  0.4460 -2.2467
  850HK4     N271328   0.477  10.202  10.675  0.0259  0.3333 -0.3324
  850HK4    C3071329   0.444  10.340  10.678 -0.2560  0.2620 -0.0628
  850HK4    C2971330   0.485  10.437  10.768 -0.3444  0.4216 -0.1959
  850HK4    H1571331   0.576  10.432  10.827 -1.1376  3.1279  1.3582
  850HK4    C2871332   0.429  10.564  10.780 -0.3710  0.4188 -0.2923
  850HK4    C2771333   0.320  10.588  10.695 -0.8646 -0.1163  0.1857
  850HK4    H1471334   0.279  10.690  10.686  0.5623  0.5380  0.9953
  850HK4    C3271335   0.279  10.501  10.594 -0.1510  0.3540 -0.5186
  850HK4    H1671336   0.198  10.520  10.524  0.3375 -3.9182 -2.4254
  850HK4    C3171337   0.336  10.374  10.587 -0.0739  0.3736 -0.2399
  850HK4    C3471338   0.298  10.246  10.531 -0.1508  0.0980  0.4264
  850HK4    C3371339   0.390  10.145  10.580 -0.1460 -0.0754  0.0667
  850HK4    C3571340   0.395  10.025  10.511 -0.0958  0.2962 -0.5826
  850HK4    H1771341   0.460   9.945  10.546 -3.5744 -1.2315  2.8270
  850HK4    C3671342   0.317   9.997  10.399  0.2268 -0.4711 -0.6249
  850HK4    H1871343   0.350   9.920  10.327 -0.9668 -0.0220 -1.6639
  850HK4    C3771344   0.220  10.090  10.363  0.4469 -0.0914 -0.2556
  850HK4    H1971345   0.130  10.058  10.310  1.2209  1.1348 -2.3561
  850HK4    C3871346   0.217  10.215  10.422 -0.0080 -0.4390  0.4714
  850HK4    H2071347   0.126  10.274  10.409 -1.3468 -3.2403 -3.7598
  850HK4    C1471348   0.431  10.624  10.914  0.2497  0.1541 -0.1796
  850HK4     C971349   0.314  10.674  10.972  0.0888 -0.0910 -0.2918
  850HK4     C871350   0.325  10.789  11.052 -0.4587  0.0609 -0.4320
  850HK4    C1171351   0.451  10.837  11.087 -0.4352 -0.1922 -0.1746
  850HK4     H471352   0.470  10.933  11.139  0.2336  0.3183 -1.3321
  850HK4    C1271353   0.564  10.767  11.050  0.0474  0.6621 -0.3382
  850HK4     H571354   0.666  10.798  11.077 -0.3294  0.0317  2.0043
  850HK4    C1371355   0.559  10.664  10.957  0.1178  0.0814  0.2873
  850HK4     H671356   0.650  10.609  10.928  0.7946  2.9384 -3.4393
  850HK4     C771357   0.201  10.867  11.073 -0.3360 -0.0661  0.8172
  850HK4     O271358   0.215  10.986  11.100  0.1309  0.0799 -0.0359
  850HK4     C471359   0.065  10.815  11.048 -0.3488  0.3995 -0.1094
  850HK4     C371360  11.198  10.885  11.082 -0.2986  0.1253  0.6413
  850HK4     H371361  11.209  10.982  11.133 -2.3381  1.3300 -1.1293
  850HK4     C271362  11.070  10.838  11.055  0.0252 -0.2317 -0.2870
  850HK4     H271363  10.982  10.901  11.076 -1.4102 -2.8343  1.8184
  850HK4     C171364  11.061  10.719  10.983  0.4968 -0.6459  0.3303
  850HK4     H171365  10.965  10.673  10.955  0.6834 -1.1844  0.5843
  850HK4     C671366  11.174  10.647  10.940  0.4997 -0.3254 -0.2114
  850HK4     C571367   0.053  10.692  10.980  0.2510  0.4140 -0.2442
  850HK4    C1071368   0.178  10.616  10.953  0.0205  0.2560 -0.8728
  850HK4     O171369   0.170  10.494  10.967 -0.2436  0.3166 -0.5091
  850HK4    C1671370  11.149  10.574  10.815  0.5800 -0.0974 -0.3619
  850HK4    C1571371  11.071  10.643  10.720 -0.1817  0.1872  0.4604
  850HK4     H771372  11.081  10.753  10.721  3.0594  0.0039 -1.7813
  850HK4    C2071373  11.006  10.576  10.617 -0.1772  0.1391  0.4866
  850HK4     H971374  10.943  10.632  10.548 -2.3188 -0.9699  1.4887
  850HK4    C1971375  11.009  10.437  10.619 -0.6331  0.1295  0.5754
  850HK4    C1871376  11.082  10.363  10.720 -0.1772 -0.0492  0.1212
  850HK4    C1771377  11.159  10.436  10.810 -0.0420 -0.1566  0.0965
  850HK4     H871378  11.245  10.379  10.846 -0.6183 -0.3617  1.1682
  850HK4     N171379  11.056  10.224  10.718 -0.4889 -0.0022  0.6458
  850HK4    C2171380  10.964  10.212  10.612  0.0997 -0.4850  0.1873
  850HK4    C2271381  10.937  10.337  10.543  0.3077 -0.3681  0.3194
  850HK4    C2671382  10.844  10.342  10.440  0.3101 -0.2777  0.3207
  850HK4    H1371383  10.832  10.433  10.381 -1.7895  0.1552  1.3760
  850HK4    C2571384  10.781  10.225  10.400  0.2347 -0.2003  0.2137
  850HK4    H1271385  10.718  10.218  10.311 -0.1402  1.4568  0.3355
  850HK4    C2471386  10.796  10.107  10.472 -0.1079 -0.6024 -0.3534
  850HK4    H1171387  10.727  10.022  10.464 -0.7098  0.0153 -1.9473
  850HK4    C2371388  10.891  10.100  10.574  0.0452 -0.2305 -0.4713
  850HK4    H1071389  10.904  10.012  10.637  0.8872  0.1698 -0.0884
  850HK4    C3971390  11.143  10.124  10.763  0.2931  0.1260 -0.5397
  850HK4    C4171391   0.034  10.147  10.770  0.4269 -0.6602 -0.5107
  850HK4    H2171392   0.084  10.192  10.683 -1.1479  2.4478  0.1086
  850HK4    C4271393   0.114  10.103  10.874  0.1917 -0.0852 -0.0789
  850HK4    H2271394   0.212  10.147  10.893 -1.1742  3.9407 -1.9194
  850HK4    C4371395   0.056  10.027  10.976 -0.1986 -0.0640 -0.2883
  850HK4    H2371396   0.108  10.017  11.071  1.3895  2.7716 -0.7947
  850HK4    C4471397  11.171   9.987  10.968 -0.3029  0.2264  0.0182
  850HK4    H2471398  11.130   9.916  11.041  1.3495 -1.1690 -0.4017
  850HK4    C4571399  11.095  10.035  10.862  0.2643  0.3924 -0.3095
  850HK4    H2571400  10.990  10.004  10.864  0.0909  1.0456  2.6583
  851HK4    H2871401   9.679   1.493   5.542  2.0213  3.0282 -2.8733
  851HK4    C4871402   9.747   1.524   5.621  0.1286 -0.4306  0.2646
  851HK4    C4771403   9.699   1.578   5.740 -0.0068 -0.4163  0.2068
  851HK4    H2771404   9.594   1.603   5.763 -0.0515 -0.2190 -0.2094
  851HK4    C4671405   9.797   1.596   5.837  0.0883 -0.2093  0.0733
  851HK4    H2671406   9.757   1.613   5.938 -0.4576 -0.9410 -0.0105
  851HK4    C4071407   9.935   1.567   5.824  0.0492 -0.3774  0.0196
  851HK4    C5071408   9.977   1.524   5.697  0.2059 -0.7249  0.1915
  851HK4    H3071409  10.082   1.526   5.664  0.4868  0.2791  1.1318
  851HK4    C4971410   9.882   1.504   5.597  0.1733  0.1222  0.0573
  851HK4    H2971411   9.910   1.495   5.491 -0.9787 -1.6368 -0.1181
  851HK4     N271412  10.028   1.624   5.913  0.1954 -0.0219 -0.3570
  851HK4    C3071413  10.011   1.750   5.973  0.4940  0.0686 -0.4600
  851HK4    C2971414   9.956   1.870   5.929 -0.2084 -0.1076 -0.0744
  851HK4    H1571415   9.887   1.857   5.846 -0.2504  0.1843 -0.0833
  851HK4    C2871416   9.972   1.993   5.992  0.3699  0.0444 -0.5117
  851HK4    C2771417  10.036   1.992   6.117 -0.8065  0.0116  0.0987
  851HK4    H1471418  10.044   2.086   6.175 -0.7707  0.7584 -1.1102
  851HK4    C3271419  10.108   1.882   6.162 -0.2160  0.1974 -0.3900
  851HK4    H1671420  10.158   1.889   6.259 -0.5326  1.5667 -0.3106
  851HK4    C3171421  10.099   1.766   6.088  0.5960  0.2370 -0.5626
  851HK4    C3471422  10.183   1.648   6.094  0.0379 -0.1294  0.0704
  851HK4    C3371423  10.137   1.568   5.982 -0.2675 -0.1951  0.2397
  851HK4    C3571424  10.180   1.436   5.977 -0.0461 -0.1052 -0.2783
  851HK4    H1771425  10.152   1.370   5.895 -1.0303  0.0124 -0.0521
  851HK4    C3671426  10.261   1.384   6.078 -0.1104  0.1179 -0.1112
  851HK4    H1871427  10.295   1.282   6.055 -0.6862 -0.0297 -0.3210
  851HK4    C3771428  10.294   1.457   6.191 -0.6894 -0.9447  0.7621
  851HK4    H1971429  10.335   1.406   6.278  0.7224  0.3364  0.8770
  851HK4    C3871430  10.258   1.591   6.197 -0.2272 -0.7761 -0.0907
  851HK4    H2071431  10.283   1.656   6.281 -1.7381 -0.0513 -0.1839
  851HK4    C1471432   9.962   2.121   5.921 -0.2828  0.3311  0.0899
  851HK4     C971433  10.038   2.234   5.956 -0.1032  0.1487  0.2886
  851HK4     C871434   9.997   2.365   5.925 -0.5616 -0.1382 -0.3295
  851HK4    C1171435   9.875   2.377   5.858 -0.8356 -0.0908  0.1712
  851HK4     H471436   9.820   2.472   5.863  0.9825  1.0834 -1.5264
  851HK4    C1271437   9.796   2.269   5.819  0.4552 -0.7811 -0.5947
  851HK4     H571438   9.705   2.286   5.760  0.2605  0.6286  0.0864
  851HK4    C1371439   9.842   2.142   5.851 -0.3465 -0.9759 -0.1987
  851HK4     H671440   9.777   2.057   5.824 -0.5292 -1.1191  0.6874
  851HK4     C771441  10.056   2.478   6.000  0.3711 -0.9066  0.0969
  851HK4     O271442  10.042   2.592   5.954 -0.1351 -0.9399  0.1677
  851HK4     C471443  10.160   2.453   6.102 -0.0034 -0.3984  0.6027
  851HK4     C371444  10.190   2.553   6.193  0.2650 -0.1022  0.1870
  851HK4     H371445  10.116   2.634   6.206  1.9216  0.9672  3.7907
  851HK4     C271446  10.293   2.533   6.285  0.1784 -0.0248  0.3017
  851HK4     H271447  10.315   2.612   6.359  0.6335  1.1063 -1.0109
  851HK4     C171448  10.360   2.412   6.287  0.1894 -0.0153  0.5172
  851HK4     H171449  10.455   2.400   6.341  1.3515 -1.9746 -1.8654
  851HK4     C671450  10.321   2.304   6.204  0.1249  0.1625  0.3161
  851HK4     C571451  10.227   2.329   6.103  0.0722 -0.3610  0.2387
  851HK4    C1071452  10.177   2.225   6.009 -0.1529 -0.3396  0.3356
  851HK4     O171453  10.249   2.143   5.953 -0.5396 -0.0668 -0.5669
  851HK4    C1671454  10.347   2.171   6.261  0.0464 -0.0514 -0.1440
  851HK4    C1571455  10.312   2.147   6.395  0.4995  0.2342  0.0273
  851HK4     H771456  10.246   2.217   6.449 -1.1830 -1.2076 -0.1187
  851HK4    C2071457  10.348   2.032   6.463 -0.6333 -0.1410  0.0045
  851HK4     H971458  10.303   2.001   6.558  2.4056 -3.0912  0.6130
  851HK4    C1971459  10.429   1.942   6.394  0.1927  0.2390  0.4603
  851HK4    C1871460  10.481   1.970   6.262  0.1280 -0.1749  0.3474
  851HK4    C1771461  10.434   2.083   6.197 -0.7298 -0.8122 -0.1617
  851HK4     H871462  10.470   2.105   6.097  1.5970  3.9349  1.5361
  851HK4     N171463  10.569   1.870   6.215  0.0887 -0.0154 -0.0623
  851HK4    C2171464  10.557   1.767   6.310 -0.0772 -0.0632 -0.1356
  851HK4    C2271465  10.478   1.809   6.424  0.2857  0.1756  0.0303
  851HK4    C2671466  10.451   1.726   6.533  0.2089  0.0128 -0.1116
  851HK4    H1371467  10.390   1.760   6.617  0.1542 -1.0358  0.2769
  851HK4    C2571468  10.504   1.598   6.523 -0.3880 -0.1800 -0.8388
  851HK4    H1271469  10.478   1.528   6.602 -0.7754 -0.4460 -1.1997
  851HK4    C2471470  10.575   1.551   6.413  0.1235 -0.6622 -0.3084
  851HK4    H1171471  10.618   1.450   6.404  2.5224  0.2138  0.8178
  851HK4    C2371472  10.602   1.635   6.306 -0.1161 -0.0839  0.0849
  851HK4    H1071473  10.660   1.603   6.220 -0.4482 -0.3788 -0.0295
  851HK4    C3971474  10.691   1.891   6.149  0.1434  0.0291  0.0513
  851HK4    C4171475  10.760   2.013   6.162 -0.2332  0.1938  0.5351
  851HK4    H2171476  10.747   2.067   6.257  1.6338 -0.0684  0.9645
  851HK4    C4271477  10.878   2.038   6.093 -0.7426  0.4692 -0.2387
  851HK4    H2271478  10.930   2.134   6.100  0.0017 -0.0209  1.3985
  851HK4    C4371479  10.924   1.941   6.004  0.3800  0.3671  0.4333
  851HK4    H2371480  10.997   1.970   5.929 -1.0437  0.0779 -1.1012
  851HK4    C4471481  10.853   1.824   5.979  0.2651  0.3686  0.7408
  851HK4    H2471482  10.892   1.759   5.899  1.1958  2.1698 -0.3183
  851HK4    C4571483  10.738   1.799   6.053 -0.2150  0.0181 -0.1154
  851HK4    H2571484  10.692   1.699   6.048  0.0404 -0.0966 -0.1733
  852HK4    H2871485   9.390   4.933   3.669 -0.2149 -2.2940 -2.2940
  852HK4    C4871486   9.361   5.012   3.599  0.1788  0.2731  0.3672
  852HK4    C4771487   9.321   5.138   3.643  0.2326  0.2344  0.5314
  852HK4    H2771488   9.314   5.153   3.752  0.4385  0.1012  0.5617
  852HK4    C4671489   9.279   5.231   3.548 -0.1983 -0.3697  0.1245
  852HK4    H2671490   9.246   5.328   3.587  1.3494  0.0202  0.5240
  852HK4    C4071491   9.274   5.214   3.408  0.2671  0.3461  0.0196
  852HK4    C5071492   9.312   5.083   3.374  0.0611  0.2855  0.0188
  852HK4    H3071493   9.293   5.043   3.273 -0.8205 -0.0010  0.2904
  852HK4    C4971494   9.360   4.987   3.463  0.5486  0.7628  0.2723
  852HK4    H2971495   9.408   4.895   3.426  1.5773  0.5241  2.1299
  852HK4     N271496   9.206   5.292   3.314 -0.4508 -0.1479  0.1332
  852HK4    C3071497   9.098   5.381   3.331 -0.0081  0.3872  0.1443
  852HK4    C2971498   9.001   5.376   3.430 -0.1369 -0.1401 -0.0072
  852HK4    H1571499   9.011   5.307   3.513  0.3424  1.2456  1.1073
  852HK4    C2871500   8.888   5.458   3.423 -0.2018 -0.2299 -0.0209
  852HK4    C2771501   8.876   5.541   3.310  0.0519 -0.6217 -0.3366
  852HK4    H1471502   8.788   5.606   3.310 -0.4167 -1.2428  0.2125
  852HK4    C3271503   8.967   5.549   3.205 -0.0489 -0.2256 -0.3900
  852HK4    H1671504   8.960   5.614   3.117  2.2286  0.8702  0.2016
  852HK4    C3171505   9.079   5.469   3.216  0.1427  0.0792 -0.1158
  852HK4    C3471506   9.187   5.434   3.126  0.1502 -0.2703  0.0234
  852HK4    C3371507   9.259   5.324   3.188 -0.2071 -0.4251  0.1657
  852HK4    C3571508   9.371   5.276   3.120 -0.0145 -0.0905  0.2383
  852HK4    H1771509   9.438   5.217   3.183  1.3976  4.1087  2.8903
  852HK4    C3671510   9.411   5.317   2.993 -0.0895 -0.1875  0.1844
  852HK4    H1871511   9.503   5.280   2.946 -0.0556  0.5043 -0.2951
  852HK4    C3771512   9.340   5.420   2.931 -0.8233 -0.8657 -0.1084
  852HK4    H1971513   9.380   5.480   2.850  0.3666  1.0472  1.8416
  852HK4    C3871514   9.231   5.472   3.000 -0.4672 -0.0823 -0.1357
  852HK4    H2071515   9.172   5.541   2.939 -0.8988  0.3512  0.7716
  852HK4    C1471516   8.771   5.441   3.510 -0.2355  0.0741 -0.0085
  852HK4     C971517   8.637   5.469   3.481 -0.2346 -0.0010 -0.0928
  852HK4     C871518   8.552   5.532   3.575  0.1978  0.0532  0.2637
  852HK4    C1171519   8.599   5.553   3.704  0.0153  0.4783  0.2625
  852HK4     H471520   8.538   5.612   3.773 -0.6365 -0.0514  0.1407
  852HK4    C1271521   8.719   5.494   3.745  0.2649  0.1380 -0.9273
  852HK4     H571522   8.738   5.477   3.852  0.1688  0.4980 -0.8503
  852HK4    C1371523   8.800   5.437   3.648  0.7500 -0.3560 -0.2272
  852HK4     H671524   8.900   5.408   3.684  0.7635  0.5171  0.4539
  852HK4     C771525   8.422   5.586   3.530  0.2450 -0.2841 -0.2895
  852HK4     O271526   8.343   5.637   3.610  0.3040 -0.3932 -0.1627
  852HK4     C471527   8.377   5.555   3.393 -0.2930  0.2798 -0.2451
  852HK4     C371528   8.257   5.606   3.344 -0.6627  0.0090  0.3646
  852HK4     H371529   8.217   5.694   3.397 -0.5686  0.2882 -0.0288
  852HK4     C271530   8.185   5.544   3.242 -0.0064 -0.1457 -0.0090
  852HK4     H271531   8.093   5.596   3.212  1.0279  1.7822  0.0564
  852HK4     C171532   8.238   5.427   3.190  0.3212 -0.2155  0.4736
  852HK4     H171533   8.198   5.384   3.097  2.1019 -0.5033 -0.1718
  852HK4     C671534   8.358   5.368   3.234  0.3978 -0.3330  0.1104
  852HK4     C571535   8.430   5.440   3.330 -0.0445  0.2658 -0.0072
  852HK4    C1071536   8.574   5.412   3.359 -0.0113  0.1470 -0.2762
  852HK4     O171537   8.640   5.373   3.263 -0.5080 -0.1280 -0.5069
  852HK4    C1671538   8.354   5.221   3.240 -0.3211 -0.3069  0.2509
  852HK4    C1571539   8.244   5.154   3.297 -0.5580 -0.3837 -0.2899
  852HK4     H771540   8.193   5.209   3.377  0.4420  1.3031 -0.7802
  852HK4    C2071541   8.236   5.016   3.283  0.5769 -0.5149  0.2790
  852HK4     H971542   8.151   4.966   3.331 -0.1521 -1.0505 -1.5012
  852HK4    C1971543   8.329   4.941   3.212  0.0956 -0.3069 -0.5862
  852HK4    C1871544   8.449   5.010   3.167  0.0462 -0.1479 -0.4677
  852HK4    C1771545   8.453   5.149   3.174 -0.7155 -0.1176 -0.5566
  852HK4     H871546   8.546   5.192   3.138  0.0910 -1.7883 -0.5317
  852HK4     N171547   8.547   4.912   3.142  0.3418  0.0897 -0.2494
  852HK4    C2171548   8.496   4.787   3.185  0.1258  0.1928 -0.2035
  852HK4    C2271549   8.354   4.798   3.210  0.0739 -0.3175 -0.2543
  852HK4    C2671550   8.283   4.685   3.247 -0.3133 -0.0692 -0.2354
  852HK4    H1371551   8.176   4.671   3.265 -0.5667  0.8868 -0.9545
  852HK4    C2571552   8.353   4.568   3.275  0.1292  0.4381  0.7668
  852HK4    H1271553   8.296   4.490   3.325  0.3267  1.7011  3.0459
  852HK4    C2471554   8.491   4.563   3.260  0.0474 -0.2459  0.2192
  852HK4    H1171555   8.544   4.470   3.287  0.7258 -0.0695 -0.4867
  852HK4    C2371556   8.567   4.670   3.213 -0.3573 -0.0441  0.0306
  852HK4    H1071557   8.671   4.647   3.192  0.3239 -0.2056  3.2996
  852HK4    C3971558   8.684   4.935   3.132  0.3149  0.1569 -0.4233
  852HK4    C4171559   8.766   4.845   3.061  0.1925 -0.4747  0.2282
  852HK4    H2171560   8.719   4.785   2.981 -0.7583  0.2713  0.2167
  852HK4    C4271561   8.904   4.847   3.070  0.2173 -0.0761 -0.1737
  852HK4    H2271562   8.971   4.794   3.001  0.5098 -3.2518  2.4578
  852HK4    C4371563   8.966   4.940   3.154  0.3190 -0.2941 -0.0099
  852HK4    H2371564   9.072   4.938   3.176  0.2438  1.6445  0.5945
  852HK4    C4471565   8.888   5.031   3.225 -0.1985 -0.3754 -0.4659
  852HK4    H2471566   8.934   5.120   3.272 -1.3548  0.9201 -1.7262
  852HK4    C4571567   8.750   5.029   3.215 -0.2443  0.2008 -0.0244
  852HK4    H2571568   8.696   5.090   3.288  2.5436  0.7301  1.6662
  853HK4    H2871569  10.685  11.102  10.036  0.6868  0.0051 -0.5284
  853HK4    C4871570  10.723  11.000  10.041  0.2254 -0.1670 -0.5355
  853HK4    C4771571  10.710  10.904   9.941  0.1424 -0.1368 -0.5568
  853HK4    H2771572  10.664  10.929   9.844  0.3223  2.7687  0.0563
  853HK4    C4671573  10.749  10.776   9.978  0.1259  0.0275  0.0340
  853HK4    H2671574  10.719  10.701   9.903  0.7148 -0.6580  0.4803
  853HK4    C4071575  10.805  10.732  10.099  0.1065  0.1573  0.0891
  853HK4    C5071576  10.804  10.829  10.201  0.8311  0.2732 -0.0122
  853HK4    H3071577  10.819  10.810  10.308 -3.2489 -0.6873  0.4742
  853HK4    C4971578  10.766  10.958  10.167  0.3907  0.0100 -0.5340
  853HK4    H2971579  10.727  11.019  10.250 -2.8471 -3.2079  0.4342
  853HK4     N271580  10.843  10.597  10.108  0.3225  0.2019 -0.1032
  853HK4    C3071581  10.800  10.497  10.019 -0.0140  0.4382 -0.2047
  853HK4    C2971582  10.674  10.466   9.970  0.0515  0.0443 -0.1330
  853HK4    H1571583  10.588  10.522  10.007 -1.6103 -0.8912 -2.4113
  853HK4    C2871584  10.648  10.337   9.924  0.2921 -0.0723  0.0638
  853HK4    C2771585  10.751  10.242   9.908 -0.1928 -0.4831 -0.6548
  853HK4    H1471586  10.744  10.157   9.839 -2.0725  0.3627 -1.5469
  853HK4    C3271587  10.881  10.278   9.941 -0.4693 -0.1880  0.1241
  853HK4    H1671588  10.960  10.208   9.914 -1.6601 -0.8208 -1.7936
  853HK4    C3171589  10.907  10.401  10.001 -0.4760 -0.1019 -0.0474
  853HK4    C3471590  11.016  10.439  10.089 -0.6948 -0.8912  0.5708
  853HK4    C3371591  10.966  10.554  10.161  0.1710 -0.1344 -0.0235
  853HK4    C3571592  11.047  10.609  10.260  0.5243  0.1595 -0.4776
  853HK4    H1771593  11.005  10.680  10.331  2.9635  0.3566  0.8302
  853HK4    C3671594  11.172  10.555  10.288  0.2591 -0.2242 -0.0379
  853HK4    H1871595  11.231  10.596  10.371  1.0895 -2.8458  0.7124
  853HK4    C3771596  11.221  10.447  10.215  0.1154 -0.1360 -0.2630
  853HK4    H1971597   0.075  10.411  10.231  1.5258  3.4678 -0.6112
  853HK4    C3871598  11.142  10.389  10.116 -0.2858 -0.1443  0.0559
  853HK4    H2071599  11.188  10.312  10.055 -1.8416 -0.0070 -1.3101
  853HK4    C1471600  10.508  10.300   9.897  0.3758 -0.2360 -0.1559
  853HK4     C971601  10.462  10.169   9.881  0.3970 -0.2790  0.1518
  853HK4     C871602  10.378  10.127   9.775  0.6262  0.0422 -0.1649
  853HK4    C1171603  10.320  10.232   9.706 -0.5904 -0.3439  0.2483
  853HK4     H471604  10.266  10.206   9.614  1.0746  0.4334 -0.9956
  853HK4    C1271605  10.337  10.368   9.733 -0.0771 -0.4628  0.5345
  853HK4     H571606  10.251  10.432   9.712 -1.4296 -1.8492  1.7364
  853HK4    C1371607  10.441  10.397   9.821  0.3347 -0.1774 -0.0450
  853HK4     H671608  10.461  10.504   9.838 -0.2763 -0.3240  1.6552
  853HK4     C771609  10.351   9.983   9.754 -0.4763  0.2547 -0.2149
  853HK4     O271610  10.307   9.956   9.642 -0.4741 -0.3155 -0.0862
  853HK4     C471611  10.378   9.886   9.863 -0.0013  0.4640 -0.1441
  853HK4     C371612  10.337   9.754   9.847  0.2067  0.3392  0.3708
  853HK4     H371613  10.272   9.729   9.763  0.6903 -0.0231  0.0963
  853HK4     C271614  10.362   9.657   9.944  0.3849  0.0113  0.0009
  853HK4     H271615  10.314   9.560   9.926  1.2166 -0.8403  2.2345
  853HK4     C171616  10.431   9.700  10.057 -0.0159  0.1763  0.1873
  853HK4     H171617  10.445   9.636  10.146  2.0401  1.9700  1.2220
  853HK4     C671618  10.484   9.830  10.072 -0.1344  0.2282  0.1305
  853HK4     C571619  10.451   9.927   9.976 -0.3766  0.2096  0.1913
  853HK4    C1071620  10.483  10.071   9.992  0.1729  0.0544  0.4903
  853HK4     O171621  10.489  10.124  10.102  0.2482  0.4265  0.3077
  853HK4    C1671622  10.549   9.854  10.202  0.0597  0.3355  0.0151
  853HK4    C1571623  10.500   9.795  10.320  0.0890  0.5017  0.1108
  853HK4     H771624  10.392   9.786  10.336 -0.0472  3.3552  1.0395
  853HK4    C2071625  10.581   9.754  10.425  0.1480 -0.6203 -0.3649
  853HK4     H971626  10.541   9.737  10.526 -0.8323 -0.4548 -0.7218
  853HK4    C1971627  10.719   9.766  10.414  0.1332  0.0139  0.0815
  853HK4    C1871628  10.773   9.826  10.294  0.0674 -0.4584 -0.1852
  853HK4    C1771629  10.686   9.872  10.196  0.1383 -0.2967 -0.1730
  853HK4     H871630  10.731   9.929  10.114 -1.6389 -1.3512 -1.9217
  853HK4     N171631  10.914   9.825  10.298  0.0667  0.4272  0.1669
  853HK4    C2171632  10.951   9.778  10.426  0.0774  0.8191  0.3053
  853HK4    C2271633  10.832   9.743  10.501  0.1271  0.3749  0.1809
  853HK4    C2671634  10.849   9.720  10.638  0.4766  0.0940  0.0943
  853HK4    H1371635  10.773   9.657  10.684  1.6437  1.1594  3.5750
  853HK4    C2571636  10.969   9.737  10.706  0.1583 -0.0576  0.6942
  853HK4    H1271637  10.974   9.735  10.815 -1.6597  0.1260  0.7997
  853HK4    C2471638  11.079   9.771  10.629 -0.2603  0.0169  0.1238
  853HK4    H1171639  11.172   9.802  10.679 -1.4077  1.8400  1.1910
  853HK4    C2371640  11.071   9.797  10.493  0.5277 -0.6867 -0.0629
  853HK4    H1071641  11.167   9.802  10.441 -0.5836  0.6382 -2.0484
  853HK4    C3971642  11.001   9.864  10.195 -0.7960 -0.2212 -0.8162
  853HK4    C4171643  11.122   9.792  10.190 -0.1875  0.7492 -0.1863
  853HK4    H2171644  11.115   9.684  10.206  1.5484  0.6707  0.1710
  853HK4    C4271645  11.241   9.839  10.135  0.2227 -0.2764 -0.1843
  853HK4    H2271646   0.087   9.786  10.153 -0.0835 -1.0624 -0.8361
  853HK4    C4371647  11.237   9.965  10.076  0.0600 -0.2911 -0.2099
  853HK4    H2371648   0.079  10.022  10.055  2.1837 -2.1594  3.3866
  853HK4    C4471649  11.118  10.037  10.078  0.2973  0.0862  0.1852
  853HK4    H2471650  11.110  10.134  10.027  1.2400 -1.0895 -2.2823
  853HK4    C4571651  11.002   9.994  10.141  0.0163 -0.0683 -0.4424
  853HK4    H2571652  10.925  10.069  10.163 -1.6185 -1.8979  0.2568
  854HK4    H2871653   0.433   4.329   3.688 -0.1553  0.3046 -0.0563
  854HK4    C4871654   0.440   4.428   3.643  0.1654  0.2681 -0.0872
  854HK4    C4771655   0.398   4.460   3.515  0.6030 -0.3928 -0.3998
  854HK4    H2771656   0.338   4.394   3.451 -0.1025  1.9722 -2.2761
  854HK4    C4671657   0.441   4.583   3.466 -0.4468  0.0671 -0.1735
  854HK4    H2671658   0.443   4.587   3.356 -0.0145  0.7111 -0.1415
  854HK4    C4071659   0.499   4.687   3.540  0.1013 -0.5259  0.2296
  854HK4    C5071660   0.522   4.653   3.675 -0.0664  0.6102  0.5481
  854HK4    H3071661   0.530   4.737   3.747 -0.0422  2.1091 -1.1620
  854HK4    C4971662   0.509   4.522   3.719 -0.0499  0.4031 -0.0601
  854HK4    H2971663   0.578   4.487   3.797  0.8405  1.8753 -0.1777
  854HK4     N271664   0.506   4.817   3.487  0.3623 -0.6591 -0.0634
  854HK4    C3071665   0.443   4.864   3.370  0.1293 -0.1424  0.2696
  854HK4    C2971666   0.326   4.832   3.301  0.2248 -0.1329  0.1040
  854HK4    H1571667   0.258   4.762   3.349  1.3822 -0.7816  0.8256
  854HK4    C2871668   0.280   4.908   3.194 -0.3148 -0.4698  0.0977
  854HK4    C2771669   0.348   5.029   3.165 -0.1338 -0.5138  0.3313
  854HK4    H1471670   0.292   5.102   3.105 -0.4403  0.9333  2.3287
  854HK4    C3271671   0.460   5.069   3.236 -0.1208 -0.2170  0.1426
  854HK4    H1671672   0.517   5.160   3.219  0.8389 -0.6406  0.9939
  854HK4    C3171673   0.507   4.990   3.341  0.3174 -0.3308 -0.1353
  854HK4    C3471674   0.608   5.019   3.441 -0.1858  0.1366  0.2412
  854HK4    C3371675   0.606   4.906   3.532  0.1394 -0.2961 -0.2883
  854HK4    C3571676   0.694   4.906   3.640 -0.7018  0.7205  0.4095
  854HK4    H1771677   0.725   4.817   3.695  1.0172  1.6677  0.9932
  854HK4    C3671678   0.786   5.009   3.656  0.3981 -0.2675  0.5535
  854HK4    H1871679   0.849   5.010   3.745  0.3567 -0.4840  0.5855
  854HK4    C3771680   0.787   5.116   3.566 -0.3340 -0.8540 -0.1652
  854HK4    H1971681   0.876   5.179   3.569  0.7959 -2.3787 -1.0079
  854HK4    C3871682   0.697   5.124   3.460 -0.1695  0.2109 -0.2301
  854HK4    H2071683   0.713   5.191   3.376  0.2349 -0.2239 -0.5054
  854HK4    C1471684   0.191   4.849   3.094 -0.3334 -0.0885 -0.1117
  854HK4     C971685   0.190   4.878   2.957 -0.5292 -0.1188 -0.1168
  854HK4     C871686   0.080   4.860   2.871 -0.4190 -0.3053 -0.2192
  854HK4    C1171687  11.221   4.789   2.925 -0.0831 -0.4180  0.3039
  854HK4     H471688  11.136   4.753   2.867  1.2119 -0.3199 -1.7083
  854HK4    C1271689  11.216   4.747   3.057  0.0458 -0.2507  0.3622
  854HK4     H571690  11.133   4.686   3.096 -1.2776  1.5628  0.4198
  854HK4    C1371691   0.078   4.777   3.138 -0.1474  0.0055  0.5287
  854HK4     H671692   0.076   4.738   3.240  0.4699 -0.5329  0.3375
  854HK4     C771693   0.071   4.920   2.736  0.5171 -0.6526 -0.4387
  854HK4     O271694   0.006   4.860   2.649 -0.0543 -0.1483 -0.3618
  854HK4     C471695   0.171   5.022   2.697  0.4848 -0.5747 -0.3191
  854HK4     C371696   0.152   5.097   2.582  0.0001  0.0248  0.1498
  854HK4     H371697   0.069   5.064   2.517  0.1578 -0.9760  0.4361
  854HK4     C271698   0.235   5.203   2.548  0.1010 -0.1860 -0.2774
  854HK4     H271699   0.195   5.281   2.481  1.6253 -0.0417 -1.0224
  854HK4     C171700   0.344   5.225   2.631 -0.2083 -0.3593  0.1829
  854HK4     H171701   0.412   5.306   2.600  0.3602 -0.6580  0.6329
  854HK4     C671702   0.372   5.149   2.746 -0.2953 -0.1704  0.3258
  854HK4     C571703   0.287   5.042   2.775  0.2567 -0.6847  0.0517
  854HK4    C1071704   0.303   4.951   2.892 -0.1725  0.0294  0.6644
  854HK4     O171705   0.404   4.882   2.888  0.1322  0.4783  0.5798
  854HK4    C1671706   0.453   5.224   2.844  0.4305 -0.1641 -0.2725
  854HK4    C1571707   0.443   5.364   2.861 -0.6344 -0.2108 -0.4795
  854HK4     H771708   0.341   5.401   2.840 -1.4058 -1.7009  0.5649
  854HK4    C2071709   0.537   5.433   2.937 -0.2165 -0.2323 -0.9736
  854HK4     H971710   0.533   5.541   2.953 -0.3183  0.1077 -3.1722
  854HK4    C1971711   0.628   5.361   3.013 -0.3069  0.3799 -0.2864
  854HK4    C1871712   0.656   5.225   2.974  0.5622  0.6410 -0.5859
  854HK4    C1771713   0.564   5.158   2.894  0.4071  0.0539  0.0736
  854HK4     H871714   0.598   5.072   2.835  3.3254  1.5683 -0.5279
  854HK4     N171715   0.760   5.172   3.052 -0.3380  0.0394  0.2233
  854HK4    C2171716   0.803   5.278   3.134 -0.2263 -0.2777  0.5808
  854HK4    C2271717   0.720   5.396   3.119  0.2769 -0.0671 -0.6482
  854HK4    C2671718   0.745   5.515   3.188  0.1136 -0.3207 -0.1532
  854HK4    H1371719   0.678   5.601   3.184 -3.7437 -3.0906  1.4031
  854HK4    C2571720   0.863   5.528   3.260  0.1273  0.6302 -0.3431
  854HK4    H1271721   0.887   5.623   3.308 -0.6977 -0.3222  2.0708
  854HK4    C2471722   0.950   5.420   3.264 -0.1220  0.4195 -0.5141
  854HK4    H1171723   1.039   5.422   3.329 -0.3855  0.4711 -0.1539
  854HK4    C2371724   0.921   5.298   3.206 -0.0395  0.0619  0.1888
  854HK4    H1071725   0.978   5.214   3.245 -1.2463 -0.8087  0.1270
  854HK4    C3971726   0.816   5.043   3.041  0.3045  0.2739  0.6603
  854HK4    C4171727   0.886   4.989   3.150  0.2480 -0.1749  0.4725
  854HK4    H2171728   0.840   5.009   3.248 -2.0968 -0.4774 -0.5193
  854HK4    C4271729   0.985   4.894   3.129  0.9980  0.7298 -0.1411
  854HK4    H2271730   1.022   4.835   3.215 -2.6747  0.7764  1.5692
  854HK4    C4371731   1.011   4.832   3.008  0.6355  0.0519  0.1225
  854HK4    H2371732   1.089   4.755   3.006 -0.2644 -0.9620  2.6460
  854HK4    C4471733   0.950   4.893   2.899  0.6303  0.4642  0.3568
  854HK4    H2471734   1.007   4.887   2.805  0.8649 -2.0041  0.6388
  854HK4    C4571735   0.850   4.988   2.916 -0.1004 -0.3768  0.8328
  854HK4    H2571736   0.791   5.022   2.829 -1.5863  0.9635  2.3459
  855HK4    H2871737   1.342   7.951   5.863  0.0278 -0.3254 -2.8694
  855HK4    C4871738   1.242   7.994   5.861  0.3032  0.5924  0.3262
  855HK4    C4771739   1.234   8.123   5.808  0.6024  0.6955  0.5249
  855HK4    H2771740   1.318   8.193   5.805  0.6748  0.6557  1.5776
  855HK4    C4671741   1.111   8.181   5.778  0.3115 -0.0445  0.2733
  855HK4    H2671742   1.104   8.289   5.759  1.0121 -0.3028 -1.5639
  855HK4    C4071743   0.993   8.106   5.792  0.0015  0.5008  0.5377
  855HK4    C5071744   1.010   7.977   5.845  0.2133  0.3762  0.1722
  855HK4    H3071745   0.919   7.931   5.887  0.9237 -1.8575 -0.6667
  855HK4    C4971746   1.130   7.914   5.878  0.3121  0.5339  0.1122
  855HK4    H2971747   1.130   7.814   5.924  1.9113  1.3248  1.9281
  855HK4     N271748   0.865   8.164   5.787 -0.3531 -0.3407 -0.1777
  855HK4    C3071749   0.842   8.300   5.816  0.2813 -0.3006  0.1242
  855HK4    C2971750   0.914   8.398   5.884  0.1767 -0.1564  0.0339
  855HK4    H1571751   1.009   8.375   5.932  1.5551  2.6619 -1.2480
  855HK4    C2871752   0.876   8.531   5.887 -0.1331 -0.2515  0.1699
  855HK4    C2771753   0.757   8.559   5.818 -0.0753 -0.2496  0.0702
  855HK4    H1471754   0.719   8.662   5.827 -1.9551 -1.0538  1.5820
  855HK4    C3271755   0.671   8.466   5.760 -0.1700 -0.3430  0.3628
  855HK4    H1671756   0.578   8.499   5.714  0.3646  0.0622 -0.4603
  855HK4    C3171757   0.717   8.335   5.753  0.4028 -0.1244 -0.0195
  855HK4    C3471758   0.662   8.216   5.691  0.0636  0.4961 -0.9321
  855HK4    C3371759   0.753   8.108   5.721 -0.6199  0.1360 -0.1313
  855HK4    C3571760   0.721   7.980   5.679  0.6890 -0.0770 -0.5329
  855HK4    H1771761   0.797   7.903   5.671  1.1353  0.1800  1.1267
  855HK4    C3671762   0.605   7.957   5.605  0.1122 -0.3139  0.4296
  855HK4    H1871763   0.569   7.853   5.597  0.1986 -0.3691  0.7422
  855HK4    C3771764   0.519   8.062   5.573 -0.4365 -0.6544  0.7849
  855HK4    H1971765   0.446   8.039   5.496 -0.3740 -1.0975  0.8519
  855HK4    C3871766   0.548   8.191   5.616 -0.0704 -0.3178 -0.4594
  855HK4    H2071767   0.473   8.269   5.602  1.4245  1.2330  0.0792
  855HK4    C1471768   0.935   8.623   5.986 -0.2451  0.2334 -0.2070
  855HK4     C971769   0.858   8.720   6.051 -0.3915 -0.2620  0.3646
  855HK4     C871770   0.902   8.854   6.065  0.0697 -0.3595 -0.1214
  855HK4    C1171771   1.033   8.880   6.026 -0.1839  0.3167 -0.5045
  855HK4     H471772   1.069   8.983   6.039 -2.7915  1.1187  0.7477
  855HK4    C1271773   1.117   8.778   5.986 -0.3243 -0.2857  0.7373
  855HK4     H571774   1.221   8.809   5.964 -0.3270  0.5250  1.8527
  855HK4    C1371775   1.072   8.648   5.965 -0.0230 -0.3568  0.5180
  855HK4     H671776   1.145   8.565   5.961  1.5644  0.9353  1.8681
  855HK4     C771777   0.813   8.960   6.116  0.6223  0.5685 -1.0707
  855HK4     O271778   0.859   9.052   6.184  0.2250 -0.0706  0.0895
  855HK4     C471779   0.668   8.929   6.115  0.7098  0.0909 -0.0717
  855HK4     C371780   0.575   9.032   6.128  0.3603 -0.2259 -0.0623
  855HK4     H371781   0.602   9.138   6.140  0.7769 -0.1790 -1.2879
  855HK4     C271782   0.438   9.009   6.126  0.3129  0.0955 -0.5166
  855HK4     H271783   0.359   9.082   6.149  1.0297  0.4282  0.9127
  855HK4     C171784   0.401   8.879   6.093 -0.0128 -0.0160  0.2789
  855HK4     H171785   0.296   8.857   6.118 -0.3031  3.1986  2.1429
  855HK4     C671786   0.491   8.772   6.077  0.3623  0.4039 -0.4041
  855HK4     C571787   0.626   8.795   6.108  0.1850  0.2210  0.5015
  855HK4    C1071788   0.727   8.685   6.113 -0.3288 -0.2521  0.5032
  855HK4     O171789   0.722   8.588   6.188  1.0354 -0.7387 -0.0275
  855HK4    C1671790   0.452   8.665   5.984 -0.3528  0.1433  0.1922
  855HK4    C1571791   0.372   8.692   5.871  0.1831  0.1206 -0.1960
  855HK4     H771792   0.361   8.797   5.839  3.3169  0.8651  1.0114
  855HK4    C2071793   0.315   8.595   5.790  0.0546 -0.0077  0.0513
  855HK4     H971794   0.274   8.617   5.692 -0.5244 -2.7309 -0.3800
  855HK4    C1971795   0.324   8.461   5.826 -0.0174 -0.1531 -0.4724
  855HK4    C1871796   0.398   8.428   5.946 -0.1916  0.3403 -0.2313
  855HK4    C1771797   0.458   8.531   6.018 -0.6920  0.1852  0.4137
  855HK4     H871798   0.492   8.500   6.117  0.0981 -1.1930 -0.2676
  855HK4     N171799   0.374   8.294   5.980  0.0222  0.2907 -0.2747
  855HK4    C2171800   0.281   8.246   5.885  0.0672  0.0729 -0.2102
  855HK4    C2271801   0.246   8.345   5.785 -0.3340 -0.0421 -0.1835
  855HK4    C2671802   0.133   8.331   5.706 -0.2176  0.3629 -0.4202
  855HK4    H1371803   0.094   8.416   5.650 -0.3749  1.0000  0.6363
  855HK4    C2571804   0.053   8.217   5.712  0.0219  0.2089 -0.1582
  855HK4    H1271805  11.225   8.199   5.636  0.9300 -0.5284 -0.9067
  855HK4    C2471806   0.094   8.122   5.804  0.0241  0.8142  0.4683
  855HK4    H1171807   0.026   8.035   5.807 -0.3722  1.1159  0.3052
  855HK4    C2371808   0.202   8.132   5.891  0.4890 -0.2086  0.0145
  855HK4    H1071809   0.206   8.082   5.988  0.3652  0.5987  0.4395
  855HK4    C3971810   0.452   8.221   6.071 -0.6153 -0.2392 -0.1477
  855HK4    C4171811   0.399   8.123   6.157  0.5689 -0.3074  0.5191
  855HK4    H2171812   0.292   8.123   6.183 -0.0270 -2.9004 -1.6059
  855HK4    C4271813   0.479   8.029   6.221  0.4090 -0.7421  0.0856
  855HK4    H2271814   0.443   7.939   6.273 -0.3378 -1.3332 -1.4046
  855HK4    C4371815   0.617   8.036   6.201  0.3179 -0.0658 -0.2971
  855HK4    H2371816   0.672   7.952   6.242  0.0207 -0.9477 -1.6657
  855HK4    C4471817   0.677   8.135   6.124 -0.0989  0.3009 -0.1546
  855HK4    H2471818   0.784   8.135   6.099  0.2128 -0.0667  1.1472
  855HK4    C4571819   0.592   8.226   6.061 -0.6330 -0.3883 -0.4393
  855HK4    H2571820   0.635   8.298   5.989  0.0967 -0.6933 -0.3194
  856HK4    H2871821   4.856   8.356   9.290 -2.8225 -1.8328 -2.1523
  856HK4    C4871822   4.940   8.287   9.290 -1.0685  0.2376 -0.3942
  856HK4    C4771823   5.022   8.279   9.179  0.0004  0.1927  0.3914
  856HK4    H2771824   5.020   8.358   9.102  2.4144  0.7062  0.7849
  856HK4    C4671825   5.114   8.174   9.176  0.0517  0.2502 -0.0823
  856HK4    H2671826   5.184   8.170   9.091 -1.8749  0.3716 -1.7232
  856HK4    C4071827   5.132   8.088   9.286 -0.2588  0.3061  0.0108
  856HK4    C5071828   5.050   8.102   9.400 -0.1119 -0.2871  0.1907
  856HK4    H3071829   5.064   8.043   9.492 -1.2449 -2.1578 -0.7997
  856HK4    C4971830   4.950   8.198   9.397 -0.5128 -0.7280 -1.2477
  856HK4    H2971831   4.905   8.228   9.492  1.3572  0.5256 -0.7187
  856HK4     N271832   5.196   7.967   9.257  0.1604  0.3979  0.5459
  856HK4    C3071833   5.177   7.885   9.143  0.0584  0.0884  0.7853
  856HK4    C2971834   5.078   7.888   9.046  0.5756 -0.5337  0.2392
  856HK4    H1571835   4.980   7.929   9.073  1.5533  2.7389 -0.9093
  856HK4    C2871836   5.094   7.818   8.927 -0.2700 -0.0684 -0.1588
  856HK4    C2771837   5.208   7.736   8.912  0.1642  0.3738  0.6531
  856HK4    H1471838   5.234   7.676   8.823  0.2753 -1.7609  2.0756
  856HK4    C3271839   5.306   7.725   9.010  0.2341  0.0440  0.5490
  856HK4    H1671840   5.384   7.650   8.998 -0.0943 -0.6653  2.6301
  856HK4    C3171841   5.291   7.798   9.128 -0.0613 -0.0298  0.5591
  856HK4    C3471842   5.383   7.821   9.237  0.2657 -0.0679  0.2936
  856HK4    C3371843   5.311   7.916   9.321  0.1371 -0.0898  0.2049
  856HK4    C3571844   5.372   7.965   9.435  0.3571  0.1201 -0.0013
  856HK4    H1771845   5.325   8.029   9.510  1.7729 -0.3566  1.3324
  856HK4    C3671846   5.508   7.944   9.455  0.2244 -0.6690  0.0955
  856HK4    H1871847   5.558   8.004   9.533 -3.5972  2.1299  0.5535
  856HK4    C3771848   5.585   7.866   9.369 -0.1228 -0.1670 -0.6771
  856HK4    H1971849   5.692   7.861   9.388 -0.4036 -0.2045  1.0081
  856HK4    C3871850   5.518   7.802   9.265  0.5385 -0.2079 -1.0817
  856HK4    H2071851   5.576   7.735   9.202 -1.1460 -3.9989  1.2002
  856HK4    C1471852   4.989   7.812   8.824 -0.5652 -0.7424  0.1845
  856HK4     C971853   4.979   7.717   8.722  0.4490 -0.1665 -0.4527
  856HK4     C871854   4.944   7.756   8.591 -1.0422 -0.2664 -0.0854
  856HK4    C1171855   4.893   7.883   8.568  0.3666  0.4531  0.7617
  856HK4     H471856   4.854   7.911   8.469 -0.0016  0.5997  0.9480
  856HK4    C1271857   4.884   7.973   8.673 -0.1861  0.5423  0.6365
  856HK4     H571858   4.828   8.068   8.672  0.1274  0.7191  0.3044
  856HK4    C1371859   4.933   7.939   8.799 -0.1493 -0.5279  0.3393
  856HK4     H671860   4.928   8.012   8.881 -0.0866  0.7119 -0.7342
  856HK4     C771861   4.958   7.661   8.478  0.1479 -0.0935 -0.0880
  856HK4     O271862   4.916   7.690   8.366  0.0279 -0.3711 -0.1178
  856HK4     C471863   4.998   7.521   8.506 -0.1121 -0.2048 -0.2709
  856HK4     C371864   5.013   7.424   8.408  0.6025 -0.3944  0.0209
  856HK4     H371865   4.999   7.456   8.303 -0.2321  0.4613  0.3945
  856HK4     C271866   5.069   7.298   8.425  0.7575 -0.3099  0.1383
  856HK4     H271867   5.088   7.226   8.344  0.9097 -1.1205  0.8751
  856HK4     C171868   5.133   7.279   8.547 -0.0890 -0.6183  0.5408
  856HK4     H171869   5.213   7.203   8.549  1.0737  0.5601 -0.5115
  856HK4     C671870   5.116   7.370   8.653  0.1721  0.1262 -0.0505
  856HK4     C571871   5.036   7.483   8.636  0.4719  0.3035 -0.2893
  856HK4    C1071872   4.999   7.572   8.750 -0.3400 -0.2140 -0.1437
  856HK4     O171873   4.930   7.526   8.840 -0.4216  0.1590 -0.0104
  856HK4    C1671874   5.220   7.367   8.758  0.0877  0.5024  0.0449
  856HK4    C1571875   5.352   7.328   8.727  0.0864  0.5745 -0.0607
  856HK4     H771876   5.386   7.361   8.627  0.7665 -1.7358 -0.6127
  856HK4    C2071877   5.444   7.278   8.818 -0.2071 -0.2265 -0.2043
  856HK4     H971878   5.546   7.248   8.793 -0.0966  0.4620 -0.5743
  856HK4    C1971879   5.412   7.290   8.953  0.1479 -0.2068 -0.1237
  856HK4    C1871880   5.278   7.329   8.993  0.2626  0.1940 -0.1245
  856HK4    C1771881   5.187   7.360   8.892 -0.0233 -0.3249 -0.0240
  856HK4     H871882   5.080   7.357   8.913 -0.1694 -1.0683 -0.8627
  856HK4     N171883   5.268   7.352   9.132  0.3474 -0.2013 -0.0503
  856HK4    C2171884   5.399   7.339   9.182  0.2961  0.1302  0.1634
  856HK4    C2271885   5.486   7.288   9.078 -0.3372 -0.9310  0.1595
  856HK4    C2671886   5.620   7.266   9.109 -0.2049 -0.0085  0.2489
  856HK4    H1371887   5.675   7.194   9.049 -0.1262 -0.7637  1.2142
  856HK4    C2571888   5.675   7.305   9.230 -0.1078  0.3045  0.1017
  856HK4    H1271889   5.782   7.309   9.250 -0.2503  1.6407  0.6988
  856HK4    C2471890   5.593   7.359   9.328  0.3962  0.4679  0.4383
  856HK4    H1171891   5.626   7.347   9.433  0.1675 -1.6689  0.3038
  856HK4    C2371892   5.457   7.374   9.304  0.3145 -0.4261  0.3118
  856HK4    H1071893   5.398   7.414   9.386  1.6791 -0.2052  1.2004
  856HK4    C3971894   5.157   7.321   9.211  0.3406  0.1610  0.0795
  856HK4    C4171895   5.145   7.375   9.340  0.3175  0.0921  0.1085
  856HK4    H2171896   5.185   7.474   9.367 -0.7347 -0.0859  2.4641
  856HK4    C4271897   5.059   7.317   9.433 -0.5241  0.6478 -0.3237
  856HK4    H2271898   5.053   7.355   9.536 -2.2865  0.7469 -0.4463
  856HK4    C4371899   4.979   7.209   9.399 -0.0356  0.2077 -0.0722
  856HK4    H2371900   4.922   7.151   9.471 -0.9114  0.6414 -0.4107
  856HK4    C4471901   4.984   7.157   9.270 -0.2722 -0.1982  0.0774
  856HK4    H2471902   4.909   7.083   9.241 -0.3359 -0.9324  2.0412
  856HK4    C4571903   5.069   7.216   9.177  0.1657  0.1150  0.6719
  856HK4    H2571904   5.090   7.159   9.085 -0.2138  0.4360  0.3793
  857HK4    H2871905   0.879   1.708   6.259  2.0679 -0.3312 -1.5482
  857HK4    C4871906   0.839   1.608   6.243  0.8581 -0.0114 -0.6078
  857HK4    C4771907   0.905   1.515   6.322 -0.1483 -0.0720  0.1816
  857HK4    H2771908   0.943   1.544   6.421  2.4612 -0.8989 -0.5174
  857HK4    C4671909   0.898   1.385   6.273  0.2203  0.2450 -0.7193
  857HK4    H2671910   0.968   1.315   6.321  0.2153  0.4709 -0.3783
  857HK4    C4071911   0.808   1.353   6.169 -0.3516  0.0329 -0.1617
  857HK4    C5071912   0.730   1.456   6.113  0.3686  0.2552 -0.7671
  857HK4    H3071913   0.637   1.416   6.069  1.1320 -0.3692 -1.8432
  857HK4    C4971914   0.747   1.591   6.140  0.5576  0.1536 -0.3707
  857HK4    H2971915   0.678   1.666   6.098 -0.6192 -0.9903 -0.4723
  857HK4     N271916   0.779   1.218   6.145 -0.2879 -0.0639  0.2937
  857HK4    C3071917   0.711   1.180   6.027  0.2584  0.1527 -0.0939
  857HK4    C2971918   0.706   1.233   5.899 -0.0735  0.0272 -0.1329
  857HK4    H1571919   0.739   1.336   5.889 -2.0400  0.4422 -3.1099
  857HK4    C2871920   0.659   1.172   5.783  0.1824  0.0398 -0.2424
  857HK4    C2771921   0.601   1.046   5.806 -0.1065  0.1760 -0.2241
  857HK4    H1471922   0.567   0.995   5.715 -1.1116  0.2974  0.0725
  857HK4    C3271923   0.604   0.983   5.930  0.5354  0.4703 -0.0859
  857HK4    H1671924   0.555   0.886   5.941  0.4661  0.5620  0.4072
  857HK4    C3171925   0.665   1.043   6.039  0.4092  0.1249  0.1746
  857HK4    C3471926   0.692   0.998   6.174  0.1611 -0.1140  0.1470
  857HK4    C3371927   0.758   1.112   6.235 -0.1513 -0.0428  0.3508
  857HK4    C3571928   0.806   1.093   6.364 -0.6432  0.5548  0.6241
  857HK4    H1771929   0.854   1.177   6.414  3.2282  0.2109 -2.2883
  857HK4    C3671930   0.793   0.972   6.431  0.2370 -0.0476 -0.2901
  857HK4    H1871931   0.839   0.961   6.530 -1.6519 -0.0339  0.6090
  857HK4    C3771932   0.727   0.866   6.370  0.1256 -0.4091  0.4437
  857HK4    H1971933   0.692   0.788   6.437 -1.1280  0.3800  0.7446
  857HK4    C3871934   0.678   0.876   6.240  0.1424  0.0614  0.4709
  857HK4    H2071935   0.622   0.794   6.195  0.3302  0.4891 -0.5775
  857HK4    C1471936   0.618   1.257   5.669 -1.4295  0.0983  0.3656
  857HK4     C971937   0.508   1.248   5.583 -0.6445  0.0092 -0.6343
  857HK4     C871938   0.503   1.317   5.460  0.1771 -0.2354 -0.8085
  857HK4    C1171939   0.615   1.393   5.427  0.1231  0.0633 -0.3055
  857HK4     H471940   0.626   1.438   5.327  1.6254 -1.7126 -0.9514
  857HK4    C1271941   0.720   1.413   5.516 -0.3891 -0.6558  0.4681
  857HK4     H571942   0.809   1.471   5.490 -0.1425 -0.7251  1.1549
  857HK4    C1371943   0.724   1.344   5.637 -0.7883 -0.6192  0.4999
  857HK4     H671944   0.820   1.327   5.688 -0.4576  2.5428  1.0116
  857HK4     C771945   0.393   1.306   5.362 -0.2537 -0.0018 -0.3521
  857HK4     O271946   0.400   1.356   5.250  0.1855 -0.1465 -0.3930
  857HK4     C471947   0.275   1.225   5.400 -0.0482  0.0410  0.3858
  857HK4     C371948   0.160   1.226   5.321  0.3597 -0.1891 -0.2174
  857HK4     H371949   0.164   1.290   5.232 -1.1123  3.2227  2.0582
  857HK4     C271950   0.059   1.132   5.338 -0.1361  0.4810  0.5517
  857HK4     H271951  11.220   1.126   5.271 -0.6565 -0.0456  1.2577
  857HK4     C171952   0.081   1.040   5.439  0.5695 -0.1254 -0.1565
  857HK4     H171953   0.008   0.958   5.446 -0.7829  1.2137  2.4376
  857HK4     C671954   0.185   1.045   5.535  0.0068  0.2901  0.4372
  857HK4     C571955   0.284   1.142   5.514  0.3395 -0.0849  0.2657
  857HK4    C1071956   0.385   1.174   5.619  0.2012 -0.8069  0.6164
  857HK4     O171957   0.338   1.191   5.732 -0.0238 -0.2811  0.4468
  857HK4    C1671958   0.173   0.947   5.644 -0.1527 -0.7111 -0.4730
  857HK4    C1571959   0.046   0.900   5.684 -0.1536 -0.2594  0.0518
  857HK4     H771960  11.202   0.960   5.672 -0.4428 -0.2884  1.9840
  857HK4    C2071961   0.036   0.807   5.786  0.1649 -0.0945  0.2353
  857HK4     H971962  11.188   0.780   5.830 -0.3119  1.0625 -0.0950
  857HK4    C1971963   0.149   0.739   5.833  0.1284 -0.6150 -0.4287
  857HK4    C1871964   0.277   0.775   5.776  0.1070  0.4402  0.1758
  857HK4    C1771965   0.287   0.885   5.692  0.2017  0.2449 -0.0706
  857HK4     H871966   0.389   0.916   5.666  0.7766 -1.1896  0.4436
  857HK4     N171967   0.378   0.697   5.836 -0.1567 -0.1266 -0.1184
  857HK4    C2171968   0.321   0.625   5.943 -0.1352 -0.0419 -0.0490
  857HK4    C2271969   0.177   0.643   5.937 -0.1545 -0.1553  0.0750
  857HK4    C2671970   0.094   0.559   6.010  0.3373 -0.5472  0.1831
  857HK4    H1371971  11.234   0.562   5.993  0.5998  1.0559 -1.3073
  857HK4    C2571972   0.149   0.473   6.105  0.4711 -0.2473  0.3800
  857HK4    H1271973   0.083   0.416   6.171 -0.9762 -0.9962 -1.6418
  857HK4    C2471974   0.287   0.463   6.116  0.5052 -0.0302  0.1334
  857HK4    H1171975   0.331   0.396   6.191 -2.2063 -0.6988  1.1825
  857HK4    C2371976   0.374   0.539   6.038  0.1771  0.4339  0.2103
  857HK4    H1071977   0.481   0.528   6.055  0.2131 -0.4147 -0.5096
  857HK4    C3971978   0.491   0.649   5.769 -0.2124 -0.6801  0.1794
  857HK4    C4171979   0.609   0.631   5.845 -0.2625  0.3387  0.5078
  857HK4    H2171980   0.628   0.676   5.943 -1.6544 -2.1244  1.9835
  857HK4    C4271981   0.704   0.541   5.798 -0.1329  0.7063  0.0699
  857HK4    H2271982   0.803   0.550   5.845  0.3590 -1.5170 -0.5174
  857HK4    C4371983   0.686   0.485   5.672 -0.0858  0.0295  0.3617
  857HK4    H2371984   0.749   0.402   5.640 -0.1345  0.1436 -0.0382
  857HK4    C4471985   0.575   0.504   5.590  0.2610 -0.2006 -0.1587
  857HK4    H2471986   0.556   0.431   5.509  1.1533 -0.2255 -0.3543
  857HK4    C4571987   0.477   0.586   5.644 -0.3096 -1.3069  0.5032
  857HK4    H2571988   0.379   0.598   5.595 -0.5178  1.1429  1.4653
  858HK4    H2871989   2.492   9.467   7.223  0.1171 -0.6709 -2.6103
  858HK4    C4871990   2.474   9.363   7.252 -0.6081  0.1258 -0.0277
  858HK4    C4771991   2.430   9.344   7.382 -0.0068  0.2642  0.1940
  858HK4    H2771992   2.432   9.435   7.444 -0.5266 -0.0603  0.6846
  858HK4    C4671993   2.383   9.223   7.431 -0.0563  0.0902 -0.2880
  858HK4    H2671994   2.332   9.223   7.528  2.6365 -2.7438  1.2150
  858HK4    C4071995   2.374   9.114   7.341 -0.0908  0.0235 -0.2039
  858HK4    C5071996   2.415   9.139   7.209 -0.0173  0.3717 -0.1178
  858HK4    H3071997   2.394   9.058   7.137  1.4372  1.8253 -2.2403
  858HK4    C4971998   2.466   9.259   7.160  0.0335  0.2842 -0.2698
  858HK4    H2971999   2.459   9.292   7.056 -1.9640 -1.0792 -0.5891
  858HK4     N272000   2.348   8.988   7.396 -0.2939  0.2213  0.1627
  858HK4    C3072001   2.391   8.952   7.525 -0.1580 -0.2274 -0.0085
  858HK4    C2972002   2.503   8.984   7.601  0.0401 -0.0774 -0.3640
  858HK4    H1572003   2.582   9.049   7.562  0.9280  0.0366  1.5790
  858HK4    C2872004   2.548   8.909   7.709  0.0136  0.6034  0.1172
  858HK4    C2772005   2.474   8.793   7.738 -0.4540  0.9125  0.2012
  858HK4    H1472006   2.511   8.734   7.824  1.3640  1.4785 -0.1788
  858HK4    C3272007   2.357   8.757   7.672 -0.3260 -0.1413  0.5366
  858HK4    H1672008   2.324   8.655   7.690  2.7211 -1.0614  1.2555
  858HK4    C3172009   2.313   8.837   7.568 -0.1241 -0.0610  0.5160
  858HK4    C3472010   2.213   8.806   7.468  0.2553  0.2150  0.0453
  858HK4    C3372011   2.245   8.899   7.361  0.0090  0.0124 -0.2040
  858HK4    C3572012   2.178   8.881   7.241 -0.5853  0.2010  0.0966
  858HK4    H1772013   2.203   8.950   7.161 -0.5635 -3.4142 -3.1731
  858HK4    C3672014   2.080   8.784   7.227  0.2024 -0.5399 -0.3084
  858HK4    H1872015   2.023   8.778   7.133  0.6246 -0.1946 -0.5872
  858HK4    C3772016   2.045   8.699   7.332 -0.6167  0.6557  0.3998
  858HK4    H1972017   1.976   8.616   7.320  0.9519 -0.7602  0.8569
  858HK4    C3872018   2.113   8.710   7.453  0.1738  0.3063 -0.0037
  858HK4    H2072019   2.099   8.644   7.538  0.2014  1.8624  1.2322
  858HK4    C1472020   2.678   8.945   7.769 -0.0482  0.2810  0.4459
  858HK4     C972021   2.754   8.856   7.846  0.2516  0.1522  0.0014
  858HK4     C872022   2.804   8.895   7.971 -0.2956  0.0296  0.2639
  858HK4    C1172023   2.796   9.027   8.013 -0.4089 -0.0381  0.4581
  858HK4     H472024   2.869   9.059   8.089 -0.2496 -0.3287  0.4275
  858HK4    C1272025   2.734   9.121   7.932  0.6530  0.1839 -0.1126
  858HK4     H572026   2.719   9.222   7.973 -2.3392 -0.1451 -0.2819
  858HK4    C1372027   2.681   9.079   7.810 -0.2372  0.3611  0.2078
  858HK4     H672028   2.616   9.152   7.758 -0.0451 -0.1147 -0.6982
  858HK4     C772029   2.855   8.791   8.064  0.3144  0.3134  0.2518
  858HK4     O272030   2.951   8.827   8.132  0.2085  0.0595  0.5375
  858HK4     C472031   2.841   8.647   8.036  0.5663  0.3653 -0.1433
  858HK4     C372032   2.873   8.559   8.139 -0.9027  0.1165  0.1169
  858HK4     H372033   2.910   8.593   8.237  1.8040  0.7077 -1.0469
  858HK4     C272034   2.879   8.425   8.104  0.1556  0.2898 -0.3764
  858HK4     H272035   2.940   8.359   8.168  2.2359  0.8044 -1.7630
  858HK4     C172036   2.838   8.381   7.979  0.3161 -0.5785 -0.1256
  858HK4     H172037   2.849   8.276   7.948  1.5096 -0.9992  1.6542
  858HK4     C672038   2.783   8.469   7.883  0.0033 -0.1756  0.4278
  858HK4     C572039   2.803   8.605   7.906  0.0367 -0.1340  0.1701
  858HK4    C1072040   2.781   8.714   7.807  0.9258  0.1919  0.3284
  858HK4     O172041   2.827   8.705   7.694  0.2618 -0.4369  0.1044
  858HK4    C1672042   2.656   8.424   7.823  0.4179 -0.7193 -0.0503
  858HK4    C1572043   2.565   8.348   7.898  0.5604 -0.3391  0.5176
  858HK4     H772044   2.592   8.324   8.002  1.4215 -1.7471 -0.0130
  858HK4    C2072045   2.447   8.301   7.840  0.6858  0.0828 -0.0728
  858HK4     H972046   2.370   8.244   7.892  1.3444 -1.1770 -0.4440
  858HK4    C1972047   2.424   8.327   7.705 -0.1597  0.0796  0.0721
  858HK4    C1872048   2.516   8.406   7.627  0.3965 -0.2955  0.3492
  858HK4    C1772049   2.635   8.446   7.688  0.5257 -0.1705  0.0177
  858HK4     H872050   2.715   8.492   7.630  1.3054 -0.4214  0.8956
  858HK4     N172051   2.462   8.434   7.499  0.0437  0.0204  0.5652
  858HK4    C2172052   2.337   8.370   7.502  0.1382 -0.1751  0.3705
  858HK4    C2272053   2.312   8.291   7.621 -0.6156  0.3408  0.5613
  858HK4    C2672054   2.185   8.238   7.644 -0.4786 -0.4591 -0.4681
  858HK4    H1372055   2.182   8.163   7.724  0.5471 -0.4498 -0.4094
  858HK4    C2572056   2.079   8.264   7.558 -0.3728  0.3679 -0.3475
  858HK4    H1272057   1.989   8.206   7.575  1.7886 -2.5491  1.6783
  858HK4    C2472058   2.104   8.338   7.443  0.3370  0.1426 -0.3442
  858HK4    H1172059   2.017   8.353   7.376 -1.5627  2.0280  2.4179
  858HK4    C2372060   2.229   8.393   7.418  0.5318 -0.2089 -0.1407
  858HK4    H1072061   2.220   8.487   7.362  0.3172  0.4154  0.9397
  858HK4    C3972062   2.514   8.525   7.406 -0.0221 -0.2809  0.2334
  858HK4    C4172063   2.454   8.535   7.279 -0.2307  0.1949  0.3693
  858HK4    H2172064   2.388   8.456   7.241  0.5485 -1.9657  3.3264
  858HK4    C4272065   2.484   8.634   7.186 -0.0747  0.2331  0.4616
  858HK4    H2272066   2.439   8.638   7.086 -1.0194 -1.9450  0.7732
  858HK4    C4372067   2.583   8.728   7.211 -0.3149  0.5483  0.2276
  858HK4    H2372068   2.623   8.804   7.144  2.0247 -0.2255  0.6814
  858HK4    C4472069   2.641   8.718   7.337 -0.8821  0.6411  0.4945
  858HK4    H2472070   2.743   8.758   7.337 -0.4047 -0.5897 -0.5161
  858HK4    C4572071   2.604   8.628   7.437 -0.0053 -0.2340  0.0320
  858HK4    H2572072   2.607   8.670   7.539 -1.3087  0.9632 -0.4082
  859HK4    H2872073   2.589  10.472   3.184 -0.0894 -0.2798  0.6871
  859HK4    C4872074   2.696  10.489   3.172 -0.1471 -0.2571  0.1903
  859HK4    C4772075   2.739  10.582   3.078 -0.1444 -0.3091  0.1373
  859HK4    H2772076   2.661  10.647   3.037  1.3228  0.8148 -0.9006
  859HK4    C4672077   2.868  10.575   3.025 -0.2770  0.0662 -0.2306
  859HK4    H2672078   2.892  10.649   2.947  4.5318  3.1403  3.8895
  859HK4    C4072079   2.960  10.476   3.062 -0.0569  0.3738  0.0390
  859HK4    C5072080   2.914  10.393   3.166  0.2579 -0.0859 -0.1847
  859HK4    H3072081   2.976  10.307   3.199 -1.3144 -2.2642 -2.7294
  859HK4    C4972082   2.786  10.394   3.220  0.4436  0.3337  0.2568
  859HK4    H2972083   2.759  10.333   3.307  0.6753 -0.2032 -0.0432
  859HK4     N272084   3.099  10.493   3.053 -0.0063 -0.0931 -0.0952
  859HK4    C3072085   3.157  10.620   3.033  0.0992 -0.1375 -0.0679
  859HK4    C2972086   3.130  10.735   3.106  0.0655  0.1035 -0.4554
  859HK4    H1572087   3.030  10.749   3.146 -0.1400 -0.4697 -0.7620
  859HK4    C2872088   3.220  10.841   3.105  0.1857  0.0076  0.2303
  859HK4    C2772089   3.334  10.836   3.022  0.0438 -0.5672  0.0665
  859HK4    H1472090   3.410  10.915   3.030 -2.2450  1.7520 -0.4829
  859HK4    C3272091   3.354  10.722   2.946  0.4976 -0.2222 -0.3322
  859HK4    H1672092   3.435  10.726   2.872 -1.1332 -0.8791 -2.2008
  859HK4    C3172093   3.276  10.607   2.952  0.2599 -0.0343  0.1534
  859HK4    C3472094   3.290  10.467   2.916  0.4951 -0.0790  0.3990
  859HK4    C3372095   3.180  10.401   2.984  0.4550 -0.0382  0.3718
  859HK4    C3572096   3.167  10.262   2.982  0.1890 -0.0140  0.4546
  859HK4    H1772097   3.103  10.209   3.052 -1.2083 -1.2647 -1.7341
  859HK4    C3672098   3.260  10.189   2.910 -0.0252 -0.1197  0.2826
  859HK4    H1872099   3.260  10.080   2.930  0.7476 -0.1155  0.3025
  859HK4    C3772100   3.363  10.253   2.842  0.2546 -0.1974  0.6281
  859HK4    H1972101   3.425  10.188   2.780 -1.2744 -1.2051  0.1272
  859HK4    C3872102   3.383  10.390   2.846  0.0753 -0.1491 -0.0877
  859HK4    H2072103   3.474  10.430   2.802 -0.4566  1.0313 -0.1549
  859HK4    C1472104   3.177  10.968   3.166 -0.0018 -0.0840  0.2923
  859HK4     C972105   3.224  11.092   3.124 -0.1999 -0.1886 -0.2437
  859HK4     C872106   3.234  11.192   3.223  0.5490 -0.2077 -0.2946
  859HK4    C1172107   3.186  11.172   3.352 -0.3076 -0.3876 -0.6346
  859HK4     H472108   3.194   0.006   3.425  1.7401  0.5974 -1.9180
  859HK4    C1272109   3.125  11.053   3.390 -0.2827 -0.2623 -0.1887
  859HK4     H572110   3.102  11.032   3.496 -1.2030 -0.6678 -0.4634
  859HK4    C1372111   3.122  10.952   3.295  0.4483 -0.8365  0.3951
  859HK4     H672112   3.081  10.853   3.320 -1.3852 -0.9351 -2.7036
  859HK4     C772113   3.297   0.074   3.191 -0.0036  0.1371 -0.0124
  859HK4     O272114   3.364   0.134   3.274 -0.2933  0.3190  0.0909
  859HK4     C472115   3.320   0.103   3.047  0.1681 -0.2669 -0.0692
  859HK4     C372116   3.368   0.228   3.010 -0.3462 -0.0504 -0.0065
  859HK4     H372117   3.378   0.306   3.087 -1.0701 -0.3213  0.3700
  859HK4     C272118   3.395   0.274   2.881 -0.2645 -0.0282  0.0179
  859HK4     H272119   3.401   0.382   2.863 -0.5602 -0.1528 -0.8258
  859HK4     C172120   3.373   0.175   2.786  0.3103 -0.0581 -0.0821
  859HK4     H172121   3.394   0.196   2.680  2.6726  1.1227  0.5706
  859HK4     C672122   3.333   0.043   2.815 -0.2809  0.0893 -0.2201
  859HK4     C572123   3.297   0.008   2.946  0.0604 -0.1206 -0.1826
  859HK4    C1072124   3.233  11.126   2.979  0.0353 -0.1177 -0.2131
  859HK4     O172125   3.138  11.088   2.911 -0.0064 -0.3768 -0.0120
  859HK4    C1672126   3.332  11.200   2.700  0.0305  0.3002 -0.3883
  859HK4    C1572127   3.344  11.060   2.707 -0.2101  0.3112  0.2526
  859HK4     H772128   3.390  11.013   2.796  2.7645  3.0980  0.3011
  859HK4    C2072129   3.310  10.963   2.613 -0.3289  0.2704  0.3391
  859HK4     H972130   3.305  10.857   2.636 -1.8523 -0.5207 -3.3502
  859HK4    C1972131   3.256  11.013   2.495 -0.2902 -0.3341  0.0629
  859HK4    C1872132   3.245  11.156   2.472 -0.0394 -0.3502 -0.1684
  859HK4    C1772133   3.282  11.240   2.577 -0.6765 -0.0233 -0.2059
  859HK4     H872134   3.282   0.098   2.553  1.5576 -0.3437 -1.8729
  859HK4     N172135   3.183  11.183   2.348 -0.1519  0.2458  0.0150
  859HK4    C2172136   3.158  11.058   2.288  0.2131 -0.1873  0.7562
  859HK4    C2272137   3.196  10.951   2.379 -0.2965 -0.7631  0.2956
  859HK4    C2672138   3.186  10.818   2.339  0.0838 -0.7607  0.1925
  859HK4    H1372139   3.217  10.742   2.410 -0.3069 -0.8311  0.2865
  859HK4    C2572140   3.156  10.789   2.207 -0.2544 -0.1527  0.1308
  859HK4    H1272141   3.149  10.682   2.185 -1.4465 -0.3276  1.3090
  859HK4    C2472142   3.119  10.888   2.117 -0.1526 -0.0966  0.1509
  859HK4    H1172143   3.103  10.867   2.010  2.7009  1.0882 -0.5620
  859HK4    C2372144   3.115  11.020   2.162 -0.0167 -0.3399  0.8806
  859HK4    H1072145   3.065  11.096   2.103 -0.2607  0.9685  2.7385
  859HK4    C3972146   3.113   0.051   2.315 -0.1705  0.1397 -0.3211
  859HK4    C4172147   3.088   0.084   2.181 -0.4463 -0.7571 -0.4922
  859HK4    H2172148   3.150   0.044   2.100 -1.7859 -1.7289 -1.0530
  859HK4    C4272149   2.980   0.165   2.144  0.0060  0.1206  0.0883
  859HK4    H2272150   2.968   0.172   2.035  2.0646 -3.1149 -0.4268
  859HK4    C4372151   2.896   0.226   2.236 -0.0415 -0.1057  0.1962
  859HK4    H2372152   2.797   0.258   2.203  0.1359 -2.3084 -2.6566
  859HK4    C4472153   2.921   0.202   2.371 -0.2439 -0.0791  0.2384
  859HK4    H2472154   2.863   0.244   2.455 -2.1322 -0.0941 -1.0084
  859HK4    C4572155   3.027   0.119   2.404 -0.0017  0.0853 -0.1147
  859HK4    H2572156   3.049   0.102   2.510 -2.2371  0.8926  0.5023
  860HK4    H2872157  11.128  10.957   7.768  0.4979 -1.7296 -0.0719
  860HK4    C4872158  11.213  11.025   7.777 -0.2603 -0.8136  0.3257
  860HK4    C4772159  11.208  11.137   7.859  0.0211 -0.2649 -0.3951
  860HK4    H2772160  11.122  11.161   7.924  1.8152 -0.2596  2.0673
  860HK4    C4672161   0.074  11.211   7.888 -0.2791  0.1175 -0.1820
  860HK4    H2672162   0.071   0.024   7.979  0.4964 -1.5723  1.0169
  860HK4    C4072163   0.198  11.191   7.825 -0.2571 -0.0807 -0.0771
  860HK4    C5072164   0.196  11.080   7.738  0.0058 -0.1681  0.0263
  860HK4    H3072165   0.282  11.058   7.673 -0.2105 -0.6648 -0.0907
  860HK4    C4972166   0.088  10.994   7.720  0.0533 -0.3842  0.7705
  860HK4    H2972167   0.104  10.898   7.669 -0.4154 -0.0190 -0.0900
  860HK4     N272168   0.279   0.053   7.795 -0.0902 -0.0330  0.5377
  860HK4    C3072169   0.242   0.188   7.776  0.3650 -0.1002 -0.8798
  860HK4    C2972170   0.122   0.237   7.725 -0.3180 -0.3900  0.4417
  860HK4    H1572171   0.041   0.209   7.792 -0.4936  1.0473  0.8560
  860HK4    C2872172   0.114   0.364   7.668  0.4931 -0.7211 -0.4236
  860HK4    C2772173   0.229   0.444   7.675  0.0293 -0.0764 -0.0671
  860HK4    H1472174   0.229   0.533   7.610 -0.3749  0.1900  0.3010
  860HK4    C3272175   0.353   0.398   7.719  0.1828  0.5371  0.1540
  860HK4    H1672176   0.447   0.453   7.721  1.5400 -1.7011  4.2411
  860HK4    C3172177   0.364   0.265   7.758  0.1424  0.3496 -0.4734
  860HK4    C3472178   0.476   0.174   7.768 -0.2712 -0.1343 -0.2021
  860HK4    C3372179   0.419   0.042   7.791 -0.1229 -0.2200 -0.3225
  860HK4    C3572180   0.507  11.182   7.795  0.0163 -0.0911  0.1079
  860HK4    H1772181   0.487  11.099   7.863  1.4130 -0.2071  0.3869
  860HK4    C3672182   0.639  11.196   7.752  0.2285  0.0207  0.7948
  860HK4    H1872183   0.693  11.113   7.706  0.3077  1.3307 -1.5382
  860HK4    C3772184   0.691   0.076   7.737 -0.2155  0.1336  0.2119
  860HK4    H1972185   0.794   0.080   7.702 -0.2049  0.4595  0.2756
  860HK4    C3872186   0.612   0.191   7.746 -0.1949  0.1292  0.4559
  860HK4    H2072187   0.662   0.287   7.755  0.7422 -0.2095 -0.9439
  860HK4    C1472188   0.002   0.394   7.577  0.1563  0.0948  0.2493
  860HK4     C972189   0.020   0.478   7.466  0.5795 -0.1497  0.1291
  860HK4     C872190  11.167   0.570   7.432  0.2979 -0.3134  0.5022
  860HK4    C1172191  11.042   0.563   7.492  0.0787  0.7821  0.1959
  860HK4     H472192  10.955   0.619   7.455 -0.8919 -1.1175 -0.4455
  860HK4    C1272193  11.019   0.466   7.589 -0.6493 -0.3669 -1.1078
  860HK4     H572194  10.919   0.461   7.635 -0.0694  0.3306  0.2605
  860HK4    C1372195  11.124   0.390   7.639 -0.3778  0.2033 -0.8103
  860HK4     H672196  11.103   0.312   7.715 -1.5461 -0.3099 -1.6496
  860HK4     C772197  11.171   0.653   7.309 -0.4336 -0.2563  0.5134
  860HK4     O272198  11.083   0.734   7.283 -0.5186 -0.5757 -0.2261
  860HK4     C472199   0.024   0.612   7.208 -0.5224  0.1964  0.2414
  860HK4     C372200   0.044   0.687   7.093 -0.3140 -0.0658  0.1061
  860HK4     H372201  11.233   0.779   7.079 -1.6545 -1.1712 -1.6633
  860HK4     C272202   0.122   0.643   6.987 -0.4099 -0.0266  0.0195
  860HK4     H272203   0.175   0.715   6.922  1.1915 -1.7742 -0.6700
  860HK4     C172204   0.176   0.515   6.989  0.1270  0.2037  0.2594
  860HK4     H172205   0.245   0.484   6.910 -0.8784 -0.9813 -0.1562
  860HK4     C672206   0.148   0.432   7.100 -0.2929  0.1339  0.0992
  860HK4     C572207   0.085   0.485   7.213 -0.3411  0.2730  0.0069
  860HK4    C1072208   0.103   0.433   7.351  0.2537  0.0074 -0.1695
  860HK4     O172209   0.215   0.394   7.382  0.3221  0.4311  0.1117
  860HK4    C1672210   0.161   0.287   7.087  0.4565  0.2321 -0.2593
  860HK4    C1572211   0.236   0.229   6.982  0.0495 -0.3345 -0.2453
  860HK4     H772212   0.324   0.285   6.946 -1.2700  2.2342  0.3806
  860HK4    C2072213   0.210   0.100   6.939  0.4827 -0.5406  0.0936
  860HK4     H972214   0.247   0.064   6.843  0.0050 -1.4767  0.2494
  860HK4    C1972215   0.126   0.016   7.011  0.1750 -0.3480 -0.0388
  860HK4    C1872216   0.061   0.068   7.130 -0.4059  0.0637 -0.5268
  860HK4    C1772217   0.073   0.204   7.155  0.6611 -0.0548 -0.3421
  860HK4     H872218  11.239   0.254   7.207  1.5919  2.0644 -0.8899
  860HK4     N172219  11.216  11.221   7.179  0.6633 -0.2483  0.9472
  860HK4    C2172220  11.229  11.107   7.097  0.1344  0.1037  0.3759
  860HK4    C2272221   0.078  11.129   6.991  0.0217 -0.3278  0.1826
  860HK4    C2672222   0.109  11.031   6.897  0.2214  0.0806 -0.1728
  860HK4    H1372223   0.185  11.053   6.822  0.2831 -0.5451 -0.2943
  860HK4    C2572224   0.043  10.909   6.900 -0.0660  0.2362 -0.0591
  860HK4    H1272225   0.058  10.838   6.819 -1.1288 -0.3015  0.2051
  860HK4    C2472226  11.196  10.887   6.999  0.0968  0.3879  0.1318
  860HK4    H1172227  11.124  10.805   6.985  0.2153 -0.0052  1.7714
  860HK4    C2372228  11.158  10.988   7.086 -0.0078  0.1930  0.3110
  860HK4    H1072229  11.068  10.971   7.144  0.4976  2.5396  1.8473
  860HK4    C3972230  11.140  11.231   7.296 -0.5790  0.2055  0.1110
  860HK4    C4172231  11.018  11.163   7.315 -0.2317 -0.5004 -0.1723
  860HK4    H2172232  10.958  11.153   7.223 -1.1280 -1.5362  0.5130
  860HK4    C4272233  10.948  11.151   7.434  0.0123  0.1782  0.0408
  860HK4    H2272234  10.847  11.109   7.432 -0.3641  1.0275  0.8289
  860HK4    C4372235  11.004  11.207   7.548  0.1363  0.2405 -0.0535
  860HK4    H2372236  10.960  11.175   7.643 -1.2251 -0.6986 -0.9980
  860HK4    C4472237  11.124   0.029   7.536  0.2812  0.1480  0.7366
  860HK4    H2472238  11.187   0.061   7.619  2.0298  0.8766 -0.8306
  860HK4    C4572239  11.189   0.044   7.413 -0.3531 -0.3985  0.3313
  860HK4    H2572240   0.045   0.080   7.411 -0.6458  0.3681 -1.6248
  861HK4    H2872241   0.842   7.145   7.755  0.3486  0.1956  0.4414
  861HK4    C4872242   0.750   7.103   7.795 -0.0986  1.0543  0.3243
  861HK4    C4772243   0.764   7.018   7.904  0.4888  0.3804 -0.2700
  861HK4    H2772244   0.862   7.018   7.954  0.1912  1.2530  0.3256
  861HK4    C4672245   0.647   6.960   7.952  0.3354  0.1865 -0.8692
  861HK4    H2672246   0.655   6.894   8.040 -1.0385  2.1897  0.8180
  861HK4    C4072247   0.517   6.991   7.909 -0.0813  0.0919  0.2911
  861HK4    C5072248   0.513   7.067   7.790 -0.1849 -0.5661 -0.1229
  861HK4    H3072249   0.415   7.096   7.751  0.5979  1.2683 -0.7724
  861HK4    C4972250   0.626   7.131   7.739 -0.2453 -0.4898 -0.1590
  861HK4    H2972251   0.621   7.172   7.637  0.6778 -1.2837 -0.5255
  861HK4     N272252   0.398   6.924   7.940 -0.2068  0.3038  0.2702
  861HK4    C3072253   0.390   6.793   7.990 -0.0902  0.1815 -0.0348
  861HK4    C2972254   0.459   6.677   7.956 -0.6529 -0.0880 -0.2604
  861HK4    H1572255   0.545   6.692   7.890 -0.4590 -1.2006 -0.2851
  861HK4    C2872256   0.417   6.549   7.991 -0.3870 -0.1251 -0.0741
  861HK4    C2772257   0.305   6.541   8.076 -0.0912 -0.0689  0.3262
  861HK4    H1472258   0.304   6.442   8.124  3.0277  0.0736  0.7551
  861HK4    C3272259   0.230   6.650   8.118 -0.2402 -0.2766  0.5947
  861HK4    H1672260   0.126   6.643   8.150 -0.3778 -2.5826 -0.3279
  861HK4    C3172261   0.270   6.774   8.069  0.5846 -0.4329  0.8635
  861HK4    C3472262   0.201   6.901   8.062  0.3382 -0.6037  0.0319
  861HK4    C3372263   0.282   6.992   7.984 -0.2115  0.2085  0.4021
  861HK4    C3572264   0.241   7.125   7.980  0.2900  0.3604  0.2268
  861HK4    H1772265   0.292   7.195   7.914 -0.7457 -0.2758 -1.2932
  861HK4    C3672266   0.121   7.166   8.037 -0.2065 -0.3577 -0.3014
  861HK4    H1872267   0.109   7.272   8.063  2.0310 -0.6056  1.9130
  861HK4    C3772268   0.045   7.070   8.104  0.2844 -0.3280  0.3038
  861HK4    H1972269  11.189   7.101   8.102  0.2835 -0.3375 -3.3407
  861HK4    C3872270   0.078   6.936   8.118  0.2065 -0.4185 -0.3731
  861HK4    H2072271   0.011   6.880   8.183 -0.1940 -0.3163 -0.6960
  861HK4    C1472272   0.485   6.440   7.920 -0.0839  0.5327 -0.7996
  861HK4     C972273   0.430   6.313   7.897 -0.0314  0.2515  0.5761
  861HK4     C872274   0.503   6.195   7.876 -0.0511  0.3797 -0.2289
  861HK4    C1172275   0.642   6.207   7.868  0.0701 -0.3829  0.5764
  861HK4     H472276   0.697   6.113   7.859  0.5836  0.0150 -0.5728
  861HK4    C1272277   0.703   6.332   7.879 -0.2885 -0.1133 -0.3931
  861HK4     H572278   0.810   6.341   7.901 -0.4231 -1.0318  0.7030
  861HK4    C1372279   0.625   6.444   7.904  0.0485 -0.0019  0.1697
  861HK4     H672280   0.679   6.540   7.906 -1.6471  0.9553  1.4552
  861HK4     C772281   0.443   6.061   7.862  0.0979  0.2327  0.4770
  861HK4     O272282   0.508   5.963   7.825 -0.3932  0.0868 -0.0091
  861HK4     C472283   0.298   6.047   7.890  0.1080  0.1529  0.4881
  861HK4     C372284   0.245   5.919   7.900  0.5574 -0.0518  0.2704
  861HK4     H372285   0.316   5.838   7.924 -0.3522 -1.5259 -1.9201
  861HK4     C272286   0.111   5.896   7.926  0.5595 -0.2095  0.1477
  861HK4     H272287   0.063   5.799   7.946  0.6773  0.5047  4.4260
  861HK4     C172288   0.033   6.011   7.941  0.3881 -0.3136  0.0617
  861HK4     H172289  11.174   5.992   7.957  0.7281 -1.8960  0.5467
  861HK4     C672290   0.083   6.142   7.928 -0.0494 -0.1143  0.3791
  861HK4     C572291   0.216   6.161   7.888 -0.2350 -0.1086 -0.2369
  861HK4    C1072292   0.283   6.294   7.876  0.1002 -0.2481  0.1157
  861HK4     O172293   0.235   6.366   7.789  0.4384 -0.0149  0.1233
  861HK4    C1672294  11.248   6.238   8.002 -0.0184  0.2497 -0.0520
  861HK4    C1572295  11.187   6.205   8.125 -0.4614  0.1019 -0.3078
  861HK4     H772296  11.236   6.127   8.185 -0.4949 -1.3867 -2.1972
  861HK4    C2072297  11.092   6.289   8.181 -0.3971 -0.1608  0.1974
  861HK4     H972298  11.030   6.259   8.266 -0.3248  1.4079  0.8312
  861HK4    C1972299  11.064   6.413   8.124  0.5377  0.1305  0.3809
  861HK4    C1872300  11.132   6.451   8.002  0.0543 -0.1613  0.0136
  861HK4    C1772301  11.219   6.360   7.942  0.3489  0.2632 -0.1979
  861HK4     H872302   0.008   6.385   7.842 -0.4598  0.8698 -0.3478
  861HK4     N172303  11.126   6.588   7.972  0.7595 -0.0247  0.4960
  861HK4    C2172304  11.038   6.639   8.070  0.0657  0.2099 -0.2405
  861HK4    C2272305  10.997   6.535   8.163 -0.1101  0.0539 -0.4933
  861HK4    C2672306  10.916   6.566   8.271  0.0534 -0.2225 -0.2889
  861HK4    H1372307  10.874   6.488   8.334 -1.3108  1.3944  0.8705
  861HK4    C2572308  10.883   6.700   8.289 -1.0999 -0.5393 -0.0346
  861HK4    H1272309  10.802   6.737   8.353  0.0691 -1.2338  1.9113
  861HK4    C2472310  10.926   6.801   8.204 -0.7628 -0.5215  0.1535
  861HK4    H1172311  10.913   6.908   8.226  0.3979 -0.3671  0.1046
  861HK4    C2372312  10.999   6.770   8.090 -0.0977  0.0628  0.4224
  861HK4    H1072313  11.022   6.851   8.020  0.0816 -0.0327  0.3706
  861HK4    C3972314  11.130   6.631   7.839 -0.5120 -0.0236  0.4486
  861HK4    C4172315  11.089   6.539   7.740  0.1560 -0.0569  0.1994
  861HK4    H2172316  11.016   6.461   7.765  1.1844 -1.7688 -1.9173
  861HK4    C4272317  11.158   6.535   7.619  0.2825 -0.5654  0.2899
  861HK4    H2272318  11.141   6.449   7.553 -0.3583 -0.9103  0.8940
  861HK4    C4372319   0.021   6.615   7.594  0.1703 -0.3569  0.4588
  861HK4    H2372320   0.090   6.585   7.515 -1.9694 -1.0873 -1.1833
  861HK4    C4472321   0.061   6.710   7.688 -0.0578  0.2604 -0.0688
  861HK4    H2472322   0.152   6.770   7.677 -1.7749  3.3214  1.8710
  861HK4    C4572323  11.233   6.721   7.804  0.1115 -0.8362  0.1575
  861HK4    H2572324   0.031   6.777   7.887  0.4676 -1.6237  0.4949
  862HK4    H2872325   3.088   3.444   2.287 -0.6028  1.4461 -3.0794
  862HK4    C4872326   3.000   3.495   2.324 -0.2456  0.0445 -0.1173
  862HK4    C4772327   2.894   3.426   2.381  0.2307 -0.4490  0.1738
  862HK4    H2772328   2.885   3.317   2.375 -3.3623 -0.2263  0.3529
  862HK4    C4672329   2.796   3.491   2.455  0.0869 -0.1732 -0.2583
  862HK4    H2672330   2.725   3.439   2.521  2.2265  0.3455  2.5614
  862HK4    C4072331   2.806   3.631   2.474  0.0249 -0.2214  0.1380
  862HK4    C5072332   2.904   3.703   2.403 -0.5753 -0.2028 -0.6871
  862HK4    H3072333   2.920   3.808   2.430  1.6027 -0.4204 -1.0541
  862HK4    C4972334   3.003   3.634   2.334  0.3917 -0.0127  0.4912
  862HK4    H2972335   3.066   3.688   2.262 -1.8799 -0.2395 -1.7635
  862HK4     N272336   2.725   3.688   2.573  0.1779  0.1723  0.0347
  862HK4    C3072337   2.685   3.641   2.700 -0.0704 -0.2270 -0.1933
  862HK4    C2972338   2.740   3.543   2.781 -0.0950 -0.1228 -0.0512
  862HK4    H1572339   2.815   3.478   2.735 -1.4745 -1.1653 -0.8410
  862HK4    C2872340   2.692   3.509   2.907  0.4545  0.4309  0.3156
  862HK4    C2772341   2.572   3.576   2.939 -0.0719 -0.4122  0.1453
  862HK4    H1472342   2.530   3.557   3.039 -2.8762 -1.3241 -1.1771
  862HK4    C3272343   2.504   3.672   2.865  0.0198 -0.7725 -0.4023
  862HK4    H1672344   2.401   3.698   2.889  0.7215  2.0979 -0.3265
  862HK4    C3172345   2.566   3.711   2.747  0.3528  0.2865  0.1149
  862HK4    C3472346   2.541   3.816   2.650 -0.5310 -0.4223 -0.4306
  862HK4    C3372347   2.641   3.798   2.547  0.5165  0.5251  0.4098
  862HK4    C3572348   2.664   3.905   2.461  0.6269  0.0758 -0.1290
  862HK4    H1772349   2.748   3.902   2.392  2.0316  1.8483  1.4465
  862HK4    C3672350   2.595   4.025   2.479  0.5099 -0.0173  0.0464
  862HK4    H1872351   2.643   4.111   2.430  0.3163 -0.0463 -0.1945
  862HK4    C3772352   2.502   4.041   2.581  0.4633  0.3704 -0.0582
  862HK4    H1972353   2.450   4.136   2.598  1.9663  1.2340 -0.2042
  862HK4    C3872354   2.471   3.935   2.665  0.1349 -0.0027 -0.6458
  862HK4    H2072355   2.403   3.948   2.749  1.5048 -0.3175  0.5416
  862HK4    C1472356   2.752   3.399   2.984  0.0473 -0.1587 -0.1965
  862HK4     C972357   2.694   3.347   3.100  0.1116 -0.1881 -0.1779
  862HK4     C872358   2.767   3.333   3.220 -0.1159  0.1669  0.0014
  862HK4    C1172359   2.906   3.335   3.212 -0.1172  0.3765  0.0155
  862HK4     H472360   2.971   3.328   3.301 -1.6478  0.5224  1.1615
  862HK4    C1272361   2.972   3.351   3.091  0.0724  0.1597  0.0902
  862HK4     H572362   3.081   3.340   3.076  0.4507  3.1106  0.3700
  862HK4    C1372363   2.893   3.398   2.987  0.0436 -0.2936 -0.0946
  862HK4     H672364   2.946   3.432   2.896 -1.3012  1.0431 -0.3912
  862HK4     C772365   2.692   3.344   3.347 -0.0938 -0.4034  0.0650
  862HK4     O272366   2.758   3.341   3.451  0.2760 -0.0181 -0.1574
  862HK4     C472367   2.545   3.361   3.344 -0.0437 -0.0229 -0.3080
  862HK4     C372368   2.475   3.392   3.460  0.0269  0.0737 -0.2898
  862HK4     H372369   2.543   3.401   3.545  1.3221  0.5385 -1.3730
  862HK4     C272370   2.338   3.368   3.474 -0.0434  0.3170 -0.5545
  862HK4     H272371   2.312   3.354   3.580 -1.7765 -0.8472 -1.1253
  862HK4     C172372   2.280   3.303   3.366 -0.1470 -0.4767 -0.0243
  862HK4     H172373   2.189   3.246   3.390 -0.8125  0.2126 -0.8794
  862HK4     C672374   2.347   3.262   3.249 -0.0058 -0.7544  0.1529
  862HK4     C572375   2.481   3.301   3.234 -0.2242 -0.1156 -0.1529
  862HK4    C1072376   2.551   3.308   3.102 -0.0967  0.5778 -0.0525
  862HK4     O172377   2.488   3.285   2.999  0.0894  0.0378 -0.0470
  862HK4    C1672378   2.288   3.156   3.167 -0.8268 -0.2290  0.0610
  862HK4    C1572379   2.148   3.152   3.147 -0.8396 -0.1089  0.1216
  862HK4     H772380   2.093   3.246   3.162  1.3284  1.2764 -0.3543
  862HK4    C2072381   2.087   3.035   3.103 -0.1877 -0.3171 -0.2391
  862HK4     H972382   1.980   3.039   3.081 -0.0513  2.0466 -0.5905
  862HK4    C1972383   2.162   2.920   3.080 -0.2843 -0.4079 -0.0966
  862HK4    C1872384   2.306   2.924   3.097 -0.3272 -0.5052  0.3108
  862HK4    C1772385   2.363   3.041   3.144 -0.6853 -0.0539 -0.3602
  862HK4     H872386   2.468   3.033   3.175  0.0077  1.9284 -2.0520
  862HK4     N172387   2.369   2.809   3.045  0.1470  0.0069 -0.2504
  862HK4    C2172388   2.264   2.724   3.007  0.0736 -0.0199  0.0133
  862HK4    C2272389   2.136   2.789   3.022 -0.0931 -0.1568 -0.7505
  862HK4    C2672390   2.022   2.713   2.999 -0.2856  0.1127 -0.7048
  862HK4    H1372391   1.926   2.761   3.013 -0.5497 -0.7859  0.5832
  862HK4    C2572392   2.034   2.583   2.950  0.0267 -0.1392  0.0354
  862HK4    H1272393   1.941   2.537   2.918  0.1530 -0.5876  0.3030
  862HK4    C2472394   2.158   2.523   2.933  0.1685  0.1377  0.0837
  862HK4    H1172395   2.163   2.422   2.889 -1.0189 -0.6850  1.7677
  862HK4    C2372396   2.275   2.594   2.959  0.2703 -0.0462  0.1249
  862HK4    H1072397   2.371   2.551   2.931  0.3213 -0.6742  1.2251
  862HK4    C3972398   2.502   2.805   3.001  0.2708  0.1660  0.1042
  862HK4    C4172399   2.562   2.921   2.948 -0.3109  0.6188  0.4301
  862HK4    H2172400   2.496   2.991   2.896 -3.8413  0.7489  4.7182
  862HK4    C4272401   2.699   2.931   2.924 -0.2885 -0.5778  0.0125
  862HK4    H2272402   2.749   3.026   2.899  1.4447 -0.5397  3.3407
  862HK4    C4372403   2.784   2.829   2.965  0.5583  0.0676 -0.1175
  862HK4    H2372404   2.889   2.840   2.941  0.7649  1.9315  1.5671
  862HK4    C4472405   2.730   2.717   3.028  0.0152 -0.0806 -0.8266
  862HK4    H2472406   2.798   2.642   3.071  0.8155  1.1730  0.1439
  862HK4    C4572407   2.593   2.704   3.040  0.0824 -0.0600 -0.0362
  862HK4    H2572408   2.546   2.622   3.097 -0.4024  1.3769  1.6917
  863HK4    H2872409   3.630   0.740   8.108 -0.4136  0.1576  1.0925
  863HK4    C4872410   3.599   0.639   8.081 -0.1387  0.5949 -0.8720
  863HK4    C4772411   3.694   0.547   8.037 -0.2211  0.0938 -0.0126
  863HK4    H2772412   3.802   0.567   8.041  0.3541 -2.8230  0.0288
  863HK4    C4672413   3.656   0.418   8.003 -0.6940  0.4768 -0.9830
  863HK4    H2672414   3.737   0.352   7.966 -1.5991 -0.8278 -0.6818
  863HK4    C4072415   3.526   0.368   8.021 -0.3123  0.0535  0.7152
  863HK4    C5072416   3.432   0.463   8.066 -0.5879  0.0741  0.1060
  863HK4    H3072417   3.334   0.424   8.096 -0.1172 -0.6380  0.7196
  863HK4    C4972418   3.467   0.596   8.087  0.1031 -0.0613 -0.1615
  863HK4    H2972419   3.385   0.661   8.123 -0.9181  0.0619 -2.5682
  863HK4     N272420   3.490   0.248   7.959 -0.7286  0.6766 -0.2727
  863HK4    C3072421   3.541   0.203   7.836 -0.3221  0.0770  0.1071
  863HK4    C2972422   3.598   0.276   7.733  0.4728 -0.5413  0.1086
  863HK4    H1572423   3.625   0.381   7.745  0.5111 -0.5446  0.0532
  863HK4    C2872424   3.624   0.209   7.614  0.2317 -0.1157 -0.1842
  863HK4    C2772425   3.612   0.069   7.607  0.1221 -0.1054 -0.1952
  863HK4    H1472426   3.656   0.021   7.519  0.3130 -2.5005  1.1595
  863HK4    C3272427   3.557  11.241   7.709  0.2455  0.2794  0.1607
  863HK4    H1672428   3.548  11.134   7.691 -3.0084  0.2414  1.7450
  863HK4    C3172429   3.505   0.064   7.817 -0.2483  0.0637  0.0676
  863HK4    C3472430   3.420   0.028   7.929  0.5885 -0.6094  0.4954
  863HK4    C3372431   3.418   0.141   8.018 -0.1169  0.1521 -0.4710
  863HK4    C3572432   3.320   0.146   8.117  0.0836  0.4075 -0.2802
  863HK4    H1772433   3.326   0.226   8.190 -0.2340  0.2956 -0.1319
  863HK4    C3672434   3.218   0.052   8.125  0.2773  0.2168 -0.0676
  863HK4    H1872435   3.150   0.049   8.211  2.0349  1.6834  1.4190
  863HK4    C3772436   3.223  11.189   8.041 -0.3492  0.0383  0.1280
  863HK4    H1972437   3.129  11.134   8.033  0.4071 -0.9623 -2.6370
  863HK4    C3872438   3.322  11.178   7.944 -0.0707  0.0316  0.4138
  863HK4    H2072439   3.353  11.082   7.902  0.9164 -0.1514  1.5317
  863HK4    C1472440   3.610   0.281   7.486  0.4803 -0.0872 -0.1955
  863HK4     C972441   3.560   0.223   7.368 -0.0052  0.1020 -0.0833
  863HK4     C872442   3.638   0.240   7.251 -0.2464 -0.2534 -0.2970
  863HK4    C1172443   3.734   0.340   7.244 -0.5398  0.0645  0.1234
  863HK4     H472444   3.791   0.354   7.151 -1.6747 -2.9196 -1.0682
  863HK4    C1272445   3.757   0.425   7.351 -0.2633  0.4212 -0.2170
  863HK4     H572446   3.794   0.528   7.338 -0.7569  1.0586  2.8829
  863HK4    C1372447   3.698   0.391   7.472  0.3008  0.0739 -0.0360
  863HK4     H672448   3.717   0.448   7.564  0.1524 -1.4238  0.9386
  863HK4     C772449   3.596   0.163   7.132  0.0046 -0.5099 -0.2189
  863HK4     O272450   3.671   0.157   7.035  0.2234  0.1757 -0.0986
  863HK4     C472451   3.468   0.088   7.127 -0.4512  0.2855 -0.5259
  863HK4     C372452   3.415   0.036   7.009 -0.4701 -0.5650 -0.1376
  863HK4     H372453   3.457   0.061   6.911  1.2587  0.7541  0.9205
  863HK4     C272454   3.292  11.218   7.005 -0.4030 -0.6869 -0.2063
  863HK4     H272455   3.252  11.189   6.907 -0.1455 -1.5599 -0.0652
  863HK4     C172456   3.225  11.186   7.123 -0.0317 -0.1108  0.1624
  863HK4     H172457   3.167  11.093   7.130  1.1650 -0.7978  1.1591
  863HK4     C672458   3.283  11.228   7.244  0.6649 -0.1899 -0.1408
  863HK4     C572459   3.393   0.068   7.244  0.2232  0.3660 -0.0759
  863HK4    C1072460   3.432   0.147   7.363  0.3809 -0.5890  0.5125
  863HK4     O172461   3.338   0.192   7.427  0.0404 -0.2272 -0.2413
  863HK4    C1672462   3.227  11.153   7.357  0.2880 -0.0122 -0.2110
  863HK4    C1572463   3.304  11.130   7.473  0.4231 -0.1738 -0.3330
  863HK4     H772464   3.407  11.167   7.484 -0.5167  2.0209  1.5687
  863HK4    C2072465   3.248  11.090   7.594 -0.4921 -0.5291 -0.8702
  863HK4     H972466   3.315  11.057   7.673 -1.5736  1.0300  0.7447
  863HK4    C1972467   3.111  11.068   7.605 -0.5023 -0.1321 -0.1580
  863HK4    C1872468   3.027  11.086   7.488 -0.1251  0.0663 -0.3985
  863HK4    C1772469   3.092  11.125   7.371  0.1590  0.6748 -0.0401
  863HK4     H872470   3.022  11.149   7.290 -0.1641  0.6740  0.2358
  863HK4     N172471   2.890  11.067   7.517 -0.0038 -0.1036  0.0521
  863HK4    C2172472   2.887  11.032   7.654  0.0443  0.1858  0.1296
  863HK4    C2272473   3.021  11.023   7.709 -0.0016 -0.4615  0.1372
  863HK4    C2672474   3.039  10.974   7.838 -0.2835 -0.7764  0.0599
  863HK4    H1372475   3.135  10.932   7.867 -0.1729 -1.2063 -0.9135
  863HK4    C2572476   2.925  10.948   7.913 -0.3120 -0.6523  0.0597
  863HK4    H1272477   2.935  10.901   8.011  0.6163 -1.6121 -0.4809
  863HK4    C2472478   2.799  10.980   7.863  0.1890 -0.0481 -0.8306
  863HK4    H1172479   2.715  10.982   7.934  1.4119  0.0324  0.6527
  863HK4    C2372480   2.773  11.019   7.732 -0.4402  0.6626 -0.4923
  863HK4    H1072481   2.677  11.056   7.694 -0.3573  0.1899 -1.1626
  863HK4    C3972482   2.783  11.104   7.436 -0.2989 -0.2493  0.3770
  863HK4    C4172483   2.660  11.034   7.433 -0.1833 -0.4222 -0.4702
  863HK4    H2172484   2.634  10.956   7.506  2.1143 -1.9793 -1.2503
  863HK4    C4272485   2.557  11.053   7.342 -0.5606  0.5963  0.1628
  863HK4    H2272486   2.471  10.985   7.350  0.2519 -0.4044  0.5311
  863HK4    C4372487   2.580  11.145   7.240 -0.2494  0.4582  0.1082
  863HK4    H2372488   2.504  11.159   7.164 -0.9381 -1.2302  0.4666
  863HK4    C4472489   2.692  11.228   7.249 -0.2570  0.4543  0.2374
  863HK4    H2472490   2.699   0.071   7.187  1.8944  0.4432  0.4583
  863HK4    C4572491   2.788  11.214   7.348 -0.5606 -0.1813  0.4434
  863HK4    H2572492   2.858   0.043   7.383 -0.0038 -1.9089  3.2837
  864HK4    H2872493  10.027   2.724   6.611 -1.4067 -1.1468  1.3909
  864HK4    C4872494   9.940   2.767   6.562  0.3540 -0.0449 -0.9051
  864HK4    C4772495   9.951   2.825   6.436  0.1932  0.3198 -0.7541
  864HK4    H2772496  10.044   2.833   6.378 -0.1424 -0.2320 -1.3805
  864HK4    C4672497   9.839   2.873   6.369 -0.2049  0.4069 -0.0359
  864HK4    H2672498   9.850   2.931   6.276  2.3570  1.3503  0.8001
  864HK4    C4072499   9.708   2.862   6.420 -0.1385 -0.1349  0.0193
  864HK4    C5072500   9.706   2.802   6.548  0.1370  0.0275  0.1016
  864HK4    H3072501   9.611   2.795   6.603 -0.0835  0.4428 -0.2226
  864HK4    C4972502   9.814   2.749   6.618  0.6193  0.8849  0.0173
  864HK4    H2972503   9.804   2.713   6.721  0.1088 -0.2310 -0.4050
  864HK4     N272504   9.594   2.921   6.365 -0.2849  0.1722  0.6446
  864HK4    C3072505   9.583   3.043   6.296 -0.4111  0.1528  0.6299
  864HK4    C2972506   9.666   3.155   6.289 -0.2835 -0.0162 -0.7889
  864HK4    H1572507   9.747   3.163   6.361 -1.7019  0.2264  0.8057
  864HK4    C2872508   9.633   3.269   6.217  0.0847  0.4222 -0.2676
  864HK4    C2772509   9.515   3.260   6.140 -0.2502  0.3284  0.2471
  864HK4    H1472510   9.499   3.336   6.062  1.0821 -0.9535 -1.3043
  864HK4    C3272511   9.428   3.152   6.141  0.1639 -0.0092  0.0258
  864HK4    H1672512   9.333   3.145   6.088  0.6425  0.2908 -0.8757
  864HK4    C3172513   9.457   3.045   6.224  0.0663 -0.2291 -0.2250
  864HK4    C3472514   9.386   2.923   6.256  0.4789 -0.5743 -0.6124
  864HK4    C3372515   9.475   2.849   6.343 -0.1543 -0.0047  0.5283
  864HK4    C3572516   9.456   2.712   6.358  0.1847 -0.1868 -0.6825
  864HK4    H1772517   9.519   2.642   6.414 -0.8502  0.3609  1.1855
  864HK4    C3672518   9.349   2.652   6.292 -0.0206 -0.0785 -0.4393
  864HK4    H1872519   9.316   2.549   6.311 -1.0013  0.5218  1.2353
  864HK4    C3772520   9.270   2.726   6.204 -0.2237  0.0659 -0.1393
  864HK4    H1972521   9.204   2.667   6.141 -1.5789  0.5893  0.7855
  864HK4    C3872522   9.286   2.862   6.181 -0.1200  0.0256 -0.3089
  864HK4    H2072523   9.255   2.896   6.082  1.7154 -0.0879 -0.9339
  864HK4    C1472524   9.691   3.400   6.252 -0.0747  0.2711  0.5656
  864HK4     C972525   9.627   3.522   6.226  0.0171  0.1807 -0.0779
  864HK4     C872526   9.691   3.637   6.176  0.1762  0.2610  0.3157
  864HK4    C1172527   9.829   3.630   6.162  0.1081 -0.1238 -0.1706
  864HK4     H472528   9.895   3.712   6.130  1.9083 -1.0499  1.0892
  864HK4    C1272529   9.900   3.516   6.198 -0.0990 -0.1170  0.2706
  864HK4     H572530  10.010   3.520   6.195 -0.0384 -1.9647 -1.6767
  864HK4    C1372531   9.831   3.403   6.241 -0.1222 -0.3043 -0.2507
  864HK4     H672532   9.884   3.319   6.288  0.4425  1.0130  1.5309
  864HK4     C772533   9.614   3.756   6.133 -0.0309  0.0100 -0.0085
  864HK4     O272534   9.670   3.856   6.090 -0.1436  0.0806  0.0080
  864HK4     C472535   9.466   3.749   6.141 -0.0288  0.0984  0.0811
  864HK4     C372536   9.391   3.857   6.095  0.4548  0.2020 -0.4757
  864HK4     H372537   9.451   3.943   6.061  3.8766 -2.2479 -0.9467
  864HK4     C272538   9.256   3.867   6.125  0.6579 -0.1757  0.5975
  864HK4     H272539   9.204   3.963   6.111 -0.8456 -0.9195  0.9931
  864HK4     C172540   9.190   3.765   6.193 -0.1350  0.1786  0.3676
  864HK4     H172541   9.084   3.775   6.218 -0.2226  0.4958 -0.1316
  864HK4     C672542   9.258   3.644   6.220  0.0223  0.1163 -0.2963
  864HK4     C572543   9.396   3.643   6.202  0.0668  0.0168  0.0501
  864HK4    C1072544   9.484   3.538   6.262  0.0628  0.0747  0.1568
  864HK4     O172545   9.454   3.508   6.378 -0.5336  0.0757  0.0056
  864HK4    C1672546   9.171   3.533   6.263 -0.0116  0.4268  0.4426
  864HK4    C1572547   9.203   3.398   6.237 -0.0369  0.4320  0.3909
  864HK4     H772548   9.281   3.379   6.161 -2.1247  0.1805 -1.7685
  864HK4    C2072549   9.114   3.296   6.268  0.5318 -0.0158  0.5522
  864HK4     H972550   9.147   3.193   6.269 -3.2609 -1.3221  1.2948
  864HK4    C1972551   8.990   3.324   6.325  0.5182 -0.0180  0.5257
  864HK4    C1872552   8.959   3.463   6.354 -0.1744 -0.0945  0.1632
  864HK4    C1772553   9.055   3.562   6.334  0.0875 -0.2011  0.8688
  864HK4     H872554   9.046   3.657   6.386 -0.5349  0.0500  0.3093
  864HK4     N172555   8.830   3.475   6.409 -0.2210 -0.1932  0.0747
  864HK4    C2172556   8.787   3.341   6.419  0.1555 -0.3371 -0.1889
  864HK4    C2272557   8.885   3.241   6.380  0.5005 -0.1743  0.2555
  864HK4    C2672558   8.866   3.105   6.358 -0.5022 -0.0247  0.1312
  864HK4    H1372559   8.952   3.039   6.359 -0.5423 -0.1427 -2.0953
  864HK4    C2572560   8.736   3.062   6.379 -0.4092 -0.4439 -0.1587
  864HK4    H1272561   8.715   2.955   6.373 -1.4696 -0.3131  1.0810
  864HK4    C2472562   8.640   3.156   6.413 -0.0003 -0.0291 -0.1468
  864HK4    H1172563   8.539   3.117   6.432  0.6016 -0.8975  1.3653
  864HK4    C2372564   8.659   3.290   6.443  0.1567 -0.1346  0.2217
  864HK4    H1072565   8.575   3.358   6.459 -0.7955 -0.8202 -1.7932
  864HK4    C3972566   8.755   3.592   6.420  0.1912  0.0998 -0.2260
  864HK4    C4172567   8.652   3.601   6.516  0.1926  0.1797 -0.2290
  864HK4    H2172568   8.651   3.546   6.612  0.4783 -1.0578 -0.9287
  864HK4    C4272569   8.552   3.695   6.497  0.2865  0.2979 -0.1368
  864HK4    H2272570   8.465   3.685   6.563  0.9156  1.6320  0.9053
  864HK4    C4372571   8.549   3.792   6.398 -0.4285  0.1540 -0.2580
  864HK4    H2372572   8.457   3.850   6.390 -0.3232  0.9062  3.3679
  864HK4    C4472573   8.652   3.784   6.305 -0.2416 -0.0493 -0.0324
  864HK4    H2472574   8.642   3.832   6.206 -2.2652 -1.6837 -0.6816
  864HK4    C4572575   8.751   3.688   6.316  0.2828  0.5077  0.1446
  864HK4    H2572576   8.847   3.705   6.264  1.8174 -3.3799  1.4536
  865HK4    H2872577   1.983   6.590   2.102  0.2562  1.9426  0.2202
  865HK4    C4872578   2.007   6.561   2.204  0.4008  0.2570 -0.2728
  865HK4    C4772579   2.079   6.445   2.232 -0.4703 -0.2724 -0.2083
  865HK4    H2772580   2.107   6.377   2.150  2.2942 -0.6467  0.9867
  865HK4    C4672581   2.135   6.435   2.359 -0.7786  0.0773 -0.0412
  865HK4    H2672582   2.220   6.364   2.360 -0.6707  0.1336 -2.4253
  865HK4    C4072583   2.112   6.527   2.463  0.2612  0.4643 -0.1542
  865HK4    C5072584   2.043   6.644   2.429  0.0656  0.4635  0.2374
  865HK4    H3072585   2.035   6.727   2.501 -0.6443 -1.4861  2.4570
  865HK4    C4972586   1.995   6.662   2.300  0.0111 -0.2038  0.1658
  865HK4    H2972587   1.921   6.740   2.277  0.2798  0.5055  1.6603
  865HK4     N272588   2.180   6.512   2.585 -0.0676 -0.0061 -0.0278
  865HK4    C3072589   2.287   6.427   2.620 -0.3067 -0.4891 -0.4580
  865HK4    C2972590   2.402   6.408   2.545 -0.0313 -0.0472 -0.1507
  865HK4    H1572591   2.423   6.487   2.474  1.2342  0.0819  0.3457
  865HK4    C2872592   2.498   6.311   2.574 -0.0422 -0.0331 -0.0681
  865HK4    C2772593   2.480   6.250   2.700  0.3754 -0.1170 -0.0472
  865HK4    H1472594   2.557   6.187   2.745  2.1889  2.3162  0.3771
  865HK4    C3272595   2.376   6.273   2.790  0.3357  0.3023 -0.1979
  865HK4    H1672596   2.376   6.222   2.886 -0.7948 -0.7715 -0.7542
  865HK4    C3172597   2.281   6.367   2.753 -0.0250 -0.0865 -0.2625
  865HK4    C3472598   2.171   6.438   2.815  0.2448 -0.1185  0.2539
  865HK4    C3372599   2.112   6.517   2.708  0.4094 -0.0175  0.2386
  865HK4    C3572600   2.011   6.601   2.753  0.3782  0.0614  0.0244
  865HK4    H1772601   1.940   6.632   2.677 -0.1759  0.1198  0.5571
  865HK4    C3672602   1.973   6.618   2.886 -0.3241  0.3972 -0.2185
  865HK4    H1872603   1.896   6.695   2.904 -1.8801 -0.9500 -0.9940
  865HK4    C3772604   2.029   6.541   2.987  0.1003  0.7929 -0.1489
  865HK4    H1972605   2.002   6.554   3.092  0.5661 -0.1324  0.0853
  865HK4    C3872606   2.129   6.454   2.947 -0.2278  0.3126  0.0566
  865HK4    H2072607   2.182   6.405   3.028  0.4746  0.3414 -0.3762
  865HK4    C1472608   2.569   6.250   2.461  0.3647 -0.0631  0.2008
  865HK4     C972609   2.581   6.115   2.426  0.3972 -0.0948  0.3320
  865HK4     C872610   2.675   6.066   2.333  0.5692 -0.0463  0.4766
  865HK4    C1172611   2.759   6.155   2.268  0.3718 -0.1896  0.0175
  865HK4     H472612   2.857   6.120   2.234  0.8774  1.9200 -0.7544
  865HK4    C1272613   2.748   6.289   2.304 -0.2060 -0.2789  0.1844
  865HK4     H572614   2.831   6.352   2.268  0.3976 -0.8624  0.5572
  865HK4    C1372615   2.659   6.338   2.399 -0.3199  0.3362 -0.2345
  865HK4     H672616   2.663   6.443   2.432 -0.8662  0.1513  0.4259
  865HK4     C772617   2.691   5.919   2.316  0.0731 -0.0923  0.3848
  865HK4     O272618   2.767   5.878   2.229 -0.0567 -0.1967  0.3219
  865HK4     C472619   2.605   5.831   2.397 -0.1900  0.2242  0.4506
  865HK4     C372620   2.628   5.694   2.393 -0.1237  0.2523 -0.0568
  865HK4     H372621   2.676   5.654   2.302 -0.0841 -0.2851  0.2011
  865HK4     C272622   2.570   5.610   2.488  0.1596  0.3312  0.1835
  865HK4     H272623   2.605   5.507   2.499  3.0874  1.1947 -0.4523
  865HK4     C172624   2.483   5.659   2.584 -0.2161  0.1612 -0.0707
  865HK4     H172625   2.417   5.585   2.633 -1.6850 -0.3147 -2.6835
  865HK4     C672626   2.447   5.795   2.586 -0.3328  0.1304 -0.1649
  865HK4     C572627   2.512   5.878   2.492 -0.4312  0.4937  0.0830
  865HK4    C1072628   2.478   6.022   2.481  0.0789  0.6949  1.0756
  865HK4     O172629   2.362   6.049   2.449  0.0812 -0.2039  0.2907
  865HK4    C1672630   2.367   5.837   2.701 -0.2167 -0.0383 -0.0229
  865HK4    C1572631   2.406   5.791   2.828 -0.1532  0.0770 -0.0002
  865HK4     H772632   2.511   5.762   2.845 -0.0580  1.1184  1.3127
  865HK4    C2072633   2.318   5.794   2.936 -0.1251 -0.1400  0.0304
  865HK4     H972634   2.347   5.763   3.036 -0.0017 -0.5862 -0.1428
  865HK4    C1972635   2.190   5.847   2.920  0.2016  0.6760  0.1073
  865HK4    C1872636   2.143   5.879   2.787 -0.2024  0.3217  0.1648
  865HK4    C1772637   2.236   5.882   2.684 -0.3627 -0.4533 -0.0034
  865HK4     H872638   2.203   5.933   2.593 -2.4329 -0.5863  0.6479
  865HK4     N172639   2.009   5.924   2.782 -0.3542 -0.1391  0.0406
  865HK4    C2172640   1.967   5.907   2.916 -0.4909 -0.7974 -0.0888
  865HK4    C2272641   2.075   5.868   3.005 -0.2717 -0.5384 -0.2394
  865HK4    C2672642   2.068   5.875   3.143 -0.2533 -0.0195 -0.2649
  865HK4    H1372643   2.152   5.867   3.212 -0.5560 -0.9420  0.0080
  865HK4    C2572644   1.946   5.918   3.194  0.0046  0.1582  0.2071
  865HK4    H1272645   1.930   5.924   3.302  3.1369  0.4805  0.6797
  865HK4    C2472646   1.838   5.943   3.110 -0.0721 -0.9729 -0.0504
  865HK4    H1172647   1.742   5.950   3.163  1.3146 -0.2409  2.4559
  865HK4    C2372648   1.847   5.949   2.971  0.0063  0.5140  0.0037
  865HK4    H1072649   1.779   6.017   2.920  1.7019  2.0645 -0.2071
  865HK4    C3972650   1.944   6.001   2.685  0.2084  0.2738 -0.0122
  865HK4    C4172651   1.805   5.989   2.665  0.1567  0.7686  0.0386
  865HK4    H2172652   1.773   5.886   2.684  3.5201 -0.1829  0.8728
  865HK4    C4272653   1.737   6.086   2.592 -0.2163 -0.1388 -0.8224
  865HK4    H2272654   1.628   6.089   2.603 -0.3859  1.9365 -2.6568
  865HK4    C4372655   1.800   6.198   2.538 -0.0738  0.0777 -0.2165
  865HK4    H2372656   1.745   6.255   2.462 -1.9480 -0.2489  0.8532
  865HK4    C4472657   1.936   6.211   2.559 -0.1725 -0.3850  0.6997
  865HK4    H2472658   1.984   6.308   2.540 -0.4663 -0.1115  1.3239
  865HK4    C4572659   2.008   6.113   2.628  0.8012  0.2519  0.5991
  865HK4    H2572660   2.107   6.146   2.662  0.3940  2.1128  0.0560
  866HK4    H2872661   6.299   2.828   9.365 -0.0903 -0.5970  0.4459
  866HK4    C4872662   6.328   2.881   9.275 -0.5448 -0.4800  0.3703
  866HK4    C4772663   6.317   2.832   9.145 -0.2825  0.0882  0.1341
  866HK4    H2772664   6.308   2.723   9.134 -1.3579  0.2762 -0.9388
  866HK4    C4672665   6.363   2.907   9.036 -0.1584  0.2056  0.2661
  866HK4    H2672666   6.341   2.856   8.941  2.3573 -1.0919  0.3514
  866HK4    C4072667   6.428   3.031   9.046  0.2220  0.0137  0.1599
  866HK4    C5072668   6.425   3.081   9.178 -0.6111  0.7301 -0.1205
  866HK4    H3072669   6.443   3.189   9.192 -0.0625  0.7944 -1.2305
  866HK4    C4972670   6.379   3.009   9.288 -0.3570 -0.4350 -0.7646
  866HK4    H2972671   6.404   3.047   9.388  2.1915  2.2926 -2.3392
  866HK4     N272672   6.533   3.059   8.958  0.6031  0.4120  0.7331
  866HK4    C3072673   6.633   2.972   8.907 -0.2587  0.0478 -0.3709
  866HK4    C2972674   6.637   2.835   8.886 -0.5868 -0.0466  0.1603
  866HK4    H1572675   6.552   2.775   8.919  0.8915 -0.4776  3.3493
  866HK4    C2872676   6.746   2.766   8.834 -0.4556  0.0851  0.2579
  866HK4    C2772677   6.856   2.843   8.793  0.0680 -0.8005 -0.0122
  866HK4    H1472678   6.947   2.795   8.753 -0.0846 -0.3882 -0.8619
  866HK4    C3272679   6.856   2.982   8.797 -0.6293 -0.8087  0.2601
  866HK4    H1672680   6.903   3.039   8.717 -2.5763 -0.2387 -0.5281
  866HK4    C3172681   6.748   3.045   8.857 -0.1639  0.1891  0.0561
  866HK4    C3472682   6.714   3.185   8.873 -0.2908  0.1206  0.3975
  866HK4    C3372683   6.582   3.189   8.932 -0.4668  0.6694 -0.0238
  866HK4    C3572684   6.517   3.309   8.957 -0.4450  0.5045  0.8425
  866HK4    H1772685   6.429   3.299   9.021 -1.2734 -0.7813 -0.4616
  866HK4    C3672686   6.593   3.422   8.932 -0.1689  0.0797 -0.2388
  866HK4    H1872687   6.543   3.519   8.940  0.7411  0.4025  1.8047
  866HK4    C3772688   6.715   3.417   8.865  0.5052 -0.3911  1.0009
  866HK4    H1972689   6.767   3.509   8.837 -0.5186 -0.2948 -0.6745
  866HK4    C3872690   6.779   3.299   8.828 -0.2362 -0.3074 -0.6138
  866HK4    H2072691   6.842   3.292   8.739  1.2070  0.0744  0.3565
  866HK4    C1472692   6.767   2.622   8.854  0.5654  0.1521 -0.2897
  866HK4     C972693   6.893   2.565   8.874  0.6017  0.1491 -0.5412
  866HK4     C872694   6.937   2.456   8.796 -0.0055 -0.3489 -0.1873
  866HK4    C1172695   6.833   2.385   8.737  0.1904 -0.2338 -0.6699
  866HK4     H472696   6.854   2.282   8.702 -2.1303 -1.0527  0.2263
  866HK4    C1272697   6.698   2.419   8.731  0.2607 -0.0020 -1.0056
  866HK4     H572698   6.627   2.366   8.666 -0.7123  1.7275 -1.3794
  866HK4    C1372699   6.670   2.540   8.793  0.8200 -0.3687 -0.0132
  866HK4     H672700   6.563   2.550   8.820  1.2844 -1.4047  2.2971
  866HK4     C772701   7.079   2.417   8.783  0.0300 -0.7211  1.2309
  866HK4     O272702   7.107   2.336   8.695  0.2427  0.2310  0.4176
  866HK4     C472703   7.177   2.491   8.866  0.0348  0.5312  0.1212
  866HK4     C372704   7.310   2.454   8.856 -0.3331 -0.6848 -0.3524
  866HK4     H372705   7.335   2.353   8.818 -1.0563 -0.8285 -0.4548
  866HK4     C272706   7.404   2.550   8.889 -0.9997 -0.1653  0.0458
  866HK4     H272707   7.507   2.524   8.857 -0.5683  1.3332  0.1806
  866HK4     C172708   7.363   2.667   8.951 -0.5099  0.0892 -0.1099
  866HK4     H172709   7.442   2.743   8.963 -0.7915  0.4343 -0.4362
  866HK4     C672710   7.230   2.704   8.979 -0.1760  0.2480  1.3066
  866HK4     C572711   7.139   2.606   8.937  0.0470  0.5471  0.1002
  866HK4    C1072712   6.994   2.627   8.965 -0.0018  0.4331 -0.0638
  866HK4     O172713   6.956   2.661   9.077  0.4303  0.2023  0.1529
  866HK4    C1672714   7.199   2.847   8.970 -0.6555  0.0669  0.0024
  866HK4    C1572715   7.254   2.940   8.879 -0.7786  0.0004 -0.1393
  866HK4     H772716   7.310   2.890   8.799 -2.6997 -0.9562 -0.9254
  866HK4    C2072717   7.243   3.079   8.874 -0.3206  0.0466  0.1113
  866HK4     H972718   7.289   3.151   8.808  0.8944  0.5952  1.5307
  866HK4    C1972719   7.169   3.134   8.979 -0.3510  0.1387  0.0401
  866HK4    C1872720   7.116   3.048   9.083  0.1635  0.1095  0.2826
  866HK4    C1772721   7.125   2.910   9.069 -0.8312  0.0796 -0.1379
  866HK4     H872722   7.103   2.849   9.157  1.2831  1.6223  1.4911
  866HK4     N172723   7.065   3.130   9.185  0.0841  0.0374  0.3006
  866HK4    C2172724   7.071   3.263   9.138  0.4140 -0.0748  0.0247
  866HK4    C2272725   7.139   3.272   9.010 -0.2467  0.2399 -0.3067
  866HK4    C2672726   7.118   3.386   8.933  0.2377  0.4256 -0.1648
  866HK4    H1372727   7.183   3.409   8.849 -0.6613 -1.0109 -1.2905
  866HK4    C2572728   7.035   3.488   8.979  0.1260  0.1617  0.2227
  866HK4    H1272729   7.026   3.579   8.921  1.8271 -0.7299 -1.5150
  866HK4    C2472730   6.980   3.481   9.107  0.0623 -0.0596  0.1804
  866HK4    H1172731   6.906   3.560   9.125  0.3585  0.1143  0.6256
  866HK4    C2372732   6.999   3.370   9.188 -0.0704 -0.3216 -0.1407
  866HK4    H1072733   6.936   3.355   9.276  0.8369  0.4912  0.6609
  866HK4    C3972734   6.971   3.067   9.268 -0.3300 -0.2272 -0.3643
  866HK4    C4172735   6.968   3.109   9.403  0.1495 -0.2444 -0.3450
  866HK4    H2172736   7.056   3.162   9.444 -0.5760  0.2510  0.5980
  866HK4    C4272737   6.853   3.100   9.480 -0.0021 -0.1125 -0.5546
  866HK4    H2272738   6.858   3.117   9.589 -2.5307  1.8058 -0.6918
  866HK4    C4372739   6.731   3.060   9.429 -0.2925  0.1027 -0.0337
  866HK4    H2372740   6.639   3.087   9.480  0.4277  0.2252  1.2081
  866HK4    C4472741   6.737   3.014   9.298  0.4596  0.4583 -0.1314
  866HK4    H2472742   6.649   2.964   9.254 -0.0843  0.7749  0.6069
  866HK4    C4572743   6.851   3.012   9.219  0.0039 -0.5796 -0.7799
  866HK4    H2572744   6.848   2.988   9.112  1.6753  0.7467 -1.1495
  867HK4    H2872745   8.577   9.963  11.038 -1.7919  1.0035  1.1259
  867HK4    C4872746   8.524   9.872  11.011  0.6011 -0.3384  0.8659
  867HK4    C4772747   8.574   9.769  10.931 -0.3294  0.0657 -0.2373
  867HK4    H2772748   8.681   9.783  10.911 -0.8549  2.2886 -1.6815
  867HK4    C4672749   8.503   9.655  10.897 -0.5398  0.3719 -0.8485
  867HK4    H2672750   8.558   9.579  10.839  0.3249  1.6107 -1.6696
  867HK4    C4072751   8.377   9.627  10.953 -0.1553  0.3330 -0.0071
  867HK4    C5072752   8.332   9.733  11.036  0.2109  0.3136  0.2157
  867HK4    H3072753   8.240   9.716  11.094  0.2766 -0.5276  0.0850
  867HK4    C4972754   8.398   9.852  11.064  0.0443  0.4892 -0.1281
  867HK4    H2972755   8.369   9.914  11.151  1.2998 -1.1355  1.4930
  867HK4     N272756   8.288   9.531  10.906 -0.0913  0.3296 -0.1222
  867HK4    C3072757   8.290   9.464  10.781  0.0753  0.1131 -0.0045
  867HK4    C2972758   8.350   9.503  10.662 -0.3425  0.1161 -0.2116
  867HK4    H1572759   8.399   9.601  10.656  0.2151 -0.1613 -0.2413
  867HK4    C2872760   8.332   9.433  10.543  0.3955 -0.4933  0.0302
  867HK4    C2772761   8.242   9.325  10.545 -0.1732 -0.0220  0.5044
  867HK4    H1472762   8.234   9.252  10.463  0.8104 -0.7883  1.0714
  867HK4    C3272763   8.176   9.281  10.659  0.2245 -0.3409  0.6156
  867HK4    H1672764   8.100   9.204  10.652 -3.1589  2.7395  1.5328
  867HK4    C3172765   8.197   9.353  10.776  0.1700  0.0141  0.4066
  867HK4    C3472766   8.152   9.339  10.914 -0.5223 -0.0962  0.1712
  867HK4    C3372767   8.207   9.450  10.989  0.3292 -0.2308 -0.2558
  867HK4    C3572768   8.195   9.450  11.127  0.4828 -0.9161 -0.2380
  867HK4    H1772769   8.263   9.512  11.187 -0.9676  0.1623  0.3105
  867HK4    C3672770   8.127   9.349  11.193  0.1252 -0.1545  0.5705
  867HK4    H1872771   8.132   9.348   0.055  1.9757 -0.2020  0.4991
  867HK4    C3772772   8.071   9.243  11.122  0.5430  0.0252 -0.0270
  867HK4    H1972773   8.018   9.165  11.177  1.4525  0.6324  1.7500
  867HK4    C3872774   8.090   9.237  10.985 -0.2764 -0.4562 -0.1276
  867HK4    H2072775   8.081   9.142  10.932  0.4059 -0.1640 -0.7758
  867HK4    C1472776   8.390   9.485  10.418 -0.0294 -0.3107 -0.0880
  867HK4     C972777   8.345   9.451  10.290 -0.5140  0.1791 -0.0467
  867HK4     C872778   8.436   9.450  10.183  0.0458 -0.1627  0.4332
  867HK4    C1172779   8.568   9.487  10.201 -0.0075 -0.0344  0.5584
  867HK4     H472780   8.646   9.466  10.126 -0.3859  1.1453 -0.1857
  867HK4    C1272781   8.611   9.536  10.324  0.1399  0.0073  0.4902
  867HK4     H572782   8.717   9.551  10.348 -0.1250 -2.3164  3.3746
  867HK4    C1372783   8.520   9.539  10.429  0.0458 -0.5786  0.4222
  867HK4     H672784   8.543   9.608  10.511 -0.9734  0.6250 -0.2856
  867HK4     C772785   8.389   9.418  10.046  0.1364 -0.2917  0.4324
  867HK4     O272786   8.471   9.407   9.955  0.2641 -0.0172  0.5154
  867HK4     C472787   8.247   9.385  10.024  0.2500 -0.4794 -0.0498
  867HK4     C372788   8.210   9.369   9.891 -0.5025  0.1124  0.0754
  867HK4     H372789   8.282   9.329   9.818 -1.1592  0.5360 -0.8017
  867HK4     C272790   8.076   9.344   9.864 -0.4568  0.4767 -0.4910
  867HK4     H272791   8.048   9.328   9.759 -0.1609 -2.8904 -0.0843
  867HK4     C172792   7.994   9.317   9.973 -0.4301  0.0405 -0.5818
  867HK4     H172793   7.887   9.298   9.952 -0.7807  2.7958 -1.4383
  867HK4     C672794   8.026   9.321  10.110 -0.2550  0.3297 -0.6303
  867HK4     C572795   8.156   9.367  10.131  0.0036 -0.5600 -0.2776
  867HK4    C1072796   8.201   9.425  10.261 -0.3977 -0.1947 -0.2988
  867HK4     O172797   8.124   9.502  10.318 -0.1541 -0.0346 -0.1887
  867HK4    C1672798   7.973   9.207  10.185  1.1693  0.3433  0.4043
  867HK4    C1572799   7.936   9.082  10.130  0.3626  0.6614  0.2338
  867HK4     H772800   7.953   9.069  10.022 -0.2275 -2.2494  0.4520
  867HK4    C2072801   7.898   8.979  10.215 -0.5189  0.6206 -0.2083
  867HK4     H972802   7.883   8.879  10.173  0.0414  0.2772  0.3988
  867HK4    C1972803   7.881   8.993  10.352 -0.7126  0.3108 -0.1964
  867HK4    C1872804   7.911   9.120  10.415  0.6678 -0.2331  0.2483
  867HK4    C1772805   7.956   9.215  10.323  0.0567  0.1045  0.2879
  867HK4     H872806   7.968   9.314  10.365  0.5661  0.1648  0.0088
  867HK4     N172807   7.873   9.120  10.550  0.0181  0.1809  0.0674
  867HK4    C2172808   7.806   8.996  10.566  0.3891 -0.0145  0.1243
  867HK4    C2272809   7.815   8.909  10.450  0.0079  0.0403  0.0576
  867HK4    C2672810   7.739   8.794  10.436  0.1931 -0.0644 -0.0804
  867HK4    H1372811   7.739   8.759  10.332  2.4513  1.0791 -0.4926
  867HK4    C2572812   7.648   8.758  10.534 -0.0515 -0.0732 -0.3107
  867HK4    H1272813   7.570   8.681  10.529  1.2973 -1.5598  0.9971
  867HK4    C2472814   7.652   8.835  10.650  0.2284  0.0986 -0.4342
  867HK4    H1172815   7.605   8.800  10.743  0.2898  1.1232 -0.0139
  867HK4    C2372816   7.723   8.954  10.668  0.2195  0.0341  0.0063
  867HK4    H1072817   7.718   9.000  10.767  0.4581 -0.6363  0.3383
  867HK4    C3972818   7.826   9.231  10.622 -0.1379 -0.0057  0.2501
  867HK4    C4172819   7.835   9.227  10.762 -0.3249  0.3077  0.2724
  867HK4    H2172820   7.898   9.154  10.813  1.0232  0.8025 -0.6701
  867HK4    C4272821   7.772   9.326  10.839 -0.4182  0.4009  0.0724
  867HK4    H2272822   7.792   9.323  10.947  0.0116 -0.1984 -0.0186
  867HK4    C4372823   7.706   9.431  10.777 -0.3504  0.3878 -0.0319
  867HK4    H2372824   7.657   9.503  10.843 -0.7023  0.2548 -0.1462
  867HK4    C4472825   7.703   9.440  10.639 -0.6995 -0.0180 -0.0529
  867HK4    H2472826   7.663   9.532  10.594 -1.8208  0.7136  2.3967
  867HK4    C4572827   7.764   9.342  10.561  0.2898  0.2812  0.3408
  867HK4    H2572828   7.742   9.337  10.453  0.3258  0.1466  0.3392
  868HK4    H2872829   4.887   9.731   9.059  1.6222 -2.3363  0.3097
  868HK4    C4872830   4.892   9.738   9.168 -0.5133 -0.1392  0.3083
  868HK4    C4772831   4.899   9.625   9.248  0.6035 -0.0628  0.3236
  868HK4    H2772832   4.893   9.523   9.206 -1.8493 -0.2701  1.1168
  868HK4    C4672833   4.921   9.648   9.383  0.0840 -0.6020  0.4988
  868HK4    H2672834   4.901   9.560   9.446  2.7911  0.1427  2.5358
  868HK4    C4072835   4.939   9.774   9.444 -1.1504  0.1271 -0.6356
  868HK4    C5072836   4.941   9.884   9.355 -0.2100  0.5094 -0.1523
  868HK4    H3072837   4.920   9.983   9.399 -0.0903  0.2616  0.4643
  868HK4    C4972838   4.924   9.863   9.218 -0.5877  0.0211 -0.0305
  868HK4    H2972839   4.919   9.951   9.152 -2.1991  0.1867  0.2840
  868HK4     N272840   4.936   9.795   9.582  0.3216  0.1326 -0.5991
  868HK4    C3072841   4.853   9.721   9.669  0.3682  0.3120 -0.4020
  868HK4    C2972842   4.742   9.643   9.638  0.6355 -0.1661 -0.1541
  868HK4    H1572843   4.718   9.624   9.534  0.0521 -1.0580  0.1363
  868HK4    C2872844   4.662   9.592   9.740  0.4996 -0.2372 -0.2936
  868HK4    C2772845   4.693   9.627   9.873 -0.6190  0.3608 -0.1864
  868HK4    H1472846   4.612   9.640   9.947 -0.7669  3.2640 -0.7785
  868HK4    C3272847   4.815   9.684   9.909 -0.0251 -0.7770 -0.3710
  868HK4    H1672848   4.860   9.674  10.008 -0.5915 -2.3203 -0.2577
  868HK4    C3172849   4.898   9.729   9.807 -0.2096 -0.0327 -0.1964
  868HK4    C3472850   5.024   9.800   9.796  0.0980 -0.5438 -0.0195
  868HK4    C3372851   5.039   9.850   9.661 -0.4332  0.3442  0.2443
  868HK4    C3572852   5.157   9.911   9.620 -0.3782  0.4145  0.5052
  868HK4    H1772853   5.169   9.955   9.520  0.4989 -1.2778 -0.1475
  868HK4    C3672854   5.255   9.926   9.717 -0.1571 -0.6682  0.4572
  868HK4    H1872855   5.353   9.966   9.685 -1.1960 -0.1955 -2.2994
  868HK4    C3772856   5.240   9.887   9.849  0.1618  0.3675  0.8009
  868HK4    H1972857   5.315   9.926   9.919 -0.2144  2.5205  0.0561
  868HK4    C3872858   5.124   9.823   9.889 -0.0881  0.2974 -0.0290
  868HK4    H2072859   5.129   9.770   9.984 -0.3752 -2.1033 -1.3366
  868HK4    C1472860   4.533   9.528   9.714 -0.0011  0.5115  0.3193
  868HK4     C972861   4.408   9.540   9.776 -0.3016  0.1844 -0.2186
  868HK4     C872862   4.310   9.439   9.769 -0.2179  0.1142 -0.3377
  868HK4    C1172863   4.333   9.326   9.691 -0.3359  0.0457 -0.2754
  868HK4     H472864   4.251   9.259   9.662  0.3331 -1.1963  0.6609
  868HK4    C1272865   4.452   9.308   9.621  0.2195  0.3003  0.5920
  868HK4     H572866   4.477   9.224   9.554  2.5392  0.8592  0.7174
  868HK4    C1372867   4.545   9.410   9.638  0.1598  0.3586  0.5826
  868HK4     H672868   4.642   9.381   9.595 -0.9803 -0.1750 -1.6675
  868HK4     C772869   4.189   9.459   9.851 -0.0795 -0.4267  0.0011
  868HK4     O272870   4.098   9.376   9.842 -0.1315 -0.3968  0.2674
  868HK4     C472871   4.169   9.584   9.928 -0.4852 -0.4293 -0.0926
  868HK4     C372872   4.069   9.591  10.024 -0.5972  0.3691 -0.2682
  868HK4     H372873   4.048   9.513  10.099  2.5480  0.6386  0.9534
  868HK4     C272874   4.011   9.714  10.055 -0.5121  0.2880  0.2183
  868HK4     H272875   3.942   9.734  10.138 -2.1632  0.8143 -1.2586
  868HK4     C172876   4.046   9.816   9.967 -0.2303  0.2854  0.3241
  868HK4     H172877   3.992   9.910   9.979 -0.6801 -0.0405  0.8177
  868HK4     C672878   4.145   9.812   9.866 -0.5379 -0.0577  0.0293
  868HK4     C572879   4.223   9.696   9.862 -0.4264 -0.0030  0.6742
  868HK4    C1072880   4.360   9.678   9.807 -0.9245  0.0546 -0.5901
  868HK4     O172881   4.429   9.779   9.794 -0.5184 -0.2085 -0.4731
  868HK4    C1672882   4.160   9.930   9.779  0.3778  0.1685  0.4906
  868HK4    C1572883   4.092  10.050   9.805 -0.4729 -0.2374  0.1703
  868HK4     H772884   4.098  10.077   9.912  0.9814  0.0832  0.0198
  868HK4    C2072885   4.078  10.153   9.713  0.3068 -0.2363  0.0517
  868HK4     H972886   4.022  10.243   9.736  0.8933 -0.0843  0.9066
  868HK4    C1972887   4.134  10.137   9.586  0.0588 -0.1235 -0.0720
  868HK4    C1872888   4.217  10.021   9.561  0.2587 -0.0449  0.2260
  868HK4    C1772889   4.222   9.919   9.655 -0.2708 -0.1093  0.1857
  868HK4     H872890   4.234   9.817   9.617 -0.0773  0.4323 -1.2427
  868HK4     N172891   4.238  10.009   9.422 -0.2655  0.2442  0.1162
  868HK4    C2172892   4.175  10.116   9.357  0.1876  0.3960 -0.0780
  868HK4    C2272893   4.102  10.193   9.456  0.1023  0.1628  0.0409
  868HK4    C2672894   4.037  10.309   9.417  0.2824  0.4165  0.4915
  868HK4    H1372895   3.967  10.358   9.486 -0.8764 -0.4389 -0.0706
  868HK4    C2572896   4.038  10.342   9.282  0.5443  0.1653  0.4341
  868HK4    H1272897   3.993  10.435   9.247  2.8589  0.6873 -1.2925
  868HK4    C2472898   4.096  10.263   9.183  0.4497  0.6241  0.0185
  868HK4    H1172899   4.053  10.279   9.083 -0.8499  2.0668  0.7680
  868HK4    C2372900   4.170  10.153   9.223 -0.1276  0.1786 -0.1254
  868HK4    H1072901   4.233  10.107   9.147 -0.2356  0.6676 -0.5150
  868HK4    C3972902   4.356   9.949   9.374 -0.3431  0.3333 -0.1799
  868HK4    C4172903   4.361   9.911   9.238 -0.2638 -0.4544  0.0440
  868HK4    H2172904   4.266   9.902   9.183 -1.1539 -0.3169  1.5401
  868HK4    C4272905   4.476   9.855   9.183 -0.0936 -0.5060  0.4525
  868HK4    H2272906   4.469   9.827   9.077 -0.8382 -0.0038  0.3625
  868HK4    C4372907   4.590   9.832   9.259  0.0168 -0.1064  0.4070
  868HK4    H2372908   4.661   9.766   9.209 -0.9193  1.7979 -3.5766
  868HK4    C4472909   4.587   9.866   9.394 -0.6392 -0.2530  0.4320
  868HK4    H2472910   4.670   9.848   9.464  1.2262  1.0455 -1.3689
  868HK4    C4572911   4.474   9.928   9.447 -0.7815 -0.4133  0.3146
  868HK4    H2572912   4.469   9.959   9.552  0.0184 -0.9924  0.5304
  869HK4    H2872913  10.152   8.373   4.757  0.8844 -0.1202  1.6128
  869HK4    C4872914  10.062   8.323   4.794  0.6488 -0.3938  0.6876
  869HK4    C4772915   9.962   8.406   4.843  0.5059 -0.1233 -0.0614
  869HK4    H2772916   9.952   8.506   4.798  1.5263 -0.0588 -0.1789
  869HK4    C4672917   9.870   8.361   4.937 -0.1356  0.1141 -0.5750
  869HK4    H2672918   9.808   8.440   4.982  1.2206  1.1245 -0.4622
  869HK4    C4072919   9.869   8.224   4.973  0.3052  0.3532  0.3679
  869HK4    C5072920   9.964   8.139   4.912 -0.6078 -0.2467 -0.2094
  869HK4    H3072921   9.990   8.048   4.968  0.4243  0.6689  0.8245
  869HK4    C4972922  10.058   8.186   4.822 -0.3926 -0.5389 -0.1375
  869HK4    H2972923  10.127   8.115   4.773 -0.3673 -1.4115  1.1321
  869HK4     N272924   9.762   8.176   5.049  0.0302  0.4687  0.0467
  869HK4    C3072925   9.687   8.247   5.145  0.1757 -0.1688  0.6306
  869HK4    C2972926   9.730   8.355   5.221  0.1833  0.0955  0.2512
  869HK4    H1572927   9.834   8.385   5.217  0.7434 -1.6830  1.0115
  869HK4    C2872928   9.654   8.406   5.326  0.2395  0.1206  0.2802
  869HK4    C2772929   9.536   8.340   5.364 -0.2132  0.5662 -0.3433
  869HK4    H1472930   9.486   8.366   5.458  0.3177 -3.8020  1.2530
  869HK4    C3272931   9.491   8.227   5.296  0.2301  0.2132 -0.0496
  869HK4    H1672932   9.395   8.188   5.330 -0.9898  3.3722  0.2221
  869HK4    C3172933   9.563   8.183   5.185 -0.1048 -0.1132 -0.1393
  869HK4    C3472934   9.562   8.067   5.098 -0.1754 -0.0820 -0.1798
  869HK4    C3372935   9.686   8.060   5.023  0.2808  0.1925  0.5461
  869HK4    C3572936   9.703   7.954   4.935 -0.0136 -0.0537  0.7810
  869HK4    H1772937   9.799   7.930   4.890  0.7948  2.8470  0.8370
  869HK4    C3672938   9.604   7.859   4.913  0.4712 -0.3907  0.0585
  869HK4    H1872939   9.610   7.797   4.822 -0.4534  1.2916 -1.1830
  869HK4    C3772940   9.481   7.874   4.976  0.4335 -0.3956 -0.0095
  869HK4    H1972941   9.398   7.807   4.951 -1.1297  0.8161  1.8189
  869HK4    C3872942   9.465   7.970   5.074  0.3763 -0.7756  0.3506
  869HK4    H2072943   9.375   7.971   5.137 -0.1116 -0.6229 -0.3420
  869HK4    C1472944   9.701   8.527   5.395 -0.6128  0.4641  0.2687
  869HK4     C972945   9.668   8.575   5.523 -0.0786  0.2781  0.4812
  869HK4     C872946   9.636   8.709   5.552  0.3361  0.4692  0.0590
  869HK4    C1172947   9.664   8.807   5.457  0.7367  0.2093 -0.0970
  869HK4     H472948   9.623   8.909   5.463 -0.5670 -0.4279  2.6338
  869HK4    C1272949   9.716   8.761   5.337  0.6433  0.4148 -0.2180
  869HK4     H572950   9.741   8.834   5.258  1.4400 -1.1998 -1.4720
  869HK4    C1372951   9.726   8.628   5.300 -0.0196  0.2533  0.1928
  869HK4     H672952   9.773   8.603   5.204 -1.8547 -1.5991 -0.2588
  869HK4     C772953   9.586   8.747   5.686 -0.4674 -0.1754 -0.0490
  869HK4     O272954   9.563   8.865   5.709 -0.5688 -0.1000 -0.5416
  869HK4     C472955   9.587   8.647   5.795  0.1501 -0.1195 -0.0016
  869HK4     C372956   9.561   8.688   5.926 -0.2667 -0.0105 -0.1161
  869HK4     H372957   9.552   8.795   5.949 -0.6024 -0.4419  1.8100
  869HK4     C272958   9.557   8.600   6.033 -0.4046 -0.2569 -0.3222
  869HK4     H272959   9.537   8.650   6.129 -1.3537 -0.9404 -0.1552
  869HK4     C172960   9.554   8.464   6.004 -0.8152 -0.3419  0.1109
  869HK4     H172961   9.534   8.391   6.084  0.8733 -1.8143 -0.7803
  869HK4     C672962   9.574   8.420   5.871 -0.4170  0.1889 -0.0035
  869HK4     C572963   9.608   8.510   5.770  0.3310 -0.0926  0.0011
  869HK4    C1072964   9.665   8.478   5.636 -0.0634 -0.3961 -0.0918
  869HK4     O172965   9.736   8.377   5.632 -0.1919 -0.4804 -0.2386
  869HK4    C1672966   9.519   8.284   5.863 -0.1834  0.0751  0.2835
  869HK4    C1572967   9.456   8.257   5.740  0.6619 -0.2852 -0.0719
  869HK4     H772968   9.393   8.337   5.699  0.1075  0.0721  1.4754
  869HK4    C2072969   9.460   8.129   5.684 -0.5576 -0.3933  0.0791
  869HK4     H972970   9.418   8.118   5.584  2.7092  1.3736 -1.5661
  869HK4    C1972971   9.524   8.024   5.748 -0.7185 -0.1234  0.6888
  869HK4    C1872972   9.579   8.046   5.881 -0.2796 -0.5506  0.5786
  869HK4    C1772973   9.567   8.174   5.934  0.1136 -0.1526 -0.2718
  869HK4     H872974   9.628   8.195   6.021 -0.9508  0.1285  0.4166
  869HK4     N172975   9.611   7.926   5.946 -0.0388 -0.6005  0.3739
  869HK4    C2172976   9.579   7.825   5.854 -0.8256  0.0010 -0.0162
  869HK4    C2272977   9.518   7.880   5.734  0.2964 -0.0389 -0.6123
  869HK4    C2672978   9.471   7.790   5.639  0.0285  0.1732 -0.6784
  869HK4    H1372979   9.418   7.824   5.549  0.2667 -1.4240 -1.4385
  869HK4    C2572980   9.504   7.657   5.660 -0.4261  0.2924  0.8135
  869HK4    H1272981   9.461   7.590   5.585 -1.8414  0.1422  1.7320
  869HK4    C2472982   9.571   7.602   5.769  0.2365  0.1844  0.3545
  869HK4    H1172983   9.571   7.494   5.786 -3.1959  0.3296  1.6927
  869HK4    C2372984   9.608   7.690   5.871  0.2146  0.2585  0.2991
  869HK4    H1072985   9.670   7.653   5.952 -0.1225 -1.8676 -0.3742
  869HK4    C3972986   9.699   7.923   6.055 -0.1131 -0.0465  0.4542
  869HK4    C4172987   9.685   7.824   6.155 -0.5247 -0.3118  0.1388
  869HK4    H2172988   9.584   7.791   6.183 -0.6379  1.0398  1.4276
  869HK4    C4272989   9.798   7.799   6.233 -0.8189  1.4103  1.1587
  869HK4    H2272990   9.789   7.726   6.315  1.7821  1.8895  1.8999
  869HK4    C4372991   9.921   7.860   6.219 -0.3598  0.3051  0.2648
  869HK4    H2372992  10.012   7.820   6.263 -1.5786 -0.2556  2.3110
  869HK4    C4472993   9.929   7.968   6.130  0.1124  0.4751  0.5104
  869HK4    H2472994  10.012   8.039   6.138 -1.0786  2.0275 -0.5764
  869HK4    C4572995   9.820   7.995   6.048  0.1300 -0.4785  0.1616
  869HK4    H2572996   9.845   8.046   5.954 -0.9509 -1.2478 -0.5510
  870HK4    H2872997   6.825   5.370   7.954 -0.0316  0.6702 -1.2657
  870HK4    C4872998   6.816   5.263   7.973 -0.4540  0.8019 -0.7092
  870HK4    C4772999   6.756   5.232   8.094  0.0238 -0.0398 -0.6925
  870HK4    H2773000   6.737   5.318   8.160  0.7265  0.7262 -1.4801
  870HK4    C4673001   6.701   5.106   8.113  0.3005 -0.0557  0.0165
  870HK4    H2673002   6.652   5.091   8.211 -1.0001  0.8426 -0.4890
  870HK4    C4073003   6.683   5.018   8.005  0.4580 -0.4998  0.3492
  870HK4    C5073004   6.748   5.052   7.884  0.2094  0.2797  0.4320
  870HK4    H3073005   6.758   4.964   7.818 -1.4506  0.6440 -0.3184
  870HK4    C4973006   6.818   5.171   7.869  0.4951  0.0540 -0.0323
  870HK4    H2973007   6.817   5.222   7.771 -0.9610  0.9196  0.4077
  870HK4     N273008   6.577   4.927   8.011 -0.1373  0.1595 -0.0372
  870HK4    C3073009   6.573   4.797   7.955  0.2337 -0.2939  0.9752
  870HK4    C2973010   6.675   4.703   7.958  0.5485  0.0228  0.2615
  870HK4    H1573011   6.775   4.741   7.939  1.0697 -0.6065  1.6755
  870HK4    C2873012   6.655   4.567   7.936 -0.0573  0.1755 -0.1461
  870HK4    C2773013   6.521   4.527   7.919 -0.0527  0.0701  0.0739
  870HK4    H1473014   6.489   4.429   7.881 -0.6549  0.8982 -1.6116
  870HK4    C3273015   6.414   4.616   7.916 -0.1512 -0.0511 -0.0422
  870HK4    H1673016   6.315   4.583   7.882 -0.9324 -0.2249  2.2931
  870HK4    C3173017   6.436   4.750   7.943  0.2630 -0.0978 -0.1483
  870HK4    C3473018   6.355   4.853   8.006 -0.0563 -0.6754  0.3833
  870HK4    C3373019   6.444   4.963   8.038 -0.3398 -0.1610 -0.6053
  870HK4    C3573020   6.393   5.088   8.071 -0.4091 -0.3056 -0.1673
  870HK4    H1773021   6.455   5.178   8.066  1.3899 -1.5107  0.0062
  870HK4    C3673022   6.256   5.105   8.087 -0.3628 -0.1276  0.0544
  870HK4    H1873023   6.215   5.195   8.135  1.0973  0.1363  0.8476
  870HK4    C3773024   6.170   5.000   8.060 -0.1640 -0.2905  0.0482
  870HK4    H1973025   6.062   5.011   8.075  0.1981  1.0003  1.8200
  870HK4    C3873026   6.219   4.878   8.016  0.0037 -0.3759  0.4629
  870HK4    H2073027   6.153   4.807   7.965  0.4874 -1.4242  1.2867
  870HK4    C1473028   6.770   4.477   7.926 -0.3476 -0.2822  0.6044
  870HK4     C973029   6.760   4.352   7.863  0.6428  0.0983 -0.3051
  870HK4     C873030   6.844   4.244   7.896 -0.3729 -0.5140  0.2778
  870HK4    C1173031   6.955   4.276   7.974  0.0589 -0.2643 -0.4362
  870HK4     H473032   7.041   4.208   7.978 -0.5084 -1.0033 -0.5910
  870HK4    C1273033   6.971   4.401   8.032 -0.0521 -0.3801 -0.1564
  870HK4     H573034   7.057   4.419   8.099 -1.0584  0.5615  0.8936
  870HK4    C1373035   6.880   4.503   8.010 -0.2138 -0.3885  0.4622
  870HK4     H673036   6.895   4.601   8.059 -0.8093 -0.2004  0.2686
  870HK4     C773037   6.829   4.105   7.847 -0.0511 -0.3882 -0.1798
  870HK4     O273038   6.859   4.008   7.916  0.4485  0.1321  0.3357
  870HK4     C473039   6.737   4.094   7.731 -0.2884 -0.0684 -0.0221
  870HK4     C373040   6.733   3.966   7.677  0.4925  0.1576 -0.6157
  870HK4     H373041   6.821   3.903   7.658 -1.2125 -1.8121 -2.0660
  870HK4     C273042   6.613   3.926   7.620  0.1484  0.3415 -0.0268
  870HK4     H273043   6.589   3.825   7.585 -3.6278  1.1418 -0.0078
  870HK4     C173044   6.507   4.015   7.605 -0.0619 -0.0078 -0.6384
  870HK4     H173045   6.418   3.994   7.545 -1.5521  0.6034  1.2970
  870HK4     C673046   6.514   4.149   7.651 -0.2794 -0.2682  0.1722
  870HK4     C573047   6.635   4.189   7.708 -0.4111 -0.1109  0.3384
  870HK4    C1073048   6.665   4.329   7.750  0.0657 -0.1824  0.2319
  870HK4     O173049   6.658   4.417   7.664  0.4665 -0.0826  0.3011
  870HK4    C1673050   6.392   4.227   7.674 -0.1781  0.0428 -0.3584
  870HK4    C1573051   6.280   4.161   7.727 -0.0446  0.2731  0.2171
  870HK4     H773052   6.297   4.053   7.737 -1.5141 -0.2313 -2.2463
  870HK4    C2073053   6.149   4.209   7.718 -0.1240 -0.0002 -0.1228
  870HK4     H973054   6.080   4.177   7.796  0.2048  3.1890  1.5593
  870HK4    C1973055   6.133   4.326   7.645  0.4801 -0.1765 -0.5385
  870HK4    C1873056   6.246   4.399   7.589  0.5778  0.2197  0.1784
  870HK4    C1773057   6.373   4.345   7.602  0.7403  0.6371  0.3518
  870HK4     H873058   6.446   4.376   7.527  0.1340 -1.6093 -1.2308
  870HK4     N173059   6.202   4.517   7.526  0.4135  0.1034  0.0745
  870HK4    C2173060   6.061   4.515   7.540  0.4029 -0.2309 -0.0468
  870HK4    C2273061   6.013   4.400   7.613  0.3740  0.0498  0.3821
  870HK4    C2673062   5.878   4.388   7.645  0.4291  0.2280  0.6798
  870HK4    H1373063   5.841   4.305   7.706  0.6073 -0.6998 -0.4500
  870HK4    C2573064   5.788   4.489   7.614  0.2269 -0.0188  0.4586
  870HK4    H1273065   5.687   4.487   7.653  0.7833 -0.7558  1.8846
  870HK4    C2473066   5.834   4.602   7.547  0.1129 -0.2869 -0.0801
  870HK4    H1173067   5.761   4.679   7.518  1.6522  2.0494  1.9801
  870HK4    C2373068   5.969   4.616   7.516  0.2469 -0.2396  0.5044
  870HK4    H1073069   5.996   4.706   7.461 -2.2549 -0.1892 -0.7167
  870HK4    C3973070   6.278   4.630   7.495  0.2627  0.1873  0.0095
  870HK4    C4173071   6.247   4.716   7.388  0.2141  0.0427 -0.0903
  870HK4    H2173072   6.165   4.685   7.322  0.8547 -0.0891 -0.8307
  870HK4    C4273073   6.325   4.828   7.366  0.2641  0.0419  0.0851
  870HK4    H2273074   6.314   4.890   7.276 -3.1825  1.0034  1.1045
  870HK4    C4373075   6.429   4.863   7.452  0.1378  0.7532 -0.0441
  870HK4    H2373076   6.500   4.940   7.423  1.6239 -0.7431 -0.4602
  870HK4    C4473077   6.463   4.775   7.555 -0.3911  0.2761 -0.2733
  870HK4    H2473078   6.557   4.812   7.600 -1.2808  1.5488  0.5732
  870HK4    C4573079   6.387   4.662   7.579  0.2511 -0.0722  0.1239
  870HK4    H2573080   6.418   4.607   7.670  2.1972  1.4414  0.3989
  871HK4    H2873081   7.946   6.695   0.071 -0.4456  0.4853 -1.9897
  871HK4    C4873082   7.988   6.607   0.023  0.3483 -0.1282 -0.2363
  871HK4    C4773083   7.901   6.505  11.234  0.1407 -0.1096  0.2037
  871HK4    H2773084   7.796   6.523  11.207 -0.0765 -3.3203 -1.3032
  871HK4    C4673085   7.958   6.382  11.204  0.0142 -0.1489  0.1203
  871HK4    H2673086   7.889   6.300  11.230 -1.1487  0.4790 -0.9493
  871HK4    C4073087   8.097   6.358  11.194  0.0699  0.0840  0.3507
  871HK4    C5073088   8.180   6.470  11.216  0.5648 -0.1745 -0.2172
  871HK4    H3073089   8.286   6.461  11.243 -0.1825 -3.4075  1.8671
  871HK4    C4973090   8.125   6.593   0.005  0.4114 -0.4534  0.4763
  871HK4    H2973091   8.194   6.678   0.006  0.6130 -0.6002 -0.3966
  871HK4     N273092   8.141   6.244  11.126 -0.3143 -0.2002  0.5766
  871HK4    C3073093   8.068   6.174  11.028  0.5976  0.1445 -0.3648
  871HK4    C2973094   7.944   6.196  10.969  0.2933 -0.3019  0.0929
  871HK4    H1573095   7.879   6.272  11.011  1.8921  0.0861  1.9348
  871HK4    C2873096   7.892   6.122  10.863  0.3963 -0.3285  0.0598
  871HK4    C2773097   7.975   6.020  10.811  0.4467 -0.1341 -0.2327
  871HK4    H1473098   7.952   5.956  10.724  2.4573  2.0788 -2.4935
  871HK4    C3273099   8.098   5.992  10.868  0.4578  0.2691 -0.0540
  871HK4    H1673100   8.157   5.907  10.833  0.6416 -0.4302  1.8841
  871HK4    C3173101   8.141   6.057  10.983  0.6042 -0.0146  0.0511
  871HK4    C3473102   8.272   6.061  11.046  0.4274 -0.2723  0.4351
  871HK4    C3373103   8.257   6.167  11.144  0.0452  0.1769 -0.1060
  871HK4    C3573104   8.374   6.204  11.210 -0.2458  0.7228  0.1031
  871HK4    H1773105   8.370   6.282   0.039  1.0956  0.7568  0.1461
  871HK4    C3673106   8.495   6.147  11.175 -0.5448 -0.1222  0.4252
  871HK4    H1873107   8.586   6.183  11.227 -0.0637  1.9031 -1.6909
  871HK4    C3773108   8.508   6.051  11.075 -0.4194  0.3216  0.0072
  871HK4    H1973109   8.603   6.007  11.044  0.4424  0.4833  2.3201
  871HK4    C3873110   8.393   6.003  11.013  0.0888 -0.6032 -0.2223
  871HK4    H2073111   8.413   5.949  10.920 -3.1869 -1.3116 -0.5474
  871HK4    C1473112   7.753   6.129  10.816  0.3676 -0.0336  0.1864
  871HK4     C973113   7.677   6.020  10.771  0.2475  0.1943 -0.1674
  871HK4     C873114   7.588   6.033  10.663 -0.4851  0.1388  0.4237
  871HK4    C1173115   7.569   6.154  10.598 -0.1854  0.4057  0.8262
  871HK4     H473116   7.506   6.165  10.508  1.9797  1.3439 -0.6267
  871HK4    C1273117   7.640   6.266  10.641  0.2787  0.4202  0.0402
  871HK4     H573118   7.630   6.364  10.592 -0.0514 -0.4821 -1.7422
  871HK4    C1373119   7.729   6.249  10.746  0.8495 -0.3681 -0.5636
  871HK4     H673120   7.782   6.337  10.784  0.6138 -0.2004 -0.6265
  871HK4     C773121   7.533   5.910  10.601 -0.0549 -0.0957  0.5040
  871HK4     O273122   7.422   5.916  10.547  0.2756 -0.2311 -0.1880
  871HK4     C473123   7.584   5.780  10.649 -0.3768 -0.3284  0.2129
  871HK4     C373124   7.535   5.667  10.584  0.1142 -0.2761 -0.2542
  871HK4     H373125   7.480   5.669  10.488  0.9249  0.9587 -0.7056
  871HK4     C273126   7.564   5.537  10.624  0.4288 -0.0304  0.3041
  871HK4     H273127   7.494   5.455  10.604  0.7893 -0.8986  2.4619
  871HK4     C173128   7.663   5.523  10.722  0.1055  0.0822  0.6516
  871HK4     H173129   7.691   5.422  10.756 -2.1807 -0.8055 -0.0035
  871HK4     C673130   7.714   5.634  10.791 -0.0392  0.1463  0.6519
  871HK4     C573131   7.663   5.762  10.764  0.2291  0.0856 -0.1388
  871HK4    C1073132   7.698   5.887  10.836  0.3088  0.1465 -0.2832
  871HK4     O173133   7.711   5.889  10.958 -0.7393 -0.4328 -0.1561
  871HK4    C1673134   7.859   5.619  10.811  0.0122 -0.0629  0.1317
  871HK4    C1573135   7.952   5.566  10.720  0.3261  0.2277  0.2810
  871HK4     H773136   7.924   5.546  10.615  0.0970  3.2654 -0.2797
  871HK4    C2073137   8.086   5.543  10.748  0.4265  0.3570 -0.0772
  871HK4     H973138   8.143   5.472  10.688 -2.4599 -1.5766 -0.6544
  871HK4    C1973139   8.138   5.585  10.870 -0.1409  0.7825  0.0178
  871HK4    C1873140   8.042   5.627  10.971  0.0313  0.1182  0.4681
  871HK4    C1773141   7.909   5.647  10.938  0.1293  0.0758  0.0568
  871HK4     H873142   7.836   5.664  11.017  1.1794  1.3627  0.7702
  871HK4     N173143   8.109   5.662  11.090  0.6024  0.2506  0.1122
  871HK4    C2173144   8.247   5.648  11.063  0.5675  0.2672 -0.0787
  871HK4    C2273145   8.269   5.593  10.931 -0.0141  0.3192 -0.2032
  871HK4    C2673146   8.393   5.544  10.890  0.0026  0.4613 -0.3262
  871HK4    H1373147   8.411   5.496  10.794  1.3457  0.4982 -0.1019
  871HK4    C2573148   8.496   5.547  10.983 -0.0257  0.0947 -0.2850
  871HK4    H1273149   8.597   5.517  10.955  0.5384  0.0399  1.6844
  871HK4    C2473150   8.477   5.596  11.112  0.2791 -0.1337 -0.1510
  871HK4    H1173151   8.566   5.596  11.175 -2.2906 -0.7693  3.6266
  871HK4    C2373152   8.354   5.649  11.151  0.3389 -0.2513  0.1994
  871HK4    H1073153   8.337   5.695   0.000  0.8557 -0.4637  0.3913
  871HK4    C3973154   8.050   5.726  11.200 -0.3329 -0.0104 -0.2352
  871HK4    C4173155   8.090   5.693   0.083 -0.4876 -0.0305 -0.1941
  871HK4    H2173156   8.115   5.589   0.109  1.1227  0.7791  1.6295
  871HK4    C4273157   8.088   5.787   0.186 -0.0747 -0.4852  0.2300
  871HK4    H2273158   8.097   5.760   0.292 -1.9939 -0.0864  0.5214
  871HK4    C4373159   8.040   5.915   0.160  0.3107 -0.2809  0.5179
  871HK4    H2373160   8.024   5.991   0.235 -0.7915  0.5076 -0.5025
  871HK4    C4473161   7.984   5.945   0.036  0.1524  0.1308  0.6911
  871HK4    H2473162   7.928   6.039   0.021 -2.4372 -1.7295 -1.8103
  871HK4    C4573163   7.987   5.851  11.182  0.1128  0.3261  0.5097
  871HK4    H2573164   7.951   5.877  11.082  0.0491 -0.1107  0.4181
  872HK4    H2873165   1.398   7.760   5.680 -0.2946  0.2555 -0.0214
  872HK4    C4873166   1.486   7.823   5.672 -0.2506  0.1820 -0.1082
  872HK4    C4773167   1.574   7.837   5.779 -0.6772  0.5318  0.1955
  872HK4    H2773168   1.588   7.759   5.856  1.5122 -0.0920 -0.7927
  872HK4    C4673169   1.664   7.943   5.791 -0.1614  0.1523 -0.3112
  872HK4    H2673170   1.737   7.946   5.872 -0.9515  0.9984  0.3755
  872HK4    C4073171   1.654   8.049   5.699 -0.2538  0.1555 -0.2987
  872HK4    C5073172   1.562   8.032   5.593 -0.1204  0.1504 -0.4127
  872HK4    H3073173   1.560   8.111   5.515  0.1505 -1.1700 -1.7826
  872HK4    C4973174   1.483   7.920   5.573 -0.1870  0.1487 -0.1429
  872HK4    H2973175   1.432   7.902   5.477 -0.0501 -0.6258 -0.0685
  872HK4     N273176   1.691   8.179   5.733  0.1675 -0.1669  0.4691
  872HK4    C3073177   1.677   8.241   5.860  0.1175  0.1364  0.3171
  872HK4    C2973178   1.591   8.218   5.966  0.4744 -0.1198  0.5550
  872HK4    H1573179   1.510   8.147   5.946 -1.2595  1.3331  2.1514
  872HK4    C2873180   1.583   8.290   6.084 -0.2595  0.2837  0.2645
  872HK4    C2773181   1.683   8.388   6.101 -0.0673  0.0757  0.3315
  872HK4    H1473182   1.696   8.443   6.195  2.7602  0.6457 -0.3427
  872HK4    C3273183   1.775   8.410   5.999 -0.0368 -0.7411  0.1822
  872HK4    H1673184   1.860   8.477   6.014  0.5631 -1.0734 -1.5553
  872HK4    C3173185   1.775   8.347   5.875 -0.0424  0.3921 -0.4065
  872HK4    C3473186   1.854   8.340   5.754  0.1208 -0.6139 -0.2491
  872HK4    C3373187   1.797   8.242   5.664 -0.4853 -0.0769 -0.4528
  872HK4    C3573188   1.843   8.218   5.535  0.1289  0.2648 -0.2982
  872HK4    H1773189   1.774   8.163   5.471  0.6010 -0.9348  0.2141
  872HK4    C3673190   1.958   8.290   5.508  0.5612 -0.3256 -0.0366
  872HK4    H1873191   2.007   8.268   5.412 -1.3755  1.5750 -1.4990
  872HK4    C3773192   2.012   8.392   5.586 -0.5261  0.6879 -0.6014
  872HK4    H1973193   2.104   8.444   5.558  0.6931 -0.7573  0.6673
  872HK4    C3873194   1.963   8.417   5.714 -0.3961  0.0238 -0.4197
  872HK4    H2073195   2.008   8.503   5.764  0.6309  0.4219 -1.9858
  872HK4    C1473196   1.473   8.267   6.179 -0.5196 -0.1525 -0.1444
  872HK4     C973197   1.441   8.369   6.269 -0.2664 -0.3473  0.1668
  872HK4     C873198   1.412   8.340   6.404  0.0816  0.1901  0.3561
  872HK4    C1173199   1.402   8.209   6.447 -0.0159  0.2475  0.5120
  872HK4     H473200   1.408   8.185   6.554  0.0391  0.9972  0.6746
  872HK4    C1273201   1.408   8.107   6.352 -0.4707  0.5666  0.1385
  872HK4     H573202   1.346   8.019   6.376  0.6041  0.0324  1.0405
  872HK4    C1373203   1.448   8.135   6.222  0.5614 -0.2249  0.2812
  872HK4     H673204   1.457   8.060   6.142 -2.1712 -0.1277 -0.1767
  872HK4     C773205   1.408   8.451   6.502 -0.1799 -0.1780  0.7577
  872HK4     O273206   1.347   8.427   6.606  0.3411 -0.5199  0.9875
  872HK4     C473207   1.448   8.587   6.461  0.0442 -0.4521  0.0542
  872HK4     C373208   1.455   8.682   6.563 -0.0704 -0.0883 -0.2703
  872HK4     H373209   1.462   8.657   6.670  1.9592 -0.7462 -0.5313
  872HK4     C273210   1.473   8.815   6.528 -0.6250  0.0802  0.0736
  872HK4     H273211   1.445   8.892   6.600  1.1554 -0.8450  1.8227
  872HK4     C173212   1.488   8.854   6.395 -0.4155 -0.1698  0.0223
  872HK4     H173213   1.496   8.962   6.375  2.3308 -0.5142 -0.9432
  872HK4     C673214   1.493   8.756   6.294  0.2353  0.1148 -0.2232
  872HK4     C573215   1.456   8.625   6.326 -0.7323  0.5016  0.2658
  872HK4    C1073216   1.438   8.513   6.229 -0.3249 -0.1351  0.9212
  872HK4     O173217   1.381   8.535   6.122 -0.0519 -0.3118  0.7364
  872HK4    C1673218   1.502   8.808   6.157 -0.9244 -0.7189 -0.6261
  872HK4    C1573219   1.466   8.942   6.130 -0.2999 -0.2930  0.6494
  872HK4     H773220   1.410   8.994   6.210 -1.7929  1.3461 -1.4215
  872HK4    C2073221   1.509   9.014   6.020  0.3080 -0.5266  0.7296
  872HK4     H973222   1.530   9.120   6.031 -1.2370 -0.2407  1.0521
  872HK4    C1973223   1.573   8.950   5.914  0.3125 -0.0133  0.4159
  872HK4    C1873224   1.592   8.808   5.934  0.8299  0.0197  0.1505
  872HK4    C1773225   1.570   8.742   6.055 -0.1728 -0.4651 -0.2927
  872HK4     H873226   1.601   8.638   6.064  0.7297 -0.0052  2.6946
  872HK4     N173227   1.616   8.746   5.810 -0.4654  0.3007 -0.2379
  872HK4    C2173228   1.637   8.848   5.715  0.7911  0.1192 -0.1604
  872HK4    C2273229   1.601   8.975   5.774 -0.6874 -0.4269  0.1327
  872HK4    C2673230   1.603   9.089   5.694  0.4528 -0.3748  0.2303
  872HK4    H1373231   1.548   9.178   5.725 -1.8228 -1.4193 -0.7238
  872HK4    C2573232   1.656   9.084   5.566 -0.0814  0.6097 -0.0352
  872HK4    H1273233   1.689   9.182   5.532  0.4065  1.1551  1.9292
  872HK4    C2473234   1.703   8.964   5.512 -0.2858  0.4318  0.1829
  872HK4    H1173235   1.733   8.967   5.406  1.2189 -0.9628  0.5551
  872HK4    C2373236   1.686   8.847   5.585  0.6945  0.0450 -0.1964
  872HK4    H1073237   1.713   8.751   5.541  1.6252 -0.4678  1.4616
  872HK4    C3973238   1.542   8.632   5.776  0.3257 -0.2951  0.0198
  872HK4    C4173239   1.594   8.549   5.675  0.4713 -0.0949 -0.0713
  872HK4    H2173240   1.702   8.552   5.653  0.4995 -0.1135  0.0596
  872HK4    C4273241   1.518   8.457   5.605 -0.2961  0.6969 -0.2816
  872HK4    H2273242   1.560   8.386   5.532 -2.6849 -1.0163 -0.0866
  872HK4    C4373243   1.387   8.438   5.649 -0.1696  0.6788  0.0852
  872HK4    H2373244   1.327   8.375   5.583  0.7072 -1.8736  1.6402
  872HK4    C4473245   1.333   8.515   5.751 -0.2883  0.3220  0.2960
  872HK4    H2473246   1.225   8.497   5.765 -0.1087 -1.6618 -0.6427
  872HK4    C4573247   1.407   8.615   5.813  0.1355  0.4090 -0.3417
  872HK4    H2573248   1.361   8.669   5.897  1.3177 -1.5167  1.5798
  873HK4    H2873249   0.052   0.169   5.985  0.6235  7.6097  1.5356
  873HK4    C4873250  11.194   0.177   5.962  0.0635  0.1409  0.2104
  873HK4    C4773251  11.153   0.201   5.832  0.1502 -0.4374  0.0788
  873HK4    H2773252  11.231   0.215   5.755 -1.3540  0.4031 -1.3152
  873HK4    C4673253  11.020   0.230   5.804  0.2047 -0.2167  0.0357
  873HK4    H2673254  10.991   0.257   5.701  0.0311  0.3246  0.2275
  873HK4    C4073255  10.923   0.241   5.905  0.1366  0.5753 -0.1155
  873HK4    C5073256  10.969   0.200   6.032 -0.0303  0.3621 -0.1230
  873HK4    H3073257  10.911   0.216   6.125  2.1075  0.5373  1.2024
  873HK4    C4973258  11.100   0.169   6.065 -0.0019  0.8365  0.2090
  873HK4    H2973259  11.130   0.132   6.164  2.2400  1.9211 -0.0268
  873HK4     N273260  10.808   0.319   5.888 -0.3263 -0.1954 -0.5868
  873HK4    C3073261  10.798   0.430   5.801  0.2744  0.5098  0.2328
  873HK4    C2973262  10.886   0.484   5.708  0.1254  0.3812  0.0143
  873HK4    H1573263  10.991   0.457   5.708  0.0805  0.2114 -0.4095
  873HK4    C2873264  10.846   0.584   5.620 -0.2199 -0.1954 -0.4858
  873HK4    C2773265  10.717   0.636   5.644  0.1165  0.3721  0.1282
  873HK4    H1473266  10.694   0.731   5.593 -1.3002  0.0558  0.1469
  873HK4    C3273267  10.629   0.591   5.742  0.2719 -0.3081 -0.0433
  873HK4    H1673268  10.521   0.606   5.735  0.5077  1.5016 -0.1591
  873HK4    C3173269  10.667   0.488   5.827 -0.3073 -0.6179 -0.1555
  873HK4    C3473270  10.597   0.406   5.924 -0.6164 -0.2489 -0.0663
  873HK4    C3373271  10.694   0.309   5.969 -0.0335  0.3117 -0.1025
  873HK4    C3573272  10.661   0.227   6.077  0.3403  0.7499  0.3428
  873HK4    H1773273  10.716   0.138   6.107 -1.7702  0.1332  2.6193
  873HK4    C3673274  10.542   0.253   6.145  0.0855 -0.0538  0.2094
  873HK4    H1873275  10.534   0.218   6.249  2.4238 -0.6278  0.2273
  873HK4    C3773276  10.450   0.347   6.101  0.1126 -0.2956 -0.3660
  873HK4    H1973277  10.356   0.350   6.157 -1.1557 -1.6746 -2.3126
  873HK4    C3873278  10.474   0.423   5.988 -0.3918  0.6276  0.1397
  873HK4    H2073279  10.413   0.512   5.975  1.0230  1.4885 -0.8110
  873HK4    C1473280  10.942   0.651   5.532  0.2127  0.0483  0.1687
  873HK4     C973281  10.946   0.787   5.499  0.3595 -0.0629 -0.2814
  873HK4     C873282  10.996   0.836   5.377  1.0263  0.2588  0.1187
  873HK4    C1173283  11.061   0.746   5.293  0.2455  0.4443 -0.6817
  873HK4     H473284  11.095   0.770   5.191  1.1517  3.8489  0.3746
  873HK4    C1273285  11.074   0.612   5.329  0.0917  0.5586 -0.1953
  873HK4     H573286  11.163   0.565   5.285  0.3084  1.1184 -0.3709
  873HK4    C1373287  11.011   0.566   5.443 -0.3327  0.3207 -0.5230
  873HK4     H673288  11.002   0.457   5.452  1.9992  0.1798  0.4753
  873HK4     C773289  10.958   0.970   5.329  0.3813  0.0457  0.0323
  873HK4     O273290  11.002   1.010   5.221  0.1434 -0.1066 -0.1237
  873HK4     C473291  10.863   1.049   5.411  0.1061 -0.1501 -0.0989
  873HK4     C373292  10.810   1.164   5.354  0.0612 -0.1306 -0.0163
  873HK4     H373293  10.862   1.213   5.271 -0.0603  2.5809  1.4261
  873HK4     C273294  10.715   1.241   5.422 -0.0265 -0.3042  0.0597
  873HK4     H273295  10.659   1.320   5.371  1.2329  0.9221  0.5649
  873HK4     C173296  10.684   1.206   5.553  0.2482 -0.1910  0.1550
  873HK4     H173297  10.605   1.264   5.601 -0.0452  0.3720 -0.9767
  873HK4     C673298  10.752   1.103   5.621  0.0958 -0.2458  0.2223
  873HK4     C573299  10.837   1.020   5.546 -0.3415 -0.3009 -0.2161
  873HK4    C1073300  10.891   0.889   5.593  0.0807 -0.1672 -0.3301
  873HK4     O173301  10.941   0.882   5.705  0.5983  0.1528 -0.5359
  873HK4    C1673302  10.741   1.108   5.767  0.1923 -0.1798  0.2277
  873HK4    C1573303  10.740   1.233   5.832 -0.4541 -0.1708  0.1966
  873HK4     H773304  10.769   1.321   5.772  0.6135 -2.0695 -2.1453
  873HK4    C2073305  10.696   1.246   5.963  0.4950  0.1507  0.4875
  873HK4     H973306  10.673   1.342   6.010  0.5782 -0.5248  1.9564
  873HK4    C1973307  10.649   1.136   6.034  0.1374 -0.0858 -0.1191
  873HK4    C1873308  10.665   1.004   5.977 -0.5308 -0.0978 -0.2822
  873HK4    C1773309  10.707   0.997   5.845  0.4272 -0.3875  0.0343
  873HK4     H873310  10.704   0.904   5.788  1.2487 -0.8657  0.7568
  873HK4     N173311  10.645   0.903   6.074  0.1068 -0.1194 -0.1726
  873HK4    C2173312  10.600   0.968   6.191  0.5058 -0.2068  0.0308
  873HK4    C2273313  10.605   1.112   6.170 -0.2015 -0.2170 -0.2466
  873HK4    C2673314  10.553   1.203   6.261 -0.1630 -0.2972 -0.1457
  873HK4    H1373315  10.524   1.303   6.227 -0.7998 -0.7060 -0.8139
  873HK4    C2573316  10.498   1.158   6.380 -0.5696  0.3147 -0.1006
  873HK4    H1273317  10.473   1.228   6.460  1.6504  1.5647 -0.4644
  873HK4    C2473318  10.505   1.022   6.406 -0.1727  0.2676 -0.4396
  873HK4    H1173319  10.488   0.982   6.508 -1.6610  0.5153 -0.5695
  873HK4    C2373320  10.551   0.929   6.315 -0.4323 -0.0233 -0.2734
  873HK4    H1073321  10.546   0.824   6.346 -0.3471 -0.2215 -0.9211
  873HK4    C3973322  10.718   0.784   6.074  0.5366  0.1397  0.3477
  873HK4    C4173323  10.683   0.686   6.169  0.3617 -0.1890 -0.0518
  873HK4    H2173324  10.575   0.669   6.183  0.0656  1.6765  0.1061
  873HK4    C4273325  10.772   0.588   6.213 -0.1379 -0.4917  0.2888
  873HK4    H2273326  10.741   0.498   6.269  1.9356 -1.7383 -0.5298
  873HK4    C4373327  10.899   0.579   6.157 -0.6056  0.2338 -0.9199
  873HK4    H2373328  10.968   0.513   6.209 -1.7017  0.2318  0.6007
  873HK4    C4473329  10.940   0.680   6.072  0.2855 -0.0924 -0.8801
  873HK4    H2473330  11.043   0.690   6.034  0.3274 -0.8786 -0.9838
  873HK4    C4573331  10.852   0.780   6.031  0.1695 -0.1626 -0.7966
  873HK4    H2573332  10.888   0.864   5.970  0.6617  0.7752  0.7725
  874HK4    H2873333  10.815   5.985   1.711  0.0704  2.4796  0.0098
  874HK4    C4873334  10.850   5.996   1.814  0.6281 -0.0288  0.1295
  874HK4    C4773335  10.989   5.997   1.821  0.6174  0.0148  0.3567
  874HK4    H2773336  11.058   5.981   1.737  0.8350  1.7438  0.1881
  874HK4    C4673337  11.041   6.035   1.944  0.2839 -0.6258  0.6984
  874HK4    H2673338  11.147   6.064   1.946 -0.0311  0.8230 -1.2479
  874HK4    C4073339  10.967   6.063   2.061 -0.3600  0.1321  0.1193
  874HK4    C5073340  10.827   6.052   2.049 -0.3414 -0.2840  0.2501
  874HK4    H3073341  10.768   6.054   2.142 -0.6600  2.5983  0.0282
  874HK4    C4973342  10.772   6.023   1.925  0.3026 -0.1937 -0.0597
  874HK4    H2973343  10.665   5.999   1.923 -0.1143  1.5555  0.3865
  874HK4     N273344  11.031   6.057   2.185 -0.0846  0.0738 -0.0243
  874HK4    C3073345  11.146   5.979   2.212  0.1628  0.4485  0.0099
  874HK4    C2973346  11.196   5.864   2.153 -0.4792  0.1416  0.0626
  874HK4    H1573347  11.127   5.796   2.104 -0.0463 -1.0201  1.0272
  874HK4    C2873348   0.082   5.830   2.169 -0.4993 -0.0665 -0.1854
  874HK4    C2773349   0.156   5.901   2.266 -0.5042 -0.2899 -0.0175
  874HK4    H1473350   0.265   5.890   2.257 -0.3840  1.5290 -1.0185
  874HK4    C3273351   0.106   6.009   2.338  0.4519  0.0306  0.1709
  874HK4    H1673352   0.170   6.081   2.389 -1.6601  1.8400  0.3107
  874HK4    C3173353  11.223   6.048   2.314  0.3873 -0.1408  0.2391
  874HK4    C3473354  11.137   6.154   2.364  0.1904 -0.0833 -0.2215
  874HK4    C3373355  11.014   6.154   2.286  0.1121  0.1820 -0.0958
  874HK4    C3573356  10.928   6.262   2.299 -0.0977  0.0308 -0.2102
  874HK4    H1773357  10.846   6.261   2.227 -0.8948  0.5916  0.6745
  874HK4    C3673358  10.956   6.364   2.390  0.0978 -0.0135 -0.2197
  874HK4    H1873359  10.894   6.454   2.394  0.9329  0.5339  0.6898
  874HK4    C3773360  11.072   6.366   2.467  0.1394  0.4299 -0.2916
  874HK4    H1973361  11.098   6.450   2.531 -1.2276  1.8083 -1.5150
  874HK4    C3873362  11.157   6.257   2.455 -0.2639  0.1176 -0.3440
  874HK4    H2073363  11.241   6.258   2.526 -0.6201 -0.8383  0.0978
  874HK4    C1473364   0.149   5.728   2.087  0.2295  0.3132 -0.0597
  874HK4     C973365   0.275   5.674   2.115  0.1362  0.2200  0.1870
  874HK4     C873366   0.355   5.622   2.011  0.0999  0.2380  0.1510
  874HK4    C1173367   0.290   5.598   1.890 -0.0191 -0.4605  0.3562
  874HK4     H473368   0.349   5.564   1.804 -0.8166 -0.3012 -0.2640
  874HK4    C1273369   0.157   5.627   1.861  0.0192 -0.4292  0.2144
  874HK4     H573370   0.126   5.611   1.757  0.8846 -0.1045 -0.0952
  874HK4    C1373371   0.092   5.696   1.963  0.2997  0.2772 -0.0833
  874HK4     H673372  11.230   5.702   1.958  0.1676 -0.3365  1.7486
  874HK4     C773373   0.491   5.567   2.028 -0.0273  0.0621  0.5809
  874HK4     O273374   0.559   5.534   1.932  0.0231  0.3132  0.5297
  874HK4     C473375   0.542   5.561   2.167 -0.0322  0.0256  0.5806
  874HK4     C373376   0.672   5.513   2.182  0.0007 -0.1194 -0.1759
  874HK4     H373377   0.721   5.447   2.109 -0.6405 -0.7851 -0.0092
  874HK4     C273378   0.732   5.528   2.306 -0.9039 -0.1290  0.2663
  874HK4     H273379   0.837   5.497   2.318 -1.1050 -1.5336 -1.4079
  874HK4     C173380   0.662   5.585   2.412 -0.1054  0.3596  0.5380
  874HK4     H173381   0.701   5.581   2.514 -0.0049 -0.9231  0.4573
  874HK4     C673382   0.528   5.628   2.397 -0.1856  0.0046  0.1954
  874HK4     C573383   0.463   5.603   2.276 -0.3794  0.2268  0.2530
  874HK4    C1073384   0.322   5.645   2.254 -0.1968  0.9679  0.4592
  874HK4     O173385   0.239   5.594   2.330 -0.0194  0.4084  0.2839
  874HK4    C1673386   0.494   5.726   2.502  0.4434 -0.3177  0.7032
  874HK4    C1573387   0.592   5.820   2.541  0.0193  0.3163  0.2610
  874HK4     H773388   0.671   5.842   2.468  0.0512  1.4408  0.6262
  874HK4    C2073389   0.595   5.877   2.668  0.1339 -0.6458  0.6981
  874HK4     H973390   0.686   5.928   2.699  0.3931 -0.3235 -0.5435
  874HK4    C1973391   0.494   5.846   2.758 -0.8040  0.2715 -0.0223
  874HK4    C1873392   0.385   5.761   2.713 -0.1244 -0.2223 -0.7327
  874HK4    C1773393   0.393   5.693   2.592 -0.5307 -0.6678 -0.5096
  874HK4     H873394   0.319   5.616   2.570 -1.9250  0.2857  0.8007
  874HK4     N173395   0.291   5.737   2.815  0.1389  0.3368 -0.3566
  874HK4    C2173396   0.355   5.786   2.930  0.2242 -0.1139 -0.2128
  874HK4    C2273397   0.476   5.861   2.901 -0.0052  0.3702  0.0686
  874HK4    C2673398   0.566   5.891   3.003  0.2419 -0.4301  0.0883
  874HK4    H1373399   0.653   5.949   2.974  1.4769 -1.5895  1.3812
  874HK4    C2573400   0.545   5.857   3.137 -0.1022 -0.6102 -0.0108
  874HK4    H1273401   0.628   5.869   3.206  0.5733  1.5320 -1.1157
  874HK4    C2473402   0.426   5.789   3.160 -0.4712  0.2510  0.6351
  874HK4    H1173403   0.412   5.740   3.258 -0.0427  0.0811  0.6095
  874HK4    C2373404   0.339   5.744   3.062 -0.5164  1.3443  0.1706
  874HK4    H1073405   0.267   5.665   3.083 -0.2288  1.4522  1.6040
  874HK4    C3973406   0.154   5.765   2.808  0.0462 -0.0683 -0.1740
  874HK4    C4173407   0.074   5.705   2.907  0.0331  0.6324  0.2519
  874HK4    H2173408   0.097   5.615   2.966 -0.3670  1.3666  1.5371
  874HK4    C4273409  11.192   5.752   2.918 -0.2274 -0.0086 -0.0245
  874HK4    H2273410  11.116   5.709   2.985  1.3540 -3.3285 -0.2870
  874HK4    C4373411  11.150   5.860   2.841  0.1920  0.3564  0.2525
  874HK4    H2373412  11.046   5.890   2.858 -0.0455 -0.2567 -0.0850
  874HK4    C4473413  11.228   5.918   2.743  0.0520 -0.1652 -0.1739
  874HK4    H2473414  11.189   5.999   2.679  1.1220 -0.9223 -1.8160
  874HK4    C4573415   0.107   5.866   2.721  0.4356  0.5508  0.3258
  874HK4    H2573416   0.167   5.914   2.643  0.9614  0.3342  0.5914
  875HK4    H2873417   6.336   3.057   3.444  1.9527  0.3276 -0.2450
  875HK4    C4873418   6.358   3.114   3.535 -0.0745  0.5203  0.1530
  875HK4    C4773419   6.455   3.213   3.526  0.1638  0.2512 -0.2215
  875HK4    H2773420   6.479   3.251   3.425 -2.4372  0.9244 -0.6104
  875HK4    C4673421   6.493   3.289   3.635 -0.4906  0.3773 -0.0801
  875HK4    H2673422   6.572   3.366   3.628  0.5062 -0.5421  0.8100
  875HK4    C4073423   6.437   3.268   3.763  0.1335 -0.2949  0.0908
  875HK4    C5073424   6.338   3.167   3.770 -0.5520  0.3881  0.3009
  875HK4    H3073425   6.283   3.159   3.865 -1.1083  0.5027 -0.0132
  875HK4    C4973426   6.303   3.091   3.660 -0.2316  0.5434  0.0880
  875HK4    H2973427   6.221   3.019   3.675 -0.2347  0.3839 -0.6949
  875HK4     N273428   6.467   3.339   3.880 -0.2195 -0.0905  0.0583
  875HK4    C3073429   6.521   3.469   3.880  0.2707 -0.2944  0.2703
  875HK4    C2973430   6.487   3.572   3.793  0.3677 -0.0929  0.4687
  875HK4    H1573431   6.391   3.559   3.742  1.1897 -0.6669 -0.9636
  875HK4    C2873432   6.553   3.694   3.788  0.2222 -0.0214  0.2493
  875HK4    C2773433   6.654   3.703   3.885  0.5903 -0.3445 -0.1051
  875HK4    H1473434   6.713   3.796   3.893 -0.5326  0.3335  0.3476
  875HK4    C3273435   6.697   3.608   3.978  0.6713 -0.1500  0.0579
  875HK4    H1673436   6.785   3.625   4.039 -0.8836 -1.4326  2.7444
  875HK4    C3173437   6.625   3.488   3.979  0.2970  0.0739  0.1727
  875HK4    C3473438   6.616   3.367   4.058  0.0708  0.1201  0.2170
  875HK4    C3373439   6.521   3.278   3.995 -0.0691  0.2890  0.1908
  875HK4    C3573440   6.484   3.166   4.069 -0.2169  0.0528 -0.2335
  875HK4    H1773441   6.388   3.120   4.051 -0.0976  0.2995 -1.5036
  875HK4    C3673442   6.548   3.132   4.188  0.0793 -0.2203 -0.4700
  875HK4    H1873443   6.530   3.031   4.230 -0.9884 -0.1405 -0.7212
  875HK4    C3773444   6.648   3.212   4.241 -0.0764 -0.2910 -0.0619
  875HK4    H1973445   6.679   3.205   4.345 -0.2061 -1.0090 -0.0747
  875HK4    C3873446   6.681   3.331   4.175 -0.4534  0.1301  0.5092
  875HK4    H2073447   6.740   3.408   4.223 -2.8456  2.6928 -0.5659
  875HK4    C1473448   6.546   3.785   3.673  0.4062  0.2456  0.4473
  875HK4     C973449   6.652   3.860   3.620  0.1160  0.3879  0.0639
  875HK4     C873450   6.629   3.982   3.555  0.1079  0.0299 -0.6083
  875HK4    C1173451   6.497   4.012   3.521 -0.1564 -0.8327 -0.3463
  875HK4     H473452   6.477   4.116   3.494  0.7672 -1.0774 -2.0351
  875HK4    C1273453   6.388   3.937   3.564 -0.1866 -0.3704  0.3873
  875HK4     H573454   6.287   3.979   3.553  0.3773  0.3752 -2.1825
  875HK4    C1373455   6.415   3.823   3.639  0.2959 -0.4873  0.0366
  875HK4     H673456   6.321   3.776   3.673  0.0296  0.2019  0.2570
  875HK4     C773457   6.738   4.075   3.518  0.1601 -0.0644 -0.6942
  875HK4     O273458   6.715   4.193   3.488 -0.1982  0.0618  0.0563
  875HK4     C473459   6.873   4.022   3.547 -0.2661 -0.5435  0.4684
  875HK4     C373460   6.980   4.107   3.519 -0.5219 -0.4510 -0.2391
  875HK4     H373461   6.959   4.195   3.456  0.2866 -0.8838 -1.1263
  875HK4     C273462   7.112   4.076   3.549 -0.4944  0.2744  0.3979
  875HK4     H273463   7.186   4.144   3.504 -0.6480  0.5831  0.6127
  875HK4     C173464   7.132   3.949   3.601 -0.2620  0.1802  0.0813
  875HK4     H173465   7.235   3.911   3.596  0.0672  1.0563  0.2432
  875HK4     C673466   7.031   3.858   3.640  0.2302 -0.4547 -0.1111
  875HK4     C573467   6.902   3.895   3.599  0.2670 -0.8752 -0.6159
  875HK4    C1073468   6.789   3.801   3.622 -0.1689 -0.2912 -0.3497
  875HK4     O173469   6.797   3.683   3.587 -0.0573 -0.3065 -0.2711
  875HK4    C1673470   7.057   3.788   3.766 -0.2787  0.3493  0.4415
  875HK4    C1573471   7.134   3.850   3.867  0.6282  0.1905 -0.1460
  875HK4     H773472   7.141   3.960   3.872 -0.1539  0.2581 -0.4607
  875HK4    C2073473   7.172   3.785   3.984  0.1194  0.1196 -0.0165
  875HK4     H973474   7.239   3.833   4.055 -0.7115  0.5090  0.5096
  875HK4    C1973475   7.138   3.651   3.998  0.5085  0.0417  0.2027
  875HK4    C1873476   7.061   3.582   3.896  0.9328 -0.3525  0.1500
  875HK4    C1773477   7.028   3.653   3.781 -0.1381  0.3667  0.8953
  875HK4     H873478   6.984   3.598   3.698 -0.2049 -2.1993  2.5625
  875HK4     N173479   7.025   3.454   3.942 -0.0093 -0.2610 -0.3311
  875HK4    C2173480   7.075   3.440   4.073  0.2291 -0.2969 -0.4259
  875HK4    C2273481   7.151   3.558   4.108 -0.0191 -0.2650  0.0108
  875HK4    C2673482   7.196   3.568   4.239  0.0351 -0.3201 -0.0037
  875HK4    H1373483   7.240   3.661   4.273 -1.5511  0.0438  1.1102
  875HK4    C2573484   7.176   3.463   4.329  0.4394 -0.1434  0.2966
  875HK4    H1273485   7.206   3.475   4.433 -1.5941  2.3177  0.6482
  875HK4    C2473486   7.113   3.346   4.289 -0.3947  0.3192  0.2349
  875HK4    H1173487   7.103   3.263   4.361  0.1046  0.6817  0.7236
  875HK4    C2373488   7.058   3.335   4.162  0.3185  0.0036 -0.0486
  875HK4    H1073489   7.009   3.239   4.144 -0.4551 -0.0504  2.1668
  875HK4    C3973490   6.997   3.340   3.865  0.3216 -0.4042 -0.2415
  875HK4    C4173491   7.049   3.325   3.734  0.1833 -0.0844 -0.3358
  875HK4    H2173492   7.144   3.373   3.707 -0.5526  1.7208  0.1878
  875HK4    C4273493   6.983   3.252   3.636  0.3273 -0.8198  0.1094
  875HK4    H2273494   7.037   3.226   3.544  1.4119  0.7145  0.3040
  875HK4    C4373495   6.856   3.201   3.659 -0.0022 -0.3107 -0.5613
  875HK4    H2373496   6.809   3.122   3.600 -3.8492 -0.3104  2.2971
  875HK4    C4473497   6.806   3.217   3.788  0.6099  0.0033 -0.3619
  875HK4    H2473498   6.703   3.187   3.813  1.1656  0.0067  2.0197
  875HK4    C4573499   6.874   3.278   3.892  0.6189 -0.8278  0.1246
  875HK4    H2573500   6.861   3.253   3.999 -0.6387 -1.0165 -0.0599
  876HK4    H2873501   9.462  11.094   7.141  2.1005 -1.6380  1.3577
  876HK4    C4873502   9.394  11.009   7.135 -0.0923  0.1548  0.0336
  876HK4    C4773503   9.450  10.884   7.110  0.3306  0.1037  1.1623
  876HK4    H2773504   9.560  10.882   7.104  0.3095  1.6165 -0.4430
  876HK4    C4673505   9.373  10.769   7.115 -0.1370  0.3155 -0.7910
  876HK4    H2673506   9.417  10.668   7.107 -0.7848 -0.1266  0.9261
  876HK4    C4073507   9.235  10.770   7.145  0.2033  0.0989  0.8054
  876HK4    C5073508   9.181  10.899   7.163 -0.1946  0.0444  0.0441
  876HK4    H3073509   9.073  10.913   7.183 -0.5873  0.6312 -2.3844
  876HK4    C4973510   9.259  11.014   7.168  0.1149 -0.2005  0.9596
  876HK4    H2973511   9.223  11.113   7.201  2.9911  2.3056 -3.0276
  876HK4     N273512   9.151  10.668   7.099 -0.0139  0.4897  0.3465
  876HK4    C3073513   9.028  10.637   7.160 -0.3021 -0.1856 -0.5513
  876HK4    C2973514   8.989  10.641   7.294 -0.1853 -0.4700 -0.5067
  876HK4    H1573515   9.051  10.698   7.363 -0.1058 -0.8950 -0.2268
  876HK4    C2873516   8.864  10.604   7.343 -0.0036 -0.4141  0.0011
  876HK4    C2773517   8.768  10.572   7.245 -0.3684 -0.4232  0.3546
  876HK4    H1473518   8.668  10.551   7.284  0.1184 -0.8190  1.4221
  876HK4    C3273519   8.801  10.562   7.110 -0.1689 -0.8965  0.4355
  876HK4    H1673520   8.729  10.543   7.030 -0.8928  0.0380  0.8620
  876HK4    C3173521   8.930  10.590   7.065 -0.4487 -0.6052 -0.1894
  876HK4    C3473522   8.998  10.576   6.938 -0.1194  0.2520 -0.1099
  876HK4    C3373523   9.134  10.617   6.968 -0.1608 -0.1111  0.5972
  876HK4    C3573524   9.236  10.577   6.883 -0.5822  0.3104 -0.1093
  876HK4    H1773525   9.336  10.598   6.921 -1.2193  1.2655  1.1049
  876HK4    C3673526   9.199  10.500   6.773 -0.1857 -0.6877  0.4441
  876HK4    H1873527   9.276  10.460   6.706  0.4635  0.4710  0.4718
  876HK4    C3773528   9.068  10.469   6.738 -0.1715 -0.3237  0.0613
  876HK4    H1973529   9.051  10.397   6.659 -1.2698 -1.8035  1.6133
  876HK4    C3873530   8.964  10.514   6.818 -0.0710  0.0102 -0.0008
  876HK4    H2073531   8.866  10.516   6.771  1.2361 -2.9224 -3.0054
  876HK4    C1473532   8.843  10.555   7.480 -0.1234  0.0876  0.1611
  876HK4     C973533   8.755  10.453   7.516 -0.1084  0.1188  0.2936
  876HK4     C873534   8.687  10.465   7.640  0.3801 -0.6642  0.6374
  876HK4    C1173535   8.710  10.577   7.719  0.0287 -0.3597  0.3098
  876HK4     H473536   8.642  10.603   7.801 -0.9529  0.4925 -0.7580
  876HK4    C1273537   8.816  10.664   7.697 -0.6920  0.3592 -0.3370
  876HK4     H573538   8.865  10.720   7.778  1.6901 -0.7957 -0.9390
  876HK4    C1373539   8.884  10.649   7.577  0.0236  0.0933  0.0941
  876HK4     H673540   8.986  10.690   7.571  0.5347 -0.8895  1.8140
  876HK4     C773541   8.578  10.370   7.671 -0.8245  0.3363 -0.4776
  876HK4     O273542   8.520  10.388   7.777 -0.1986  0.2590 -0.1175
  876HK4     C473543   8.547  10.261   7.575  0.1736  0.1131 -0.5561
  876HK4     C373544   8.438  10.178   7.596  0.3005  0.0908  0.0164
  876HK4     H373545   8.373  10.193   7.683 -1.4115  0.0543 -1.2221
  876HK4     C273546   8.395  10.078   7.509 -0.0132  0.3518 -0.1297
  876HK4     H273547   8.308  10.014   7.530  0.9802 -1.6237 -1.8930
  876HK4     C173548   8.464  10.078   7.389  0.4439 -0.7813  0.1273
  876HK4     H173549   8.415  10.021   7.309 -0.0880 -1.0112  0.6235
  876HK4     C673550   8.564  10.170   7.348 -0.3225 -0.0644 -0.1520
  876HK4     C573551   8.611  10.255   7.449  0.0066  0.3513 -0.6553
  876HK4    C1073552   8.737  10.332   7.431 -0.0638  0.5433 -0.3148
  876HK4     O173553   8.835  10.281   7.377 -0.2132 -0.0990  0.0125
  876HK4    C1673554   8.560  10.205   7.206  0.2881 -0.5126 -0.2801
  876HK4    C1573555   8.437  10.212   7.137 -0.0459  0.0287  0.3667
  876HK4     H773556   8.345  10.190   7.192  0.9373 -0.4067  1.8857
  876HK4    C2073557   8.435  10.214   6.998  0.1167 -0.6750  0.3536
  876HK4     H973558   8.339  10.197   6.950 -0.5531 -1.8242  2.0051
  876HK4    C1973559   8.551  10.203   6.923 -0.0359 -0.4839  0.0855
  876HK4    C1873560   8.679  10.194   6.992  0.1104 -0.1649 -0.1538
  876HK4    C1773561   8.677  10.201   7.131  0.3934  0.2619 -0.1688
  876HK4     H873562   8.773  10.166   7.169  0.0798 -0.7689 -0.3110
  876HK4     N173563   8.784  10.177   6.899  0.1398 -0.3052 -0.0962
  876HK4    C2173564   8.725  10.188   6.772 -0.2646 -0.4091  0.0824
  876HK4    C2273565   8.581  10.180   6.783 -0.2811 -0.2993  0.0049
  876HK4    C2673566   8.499  10.208   6.674 -0.2984 -0.2185  0.0413
  876HK4    H1373567   8.397  10.170   6.671 -0.0176 -1.0221  0.6599
  876HK4    C2573568   8.563  10.256   6.560 -0.0095 -0.3139  0.1624
  876HK4    H1273569   8.493  10.296   6.486  1.3697  1.3997 -0.2248
  876HK4    C2473570   8.699  10.280   6.545 -0.1216 -0.0412 -0.4369
  876HK4    H1173571   8.739  10.281   6.443  0.2103  0.9832 -0.3067
  876HK4    C2373572   8.776  10.244   6.655 -0.8893  0.8422  0.4027
  876HK4    H1073573   8.884  10.255   6.642 -1.1271  2.8149 -0.0596
  876HK4    C3973574   8.920  10.168   6.931  0.0730 -0.3603  0.1825
  876HK4    C4173575   8.998  10.081   6.852  0.5698  0.2260  0.0223
  876HK4    H2173576   8.950  10.049   6.758  0.7667  1.5093 -0.5343
  876HK4    C4273577   9.131  10.059   6.883  0.3278 -1.1656  0.0878
  876HK4    H2273578   9.183   9.990   6.813  0.8610 -1.1639  0.4742
  876HK4    C4373579   9.190  10.124   6.991 -0.6913 -0.7072  0.3653
  876HK4    H2373580   9.287  10.086   7.024 -0.9310 -1.6876 -0.0210
  876HK4    C4473581   9.114  10.213   7.067  0.3030  0.1207  0.3853
  876HK4    H2473582   9.167  10.266   7.148  2.1285  0.2800 -0.8655
  876HK4    C4573583   8.984  10.245   7.031  0.1318 -0.6153  0.3380
  876HK4    H2573584   8.938  10.324   7.091 -0.6948 -0.5508 -0.3803
  877HK4    H2873585  11.201   9.150   6.810 -0.7752  1.4856 -0.0596
  877HK4    C4873586   0.045   9.161   6.869 -0.0946 -0.1852 -0.7917
  877HK4    C4773587   0.131   9.267   6.843  0.2327 -0.2994 -0.1829
  877HK4    H2773588   0.107   9.334   6.759 -0.1283  0.1135  0.2514
  877HK4    C4673589   0.246   9.286   6.919  0.4110  0.0845 -0.5495
  877HK4    H2673590   0.319   9.350   6.868  0.0660  0.4909 -0.5347
  877HK4    C4073591   0.287   9.197   7.020 -0.1507  0.2628 -0.1620
  877HK4    C5073592   0.196   9.092   7.046  0.0143  0.1424 -0.0665
  877HK4    H3073593   0.222   9.026   7.130  3.2792  0.1058 -1.0278
  877HK4    C4973594   0.077   9.078   6.975  0.5389 -0.0930 -0.9117
  877HK4    H2973595   0.012   8.990   6.990 -1.5132  1.7123  1.0866
  877HK4     N273596   0.415   9.180   7.074 -0.2294 -0.2064 -0.1176
  877HK4    C3073597   0.524   9.237   7.003 -0.0226 -0.6979 -0.1950
  877HK4    C2973598   0.548   9.238   6.866  0.1395 -0.5216 -0.1662
  877HK4    H1573599   0.499   9.166   6.800 -1.6048 -2.3368  3.0067
  877HK4    C2873600   0.661   9.304   6.818 -0.1956  0.4708  0.4079
  877HK4    C2773601   0.754   9.356   6.910  0.6943 -0.2692 -0.0643
  877HK4    H1473602   0.846   9.394   6.863  0.2069  0.0129 -0.8077
  877HK4    C3273603   0.727   9.350   7.046 -0.4226 -0.6845 -0.2970
  877HK4    H1673604   0.801   9.378   7.122  0.4592  1.0371 -1.7509
  877HK4    C3173605   0.613   9.293   7.102 -0.3311 -0.5693  0.0092
  877HK4    C3473606   0.567   9.260   7.235 -0.5059 -0.4204 -0.0138
  877HK4    C3373607   0.441   9.191   7.212 -0.5665 -0.2999 -0.0466
  877HK4    C3573608   0.362   9.163   7.322 -0.5577  0.5018  0.1611
  877HK4    H1773609   0.264   9.116   7.316  0.9900 -2.5252 -2.3654
  877HK4    C3673610   0.401   9.202   7.450  0.1288  0.2052  0.0455
  877HK4    H1873611   0.330   9.204   7.534  0.0767  1.9488 -0.0282
  877HK4    C3773612   0.521   9.270   7.468  0.4591 -0.3652 -0.0126
  877HK4    H1973613   0.520   9.314   7.567 -2.0722 -1.1737  0.3555
  877HK4    C3873614   0.609   9.294   7.363  0.0215 -0.0015 -0.2977
  877HK4    H2073615   0.716   9.313   7.372  0.1075 -1.1785  1.3901
  877HK4    C1473616   0.690   9.316   6.675 -0.4901  0.2104  0.3268
  877HK4     C973617   0.813   9.334   6.611 -0.5553 -0.0369  0.1301
  877HK4     C873618   0.824   9.428   6.507 -0.4439 -0.5262 -0.3046
  877HK4    C1173619   0.715   9.476   6.435 -0.1117  1.0212  0.2115
  877HK4     H473620   0.728   9.523   6.337 -1.7422  1.3640  0.1450
  877HK4    C1273621   0.589   9.435   6.480  0.0554 -0.0729 -0.3009
  877HK4     H573622   0.501   9.479   6.431 -0.8148 -0.7308  0.6458
  877HK4    C1373623   0.581   9.364   6.599 -0.1669  0.0004 -0.2699
  877HK4     H673624   0.481   9.358   6.645 -0.4684  1.2569 -0.7393
  877HK4     C773625   0.956   9.477   6.463 -0.3529 -0.4021  0.1085
  877HK4     O273626   0.968   9.596   6.433  0.1150 -0.4516  0.0903
  877HK4     C473627   1.075   9.393   6.493 -0.2286 -0.1166  0.4293
  877HK4     C373628   1.198   9.435   6.445 -0.5274 -0.1332 -0.3573
  877HK4     H373629   1.224   9.538   6.417  1.4650 -0.9916 -1.8418
  877HK4     C273630   1.296   9.337   6.427 -0.2600  0.0607  0.0408
  877HK4     H273631   1.377   9.361   6.357 -1.5639  1.2207 -1.1108
  877HK4     C173632   1.271   9.205   6.462  0.0907  0.0528  0.2628
  877HK4     H173633   1.346   9.128   6.436 -1.1662 -0.3576 -2.3758
  877HK4     C673634   1.148   9.162   6.516 -0.1319 -0.1195 -0.3828
  877HK4     C573635   1.055   9.263   6.543 -0.2830 -0.3285 -0.1288
  877HK4    C1073636   0.929   9.241   6.620 -0.1463  0.4938  0.3395
  877HK4     O173637   0.927   9.158   6.711 -0.7111  0.6317  0.4509
  877HK4    C1673638   1.113   9.021   6.490 -0.6871 -0.0347 -0.0921
  877HK4    C1573639   1.135   8.971   6.360 -0.0843 -0.2325  0.0876
  877HK4     H773640   1.146   9.033   6.271 -1.0191 -1.1195 -0.6575
  877HK4    C2073641   1.126   8.834   6.334 -0.4775 -0.1406 -0.2541
  877HK4     H973642   1.160   8.809   6.234  1.1345  0.8219  0.0355
  877HK4    C1973643   1.105   8.743   6.437 -0.3678 -0.0839 -0.1810
  877HK4    C1873644   1.098   8.789   6.575  0.0682 -0.0725 -0.1622
  877HK4    C1773645   1.095   8.927   6.590 -0.3517 -0.0946 -0.0861
  877HK4     H873646   1.069   8.958   6.691  0.9358 -0.4293  0.3573
  877HK4     N173647   1.066   8.689   6.669 -0.2091  0.5048  0.3562
  877HK4    C2173648   1.041   8.577   6.587  0.0753  0.3335  0.5014
  877HK4    C2273649   1.068   8.604   6.447 -0.0610 -0.1277  0.3862
  877HK4    C2673650   1.026   8.516   6.348 -0.2135  0.2314  0.1351
  877HK4    H1373651   1.040   8.535   6.242  2.7527  3.3759  1.0340
  877HK4    C2573652   0.936   8.414   6.379  0.3612 -0.4275 -0.3631
  877HK4    H1273653   0.911   8.343   6.300 -1.0070  2.4782 -2.6271
  877HK4    C2473654   0.913   8.387   6.513  0.2784  0.6928 -0.1457
  877HK4    H1173655   0.870   8.288   6.536  1.9594  0.1608  0.8186
  877HK4    C2373656   0.968   8.462   6.617  0.2074  0.1879  0.2594
  877HK4    H1073657   0.965   8.423   6.718  0.2051 -0.0001  0.1881
  877HK4    C3973658   1.114   8.692   6.800  0.3139 -0.1485  0.1841
  877HK4    C4173659   1.050   8.627   6.908  0.0876  0.5417  0.4727
  877HK4    H2173660   0.958   8.576   6.877  0.2759  0.1851  0.5031
  877HK4    C4273661   1.104   8.621   7.035 -0.5487  0.4919  0.7429
  877HK4    H2273662   1.045   8.583   7.120 -0.0980  0.3791  1.0072
  877HK4    C4373663   1.228   8.683   7.054 -0.0846 -0.1320 -0.2476
  877HK4    H2373664   1.278   8.667   7.149 -1.1752  0.1242  0.3884
  877HK4    C4473665   1.293   8.756   6.955 -0.0877  0.7579  0.4107
  877HK4    H2473666   1.378   8.818   6.988  0.1144  1.0866 -0.7247
  877HK4    C4573667   1.238   8.755   6.828  0.5671 -0.6219  0.1378
  877HK4    H2573668   1.292   8.811   6.750  0.6749 -0.3134  0.4349
  878HK4    H2873669  10.325   2.496   0.967 -0.8397  1.8970 -0.7088
  878HK4    C4873670  10.302   2.458   0.867 -0.0470  0.0012 -0.1990
  878HK4    C4773671  10.324   2.323   0.842  0.7663  0.0946  0.0102
  878HK4    H2773672  10.364   2.257   0.921 -0.1252  1.1640  1.3838
  878HK4    C4673673  10.286   2.275   0.718 -0.3334  0.2945  0.2674
  878HK4    H2673674  10.306   2.170   0.690  3.0857  0.9979 -0.0987
  878HK4    C4073675  10.224   2.352   0.618  0.2436  0.1132 -0.2297
  878HK4    C5073676  10.196   2.485   0.655 -0.0752 -0.1521  0.4784
  878HK4    H3073677  10.178   2.557   0.573  1.3805  2.7249  2.5977
  878HK4    C4973678  10.225   2.536   0.781  0.3139  0.6606  0.0690
  878HK4    H2973679  10.183   2.633   0.809  2.0603  1.1440  1.1149
  878HK4     N273680  10.216   2.311   0.484  0.2200 -0.1776 -0.1390
  878HK4    C3073681  10.295   2.216   0.417 -0.1434 -0.7748  0.2836
  878HK4    C2973682  10.429   2.184   0.436  0.2167  0.2763 -0.4389
  878HK4    H1573683  10.477   2.225   0.525  1.3498  0.9069 -1.3348
  878HK4    C2873684  10.506   2.106   0.351 -0.0499  0.1738 -0.5871
  878HK4    C2773685  10.431   2.054   0.244 -0.0284 -0.2223 -0.4100
  878HK4    H1473686  10.480   1.981   0.178  1.8581 -0.3316  1.0878
  878HK4    C3273687  10.297   2.080   0.217 -0.2385 -0.6341  0.2178
  878HK4    H1673688  10.251   2.055   0.121 -0.7183  2.9747 -0.5670
  878HK4    C3173689  10.223   2.157   0.306 -0.0656 -0.0118 -0.1723
  878HK4    C3473690  10.095   2.226   0.303 -0.0771 -0.0129  0.1982
  878HK4    C3373691  10.094   2.319   0.414 -0.0409 -0.1550  0.3184
  878HK4    C3573692   9.983   2.400   0.436  0.3417  0.4887 -0.0944
  878HK4    H1773693   9.976   2.454   0.531 -0.3986  1.7930 -0.8796
  878HK4    C3673694   9.869   2.395   0.357  0.5483  0.4749 -0.3924
  878HK4    H1873695   9.782   2.460   0.377 -0.3964 -1.0984  0.8295
  878HK4    C3773696   9.869   2.299   0.256  0.7334  0.5141 -0.4282
  878HK4    H1973697   9.774   2.296   0.204  0.1871 -0.6078  0.6244
  878HK4    C3873698   9.977   2.215   0.231  0.3191 -0.0095 -0.4564
  878HK4    H2073699   9.974   2.138   0.154 -0.5222  1.6756 -2.1361
  878HK4    C1473700  10.652   2.118   0.335  0.0562 -0.1177  0.1459
  878HK4     C973701  10.726   2.121   0.216 -0.0179  0.0900  0.1047
  878HK4     C873702  10.858   2.074   0.205 -0.1619 -0.2383 -0.2515
  878HK4    C1173703  10.930   2.047   0.321 -0.0245  0.5238 -0.1542
  878HK4     H473704  11.037   2.024   0.327  0.3009  0.8562 -3.3772
  878HK4    C1273705  10.865   2.056   0.443  0.1387 -1.0872  0.0690
  878HK4     H573706  10.932   2.051   0.530  0.0534 -0.0860  0.2060
  878HK4    C1373707  10.728   2.081   0.448  0.3115 -0.1070 -0.0219
  878HK4     H673708  10.679   2.079   0.546  1.7192  0.0650  0.6989
  878HK4     C773709  10.919   2.056   0.071  0.1824 -0.1812 -0.1041
  878HK4     O273710  11.019   1.986   0.060  0.2404 -0.0533 -0.3967
  878HK4     C473711  10.846   2.100  11.197  0.2101 -0.2502 -0.1477
  878HK4     C373712  10.900   2.074  11.072  0.2565  0.3320 -0.2509
  878HK4     H373713  11.003   2.034  11.067 -0.5161 -1.9223  1.1298
  878HK4     C273714  10.827   2.084  10.955 -0.2192  0.1616  0.0273
  878HK4     H273715  10.865   2.032  10.866 -0.7388 -3.7404  1.9980
  878HK4     C173716  10.704   2.146  10.971 -0.5156 -0.3006 -0.4424
  878HK4     H173717  10.655   2.179  10.878  0.1429 -0.9758 -1.0327
  878HK4     C673718  10.644   2.179  11.094  0.0886 -0.2739 -0.1548
  878HK4     C573719  10.716   2.152  11.211  0.2966 -0.0124 -0.2200
  878HK4    C1073720  10.662   2.186   0.098 -0.0311 -0.5090 -0.2234
  878HK4     O173721  10.634   2.305   0.112  0.7308 -0.3333 -0.1844
  878HK4    C1673722  10.497   2.183  11.085  0.0834 -0.0319  0.0061
  878HK4    C1573723  10.428   2.084  11.012 -0.6182  0.3999  0.0734
  878HK4     H773724  10.492   2.030  10.940 -0.1290  2.4151 -1.0229
  878HK4    C2073725  10.290   2.068  11.015 -0.5572 -0.1694 -0.0469
  878HK4     H973726  10.233   1.988  10.968  0.4404  0.0653 -1.6949
  878HK4    C1973727  10.216   2.166  11.079  0.1191 -0.4427  1.1916
  878HK4    C1873728  10.277   2.277  11.150  0.0944  0.4394 -0.1467
  878HK4    C1773729  10.416   2.277  11.147  0.0923  0.2648 -0.4358
  878HK4     H873730  10.468   2.371  11.168  1.6723 -0.7182  0.1380
  878HK4     N173731  10.185   2.370  11.203  0.0643  0.3776 -0.0975
  878HK4    C2173732  10.061   2.318  11.161  0.2497 -0.1886  0.0462
  878HK4    C2273733  10.074   2.188  11.099 -0.0149 -0.1962  0.0063
  878HK4    C2673734   9.963   2.115  11.057 -0.1526  0.0678 -0.0887
  878HK4    H1373735   9.966   2.008  11.036  0.1375  0.2195 -0.8158
  878HK4    C2573736   9.837   2.172  11.074 -0.1457  0.2279 -0.5557
  878HK4    H1273737   9.762   2.131  11.007 -2.1184  3.3076 -0.3084
  878HK4    C2473738   9.824   2.297  11.134  0.1533 -0.1060  0.2234
  878HK4    H1173739   9.722   2.337  11.146 -0.2770 -1.2423  0.4630
  878HK4    C2373740   9.933   2.371  11.175  0.2101 -0.4535  0.6978
  878HK4    H1073741   9.921   2.473  11.212 -0.3907  0.3531 -1.6304
  878HK4    C3973742  10.218   2.477   0.039  0.3920  0.1592  0.0551
  878HK4    C4173743  10.146   2.598   0.022  0.4236  0.1998  0.2021
  878HK4    H2173744  10.110   2.613  11.168  1.4134 -0.5879 -0.2681
  878HK4    C4273745  10.143   2.687   0.129 -0.2399 -0.0704  0.4056
  878HK4    H2273746  10.084   2.780   0.122 -1.1185 -0.7176 -0.9638
  878HK4    C4373747  10.225   2.665   0.239 -0.1628 -0.1098  0.3397
  878HK4    H2373748  10.229   2.747   0.311 -2.7673  1.4751 -1.2229
  878HK4    C4473749  10.311   2.557   0.247  0.5796  0.3993 -0.6900
  878HK4    H2473750  10.394   2.556   0.319 -0.5442 -1.3462  0.6070
  878HK4    C4573751  10.300   2.457   0.151 -0.3288 -0.5992  0.4463
  878HK4    H2573752  10.360   2.365   0.160  0.6004  0.0920  1.5196
  879HK4    H2873753   0.111   2.018   9.169 -2.9790  1.3378 -1.2038
  879HK4    C4873754   0.176   2.093   9.124 -0.2460 -0.3492 -0.2128
  879HK4    C4773755   0.287   2.056   9.050 -0.0897 -0.2683 -0.0186
  879HK4    H2773756   0.301   1.948   9.034  0.6005 -0.1767 -0.0508
  879HK4    C4673757   0.374   2.152   9.000 -0.2194 -0.0532  0.1707
  879HK4    H2673758   0.473   2.123   8.962 -0.0009 -1.1603  1.5369
  879HK4    C4073759   0.345   2.290   9.003 -0.0287  0.0010 -0.3709
  879HK4    C5073760   0.228   2.322   9.075  0.0593 -0.0710 -0.1924
  879HK4    H3073761   0.197   2.427   9.089  0.6976 -0.0083  0.7625
  879HK4    C4973762   0.145   2.228   9.135  0.3851 -0.2221  0.0245
  879HK4    H2973763   0.072   2.261   9.211 -1.1128  0.0931 -1.5199
  879HK4     N273764   0.398   2.380   8.909 -0.6558  0.7164 -0.0485
  879HK4    C3073765   0.383   2.518   8.930 -1.4077  0.6197  0.0468
  879HK4    C2973766   0.406   2.588   9.048  0.3043  0.1042  0.0238
  879HK4    H1573767   0.394   2.531   9.141  0.1081 -1.5848 -1.0184
  879HK4    C2873768   0.422   2.726   9.049  0.3010  0.1048  0.1928
  879HK4    C2773769   0.420   2.792   8.925  0.8482 -0.2127  0.0146
  879HK4    H1473770   0.436   2.899   8.905  1.7032 -0.8564 -3.0636
  879HK4    C3273771   0.407   2.721   8.806 -0.3531  0.0623 -0.0292
  879HK4    H1673772   0.384   2.774   8.713 -2.8751  0.4427  0.7872
  879HK4    C3173773   0.400   2.583   8.802  0.2109  0.0309 -0.0479
  879HK4    C3473774   0.434   2.484   8.701  0.0752  0.2184 -0.2803
  879HK4    C3373775   0.424   2.358   8.772  0.4457  0.4570  0.1958
  879HK4    C3573776   0.471   2.245   8.707  0.0260  0.2848  0.1933
  879HK4    H1773777   0.448   2.146   8.746  3.0430 -0.8249 -0.6572
  879HK4    C3673778   0.527   2.255   8.580  0.1853  0.4965  0.2791
  879HK4    H1873779   0.586   2.166   8.551 -2.8485 -1.6957  0.5574
  879HK4    C3773780   0.527   2.374   8.509 -0.0755  0.0243 -0.5104
  879HK4    H1973781   0.547   2.371   8.402  1.0726 -0.2663 -0.2891
  879HK4    C3873782   0.481   2.490   8.571 -0.1419 -0.0756 -0.3744
  879HK4    H2073783   0.447   2.572   8.508 -0.5533  2.0473  2.5350
  879HK4    C1473784   0.406   2.797   9.177 -0.2144  0.0494  0.1622
  879HK4     C973785   0.343   2.920   9.197  0.0419  0.1700  0.2278
  879HK4     C873786   0.369   3.001   9.310  0.1421  0.2644  0.1362
  879HK4    C1173787   0.455   2.948   9.406 -0.3615 -0.4188  0.2118
  879HK4     H473788   0.468   3.000   9.502 -1.0262  0.7671 -0.3295
  879HK4    C1273789   0.512   2.821   9.396  0.5295  0.0173 -0.2959
  879HK4     H573790   0.548   2.774   9.489  0.2290  0.8208  0.2420
  879HK4    C1373791   0.489   2.748   9.280  0.1485 -0.0539 -0.1759
  879HK4     H673792   0.526   2.645   9.280  3.0240  0.9219  0.8094
  879HK4     C773793   0.322   3.141   9.317 -0.2688  0.1456 -0.1970
  879HK4     O273794   0.308   3.190   9.429 -0.6308 -0.2359 -0.0736
  879HK4     C473795   0.259   3.200   9.197 -0.0802  0.4367 -0.1546
  879HK4     C373796   0.227   3.335   9.193 -0.0960  0.4430  0.1412
  879HK4     H373797   0.262   3.401   9.273 -0.9164  1.0127  0.0398
  879HK4     C273798   0.155   3.392   9.088 -0.0180  0.3370  0.0301
  879HK4     H273799   0.185   3.497   9.070  2.4239 -0.5584 -1.5275
  879HK4     C173800   0.126   3.307   8.982  0.1308 -0.0543  0.2972
  879HK4     H173801   0.083   3.354   8.892  1.8950  1.4457  0.2179
  879HK4     C673802   0.154   3.169   8.978  0.5319  0.0369 -0.0487
  879HK4     C573803   0.217   3.116   9.092 -0.3274 -0.1021  0.3701
  879HK4    C1073804   0.239   2.969   9.103  0.2085 -0.0590 -0.0765
  879HK4     O173805   0.141   2.895   9.104  0.1369  0.0402  0.4519
  879HK4    C1673806   0.165   3.103   8.847  0.0619  0.1151 -0.1298
  879HK4    C1573807   0.232   3.172   8.744 -0.2316  0.4920 -0.0645
  879HK4     H773808   0.287   3.265   8.765 -1.4211  1.5048 -1.2669
  879HK4    C2073809   0.248   3.113   8.619 -0.3781  0.2906  0.0123
  879HK4     H973810   0.294   3.176   8.544  0.5792 -0.8134 -0.3358
  879HK4    C1973811   0.206   2.985   8.584  0.4634 -0.0457  0.2177
  879HK4    C1873812   0.132   2.919   8.691 -0.4041  0.1525 -0.2553
  879HK4    C1773813   0.121   2.975   8.818 -0.3900  0.3157 -0.3262
  879HK4     H873814   0.046   2.929   8.882 -0.2063  0.9467  0.3394
  879HK4     N173815   0.079   2.798   8.643 -0.1183  0.0028 -0.1895
  879HK4    C2173816   0.140   2.777   8.517  0.1043 -0.0059 -0.0812
  879HK4    C2273817   0.215   2.893   8.473 -0.7936  0.4836 -0.3287
  879HK4    C2673818   0.288   2.905   8.355 -0.1904 -0.0626 -0.0172
  879HK4    H1373819   0.355   2.987   8.332  0.8528 -1.1492 -0.8894
  879HK4    C2573820   0.297   2.789   8.280  0.2931 -0.3979  0.5557
  879HK4    H1273821   0.367   2.785   8.196  0.0778 -0.8856  0.3920
  879HK4    C2473822   0.233   2.671   8.319  0.1273 -0.3817  0.3381
  879HK4    H1173823   0.243   2.578   8.261  0.7869  0.0186 -0.2083
  879HK4    C2373824   0.154   2.667   8.433  0.0340 -0.2895  0.2780
  879HK4    H1073825   0.108   2.574   8.467 -2.2336  0.3309 -1.0097
  879HK4    C3973826   0.009   2.703   8.719  0.3113 -0.2184 -0.0678
  879HK4    C4173827  11.159   2.621   8.660  0.1028 -0.1810  0.2277
  879HK4    H2173828  11.142   2.638   8.552 -0.1811  1.2669  0.4862
  879HK4    C4273829  11.113   2.503   8.717  0.1082 -0.5391 -0.4955
  879HK4    H2273830  11.047   2.435   8.661  0.3925 -1.5604  0.4091
  879HK4    C4373831  11.158   2.464   8.843 -0.3676 -0.0506 -0.1700
  879HK4    H2373832  11.131   2.369   8.888 -1.1855 -0.1151 -0.7748
  879HK4    C4473833  11.247   2.548   8.908 -0.5656 -0.1195  0.1941
  879HK4    H2473834   0.024   2.525   9.012  0.1174 -2.6712 -0.5083
  879HK4    C4573835   0.047   2.665   8.849 -0.4698 -0.1687  0.1694
  879HK4    H2573836   0.123   2.724   8.901 -1.6049  2.1815 -0.7432
  880HK4    H2873837   0.586   7.861   5.871  0.4106  0.1327  0.8402
  880HK4    C4873838   0.570   7.767   5.923 -0.2059 -0.3291 -0.1550
  880HK4    C4773839   0.442   7.724   5.953 -0.4639  0.3492 -0.2894
  880HK4    H2773840   0.372   7.809   5.962  0.5791  1.1425  0.5181
  880HK4    C4673841   0.414   7.589   5.937  0.6252  0.1024 -0.1168
  880HK4    H2673842   0.319   7.546   5.971 -0.4877  2.0691 -0.6403
  880HK4    C4073843   0.503   7.491   5.887 -0.2483 -0.3566 -0.8004
  880HK4    C5073844   0.633   7.534   5.854 -0.2488  0.0004 -0.3414
  880HK4    H3073845   0.709   7.462   5.823 -1.0915 -0.0549 -2.3163
  880HK4    C4973846   0.659   7.668   5.884  0.1713 -0.2760  0.5586
  880HK4    H2973847   0.758   7.703   5.849 -0.7210  1.3934 -0.3493
  880HK4     N273848   0.489   7.355   5.918  0.2350 -0.2269  0.0039
  880HK4    C3073849   0.417   7.314   6.032 -0.1477 -0.3154 -0.2707
  880HK4    C2973850   0.406   7.375   6.156  0.1863 -0.3433 -0.2282
  880HK4    H1573851   0.460   7.470   6.161  0.5809 -0.5014 -1.3533
  880HK4    C2873852   0.330   7.321   6.260 -0.1818  0.4185 -0.0976
  880HK4    C2773853   0.282   7.189   6.244  0.4597  0.1868 -0.1379
  880HK4    H1473854   0.236   7.129   6.324  1.5401 -0.0746  0.3051
  880HK4    C3273855   0.288   7.130   6.119 -0.8332 -0.3480  0.0514
  880HK4    H1673856   0.281   7.021   6.113  2.0798 -0.7632  3.0486
  880HK4    C3173857   0.347   7.189   6.008 -0.2760 -0.3638  0.3438
  880HK4    C3473858   0.374   7.157   5.869  0.1610  0.2899  0.2718
  880HK4    C3373859   0.465   7.258   5.819  0.3844 -0.1169 -0.1416
  880HK4    C3573860   0.513   7.244   5.689  0.4134  0.1582 -0.1604
  880HK4    H1773861   0.587   7.318   5.656  1.6655 -0.7379  0.6029
  880HK4    C3673862   0.478   7.136   5.610  0.2535  0.0196  0.0975
  880HK4    H1873863   0.534   7.123   5.516 -0.0518  0.6850 -0.1837
  880HK4    C3773864   0.378   7.049   5.652 -0.1906  0.3769 -0.2273
  880HK4    H1973865   0.349   6.969   5.585 -0.7263  0.2108  0.1966
  880HK4    C3873866   0.327   7.060   5.781  0.0341  0.7518 -0.1692
  880HK4    H2073867   0.252   6.989   5.815  1.4015 -0.2913  0.6949
  880HK4    C1473868   0.322   7.386   6.391 -0.0324  0.2912 -0.0245
  880HK4     C973869   0.295   7.338   6.520 -0.1152 -0.1042 -0.1898
  880HK4     C873870   0.231   7.419   6.616  0.1914 -0.0208 -0.0550
  880HK4    C1173871   0.205   7.551   6.582  0.0342  0.0785  0.4424
  880HK4     H473872   0.168   7.626   6.653  0.1150 -1.7050  2.3864
  880HK4    C1273873   0.243   7.606   6.460  0.5387 -0.1838  0.4822
  880HK4     H573874   0.207   7.705   6.429  0.1868 -0.4962 -0.1225
  880HK4    C1373875   0.306   7.524   6.367 -0.1921  0.2152 -0.3672
  880HK4     H673876   0.367   7.570   6.287 -1.3123  0.5470 -1.0357
  880HK4     C773877   0.205   7.368   6.752 -0.1469  0.1467 -0.0558
  880HK4     O273878   0.112   7.423   6.811 -0.6296  0.2213 -0.8866
  880HK4     C473879   0.251   7.234   6.796 -0.6065 -0.1627 -0.5112
  880HK4     C373880   0.242   7.191   6.928  0.0666 -0.1080 -0.4434
  880HK4     H373881   0.229   7.262   7.011  2.2032  0.5178 -0.6189
  880HK4     C273882   0.278   7.062   6.962  0.1684  0.0087 -0.1139
  880HK4     H273883   0.258   7.027   7.064 -1.5260 -0.3092 -0.5444
  880HK4     C173884   0.304   6.963   6.867 -0.5297 -0.4723  0.1888
  880HK4     H173885   0.316   6.857   6.893 -1.8762 -1.3147 -2.4346
  880HK4     C673886   0.303   7.009   6.734  0.3500 -0.0770  0.3069
  880HK4     C573887   0.295   7.144   6.697 -1.0241 -0.3689 -0.5058
  880HK4    C1073888   0.336   7.202   6.567 -0.0372 -0.0346 -0.0492
  880HK4     O173889   0.436   7.154   6.513 -0.0616 -0.0459 -0.0825
  880HK4    C1673890   0.308   6.906   6.629  0.2603  0.1918  0.0376
  880HK4    C1573891   0.359   6.777   6.657 -0.0907 -0.0100 -0.2414
  880HK4     H773892   0.449   6.773   6.720  0.5422 -2.9465 -1.2844
  880HK4    C2073893   0.314   6.668   6.584  0.1764 -0.2642 -0.0247
  880HK4     H973894   0.336   6.568   6.622  0.6040 -0.1959 -0.0869
  880HK4    C1973895   0.231   6.683   6.473 -0.3341 -0.4272  0.3375
  880HK4    C1873896   0.175   6.813   6.446  0.7262 -0.0673 -0.1635
  880HK4    C1773897   0.218   6.920   6.524  0.4917  0.0400 -0.1807
  880HK4     H873898   0.182   7.020   6.500  2.3057  0.8596  0.4190
  880HK4     N173899   0.090   6.807   6.334 -0.5618 -0.1187  0.8054
  880HK4    C2173900   0.083   6.670   6.299 -0.2154  0.0446  0.0959
  880HK4    C2273901   0.179   6.592   6.373 -0.1849 -0.0706 -0.0661
  880HK4    C2673902   0.176   6.453   6.365  0.2375 -0.0523 -0.6003
  880HK4    H1373903   0.249   6.393   6.420 -0.8616  0.0840  1.0515
  880HK4    C2573904   0.075   6.388   6.295 -0.3813  0.3447 -0.0859
  880HK4    H1273905   0.099   6.290   6.251  1.5133  2.0302 -2.9810
  880HK4    C2473906  11.232   6.462   6.220 -0.0121  0.2612 -0.6190
  880HK4    H1173907  11.151   6.403   6.176  0.3578 -1.8089  1.3735
  880HK4    C2373908  11.233   6.601   6.228 -0.6098  0.2070  0.4818
  880HK4    H1073909  11.147   6.641   6.176 -1.4719 -0.3445  1.4630
  880HK4    C3973910   0.029   6.915   6.269  0.2065 -0.0457  0.2009
  880HK4    C4173911   0.002   6.904   6.131 -0.3357  0.1655  0.2915
  880HK4    H2173912   0.068   6.839   6.072 -1.4776 -0.9560  0.2302
  880HK4    C4273913  11.152   6.976   6.064  0.1005  0.4684 -0.0277
  880HK4    H2273914  11.148   6.987   5.955  1.2138  0.7679 -0.0362
  880HK4    C4373915  11.071   7.064   6.136 -0.0482  0.2924  0.0251
  880HK4    H2373916  10.988   7.122   6.095 -0.4412 -1.1286 -1.2168
  880HK4    C4473917  11.100   7.088   6.269  0.4486 -0.3310  0.0279
  880HK4    H2473918  11.035   7.134   6.344  1.9924  0.8952  0.6411
  880HK4    C4573919  11.200   7.014   6.333  0.4336 -0.0129  0.4244
  880HK4    H2573920  11.202   7.016   6.443  2.1413 -0.4040  0.4102
  881HK4    H2873921   7.588   6.044  10.259 -1.8247 -1.9247  0.3997
  881HK4    C4873922   7.663   5.964  10.267  0.0250 -0.2680 -0.0812
  881HK4    C4773923   7.652   5.868  10.167  0.1094 -0.2213 -0.1353
  881HK4    H2773924   7.610   5.906  10.073 -0.5558  0.5403  0.4616
  881HK4    C4673925   7.727   5.752  10.173 -0.3697 -0.5200  0.1438
  881HK4    H2673926   7.743   5.690  10.083 -2.3796  0.1290 -0.6737
  881HK4    C4073927   7.805   5.727  10.288 -0.1219 -0.2938  0.0290
  881HK4    C5073928   7.813   5.826  10.388 -0.1836 -0.0694 -0.1866
  881HK4    H3073929   7.828   5.793  10.492  1.0567 -3.4502 -1.3735
  881HK4    C4973930   7.752   5.950  10.372 -0.2499 -0.0539  0.1841
  881HK4    H2973931   7.763   6.023  10.454 -1.2085  0.3962 -0.0839
  881HK4     N273932   7.875   5.610  10.319 -0.1697 -0.2738  0.2122
  881HK4    C3073933   7.837   5.483  10.270  0.3067 -0.3438  0.0178
  881HK4    C2973934   7.713   5.434  10.231  0.0055  0.2388  0.2391
  881HK4    H1573935   7.623   5.485  10.264 -1.5425 -1.6227 -1.0293
  881HK4    C2873936   7.701   5.311  10.168 -0.0098  0.2010  0.3133
  881HK4    C2773937   7.810   5.222  10.156 -0.0005  0.2371  0.1394
  881HK4    H1473938   7.794   5.126  10.106  3.1034 -1.3258  2.0215
  881HK4    C3273939   7.933   5.265  10.204  0.2365 -0.4991  0.1954
  881HK4    H1673940   8.026   5.209  10.196  1.7044  2.2166 -2.7865
  881HK4    C3173941   7.949   5.391  10.262  0.1268 -0.6006  0.4480
  881HK4    C3473942   8.053   5.467  10.328  0.2608 -0.0854 -0.3462
  881HK4    C3373943   8.010   5.603  10.359 -0.1497 -0.3192  0.1367
  881HK4    C3573944   8.102   5.696  10.405  0.0865  0.0128 -0.9698
  881HK4    H1773945   8.069   5.794  10.440  0.3541 -0.1766 -0.1529
  881HK4    C3673946   8.236   5.662  10.415 -0.1275 -0.3945  0.6665
  881HK4    H1873947   8.312   5.742  10.418  0.5417 -1.0237  0.6462
  881HK4    C3773948   8.276   5.530  10.395 -0.1046 -0.3608  0.4929
  881HK4    H1973949   8.376   5.496  10.423 -0.1812  0.3078  1.6030
  881HK4    C3873950   8.187   5.437  10.344  0.1528 -0.3621  0.0393
  881HK4    H2073951   8.216   5.332  10.335 -0.5804 -0.4909 -0.9050
  881HK4    C1473952   7.570   5.279  10.108  0.2159 -0.4930  0.1833
  881HK4     C973953   7.521   5.151  10.081  0.1614 -0.3994 -0.1592
  881HK4     C873954   7.436   5.124   9.971 -0.4552  0.3109  0.1335
  881HK4    C1173955   7.394   5.229   9.890 -0.3963  0.2157 -0.0195
  881HK4     H473956   7.333   5.212   9.801 -0.7744  0.6727  0.1511
  881HK4    C1273957   7.424   5.360   9.927 -0.2201  0.1669  0.0093
  881HK4     H573958   7.380   5.443   9.869 -1.0254 -0.7848 -0.7688
  881HK4    C1373959   7.510   5.382  10.033 -0.1045 -0.7364  0.1112
  881HK4     H673960   7.517   5.482  10.078 -0.2142  0.0329 -1.5544
  881HK4     C773961   7.373   4.993   9.945 -0.3598  0.2103  0.4114
  881HK4     O273962   7.300   4.977   9.847  0.2662  0.9493 -0.1903
  881HK4     C473963   7.398   4.889  10.047  0.2599  0.0185  0.0634
  881HK4     C373964   7.350   4.760  10.026 -0.3720  0.2823 -0.1028
  881HK4     H373965   7.346   4.713   9.927 -2.2826 -1.3841  0.7050
  881HK4     C273966   7.322   4.674  10.132 -0.0023  0.1738 -0.0922
  881HK4     H273967   7.335   4.566  10.115  0.3714 -0.1676  2.2867
  881HK4     C173968   7.321   4.726  10.261  0.2261 -0.6663  0.2441
  881HK4     H173969   7.265   4.663  10.332  1.0669 -1.6028  0.0893
  881HK4     C673970   7.366   4.857  10.286 -0.1948 -0.4564 -0.0959
  881HK4     C573971   7.416   4.933  10.179  0.4456 -0.4579  0.1988
  881HK4    C1073972   7.503   5.053  10.192 -0.4831  0.2115  0.2852
  881HK4     O173973   7.582   5.057  10.287  0.2203  0.3010 -0.2977
  881HK4    C1673974   7.367   4.907  10.424 -0.1008 -0.0194 -0.2574
  881HK4    C1573975   7.370   4.817  10.532  0.2122  0.2404 -0.0506
  881HK4     H773976   7.392   4.710  10.517  1.1106 -0.2001  3.8364
  881HK4    C2073977   7.338   4.864  10.659 -0.0678 -0.0168 -0.0222
  881HK4     H973978   7.315   4.793  10.738  2.2585 -1.0143 -0.2033
  881HK4    C1973979   7.316   5.000  10.682 -0.3212 -0.0219 -0.2465
  881HK4    C1873980   7.308   5.092  10.570  0.0523  0.7043  0.3204
  881HK4    C1773981   7.328   5.039  10.442 -0.1941 -0.1704  0.6382
  881HK4     H873982   7.281   5.101  10.366 -0.1421  1.2278  1.7238
  881HK4     N173983   7.277   5.224  10.605  0.3388  0.8305  0.1024
  881HK4    C2173984   7.268   5.225  10.746  0.3050  0.2819  0.1020
  881HK4    C2273985   7.277   5.087  10.791 -0.2717  0.1015 -0.3259
  881HK4    C2673986   7.267   5.068  10.928  0.0186 -0.3169 -0.3617
  881HK4    H1373987   7.300   4.972  10.968  2.9809  0.4079 -0.9676
  881HK4    C2573988   7.238   5.176  11.011 -0.3237 -0.3169 -0.4819
  881HK4    H1273989   7.189   5.174  11.108  0.1144  3.2852 -0.1278
  881HK4    C2473990   7.246   5.307  10.965  0.0565 -0.3118 -0.4006
  881HK4    H1173991   7.256   5.388  11.039 -1.9899  0.4911 -0.9652
  881HK4    C2373992   7.255   5.335  10.830 -0.4243  0.4818 -0.2701
  881HK4    H1073993   7.289   5.432  10.795  1.1867  0.0022 -0.0798
  881HK4    C3973994   7.262   5.337  10.524 -0.7934  0.0058 -0.8403
  881HK4    C4173995   7.189   5.454  10.555  0.0740  0.1331  0.7795
  881HK4    H2173996   7.106   5.453  10.627 -1.2275 -1.0664 -0.7059
  881HK4    C4273997   7.203   5.569  10.477 -0.6726 -0.3500 -0.0746
  881HK4    H2273998   7.152   5.663  10.497  2.0302  0.9851  0.7754
  881HK4    C4373999   7.289   5.568  10.367 -0.7484 -0.6460 -0.1288
  881HK4    H2374000   7.296   5.660  10.309 -0.2708 -1.7387 -1.8461
  881HK4    C4474001   7.370   5.458  10.340 -0.1339 -0.1104 -0.4770
  881HK4    H2474002   7.426   5.450  10.245 -1.3593 -2.0252 -1.0832
  881HK4    C4574003   7.351   5.343  10.415  0.1747  0.1246 -0.0431
  881HK4    H2574004   7.427   5.264  10.403  0.3184 -0.1081  2.2103
  882HK4    H2874005  10.987   0.926   3.846 -1.1015 -0.2020 -1.7569
  882HK4    C4874006  11.054   0.942   3.762  0.6465 -0.0284 -0.3602
  882HK4    C4774007  11.185   0.896   3.758  0.4093 -0.7542  0.1449
  882HK4    H2774008  11.212   0.842   3.850 -0.9973  0.5998  1.3759
  882HK4    C4674009   0.033   0.937   3.666  0.3195 -0.4150  0.2028
  882HK4    H2674010   0.135   0.898   3.674  0.0552 -1.1663 -0.0653
  882HK4    C4074011   0.000   1.038   3.573  0.4750  0.1643  0.7688
  882HK4    C5074012  11.117   1.090   3.579  0.4534  0.1577  0.3946
  882HK4    H3074013  11.091   1.179   3.520 -1.6024 -0.3131  0.5792
  882HK4    C4974014  11.025   1.045   3.672  0.0777  0.1374  0.0136
  882HK4    H2974015  10.924   1.089   3.673 -0.0487 -0.1301 -0.8757
  882HK4     N274016   0.093   1.098   3.488  0.1354 -0.0684  0.2311
  882HK4    C3074017   0.231   1.102   3.516  0.1912 -0.1134 -0.0319
  882HK4    C2974018   0.292   1.131   3.638  0.0453 -0.3428  0.0960
  882HK4    H1574019   0.232   1.118   3.728  1.2824 -1.2223  0.7979
  882HK4    C2874020   0.422   1.179   3.651  0.0164 -0.2768  0.1426
  882HK4    C2774021   0.500   1.184   3.534  0.0796  0.5290  0.2184
  882HK4    H1474022   0.610   1.181   3.535  0.0869 -0.4296 -1.2010
  882HK4    C3274023   0.446   1.147   3.411  0.1440 -0.4313  0.4740
  882HK4    H1674024   0.519   1.121   3.335 -0.2045  1.5363 -0.5787
  882HK4    C3174025   0.312   1.114   3.396  0.0925  0.0159 -0.0853
  882HK4    C3474026   0.218   1.125   3.286 -0.1258 -0.2813  0.0694
  882HK4    C3374027   0.088   1.113   3.348 -0.0380 -0.7602  0.1635
  882HK4    C3574028  11.226   1.156   3.273  0.5145  0.2343 -0.0883
  882HK4    H1774029  11.124   1.154   3.312 -0.4222  0.8183 -2.4546
  882HK4    C3674030  11.238   1.198   3.142 -0.2773 -0.3550 -0.3550
  882HK4    H1874031  11.148   1.209   3.080  0.0220 -1.9634 -1.1033
  882HK4    C3774032   0.116   1.214   3.084 -0.1002 -0.3324  0.0364
  882HK4    H1974033   0.123   1.270   2.991  2.0798 -1.9911 -0.8531
  882HK4    C3874034   0.228   1.172   3.155 -0.1002 -0.2600  0.0787
  882HK4    H2074035   0.325   1.170   3.106 -0.1349  4.4997 -0.3733
  882HK4    C1474036   0.472   1.257   3.765 -0.4960  0.1148  0.1064
  882HK4     C974037   0.580   1.346   3.759 -0.3459 -0.0729 -0.0279
  882HK4     C874038   0.662   1.360   3.873  0.1839 -0.2528 -0.3863
  882HK4    C1174039   0.618   1.321   3.999 -0.6009 -0.1548 -0.6268
  882HK4     H474040   0.674   1.349   4.090  0.2423 -4.5857  0.3479
  882HK4    C1274041   0.500   1.248   4.009 -0.4373 -0.3157  0.1657
  882HK4     H574042   0.456   1.232   4.109  1.7143 -1.5222  0.9452
  882HK4    C1374043   0.433   1.213   3.893 -0.2051 -0.3459  0.0400
  882HK4     H674044   0.380   1.116   3.894 -1.2131  0.2090  1.6227
  882HK4     C774045   0.799   1.413   3.853 -0.0342  0.3151 -0.3878
  882HK4     O274046   0.868   1.434   3.953 -0.0458  0.2057 -0.3570
  882HK4     C474047   0.848   1.454   3.720  0.2503  0.8401 -0.1226
  882HK4     C374048   0.981   1.481   3.691  0.4903 -0.7833 -0.5760
  882HK4     H374049   1.049   1.489   3.777  0.0847  1.4299 -0.4140
  882HK4     C274050   1.035   1.509   3.566  0.6514 -0.2790 -0.3957
  882HK4     H274051   1.134   1.555   3.557  0.1839  0.2726 -2.9006
  882HK4     C174052   0.946   1.509   3.460 -0.0937  0.0633  0.2273
  882HK4     H174053   0.982   1.541   3.361 -0.5222  0.2400  0.1278
  882HK4     C674054   0.808   1.489   3.482 -0.1409  0.5005  0.3340
  882HK4     C574055   0.759   1.465   3.611 -0.2375 -0.2725  0.1551
  882HK4    C1074056   0.619   1.424   3.638 -0.2906 -0.2973 -0.1547
  882HK4     O174057   0.527   1.500   3.608 -0.0285  0.0041 -0.1886
  882HK4    C1674058   0.737   1.433   3.366  0.2308 -0.0125  0.3562
  882HK4    C1574059   0.807   1.361   3.267 -0.2699 -0.0313  0.0145
  882HK4     H774060   0.899   1.311   3.301 -0.6520  0.4981  1.8591
  882HK4    C2074061   0.757   1.336   3.140 -0.5818 -0.2447  0.1803
  882HK4     H974062   0.814   1.269   3.075  1.6206  0.2628  1.5566
  882HK4    C1974063   0.636   1.392   3.100 -0.3051  0.1631 -0.0840
  882HK4    C1874064   0.565   1.473   3.196 -0.1055 -0.1113  0.2950
  882HK4    C1774065   0.617   1.488   3.324  0.2710 -0.0868  0.1401
  882HK4     H874066   0.579   1.577   3.374 -2.5989 -0.9968 -0.3296
  882HK4     N174067   0.431   1.493   3.158  0.0814  0.1190 -0.2399
  882HK4    C2174068   0.418   1.436   3.030 -0.3869  0.0156 -0.1476
  882HK4    C2274069   0.542   1.371   2.992 -0.1214  0.6326 -0.3390
  882HK4    C2674070   0.563   1.317   2.865 -0.2100  0.4735 -0.2867
  882HK4    H1374071   0.665   1.308   2.827 -0.6144 -1.0030 -1.0487
  882HK4    C2574072   0.456   1.315   2.776 -0.5208 -0.8490  0.1124
  882HK4    H1274073   0.473   1.270   2.678  0.1918 -1.1329  0.3570
  882HK4    C2474074   0.335   1.376   2.807 -0.0563  0.1843 -0.0928
  882HK4    H1174075   0.256   1.375   2.731 -0.4459 -0.2319  0.3218
  882HK4    C2374076   0.323   1.442   2.929 -0.1659  0.5784 -0.3192
  882HK4    H1074077   0.236   1.509   2.925 -0.1273  0.5791 -1.6267
  882HK4    C3974078   0.326   1.514   3.249 -0.1991 -0.7441 -0.3620
  882HK4    C4174079   0.215   1.590   3.207  0.5153  0.3782 -0.2244
  882HK4    H2174080   0.228   1.657   3.120 -1.2534  0.5259 -0.3802
  882HK4    C4274081   0.096   1.592   3.278  0.2702 -1.1383 -0.5809
  882HK4    H2274082   0.026   1.668   3.241 -2.7289 -3.4485  0.2118
  882HK4    C4374083   0.091   1.526   3.400  0.4675 -0.3757 -0.1576
  882HK4    H2374084   0.008   1.540   3.470  0.0655  2.3207 -1.1094
  882HK4    C4474085   0.202   1.455   3.445  0.2191 -0.3646  0.4785
  882HK4    H2474086   0.202   1.398   3.539  0.2913 -1.8507 -0.4085
  882HK4    C4574087   0.319   1.444   3.371 -0.2004 -0.4214 -0.1767
  882HK4    H2574088   0.401   1.379   3.405 -1.3385 -1.3893  0.7918
  883HK4    H2874089   3.278   5.791  11.218  0.1324  1.1156  0.3186
  883HK4    C4874090   3.306   5.810  11.115 -0.0796  0.0901  0.0617
  883HK4    C4774091   3.435   5.836  11.071 -0.2171  0.1789 -0.2925
  883HK4    H2774092   3.506   5.875  11.146  1.5027 -2.1712 -0.6337
  883HK4    C4674093   3.466   5.831  10.936  0.2634  0.3133 -0.1933
  883HK4    H2674094   3.555   5.888  10.906 -0.1851 -0.0687 -2.3583
  883HK4    C4074095   3.370   5.794  10.840  0.1861 -0.9104  0.3414
  883HK4    C5074096   3.237   5.780  10.884  0.2179 -1.0587  0.3860
  883HK4    H3074097   3.153   5.753  10.818 -0.6843  1.3565  0.4896
  883HK4    C4974098   3.207   5.789  11.020 -0.2565  0.2770  0.2031
  883HK4    H2974099   3.100   5.784  11.044 -0.5226  2.0479 -0.5730
  883HK4     N274100   3.389   5.795  10.701  0.8443  0.0919  0.4283
  883HK4    C3074101   3.479   5.875  10.627  0.4391 -0.0593 -0.2357
  883HK4    C2974102   3.533   5.999  10.655  0.2559 -0.0502  0.0888
  883HK4    H1574103   3.492   6.051  10.742 -0.2533 -1.0646  0.4528
  883HK4    C2874104   3.632   6.056  10.574  0.0955 -0.1166 -0.1510
  883HK4    C2774105   3.669   5.986  10.457 -0.0002  0.0407 -0.2757
  883HK4    H1474106   3.746   6.034  10.394  0.5369  0.3244  0.5794
  883HK4    C3274107   3.611   5.866  10.420 -0.0307 -0.0430  0.0414
  883HK4    H1674108   3.661   5.816  10.337 -1.7615 -2.1231  0.1886
  883HK4    C3174109   3.516   5.808  10.504  0.1444 -0.5148 -0.0862
  883HK4    C3474110   3.447   5.681  10.505 -0.7745 -0.0267 -0.0468
  883HK4    C3374111   3.361   5.682  10.621 -0.1185  0.3105  0.4411
  883HK4    C3574112   3.272   5.577  10.645 -0.0936  0.1493 -0.1857
  883HK4    H1774113   3.212   5.568  10.735  0.2143 -0.0302  0.0046
  883HK4    C3674114   3.265   5.474  10.552 -0.5903  0.1954 -0.1992
  883HK4    H1874115   3.235   5.376  10.594 -2.9521  1.2943  0.7696
  883HK4    C3774116   3.343   5.480  10.437  0.3329  0.2364  0.4174
  883HK4    H1974117   3.350   5.391  10.374 -1.4499  0.1141  0.3537
  883HK4    C3874118   3.437   5.579  10.411  0.3154  0.0748 -0.2842
  883HK4    H2074119   3.510   5.574  10.330  0.1463  0.3481 -0.4494
  883HK4    C1474120   3.689   6.187  10.606 -0.6985  0.1999 -0.0189
  883HK4     C974121   3.739   6.284  10.518 -0.0420 -0.2627 -0.1498
  883HK4     C874122   3.840   6.369  10.567  0.2982 -0.4791 -0.4706
  883HK4    C1174123   3.893   6.361  10.695 -0.8933 -0.4779  0.0322
  883HK4     H474124   3.978   6.424  10.726 -1.2351 -0.3190  0.6442
  883HK4    C1274125   3.843   6.264  10.781  0.3154 -0.8300  0.3457
  883HK4     H574126   3.881   6.259  10.884 -1.4721 -0.5478  1.0311
  883HK4    C1374127   3.744   6.178  10.736  0.0063 -0.1138 -0.3347
  883HK4     H674128   3.696   6.119  10.815 -0.1552 -1.6832 -1.5734
  883HK4     C774129   3.907   6.463  10.474  0.0809  0.2083  0.0602
  883HK4     O274130   3.952   6.568  10.520  0.3626  0.0537  0.1379
  883HK4     C474131   3.878   6.458  10.329  0.1637 -0.3878  0.0635
  883HK4     C374132   3.953   6.535  10.240 -0.2912  0.0759  0.0766
  883HK4     H374133   4.003   6.625  10.277 -2.5587  1.3383  0.1807
  883HK4     C274134   3.966   6.499  10.107  0.1011 -0.6994  0.3167
  883HK4     H274135   4.020   6.570  10.042  0.8939 -0.2507  1.4544
  883HK4     C174136   3.912   6.380  10.060 -0.9458  0.0478 -0.3775
  883HK4     H174137   3.938   6.346   9.959  1.4888 -1.4387  0.7154
  883HK4     C674138   3.825   6.307  10.143 -0.8191  0.0163 -0.2729
  883HK4     C574139   3.806   6.350  10.275 -0.0700 -0.1474 -0.1082
  883HK4    C1074140   3.714   6.283  10.371 -0.2882  0.1515 -0.1110
  883HK4     O174141   3.596   6.266  10.341 -0.4137 -0.1275  0.5203
  883HK4    C1674142   3.821   6.164  10.110 -0.3403 -0.0931  0.1497
  883HK4    C1574143   3.935   6.092  10.068 -0.3555 -0.1538  0.2120
  883HK4     H774144   4.033   6.142  10.062  0.2063 -1.0174  2.1683
  883HK4    C2074145   3.926   5.957  10.039  0.4161 -0.0798 -0.3937
  883HK4     H974146   4.019   5.910  10.006 -1.1059 -0.9790 -3.6816
  883HK4    C1974147   3.800   5.898  10.036  0.3237  0.0775  0.2693
  883HK4    C1874148   3.680   5.978  10.048  0.1051 -0.1825 -0.1525
  883HK4    C1774149   3.695   6.108  10.095 -0.2806 -0.1643 -0.0805
  883HK4     H874150   3.602   6.161  10.116 -0.6546 -0.7207 -0.3368
  883HK4     N174151   3.561   5.906  10.067  0.0534 -0.0703 -0.0527
  883HK4    C2174152   3.603   5.771  10.069  0.4556  0.0619  0.6726
  883HK4    C2274153   3.745   5.764  10.043  0.4761  0.0406  0.7851
  883HK4    C2674154   3.804   5.638  10.038  0.3595 -0.0145  0.7751
  883HK4    H1374155   3.913   5.634  10.031  0.4803  3.6909 -0.8029
  883HK4    C2574156   3.725   5.526  10.056  0.5430 -0.1160  0.9581
  883HK4    H1274157   3.769   5.427  10.045  0.6752 -0.0188  0.6043
  883HK4    C2474158   3.587   5.532  10.078  0.3879  0.1474 -0.0522
  883HK4    H1174159   3.538   5.435  10.093  0.1840  0.0591 -1.2334
  883HK4    C2374160   3.526   5.656  10.084  0.2819  0.0921  0.0124
  883HK4    H1074161   3.421   5.656  10.116  0.4020  0.4457  0.4108
  883HK4    C3974162   3.431   5.939  10.028 -0.0368 -0.7364 -0.3310
  883HK4    C4174163   3.400   6.044   9.938 -0.1555 -0.0687  0.4722
  883HK4    H2174164   3.479   6.074   9.867 -0.9203 -1.6368 -1.0950
  883HK4    C4274165   3.278   6.109   9.936 -0.0556  0.1087 -0.4611
  883HK4    H2274166   3.253   6.171   9.849  0.3080 -0.1393 -0.7435
  883HK4    C4374167   3.185   6.073  10.034  0.3140 -0.0603 -0.1753
  883HK4    H2374168   3.093   6.132  10.031  2.8029  4.1040  0.8243
  883HK4    C4474169   3.210   5.980  10.135 -0.4523 -0.5936 -0.4710
  883HK4    H2474170   3.136   5.975  10.216  0.5107  3.9428  0.8709
  883HK4    C4574171   3.330   5.912  10.123  0.0518  0.1952  0.0354
  883HK4    H2574172   3.356   5.853  10.212  1.0674 -0.2113 -0.5185
  884HK4    H2874173   6.327   5.200   0.027 -0.1749  0.4700  0.2617
  884HK4    C4874174   6.233   5.150   0.049 -0.1444  0.1277 -0.3978
  884HK4    C4774175   6.224   5.011   0.053  0.2528  0.1038 -0.2744
  884HK4    H2774176   6.319   4.955   0.059  0.5743  0.8133  1.8438
  884HK4    C4674177   6.102   4.945   0.067  0.1475  0.3508 -0.0061
  884HK4    H2674178   6.101   4.839   0.039 -1.2360  0.5694 -0.8418
  884HK4    C4074179   5.985   5.019   0.093  0.4268  0.4870  0.8679
  884HK4    C5074180   5.997   5.159   0.091 -0.3748  0.5504  0.2025
  884HK4    H3074181   5.906   5.219   0.081  0.9704  2.4899 -0.8881
  884HK4    C4974182   6.118   5.225   0.068 -0.0688  0.0478  0.3636
  884HK4    H2974183   6.122   5.335   0.065 -1.5271  0.0791 -0.8327
  884HK4     N274184   5.878   4.952   0.153  0.4580 -0.5710 -0.2467
  884HK4    C3074185   5.876   4.836   0.233  0.1740 -0.3497  0.0699
  884HK4    C2974186   5.984   4.770   0.291  0.2579  0.0228  0.3334
  884HK4    H1574187   6.083   4.813   0.302 -0.3693  1.5420  0.1729
  884HK4    C2874188   5.960   4.645   0.347  0.2118 -0.0079  0.2497
  884HK4    C2774189   5.828   4.597   0.361  0.0732  0.2990 -0.0181
  884HK4    H1474190   5.814   4.526   0.444 -1.1988  1.2134  0.5743
  884HK4    C3274191   5.722   4.660   0.298  0.0154  0.0519 -0.1699
  884HK4    H1674192   5.619   4.642   0.329  0.0030  3.0459  1.8760
  884HK4    C3174193   5.745   4.774   0.222 -0.0661  0.1713 -0.0195
  884HK4    C3474194   5.667   4.861   0.137 -0.5684  0.2289  0.5028
  884HK4    C3374195   5.749   4.974   0.098  0.1792 -0.3193  0.4991
  884HK4    C3574196   5.702   5.069   0.009  0.0603 -0.7555  0.0968
  884HK4    H1774197   5.756   5.155  11.218 -2.0388  0.6759  0.2758
  884HK4    C3674198   5.578   5.047  11.199  0.1862  0.3935 -0.6282
  884HK4    H1874199   5.547   5.124  11.127  1.4779  1.6576  0.1409
  884HK4    C3774200   5.498   4.938  11.231 -0.3239  0.8754 -0.2279
  884HK4    H1974201   5.393   4.931  11.203 -0.4898 -2.8090  0.9453
  884HK4    C3874202   5.542   4.845   0.076 -0.1209  0.6488 -0.5476
  884HK4    H2074203   5.485   4.758   0.109  0.6933  0.2617 -0.1249
  884HK4    C1474204   6.072   4.549   0.347  0.4862  0.3084 -0.4358
  884HK4     C974205   6.071   4.417   0.301 -0.1453  0.2127 -0.1539
  884HK4     C874206   6.173   4.327   0.338 -0.2711  0.0931 -0.0910
  884HK4    C1174207   6.259   4.360   0.442 -0.2927  0.0554 -0.0612
  884HK4     H474208   6.337   4.288   0.472  0.0346 -0.2389 -1.5946
  884HK4    C1274209   6.269   4.493   0.481  0.2855  0.0581 -0.2061
  884HK4     H574210   6.359   4.524   0.537  0.9808 -0.8949 -0.7859
  884HK4    C1374211   6.178   4.586   0.431  0.3166  0.1233 -0.1392
  884HK4     H674212   6.190   4.687   0.474 -1.7318 -0.5654  2.1324
  884HK4     C774213   6.191   4.193   0.277 -0.2696 -0.2637  0.6833
  884HK4     O274214   6.299   4.135   0.277 -0.2953 -0.3135  0.0720
  884HK4     C474215   6.077   4.152   0.192 -0.1024 -0.0915  0.3730
  884HK4     C374216   6.087   4.026   0.136 -0.2084 -0.1632  0.5152
  884HK4     H374217   6.180   3.968   0.151  1.8255  2.2125 -2.3308
  884HK4     C274218   5.976   3.970   0.074 -0.1992  0.1566  0.2103
  884HK4     H274219   5.980   3.872   0.024  1.8493  0.7861 -0.9000
  884HK4     C174220   5.854   4.036   0.066 -0.3990 -0.2704 -0.2882
  884HK4     H174221   5.760   3.985   0.039 -1.5020  1.1980  0.6503
  884HK4     C674222   5.842   4.165   0.122  0.1684 -0.2971 -0.1107
  884HK4     C574223   5.957   4.225   0.176  0.0544  0.0344 -0.2371
  884HK4    C1074224   5.966   4.370   0.207  0.0294  0.0413 -0.2655
  884HK4     O174225   5.934   4.443   0.112 -0.2479  0.2196 -0.0367
  884HK4    C1674226   5.705   4.215   0.143  0.2693  0.0206 -0.1852
  884HK4    C1574227   5.666   4.301   0.247 -0.0662 -0.4602  0.0858
  884HK4     H774228   5.733   4.336   0.327  0.6951  1.3162 -1.2902
  884HK4    C2074229   5.536   4.352   0.249  0.2150  0.2566  0.1261
  884HK4     H974230   5.501   4.420   0.326 -1.4300  0.5801 -0.8940
  884HK4    C1974231   5.440   4.302   0.163  0.0145  0.2956  0.3269
  884HK4    C1874232   5.474   4.216   0.051 -0.4822 -0.1349  0.5017
  884HK4    C1774233   5.610   4.188   0.045 -0.3918  0.3286  0.3701
  884HK4     H874234   5.649   4.143  11.202 -1.8809 -1.1506  0.4619
  884HK4     N174235   5.365   4.190  11.215 -0.3442  0.1879  0.2215
  884HK4    C2174236   5.253   4.251   0.027 -0.6284  0.1204 -0.2355
  884HK4    C2274237   5.298   4.325   0.143  0.0423 -0.1004 -0.3506
  884HK4    C2674238   5.216   4.426   0.192  0.1087 -0.1693 -0.0983
  884HK4    H1374239   5.236   4.459   0.294 -0.4814  2.4267 -0.7812
  884HK4    C2574240   5.094   4.455   0.132 -0.0759  0.1785  0.4326
  884HK4    H1274241   5.046   4.549   0.157  0.4960  0.2074  1.4266
  884HK4    C2474242   5.054   4.378   0.023 -0.3966  0.7780  0.1218
  884HK4    H1174243   4.960   4.397  11.218  2.0524  2.2206 -3.9048
  884HK4    C2374244   5.127   4.271  11.220 -0.9431  0.2105  0.5216
  884HK4    H1074245   5.079   4.192  11.162  0.7766  0.4609 -1.2875
  884HK4    C3974246   5.371   4.164  11.077  0.1718  0.2966  0.2235
  884HK4    C4174247   5.267   4.098  11.010  0.0984 -0.1356  0.7594
  884HK4    H2174248   5.207   4.020  11.060 -0.1367  0.1857  0.9830
  884HK4    C4274249   5.242   4.104  10.873 -0.1055  0.3503  0.8192
  884HK4    H2274250   5.172   4.027  10.835 -0.6396  0.7429  0.9915
  884HK4    C4374251   5.336   4.174  10.799 -0.0868 -0.1817  0.3320
  884HK4    H2374252   5.337   4.152  10.693  0.2222  1.0860  0.0636
  884HK4    C4474253   5.450   4.233  10.853 -0.3057  0.8887 -0.3621
  884HK4    H2474254   5.536   4.265  10.792  0.7860 -0.9362  0.1655
  884HK4    C4574255   5.464   4.227  10.991  0.1609 -0.6241 -0.4678
  884HK4    H2574256   5.554   4.261  11.044 -1.5539 -0.5997  2.5799
  885HK4    H2874257   8.786  10.974   2.479 -0.0575 -0.9526 -0.6176
  885HK4    C4874258   8.740  10.947   2.574  0.7137 -0.1554 -0.0016
  885HK4    C4774259   8.786  11.021   2.681  0.4663 -0.0224  0.0133
  885HK4    H2774260   8.859  11.102   2.660  0.8997 -0.3702  0.1719
  885HK4    C4674261   8.774  10.968   2.809 -0.0352  0.0455 -0.0060
  885HK4    H2674262   8.811  11.040   2.884  1.5039  0.1646 -0.8561
  885HK4    C4074263   8.704  10.849   2.838  0.1748 -0.0890 -0.0707
  885HK4    C5074264   8.658  10.775   2.727 -0.1287  0.1612 -0.1136
  885HK4    H3074265   8.630  10.668   2.733  1.6304 -0.2324  2.1308
  885HK4    C4974266   8.680  10.824   2.599  0.6046 -0.1256 -0.1015
  885HK4    H2974267   8.624  10.782   2.514 -1.5824  2.9409 -0.2442
  885HK4     N274268   8.705  10.799   2.968 -0.0428  0.2190  0.0490
  885HK4    C3074269   8.797  10.824   3.073  0.3619 -0.4871 -0.1345
  885HK4    C2974270   8.933  10.849   3.063  0.2757  0.1358  0.2623
  885HK4    H1574271   8.980  10.907   2.984 -0.7971  0.8723  0.1589
  885HK4    C2874272   9.018  10.814   3.168  0.0106  0.0977  0.4620
  885HK4    C2774273   8.962  10.775   3.291 -0.2060 -0.0144  0.3284
  885HK4    H1474274   9.028  10.758   3.378  0.9409  0.5632 -0.4260
  885HK4    C3274275   8.824  10.766   3.306 -0.2809  0.7222  0.0571
  885HK4    H1674276   8.774  10.736   3.398 -0.4789 -2.0911 -0.9384
  885HK4    C3174277   8.737  10.785   3.199 -0.1073 -0.0795 -0.2302
  885HK4    C3474278   8.602  10.739   3.177  0.0194 -0.3964 -0.3458
  885HK4    C3374279   8.594  10.741   3.032 -0.3837  0.4627 -0.3199
  885HK4    C3574280   8.473  10.709   2.972 -0.5354  0.0474  0.2021
  885HK4    H1774281   8.452  10.732   2.868 -0.4161  0.7212  0.3249
  885HK4    C3674282   8.366  10.664   3.049 -0.3986  0.4112  0.6157
  885HK4    H1874283   8.269  10.658   2.996 -0.4770 -0.7152  0.8625
  885HK4    C3774284   8.378  10.649   3.186  0.1800 -0.1811  0.5042
  885HK4    H1974285   8.306  10.589   3.241  0.9858 -1.1359  0.5247
  885HK4    C3874286   8.491  10.699   3.251  0.0929  0.4068  0.2100
  885HK4    H2074287   8.493  10.695   3.360 -2.4828  1.0945  0.3172
  885HK4    C1474288   9.156  10.784   3.128  0.0934  0.5196  0.4330
  885HK4     C974289   9.227  10.683   3.194  0.1977  0.9884  1.0468
  885HK4     C874290   9.367  10.687   3.211  0.3315  0.1727  0.1704
  885HK4    C1174291   9.430  10.795   3.149  0.5788 -0.1258 -0.0981
  885HK4     H474292   9.537  10.794   3.124  0.2514 -0.0314 -1.5892
  885HK4    C1274293   9.367  10.901   3.083  0.1591 -0.3022  0.0140
  885HK4     H574294   9.425  10.982   3.036  0.8423 -0.4655  0.5518
  885HK4    C1374295   9.230  10.889   3.069  0.0011  0.7138  0.6592
  885HK4     H674296   9.185  10.961   2.999 -0.1459  0.3010  0.3265
  885HK4     C774297   9.431  10.589   3.301 -0.1033 -0.9577 -0.7313
  885HK4     O274298   9.549  10.565   3.281  0.1934 -0.4144  0.3259
  885HK4     C474299   9.342  10.508   3.387 -0.4743  0.6640  0.4475
  885HK4     C374300   9.406  10.438   3.489 -0.6377 -0.1058  0.0287
  885HK4     H374301   9.510  10.463   3.514 -0.6673  0.1647 -0.1082
  885HK4     C274302   9.342  10.336   3.557 -0.2977 -0.1906  0.2221
  885HK4     H274303   9.377  10.296   3.654  0.3534 -0.3119 -0.0604
  885HK4     C174304   9.213  10.301   3.521 -0.2324  0.0301 -0.2189
  885HK4     H174305   9.162  10.217   3.570 -0.2033 -0.9254 -1.7776
  885HK4     C674306   9.141  10.378   3.427 -0.3983  0.1042 -0.0353
  885HK4     C574307   9.210  10.473   3.350 -0.1674 -0.0291  0.0060
  885HK4    C1074308   9.157  10.560   3.242  0.5654  0.3499 -0.0487
  885HK4     O174309   9.089  10.503   3.157  0.1987 -0.0007  0.4828
  885HK4    C1674310   9.000  10.401   3.460 -0.1928  1.4487 -0.0681
  885HK4    C1574311   8.955  10.400   3.594 -0.1663  0.7118 -0.0623
  885HK4     H774312   9.030  10.397   3.674  1.2986 -1.3021 -1.4629
  885HK4    C2074313   8.822  10.385   3.629 -0.0635  0.8245  0.3694
  885HK4     H974314   8.789  10.435   3.721 -1.0725 -0.6411  0.8278
  885HK4    C1974315   8.726  10.361   3.532  0.3118 -0.4495  0.3146
  885HK4    C1874316   8.772  10.352   3.394  0.0499  1.1299  0.1212
  885HK4    C1774317   8.907  10.364   3.364  0.1427  0.0816  0.1302
  885HK4     H874318   8.942  10.327   3.267  1.3559  1.8215 -0.1191
  885HK4     N174319   8.667  10.330   3.303  0.2496  0.4236  0.0582
  885HK4    C2174320   8.553  10.323   3.385  0.0668 -0.8084 -0.2936
  885HK4    C2274321   8.582  10.341   3.525  0.2296  0.4088 -0.4767
  885HK4    C2674322   8.485  10.379   3.618  0.2131 -0.1544 -0.2595
  885HK4    H1374323   8.516  10.391   3.722  1.8500  0.7798 -0.8235
  885HK4    C2574324   8.351  10.372   3.584  0.1465  0.3214 -0.1058
  885HK4    H1274325   8.282  10.358   3.668  0.0670 -0.1215 -0.2419
  885HK4    C2474326   8.317  10.349   3.451  0.0708  0.2184 -0.0688
  885HK4    H1174327   8.210  10.350   3.424  0.1391 -1.0760 -0.3981
  885HK4    C2374328   8.417  10.331   3.357  0.0122 -0.6061  0.0255
  885HK4    H1074329   8.389  10.339   3.251 -0.8759 -0.2015  0.2837
  885HK4    C3974330   8.678  10.338   3.163 -0.8350  0.3758 -0.0323
  885HK4    C4174331   8.595  10.266   3.075 -0.6078  0.3075 -0.1929
  885HK4    H2174332   8.527  10.187   3.109  0.0950 -0.2456 -0.0784
  885HK4    C4274333   8.602  10.277   2.936  0.1665  0.2502 -0.1583
  885HK4    H2274334   8.553  10.203   2.872 -0.5035  2.2797 -2.0464
  885HK4    C4374335   8.688  10.370   2.879  0.3526  0.1473 -0.0468
  885HK4    H2374336   8.720  10.368   2.775  1.1919 -1.0149  0.2290
  885HK4    C4474337   8.766  10.449   2.963  0.1709  0.0506  0.2133
  885HK4    H2474338   8.837  10.517   2.915  2.0229 -3.0407 -1.6272
  885HK4    C4574339   8.760  10.434   3.101  0.1859 -0.3561  0.1715
  885HK4    H2574340   8.826  10.504   3.155  0.0189  0.6318 -0.8779
  886HK4    H2874341   1.599   1.519   2.133  0.5268 -1.4725  0.9741
  886HK4    C4874342   1.557   1.566   2.223 -0.1869  0.3337 -0.2854
  886HK4    C4774343   1.592   1.511   2.345 -0.2221  0.4983 -0.2024
  886HK4    H2774344   1.697   1.484   2.365 -0.8794 -1.2740  1.0112
  886HK4    C4674345   1.511   1.549   2.452  0.1289  0.2596  0.1473
  886HK4    H2674346   1.540   1.513   2.552  0.3938  0.7285  0.2429
  886HK4    C4074347   1.401   1.636   2.442 -0.4222 -0.4287  0.1427
  886HK4    C5074348   1.374   1.684   2.312 -0.0053  0.1997  0.2845
  886HK4    H3074349   1.296   1.761   2.301 -1.2337 -0.7132  2.1934
  886HK4    C4974350   1.452   1.654   2.201 -0.3324  0.2403  0.0421
  886HK4    H2974351   1.425   1.702   2.106 -1.0512  1.3609  0.8011
  886HK4     N274352   1.360   1.718   2.548  0.6133 -0.1473  0.3360
  886HK4    C3074353   1.433   1.757   2.662  0.1436 -0.3683  0.7156
  886HK4    C2974354   1.565   1.735   2.701  0.4174 -0.0493 -0.0126
  886HK4    H1574355   1.633   1.697   2.624 -0.1014 -1.1273  0.0415
  886HK4    C2874356   1.614   1.765   2.827  0.0538 -0.0922  0.1411
  886HK4    C2774357   1.524   1.834   2.910  0.4744 -0.3655  0.8380
  886HK4    H1474358   1.564   1.885   2.998  1.5906 -3.6585  2.2965
  886HK4    C3274359   1.391   1.857   2.876  0.7338 -0.4401 -0.2527
  886HK4    H1674360   1.329   1.916   2.945 -0.2883 -1.6861 -0.0839
  886HK4    C3174361   1.338   1.813   2.756 -0.3637 -0.3285  0.1794
  886HK4    C3474362   1.206   1.814   2.696 -0.2503 -0.4177 -0.0767
  886HK4    C3374363   1.224   1.746   2.569  0.5801  0.1645 -0.2751
  886HK4    C3574364   1.110   1.705   2.500  0.2350  0.4150  0.1356
  886HK4    H1774365   1.120   1.653   2.405 -1.8664  2.0201 -1.0185
  886HK4    C3674366   0.986   1.730   2.558  0.2720 -0.4370  0.5754
  886HK4    H1874367   0.894   1.699   2.506  1.0727 -2.0930  0.0894
  886HK4    C3774368   0.968   1.794   2.679 -0.1154 -0.5592  0.5840
  886HK4    H1974369   0.868   1.808   2.719  1.0587  1.3904  3.0232
  886HK4    C3874370   1.080   1.828   2.755 -0.0393 -0.2626  0.3411
  886HK4    H2074371   1.060   1.861   2.857 -0.6414  1.0567 -0.2040
  886HK4    C1474372   1.723   1.681   2.880  0.2428  0.1376  0.1140
  886HK4     C974373   1.713   1.612   3.001  0.0798 -0.2903 -0.1414
  886HK4     C874374   1.830   1.590   3.077  0.0854 -0.0951 -0.0935
  886HK4    C1174375   1.954   1.606   3.016  0.2757 -0.7362  0.1229
  886HK4     H474376   2.045   1.566   3.063  0.3490 -1.4083 -0.5804
  886HK4    C1274377   1.964   1.677   2.897  0.2330 -0.0286  0.5388
  886HK4     H574378   2.061   1.723   2.871  0.6306 -2.3903 -2.4545
  886HK4    C1374379   1.850   1.713   2.826  0.3697  0.0492  0.3583
  886HK4     H674380   1.863   1.753   2.724 -2.3835  0.0992 -0.0108
  886HK4     C774381   1.820   1.539   3.216  0.0651  0.1197 -0.0150
  886HK4     O274382   1.923   1.534   3.283  0.1652  0.5338 -0.1334
  886HK4     C474383   1.684   1.517   3.270  0.1691 -0.1427  0.1434
  886HK4     C374384   1.671   1.473   3.401  0.0779  0.1233  0.2253
  886HK4     H374385   1.761   1.441   3.455  0.8593  1.7473 -0.1067
  886HK4     C274386   1.554   1.429   3.461 -0.2742  0.5801 -0.1190
  886HK4     H274387   1.553   1.386   3.563  1.1543 -1.2242 -0.8365
  886HK4     C174388   1.440   1.445   3.383 -0.4476  0.2020  0.0504
  886HK4     H174389   1.340   1.425   3.423 -0.3625 -0.7721 -0.2137
  886HK4     C674390   1.442   1.491   3.249 -0.0738 -0.0496 -0.0317
  886HK4     C574391   1.567   1.514   3.191  0.0248  0.3540  0.3336
  886HK4    C1074392   1.584   1.556   3.049  0.1344 -0.1263  0.2035
  886HK4     O174393   1.535   1.481   2.964  0.0550 -0.1847  0.3008
  886HK4    C1674394   1.323   1.569   3.214  0.1296  0.1284 -0.3296
  886HK4    C1574395   1.257   1.661   3.298 -0.5251 -0.3208 -0.3460
  886HK4     H774396   1.315   1.701   3.382 -0.6372 -1.8327  0.4790
  886HK4    C2074397   1.127   1.703   3.271 -0.2984  0.6427  0.0326
  886HK4     H974398   1.062   1.762   3.335  0.6574  0.5902  1.0593
  886HK4    C1974399   1.059   1.657   3.159 -0.2744 -0.2687  0.3877
  886HK4    C1874400   1.125   1.566   3.066 -0.2238 -0.3250  0.4782
  886HK4    C1774401   1.254   1.527   3.101  0.1029  0.0535 -0.2857
  886HK4     H874402   1.296   1.457   3.028  1.2231  1.6177 -1.1464
  886HK4     N174403   1.039   1.532   2.960  0.5001 -0.4412 -0.0731
  886HK4    C2174404   0.920   1.597   2.997  0.6212 -0.0271 -0.4022
  886HK4    C2274405   0.923   1.680   3.115 -0.1513 -0.4313 -0.0937
  886HK4    C2674406   0.821   1.766   3.156  0.3140  0.3638 -0.5888
  886HK4    H1374407   0.829   1.827   3.246 -1.9422  0.7121 -0.5958
  886HK4    C2574408   0.715   1.775   3.068 -0.2654  0.3325  0.0996
  886HK4    H1274409   0.625   1.831   3.094 -1.7045 -2.5389  1.5365
  886HK4    C2474410   0.704   1.699   2.951  0.6284  0.1796  0.1169
  886HK4    H1174411   0.616   1.724   2.891 -0.2241  1.0712  1.6913
  886HK4    C2374412   0.809   1.615   2.915  0.4103  0.0068 -0.1121
  886HK4    H1074413   0.827   1.602   2.808  0.0514  1.7314 -0.4030
  886HK4    C3974414   1.066   1.463   2.841  0.2174 -0.0196 -0.3806
  886HK4    C4174415   1.186   1.454   2.768  0.8249  0.0481  0.6025
  886HK4    H2174416   1.256   1.536   2.788  0.0152  1.2049 -1.1653
  886HK4    C4274417   1.212   1.382   2.651 -0.2843  0.1382  0.2949
  886HK4    H2274418   1.308   1.385   2.598 -0.7376 -2.6107 -0.7578
  886HK4    C4374419   1.114   1.292   2.609  0.1516 -0.2513  0.1166
  886HK4    H2374420   1.126   1.240   2.514  1.4846  2.1147 -1.0481
  886HK4    C4474421   0.997   1.283   2.684  0.3309 -0.2152  0.4024
  886HK4    H2474422   0.917   1.215   2.654 -0.2904  2.1598 -3.6589
  886HK4    C4574423   0.974   1.368   2.792 -0.2364  0.2701 -0.0992
  886HK4    H2574424   0.883   1.352   2.851 -0.0813 -0.8549 -0.1608
  887HK4    H2874425   3.611   4.323   2.586  0.9345  0.9494  0.4436
  887HK4    C4874426   3.672   4.261   2.520 -0.2356  0.7128 -0.4293
  887HK4    C4774427   3.630   4.231   2.391  0.2336  0.3122 -0.4915
  887HK4    H2774428   3.525   4.247   2.362 -0.3557  1.2691  2.0181
  887HK4    C4674429   3.719   4.168   2.304  0.4994  0.2911 -0.2031
  887HK4    H2674430   3.681   4.144   2.204 -1.0301  0.2029  0.3713
  887HK4    C4074431   3.852   4.130   2.331  0.4285  0.1300 -0.0769
  887HK4    C5074432   3.892   4.165   2.462 -0.2203  0.6576 -0.0165
  887HK4    H3074433   3.993   4.146   2.500 -0.1749  2.1648  0.6671
  887HK4    C4974434   3.804   4.227   2.550 -0.5435 -0.0015  0.1318
  887HK4    H2974435   3.840   4.221   2.653 -0.8614 -3.1995  0.0817
  887HK4     N274436   3.907   4.015   2.274 -0.0081  0.1821 -0.6024
  887HK4    C3074437   3.848   3.901   2.215 -0.4790 -0.0079  0.2186
  887HK4    C2974438   3.717   3.856   2.221 -0.4015 -0.3048 -0.2336
  887HK4    H1574439   3.645   3.912   2.281  0.5151 -0.5228  1.0839
  887HK4    C2874440   3.689   3.733   2.165  0.2616 -0.7954  0.5004
  887HK4    C2774441   3.784   3.654   2.097 -0.1116 -0.7017 -0.1370
  887HK4    H1474442   3.748   3.566   2.042 -0.3100 -0.5748 -0.2101
  887HK4    C3274443   3.911   3.704   2.074 -0.6068  0.4729 -0.3467
  887HK4    H1674444   3.979   3.667   1.997  0.3047  1.6108 -0.1170
  887HK4    C3174445   3.938   3.831   2.126 -0.3934  0.2452  0.1032
  887HK4    C3474446   4.062   3.905   2.140  0.2245 -0.8061  0.2650
  887HK4    C3374447   4.039   4.019   2.227  0.2001 -0.5482 -0.0779
  887HK4    C3574448   4.150   4.094   2.262 -0.0996 -0.1736  0.0688
  887HK4    H1774449   4.151   4.182   2.327 -0.3829  1.3364 -1.8867
  887HK4    C3674450   4.271   4.061   2.201 -0.3889 -0.6124 -0.2665
  887HK4    H1874451   4.355   4.132   2.208  0.2650 -1.1981 -1.8546
  887HK4    C3774452   4.298   3.945   2.129  0.1000 -0.5608 -0.1676
  887HK4    H1974453   4.397   3.902   2.118 -0.3708 -2.2455  1.8812
  887HK4    C3874454   4.188   3.866   2.097  0.0922 -0.4253 -0.4790
  887HK4    H2074455   4.200   3.779   2.032 -2.5071 -1.0449 -0.1491
  887HK4    C1474456   3.559   3.676   2.205  0.0862 -0.4608  0.4036
  887HK4     C974457   3.534   3.540   2.220 -0.1416 -0.4810 -0.1487
  887HK4     C874458   3.404   3.488   2.200 -0.4690 -0.0177  0.7408
  887HK4    C1174459   3.302   3.578   2.169 -0.0278  0.3706  0.4009
  887HK4     H474460   3.208   3.544   2.123 -0.5281  1.7012  0.4223
  887HK4    C1274461   3.326   3.714   2.162  0.5306  0.2657  0.2411
  887HK4     H574462   3.249   3.785   2.127  0.0994  0.1562  0.9641
  887HK4    C1374463   3.452   3.767   2.186  0.6676  0.1139 -0.1364
  887HK4     H674464   3.460   3.875   2.203  2.0867 -0.0056  0.0939
  887HK4     C774465   3.387   3.341   2.199  0.2827 -0.1074  0.6022
  887HK4     O274466   3.272   3.303   2.223  0.1117  0.2332  0.3396
  887HK4     C474467   3.507   3.255   2.203  0.1746 -0.2994 -0.1219
  887HK4     C374468   3.481   3.119   2.191  0.1609 -0.3331  0.2989
  887HK4     H374469   3.381   3.080   2.169  0.6794 -1.1124 -0.7001
  887HK4     C274470   3.579   3.023   2.214 -0.0375 -0.6539 -0.2123
  887HK4     H274471   3.557   2.915   2.210 -1.0525 -0.4592 -0.1455
  887HK4     C174472   3.704   3.071   2.247 -0.2810  0.1528 -0.4539
  887HK4     H174473   3.787   3.000   2.259 -1.7598 -1.0716  3.3005
  887HK4     C674474   3.734   3.208   2.267  0.1751 -0.0126  0.0065
  887HK4     C574475   3.633   3.302   2.246 -0.0009 -0.1515  0.2285
  887HK4    C1074476   3.643   3.449   2.267  0.2009 -0.1028 -0.2181
  887HK4     O174477   3.714   3.481   2.362 -0.0854  0.2747 -0.1279
  887HK4    C1674478   3.871   3.239   2.312  0.4151 -0.4536 -0.4117
  887HK4    C1574479   3.938   3.159   2.406  0.0844 -0.3765 -0.1089
  887HK4     H774480   3.876   3.097   2.473 -0.7852 -1.0754 -1.5264
  887HK4    C2074481   4.076   3.154   2.416  0.1059 -0.2528 -0.3342
  887HK4     H974482   4.128   3.086   2.484 -0.1443 -0.4738 -0.3646
  887HK4    C1974483   4.156   3.223   2.326  0.0272 -0.3504 -0.4780
  887HK4    C1874484   4.091   3.305   2.226 -0.0011 -0.0102 -0.1811
  887HK4    C1774485   3.952   3.318   2.231  0.0719  0.6304  0.2876
  887HK4     H874486   3.905   3.410   2.198  0.1658  0.5003 -0.2034
  887HK4     N174487   4.182   3.393   2.164  0.1069 -0.1932 -0.2799
  887HK4    C2174488   4.298   3.380   2.243 -0.2270 -0.3205  0.1909
  887HK4    C2274489   4.295   3.265   2.331  0.1075 -0.6457 -0.2222
  887HK4    C2674490   4.408   3.226   2.402 -0.0582 -0.0168  0.3930
  887HK4    H1374491   4.415   3.125   2.442 -2.8765 -0.0457  0.9235
  887HK4    C2574492   4.525   3.301   2.393  0.0619 -0.2411  0.0721
  887HK4    H1274493   4.611   3.276   2.456  0.7033  1.6781 -0.0151
  887HK4    C2474494   4.526   3.409   2.306 -0.5071 -0.1445  0.1889
  887HK4    H1174495   4.622   3.461   2.302  0.3657 -1.5731  1.9169
  887HK4    C2374496   4.418   3.449   2.228 -0.5767  0.3632  0.5455
  887HK4    H1074497   4.414   3.545   2.177 -0.6791  0.1726  0.1975
  887HK4    C3974498   4.183   3.395   2.024  0.4577 -0.4523 -0.2821
  887HK4    C4174499   4.253   3.498   1.958 -0.4169  0.1652 -0.2605
  887HK4    H2174500   4.298   3.575   2.021  1.7920 -1.8945  0.7717
  887HK4    C4274501   4.272   3.507   1.820  0.2350  0.4635 -0.1547
  887HK4    H2274502   4.334   3.592   1.789 -1.8318  2.1292  0.1910
  887HK4    C4374503   4.211   3.414   1.737  0.4440  0.4875 -0.3353
  887HK4    H2374504   4.212   3.437   1.630 -0.6810 -2.5513 -1.0502
  887HK4    C4474505   4.132   3.318   1.800  0.9141  0.1205 -0.3083
  887HK4    H2474506   4.086   3.244   1.733  0.5583 -0.4485  0.5529
  887HK4    C4574507   4.113   3.308   1.937 -0.0359  0.0962 -0.4362
  887HK4    H2574508   4.046   3.235   1.985  0.9955 -0.4541  0.1926
  888HK4    H2874509   2.554   5.524  10.872 -0.9334  2.0568  0.3521
  888HK4    C4874510   2.641   5.526  10.938 -0.4594 -0.0384 -0.1571
  888HK4    C4774511   2.737   5.426  10.933 -0.3247  0.0423  0.7031
  888HK4    H2774512   2.704   5.339  10.875 -0.3523 -0.7392  1.8711
  888HK4    C4674513   2.830   5.399  11.032  0.1934 -0.5625  0.0555
  888HK4    H2674514   2.898   5.312  11.027 -0.2079 -0.7571 -2.4218
  888HK4    C4074515   2.817   5.483  11.144  0.1671 -0.1811 -0.2325
  888HK4    C5074516   2.721   5.586  11.155  0.2135 -0.1288 -0.3262
  888HK4    H3074517   2.700   5.637   0.002  1.6530  2.0327 -1.1287
  888HK4    C4974518   2.638   5.613  11.047  0.0186 -0.0269 -0.1544
  888HK4    H2974519   2.583   5.708  11.047 -1.5888 -0.9372 -0.3193
  888HK4     N274520   2.906   5.469   0.004  0.5163 -0.0990 -0.5094
  888HK4    C3074521   2.947   5.347   0.062 -0.4643 -0.2323 -0.0884
  888HK4    C2974522   2.874   5.228   0.062  0.3346 -0.7236  0.1436
  888HK4    H1574523   2.799   5.217  11.232  1.7256 -2.5542 -0.9802
  888HK4    C2874524   2.891   5.136   0.164 -0.0071 -0.6757  0.2409
  888HK4    C2774525   2.981   5.162   0.270  0.2385 -0.1669 -0.0947
  888HK4    H1474526   2.981   5.097   0.358  1.1773 -0.4424 -0.2964
  888HK4    C3274527   3.054   5.280   0.273 -0.1186  0.0596 -0.2204
  888HK4    H1674528   3.130   5.300   0.349 -0.0080 -0.7694 -0.1051
  888HK4    C3174529   3.035   5.375   0.173 -0.6646  0.1541 -0.0273
  888HK4    C3474530   3.054   5.519   0.177  0.4584  0.0188 -0.2879
  888HK4    C3374531   2.976   5.573   0.068  0.0094 -0.0616 -0.0091
  888HK4    C3574532   2.971   5.712   0.063 -0.0464 -0.0652 -0.0574
  888HK4    H1774533   2.912   5.748  11.227  0.8988 -0.2092 -0.7977
  888HK4    C3674534   3.033   5.805   0.146 -0.4506  0.3906 -0.2611
  888HK4    H1874535   3.013   5.912   0.138  2.5316  0.9733 -0.2847
  888HK4    C3774536   3.112   5.749   0.246 -0.1341  0.1298 -0.6558
  888HK4    H1974537   3.188   5.816   0.287 -1.8272  1.4847  0.3156
  888HK4    C3874538   3.115   5.611   0.262 -0.1751  0.2009 -0.0289
  888HK4    H2074539   3.171   5.575   0.349 -1.4417 -2.0637 -0.0912
  888HK4    C1474540   2.777   5.047   0.189 -0.4109 -0.2491 -0.0739
  888HK4     C974541   2.715   5.020   0.312 -0.7918  0.0120 -0.2084
  888HK4     C874542   2.657   4.895   0.342 -0.2575 -0.1941 -0.0442
  888HK4    C1174543   2.658   4.798   0.243  0.2371 -0.3078  0.0664
  888HK4     H474544   2.634   4.692   0.266  3.0391 -0.8851  0.4378
  888HK4    C1274545   2.702   4.824   0.114  0.4387 -0.5137  0.0938
  888HK4     H574546   2.692   4.746   0.038  2.8934 -1.4502  0.6750
  888HK4    C1374547   2.761   4.948   0.090  0.3852 -0.4979  0.0433
  888HK4     H674548   2.774   4.975  11.232  1.0193  2.0928  0.7483
  888HK4     C774549   2.578   4.869   0.465 -0.4969  0.0650 -0.1434
  888HK4     O274550   2.500   4.775   0.473 -0.5346  0.0568 -0.5502
  888HK4     C474551   2.580   4.969   0.574 -0.0507  0.0517 -0.1386
  888HK4     C374552   2.503   4.945   0.686  0.3630  0.1525  0.1686
  888HK4     H374553   2.438   4.856   0.695  2.3170 -1.5514 -2.0472
  888HK4     C274554   2.502   5.038   0.790 -0.5979  0.0569  0.2554
  888HK4     H274555   2.428   5.022   0.869 -1.1485 -1.4647 -0.5367
  888HK4     C174556   2.578   5.154   0.775 -0.1171 -0.3307 -0.3516
  888HK4     H174557   2.543   5.236   0.838 -1.2168 -0.8038 -0.3382
  888HK4     C674558   2.667   5.175   0.667  0.3057 -0.5425 -0.0470
  888HK4     C574559   2.652   5.089   0.557  0.4359 -0.2578 -0.2867
  888HK4    C1074560   2.701   5.121   0.421  0.5923  0.1299 -0.1402
  888HK4     O174561   2.667   5.232   0.379  0.2003 -0.1518 -0.5721
  888HK4    C1674562   2.794   5.231   0.713  0.0140  0.0616  0.0301
  888HK4    C1574563   2.869   5.312   0.625  0.0419 -0.2720 -0.2554
  888HK4     H774564   2.811   5.390   0.573 -0.1988 -0.6912 -0.6137
  888HK4    C2074565   3.007   5.320   0.631 -0.0265  0.4479  0.4532
  888HK4     H974566   3.054   5.385   0.557  0.5407 -2.3639 -1.7415
  888HK4    C1974567   3.078   5.253   0.730 -0.1543  0.0877  0.2994
  888HK4    C1874568   3.005   5.161   0.815 -0.3360  0.5685  0.6675
  888HK4    C1774569   2.866   5.158   0.807 -0.2887 -0.2489  0.0196
  888HK4     H874570   2.810   5.098   0.879  0.2309 -1.1594 -0.3266
  888HK4     N174571   3.085   5.115   0.921  0.5559  0.0085 -0.2367
  888HK4    C2174572   3.209   5.181   0.909  0.8428 -0.4312  0.2795
  888HK4    C2274573   3.208   5.267   0.793 -0.0522 -0.5076  0.2317
  888HK4    C2674574   3.307   5.361   0.768 -0.2165 -0.5183 -0.4653
  888HK4    H1374575   3.323   5.417   0.676 -2.0043 -2.0998 -1.7692
  888HK4    C2574576   3.403   5.381   0.867 -0.8258  0.4540 -0.0647
  888HK4    H1274577   3.455   5.476   0.860 -0.4792  0.1423 -1.9787
  888HK4    C2474578   3.406   5.301   0.981 -0.2752  0.2437 -0.2296
  888HK4    H1174579   3.478   5.315   1.063 -2.6872  0.7925  1.8538
  888HK4    C2374580   3.318   5.194   0.994  0.8539 -0.6353  0.2983
  888HK4    H1074581   3.354   5.111   1.054 -0.7249 -0.9632  0.8078
  888HK4    C3974582   3.070   5.004   1.005 -0.1549  0.0987 -0.2383
  888HK4    C4174583   2.997   4.890   0.967  0.2583 -0.2861  0.1092
  888HK4    H2174584   2.973   4.883   0.860  1.8895  1.5233 -0.3950
  888HK4    C4274585   2.962   4.788   1.055 -0.4715 -0.3719 -0.2785
  888HK4    H2274586   2.908   4.697   1.025 -0.9052 -0.2106 -0.0002
  888HK4    C4374587   2.997   4.802   1.189  0.3430 -0.3280 -0.4954
  888HK4    H2374588   2.957   4.735   1.264 -0.4808  0.2811 -0.3879
  888HK4    C4474589   3.055   4.921   1.233 -1.0816  0.2040 -0.0263
  888HK4    H2474590   3.096   4.926   1.335 -0.3783 -1.1225 -0.2364
  888HK4    C4574591   3.096   5.018   1.143  0.2424 -0.5362 -0.2407
  888HK4    H2574592   3.132   5.113   1.186 -0.4161  1.0989 -3.1576
  889HK4    H2874593  10.050   7.977   0.078  0.3125  1.2887  0.3635
  889HK4    C4874594  10.126   8.035   0.027  1.2118 -0.2648 -0.0964
  889HK4    C4774595  10.156   8.000  11.144 -0.5171 -0.3539 -0.4853
  889HK4    H2774596  10.106   7.908  11.109  0.0943 -1.2796  1.0222
  889HK4    C4674597  10.265   8.056  11.079 -0.1669 -0.0452  0.3749
  889HK4    H2674598  10.265   8.047  10.970  0.1857 -2.2819  0.5371
  889HK4    C4074599  10.342   8.158  11.140 -0.1995  0.0912  0.1893
  889HK4    C5074600  10.304   8.195   0.023 -0.3231  0.6524 -0.0002
  889HK4    H3074601  10.353   8.282   0.069 -0.1500  1.6086 -1.9500
  889HK4    C4974602  10.200   8.134   0.091  0.1234  0.2719  0.3424
  889HK4    H2974603  10.179   8.167   0.194 -1.0028 -0.8167  0.4731
  889HK4     N274604  10.466   8.198  11.089 -0.1931 -0.0390  0.1085
  889HK4    C3074605  10.546   8.133  10.993  0.2775  0.2347  0.3126
  889HK4    C2974606  10.536   7.999  10.957  0.0850  0.0976  0.8570
  889HK4    H1574607  10.457   7.933  10.994 -0.5270  0.2406 -0.1659
  889HK4    C2874608  10.621   7.945  10.861 -0.1459  0.1617  0.6173
  889HK4    C2774609  10.718   8.029  10.803 -0.0848  0.1258  0.6679
  889HK4    H1474610  10.792   7.983  10.735 -0.3696 -1.3812  1.3491
  889HK4    C3274611  10.730   8.163  10.838  0.3819  0.4500 -0.6926
  889HK4    H1674612  10.791   8.224  10.770 -0.4711  3.0930  0.8420
  889HK4    C3174613  10.646   8.219  10.933  0.2968 -0.2549 -0.3548
  889HK4    C3474614  10.620   8.352  10.984 -0.1927 -0.5111  0.0721
  889HK4    C3374615  10.508   8.332  11.075 -0.1963 -0.0282  0.1743
  889HK4    C3574616  10.466   8.447  11.141 -0.1210  0.2655 -0.2893
  889HK4    H1774617  10.396   8.439  11.224 -0.7666 -0.7726 -0.9140
  889HK4    C3674618  10.534   8.568  11.144  0.0501  0.1733 -0.3375
  889HK4    H1874619  10.521   8.649  11.217  2.5726  2.5522 -2.4052
  889HK4    C3774620  10.645   8.580  11.061  0.0450  0.0624 -0.3576
  889HK4    H1974621  10.704   8.671  11.069 -1.1777  1.2387 -3.9478
  889HK4    C3874622  10.686   8.474  10.981 -1.1975  0.0188 -0.9678
  889HK4    H2074623  10.756   8.494  10.900  0.0371 -1.0890 -0.2099
  889HK4    C1474624  10.619   7.800  10.837  0.0856  0.3511 -0.5960
  889HK4     C974625  10.736   7.726  10.822 -0.1705 -0.2571  0.3216
  889HK4     C874626  10.739   7.618  10.732 -0.2742 -0.3273  0.4043
  889HK4    C1174627  10.621   7.577  10.671 -0.2734  0.0337  0.1574
  889HK4     H474628  10.627   7.474  10.633  0.4209  1.5795 -4.1366
  889HK4    C1274629  10.498   7.637  10.692 -0.2926  0.1667 -0.3176
  889HK4     H574630  10.411   7.608  10.632  0.4984 -2.5279 -0.2169
  889HK4    C1374631  10.503   7.750  10.774 -0.0099  0.0593 -0.1906
  889HK4     H674632  10.406   7.791  10.805 -0.1838  0.5746 -1.4077
  889HK4     C774633  10.869   7.554  10.700 -0.0908  0.4322 -0.4370
  889HK4     O274634  10.873   7.478  10.604  0.2513  0.3119 -0.3297
  889HK4     C474635  10.987   7.578  10.786 -0.3781 -0.0836  0.1009
  889HK4     C374636  11.113   7.532  10.748 -0.1552  0.5956  0.0144
  889HK4     H374637  11.125   7.450  10.675 -3.7949 -0.3770  0.3894
  889HK4     C274638  11.222   7.553  10.831  0.0029  0.0949 -0.0629
  889HK4     H274639   0.071   7.533  10.782 -0.2753 -0.7592 -0.2664
  889HK4     C174640  11.206   7.618  10.953  0.3732  0.5958 -0.2761
  889HK4     H174641   0.045   7.617  11.020 -0.4052 -1.2636  0.7459
  889HK4     C674642  11.080   7.662  10.999  0.1903  0.0554 -0.2583
  889HK4     C574643  10.976   7.652  10.905  0.1443  0.5874 -0.2632
  889HK4    C1074644  10.848   7.727  10.921 -0.2177 -0.1461  0.3712
  889HK4     O174645  10.834   7.804  11.016 -0.7186  0.0016  0.1764
  889HK4    C1674646  11.083   7.738  11.125 -0.5202  0.2279 -0.3381
  889HK4    C1574647  11.189   7.822  11.164 -0.2800 -0.4222  0.4107
  889HK4     H774648   0.007   7.856  11.083  0.2642 -0.1395  0.9612
  889HK4    C2074649  11.220   7.850   0.049  0.0906 -0.0855  0.2521
  889HK4     H974650   0.042   7.932   0.066 -0.7546  0.6133  0.4317
  889HK4    C1974651  11.157   7.779   0.150  0.2417 -0.0818  0.3498
  889HK4    C1874652  11.052   7.686   0.113  0.2450  0.2602 -0.5448
  889HK4    C1774653  11.017   7.672  11.228 -0.5536  0.2639 -0.3393
  889HK4     H874654  10.939   7.601  11.200 -1.1847  0.9602 -0.3534
  889HK4     N174655  11.001   7.626   0.230  0.3756  0.1809 -0.5287
  889HK4    C2174656  11.092   7.659   0.332  0.2466 -0.2372 -0.2745
  889HK4    C2274657  11.184   7.764   0.292 -0.0791  0.3391  0.4603
  889HK4    C2674658   0.048   7.789   0.370  0.1685 -0.2865  0.3095
  889HK4    H1374659   0.124   7.856   0.329 -1.2190 -0.3588 -2.4721
  889HK4    C2574660   0.066   7.722   0.491  0.0335 -1.1695 -0.1536
  889HK4    H1274661   0.160   7.746   0.540 -0.3024 -1.7978  0.7983
  889HK4    C2474662  11.218   7.632   0.534 -0.4980 -0.5266  0.0196
  889HK4    H1174663  11.220   7.588   0.635  0.7574 -0.3232  0.0903
  889HK4    C2374664  11.109   7.596   0.455 -1.0447  0.5029  0.2958
  889HK4    H1074665  11.034   7.529   0.495  0.3194 -0.0112  2.0455
  889HK4    C3974666  10.863   7.621   0.253  0.4556  0.4889  0.0174
  889HK4    C4174667  10.818   7.531   0.352 -0.1255  0.6599 -0.0905
  889HK4    H2174668  10.874   7.439   0.374 -0.9150  0.5170  1.3585
  889HK4    C4274669  10.691   7.549   0.406 -0.1358  0.0181  0.1002
  889HK4    H2274670  10.663   7.498   0.499  1.4603  1.8484  1.6161
  889HK4    C4374671  10.605   7.646   0.355 -0.2115  0.1676  0.5136
  889HK4    H2374672  10.503   7.657   0.391 -0.8715 -2.2621 -0.5209
  889HK4    C4474673  10.647   7.727   0.250  0.2278 -0.6622  0.0496
  889HK4    H2474674  10.570   7.799   0.220  1.3472  0.2252 -0.7635
  889HK4    C4574675  10.778   7.722   0.202  0.1680  0.1368 -0.1998
  889HK4    H2574676  10.793   7.762   0.101 -0.4786  0.2418 -0.2569
  890HK4    H2874677   6.879   3.013  11.164  1.8870  0.4049  0.7376
  890HK4    C4874678   6.919   3.055  11.072  0.0662  0.2096 -0.1777
  890HK4    C4774679   6.963   2.972  10.970  0.6013  0.6731 -0.3243
  890HK4    H2774680   6.956   2.863  10.983  2.6926  0.3755 -1.4369
  890HK4    C4674681   6.995   3.030  10.848  0.1537  0.1623 -0.6902
  890HK4    H2674682   7.021   2.971  10.759 -0.7080 -1.8566  0.3845
  890HK4    C4074683   7.002   3.170  10.828  0.2290  0.2249 -0.2216
  890HK4    C5074684   6.964   3.254  10.934 -0.2280 -0.1146 -0.1089
  890HK4    H3074685   6.950   3.362  10.916 -2.4503 -0.3884 -0.1253
  890HK4    C4974686   6.923   3.192  11.052  0.9774  0.2935  0.5328
  890HK4    H2974687   6.868   3.265  11.113  0.5050  2.0473 -1.9147
  890HK4     N274688   7.075   3.230  10.725  0.4861 -0.1125 -0.2331
  890HK4    C3074689   7.197   3.184  10.672  0.3541 -0.5994 -0.1257
  890HK4    C2974690   7.309   3.132  10.736  0.7302  0.4950  0.1260
  890HK4    H1574691   7.287   3.081  10.830 -0.1891 -1.2766 -1.0283
  890HK4    C2874692   7.430   3.113  10.671  0.2430  0.0213 -0.6513
  890HK4    C2774693   7.449   3.159  10.539  0.1244 -0.1132 -0.7163
  890HK4    H1474694   7.521   3.106  10.475  0.9785  2.0412 -1.5938
  890HK4    C3274695   7.342   3.219  10.475 -0.0348  0.3099 -0.0564
  890HK4    H1674696   7.347   3.269  10.378 -0.9625  0.5286  0.0011
  890HK4    C3174697   7.216   3.221  10.533 -0.0420 -0.1333 -0.0553
  890HK4    C3474698   7.093   3.290  10.497 -0.0882 -0.2924 -0.1991
  890HK4    C3374699   7.017   3.304  10.619  0.4408  0.2786  0.0627
  890HK4    C3574700   6.914   3.397  10.620  0.7220  0.5955 -0.2154
  890HK4    H1774701   6.851   3.401  10.709  1.2217 -0.5350  0.2004
  890HK4    C3674702   6.886   3.464  10.502 -0.1170  0.1284 -0.2852
  890HK4    H1874703   6.814   3.547  10.498  1.8433  1.7685 -3.3207
  890HK4    C3774704   6.959   3.454  10.384  0.0102  0.1282 -0.2044
  890HK4    H1974705   6.933   3.499  10.289 -0.1156 -3.3592 -1.9093
  890HK4    C3874706   7.059   3.357  10.380 -0.3962 -0.2949 -0.1129
  890HK4    H2074707   7.125   3.361  10.294  1.2016 -0.4128  1.0912
  890HK4    C1474708   7.544   3.041  10.731 -0.1369  0.1567  0.2398
  890HK4     C974709   7.676   3.034  10.684 -0.0852  0.5480  0.3218
  890HK4     C874710   7.746   2.911  10.685 -0.2750  0.4344 -0.0629
  890HK4    C1174711   7.708   2.815  10.777  0.2473  0.1128 -0.1828
  890HK4     H474712   7.763   2.719  10.778 -0.1443 -0.1854 -2.6558
  890HK4    C1274713   7.593   2.833  10.854  0.6437  0.0998  0.4090
  890HK4     H574714   7.549   2.742  10.897 -0.8210 -0.0528 -1.3782
  890HK4    C1374715   7.515   2.945  10.830  0.6661  0.1236  0.4507
  890HK4     H674716   7.451   2.975  10.914  0.5243 -0.6446  0.6153
  890HK4     C774717   7.862   2.899  10.595 -0.0331 -0.5015  0.3730
  890HK4     O274718   7.883   2.789  10.544  0.4313 -0.3523  0.2412
  890HK4     C474719   7.927   3.021  10.542  0.2604 -0.6953  0.2849
  890HK4     C374720   8.040   2.996  10.466 -0.2386 -0.0337 -0.6854
  890HK4     H374721   8.075   2.892  10.457 -1.0428 -0.3571 -0.0787
  890HK4     C274722   8.117   3.106  10.428  0.3231  0.1405  0.9448
  890HK4     H274723   8.216   3.084  10.386 -0.1004  1.4593 -0.7823
  890HK4     C174724   8.074   3.234  10.459 -0.3347  0.1806 -0.0999
  890HK4     H174725   8.149   3.315  10.453 -0.4615  0.3137  0.0948
  890HK4     C674726   7.951   3.262  10.522 -0.1580  0.2594  0.2133
  890HK4     C574727   7.879   3.151  10.568  0.6423 -0.4512 -0.2296
  890HK4    C1074728   7.750   3.156  10.642  0.5950 -0.0836 -0.3337
  890HK4     O174729   7.722   3.250  10.716  0.4087 -0.1932 -0.2634
  890HK4    C1674730   7.912   3.401  10.552 -0.5856  0.2898 -0.4833
  890HK4    C1574731   8.010   3.498  10.581 -0.0775 -0.3653  0.0246
  890HK4     H774732   8.101   3.468  10.636 -1.1689  0.9019  2.6364
  890HK4    C2074733   7.996   3.631  10.541 -0.5445 -0.3404  0.2671
  890HK4     H974734   8.075   3.701  10.565  1.7584 -2.8430  0.3029
  890HK4    C1974735   7.878   3.664  10.475 -0.3153  0.1764  0.1191
  890HK4    C1874736   7.773   3.569  10.443  0.3017 -0.2621 -0.6049
  890HK4    C1774737   7.795   3.440  10.488 -0.6923 -0.4922 -0.7686
  890HK4     H874738   7.716   3.365  10.479 -0.0623 -1.4430  1.2584
  890HK4     N174739   7.670   3.620  10.361 -0.4154  0.2295  0.5992
  890HK4    C2174740   7.710   3.753  10.336  0.0496 -0.1001 -0.4238
  890HK4    C2274741   7.837   3.781  10.399  0.1711 -0.1526 -0.6458
  890HK4    C2674742   7.893   3.906  10.377  0.1241 -0.0078  0.0603
  890HK4    H1374743   7.978   3.933  10.439  1.6127  0.8413 -2.2731
  890HK4    C2574744   7.830   4.005  10.301  0.4145 -0.2328 -0.4743
  890HK4    H1274745   7.866   4.108  10.310  0.3175 -0.3255  1.2497
  890HK4    C2474746   7.709   3.975  10.240  0.2161  0.5228 -0.4560
  890HK4    H1174747   7.658   4.052  10.180  0.7503  0.7711 -0.5958
  890HK4    C2374748   7.649   3.851  10.259  0.2662  0.6137  0.3094
  890HK4    H1074749   7.565   3.827  10.194 -0.8160  0.5812  1.6980
  890HK4    C3974750   7.583   3.533  10.295 -0.0876  0.1212  0.3074
  890HK4    C4174751   7.457   3.586  10.260  0.1408  0.3577 -0.1552
  890HK4    H2174752   7.412   3.673  10.310  0.0217  0.0823  0.2178
  890HK4    C4274753   7.369   3.518  10.176  0.2542 -0.7187  0.5903
  890HK4    H2274754   7.270   3.564  10.159 -0.2322 -0.4941  3.6249
  890HK4    C4374755   7.405   3.393  10.127  0.0332 -0.5542  0.0078
  890HK4    H2374756   7.332   3.339  10.067  1.1595 -0.5270 -1.4278
  890HK4    C4474757   7.531   3.341  10.155  0.4643  0.0713 -0.7390
  890HK4    H2474758   7.565   3.258  10.092  0.1835 -0.4583 -0.1935
  890HK4    C4574759   7.621   3.412  10.234 -0.1464  0.4391 -0.3699
  890HK4    H2574760   7.723   3.375  10.252 -0.4947 -0.7326 -0.7760
  891HK4    H2874761   1.233   6.774   6.906  0.9868 -0.5339 -0.8182
  891HK4    C4874762   1.182   6.756   6.811 -0.0764 -0.2087 -0.3152
  891HK4    C4774763   1.148   6.625   6.780 -1.2146 -0.0694  0.3329
  891HK4    H2774764   1.185   6.542   6.841  0.1767  0.1350 -0.2190
  891HK4    C4674765   1.084   6.601   6.659 -0.5284 -0.0865 -0.0302
  891HK4    H2674766   1.054   6.496   6.645  0.4118 -0.3031 -0.4297
  891HK4    C4074767   1.045   6.703   6.569  0.0284 -0.0735 -0.2581
  891HK4    C5074768   1.089   6.833   6.600  0.4376 -0.2934  0.0932
  891HK4    H3074769   1.068   6.920   6.535  2.6362  0.7869  0.7630
  891HK4    C4974770   1.155   6.857   6.720  0.3781  0.2247  0.0271
  891HK4    H2974771   1.189   6.958   6.746 -0.2838  0.6730 -0.8075
  891HK4     N274772   0.941   6.684   6.476 -0.2871 -0.3033  0.1386
  891HK4    C3074773   0.829   6.600   6.489 -0.2000 -0.4668 -0.1720
  891HK4    C2974774   0.761   6.557   6.602 -0.3386  0.5305  0.1270
  891HK4    H1574775   0.766   6.615   6.694 -2.6825  1.2673 -0.1786
  891HK4    C2874776   0.645   6.481   6.590  0.1705 -0.2211 -0.1229
  891HK4    C2774777   0.605   6.445   6.460 -0.8331  0.8568 -0.1241
  891HK4    H1474778   0.519   6.376   6.458  0.7391 -1.1188 -1.1779
  891HK4    C3274779   0.670   6.488   6.345 -0.3404  0.4127 -0.0126
  891HK4    H1674780   0.632   6.446   6.252 -2.2344 -0.3435  1.0773
  891HK4    C3174781   0.786   6.564   6.355 -0.1758  0.2072 -0.3628
  891HK4    C3474782   0.864   6.645   6.263 -0.2414  0.6649 -0.0148
  891HK4    C3374783   0.965   6.714   6.341 -0.1469  0.2025  0.2737
  891HK4    C3574784   1.074   6.774   6.279 -0.1389 -0.0765  0.0120
  891HK4    H1774785   1.158   6.816   6.335  0.7940  0.5957 -1.8393
  891HK4    C3674786   1.079   6.777   6.140  0.0479 -0.9073  0.0000
  891HK4    H1874787   1.170   6.812   6.090  0.0854 -1.5979 -0.4199
  891HK4    C3774788   0.983   6.708   6.067 -0.1907 -0.2272 -0.3235
  891HK4    H1974789   0.989   6.707   5.958 -2.5126 -0.1664 -0.4843
  891HK4    C3874790   0.874   6.645   6.125 -0.2501  0.1539 -0.0166
  891HK4    H2074791   0.808   6.584   6.062 -0.7831  1.2912 -0.5795
  891HK4    C1474792   0.588   6.417   6.710  0.2042  0.1488  0.0914
  891HK4     C974793   0.509   6.302   6.702  0.4882 -0.0407 -0.0023
  891HK4     C874794   0.392   6.290   6.780 -0.1419  0.0636 -0.9151
  891HK4    C1174795   0.371   6.388   6.876 -0.1857 -0.4452 -0.3967
  891HK4     H474796   0.282   6.379   6.941  0.6933 -1.8755  0.6368
  891HK4    C1274797   0.454   6.497   6.899 -0.2805 -0.4459 -0.0508
  891HK4     H574798   0.441   6.555   6.992 -0.8560 -0.9695  0.1972
  891HK4    C1374799   0.562   6.510   6.813 -0.1067 -0.0821  0.2201
  891HK4     H674800   0.620   6.601   6.834  0.3030 -0.2811 -0.0473
  891HK4     C774801   0.302   6.174   6.766 -0.1652 -0.1292  0.6887
  891HK4     O274802   0.187   6.179   6.809 -0.3765  0.1664  0.0926
  891HK4     C474803   0.337   6.069   6.667 -0.5901  0.7736 -0.4329
  891HK4     C374804   0.251   5.962   6.653  0.5029 -0.2730  0.7339
  891HK4     H374805   0.180   5.940   6.734  1.1329 -0.3206  1.2775
  891HK4     C274806   0.275   5.866   6.555 -0.0650  0.1436  0.1861
  891HK4     H274807   0.212   5.776   6.553  0.5672 -0.3565  1.9170
  891HK4     C174808   0.383   5.881   6.469  0.1171  0.0336  0.3946
  891HK4     H174809   0.387   5.809   6.386 -0.7925  1.4818 -0.9494
  891HK4     C674810   0.473   5.988   6.483  0.0008  0.1587  0.1998
  891HK4     C574811   0.454   6.079   6.589 -0.4297  0.5607 -0.2202
  891HK4    C1074812   0.553   6.185   6.622  0.1168  0.1229 -0.4517
  891HK4     O174813   0.671   6.148   6.630 -0.0047 -0.2027 -0.1481
  891HK4    C1674814   0.578   5.987   6.381  0.3257 -0.2110  0.5355
  891HK4    C1574815   0.629   6.112   6.339 -0.1774 -0.2227 -0.1146
  891HK4     H774816   0.589   6.206   6.378 -1.0638 -0.4225 -0.5153
  891HK4    C2074817   0.733   6.120   6.248 -0.3677  0.1562 -0.2998
  891HK4     H974818   0.771   6.219   6.222 -1.7321  1.0960  1.1759
  891HK4    C1974819   0.804   6.006   6.213 -0.3242  0.1113 -0.0676
  891HK4    C1874820   0.762   5.880   6.271  0.3335 -0.0099  0.1475
  891HK4    C1774821   0.647   5.870   6.347 -0.1451 -0.1702 -0.5861
  891HK4     H874822   0.620   5.768   6.372 -0.1535  0.3759  1.7703
  891HK4     N174823   0.843   5.771   6.229 -0.0230 -0.2800  0.1576
  891HK4    C2174824   0.930   5.822   6.130 -0.4024  0.2482  0.0909
  891HK4    C2274825   0.910   5.965   6.122 -0.3144  0.2491 -0.1174
  891HK4    C2674826   0.977   6.039   6.025  0.0964 -0.0930 -0.0954
  891HK4    H1374827   0.951   6.144   6.020  1.6991  0.4667  2.6626
  891HK4    C2574828   1.052   5.976   5.926  0.7090  0.0064  0.3092
  891HK4    H1274829   1.128   6.038   5.877  1.3368  0.3133  1.6475
  891HK4    C2474830   1.057   5.838   5.922  0.1891  0.0008 -0.0424
  891HK4    H1174831   1.075   5.800   5.820 -1.3887 -0.0493 -0.3173
  891HK4    C2374832   1.006   5.765   6.029 -0.1099  0.5099  0.1637
  891HK4    H1074833   1.038   5.661   6.035  1.4426  0.9369 -0.4150
  891HK4    C3974834   0.893   5.673   6.315 -0.0772 -0.2192  0.2583
  891HK4    C4174835   0.946   5.554   6.260  0.7317  0.2243  0.0806
  891HK4    H2174836   0.870   5.504   6.198 -0.6314 -1.5834  3.1467
  891HK4    C4274837   1.047   5.489   6.329  0.4436  0.1115  0.3914
  891HK4    H2274838   1.100   5.410   6.274  0.4991  0.5324 -0.1561
  891HK4    C4374839   1.099   5.533   6.450  0.4308 -0.0239  0.4485
  891HK4    H2374840   1.185   5.479   6.489  0.4359 -0.6519 -0.4079
  891HK4    C4474841   1.044   5.645   6.513  0.0165 -0.2463  0.4849
  891HK4    H2474842   1.050   5.653   6.622  0.2890  0.5890  0.4128
  891HK4    C4574843   0.943   5.709   6.442 -0.2548 -0.6973  0.4656
  891HK4    H2574844   0.889   5.796   6.483  0.4647 -0.5605  1.1179
  892HK4    H2874845   7.685   4.510   0.800  0.5525 -0.0995  1.1347
  892HK4    C4874846   7.584   4.487   0.833 -0.0629  0.2994 -0.4512
  892HK4    C4774847   7.517   4.577   0.914  0.4285  0.2908 -0.0366
  892HK4    H2774848   7.547   4.681   0.933  0.8955 -0.0797  1.3093
  892HK4    C4674849   7.400   4.539   0.979  0.1047 -0.0484 -0.8211
  892HK4    H2674850   7.348   4.611   1.044  0.8780  1.8278 -2.2367
  892HK4    C4074851   7.353   4.406   0.970  0.3838 -0.2132  0.1557
  892HK4    C5074852   7.432   4.315   0.897 -0.0661 -0.3118 -0.2141
  892HK4    H3074853   7.393   4.215   0.874 -0.4859 -0.4544  1.0716
  892HK4    C4974854   7.543   4.354   0.823  0.1668  0.1672  0.3835
  892HK4    H2974855   7.588   4.290   0.746 -1.6209  1.0138 -1.4024
  892HK4     N274856   7.221   4.381   1.009  0.3522 -0.1637  0.0781
  892HK4    C3074857   7.176   4.256   1.056  0.5841 -0.0808  0.5120
  892HK4    C2974858   7.254   4.159   1.118  0.3245 -0.2751  0.5335
  892HK4    H1574859   7.355   4.192   1.145 -0.3594  0.1736  2.6643
  892HK4    C2874860   7.205   4.034   1.155 -0.1047 -0.1603  0.3464
  892HK4    C2774861   7.066   4.021   1.130  0.0438 -0.1558 -0.5027
  892HK4    H1474862   7.020   3.930   1.169  0.5644 -0.3354 -0.2932
  892HK4    C3274863   6.982   4.116   1.073  0.5028  0.4532 -0.1834
  892HK4    H1674864   6.878   4.105   1.105  0.5185 -0.3960 -0.4009
  892HK4    C3174865   7.034   4.239   1.037  0.5040  0.6448  0.4602
  892HK4    C3474866   6.985   4.362   0.976  0.2797  0.1421 -0.3785
  892HK4    C3374867   7.102   4.448   0.973  0.5008 -0.1553 -0.4079
  892HK4    C3574868   7.077   4.584   0.956  0.0841 -0.0939  0.6454
  892HK4    H1774869   7.163   4.647   0.933 -0.0321 -0.7117 -1.5835
  892HK4    C3674870   6.948   4.633   0.938  0.1407 -0.1071  0.2008
  892HK4    H1874871   6.933   4.738   0.908  0.1108  0.1683  1.1529
  892HK4    C3774872   6.837   4.550   0.932  0.3260 -0.3319 -0.0929
  892HK4    H1974873   6.736   4.584   0.909 -0.4627 -2.2145  0.4598
  892HK4    C3874874   6.859   4.413   0.948 -0.0410 -0.3669  0.1220
  892HK4    H2074875   6.784   4.335   0.941  0.7021 -1.1105  0.3544
  892HK4    C1474876   7.278   3.909   1.177  0.3443  0.0633  0.1319
  892HK4     C974877   7.231   3.779   1.156  0.0188  0.1867  0.0883
  892HK4     C874878   7.276   3.669   1.232 -0.1871 -0.1129 -0.2235
  892HK4    C1174879   7.373   3.689   1.329 -0.0114 -0.1378 -0.3944
  892HK4     H474880   7.419   3.607   1.386  1.2074  1.5484  1.0937
  892HK4    C1274881   7.420   3.817   1.357 -0.4503 -0.0929  0.1363
  892HK4     H574882   7.488   3.843   1.440  0.2649  0.8845 -0.7492
  892HK4    C1374883   7.379   3.921   1.275  0.2862  0.2240  0.1731
  892HK4     H674884   7.424   4.021   1.283 -1.1042  0.9951 -1.2304
  892HK4     C774885   7.192   3.547   1.235 -0.1273 -0.1377  0.5856
  892HK4     O274886   7.230   3.449   1.299  0.8395  0.2539  0.6170
  892HK4     C474887   7.069   3.534   1.154  0.3771 -0.2595 -0.1600
  892HK4     C374888   6.979   3.430   1.177 -0.6925  0.8606  0.7564
  892HK4     H374889   7.023   3.341   1.223 -0.0326  1.2324  0.8571
  892HK4     C274890   6.863   3.420   1.101 -0.5372 -0.2759  0.6606
  892HK4     H274891   6.800   3.330   1.101 -0.3136 -0.4370  1.6100
  892HK4     C174892   6.837   3.524   1.012  0.1399 -0.6352  0.0429
  892HK4     H174893   6.757   3.511   0.938  0.4244 -1.2522 -0.1645
  892HK4     C674894   6.922   3.634   0.989 -0.3270 -0.2477  0.1575
  892HK4     C574895   7.045   3.633   1.056 -0.3437 -0.0859  0.1899
  892HK4    C1074896   7.140   3.747   1.042 -0.2312 -0.1560  0.3829
  892HK4     O174897   7.180   3.779   0.930 -0.7523 -0.0414  0.2277
  892HK4    C1674898   6.853   3.748   0.928  0.0290 -0.3884 -0.5124
  892HK4    C1574899   6.719   3.782   0.954  0.1023 -0.5614  0.1112
  892HK4     H774900   6.679   3.735   1.045  4.8548 -3.4139  0.8938
  892HK4    C2074901   6.656   3.882   0.881  0.2400 -0.6160 -0.0831
  892HK4     H974902   6.548   3.891   0.870  0.3254  1.7046  0.6433
  892HK4    C1974903   6.719   3.960   0.785  0.1540 -0.0147  0.3426
  892HK4    C1874904   6.852   3.919   0.747  0.0501  0.0176 -0.0608
  892HK4    C1774905   6.911   3.818   0.822  0.2585  0.1570 -0.0331
  892HK4     H874906   6.994   3.759   0.784  1.2029  1.4090  0.0477
  892HK4     N174907   6.914   4.001   0.650 -0.1716 -0.0513 -0.2586
  892HK4    C2174908   6.829   4.113   0.640 -0.2036 -0.0564 -0.0130
  892HK4    C2274909   6.716   4.094   0.729 -0.0746 -0.1027  0.1415
  892HK4    C2674910   6.620   4.193   0.740 -0.1194 -0.1098 -0.1870
  892HK4    H1374911   6.529   4.177   0.798  0.0203  0.8029  0.3032
  892HK4    C2574912   6.640   4.315   0.675 -0.0988  0.0489  0.1126
  892HK4    H1274913   6.564   4.393   0.678 -2.1802 -1.7440 -2.6646
  892HK4    C2474914   6.753   4.338   0.598  0.0460  0.0713  0.3321
  892HK4    H1174915   6.771   4.438   0.555 -1.1616  0.0632 -0.2075
  892HK4    C2374916   6.844   4.235   0.577 -0.1698 -0.0515  0.0033
  892HK4    H1074917   6.937   4.257   0.523 -0.4888 -0.1249 -0.5836
  892HK4    C3974918   7.052   4.019   0.640 -0.1332 -0.1376  0.0821
  892HK4    C4174919   7.112   4.070   0.522 -0.1561  0.1113  0.1773
  892HK4    H2174920   7.055   4.071   0.428  1.4328  0.8892 -0.7981
  892HK4    C4274921   7.248   4.093   0.517 -0.2880  0.9273  0.3401
  892HK4    H2274922   7.285   4.113   0.416  1.5814  0.1211  0.8411
  892HK4    C4374923   7.332   4.077   0.627 -0.1511  0.0416  0.1080
  892HK4    H2374924   7.433   4.118   0.618  0.7040 -1.2419  3.1558
  892HK4    C4474925   7.275   4.026   0.743  0.3005 -0.0090  0.3066
  892HK4    H2474926   7.340   4.012   0.831 -1.2972  1.2731  1.7431
  892HK4    C4574927   7.139   4.001   0.750  0.1213  0.8780  0.0539
  892HK4    H2574928   7.091   3.996   0.849  1.6454  1.7399  0.8607
  893HK4    H2874929   9.744   8.013   7.478 -0.7881 -0.5710  2.3812
  893HK4    C4874930   9.636   8.028   7.485 -0.9167  0.3644 -0.7123
  893HK4    C4774931   9.555   7.917   7.465 -0.1435 -0.2960 -0.2468
  893HK4    H2774932   9.599   7.821   7.494  0.3771  0.1592  0.4625
  893HK4    C4674933   9.418   7.937   7.452 -0.1310 -0.3927 -0.5390
  893HK4    H2674934   9.354   7.855   7.418 -0.7166 -0.3438  0.4026
  893HK4    C4074935   9.356   8.063   7.469 -0.0233 -0.4602  0.4235
  893HK4    C5074936   9.443   8.173   7.482 -0.0446 -0.3343 -0.4786
  893HK4    H3074937   9.418   8.276   7.455  0.3820  0.0769  0.6808
  893HK4    C4974938   9.579   8.153   7.502 -0.0075  0.6545  0.2521
  893HK4    H2974939   9.643   8.243   7.496 -0.1844  1.1001  4.0695
  893HK4     N274940   9.217   8.084   7.462  0.0800  0.1564  0.2141
  893HK4    C3074941   9.136   8.001   7.381  0.6194  0.0851 -0.2667
  893HK4    C2974942   9.164   7.946   7.257 -0.0919  0.2169 -0.4875
  893HK4    H1574943   9.270   7.925   7.244 -0.0868  1.3885 -2.5086
  893HK4    C2874944   9.070   7.877   7.181  0.1060 -0.5235 -0.0688
  893HK4    C2774945   8.947   7.856   7.247  0.4809 -0.0111  0.7968
  893HK4    H1474946   8.878   7.780   7.208  3.1999 -2.1423 -0.0380
  893HK4    C3274947   8.910   7.914   7.368 -0.0804  0.6430  0.3201
  893HK4    H1674948   8.820   7.874   7.415 -0.5308 -0.8608 -1.7321
  893HK4    C3174949   9.001   7.994   7.435  0.7067  0.0562 -0.0495
  893HK4    C3474950   8.996   8.080   7.552 -0.2664  0.0421 -0.0798
  893HK4    C3374951   9.132   8.128   7.565 -0.2843  0.0926 -0.0600
  893HK4    C3574952   9.154   8.237   7.649 -0.1261  0.0822 -0.0840
  893HK4    H1774953   9.258   8.258   7.676 -0.2694  0.3198  0.2750
  893HK4    C3674954   9.053   8.300   7.721 -0.2532 -0.1544 -0.0575
  893HK4    H1874955   9.077   8.391   7.777  1.2342  0.8809 -2.2714
  893HK4    C3774956   8.921   8.261   7.702 -0.2241  0.1459 -0.9483
  893HK4    H1974957   8.831   8.316   7.731  1.6025  1.4201  2.6564
  893HK4    C3874958   8.899   8.148   7.624 -0.4573 -0.7981  0.4621
  893HK4    H2074959   8.800   8.104   7.621 -1.2647  0.7361  2.7940
  893HK4    C1474960   9.076   7.851   7.037  0.1123 -0.8284 -0.0129
  893HK4     C974961   8.962   7.846   6.956  0.3933  0.4050 -0.4961
  893HK4     C874962   8.952   7.744   6.859 -0.0654  0.3846 -0.4279
  893HK4    C1174963   9.067   7.672   6.829 -0.2669 -0.4091  0.6749
  893HK4     H474964   9.055   7.577   6.776 -2.5567  0.6515 -0.7526
  893HK4    C1274965   9.192   7.703   6.883 -0.0493 -0.2387  0.0842
  893HK4     H574966   9.281   7.646   6.854 -0.4808  0.4966 -2.8030
  893HK4    C1374967   9.195   7.789   6.992  0.3808 -0.5523  0.3196
  893HK4     H674968   9.287   7.822   7.043 -0.2453  0.7942  0.5856
  893HK4     C774969   8.825   7.731   6.784 -0.0123  0.0888 -0.4671
  893HK4     O274970   8.812   7.636   6.706 -0.9234  0.0857 -0.3203
  893HK4     C474971   8.716   7.828   6.802  0.1053  0.0892  0.2329
  893HK4     C374972   8.598   7.819   6.730  0.3182 -0.1669 -0.0837
  893HK4     H374973   8.597   7.792   6.623 -2.1742 -0.2370 -0.0938
  893HK4     C274974   8.480   7.884   6.766  0.3593 -0.0930 -0.0802
  893HK4     H274975   8.388   7.859   6.711 -0.4463  2.1053  0.2342
  893HK4     C174976   8.481   7.961   6.882  0.0461 -0.4920  0.1895
  893HK4     H174977   8.381   7.988   6.920  0.4552  2.1180 -0.4760
  893HK4     C674978   8.603   7.982   6.950  0.1650  0.6977 -0.3734
  893HK4     C574979   8.722   7.925   6.905  0.1042  0.0869  0.2346
  893HK4    C1074980   8.856   7.949   6.967  0.1210  0.0502  0.2156
  893HK4     O174981   8.897   8.065   6.962  0.3824 -0.0383  0.3647
  893HK4    C1674982   8.599   8.022   7.091  0.1474 -0.3274 -0.0832
  893HK4    C1574983   8.514   7.956   7.183 -0.3166  0.5049  0.0892
  893HK4     H774984   8.464   7.865   7.147 -0.9558  1.3000 -1.0444
  893HK4    C2074985   8.494   8.001   7.313 -0.2876  0.0131  0.2632
  893HK4     H974986   8.422   7.953   7.380  2.7819 -2.8275  1.6767
  893HK4    C1974987   8.573   8.106   7.358  0.2145 -0.2776  0.0656
  893HK4    C1874988   8.662   8.176   7.268  0.0410  0.0136  0.1227
  893HK4    C1774989   8.662   8.138   7.134 -0.4232 -0.1071  0.1586
  893HK4     H874990   8.705   8.202   7.057 -0.8274  0.8524  0.7116
  893HK4     N174991   8.695   8.304   7.317  0.3430  0.0616 -0.2000
  893HK4    C2174992   8.613   8.327   7.429  0.7324  0.2661  0.0447
  893HK4    C2274993   8.537   8.206   7.456 -0.5336  0.7532 -1.2442
  893HK4    C2674994   8.440   8.214   7.555  0.2338  0.2160 -0.4422
  893HK4    H1374995   8.398   8.116   7.580 -1.0113  1.1888  1.4504
  893HK4    C2574996   8.405   8.338   7.608 -0.1617 -0.0020 -0.1874
  893HK4    H1274997   8.308   8.356   7.655 -0.0254  1.5145 -0.4770
  893HK4    C2474998   8.485   8.450   7.592  0.4829 -0.3570  0.4913
  893HK4    H1174999   8.481   8.528   7.670  2.9113  1.4794 -1.1165
  893HK4    C2375000   8.592   8.442   7.503 -0.2113  0.4175 -0.4351
  893HK4    H1075001   8.678   8.509   7.509 -0.5131  0.7974 -0.3621
  893HK4    C3975002   8.820   8.365   7.294  0.4857 -0.1353  0.0451
  893HK4    C4175003   8.840   8.502   7.315 -0.3065  0.0380 -0.3018
  893HK4    H2175004   8.750   8.564   7.329 -2.9547 -4.0795  1.4978
  893HK4    C4275005   8.958   8.566   7.278 -0.2550  0.5255  0.6852
  893HK4    H2275006   8.969   8.675   7.288 -2.4810  0.8652 -0.2784
  893HK4    C4375007   9.057   8.494   7.213 -1.0901 -0.0710  0.0609
  893HK4    H2375008   9.140   8.540   7.159  0.5355 -1.7153  1.0755
  893HK4    C4475009   9.044   8.356   7.198 -0.0980 -0.0702 -0.8455
  893HK4    H2475010   9.135   8.301   7.170  0.1004  0.1635 -0.6634
  893HK4    C4575011   8.929   8.292   7.243  0.3998 -0.3063  0.1018
  893HK4    H2575012   8.925   8.183   7.253  0.4875 -0.2943  0.2620
  894HK4    H2875013   5.629   0.518   4.239 -0.5215  2.6390  0.4832
  894HK4    C4875014   5.527   0.500   4.274 -0.0900  0.0812  0.5034
  894HK4    C4775015   5.429   0.578   4.214  0.0519 -0.2729 -0.1995
  894HK4    H2775016   5.449   0.630   4.119 -1.1984  1.0406  0.2352
  894HK4    C4675017   5.303   0.580   4.272  0.2091  0.3209  0.1278
  894HK4    H2675018   5.243   0.670   4.251  0.6451  0.3910 -0.8342
  894HK4    C4075019   5.262   0.492   4.374 -0.3137  0.8440  0.3754
  894HK4    C5075020   5.359   0.401   4.422 -0.2625  0.7827  0.1561
  894HK4    H3075021   5.331   0.303   4.464  1.9241 -0.4438 -1.1673
  894HK4    C4975022   5.489   0.416   4.378 -0.0315  0.2173  0.6353
  894HK4    H2975023   5.562   0.357   4.436 -0.5103 -0.8952  0.1317
  894HK4     N275024   5.129   0.480   4.416 -0.4117 -0.0629 -0.1745
  894HK4    C3075025   5.017   0.531   4.347 -0.2926  0.0743 -0.2640
  894HK4    C2975026   4.997   0.582   4.220  0.5758  0.2073 -0.3501
  894HK4    H1575027   5.064   0.552   4.139 -2.2766  1.5895 -3.3567
  894HK4    C2875028   4.892   0.664   4.179  0.3798  0.0131 -0.2383
  894HK4    C2775029   4.783   0.667   4.269  0.3334 -0.1714 -0.2898
  894HK4    H1475030   4.690   0.719   4.243  0.4704  0.2363  0.0343
  894HK4    C3275031   4.787   0.600   4.391 -0.2150 -0.3645 -0.3794
  894HK4    H1675032   4.703   0.623   4.457 -1.7660 -2.4452 -1.5573
  894HK4    C3175033   4.904   0.542   4.437 -0.0805  0.1934 -0.0079
  894HK4    C3475034   4.942   0.477   4.561  0.4440  0.6209  0.0564
  894HK4    C3375035   5.085   0.459   4.548  0.3673 -0.0290  0.0927
  894HK4    C3575036   5.150   0.405   4.659  0.4965  0.2887  0.1722
  894HK4    H1775037   5.259   0.405   4.664  0.5081 -1.1670  0.1584
  894HK4    C3675038   5.087   0.368   4.777  0.6058  0.4731  0.2870
  894HK4    H1875039   5.144   0.355   4.870 -2.2424 -1.3593  1.8799
  894HK4    C3775040   4.948   0.380   4.782  0.5542  0.0660 -0.0934
  894HK4    H1975041   4.895   0.363   4.875  0.0566 -0.5996 -0.4957
  894HK4    C3875042   4.877   0.437   4.677  0.5616  0.2165 -0.0156
  894HK4    H2075043   4.770   0.455   4.690  0.2922 -2.0864  1.1325
  894HK4    C1475044   4.904   0.765   4.073  0.1687  0.5370  0.2311
  894HK4     C975045   4.848   0.893   4.079 -0.2725  0.3455  0.2157
  894HK4     C875046   4.812   0.960   3.961 -0.4407  0.0125  0.0766
  894HK4    C1175047   4.841   0.900   3.839  0.0419 -0.1341  0.2626
  894HK4     H475048   4.824   0.960   3.748 -0.7711  0.5531  0.8573
  894HK4    C1275049   4.914   0.782   3.830  0.6198  0.2400 -0.0059
  894HK4     H575050   4.911   0.723   3.738 -2.1517  0.5141 -0.1373
  894HK4    C1375051   4.946   0.715   3.948  0.1470  0.4661  0.2529
  894HK4     H675052   5.029   0.644   3.935 -0.3013 -0.0694  0.2675
  894HK4     C775053   4.719   1.075   3.968 -0.4909  0.0067 -0.4506
  894HK4     O275054   4.698   1.149   3.872 -0.4914  0.2630 -0.2541
  894HK4     C475055   4.674   1.125   4.100 -1.0329 -0.5501 -0.4199
  894HK4     C375056   4.569   1.215   4.112 -0.6133 -0.0240 -0.6605
  894HK4     H375057   4.531   1.271   4.025 -1.4473 -0.5336 -0.6293
  894HK4     C275058   4.506   1.239   4.233  0.8175 -0.5562  0.2057
  894HK4     H275059   4.424   1.313   4.234  2.2034  0.9851  0.4239
  894HK4     C175060   4.547   1.174   4.349  0.5234  0.1284  0.7001
  894HK4     H175061   4.493   1.188   4.443  1.6829  3.8491  0.8888
  894HK4     C675062   4.653   1.081   4.338  0.4601  0.1731 -0.4088
  894HK4     C575063   4.720   1.061   4.217 -0.2676 -0.5287 -0.7011
  894HK4    C1075064   4.819   0.950   4.214 -0.2751 -0.5803  0.6140
  894HK4     O175065   4.918   0.960   4.286  0.1206 -0.2078  0.0291
  894HK4    C1675066   4.639   0.979   4.443  0.3493 -0.4195 -1.0017
  894HK4    C1575067   4.515   0.921   4.477  0.4699 -0.4310 -0.5798
  894HK4     H775068   4.424   0.977   4.451  0.0762 -1.1621 -0.7831
  894HK4    C2075069   4.499   0.820   4.571  0.0147 -0.4560 -0.6823
  894HK4     H975070   4.408   0.760   4.572 -0.4459  0.2530  0.9235
  894HK4    C1975071   4.609   0.789   4.650 -0.3867 -0.4344 -0.1152
  894HK4    C1875072   4.736   0.855   4.626 -0.5267  0.0405  0.4246
  894HK4    C1775073   4.748   0.948   4.523 -0.5150 -0.0752  0.3217
  894HK4     H875074   4.840   1.003   4.506 -0.6175  0.3157  1.0021
  894HK4     N175075   4.832   0.822   4.724  0.0089  0.2292 -0.0325
  894HK4    C2175076   4.765   0.741   4.818 -0.1046  0.2842 -0.0655
  894HK4    C2275077   4.627   0.720   4.777 -0.0786 -0.0855  0.0332
  894HK4    C2675078   4.534   0.668   4.865 -0.0782  0.1393  0.1661
  894HK4    H1375079   4.432   0.688   4.833  0.5357  0.2339 -1.7533
  894HK4    C2575080   4.576   0.639   4.994  0.1694 -0.2179  0.0027
  894HK4    H1275081   4.497   0.606   5.062  1.0788 -0.3043  1.0368
  894HK4    C2475082   4.709   0.655   5.031  0.3757 -0.3363 -0.6857
  894HK4    H1175083   4.737   0.644   5.137 -0.6022  0.4226 -0.3481
  894HK4    C2375084   4.807   0.703   4.945  0.5486 -0.2398 -0.4366
  894HK4    H1075085   4.907   0.665   4.965  0.6458  1.3918  2.3609
  894HK4    C3975086   4.970   0.824   4.700  0.0778 -0.9674  0.2253
  894HK4    C4175087   5.053   0.821   4.813  0.1228 -1.0406  0.1923
  894HK4    H2175088   5.009   0.830   4.914  1.4316 -1.2454  0.7935
  894HK4    C4275089   5.191   0.811   4.796  0.2159  0.3460  0.0683
  894HK4    H2275090   5.252   0.795   4.886 -0.6080 -1.9752  0.2507
  894HK4    C4375091   5.250   0.795   4.671 -0.0653 -0.0136 -0.0195
  894HK4    H2375092   5.355   0.775   4.652 -0.0871 -0.1173 -0.0264
  894HK4    C4475093   5.169   0.800   4.558  0.2335  0.4472 -0.2176
  894HK4    H2475094   5.212   0.784   4.458 -1.4996  0.1091 -0.9286
  894HK4    C4575095   5.031   0.809   4.574  0.2349 -0.2121  0.2118
  894HK4    H2575096   4.961   0.803   4.489  0.7030  0.8515 -0.2580
  895HK4    H2875097   4.424   5.796   6.820  2.0628  0.6258  1.9304
  895HK4    C4875098   4.438   5.896   6.778  0.3102  0.0160 -0.1720
  895HK4    C4775099   4.384   6.008   6.839 -0.2673  0.2413 -1.0763
  895HK4    H2775100   4.347   6.008   6.943  1.5938 -1.1367 -0.3866
  895HK4    C4675101   4.408   6.134   6.785 -0.0608  0.6218 -0.1263
  895HK4    H2675102   4.344   6.211   6.830 -0.5562 -0.8914  1.8502
  895HK4    C4075103   4.495   6.162   6.678  0.0734  0.4722 -0.0570
  895HK4    C5075104   4.549   6.042   6.627  0.2030  0.4399  0.1561
  895HK4    H3075105   4.623   6.047   6.546 -1.1811 -1.0913 -1.2539
  895HK4    C4975106   4.522   5.912   6.668  0.2303  0.3259 -0.1908
  895HK4    H2975107   4.543   5.822   6.608  1.9423 -0.2329  1.1993
  895HK4     N275108   4.472   6.266   6.587  0.2251  0.5935  0.0411
  895HK4    C3075109   4.351   6.337   6.579 -0.2769 -0.2275  0.3449
  895HK4    C2975110   4.220   6.292   6.594 -0.3654  0.0362  0.3544
  895HK4    H1575111   4.200   6.196   6.640  3.3774 -0.6480  0.6940
  895HK4    C2875112   4.113   6.366   6.543 -0.0062  0.2186 -0.1458
  895HK4    C2775113   4.139   6.493   6.490 -0.0914  0.1425 -0.3708
  895HK4    H1475114   4.052   6.561   6.487  0.8125  1.2915 -3.3055
  895HK4    C3275115   4.267   6.543   6.468 -0.0149  0.2608  0.3419
  895HK4    H1675116   4.294   6.636   6.418 -0.3427  0.3590  0.3427
  895HK4    C3175117   4.372   6.465   6.514 -0.2910 -0.7722 -0.7388
  895HK4    C3475118   4.513   6.466   6.481 -0.1409 -0.1940 -0.0989
  895HK4    C3375119   4.574   6.343   6.528  0.5632  0.2650  0.1969
  895HK4    C3575120   4.704   6.314   6.486  0.5294 -0.2736  0.4553
  895HK4    H1775121   4.744   6.221   6.527  0.1692  0.4410  2.5126
  895HK4    C3675122   4.778   6.397   6.402 -0.0781 -0.3462 -0.1604
  895HK4    H1875123   4.870   6.359   6.355  0.1825 -0.9412  0.8064
  895HK4    C3775124   4.715   6.512   6.357  0.0634  0.0329  0.5942
  895HK4    H1975125   4.774   6.576   6.291 -0.6969 -0.2456 -0.3730
  895HK4    C3875126   4.586   6.547   6.395 -0.3012 -0.2879 -0.3229
  895HK4    H2075127   4.554   6.649   6.373  4.1159  1.2413 -0.1090
  895HK4    C1475128   3.995   6.290   6.501  0.2206 -0.1747 -0.0755
  895HK4     C975129   3.940   6.322   6.376 -0.2870 -0.6035  0.0322
  895HK4     C875130   3.802   6.350   6.363 -0.0708  0.5865  0.2020
  895HK4    C1175131   3.711   6.325   6.465 -0.0663  0.2955  0.1361
  895HK4     H475132   3.606   6.356   6.454 -1.0003 -2.6354  0.4847
  895HK4    C1275133   3.759   6.268   6.582 -0.2155 -0.0230  0.0421
  895HK4     H575134   3.690   6.235   6.661  0.9782 -1.2958  0.5854
  895HK4    C1375135   3.897   6.252   6.595 -0.1940 -0.3502 -0.5742
  895HK4     H675136   3.929   6.187   6.678 -0.3931 -2.1426 -1.8769
  895HK4     C775137   3.754   6.401   6.233  0.2132 -0.2327 -0.2314
  895HK4     O275138   3.634   6.411   6.209  0.1271 -0.1084  0.2605
  895HK4     C475139   3.853   6.433   6.127  0.3364 -0.0698 -0.0656
  895HK4     C375140   3.810   6.512   6.021 -0.2546  0.4854  0.5826
  895HK4     H375141   3.730   6.580   6.055 -1.7165 -0.5847 -0.6803
  895HK4     C275142   3.893   6.541   5.914  0.0283 -0.8327  0.4496
  895HK4     H275143   3.858   6.602   5.830  1.4575  0.0836  0.4981
  895HK4     C175144   4.024   6.493   5.920  0.3137 -0.1319 -0.1431
  895HK4     H175145   4.090   6.512   5.835  0.8249  2.2887  0.7514
  895HK4     C675146   4.075   6.425   6.032  0.0874 -0.2363 -0.1034
  895HK4     C575147   3.986   6.388   6.134  0.1352 -0.6828 -0.2249
  895HK4    C1075148   4.033   6.321   6.259  0.0395  0.1848  0.2777
  895HK4     O175149   4.107   6.223   6.254 -0.2837 -0.0538  0.1425
  895HK4    C1675150   4.212   6.467   6.062  0.0022  0.3958 -0.5954
  895HK4    C1575151   4.263   6.597   6.044 -0.4960  0.6862  0.0949
  895HK4     H775152   4.204   6.690   6.042  0.3804  1.2774  0.7494
  895HK4    C2075153   4.400   6.619   6.043 -0.2746 -0.6368  0.3296
  895HK4     H975154   4.440   6.720   6.031 -0.4279 -0.3816  1.8510
  895HK4    C1975155   4.485   6.509   6.056  0.0431 -0.4066  0.2194
  895HK4    C1875156   4.436   6.373   6.068 -0.1876 -0.4221 -0.9240
  895HK4    C1775157   4.298   6.357   6.069 -0.2600  0.2500  0.3820
  895HK4     H875158   4.253   6.258   6.070  2.4732 -1.0846 -2.0223
  895HK4     N175159   4.538   6.276   6.072 -0.2601 -0.4855 -0.6414
  895HK4    C2175160   4.657   6.351   6.063 -0.3359 -0.2074  0.5958
  895HK4    C2275161   4.628   6.492   6.043 -0.0287 -0.3244 -0.6800
  895HK4    C2675162   4.727   6.576   5.993 -0.2377  0.5820  0.4275
  895HK4    H1375163   4.705   6.682   5.986  0.7132  0.7760  0.3434
  895HK4    C2575164   4.843   6.518   5.944 -0.4729  0.2129  0.3044
  895HK4    H1275165   4.914   6.580   5.889  1.5965 -0.9448  1.5716
  895HK4    C2475166   4.873   6.383   5.963 -0.0726  0.2707  0.0989
  895HK4    H1175167   4.978   6.358   5.946 -0.2203 -0.6766  0.5416
  895HK4    C2375168   4.778   6.299   6.020 -0.4360  0.3567 -0.3735
  895HK4    H1075169   4.815   6.198   6.036 -0.4784 -0.0862 -2.8729
  895HK4    C3975170   4.517   6.148   6.124 -0.1410 -0.5100 -0.6489
  895HK4    C4175171   4.610   6.046   6.095  0.3992 -0.1009 -0.3617
  895HK4    H2175172   4.633   6.031   5.988  1.5613  0.8469 -0.2531
  895HK4    C4275173   4.639   5.938   6.177  0.2202 -0.1449 -0.3558
  895HK4    H2275174   4.738   5.889   6.171  1.1352  1.3435  1.8380
  895HK4    C4375175   4.563   5.918   6.291  0.2139  0.2421 -0.2932
  895HK4    H2375176   4.555   5.818   6.334  0.2782 -0.0832 -1.0360
  895HK4    C4475177   4.465   6.011   6.325  0.2626  0.3041 -0.3280
  895HK4    H2475178   4.397   5.976   6.404 -0.4675 -0.9207 -1.4872
  895HK4    C4575179   4.451   6.126   6.247 -0.0488  0.1663 -0.4753
  895HK4    H2575180   4.384   6.205   6.283 -1.0197 -0.4132 -1.0124
  896HK4    H2875181   1.975   2.051   9.420 -1.1774  0.4900 -1.1051
  896HK4    C4875182   1.936   2.094   9.511  0.6031  0.5431 -0.3401
  896HK4    C4775183   1.822   2.171   9.492  0.1426 -0.1250 -0.2924
  896HK4    H2775184   1.776   2.175   9.392 -0.5449 -2.5018 -0.0947
  896HK4    C4675185   1.763   2.236   9.600  0.6016  0.3211 -0.3106
  896HK4    H2675186   1.684   2.312   9.585 -2.3525 -2.8937 -1.9969
  896HK4    C4075187   1.823   2.228   9.727  0.1571  0.3776 -0.0945
  896HK4    C5075188   1.935   2.144   9.743 -0.4590 -0.5404 -0.5263
  896HK4    H3075189   1.985   2.136   9.841 -0.8257  0.1007 -0.2830
  896HK4    C4975190   1.992   2.074   9.637  0.3153 -0.2155 -0.3314
  896HK4    H2975191   2.083   2.017   9.655  0.7659  0.1480 -1.4184
  896HK4     N275192   1.803   2.325   9.826 -0.2876  0.1381  0.0552
  896HK4    C3075193   1.791   2.465   9.814 -0.2955  0.0950 -0.4848
  896HK4    C2975194   1.809   2.545   9.702  0.2075  0.1106 -0.3926
  896HK4    H1575195   1.849   2.505   9.610 -0.9194 -1.5600 -0.1691
  896HK4    C2875196   1.801   2.684   9.710 -0.3644  0.0597  0.0110
  896HK4    C2775197   1.778   2.743   9.836 -0.2223  0.5336 -0.1844
  896HK4    H1475198   1.786   2.852   9.847 -1.9576  0.7699 -1.0993
  896HK4    C3275199   1.763   2.666   9.950  1.0201 -0.0114 -0.3757
  896HK4    H1675200   1.759   2.717  10.047 -1.9539  1.5684 -1.2688
  896HK4    C3175201   1.759   2.527   9.941  0.1567  0.0104 -0.3302
  896HK4    C3475202   1.760   2.420  10.039 -0.4195  0.6419  0.3768
  896HK4    C3375203   1.779   2.299   9.962  0.7029  0.8192  0.3683
  896HK4    C3575204   1.785   2.175  10.025 -0.0967  0.5962  0.0122
  896HK4    H1775205   1.790   2.083   9.968 -1.0677  0.9685 -0.6762
  896HK4    C3675206   1.780   2.165  10.164  0.5025  0.3088  0.0144
  896HK4    H1875207   1.764   2.063  10.201  2.3150  0.1277  0.3437
  896HK4    C3775208   1.754   2.282  10.235 -0.5582 -0.2904  0.6147
  896HK4    H1975209   1.705   2.275  10.332 -0.5784  2.3893  0.8129
  896HK4    C3875210   1.746   2.408  10.177  0.3142 -0.3458  0.3690
  896HK4    H2075211   1.737   2.494  10.243 -1.3502 -2.0850  2.4769
  896HK4    C1475212   1.833   2.763   9.590 -0.1640  0.2589  0.1930
  896HK4     C975213   1.892   2.890   9.594 -0.1334  0.2437  0.2285
  896HK4     C875214   1.882   2.978   9.484 -0.2844  0.1510  0.1656
  896HK4    C1175215   1.795   2.951   9.380  0.4066 -0.6389 -0.2084
  896HK4     H475216   1.790   3.014   9.290 -0.5575  0.8595  0.8884
  896HK4    C1275217   1.723   2.832   9.378 -0.7935  0.0743  0.2251
  896HK4     H575218   1.631   2.824   9.318  0.3938  1.4722 -1.8262
  896HK4    C1375219   1.759   2.736   9.473  0.4559  0.1363 -0.1797
  896HK4     H675220   1.727   2.633   9.453 -1.0166  0.5974 -0.2877
  896HK4     C775221   1.967   3.098   9.465  0.2222 -0.1585  0.4763
  896HK4     O275222   1.959   3.170   9.366 -0.3416 -0.2678  0.4441
  896HK4     C475223   2.068   3.126   9.570  0.5733  0.1196  0.0622
  896HK4     C375224   2.161   3.229   9.563  0.5960  0.0887 -0.1030
  896HK4     H375225   2.176   3.282   9.468  0.5514 -0.0771 -0.2024
  896HK4     C275226   2.241   3.264   9.671  0.3391 -0.2418  0.1977
  896HK4     H275227   2.318   3.343   9.662  1.8543 -1.7245 -0.2227
  896HK4     C175228   2.209   3.204   9.792 -0.1283  0.1275  0.2587
  896HK4     H175229   2.264   3.237   9.882  0.4679  2.9553 -1.1000
  896HK4     C675230   2.107   3.109   9.810 -0.0850  0.0864  0.2891
  896HK4     C575231   2.045   3.063   9.693  0.0216  0.4011  0.1079
  896HK4    C1075232   1.987   2.926   9.703  0.5851  0.1241 -0.3541
  896HK4     O175233   2.058   2.832   9.740  0.5347  0.3031  0.2045
  896HK4    C1675234   2.040   3.119   9.941  0.0112 -0.0674  0.3514
  896HK4    C1575235   2.036   3.244  10.007  0.1986  0.1399 -0.0317
  896HK4     H775236   2.020   3.342   9.960 -3.0055  0.1383  0.9459
  896HK4    C2075237   2.018   3.249  10.144  0.1783 -0.1350 -0.0238
  896HK4     H975238   2.033   3.335  10.210 -2.9210  0.3487  0.0970
  896HK4    C1975239   1.996   3.134  10.219  0.5739 -0.1079  0.1401
  896HK4    C1875240   1.995   3.006  10.152 -0.0982 -0.0397  0.0107
  896HK4    C1775241   2.018   3.003  10.014  0.7231 -0.3364  0.1448
  896HK4     H875242   1.985   2.915   9.960 -0.0954 -0.4986  0.8765
  896HK4     N175243   1.967   2.902  10.242 -0.1932  0.0216  0.0493
  896HK4    C2175244   1.941   2.969  10.363  0.0699  0.0689  0.0813
  896HK4    C2275245   1.958   3.113  10.358 -0.1171  0.0862 -0.0180
  896HK4    C2675246   1.908   3.197  10.457 -0.2989 -0.0538  0.0107
  896HK4    H1375247   1.893   3.304  10.442 -0.7818 -0.2072 -0.6282
  896HK4    C2575248   1.841   3.141  10.565  0.2155 -0.0813  0.3193
  896HK4    H1275249   1.831   3.198  10.657 -4.2150 -0.4784  0.2058
  896HK4    C2475250   1.816   3.004  10.571  0.0097 -0.0592 -0.0032
  896HK4    H1175251   1.747   2.961  10.645 -1.9891  1.8359 -0.7095
  896HK4    C2375252   1.868   2.922  10.472 -0.1622 -0.0306 -0.1175
  896HK4    H1075253   1.878   2.814  10.483 -2.0125 -0.4887 -2.6616
  896HK4    C3975254   2.011   2.771  10.222 -0.1019  0.0583  0.0115
  896HK4    C4175255   1.943   2.668  10.291 -0.1727  0.0452 -0.0772
  896HK4    H2175256   1.836   2.683  10.312 -0.2368  0.5921 -0.7811
  896HK4    C4275257   2.008   2.548  10.316  0.0963  0.3237  0.5645
  896HK4    H2275258   1.955   2.474  10.379  0.5258  0.1273  0.6987
  896HK4    C4375259   2.140   2.531  10.275 -0.1540 -0.0139 -0.1055
  896HK4    H2375260   2.183   2.433  10.296  0.3832 -0.0604 -1.3708
  896HK4    C4475261   2.207   2.632  10.207 -0.2676 -0.4394 -0.8563
  896HK4    H2475262   2.309   2.622  10.168 -0.2934 -1.0374 -0.7735
  896HK4    C4575263   2.144   2.752  10.177 -0.0781 -0.0827  0.1433
  896HK4    H2575264   2.199   2.822  10.112 -1.2374 -1.2303 -2.1371
  897HK4    H2875265  10.705   1.851   2.482 -0.3603  0.3868  2.6045
  897HK4    C4875266  10.607   1.880   2.444  0.3847  0.0028  0.3771
  897HK4    C4775267  10.574   1.801   2.334 -0.2852  0.0825  0.5170
  897HK4    H2775268  10.615   1.702   2.309  2.1750  1.0066  0.7302
  897HK4    C4675269  10.475   1.848   2.249  0.2875  0.0867 -0.1605
  897HK4    H2675270  10.451   1.780   2.166 -1.3933 -0.8223  1.0489
  897HK4    C4075271  10.404   1.968   2.272  0.1964 -0.0870  0.4627
  897HK4    C5075272  10.431   2.038   2.392  0.1437  0.1246  0.3518
  897HK4    H3075273  10.377   2.129   2.419 -0.5438  1.0181 -3.7430
  897HK4    C4975274  10.538   1.997   2.471  0.6759  0.3234 -0.2617
  897HK4    H2975275  10.574   2.076   2.540 -1.0303  2.7186 -2.0154
  897HK4     N275276  10.346   2.044   2.170  0.3104 -0.4569  0.1235
  897HK4    C3075277  10.381   2.034   2.033 -0.2836  0.3581 -0.0935
  897HK4    C2975278  10.499   1.982   1.981 -0.3402  0.0710  0.0621
  897HK4    H1575279  10.588   1.997   2.042  0.2976  1.9650 -1.3004
  897HK4    C2875280  10.508   1.954   1.845 -0.0141 -0.1285  0.1239
  897HK4    C2775281  10.406   2.003   1.760  0.0037 -0.0197  0.1704
  897HK4    H1475282  10.415   1.977   1.653  1.6567  0.9646  0.0485
  897HK4    C3275283  10.289   2.057   1.812 -0.3476 -0.5216 -0.0918
  897HK4    H1675284  10.220   2.106   1.744 -1.1398 -0.4913  0.7282
  897HK4    C3175285  10.268   2.068   1.949 -0.3075  0.1660 -0.1395
  897HK4    C3475286  10.158   2.100   2.038  0.3100  1.1172  0.2867
  897HK4    C3375287  10.211   2.084   2.172  0.2508 -0.6565  0.1052
  897HK4    C3575288  10.113   2.089   2.271 -0.0919 -0.2283 -0.2548
  897HK4    H1775289  10.158   2.099   2.370 -0.8072  0.8949 -0.0303
  897HK4    C3675290   9.976   2.099   2.250  0.0094  0.6890 -0.4861
  897HK4    H1875291   9.904   2.108   2.332 -0.8115  0.0780 -1.1364
  897HK4    C3775292   9.933   2.104   2.118 -0.2953 -0.1240 -0.4184
  897HK4    H1975293   9.828   2.121   2.094  0.3615  1.9670 -1.9959
  897HK4    C3875294  10.022   2.107   2.012  0.3088  0.4582  0.0980
  897HK4    H2075295   9.986   2.099   1.909  0.7979 -1.4452  0.0523
  897HK4    C1475296  10.623   1.872   1.803 -0.0367 -0.1382  0.0728
  897HK4     C975297  10.636   1.832   1.670 -0.4119 -0.0699  0.0140
  897HK4     C875298  10.664   1.698   1.635 -0.2747 -0.0658  0.1126
  897HK4    C1175299  10.707   1.615   1.739  0.0904 -0.0767 -0.0457
  897HK4     H475300  10.716   1.507   1.719 -1.9497 -0.3336  0.3124
  897HK4    C1275301  10.735   1.667   1.864  0.6401  0.4258 -0.3789
  897HK4     H575302  10.821   1.621   1.915  1.3118  1.0009 -0.9694
  897HK4    C1375303  10.690   1.794   1.899  0.0599  0.0698  0.1734
  897HK4     H675304  10.710   1.826   2.002  1.8029 -1.9830  0.5202
  897HK4     C775305  10.662   1.650   1.495  0.2058 -0.0423  0.0984
  897HK4     O275306  10.698   1.538   1.461 -0.3459 -0.2816  0.3025
  897HK4     C475307  10.627   1.748   1.390 -0.2961  0.2211  0.5133
  897HK4     C375308  10.597   1.708   1.261  0.2227  0.3448  0.3520
  897HK4     H375309  10.614   1.604   1.228  0.1393  0.6991 -0.8498
  897HK4     C275310  10.551   1.796   1.164 -0.1477 -0.0497  0.1674
  897HK4     H275311  10.506   1.768   1.067 -1.6394 -0.9316  1.0949
  897HK4     C175312  10.539   1.931   1.195  0.0549  0.0565 -0.2033
  897HK4     H175313  10.519   2.005   1.117  1.3073 -0.0305 -0.6194
  897HK4     C675314  10.574   1.975   1.324 -0.1259  0.1905 -0.2000
  897HK4     C575315  10.627   1.886   1.419 -0.2545  0.3270  0.0004
  897HK4    C1075316  10.646   1.931   1.559  0.2539 -0.0832  0.0629
  897HK4     O175317  10.726   2.024   1.571 -0.0440  0.1034  0.6674
  897HK4    C1675318  10.558   2.121   1.336  0.1685  0.2095 -0.0177
  897HK4    C1575319  10.576   2.208   1.226 -0.1046  0.6239  0.2680
  897HK4     H775320  10.645   2.170   1.150 -1.1583  0.1121 -0.4512
  897HK4    C2075321  10.530   2.340   1.223  0.1927  0.7164 -0.2703
  897HK4     H975322  10.515   2.399   1.133  0.6199  2.8209  1.0269
  897HK4    C1975323  10.477   2.401   1.336 -0.1199 -0.1013  0.0345
  897HK4    C1875324  10.467   2.316   1.453  0.6752  0.3100  0.4072
  897HK4    C1775325  10.496   2.180   1.445  0.0817  0.2089 -0.0658
  897HK4     H875326  10.469   2.117   1.530 -2.0425  1.2307  0.0495
  897HK4     N175327  10.411   2.379   1.566 -0.6131 -0.0735 -0.0051
  897HK4    C2175328  10.371   2.505   1.517 -0.2685 -0.1181 -0.4006
  897HK4    C2275329  10.402   2.519   1.376  0.2635  0.2438 -0.2509
  897HK4    C2675330  10.337   2.619   1.305 -0.4620 -0.1928 -0.2098
  897HK4    H1375331  10.354   2.615   1.197 -1.9184  0.9773 -0.4914
  897HK4    C2575332  10.246   2.710   1.357 -0.1997 -0.1903  0.2418
  897HK4    H1275333  10.189   2.774   1.290  0.2730  2.3844  2.2092
  897HK4    C2475334  10.220   2.695   1.493 -0.3348 -0.2970  0.2045
  897HK4    H1175335  10.163   2.776   1.541  0.3105  0.4675 -0.3213
  897HK4    C2375336  10.284   2.599   1.570  0.7399  0.4559  0.2509
  897HK4    H1075337  10.298   2.620   1.676 -0.0197  2.2522  0.0115
  897HK4    C3975338  10.454   2.359   1.698  0.1874  0.2716 -0.2068
  897HK4    C4175339  10.373   2.396   1.807 -0.0491 -0.2460 -0.2033
  897HK4    H2175340  10.265   2.409   1.789 -0.3955 -2.2514  0.3121
  897HK4    C4275341  10.424   2.398   1.937 -0.3776  0.2318 -0.0797
  897HK4    H2275342  10.368   2.447   2.017  1.8941  0.5138  1.3660
  897HK4    C4375343  10.552   2.350   1.965 -0.4360  0.0119 -0.1694
  897HK4    H2375344  10.603   2.396   2.049  1.9983 -1.0738 -1.0037
  897HK4    C4475345  10.633   2.318   1.857 -0.3493 -0.2234 -0.0305
  897HK4    H2475346  10.740   2.298   1.874  0.0830  1.6041 -0.4995
  897HK4    C4575347  10.589   2.330   1.725  0.1915  0.3280 -0.1617
  897HK4    H2575348  10.649   2.289   1.643  0.4992  0.9381 -0.2445
  898HK4    H2875349   8.093   4.812   9.939 -0.7148 -0.0555  0.5284
  898HK4    C4875350   8.099   4.898   9.873  0.0106 -0.3425  0.2156
  898HK4    C4775351   8.215   4.956   9.823 -0.4183  0.0242 -0.3567
  898HK4    H2775352   8.309   4.900   9.810 -0.2736  0.0162  0.6730
  898HK4    C4675353   8.209   5.080   9.760  0.0005 -0.0270 -0.4951
  898HK4    H2675354   8.293   5.120   9.700  0.5588  3.1649  2.3209
  898HK4    C4075355   8.091   5.157   9.760  0.1359  0.1793  0.7614
  898HK4    C5075356   7.973   5.096   9.807 -0.0639  0.0806  0.1337
  898HK4    H3075357   7.874   5.124   9.769  0.5575  2.5612  0.2599
  898HK4    C4975358   7.979   4.967   9.859  0.3411  0.3319  0.7154
  898HK4    H2975359   7.887   4.920   9.894  0.4187 -1.1182 -0.9994
  898HK4     N275360   8.078   5.288   9.714 -0.2329 -0.2500 -0.3503
  898HK4    C3075361   8.181   5.353   9.642 -0.1408 -0.1465 -0.1293
  898HK4    C2975362   8.257   5.317   9.531  0.3466  0.1388  0.1140
  898HK4    H1575363   8.241   5.216   9.495  0.0499  0.8781 -1.9187
  898HK4    C2875364   8.345   5.395   9.457  0.0288  0.2405 -0.1613
  898HK4    C2775365   8.353   5.528   9.501  0.1385  0.0804  0.3089
  898HK4    H1475366   8.431   5.590   9.455 -0.9604  1.3683  0.1454
  898HK4    C3275367   8.282   5.572   9.612 -0.3354  0.0916  0.0039
  898HK4    H1675368   8.328   5.658   9.661  0.4799 -0.0870 -0.4480
  898HK4    C3175369   8.195   5.491   9.684 -0.0645 -0.1961  0.0068
  898HK4    C3475370   8.083   5.521   9.772 -0.0728 -0.0025 -0.0694
  898HK4    C3375371   8.020   5.392   9.789  0.4128 -0.2199  0.1081
  898HK4    C3575372   7.900   5.393   9.860  0.2052 -0.5664 -0.2347
  898HK4    H1775373   7.838   5.304   9.873 -0.7532  0.1964  0.4713
  898HK4    C3675374   7.840   5.513   9.895  0.4238 -0.2328 -0.9937
  898HK4    H1875375   7.735   5.511   9.929  0.3307  0.2446 -1.2485
  898HK4    C3775376   7.901   5.635   9.871  0.5316  0.1724  1.1968
  898HK4    H1975377   7.862   5.729   9.911 -1.9286 -0.1199 -0.3958
  898HK4    C3875378   8.030   5.641   9.817 -0.0291  0.0558 -0.1740
  898HK4    H2075379   8.098   5.725   9.807  0.9087 -0.4470  1.7961
  898HK4    C1475380   8.440   5.332   9.364  0.0684 -0.1503  0.1459
  898HK4     C975381   8.567   5.385   9.336 -0.0926  0.1662  0.0232
  898HK4     C875382   8.618   5.389   9.205 -0.0978  0.0078  0.0165
  898HK4    C1175383   8.547   5.315   9.110  0.1667  0.0899 -0.2482
  898HK4     H475384   8.578   5.323   9.005  0.5498  0.1980 -0.1271
  898HK4    C1275385   8.425   5.252   9.133 -0.0621  0.4748 -0.4174
  898HK4     H575386   8.363   5.206   9.054  2.4829 -1.7176 -1.1982
  898HK4    C1375387   8.375   5.259   9.262 -0.1781  0.9469 -0.4862
  898HK4     H675388   8.293   5.191   9.288  0.5941 -0.0324 -0.6063
  898HK4     C775389   8.722   5.487   9.167 -0.4817  0.4590  0.1223
  898HK4     O275390   8.766   5.486   9.052 -0.1489  0.0317  0.2551
  898HK4     C475391   8.768   5.577   9.275  0.1979  0.1744  0.0698
  898HK4     C375392   8.856   5.677   9.238  0.1458  0.1469 -0.1326
  898HK4     H375393   8.844   5.720   9.137 -2.2100 -1.9849 -0.8162
  898HK4     C275394   8.931   5.745   9.334 -0.1015  0.2807 -0.0349
  898HK4     H275395   9.020   5.801   9.302  0.5956  0.3323  1.9691
  898HK4     C175396   8.911   5.715   9.468 -0.6284  0.1888 -0.1303
  898HK4     H175397   8.983   5.753   9.542  0.1956 -1.2490 -0.1746
  898HK4     C675398   8.817   5.618   9.510 -0.0486 -0.4444 -0.2958
  898HK4     C575399   8.746   5.549   9.411 -0.6865 -0.0501 -0.1116
  898HK4    C1075400   8.649   5.441   9.447 -0.3879 -0.1452  0.4059
  898HK4     O175401   8.674   5.357   9.533 -0.2059 -0.4790  0.0263
  898HK4    C1675402   8.829   5.589   9.653  0.1295  0.2245 -0.1731
  898HK4    C1575403   8.949   5.591   9.726  0.0244  1.0516 -0.0235
  898HK4     H775404   9.039   5.566   9.668  0.6816 -1.5864  2.0143
  898HK4    C2075405   8.959   5.586   9.865  0.3267 -0.0046 -0.0749
  898HK4     H975406   9.054   5.573   9.916  0.7934  0.8100 -0.7306
  898HK4    C1975407   8.839   5.587   9.936  0.1638  0.7275 -0.3600
  898HK4    C1875408   8.712   5.594   9.866  0.0484 -0.0863 -0.2428
  898HK4    C1775409   8.711   5.597   9.727  0.0791  0.1051 -0.2396
  898HK4     H875410   8.616   5.608   9.674  0.4606  2.5901 -0.4662
  898HK4     N175411   8.608   5.571   9.957 -0.0059  0.4314 -0.1728
  898HK4    C2175412   8.666   5.570  10.086  0.4176 -0.4836 -0.3674
  898HK4    C2275413   8.811   5.571  10.077  0.4126 -0.4761 -0.4357
  898HK4    C2675414   8.883   5.568  10.196 -0.1821 -0.3366 -0.0716
  898HK4    H1375415   8.989   5.546  10.184  0.2586  1.9837 -0.7330
  898HK4    C2575416   8.820   5.573  10.320 -0.1717 -0.2158 -0.0693
  898HK4    H1275417   8.877   5.610  10.404  0.4565  0.3438 -0.7445
  898HK4    C2475418   8.681   5.575  10.329 -0.1506  1.3560 -0.0540
  898HK4    H1175419   8.632   5.578  10.427  0.2103 -1.8111  0.2650
  898HK4    C2375420   8.607   5.570  10.211  0.4247 -0.1815 -0.3629
  898HK4    H1075421   8.500   5.548  10.209  0.3362  0.3370 -2.5183
  898HK4    C3975422   8.493   5.495   9.933  0.1607  0.0895  0.1008
  898HK4    C4175423   8.368   5.539   9.983  0.0222 -0.1720 -0.0099
  898HK4    H2175424   8.353   5.647   9.999 -0.6866 -0.2680 -0.0010
  898HK4    C4275425   8.268   5.449  10.015  0.3624 -0.5279  0.0583
  898HK4    H2275426   8.179   5.487  10.067  1.3633  1.0322  0.6667
  898HK4    C4375427   8.287   5.313   9.995 -0.1510 -0.6606  0.4475
  898HK4    H2375428   8.209   5.237   9.985  0.3605 -1.6887  3.8066
  898HK4    C4475429   8.408   5.272   9.941 -0.0988  0.4734 -0.3151
  898HK4    H2475430   8.435   5.165   9.939 -2.1369 -0.0914  1.3743
  898HK4    C4575431   8.513   5.358   9.911  0.1905  0.1459 -0.2334
  898HK4    H2575432   8.604   5.325   9.857  0.0293 -0.1495 -0.3271
  899HK4    H2875433   4.001   6.103   7.121 -0.8695  0.7848  1.6602
  899HK4    C4875434   4.069   6.188   7.131  0.3788 -0.0457  0.5203
  899HK4    C4775435   4.120   6.222   7.255  1.1219  0.2997  0.1226
  899HK4    H2775436   4.090   6.164   7.344  1.2644  1.7242  1.1278
  899HK4    C4675437   4.218   6.320   7.264  0.7614  0.6394  0.4148
  899HK4    H2675438   4.277   6.320   7.357  1.2662 -1.9663  0.1340
  899HK4    C4075439   4.269   6.390   7.152  0.7299 -0.2018 -0.1351
  899HK4    C5075440   4.201   6.363   7.031  0.2178 -0.4616  0.2060
  899HK4    H3075441   4.219   6.427   6.943  2.2735  0.2319  1.0743
  899HK4    C4975442   4.110   6.260   7.019  0.0970 -0.3560  0.2152
  899HK4    H2975443   4.086   6.223   6.918 -0.6343 -0.0740  0.2848
  899HK4     N275444   4.362   6.494   7.162 -0.0460  0.4669  0.3394
  899HK4    C3075445   4.370   6.583   7.271 -0.1538  0.4100  0.3920
  899HK4    C2975446   4.283   6.615   7.374 -1.0376  0.6000 -0.4043
  899HK4    H1575447   4.175   6.601   7.374 -0.9793  0.1498 -0.8106
  899HK4    C2875448   4.323   6.702   7.475 -0.3564 -0.0086 -0.1449
  899HK4    C2775449   4.458   6.741   7.473 -0.5328  0.5966 -0.4412
  899HK4    H1475450   4.499   6.798   7.558 -1.5656 -0.3375  0.7054
  899HK4    C3275451   4.549   6.721   7.370 -0.1640  1.0316 -0.2033
  899HK4    H1675452   4.654   6.746   7.386  0.1835 -1.3763  1.5338
  899HK4    C3175453   4.502   6.642   7.265 -0.1925  0.4830  0.2180
  899HK4    C3475454   4.572   6.602   7.145 -0.1297  0.0829  0.3875
  899HK4    C3375455   4.478   6.511   7.082 -0.5433  0.9576 -0.2845
  899HK4    C3575456   4.520   6.441   6.969 -0.1015  0.0134  0.4505
  899HK4    H1775457   4.439   6.386   6.921 -1.3144 -1.9055  4.4294
  899HK4    C3675458   4.647   6.453   6.915 -0.3484  0.4113 -0.0468
  899HK4    H1875459   4.664   6.401   6.819  0.7983  2.7747 -1.1638
  899HK4    C3775460   4.738   6.540   6.974  0.2252 -0.5256  0.4654
  899HK4    H1975461   4.828   6.562   6.918  0.8101  1.2998  2.0449
  899HK4    C3875462   4.697   6.613   7.086 -0.2428 -0.2131  0.0922
  899HK4    H2075463   4.760   6.695   7.118 -0.3134 -0.1337  0.0258
  899HK4    C1475464   4.238   6.793   7.554 -0.3385 -0.1951  0.0906
  899HK4     C975465   4.253   6.930   7.579 -0.5218 -0.1059 -0.2914
  899HK4     C875466   4.191   6.991   7.690  0.4423 -0.2838  0.3417
  899HK4    C1175467   4.131   6.912   7.787 -0.1808 -0.2548 -0.0223
  899HK4     H475468   4.099   6.954   7.884  1.1445 -0.8190  0.6730
  899HK4    C1275469   4.116   6.775   7.769 -0.1808 -0.2893  0.2257
  899HK4     H575470   4.080   6.707   7.847 -0.7846 -0.0831  0.1269
  899HK4    C1375471   4.166   6.721   7.651 -0.3774 -0.1625  0.0855
  899HK4     H675472   4.163   6.611   7.643 -1.8204 -0.1600  0.4121
  899HK4     C775473   4.201   7.137   7.710 -0.1742 -0.1238 -0.4906
  899HK4     O275474   4.109   7.190   7.771 -0.0014 -0.2548 -0.1149
  899HK4     C475475   4.301   7.215   7.633 -0.0228  0.2969  0.1191
  899HK4     C375476   4.328   7.346   7.667  0.6019  0.1975  0.0040
  899HK4     H375477   4.278   7.381   7.759 -0.4420 -3.1054  0.7462
  899HK4     C275478   4.411   7.431   7.594  0.2754  0.4594 -0.0609
  899HK4     H275479   4.418   7.540   7.603 -4.3676  0.7782  0.8622
  899HK4     C175480   4.479   7.372   7.488  0.1631 -0.0719  0.1621
  899HK4     H175481   4.579   7.413   7.468 -0.0218  0.4457  0.3067
  899HK4     C675482   4.453   7.239   7.447 -0.2374  0.1082 -0.1657
  899HK4     C575483   4.361   7.161   7.517 -0.2663  0.2872 -0.0028
  899HK4    C1075484   4.318   7.022   7.482  0.0352  0.1197  0.3032
  899HK4     O175485   4.290   6.998   7.365  0.5705 -0.1758  0.2329
  899HK4    C1675486   4.534   7.207   7.328  0.3175  0.5437  0.0914
  899HK4    C1575487   4.551   7.073   7.288  0.0497  0.6004 -0.2171
  899HK4     H775488   4.549   6.997   7.368 -1.2902 -0.2365 -1.0179
  899HK4    C2075489   4.593   7.028   7.163  0.3252  0.2316  0.0077
  899HK4     H975490   4.580   6.923   7.139 -0.6804  0.5245 -0.7678
  899HK4    C1975491   4.625   7.127   7.070  0.1891  0.1179 -0.1605
  899HK4    C1875492   4.618   7.268   7.103 -0.1217  0.1836 -0.5012
  899HK4    C1775493   4.566   7.297   7.228  0.2133  0.1037 -0.3418
  899HK4     H875494   4.544   7.401   7.253  1.2920  0.7249 -1.8930
  899HK4     N175495   4.688   7.346   7.009  0.1626 -0.0338 -0.4721
  899HK4    C2175496   4.741   7.256   6.914  0.5764  0.0395 -0.3079
  899HK4    C2275497   4.713   7.120   6.955 -0.0528  0.1571 -0.3477
  899HK4    C2675498   4.758   7.018   6.873  0.3132 -0.2977  0.4103
  899HK4    H1375499   4.773   6.926   6.930 -0.0558  0.2508  1.3888
  899HK4    C2575500   4.832   7.039   6.757  0.1195  0.2666  0.3880
  899HK4    H1275501   4.896   6.956   6.729  2.1547  1.3740  1.5993
  899HK4    C2475502   4.850   7.170   6.713  0.1023  0.0476 -0.2733
  899HK4    H1175503   4.909   7.186   6.622 -0.4906  1.0043 -0.4858
  899HK4    C2375504   4.806   7.275   6.793 -0.3978  0.2364 -0.8015
  899HK4    H1075505   4.841   7.373   6.762  0.8286  0.0083 -0.1585
  899HK4    C3975506   4.652   7.480   6.987 -0.3113 -0.1220 -0.2455
  899HK4    C4175507   4.748   7.563   6.926  0.0498  0.2276  0.7782
  899HK4    H2175508   4.856   7.546   6.938  0.3883  0.7493 -1.2235
  899HK4    C4275509   4.707   7.688   6.879  0.2257 -0.0902 -0.2187
  899HK4    H2275510   4.782   7.763   6.850 -0.8607  1.1078  0.0660
  899HK4    C4375511   4.574   7.726   6.872  0.1222 -0.3398  0.3848
  899HK4    H2375512   4.539   7.805   6.805 -1.0260 -0.6140  0.6484
  899HK4    C4475513   4.484   7.641   6.935 -0.2535 -0.3887 -0.2182
  899HK4    H2475514   4.377   7.663   6.950 -0.1377 -1.1517  1.9320
  899HK4    C4575515   4.518   7.523   7.000 -0.2794 -0.1548  0.2166
  899HK4    H2575516   4.444   7.443   7.012 -1.0510  0.6315  0.6703
  900HK4    H2875517   5.393   0.576   4.991 -1.2766 -0.3944 -0.9386
  900HK4    C4875518   5.329   0.624   5.065 -0.1046 -0.1782 -0.0532
  900HK4    C4775519   5.194   0.595   5.077 -0.1274 -0.2503 -0.4663
  900HK4    H2775520   5.140   0.535   5.002 -0.8376  0.2964 -0.3952
  900HK4    C4675521   5.117   0.659   5.174  0.2047  0.1133 -0.4466
  900HK4    H2675522   5.010   0.634   5.177  0.0435  0.9834  1.7572
  900HK4    C4075523   5.176   0.749   5.265 -0.3438 -0.1436  0.1600
  900HK4    C5075524   5.313   0.779   5.251 -0.5004  0.1664 -0.7070
  900HK4    H3075525   5.354   0.860   5.314 -0.6129  1.0691 -1.7691
  900HK4    C4975526   5.387   0.714   5.153  0.0362 -0.3936  0.0722
  900HK4    H2975527   5.497   0.722   5.157 -0.0077  0.7308 -0.8621
  900HK4     N275528   5.103   0.829   5.354  0.4205  0.6174  0.1021
  900HK4    C3075529   4.968   0.867   5.345  0.0760 -0.6203 -0.0271
  900HK4    C2975530   4.903   0.924   5.236 -0.4684 -0.9395  0.1293
  900HK4    H1575531   4.960   0.930   5.144 -0.0443  0.6731  0.4762
  900HK4    C2875532   4.777   0.982   5.249 -0.0593 -0.0998  0.4289
  900HK4    C2775533   4.718   0.973   5.376 -0.6753 -0.1363  0.1446
  900HK4    H1475534   4.624   1.021   5.407 -0.7154 -1.0044  1.4302
  900HK4    C3275535   4.775   0.918   5.491  0.0273 -0.0234 -0.1474
  900HK4    H1675536   4.719   0.899   5.582  0.8430  2.7308  0.9793
  900HK4    C3175537   4.905   0.872   5.476 -0.1160 -0.4312 -0.1245
  900HK4    C3475538   5.010   0.838   5.571 -0.1380  0.2401  0.1378
  900HK4    C3375539   5.130   0.821   5.492 -0.1415  0.0148  0.1796
  900HK4    C3575540   5.244   0.797   5.567  0.0961 -0.3009 -0.2882
  900HK4    H1775541   5.345   0.794   5.525  0.7535 -2.7270  1.3906
  900HK4    C3675542   5.234   0.783   5.705 -0.3146  0.0112 -0.2836
  900HK4    H1875543   5.321   0.749   5.764 -0.6690  2.0590  1.4674
  900HK4    C3775544   5.118   0.793   5.780 -0.0527 -0.0695  0.1333
  900HK4    H1975545   5.121   0.762   5.884  0.3348 -0.1900  0.0841
  900HK4    C3875546   5.002   0.826   5.709 -0.0212  0.0205  0.1237
  900HK4    H2075547   4.932   0.889   5.763 -1.6696 -0.8640 -0.9382
  900HK4    C1475548   4.739   1.081   5.147 -0.2910 -0.4632  0.1625
  900HK4     C975549   4.661   1.191   5.183  0.0288 -0.1291 -0.1644
  900HK4     C875550   4.565   1.241   5.092 -0.0982  0.2216  0.1632
  900HK4    C1175551   4.544   1.182   4.969 -0.0347 -0.2407  0.3753
  900HK4     H475552   4.471   1.226   4.899 -0.8742 -0.7164  0.9433
  900HK4    C1275553   4.623   1.073   4.932  0.3980  0.4143 -0.6717
  900HK4     H575554   4.626   1.022   4.835 -1.3976  0.4040 -0.7294
  900HK4    C1375555   4.726   1.030   5.016 -0.3981 -0.1186  0.0382
  900HK4     H675556   4.803   0.973   4.962 -1.9439  0.2377 -2.6572
  900HK4     C775557   4.507   1.374   5.121  0.4134  0.4498  0.1556
  900HK4     O275558   4.455   1.439   5.030  0.0647  0.0302  0.0553
  900HK4     C475559   4.523   1.440   5.252 -0.0543  0.3749  0.2529
  900HK4     C375560   4.458   1.559   5.284 -0.2154  0.2960  0.2150
  900HK4     H375561   4.381   1.599   5.216  0.8525 -0.1196 -1.2511
  900HK4     C275562   4.478   1.622   5.406  0.2572 -0.1775  0.3856
  900HK4     H275563   4.435   1.723   5.415  0.2312 -0.2138  0.6718
  900HK4     C175564   4.550   1.559   5.507  0.5751  0.3362  0.4840
  900HK4     H175565   4.533   1.589   5.611 -3.8983  0.5395 -0.1777
  900HK4     C675566   4.622   1.442   5.475  0.1906  0.1496  0.2969
  900HK4     C575567   4.611   1.385   5.347 -0.4157  0.0388  0.3930
  900HK4    C1075568   4.699   1.275   5.300 -0.0191  0.8914 -0.8712
  900HK4     O175569   4.818   1.282   5.333 -0.1638 -0.1134 -0.1182
  900HK4    C1675570   4.707   1.399   5.587 -0.1224  0.1105  0.5222
  900HK4    C1575571   4.740   1.263   5.601 -0.3422  0.1221  1.1539
  900HK4     H775572   4.659   1.190   5.585 -0.1700  0.2243 -0.2267
  900HK4    C2075573   4.859   1.209   5.648  0.1988 -0.1767 -0.5394
  900HK4     H975574   4.879   1.109   5.688  2.5723  0.9939  1.3062
  900HK4    C1975575   4.957   1.302   5.682 -0.1469 -0.1695  0.4501
  900HK4    C1875576   4.924   1.443   5.675  0.0536 -0.1277  0.3599
  900HK4    C1775577   4.802   1.491   5.631  0.1423 -0.0217  0.2353
  900HK4     H875578   4.787   1.598   5.614  1.5556  0.2306  0.4999
  900HK4     N175579   5.039   1.521   5.700  0.1053  0.0640 -0.4608
  900HK4    C2175580   5.142   1.432   5.737 -0.0673  0.3271  0.6850
  900HK4    C2275581   5.096   1.296   5.720 -0.1658  0.3699  0.6083
  900HK4    C2675582   5.190   1.199   5.754  0.2570  0.0803 -1.3270
  900HK4    H1375583   5.166   1.098   5.722 -0.5032 -0.2851  0.3507
  900HK4    C2575584   5.311   1.225   5.816 -0.6080  0.2923  0.2928
  900HK4    H1275585   5.371   1.144   5.856  0.1887  0.3747 -0.7145
  900HK4    C2475586   5.343   1.358   5.846  0.3687  0.1013  0.1289
  900HK4    H1175587   5.430   1.381   5.909  0.8852  0.5456 -0.7393
  900HK4    C2375588   5.259   1.461   5.806 -0.0257  0.0203  0.7441
  900HK4    H1075589   5.294   1.564   5.819 -0.2899  0.1404  0.4953
  900HK4    C3975590   5.068   1.641   5.634  0.0950  0.3443  0.0351
  900HK4    C4175591   5.153   1.743   5.679 -0.0708  0.5237 -0.0610
  900HK4    H2175592   5.175   1.741   5.787  0.1622  1.5370 -0.0797
  900HK4    C4275593   5.215   1.836   5.596  0.2830 -0.1559 -0.5549
  900HK4    H2275594   5.282   1.907   5.648  0.2545  0.5534 -1.4882
  900HK4    C4375595   5.181   1.836   5.462 -0.0967  0.6454 -0.4612
  900HK4    H2375596   5.224   1.909   5.394  1.7952  1.1967  1.2778
  900HK4    C4475597   5.105   1.734   5.406  0.1166  0.2712 -0.0718
  900HK4    H2475598   5.091   1.735   5.297  1.6337  1.5881 -0.2659
  900HK4    C4575599   5.049   1.642   5.494  0.1483  0.3481  0.0271
  900HK4    H2575600   4.985   1.565   5.449  0.8071 -1.3301  1.8578
  901HK4    H2875601   0.751   9.235   0.989  1.4598  1.0324  0.1254
  901HK4    C4875602   0.824   9.165   1.029  0.8164 -0.2405 -0.9006
  901HK4    C4775603   0.808   9.030   1.004 -0.0087 -0.1671 -0.7535
  901HK4    H2775604   0.702   9.002   0.990 -0.7309  2.0432  0.1073
  901HK4    C4675605   0.897   8.939   1.059 -0.1549  0.3764  0.3995
  901HK4    H2675606   0.900   8.833   1.029  1.6377 -0.0666  2.0114
  901HK4    C4075607   1.005   8.978   1.140  0.2526  0.0519  0.0167
  901HK4    C5075608   1.010   9.116   1.171 -0.8040  0.1538 -0.2495
  901HK4    H3075609   1.095   9.159   1.225  0.2983 -1.2384 -0.8418
  901HK4    C4975610   0.925   9.210   1.113 -0.0678  0.7560 -0.3601
  901HK4    H2975611   0.946   9.316   1.096  0.1226  0.5989 -1.1292
  901HK4     N275612   1.074   8.893   1.228  0.0546 -0.4872 -0.3496
  901HK4    C3075613   1.198   8.927   1.287  0.1073  0.0597 -0.7668
  901HK4    C2975614   1.298   9.015   1.248 -0.1899  0.5210 -0.4883
  901HK4    H1575615   1.279   9.077   1.161 -0.2444  0.3206 -0.6192
  901HK4    C2875616   1.426   9.023   1.302 -0.1342 -0.0596 -0.5273
  901HK4    C2775617   1.443   8.925   1.403 -0.7637  0.4208  0.0577
  901HK4    H1475618   1.547   8.919   1.439 -0.2304 -0.8922 -1.5868
  901HK4    C3275619   1.349   8.834   1.447 -0.0911 -0.5549 -0.4948
  901HK4    H1675620   1.383   8.755   1.514  0.4964  0.7818  0.8032
  901HK4    C3175621   1.219   8.834   1.396 -0.1347  0.4340 -0.3993
  901HK4    C3475622   1.107   8.743   1.408  0.6043 -0.4910 -0.4849
  901HK4    C3375623   1.016   8.791   1.306  0.2297 -0.4115 -0.1149
  901HK4    C3575624   0.883   8.750   1.316  0.1843 -0.3065 -0.2903
  901HK4    H1775625   0.813   8.793   1.244 -0.2654  0.6606  0.7121
  901HK4    C3675626   0.841   8.658   1.411 -0.9349  0.2303 -0.2565
  901HK4    H1875627   0.735   8.648   1.436 -0.8739 -3.2574 -1.1451
  901HK4    C3775628   0.932   8.606   1.502 -0.9230  0.3005 -0.2302
  901HK4    H1975629   0.902   8.532   1.576  1.6819  1.4793  2.1257
  901HK4    C3875630   1.064   8.650   1.503 -0.8897  0.2017 -0.4722
  901HK4    H2075631   1.130   8.612   1.580  0.9716 -0.5721 -2.3936
  901HK4    C1475632   1.530   9.102   1.236 -0.1681 -0.0040 -0.5156
  901HK4     C975633   1.663   9.063   1.214 -0.1657 -0.2825 -0.0191
  901HK4     C875634   1.774   9.150   1.215 -0.2397 -0.1882  0.3443
  901HK4    C1175635   1.750   9.286   1.234 -0.1688 -0.0425 -0.5607
  901HK4     H475636   1.830   9.357   1.258 -0.0760 -0.5904  0.7902
  901HK4    C1275637   1.618   9.328   1.247 -0.0209  0.3696 -0.3984
  901HK4     H575638   1.591   9.431   1.274 -2.1194 -0.7691  2.1758
  901HK4    C1375639   1.510   9.240   1.254  0.2362  0.0497 -0.4634
  901HK4     H675640   1.407   9.277   1.268  0.5538  0.2440  1.6263
  901HK4     C775641   1.915   9.108   1.202 -0.1361  0.3307 -0.2403
  901HK4     O275642   2.010   9.182   1.176  0.1615 -0.0524 -0.2380
  901HK4     C475643   1.939   8.963   1.206 -0.4323  0.2948  0.2729
  901HK4     C375644   2.070   8.920   1.229 -0.5321 -0.1430  0.0199
  901HK4     H375645   2.153   8.967   1.174 -0.5249  2.4989  2.2008
  901HK4     C275646   2.095   8.803   1.299  0.2052 -0.0101 -0.0179
  901HK4     H275647   2.198   8.765   1.302 -0.4540 -1.8751 -0.3152
  901HK4     C175648   1.988   8.728   1.346  0.1275 -0.1856 -0.4710
  901HK4     H175649   2.016   8.637   1.402  1.2510  0.8437  0.6773
  901HK4     C675650   1.854   8.756   1.312 -0.0176 -0.3583 -0.0511
  901HK4     C575651   1.836   8.872   1.235 -0.1030 -0.0185  0.4783
  901HK4    C1075652   1.700   8.919   1.196  0.0093 -0.2166 -0.1694
  901HK4     O175653   1.631   8.857   1.116 -0.1620 -0.6839  0.3305
  901HK4    C1675654   1.747   8.694   1.391  0.1406 -0.2184  0.2769
  901HK4    C1575655   1.769   8.675   1.529 -0.1605  0.5661  0.4379
  901HK4     H775656   1.860   8.719   1.573  0.4582 -0.3194  0.0486
  901HK4    C2075657   1.688   8.592   1.606 -0.3411  0.7788  0.4799
  901HK4     H975658   1.715   8.552   1.703  1.4054 -1.2055 -0.7634
  901HK4    C1975659   1.570   8.542   1.552 -0.0097  0.3279  0.1706
  901HK4    C1875660   1.548   8.555   1.409 -0.3507  0.5558  0.2447
  901HK4    C1775661   1.638   8.630   1.334 -0.4393  0.7204  0.3021
  901HK4     H875662   1.646   8.602   1.229  1.8708  2.5041 -0.0226
  901HK4     N175663   1.431   8.488   1.368  0.1997 -0.2212 -0.0572
  901HK4    C2175664   1.378   8.434   1.487  0.1771  0.0650  0.0609
  901HK4    C2275665   1.463   8.458   1.602 -0.0092  0.3127  0.1474
  901HK4    C2675666   1.434   8.401   1.725  0.4070  0.5097  0.3408
  901HK4    H1375667   1.513   8.389   1.800  1.2814 -0.6547 -0.7604
  901HK4    C2575668   1.312   8.335   1.743  0.5518  0.0736 -0.2988
  901HK4    H1275669   1.270   8.306   1.839 -1.2810  2.4194 -0.3505
  901HK4    C2475670   1.227   8.315   1.635  0.1879 -0.5461  0.0994
  901HK4    H1175671   1.145   8.242   1.641 -0.0069 -0.3780 -0.4888
  901HK4    C2375672   1.259   8.366   1.509  0.0742  0.3668  0.4394
  901HK4    H1075673   1.181   8.378   1.434 -1.1873 -1.6662  1.3933
  901HK4    C3975674   1.375   8.486   1.240  0.1562 -0.4136 -0.0359
  901HK4    C4175675   1.296   8.376   1.199  0.1518 -0.4039 -0.0515
  901HK4    H2175676   1.320   8.276   1.238 -0.9582 -1.3461 -1.7775
  901HK4    C4275677   1.199   8.379   1.100  0.3162  0.4307 -0.1875
  901HK4    H2275678   1.151   8.288   1.063 -0.4814  0.6128  0.3987
  901HK4    C4375679   1.184   8.505   1.042 -0.3921  0.2557 -0.3911
  901HK4    H2375680   1.095   8.524   0.982 -1.2223  0.2663  0.8529
  901HK4    C4475681   1.267   8.614   1.067 -0.4974  0.1639  0.3518
  901HK4    H2475682   1.273   8.702   1.001  2.2971 -0.9077 -0.9064
  901HK4    C4575683   1.363   8.606   1.167 -0.0148 -0.5002 -0.1525
  901HK4    H2575684   1.412   8.693   1.213 -0.2451  0.2812 -1.3592
  902HK4    H2875685   2.681   0.703  10.154  4.6902  2.0537 -2.2265
  902HK4    C4875686   2.628   0.720  10.060  0.0092  0.4495 -0.0230
  902HK4    C4775687   2.618   0.625   9.960 -0.1136  0.1016  0.3182
  902HK4    H2775688   2.685   0.538   9.959 -1.8504 -1.2820 -1.6086
  902HK4    C4675689   2.545   0.654   9.845 -0.2376 -0.2077  0.3153
  902HK4    H2675690   2.557   0.588   9.758 -1.3344 -0.9873  0.7544
  902HK4    C4075691   2.481   0.778   9.825  0.4726  0.0767 -0.2213
  902HK4    C5075692   2.496   0.875   9.926 -0.1087 -0.0622 -0.0025
  902HK4    H3075693   2.454   0.976   9.929 -0.1515 -0.0983  0.7005
  902HK4    C4975694   2.572   0.845  10.039 -0.4067  0.3197  0.2994
  902HK4    H2975695   2.583   0.917  10.121 -2.9023 -1.4795  2.2913
  902HK4     N275696   2.375   0.785   9.734  0.2265  0.3963  0.0876
  902HK4    C3075697   2.299   0.677   9.685  0.9829 -0.0154 -0.1797
  902HK4    C2975698   2.273   0.547   9.729  0.1179  0.1062 -0.3173
  902HK4    H1575699   2.321   0.511   9.820 -0.1392  0.4298 -0.0516
  902HK4    C2875700   2.214   0.448   9.652  0.8009 -0.4123 -0.1803
  902HK4    C2775701   2.168   0.494   9.526 -0.1064  0.2542  0.3897
  902HK4    H1475702   2.123   0.427   9.451 -1.1971  1.1678  0.2147
  902HK4    C3275703   2.193   0.620   9.473  0.1373 -0.0368 -0.1780
  902HK4    H1675704   2.202   0.625   9.364  0.7937  3.4340 -0.0064
  902HK4    C3175705   2.252   0.716   9.553  0.2839 -0.2662 -0.0112
  902HK4    C3475706   2.293   0.853   9.527 -0.3026 -0.0642  0.1157
  902HK4    C3375707   2.366   0.895   9.645  0.0639  0.1613 -0.1893
  902HK4    C3575708   2.437   1.014   9.641  0.0367  0.1920  0.2246
  902HK4    H1775709   2.492   1.048   9.729  1.3838  2.0715 -1.3049
  902HK4    C3675710   2.443   1.092   9.526  0.0371 -0.2669 -0.0882
  902HK4    H1875711   2.487   1.193   9.530 -0.2906 -0.1473  0.7418
  902HK4    C3775712   2.364   1.056   9.417 -0.0011  0.1540 -0.2011
  902HK4    H1975713   2.351   1.123   9.332 -2.0314 -0.6840 -0.5773
  902HK4    C3875714   2.296   0.936   9.415 -0.3529  0.3410  0.4131
  902HK4    H2075715   2.236   0.917   9.326 -0.3068 -1.8597  0.8143
  902HK4    C1475716   2.162   0.325   9.714  0.2999 -0.2196 -0.2146
  902HK4     C975717   2.244   0.242   9.791  0.0192 -0.2452  0.0547
  902HK4     C875718   2.179   0.135   9.855 -0.1997 -0.2169 -0.1158
  902HK4    C1175719   2.043   0.114   9.843 -0.3243  0.4001  0.1643
  902HK4     H475720   1.997   0.049   9.919  0.1349  0.7251  0.7155
  902HK4    C1275721   1.961   0.193   9.763 -0.4882 -0.1101 -0.1800
  902HK4     H575722   1.852   0.176   9.756 -0.2429 -1.5350 -0.6931
  902HK4    C1375723   2.024   0.300   9.701  0.2111 -0.1138  0.5205
  902HK4     H675724   1.968   0.378   9.647  1.6975  1.8195  1.7085
  902HK4     C775725   2.259   0.027   9.918  0.1541  0.0025 -0.1857
  902HK4     O275726   2.201  11.197   9.994 -0.2258  0.5966  0.1425
  902HK4     C475727   2.404   0.017   9.894  0.0849 -0.1054 -0.5626
  902HK4     C375728   2.482  11.172   9.962  0.0149 -0.0957 -0.4667
  902HK4     H375729   2.448  11.116  10.050  2.5526  0.9573  1.2436
  902HK4     C275730   2.609  11.146   9.912  0.1011 -0.2195 -0.1856
  902HK4     H275731   2.685  11.086   9.965 -0.6149 -1.9162 -1.0377
  902HK4     C175732   2.647  11.213   9.796 -0.3358  0.2295 -0.0654
  902HK4     H175733   2.743  11.184   9.752 -0.5109  0.4556 -0.6078
  902HK4     C675734   2.577   0.063   9.722  0.3062  0.6646 -0.0995
  902HK4     C575735   2.459   0.095   9.790  0.1415  0.3178 -0.2211
  902HK4    C1075736   2.389   0.224   9.762  0.0974  0.3555  0.0592
  902HK4     O175737   2.467   0.319   9.761  0.8836 -0.2777  0.2384
  902HK4    C1675738   2.646   0.125   9.608  0.6562  0.0455 -0.2255
  902HK4    C1575739   2.558   0.174   9.510 -0.2643  0.2812  0.7018
  902HK4     H775740   2.492   0.108   9.451 -1.9267  1.3702  1.3116
  902HK4    C2075741   2.568   0.304   9.462  0.1416 -0.0075 -0.0095
  902HK4     H975742   2.476   0.353   9.431 -0.3431  0.1890  1.6607
  902HK4    C1975743   2.671   0.388   9.506  0.0154  0.4131 -0.5147
  902HK4    C1875744   2.774   0.333   9.592 -0.0781  0.3068 -0.4733
  902HK4    C1775745   2.757   0.203   9.639  0.7189  0.1304 -0.6643
  902HK4     H875746   2.835   0.173   9.708 -0.4917 -1.5980 -0.0178
  902HK4     N175747   2.856   0.435   9.644 -0.2844  0.0102  0.4484
  902HK4    C2175748   2.802   0.556   9.596  0.5426  0.1487 -0.1369
  902HK4    C2275749   2.686   0.532   9.513  0.8900  0.3309 -0.6818
  902HK4    C2675750   2.604   0.630   9.458  0.1836  0.1221 -0.0097
  902HK4    H1375751   2.506   0.599   9.423 -0.0408  0.7017  0.1021
  902HK4    C2575752   2.656   0.759   9.468  0.5102  0.0194 -0.3510
  902HK4    H1275753   2.594   0.841   9.434  0.5277 -0.0379 -0.5198
  902HK4    C2475754   2.768   0.783   9.547  0.2370  0.2962 -0.0426
  902HK4    H1175755   2.797   0.889   9.549 -1.7568  0.9361 -2.4507
  902HK4    C2375756   2.844   0.687   9.613  0.1793  0.2524 -0.0413
  902HK4    H1075757   2.941   0.716   9.654  0.4027 -0.8983  0.2684
  902HK4    C3975758   2.980   0.413   9.706  0.0946  0.0664 -0.2841
  902HK4    C4175759   3.036   0.509   9.791  0.0321  0.1570 -0.3447
  902HK4    H2175760   2.966   0.570   9.851 -0.2358 -0.6468  0.1552
  902HK4    C4275761   3.169   0.509   9.834 -0.2780 -0.5787  0.6433
  902HK4    H2275762   3.213   0.605   9.867 -0.5985 -0.3321  0.3611
  902HK4    C4375763   3.251   0.405   9.792  0.1649  0.0232  0.0006
  902HK4    H2375764   3.345   0.393   9.846  0.2375 -2.5186 -0.6422
  902HK4    C4475765   3.195   0.305   9.714 -0.4052  0.2356  0.1332
  902HK4    H2475766   3.247   0.210   9.695 -0.9102 -0.1005  0.4174
  902HK4    C4575767   3.065   0.308   9.665 -0.4672 -0.6033  0.2373
  902HK4    H2575768   3.025   0.224   9.607  0.1441 -0.6955 -0.0523
  903HK4    H2875769   4.130   7.437  10.484  2.1149 -1.1204  2.0656
  903HK4    C4875770   4.165   7.532  10.523  0.8684  0.3215 -0.1803
  903HK4    C4775771   4.084   7.644  10.538 -0.2274 -0.5551  0.5526
  903HK4    H2775772   3.995   7.651  10.475  0.2291  2.1020  0.1692
  903HK4    C4675773   4.125   7.744  10.626  0.4641 -0.3927  0.0569
  903HK4    H2675774   4.048   7.814  10.662 -2.1423 -2.8294 -0.5628
  903HK4    C4075775   4.245   7.746  10.699  0.5872 -0.3538 -0.1460
  903HK4    C5075776   4.328   7.634  10.680  0.8380 -0.3154  0.6980
  903HK4    H3075777   4.417   7.612  10.742  0.2175 -0.5715  1.5064
  903HK4    C4975778   4.287   7.535  10.591  0.6795  0.2327  0.1641
  903HK4    H2975779   4.348   7.446  10.574  0.7318  0.1415  0.8129
  903HK4     N275780   4.294   7.867  10.751  0.2717  0.0162 -0.7134
  903HK4    C3075781   4.396   7.879  10.847  0.0487 -0.1699 -0.4524
  903HK4    C2975782   4.444   7.784  10.937 -0.1740 -0.0242 -0.1802
  903HK4    H1575783   4.383   7.693  10.943  1.0402 -0.6979  2.6685
  903HK4    C2875784   4.519   7.814  11.050 -0.0665 -0.2648 -0.1858
  903HK4    C2775785   4.538   7.951  11.077 -1.2586 -0.1104 -0.1173
  903HK4    H1475786   4.588   7.987  11.168 -1.0689  2.1792 -1.1038
  903HK4    C3275787   4.500   8.050  10.987  0.0819  0.2106 -0.3427
  903HK4    H1675788   4.490   8.155  11.015  1.9518  0.0180  1.2293
  903HK4    C3175789   4.434   8.017  10.870  0.0830 -0.2151 -0.2204
  903HK4    C3475790   4.363   8.094  10.770  0.1013 -0.1802 -0.2085
  903HK4    C3375791   4.272   7.999  10.708 -0.5005  0.1711  0.1315
  903HK4    C3575792   4.185   8.049  10.612 -0.2030  0.2848 -0.0809
  903HK4    H1775793   4.102   7.987  10.579  0.2078  0.2691 -1.1188
  903HK4    C3675794   4.183   8.183  10.573 -0.2721  0.4472  0.4779
  903HK4    H1875795   4.135   8.201  10.476 -1.8755 -0.7933  1.0012
  903HK4    C3775796   4.266   8.273  10.637  0.8495 -0.2570  0.0150
  903HK4    H1975797   4.268   8.378  10.606 -1.2681 -0.4902 -0.9751
  903HK4    C3875798   4.354   8.228  10.735  0.3878  0.0410  0.5664
  903HK4    H2075799   4.428   8.301  10.768 -0.7253  1.3682  0.1903
  903HK4    C1475800   4.578   7.708  11.133  0.6464  0.2172 -0.0712
  903HK4     C975801   4.619   7.723   0.018 -0.0929  0.2974  0.1522
  903HK4     C875802   4.729   7.657   0.077  0.1972  0.5629 -0.0933
  903HK4    C1175803   4.781   7.554   0.001 -0.3114  0.1163  0.1639
  903HK4     H475804   4.876   7.506   0.028 -1.1383 -1.2968  0.6240
  903HK4    C1275805   4.728   7.517  11.126 -0.0716  0.0142  0.0914
  903HK4     H575806   4.781   7.441  11.066 -1.5953 -0.4152 -0.7384
  903HK4    C1375807   4.637   7.601  11.063 -0.0698 -0.1428 -0.1262
  903HK4     H675808   4.627   7.596  10.954  1.4348 -3.9463 -0.1559
  903HK4     C775809   4.792   7.712   0.199  0.3490  0.3381 -0.0726
  903HK4     O275810   4.894   7.660   0.245 -0.1561 -0.0529  0.6144
  903HK4     C475811   4.732   7.828   0.268 -0.1566  0.0511 -0.0241
  903HK4     C375812   4.788   7.883   0.383 -0.0351 -0.5339  0.1941
  903HK4     H375813   4.888   7.848   0.413  0.6350  1.0411 -0.1473
  903HK4     C275814   4.730   7.992   0.445  0.0279 -0.2619 -0.2231
  903HK4     H275815   4.788   8.043   0.524  2.5900 -0.5950 -1.8211
  903HK4     C175816   4.610   8.044   0.398 -0.1404 -0.4711 -0.0302
  903HK4     H175817   4.553   8.123   0.450  2.4422  0.2429  1.8197
  903HK4     C675818   4.560   8.004   0.272 -0.2930  0.3197 -0.2242
  903HK4     C575819   4.613   7.886   0.219 -0.1811  0.1811  0.1909
  903HK4    C1075820   4.545   7.818   0.106 -0.1914  0.1765  0.2008
  903HK4     O175821   4.426   7.791   0.122 -0.1003  0.0540  0.7030
  903HK4    C1675822   4.506   8.108   0.183 -0.3951  0.3102 -0.1732
  903HK4    C1575823   4.553   8.238   0.210 -0.2305  0.0979  0.6018
  903HK4     H775824   4.647   8.255   0.265  0.1575 -1.6014  0.4865
  903HK4    C2075825   4.495   8.351   0.153 -0.2905  0.0043  0.4824
  903HK4     H975826   4.515   8.449   0.197  0.4460 -0.0939  0.3634
  903HK4    C1975827   4.387   8.335   0.068  0.4135 -0.0880 -0.4023
  903HK4    C1875828   4.332   8.204   0.041  0.4227 -0.0294 -0.7006
  903HK4    C1775829   4.393   8.095   0.103 -0.3066 -0.1690 -0.2218
  903HK4     H875830   4.323   8.012   0.107  1.2470 -1.4863  0.2371
  903HK4     N175831   4.249   8.202  11.175 -0.1305 -0.0580 -0.2976
  903HK4    C2175832   4.242   8.337  11.134  0.3575  0.0595  0.0095
  903HK4    C2275833   4.334   8.419  11.210  0.5604  0.1208 -0.3083
  903HK4    C2675834   4.363   8.549  11.169  0.3606  0.2690  0.0225
  903HK4    H1375835   4.435   8.598  11.234  1.2432  0.4052 -1.0420
  903HK4    C2575836   4.291   8.598  11.061  0.0185  0.3489  0.2846
  903HK4    H1275837   4.325   8.694  11.021 -0.1345 -0.3375 -1.5627
  903HK4    C2475838   4.193   8.530  10.990  0.3859 -0.0595  0.1656
  903HK4    H1175839   4.144   8.575  10.903  2.5690 -1.0324 -1.6105
  903HK4    C2375840   4.176   8.397  11.028 -0.6009  0.2024  0.6752
  903HK4    H1075841   4.098   8.349  10.969 -0.2473  0.3876  0.0515
  903HK4    C3975842   4.153   8.103  11.150 -0.5509  0.2098  0.2341
  903HK4    C4175843   4.101   8.095  11.020 -0.6843  0.2978  0.2830
  903HK4    H2175844   4.144   8.160  10.942 -0.2373  1.7965  1.7636
  903HK4    C4275845   4.029   7.983  10.979 -0.0614  0.1146 -0.3249
  903HK4    H2275846   3.993   7.985  10.875 -1.7515  1.9283  0.2728
  903HK4    C4375847   4.006   7.884  11.074  0.3503  0.3370  0.0154
  903HK4    H2375848   3.969   7.786  11.041  0.9546 -0.3281  1.2800
  903HK4    C4475849   4.036   7.900  11.209  0.4726 -0.3037  0.0649
  903HK4    H2475850   3.978   7.836   0.029  0.6653 -2.0806 -1.3915
  903HK4    C4575851   4.108   8.011   0.000  0.3276 -0.2561  0.2048
  903HK4    H2575852   4.138   8.021   0.106  0.6995  0.3938  0.0468
  904HK4    H2875853   5.908   0.769   0.934 -0.1968  0.0586 -0.9980
  904HK4    C4875854   5.907   0.860   0.875 -0.8562  0.4104 -0.4593
  904HK4    C4775855   5.900   0.862   0.736  0.2190 -0.3495 -0.5320
  904HK4    H2775856   5.899   0.768   0.679  0.8889  0.4143 -1.8343
  904HK4    C4675857   5.894   0.979   0.660  0.2610 -0.2910 -0.4448
  904HK4    H2675858   5.890   0.970   0.551  0.0835 -0.6252 -0.4108
  904HK4    C4075859   5.889   1.103   0.727 -0.0719 -0.3579 -0.3454
  904HK4    C5075860   5.898   1.099   0.868 -0.1940 -0.7869 -0.3479
  904HK4    H3075861   5.895   1.189   0.931  0.2346 -1.2883  0.3940
  904HK4    C4975862   5.914   0.982   0.941  0.0779 -0.1902  0.5568
  904HK4    H2975863   5.936   0.979   1.049 -2.3765 -1.2601  1.0590
  904HK4     N275864   5.929   1.225   0.672 -0.9051 -0.0007 -0.1668
  904HK4    C3075865   6.019   1.227   0.563 -0.0321  0.1054  0.5525
  904HK4    C2975866   6.122   1.147   0.515  0.1221  0.5327  0.1703
  904HK4    H1575867   6.155   1.069   0.583 -1.7086 -0.1891  0.2583
  904HK4    C2875868   6.200   1.177   0.404 -0.2086  0.2258 -0.1472
  904HK4    C2775869   6.181   1.297   0.332 -0.1907  0.0191 -0.4987
  904HK4    H1475870   6.247   1.331   0.251  2.1870  2.5066  2.3569
  904HK4    C3275871   6.081   1.383   0.375  0.1617  0.1489  0.0740
  904HK4    H1675872   6.064   1.477   0.321  2.9260  1.3888  1.2638
  904HK4    C3175873   6.004   1.348   0.485 -0.0208 -0.3814 -0.2179
  904HK4    C3475874   5.911   1.429   0.562  0.7098 -0.0036  0.2712
  904HK4    C3375875   5.858   1.347   0.669 -0.3909  0.3035 -0.0372
  904HK4    C3575876   5.746   1.387   0.741 -0.0268  0.1532  0.6108
  904HK4    H1775877   5.705   1.331   0.825 -0.0739 -0.5557  0.1202
  904HK4    C3675878   5.689   1.508   0.705  0.2998  0.0178 -0.3779
  904HK4    H1875879   5.591   1.542   0.743 -0.7021 -1.3004 -1.7019
  904HK4    C3775880   5.739   1.586   0.602  0.5427  0.4722  0.0811
  904HK4    H1975881   5.674   1.664   0.562 -0.9146 -1.3860 -1.2920
  904HK4    C3875882   5.854   1.552   0.531  0.0929 -0.4182 -0.2272
  904HK4    H2075883   5.897   1.630   0.467  2.4960 -0.9614  0.6670
  904HK4    C1475884   6.325   1.102   0.386 -0.2131  0.2068 -0.1036
  904HK4     C975885   6.448   1.154   0.345 -0.0582  0.0567  0.1687
  904HK4     C875886   6.542   1.082   0.268 -0.2201 -0.3039  0.3120
  904HK4    C1175887   6.511   0.950   0.235  0.0998 -0.3813  0.3245
  904HK4     H475888   6.551   0.896   0.148 -0.7351 -2.3246  1.1193
  904HK4    C1275889   6.395   0.891   0.284  0.2761 -0.4837  0.6170
  904HK4     H575890   6.377   0.789   0.248 -0.2261 -0.2885  0.3135
  904HK4    C1375891   6.305   0.965   0.359  0.1148  0.1835 -0.2336
  904HK4     H675892   6.209   0.919   0.387  0.0697  0.0929 -0.5351
  904HK4     C775893   6.666   1.140   0.212 -0.4803 -0.0794 -0.0347
  904HK4     O275894   6.757   1.068   0.173 -0.3063  0.3265 -0.3798
  904HK4     C475895   6.695   1.283   0.235  0.2077 -0.2778  0.3347
  904HK4     C375896   6.810   1.338   0.179 -0.1966 -0.1017 -0.3411
  904HK4     H375897   6.886   1.289   0.116 -0.0758  0.1872 -0.4189
  904HK4     C275898   6.832   1.475   0.193 -0.4073 -0.0882 -0.1587
  904HK4     H275899   6.908   1.521   0.130  0.6317  0.2325  1.2928
  904HK4     C175900   6.742   1.551   0.267 -0.0232 -0.1001  0.3241
  904HK4     H175901   6.758   1.660   0.270 -0.1858 -0.1071  1.4980
  904HK4     C675902   6.624   1.499   0.325  0.2423  0.0699  1.0282
  904HK4     C575903   6.606   1.361   0.311  0.1981  0.1858 -0.1472
  904HK4    C1075904   6.489   1.295   0.375  0.2566  0.0424 -0.1863
  904HK4     O175905   6.463   1.336   0.488 -0.0229  0.6010 -0.4520
  904HK4    C1675906   6.515   1.598   0.329 -0.1880 -0.3661  0.2745
  904HK4    C1575907   6.481   1.687   0.226  0.2537  0.1269  0.5506
  904HK4     H775908   6.539   1.674   0.133  0.0812  2.3202  0.1143
  904HK4    C2075909   6.388   1.790   0.224 -0.1534 -0.2464 -0.0034
  904HK4     H975910   6.386   1.851   0.133  0.9131 -0.1585  0.0225
  904HK4    C1975911   6.315   1.814   0.340 -0.4479 -0.3577 -0.1649
  904HK4    C1875912   6.356   1.734   0.453  0.4662  0.6177  0.2011
  904HK4    C1775913   6.441   1.624   0.444  0.0284  0.2721  0.2704
  904HK4     H875914   6.467   1.564   0.531 -0.3594 -0.0681  0.1549
  904HK4     N175915   6.296   1.787   0.570  0.3979 -0.0035  0.4510
  904HK4    C2175916   6.207   1.889   0.532  0.4169 -0.1893 -0.0987
  904HK4    C2275917   6.220   1.911   0.389  0.6629  0.6414  0.0467
  904HK4    C2675918   6.123   1.984   0.320 -0.0915  0.1391  0.5666
  904HK4    H1375919   6.142   1.995   0.213  1.4495 -1.0453  0.6874
  904HK4    C2575920   6.013   2.042   0.382 -0.5504  0.1117 -0.2121
  904HK4    H1275921   5.937   2.083   0.316 -0.2305 -1.0852 -1.3481
  904HK4    C2475922   6.007   2.028   0.520  0.5552 -0.3343 -0.2076
  904HK4    H1175923   5.934   2.089   0.574 -0.6861 -1.5757 -0.4531
  904HK4    C2375924   6.100   1.954   0.593  0.2179 -0.5837 -0.0274
  904HK4    H1075925   6.080   1.926   0.696 -3.3412 -1.9901 -1.0137
  904HK4    C3975926   6.287   1.723   0.694 -0.3883 -0.1633  0.3154
  904HK4    C4175927   6.274   1.797   0.813 -0.0977 -0.1905  0.3657
  904HK4    H2175928   6.325   1.893   0.824  0.1443 -0.5875  2.8789
  904HK4    C4275929   6.197   1.759   0.922 -0.5278 -0.0190  0.1251
  904HK4    H2275930   6.188   1.819   1.014 -2.4488  0.1386 -0.1501
  904HK4    C4375931   6.132   1.636   0.922  0.9533 -0.8209  0.8957
  904HK4    H2375932   6.058   1.598   0.992  0.6385 -1.1579  0.3888
  904HK4    C4475933   6.147   1.552   0.812 -0.3909 -0.3760  0.3608
  904HK4    H2475934   6.110   1.449   0.821  2.4785 -1.6300 -1.2452
  904HK4    C4575935   6.219   1.600   0.702 -0.0137 -0.3521  0.6162
  904HK4    H2575936   6.220   1.540   0.610  1.4817 -0.7715  0.8877
  905HK4    H2875937   9.835   4.570   4.910  1.8768 -1.0398 -0.1629
  905HK4    C4875938   9.832   4.588   4.803  0.0412 -0.3767 -0.0152
  905HK4    C4775939   9.750   4.511   4.721 -0.4731  0.2607 -0.1019
  905HK4    H2775940   9.683   4.439   4.772 -3.0452  2.7454  0.1233
  905HK4    C4675941   9.728   4.550   4.589 -0.1289  0.5632 -0.0687
  905HK4    H2675942   9.657   4.497   4.524  1.4528 -1.2495 -0.3573
  905HK4    C4075943   9.792   4.663   4.533  0.2810  0.3571 -0.0227
  905HK4    C5075944   9.885   4.731   4.614 -0.1234  0.3502  0.4498
  905HK4    H3075945   9.922   4.825   4.571 -1.3331 -0.3327 -2.2025
  905HK4    C4975946   9.903   4.693   4.746  0.2591 -0.4202  0.1795
  905HK4    H2975947   9.996   4.720   4.797  0.5330 -0.4604 -0.2983
  905HK4     N275948   9.801   4.686   4.395  0.4478 -0.0258 -0.0775
  905HK4    C3075949   9.778   4.586   4.299  0.8177 -0.0812 -0.1070
  905HK4    C2975950   9.811   4.451   4.303  0.4849 -0.1418  0.6561
  905HK4    H1575951   9.897   4.423   4.365  0.5413  0.0910  0.6795
  905HK4    C2875952   9.770   4.364   4.202 -0.0161  0.2488  0.5230
  905HK4    C2775953   9.704   4.423   4.092 -0.3006  0.1791  0.6567
  905HK4    H1475954   9.654   4.349   4.028  1.3942 -0.5403  0.1441
  905HK4    C3275955   9.680   4.559   4.075  0.1956  0.1337 -0.4480
  905HK4    H1675956   9.625   4.598   3.990 -0.4006 -0.9627 -0.5748
  905HK4    C3175957   9.714   4.642   4.182 -0.3775 -0.5793  0.2952
  905HK4    C3475958   9.701   4.785   4.201  0.7616 -0.4834  0.3811
  905HK4    C3375959   9.764   4.805   4.329  0.7198  0.2580  0.2858
  905HK4    C3575960   9.786   4.936   4.371 -0.0884  0.3217  0.5199
  905HK4    H1775961   9.840   4.958   4.463 -0.3278  1.5598  0.3721
  905HK4    C3675962   9.762   5.035   4.277 -0.5319 -0.1718  0.1184
  905HK4    H1875963   9.781   5.141   4.299 -1.0522  0.3541 -1.8389
  905HK4    C3775964   9.698   5.016   4.155 -0.0885 -0.1211 -0.1224
  905HK4    H1975965   9.685   5.097   4.083  1.2530  0.2427  0.0455
  905HK4    C3875966   9.660   4.887   4.117 -0.0041 -0.4284  0.8216
  905HK4    H2075967   9.582   4.873   4.042  0.5417  1.7536 -0.2084
  905HK4    C1475968   9.792   4.219   4.210  0.1282  0.2586  0.2778
  905HK4     C975969   9.791   4.136   4.097  0.6093  0.2535  0.2759
  905HK4     C875970   9.756   4.001   4.120 -0.1471  0.4428  0.2435
  905HK4    C1175971   9.744   3.957   4.252  0.2097 -0.4071 -0.0034
  905HK4     H475972   9.708   3.856   4.274 -1.6863  0.7331  2.3613
  905HK4    C1275973   9.770   4.038   4.362  0.1269  0.0168 -0.2938
  905HK4     H575974   9.769   3.994   4.463  0.9298  0.7983  0.0586
  905HK4    C1375975   9.794   4.174   4.343  0.1021  0.0926  0.2220
  905HK4     H675976   9.848   4.229   4.421  0.2763  0.0437  0.1371
  905HK4     C775977   9.749   3.907   4.006 -0.2508  0.4079  0.2779
  905HK4     O275978   9.703   3.796   4.028  0.3902  0.1023  0.1065
  905HK4     C475979   9.785   3.954   3.870 -0.0609  0.0084  0.1902
  905HK4     C375980   9.775   3.871   3.759 -0.0327 -0.2748  0.3979
  905HK4     H375981   9.795   3.764   3.771  1.5140 -0.1402 -0.7602
  905HK4     C275982   9.794   3.918   3.629 -0.5130 -0.2751  0.3270
  905HK4     H275983   9.806   3.849   3.545  1.6002 -0.3391  0.6635
  905HK4     C175984   9.821   4.052   3.605 -0.3088 -0.3446  0.1636
  905HK4     H175985   9.844   4.086   3.503 -1.9385 -1.1707 -0.5027
  905HK4     C675986   9.804   4.142   3.713  0.5508 -0.0006  0.0146
  905HK4     C575987   9.806   4.091   3.844 -0.3006  0.0159  0.0351
  905HK4    C1075988   9.833   4.179   3.961 -0.0470 -0.0045 -0.0073
  905HK4     O175989   9.917   4.266   3.941 -0.4284  0.3571 -0.0310
  905HK4    C1675990   9.776   4.280   3.671  0.0720 -0.0483  0.1769
  905HK4    C1575991   9.676   4.350   3.742  1.3805  0.4108  1.6105
  905HK4     H775992   9.599   4.292   3.794 -0.9598  0.3922 -1.7305
  905HK4    C2075993   9.650   4.484   3.716 -0.0307 -0.1336  0.1393
  905HK4     H975994   9.583   4.539   3.783  0.8416  1.6071 -0.3963
  905HK4    C1975995   9.728   4.556   3.626 -0.2599  0.0144  0.0610
  905HK4    C1875996   9.836   4.488   3.557 -0.0246  0.4961 -0.0433
  905HK4    C1775997   9.850   4.352   3.578 -1.4069  0.2278 -0.7927
  905HK4     H875998   9.926   4.299   3.520  0.4691  0.5918  1.2784
  905HK4     N175999   9.929   4.575   3.496  0.1667  0.2261 -0.1312
  905HK4    C2176000   9.879   4.705   3.520 -0.3336  0.0372 -0.1392
  905HK4    C2276001   9.752   4.694   3.590 -0.4723 -0.0683 -0.4071
  905HK4    C2676002   9.680   4.811   3.611  0.0808  0.1875  0.0824
  905HK4    H1376003   9.585   4.803   3.664  0.5058 -2.1115  0.5538
  905HK4    C2576004   9.721   4.931   3.555  0.0967  0.1274 -0.0400
  905HK4    H1276005   9.678   5.027   3.586 -0.7717 -0.7664  1.5874
  905HK4    C2476006   9.836   4.936   3.477  0.0403  0.2098 -0.1166
  905HK4    H1176007   9.870   5.026   3.425  2.5431 -0.3850  0.4083
  905HK4    C2376008   9.919   4.825   3.462 -0.1731  0.0372 -0.0292
  905HK4    H1076009  10.026   4.835   3.445  0.0000  0.0531  1.0260
  905HK4    C3976010  10.012   4.547   3.387  0.4976  0.3042  0.0976
  905HK4    C4176011   9.975   4.456   3.286  0.4115  0.4700 -0.0199
  905HK4    H2176012   9.866   4.458   3.268  0.1474 -1.0204  1.2930
  905HK4    C4276013  10.068   4.412   3.193 -0.1692 -0.1476 -0.3130
  905HK4    H2276014  10.043   4.334   3.120  0.1749  0.0991 -0.6986
  905HK4    C4376015  10.198   4.461   3.193 -0.0252 -0.5167  0.0625
  905HK4    H2376016  10.258   4.457   3.103 -1.0792 -0.6859 -0.6405
  905HK4    C4476017  10.235   4.550   3.294  0.0339 -0.6549  0.1631
  905HK4    H2476018  10.328   4.608   3.284 -2.2268  3.1303  0.0349
  905HK4    C4576019  10.145   4.592   3.391  0.5287  0.1955  0.2635
  905HK4    H2576020  10.187   4.646   3.477 -0.5818  1.1961  0.1769
  906HK4    H2876021   1.389   6.207  11.030 -1.4013 -0.5186  1.1176
  906HK4    C4876022   1.421   6.300  11.077  0.6258 -0.4825 -0.2718
  906HK4    C4776023   1.365   6.424  11.049  0.3209 -0.4765  0.3685
  906HK4    H2776024   1.280   6.434  10.980 -0.0386  0.6133  0.9653
  906HK4    C4676025   1.414   6.533  11.119  0.2544  0.0357 -0.3746
  906HK4    H2676026   1.376   6.635  11.098 -0.1993 -0.2417 -0.9021
  906HK4    C4076027   1.524   6.527  11.208 -0.0224 -0.0060 -0.0317
  906HK4    C5076028   1.575   6.399  11.238  0.0951  0.0910  0.1737
  906HK4    H3076029   1.648   6.396   0.073  0.2835 -1.2634 -0.0394
  906HK4    C4976030   1.523   6.289  11.171  0.3134  0.0177  0.1273
  906HK4    H2976031   1.583   6.198  11.158 -1.8344 -1.6563  1.6781
  906HK4     N276032   1.611   6.633  11.232 -0.1420  0.0647  0.0951
  906HK4    C3076033   1.664   6.666   0.110  0.2817 -0.5234  0.0687
  906HK4    C2976034   1.647   6.604   0.234 -0.5327  0.1157  0.2857
  906HK4    H1576035   1.566   6.533   0.249 -0.7629  0.6114  1.4483
  906HK4    C2876036   1.723   6.636   0.346  0.0646  0.0254 -0.0863
  906HK4    C2776037   1.821   6.736   0.328  0.0878  0.0711  0.2867
  906HK4    H1476038   1.883   6.771   0.412 -0.2086 -2.5566  1.6392
  906HK4    C3276039   1.840   6.802   0.207 -0.7096  0.5175  0.4022
  906HK4    H1676040   1.944   6.830   0.190 -0.4794  0.2375  1.3352
  906HK4    C3176041   1.769   6.765   0.094 -0.4886  0.3396  0.3218
  906HK4    C3476042   1.775   6.795  11.200 -0.1766 -0.5778  0.1370
  906HK4    C3376043   1.682   6.706  11.133 -0.4858 -0.0030 -0.2047
  906HK4    C3576044   1.684   6.687  10.996 -0.4384 -0.4000 -0.1549
  906HK4    H1776045   1.623   6.610  10.949 -1.2873  0.6432 -0.7954
  906HK4    C3676046   1.773   6.764  10.921 -0.4087 -0.0617  0.2232
  906HK4    H1876047   1.765   6.769  10.811  1.6232 -0.1537  0.0507
  906HK4    C3776048   1.860   6.853  10.983 -0.2734 -0.0603  0.0296
  906HK4    H1976049   1.932   6.918  10.934  2.6926 -2.5678  0.8868
  906HK4    C3876050   1.866   6.864  11.121  0.1128 -1.0108  0.0945
  906HK4    H2076051   1.952   6.912  11.169  0.0560 -0.7475 -0.0700
  906HK4    C1476052   1.665   6.601   0.476 -0.1324 -0.0274 -0.1890
  906HK4     C976053   1.672   6.697   0.577 -0.0432 -0.3645  0.1263
  906HK4     C876054   1.683   6.653   0.711  0.3411  0.3639  0.3369
  906HK4    C1176055   1.642   6.523   0.740  0.0765  0.4686  0.4183
  906HK4     H476056   1.641   6.488   0.844 -1.3260  1.1160  0.6329
  906HK4    C1276057   1.612   6.431   0.641  0.7351  0.3799  0.2988
  906HK4     H576058   1.564   6.334   0.662  1.5977 -0.0542  0.2954
  906HK4    C1376059   1.623   6.470   0.508  0.2874 -0.0857  0.1233
  906HK4     H676060   1.624   6.390   0.432 -0.0836 -1.6067  1.6778
  906HK4     C776061   1.740   6.738   0.817 -0.3282  0.6075  0.4978
  906HK4     O276062   1.743   6.704   0.935 -0.1259 -0.4060  0.1996
  906HK4     C476063   1.785   6.874   0.780  0.1662  0.3099  0.0226
  906HK4     C376064   1.856   6.954   0.869  0.0642  0.4035  0.0199
  906HK4     H376065   1.868   6.924   0.974  1.1812 -3.9144 -1.2416
  906HK4     C276066   1.913   7.074   0.830  0.4139  0.3632  0.4027
  906HK4     H276067   1.959   7.135   0.909  0.3644 -0.5544  1.1409
  906HK4     C176068   1.893   7.128   0.703 -0.4664 -0.4109  0.2060
  906HK4     H176069   1.956   7.209   0.663 -0.3496 -1.0761 -0.9861
  906HK4     C676070   1.814   7.052   0.614 -0.3568 -0.0407 -0.2094
  906HK4     C576071   1.762   6.927   0.651 -0.3830  0.0328  0.0048
  906HK4    C1076072   1.689   6.843   0.552  0.0397 -0.3872  0.0493
  906HK4     O176073   1.589   6.889   0.498  0.3248  0.0438 -0.1088
  906HK4    C1676074   1.831   7.085   0.472 -0.0227 -0.3890 -0.2512
  906HK4    C1576075   1.962   7.121   0.436 -0.0410  0.4932  0.5456
  906HK4     H776076   2.045   7.065   0.482 -1.2687  1.1666  3.7039
  906HK4    C2076077   1.985   7.209   0.330 -0.1976 -0.0233  0.0802
  906HK4     H976078   2.088   7.219   0.298 -0.9336  0.9001 -2.0912
  906HK4    C1976079   1.874   7.262   0.265 -0.0045 -0.2868 -0.4627
  906HK4    C1876080   1.738   7.219   0.290  0.0158 -0.3514 -0.4615
  906HK4    C1776081   1.723   7.135   0.400  0.1096  0.1231 -0.0894
  906HK4     H876082   1.628   7.125   0.451 -0.4454 -0.1823 -1.1864
  906HK4     N176083   1.643   7.286   0.211 -0.1221 -0.0250 -0.0178
  906HK4    C2176084   1.719   7.383   0.141 -0.2253  0.3234  0.3562
  906HK4    C2276085   1.861   7.363   0.161 -0.1978 -0.2172 -0.3688
  906HK4    C2676086   1.957   7.442   0.100  0.1413 -0.1010  0.3125
  906HK4    H1376087   2.059   7.403   0.108 -0.1671 -1.1970 -0.9513
  906HK4    C2576088   1.911   7.542   0.016 -0.2064 -0.3221  0.2410
  906HK4    H1276089   1.972   7.626  11.230 -1.4815  0.7525  0.5684
  906HK4    C2476090   1.775   7.563  11.243 -0.1146 -0.0095 -0.0478
  906HK4    H1176091   1.757   7.665  11.203  1.2684 -0.1135 -0.9514
  906HK4    C2376092   1.678   7.487   0.059 -0.1647 -0.2966 -0.4639
  906HK4    H1076093   1.581   7.533   0.078  0.6754  1.1388  0.4374
  906HK4    C3976094   1.523   7.226   0.172  0.0807 -0.3786 -0.0976
  906HK4    C4176095   1.418   7.298   0.112  0.2122 -0.4574 -0.4256
  906HK4    H2176096   1.413   7.406   0.132  0.2739 -0.4959 -0.2011
  906HK4    C4276097   1.314   7.237   0.042 -0.2224  0.5374 -0.6526
  906HK4    H2276098   1.229   7.296   0.003 -0.0649  1.0350 -0.2596
  906HK4    C4376099   1.317   7.099   0.032 -0.3382  0.4710  0.1449
  906HK4    H2376100   1.240   7.043  11.227  0.8373 -0.2755 -0.8250
  906HK4    C4476101   1.415   7.023   0.095 -0.4100  0.2779  0.0252
  906HK4    H2476102   1.402   6.914   0.109 -1.4191  0.3586 -0.2082
  906HK4    C4576103   1.523   7.086   0.155  0.0565 -0.3745 -0.1323
  906HK4    H2576104   1.612   7.024   0.176  0.2728 -0.8559 -2.3477
  907HK4    H2876105   3.470   4.270   7.180  0.1456 -0.3780 -0.8275
  907HK4    C4876106   3.371   4.251   7.221  0.0278 -0.4122 -1.1350
  907HK4    C4776107   3.283   4.355   7.251  0.1929 -0.4991 -0.3369
  907HK4    H2776108   3.294   4.460   7.218 -0.9530 -0.6361 -1.1600
  907HK4    C4676109   3.162   4.325   7.311  0.4045  0.4495  0.5887
  907HK4    H2676110   3.085   4.404   7.320 -0.5686 -0.6335  2.0863
  907HK4    C4076111   3.123   4.191   7.332 -0.0216  0.4505 -0.1485
  907HK4    C5076112   3.214   4.087   7.307 -0.1689  0.3705 -0.3429
  907HK4    H3076113   3.187   3.981   7.322  4.4553 -1.3240 -2.9364
  907HK4    C4976114   3.338   4.120   7.254  0.0905 -0.1609 -0.0751
  907HK4    H2976115   3.410   4.041   7.230 -0.2443 -0.1348 -1.1697
  907HK4     N276116   3.007   4.166   7.408 -0.2776  0.2562 -0.6021
  907HK4    C3076117   2.942   4.258   7.493  0.0192 -0.2943  0.2289
  907HK4    C2976118   3.009   4.351   7.570 -0.3656  0.7222 -0.6532
  907HK4    H1576119   3.117   4.348   7.590 -0.7400 -0.1120  1.3795
  907HK4    C2876120   2.929   4.435   7.648  0.0522  0.6840 -0.1736
  907HK4    C2776121   2.790   4.413   7.652  0.1753 -0.0833  0.0202
  907HK4    H1476122   2.744   4.474   7.731 -0.8609 -0.7438 -0.0617
  907HK4    C3276123   2.729   4.302   7.595  0.1724 -0.1653  0.1803
  907HK4    H1676124   2.627   4.276   7.620 -0.6721  1.3613 -1.5218
  907HK4    C3176125   2.802   4.224   7.505 -0.1356  0.1350 -0.3323
  907HK4    C3476126   2.777   4.104   7.429 -0.2291 -0.3200  0.4078
  907HK4    C3376127   2.908   4.071   7.376 -0.3743  0.2684 -0.3318
  907HK4    C3576128   2.909   3.977   7.274  0.1910  0.4745 -0.5158
  907HK4    H1776129   2.994   3.987   7.206  1.0988  1.1783  0.7049
  907HK4    C3676130   2.799   3.901   7.238  0.2124  0.1184  0.1692
  907HK4    H1876131   2.813   3.814   7.172 -1.1512 -0.2450  0.3340
  907HK4    C3776132   2.677   3.927   7.300 -0.1716  0.2565 -0.6333
  907HK4    H1976133   2.592   3.865   7.273 -0.1747 -0.3054  0.6141
  907HK4    C3876134   2.665   4.028   7.394 -0.0614 -0.4503  0.1531
  907HK4    H2076135   2.575   4.048   7.451  0.2627  1.7163 -0.0500
  907HK4    C1476136   2.996   4.510   7.755  0.3344 -0.3437  0.3718
  907HK4     C976137   2.946   4.508   7.886 -0.1662 -0.1030  0.1825
  907HK4     C876138   2.952   4.627   7.961  0.0355 -0.0260  0.0439
  907HK4    C1176139   3.022   4.736   7.910 -0.5173  0.1227 -0.4014
  907HK4     H476140   3.038   4.827   7.970  0.5725  0.8165 -1.7096
  907HK4    C1276141   3.077   4.736   7.782 -0.6767  0.4468 -0.4724
  907HK4     H576142   3.130   4.824   7.744  0.0759  0.5245  0.7131
  907HK4    C1376143   3.064   4.622   7.703  0.1801 -0.2461  0.3778
  907HK4     H676144   3.089   4.621   7.596 -2.1578 -3.2239 -0.2012
  907HK4     C776145   2.873   4.636   8.086  0.1594 -0.0447  0.1247
  907HK4     O276146   2.874   4.742   8.148 -0.5399  0.2280 -0.3205
  907HK4     C476147   2.795   4.520   8.132  0.4237 -0.2150  0.1408
  907HK4     C376148   2.722   4.530   8.250  0.0180  0.0159 -0.1244
  907HK4     H376149   2.720   4.621   8.313 -0.3306 -0.7981  1.0531
  907HK4     C276150   2.641   4.424   8.287 -0.1047  0.2269  0.2167
  907HK4     H276151   2.595   4.428   8.387 -0.5085  1.5954 -0.0097
  907HK4     C176152   2.612   4.315   8.205  0.1820  0.1850  0.1748
  907HK4     H176153   2.548   4.235   8.244 -1.7869  1.2666 -0.7679
  907HK4     C676154   2.690   4.304   8.088  0.0296  0.3640  0.0563
  907HK4     C576155   2.788   4.399   8.060  0.6019 -0.2031  0.1111
  907HK4    C1076156   2.875   4.388   7.939  0.3780 -0.5162 -0.0229
  907HK4     O176157   2.942   4.285   7.935  0.4043 -0.5084  0.1929
  907HK4    C1676158   2.627   4.232   7.976 -0.3096  0.3907  0.2322
  907HK4    C1576159   2.486   4.237   7.965 -0.3503 -0.0691  0.5021
  907HK4     H776160   2.426   4.306   8.026 -1.5265 -0.4790 -0.1888
  907HK4    C2076161   2.411   4.152   7.885 -0.0563  0.4087 -0.2899
  907HK4     H976162   2.304   4.172   7.883 -0.7878 -2.6271  3.6546
  907HK4    C1976163   2.473   4.049   7.815 -0.1815  0.0852  0.0748
  907HK4    C1876164   2.616   4.033   7.835 -0.3164 -0.1811  0.8519
  907HK4    C1776165   2.687   4.123   7.914 -0.3381  0.3610  0.2543
  907HK4     H876166   2.789   4.103   7.944 -0.4617  0.5967  0.8301
  907HK4     N176167   2.663   3.923   7.760 -0.5223 -0.0562  0.5391
  907HK4    C2176168   2.552   3.877   7.687 -0.3256  0.1626  0.1001
  907HK4    C2276169   2.431   3.951   7.717 -0.3515  0.1109  0.1222
  907HK4    C2676170   2.306   3.915   7.667 -0.4364 -0.0979  0.4834
  907HK4    H1376171   2.224   3.985   7.681  0.2865  1.3173 -2.1508
  907HK4    C2576172   2.305   3.806   7.581  0.2706  0.2519  0.0240
  907HK4    H1276173   2.221   3.772   7.521 -1.0565 -1.4224  2.7467
  907HK4    C2476174   2.421   3.747   7.534  0.4312  0.8129 -0.2928
  907HK4    H1176175   2.408   3.692   7.440  0.9559 -1.3292  0.8306
  907HK4    C2376176   2.546   3.783   7.584  0.4871  0.1623  0.0494
  907HK4    H1076177   2.636   3.744   7.537  0.1018  0.0057 -0.5556
  907HK4    C3976178   2.772   3.839   7.788  0.0286  0.4460 -0.0771
  907HK4    C4176179   2.862   3.803   7.686 -0.1084  0.1210 -0.0818
  907HK4    H2176180   2.830   3.837   7.586 -1.3213 -2.2024 -0.5048
  907HK4    C4276181   2.951   3.698   7.702 -0.2716  0.0006  0.0429
  907HK4    H2276182   3.030   3.675   7.629 -1.3255 -3.0685 -0.1944
  907HK4    C4376183   2.950   3.622   7.818 -0.5827 -0.0185  0.0268
  907HK4    H2376184   3.015   3.537   7.838  0.1874  1.0091  1.9949
  907HK4    C4476185   2.861   3.656   7.919 -0.2011 -0.0670  0.3815
  907HK4    H2476186   2.874   3.597   8.011 -1.5296 -1.0917 -0.0740
  907HK4    C4576187   2.778   3.767   7.908  0.3851  0.3269 -0.1653
  907HK4    H2576188   2.695   3.774   7.981  2.9112  2.0810  2.6539
  908HK4    H2876189   5.079  10.144   2.637 -1.2815  1.1284 -0.7107
  908HK4    C4876190   4.993  10.078   2.621 -0.8228  0.1999  0.5472
  908HK4    C4776191   4.941  10.004   2.726  0.2291 -0.6359  0.4828
  908HK4    H2776192   4.994  10.003   2.823  0.4517  0.0459  0.3718
  908HK4    C4676193   4.819   9.938   2.724 -0.1036 -0.0204  0.5072
  908HK4    H2676194   4.772   9.893   2.813  2.0384 -1.5723  0.8857
  908HK4    C4076195   4.741   9.937   2.607  0.1983  0.2827  0.3047
  908HK4    C5076196   4.791  10.018   2.503 -0.4261  0.6323  0.2756
  908HK4    H3076197   4.734  10.024   2.409 -1.5792  0.9631  0.9810
  908HK4    C4976198   4.914  10.083   2.507  0.0438 -0.2301 -0.0743
  908HK4    H2976199   4.958  10.114   2.411 -1.7088  2.1697 -0.1471
  908HK4     N276200   4.643   9.839   2.589  0.1693  0.2846  0.4587
  908HK4    C3076201   4.647   9.710   2.645  0.3354  0.0012 -0.2077
  908HK4    C2976202   4.756   9.632   2.681  0.3992  0.2532  0.1411
  908HK4    H1576203   4.856   9.675   2.674 -0.2126  1.4808 -1.2032
  908HK4    C2876204   4.738   9.496   2.702 -0.2987  0.2493 -0.4810
  908HK4    C2776205   4.606   9.447   2.695 -0.1414 -0.4331  1.1933
  908HK4    H1476206   4.599   9.338   2.692  0.1878 -0.4855  2.1978
  908HK4    C3276207   4.491   9.523   2.676  0.3847 -0.0911 -0.6645
  908HK4    H1676208   4.394   9.479   2.651  0.0935  1.3568 -2.1795
  908HK4    C3176209   4.512   9.656   2.641  0.2738  0.1343  0.1127
  908HK4    C3476210   4.420   9.755   2.590 -0.0380 -0.2809 -0.1334
  908HK4    C3376211   4.508   9.864   2.555  0.1726 -0.4360 -0.0945
  908HK4    C3576212   4.449   9.964   2.479 -0.4677 -0.4957  0.3201
  908HK4    H1776213   4.520  10.032   2.432  0.1770  0.5634  2.7776
  908HK4    C3676214   4.312   9.973   2.454 -0.3568 -0.1185 -0.1660
  908HK4    H1876215   4.274  10.058   2.396 -0.3011  0.8384  1.1828
  908HK4    C3776216   4.231   9.871   2.502 -0.7452  0.2942  0.0506
  908HK4    H1976217   4.123   9.879   2.518 -0.6332  3.7282 -0.6415
  908HK4    C3876218   4.284   9.756   2.560  0.0098  0.4546 -0.3203
  908HK4    H2076219   4.224   9.669   2.583  2.6299 -1.3976 -0.2241
  908HK4    C1476220   4.853   9.414   2.663 -0.3931 -0.0584 -0.1077
  908HK4     C976221   4.844   9.296   2.587 -0.7186 -0.1058  0.0001
  908HK4     C876222   4.931   9.188   2.609 -0.2722  0.1810 -0.3346
  908HK4    C1176223   5.039   9.209   2.694 -0.3490 -0.3178 -0.1071
  908HK4     H476224   5.127   9.144   2.682 -1.8714 -2.5908  0.7668
  908HK4    C1276225   5.056   9.329   2.762 -0.2280 -0.3254 -0.1227
  908HK4     H576226   5.158   9.349   2.796 -1.0183  1.1626  1.4196
  908HK4    C1376227   4.966   9.434   2.744 -0.0511 -0.2435 -0.5360
  908HK4     H676228   4.982   9.530   2.795 -0.4166 -1.3646  1.7745
  908HK4     C776229   4.935   9.068   2.522  0.6540  0.0771 -0.1452
  908HK4     O276230   4.969   8.959   2.567 -0.1687 -0.0309  0.2092
  908HK4     C476231   4.850   9.071   2.401  0.0661 -0.0416  0.2636
  908HK4     C376232   4.866   8.971   2.306 -0.1014  0.2005 -0.0240
  908HK4     H376233   4.946   8.895   2.316 -0.7193 -0.3420  0.9040
  908HK4     C276234   4.776   8.954   2.202 -0.2360 -0.0107  0.1260
  908HK4     H276235   4.793   8.871   2.132  0.3356  0.6931 -0.5772
  908HK4     C176236   4.673   9.046   2.186 -0.3093 -0.0937  0.1259
  908HK4     H176237   4.587   9.023   2.122  0.6197  0.7909 -1.4616
  908HK4     C676238   4.656   9.152   2.277 -0.1795 -0.0130  0.0574
  908HK4     C576239   4.750   9.168   2.380  0.1435 -0.0631 -0.2267
  908HK4    C1076240   4.767   9.293   2.460 -0.3452  0.0077 -0.2301
  908HK4     O176241   4.762   9.394   2.389 -0.3571 -0.0041 -0.2437
  908HK4    C1676242   4.534   9.229   2.249 -0.0495  0.2548  0.2251
  908HK4    C1576243   4.473   9.303   2.352 -0.4017  0.1154  0.1153
  908HK4     H776244   4.512   9.288   2.454  1.2982 -3.0474 -0.9247
  908HK4    C2076245   4.363   9.384   2.326  0.3700  0.9596 -0.5813
  908HK4     H976246   4.300   9.429   2.404 -0.9369 -0.8411 -0.5595
  908HK4    C1976247   4.313   9.400   2.198 -0.3517 -0.3582 -0.4733
  908HK4    C1876248   4.382   9.330   2.091  1.1883  0.6564 -0.1580
  908HK4    C1776249   4.493   9.250   2.118  0.1661 -0.7304 -0.0049
  908HK4     H876250   4.551   9.207   2.037  0.2418 -0.2620 -0.2032
  908HK4     N176251   4.310   9.361   1.974  0.1264 -0.4631  0.1844
  908HK4    C2176252   4.193   9.428   2.011  0.0475 -0.3678 -0.2352
  908HK4    C2276253   4.198   9.473   2.149 -0.3985 -0.2811 -0.2450
  908HK4    C2676254   4.116   9.574   2.200 -0.2217 -0.1821 -0.1557
  908HK4    H1376255   4.139   9.631   2.290  1.1063  0.9526 -1.1776
  908HK4    C2576256   4.010   9.613   2.120 -0.2444 -0.1043 -0.0855
  908HK4    H1276257   3.952   9.694   2.164  1.2499 -0.0118  1.7719
  908HK4    C2476258   3.990   9.561   1.992  0.7398  0.0213 -0.2890
  908HK4    H1176259   3.905   9.587   1.927  1.1231  3.5366  0.4985
  908HK4    C2376260   4.085   9.476   1.937  0.3746 -0.1889 -0.5945
  908HK4    H1076261   4.073   9.445   1.833 -0.7618  2.0564 -1.1735
  908HK4    C3976262   4.368   9.352   1.847  0.1121 -0.3165  0.1673
  908HK4    C4176263   4.298   9.308   1.733  0.6149 -0.2959 -0.1534
  908HK4    H2176264   4.206   9.248   1.746  0.6933 -0.7168 -1.4385
  908HK4    C4276265   4.346   9.314   1.602 -0.4164 -0.5306 -0.5518
  908HK4    H2276266   4.289   9.280   1.515 -0.3672 -0.7844 -0.4860
  908HK4    C4376267   4.478   9.353   1.583 -0.3286 -0.1468  0.7962
  908HK4    H2376268   4.515   9.376   1.484 -2.7966 -0.6474 -0.2676
  908HK4    C4476269   4.551   9.390   1.696  0.5244 -0.3082  0.3055
  908HK4    H2476270   4.655   9.425   1.694  0.2736  0.4540  0.3290
  908HK4    C4576271   4.503   9.389   1.827 -0.0626  0.2738  0.0955
  908HK4    H2576272   4.563   9.420   1.913  0.2998  1.2424 -0.4956
  909HK4    H2876273   7.770   4.991  10.448  0.1879 -0.7373  0.3101
  909HK4    C4876274   7.780   5.048  10.540 -0.6361  0.3407 -0.2532
  909HK4    C4776275   7.883   5.142  10.548 -0.1334 -0.2624  0.4016
  909HK4    H2776276   7.949   5.162  10.462 -1.7155  0.5818 -0.6360
  909HK4    C4676277   7.905   5.214  10.665 -0.1085 -0.3549  0.4559
  909HK4    H2676278   7.980   5.293  10.674 -0.0927 -0.2804 -0.3383
  909HK4    C4076279   7.832   5.189  10.783 -0.2377  0.1811  0.4858
  909HK4    C5076280   7.722   5.102  10.769  0.2648 -0.3488 -0.1310
  909HK4    H3076281   7.652   5.092  10.852  0.9386 -1.9753  0.2582
  909HK4    C4976282   7.701   5.029  10.653 -0.4149 -0.0864 -0.1716
  909HK4    H2976283   7.605   4.977  10.636 -0.3270  0.1166 -1.3437
  909HK4     N276284   7.886   5.213  10.910 -0.0554  0.1499  0.4160
  909HK4    C3076285   8.022   5.212  10.947  0.0525  0.0960  0.0222
  909HK4    C2976286   8.135   5.176  10.875 -0.1344 -0.2389 -0.1039
  909HK4    H1576287   8.121   5.090  10.809 -1.3180 -0.9367  1.0424
  909HK4    C2876288   8.264   5.210  10.914 -0.2314 -0.0744  0.0754
  909HK4    C2776289   8.275   5.280  11.036 -0.0416  0.3596 -0.1868
  909HK4    H1476290   8.375   5.305  11.074 -1.0066  1.2763  1.8311
  909HK4    C3276291   8.166   5.312  11.116  0.0501  0.0710  0.0548
  909HK4    H1676292   8.182   5.355  11.215  0.5014 -1.4728  0.6687
  909HK4    C3176293   8.037   5.284  11.073  0.0707 -0.4532  0.3331
  909HK4    C3476294   7.905   5.324  11.117  0.1947  0.6531 -0.3069
  909HK4    C3376295   7.814   5.269  11.018 -0.2096  0.8065 -0.0237
  909HK4    C3576296   7.682   5.310  11.032 -0.6550 -0.6634  0.1066
  909HK4    H1776297   7.613   5.302  10.949 -0.6720  1.2471 -0.0754
  909HK4    C3676298   7.633   5.382  11.140 -0.2296 -0.1964 -0.0137
  909HK4    H1876299   7.524   5.392  11.151 -0.7214 -1.1611 -3.3949
  909HK4    C3776300   7.720   5.430  11.237  0.1863  0.1722 -0.5638
  909HK4    H1976301   7.689   5.463   0.088  3.3304 -0.5340  0.7252
  909HK4    C3876302   7.855   5.399  11.223  0.1962 -0.2003  0.3002
  909HK4    H2076303   7.922   5.422   0.058 -0.8196  1.3894  0.7125
  909HK4    C1476304   8.381   5.157  10.844 -0.3268 -0.2263  0.0329
  909HK4     C976305   8.500   5.112  10.904 -0.0463  0.0428 -0.3154
  909HK4     C876306   8.626   5.143  10.848  0.1461 -0.1842 -0.0059
  909HK4    C1176307   8.628   5.209  10.726  0.5731 -1.0525 -0.4717
  909HK4     H476308   8.726   5.251  10.699  0.1758  0.9985  1.1510
  909HK4    C1276309   8.511   5.232  10.654  0.2260 -0.4175  0.2806
  909HK4     H576310   8.517   5.267  10.550  2.3744 -1.6579 -0.0531
  909HK4    C1376311   8.387   5.206  10.712  0.0539  0.4088  0.2838
  909HK4     H676312   8.294   5.211  10.653 -0.8920  1.7483  1.8576
  909HK4     C776313   8.749   5.083  10.904  0.0603 -0.0202  0.3574
  909HK4     O276314   8.854   5.145  10.900 -0.2835  0.4937 -0.9580
  909HK4     C476315   8.732   4.974  11.003 -0.3408 -0.3273 -0.0425
  909HK4     C376316   8.846   4.910  11.051 -0.2257 -0.2246 -0.1734
  909HK4     H376317   8.931   4.903  10.981 -1.2532  0.5854 -1.5279
  909HK4     C276318   8.853   4.842  11.172 -0.2398 -0.3625 -0.2488
  909HK4     H276319   8.954   4.816  11.207  0.0479  0.1731 -0.6726
  909HK4     C176320   8.737   4.840  11.248 -0.1638 -1.1586 -0.1518
  909HK4     H176321   8.751   4.816   0.106  1.5314  0.1869 -0.0514
  909HK4     C676322   8.618   4.902  11.204  0.3854  0.1595  0.1953
  909HK4     C576323   8.612   4.954  11.074 -0.2536  0.4323  0.3273
  909HK4    C1076324   8.490   5.002  11.004 -0.1230  0.4081  0.0830
  909HK4     O176325   8.407   4.915  10.982 -0.0452  0.2151  0.5478
  909HK4    C1676326   8.540   4.968   0.062 -0.2461 -0.0262 -0.1475
  909HK4    C1576327   8.597   5.012   0.183  0.1699  0.3701 -0.4850
  909HK4     H776328   8.679   4.954   0.228 -0.3041  0.1785  0.1308
  909HK4    C2076329   8.528   5.097   0.268 -0.1270 -0.0959 -0.2621
  909HK4     H976330   8.577   5.128   0.360 -1.1780 -2.7521  1.2556
  909HK4    C1976331   8.392   5.122   0.247 -0.2275 -0.4416 -0.0353
  909HK4    C1876332   8.328   5.047   0.141  0.2286 -0.2750 -0.4316
  909HK4    C1776333   8.403   4.977   0.047 -0.2924 -0.9686 -0.3409
  909HK4     H876334   8.345   4.919  11.223  0.6264  1.2735 -2.9861
  909HK4     N176335   8.188   5.060   0.147  0.2873  0.1535  0.1059
  909HK4    C2176336   8.173   5.160   0.244  0.5716  0.0835  0.2229
  909HK4    C2276337   8.294   5.211   0.305  0.5568  0.4268 -0.0338
  909HK4    C2676338   8.295   5.334   0.370  0.0393  0.2313  0.3516
  909HK4    H1376339   8.377   5.374   0.429 -0.6842  1.6146  0.4567
  909HK4    C2576340   8.182   5.416   0.368 -0.0134  0.1518 -0.2331
  909HK4    H1276341   8.181   5.520   0.398 -0.6511  0.1289 -0.1717
  909HK4    C2476342   8.066   5.367   0.309 -0.1395 -0.0340  0.1652
  909HK4    H1176343   7.974   5.426   0.319  0.4163  0.7716  0.6475
  909HK4    C2376344   8.058   5.237   0.262  0.5030  0.1298 -0.4235
  909HK4    H1076345   7.960   5.188   0.270  1.1209 -0.9078  1.1315
  909HK4    C3976346   8.094   4.966   0.102  0.0283  0.3310  0.2701
  909HK4    C4176347   7.964   5.004   0.066  0.1175 -0.2352 -0.6830
  909HK4    H2176348   7.955   5.099   0.012  0.8005  1.0706  1.4667
  909HK4    C4276349   7.856   4.916   0.071 -0.3064  0.3128 -0.1897
  909HK4    H2276350   7.750   4.945   0.060 -0.1624  1.6190  1.5757
  909HK4    C4376351   7.889   4.784   0.097  0.0444  0.5468  0.5800
  909HK4    H2376352   7.809   4.711   0.083  3.2521 -3.1174  0.3662
  909HK4    C4476353   8.019   4.737   0.114  0.0219  0.3457  0.2155
  909HK4    H2476354   8.042   4.632   0.139  2.6939  0.9917  0.6016
  909HK4    C4576355   8.122   4.830   0.128 -0.0603  0.3788  0.6118
  909HK4    H2576356   8.224   4.790   0.139 -0.1300  0.3373  1.1262
  910HK4    H2876357   3.958   7.986   9.553  0.9333  1.0241 -0.7458
  910HK4    C4876358   3.924   8.037   9.643 -0.2869 -0.7425 -0.1773
  910HK4    C4776359   4.021   8.075   9.736 -0.4566 -0.7433 -0.0002
  910HK4    H2776360   4.117   8.025   9.715  0.1444 -0.5317  2.1404
  910HK4    C4676361   4.004   8.169   9.836 -0.0096 -0.3897 -0.2531
  910HK4    H2676362   4.083   8.191   9.909 -0.4568 -0.3196  0.2121
  910HK4    C4076363   3.879   8.233   9.853  0.0353 -0.4104  0.1545
  910HK4    C5076364   3.780   8.194   9.761 -0.0486  0.8819 -0.2983
  910HK4    H3076365   3.681   8.243   9.758 -0.3718  0.2892  0.4883
  910HK4    C4976366   3.802   8.103   9.659  0.1836 -0.0299  0.5634
  910HK4    H2976367   3.719   8.061   9.600  1.6717 -2.1513 -0.1369
  910HK4     N276368   3.864   8.356   9.918 -0.1180 -0.4961  0.2839
  910HK4    C3076369   3.961   8.452   9.953 -0.2861  0.1172 -0.8976
  910HK4    C2976370   4.099   8.459   9.935 -0.1774 -0.2043 -0.2032
  910HK4    H1576371   4.137   8.401   9.851  0.2163  0.0137 -0.1722
  910HK4    C2876372   4.176   8.544  10.013 -0.2632 -0.2097 -0.1093
  910HK4    C2776373   4.113   8.640  10.094  0.0941 -0.1716  0.1241
  910HK4    H1476374   4.172   8.712  10.153  1.7690  0.1159 -1.8291
  910HK4    C3276375   3.974   8.648  10.105  0.0895 -0.3155  0.1773
  910HK4    H1676376   3.928   8.731  10.159  1.3086  0.3706  0.1860
  910HK4    C3176377   3.900   8.557  10.031  0.2189 -0.0558 -0.2802
  910HK4    C3476378   3.759   8.525  10.045  0.1308  0.2889 -0.3957
  910HK4    C3376379   3.744   8.396   9.981 -0.2353  0.3662 -0.4719
  910HK4    C3576380   3.623   8.329   9.995 -0.0272  0.0269 -0.2877
  910HK4    H1776381   3.607   8.234   9.944  1.9142  0.4752 -1.7734
  910HK4    C3676382   3.516   8.391  10.059 -0.0439 -0.4626  0.1638
  910HK4    H1876383   3.416   8.345  10.067  0.9363 -2.6605  0.0639
  910HK4    C3776384   3.527   8.518  10.115  0.5245 -0.2375 -0.4463
  910HK4    H1976385   3.442   8.566  10.164  0.9265  1.2047 -1.1400
  910HK4    C3876386   3.651   8.579  10.114  0.2444  0.3390 -0.2585
  910HK4    H2076387   3.663   8.676  10.163  2.2700  0.4197 -0.8689
  910HK4    C1476388   4.314   8.507  10.050 -0.1882  0.0750 -0.1072
  910HK4     C976389   4.384   8.540  10.166  0.1347 -0.4218 -0.1591
  910HK4     C876390   4.521   8.573  10.165 -0.1107  0.6179  0.0780
  910HK4    C1176391   4.596   8.550  10.050  0.0092 -0.5930  0.3940
  910HK4     H476392   4.697   8.584  10.024  0.1298 -1.2222  0.0231
  910HK4    C1276393   4.533   8.499   9.937 -0.1209  0.3596  0.0417
  910HK4     H576394   4.595   8.502   9.846  1.8048 -0.6584  1.3115
  910HK4    C1376395   4.395   8.481   9.938 -0.0146 -0.4650  0.1393
  910HK4     H676396   4.345   8.452   9.844  0.4446 -3.1509  0.6909
  910HK4     C776397   4.584   8.614  10.293  0.0583  0.0546  0.1772
  910HK4     O276398   4.687   8.681  10.287  0.2093 -0.2464 -0.5400
  910HK4     C476399   4.514   8.614  10.423 -0.2442  0.3900  0.0171
  910HK4     C376400   4.576   8.636  10.546  0.0926  0.1421 -0.1101
  910HK4     H376401   4.685   8.634  10.552  0.0932 -0.9716 -0.4795
  910HK4     C276402   4.503   8.648  10.664  0.0962 -0.4253 -0.0501
  910HK4     H276403   4.562   8.690  10.747  0.6024  0.0758 -0.6512
  910HK4     C176404   4.365   8.648  10.655  0.0954  0.6640 -0.0999
  910HK4     H176405   4.310   8.653  10.751  0.2877 -1.8843  0.1521
  910HK4     C676406   4.297   8.637  10.532 -0.1914 -0.7692  0.1798
  910HK4     C576407   4.373   8.601  10.420 -0.2124  0.0819 -0.1076
  910HK4    C1076408   4.310   8.549  10.295  0.0222  0.1740 -0.2663
  910HK4     O176409   4.224   8.464  10.318  0.0203  0.3654  0.4656
  910HK4    C1676410   4.170   8.709  10.540  0.2464  0.0131  0.1595
  910HK4    C1576411   4.126   8.794  10.436 -0.0434 -0.2226  0.0871
  910HK4     H776412   4.194   8.844  10.365 -1.2120  1.3974  0.0913
  910HK4    C2076413   3.992   8.814  10.408 -0.0205 -0.2262 -0.0268
  910HK4     H976414   3.958   8.894  10.342 -0.1160 -1.3419 -1.3624
  910HK4    C1976415   3.898   8.753  10.491 -0.2379 -0.0243 -0.1244
  910HK4    C1876416   3.939   8.672  10.604  0.1174 -0.4901 -0.5912
  910HK4    C1776417   4.075   8.657  10.628  0.0751 -0.1044 -0.0953
  910HK4     H876418   4.110   8.627  10.727 -0.3408  0.7457  0.3157
  910HK4     N176419   3.829   8.612  10.667  0.1927 -0.1193 -0.1063
  910HK4    C2176420   3.715   8.660  10.598  0.0835  0.4515  0.4637
  910HK4    C2276421   3.753   8.751  10.492 -0.2398  0.0581  0.0106
  910HK4    C2676422   3.662   8.807  10.403  0.5571  0.8191 -0.3246
  910HK4    H1376423   3.697   8.874  10.324  1.6149 -0.8603 -1.2869
  910HK4    C2576424   3.528   8.772  10.414  0.6981  0.4234  0.1425
  910HK4    H1276425   3.450   8.801  10.343  0.5445  1.8009  0.8623
  910HK4    C2476426   3.488   8.689  10.517  0.1567  0.0494 -0.3608
  910HK4    H1176427   3.382   8.667  10.536  0.1775  0.0822 -0.2052
  910HK4    C2376428   3.578   8.639  10.610  0.0121  0.7239  0.1426
  910HK4    H1076429   3.545   8.569  10.687  0.5632 -0.9753 -1.1259
  910HK4    C3976430   3.839   8.505  10.757 -0.1067 -0.1632 -0.1228
  910HK4    C4176431   3.744   8.487  10.860 -0.5641 -0.1031 -0.5291
  910HK4    H2176432   3.706   8.573  10.917 -1.0138 -0.9292  0.4389
  910HK4    C4276433   3.734   8.363  10.923  0.2624  0.2601  0.3352
  910HK4    H2276434   3.663   8.354  11.007  0.0323 -1.1636  0.0097
  910HK4    C4376435   3.793   8.249  10.870 -0.5221  0.0138 -0.0349
  910HK4    H2376436   3.771   8.147  10.900 -0.0704 -0.2083 -0.4503
  910HK4    C4476437   3.890   8.266  10.772 -0.3608 -0.0662  0.1068
  910HK4    H2476438   3.956   8.182  10.747 -0.4430  0.6390 -2.7614
  910HK4    C4576439   3.918   8.393  10.723 -0.1744 -0.2020 -0.1465
  910HK4    H2576440   3.996   8.407  10.648 -1.9167  1.4369 -1.7044
  911HK4    H2876441   6.290  10.211   2.471  1.3523 -0.8102  1.3068
  911HK4    C4876442   6.217  10.150   2.525 -0.5818  0.2850 -0.0229
  911HK4    C4776443   6.180  10.178   2.656 -0.3723 -0.2991  0.1611
  911HK4    H2776444   6.235  10.257   2.710 -2.2231  1.5451 -0.5810
  911HK4    C4676445   6.070  10.116   2.713 -0.4988  0.2420  0.5108
  911HK4    H2676446   6.030  10.144   2.811 -0.3509  0.1254  0.6045
  911HK4    C4076447   5.994  10.019   2.644  0.7272 -0.4408  0.1224
  911HK4    C5076448   6.049   9.974   2.522 -0.8554  1.1059 -1.1832
  911HK4    H3076449   5.997   9.896   2.465 -0.4770  0.4208 -0.6034
  911HK4    C4976450   6.155  10.043   2.463 -0.1740  0.4564 -0.7309
  911HK4    H2976451   6.174  10.036   2.354  0.6573  0.7452 -0.6045
  911HK4     N276452   5.872   9.980   2.700  0.4627  0.0677 -0.0942
  911HK4    C3076453   5.840   9.959   2.836 -0.1532 -0.2782 -0.2898
  911HK4    C2976454   5.917   9.923   2.946  0.3405 -0.3546 -0.6568
  911HK4    H1576455   6.025   9.908   2.937  0.3129 -0.9474 -0.0364
  911HK4    C2876456   5.859   9.913   3.071  0.5980 -0.4293 -0.5421
  911HK4    C2776457   5.718   9.914   3.084  0.6171 -0.7280 -0.2681
  911HK4    H1476458   5.665   9.908   3.180  1.9690 -2.2788  0.4077
  911HK4    C3276459   5.635   9.929   2.973  0.1599 -0.8386  0.0588
  911HK4    H1676460   5.528   9.911   2.976 -0.3866  0.6317 -5.4153
  911HK4    C3176461   5.696   9.959   2.852 -0.1093 -0.1206  0.0992
  911HK4    C3476462   5.636   9.986   2.723  0.1284  0.1340  0.0426
  911HK4    C3376463   5.749   9.999   2.633  0.2656 -0.3591  0.1449
  911HK4    C3576464   5.723   9.994   2.497 -0.4594 -0.1178  0.2751
  911HK4    H1776465   5.804  10.006   2.426 -1.3527  1.1828 -0.5381
  911HK4    C3676466   5.593   9.975   2.449 -0.1446 -0.1791 -0.5611
  911HK4    H1876467   5.588   9.953   2.342 -1.1903  3.0423 -1.2161
  911HK4    C3776468   5.484   9.964   2.534  0.1305  0.5623 -0.1033
  911HK4    H1976469   5.383   9.958   2.495  0.5043  1.7130 -1.2332
  911HK4    C3876470   5.508   9.973   2.671  0.1264  0.7309 -0.1137
  911HK4    H2076471   5.429   9.956   2.744 -0.3920  1.2026 -0.5663
  911HK4    C1476472   5.940   9.881   3.190 -0.0245 -0.2372 -0.0564
  911HK4     C976473   5.891   9.817   3.304 -0.1741 -0.3889 -0.2059
  911HK4     C876474   5.923   9.870   3.430  0.0604 -0.1204 -0.3757
  911HK4    C1176475   6.029   9.959   3.444 -0.1900  0.1691 -0.3425
  911HK4     H476476   6.058   9.993   3.545  1.6934  0.3937 -0.9465
  911HK4    C1276477   6.097  10.000   3.330  0.0556  0.4070 -0.1093
  911HK4     H576478   6.203  10.029   3.340  0.0177  0.8218 -0.9179
  911HK4    C1376479   6.049   9.970   3.204 -0.1275 -0.1314  0.0860
  911HK4     H676480   6.101  10.009   3.115 -1.1218 -0.6972 -0.7571
  911HK4     C776481   5.855   9.816   3.550 -0.7655  0.3660 -0.6196
  911HK4     O276482   5.827   9.899   3.637  0.0619 -0.3911  0.3814
  911HK4     C476483   5.786   9.685   3.542  0.1420 -0.1771  0.2038
  911HK4     C376484   5.747   9.628   3.662  0.2297 -0.0353  0.2975
  911HK4     H376485   5.785   9.681   3.750 -1.1129  1.6555 -0.1152
  911HK4     C276486   5.667   9.515   3.671 -0.0357  0.1394  0.1886
  911HK4     H276487   5.622   9.485   3.766 -1.7972  1.7968 -0.0860
  911HK4     C176488   5.642   9.459   3.546  0.5481 -0.0291  0.1498
  911HK4     H176489   5.551   9.397   3.545  0.3380  0.2572  0.9699
  911HK4     C676490   5.672   9.512   3.419 -0.1452 -0.1296 -0.0575
  911HK4     C576491   5.752   9.628   3.418  0.0228 -0.2386  0.2666
  911HK4    C1076492   5.816   9.689   3.298 -0.7966 -0.0343 -0.0710
  911HK4     O176493   5.852   9.617   3.205  0.0261  0.3025 -0.0140
  911HK4    C1676494   5.656   9.419   3.307  0.1023  0.0264 -0.2242
  911HK4    C1576495   5.657   9.280   3.331  0.7616  0.0510 -0.1122
  911HK4     H776496   5.725   9.239   3.408 -1.2857 -1.2844  1.0184
  911HK4    C2076497   5.587   9.184   3.260  0.3704  0.0298  0.3032
  911HK4     H976498   5.565   9.088   3.308 -0.3351  0.8408  1.6446
  911HK4    C1976499   5.523   9.221   3.142 -0.1549 -0.0987  0.5419
  911HK4    C1876500   5.513   9.364   3.117 -0.0270 -0.1082  0.4209
  911HK4    C1776501   5.575   9.456   3.200  0.4324  0.2993 -0.3785
  911HK4     H876502   5.560   9.563   3.182  2.5510  0.2528 -2.6804
  911HK4     N176503   5.470   9.381   2.984  0.2085 -0.1727  0.3381
  911HK4    C2176504   5.445   9.253   2.928 -0.1960  0.0681 -0.0328
  911HK4    C2276505   5.491   9.150   3.019  0.2667  0.4146  0.1284
  911HK4    C2676506   5.487   9.018   2.976  1.2353  0.4054  0.0669
  911HK4    H1376507   5.502   8.941   3.052 -2.4210 -2.4054 -1.9064
  911HK4    C2576508   5.434   8.979   2.854 -0.1544  0.3377  0.6780
  911HK4    H1276509   5.412   8.873   2.838  0.3211  0.4884 -1.1098
  911HK4    C2476510   5.397   9.077   2.763 -0.0316 -0.3648 -0.1362
  911HK4    H1176511   5.360   9.047   2.664  2.2104 -0.8990 -0.8395
  911HK4    C2376512   5.401   9.210   2.804  0.2360 -0.4060 -0.0200
  911HK4    H1076513   5.360   9.286   2.737  0.6248  0.3828  0.6328
  911HK4    C3976514   5.505   9.494   2.909  0.0172 -0.0227  0.4755
  911HK4    C4176515   5.424   9.527   2.798  0.5834 -0.0803  0.0406
  911HK4    H2176516   5.318   9.497   2.807  0.2059  1.4131  0.7010
  911HK4    C4276517   5.469   9.603   2.691 -0.2164  0.2474 -0.0666
  911HK4    H2276518   5.397   9.641   2.617 -1.2437  0.5178  1.0377
  911HK4    C4376519   5.600   9.648   2.692 -0.3083  0.5274  0.8802
  911HK4    H2376520   5.635   9.709   2.609  0.2967  2.0792  2.2635
  911HK4    C4476521   5.680   9.622   2.803  0.4586 -0.0295  0.2119
  911HK4    H2476522   5.773   9.681   2.810  0.6733 -0.2889 -0.4428
  911HK4    C4576523   5.634   9.550   2.913 -0.1025  0.2720  0.1767
  911HK4    H2576524   5.704   9.511   2.988 -0.4176 -0.0321  0.3094
  912HK4    H2876525   7.082   4.649   4.801  0.1519  0.4876 -0.7464
  912HK4    C4876526   6.983   4.668   4.845  0.2532  0.1908 -0.3879
  912HK4    C4776527   6.874   4.612   4.779 -0.0933  0.3518  0.0435
  912HK4    H2776528   6.879   4.563   4.681 -0.2300  0.3093  0.0599
  912HK4    C4676529   6.748   4.622   4.835 -0.0361 -0.3171  0.2885
  912HK4    H2676530   6.669   4.569   4.778 -0.8791 -0.0838  1.2222
  912HK4    C4076531   6.718   4.670   4.964  0.4755 -0.1424  0.3411
  912HK4    C5076532   6.832   4.732   5.020  0.3057  0.2458  0.2458
  912HK4    H3076533   6.815   4.775   5.120  2.0535 -0.4781  0.8770
  912HK4    C4976534   6.960   4.731   4.966  0.2577 -0.8143  0.1428
  912HK4    H2976535   7.035   4.805   4.997  0.4889 -1.4567  1.1277
  912HK4     N276536   6.592   4.678   5.024  0.2502 -0.0176 -0.1504
  912HK4    C3076537   6.478   4.656   4.945  0.0494  0.5457 -0.0170
  912HK4    C2976538   6.451   4.683   4.811  0.0330 -0.0639 -0.1367
  912HK4    H1576539   6.511   4.750   4.749 -0.4362  1.3654  0.9467
  912HK4    C2876540   6.341   4.625   4.749  0.1763 -0.4501 -0.0330
  912HK4    C2776541   6.239   4.561   4.822 -0.2552  0.3209  0.0475
  912HK4    H1476542   6.154   4.512   4.771 -2.3212  2.0756  1.6957
  912HK4    C3276543   6.256   4.542   4.959 -0.0830  0.5315  0.0546
  912HK4    H1676544   6.173   4.497   5.013 -0.5937  0.4520 -0.7909
  912HK4    C3176545   6.370   4.593   5.019  0.3456 -0.1490 -0.1745
  912HK4    C3476546   6.414   4.598   5.157 -0.1655  0.5817 -0.0330
  912HK4    C3376547   6.550   4.649   5.155 -0.0488  0.2693 -0.1817
  912HK4    C3576548   6.624   4.646   5.272 -0.1846  0.4320 -0.0908
  912HK4    H1776549   6.726   4.685   5.275 -0.1624  0.3166  0.8502
  912HK4    C3676550   6.567   4.599   5.390 -0.2704  0.2432 -0.2066
  912HK4    H1876551   6.616   4.633   5.483 -0.0755 -0.6095  0.0027
  912HK4    C3776552   6.436   4.554   5.394 -0.1970  0.0144 -0.4010
  912HK4    H1976553   6.398   4.492   5.476  0.8298 -1.9724 -1.3947
  912HK4    C3876554   6.362   4.550   5.277 -0.4489  0.3425 -0.2506
  912HK4    H2076555   6.263   4.506   5.290 -0.1072 -0.0964  0.9374
  912HK4    C1476556   6.340   4.641   4.603  0.2645  0.6807  0.0861
  912HK4     C976557   6.223   4.632   4.527  0.2880  0.3253  0.0901
  912HK4     C876558   6.225   4.567   4.402 -0.4237 -0.0424  0.2671
  912HK4    C1176559   6.345   4.531   4.341 -0.5018 -0.9660  0.6456
  912HK4     H476560   6.341   4.508   4.234  1.3389 -1.0348  0.5758
  912HK4    C1276561   6.465   4.560   4.404 -0.4565  0.2380  0.0114
  912HK4     H576562   6.555   4.557   4.341  0.9934  0.6247  2.0236
  912HK4    C1376563   6.459   4.612   4.533  0.1267  0.0625  0.1083
  912HK4     H676564   6.553   4.651   4.576 -0.0913  0.0276  0.6252
  912HK4     C776565   6.095   4.539   4.339 -0.3213  0.4171 -0.1481
  912HK4     O276566   6.095   4.497   4.223 -0.0011  0.2960 -0.1053
  912HK4     C476567   5.972   4.595   4.399 -0.2010 -0.0505  0.5329
  912HK4     C376568   5.850   4.547   4.352 -0.0401  0.0347  0.0264
  912HK4     H376569   5.846   4.451   4.299  1.3480  1.5604 -2.9518
  912HK4     C276570   5.730   4.610   4.384 -0.2761 -0.4124  0.0217
  912HK4     H276571   5.641   4.568   4.334 -0.2255  0.2119 -0.5906
  912HK4     C176572   5.733   4.719   4.470  0.2636 -0.1591 -0.3164
  912HK4     H176573   5.640   4.777   4.474 -0.1987 -0.9678  1.0821
  912HK4     C676574   5.854   4.761   4.529 -0.1494  0.1462  0.3232
  912HK4     C576575   5.974   4.696   4.497 -0.1470  0.1485  0.3297
  912HK4    C1076576   6.104   4.712   4.568  0.1235  0.2200 -0.1810
  912HK4     O176577   6.112   4.796   4.658  0.7579 -0.2500  0.2110
  912HK4    C1676578   5.837   4.873   4.623 -0.2112  0.1068  0.3586
  912HK4    C1576579   5.724   4.882   4.708 -0.3893 -0.2168  0.1588
  912HK4     H776580   5.659   4.795   4.726 -0.1976 -0.0279  1.8231
  912HK4    C2076581   5.681   4.997   4.772  0.6021  0.2026  0.0833
  912HK4     H976582   5.585   5.006   4.823  0.2120 -1.2214 -0.3734
  912HK4    C1976583   5.756   5.112   4.752  0.3494  0.4514  0.5646
  912HK4    C1876584   5.867   5.108   4.660 -0.4698 -0.3869 -0.3992
  912HK4    C1776585   5.904   4.991   4.594  0.4708 -0.3535  0.0572
  912HK4     H876586   5.986   4.990   4.522  0.1884 -2.3822 -0.2607
  912HK4     N176587   5.951   5.219   4.683 -0.4078 -0.4788 -0.1760
  912HK4    C2176588   5.879   5.299   4.774  0.4881  0.0547  0.0714
  912HK4    C2276589   5.753   5.241   4.819  0.2876  0.6209  0.2429
  912HK4    C2676590   5.659   5.321   4.882  0.1510  0.1499  0.6422
  912HK4    H1376591   5.576   5.271   4.932 -1.7633  0.4224 -2.1227
  912HK4    C2576592   5.677   5.458   4.897  0.0007  0.2354  0.0751
  912HK4    H1276593   5.610   5.512   4.964  0.2260  2.9398 -1.8226
  912HK4    C2476594   5.800   5.511   4.859  0.2167 -0.3478 -0.0558
  912HK4    H1176595   5.807   5.621   4.852 -2.1247 -0.1808 -0.1613
  912HK4    C2376596   5.900   5.434   4.801  0.3796  0.1876 -0.4985
  912HK4    H1076597   5.995   5.483   4.781 -0.0353  0.9764 -0.5337
  912HK4    C3976598   6.090   5.218   4.670 -0.3925  0.3121 -0.1517
  912HK4    C4176599   6.159   5.338   4.646  0.3321 -0.1198 -0.2719
  912HK4    H2176600   6.105   5.422   4.598 -0.8102 -1.5917 -1.6361
  912HK4    C4276601   6.296   5.352   4.665  0.1931 -0.3102  0.9157
  912HK4    H2276602   6.346   5.441   4.624 -0.1419 -0.4213  0.2495
  912HK4    C4376603   6.366   5.238   4.703  0.2507 -0.4481  0.3980
  912HK4    H2376604   6.474   5.240   4.716  0.2902 -2.2529  0.5031
  912HK4    C4476605   6.302   5.116   4.722 -0.2380 -0.3237 -0.4293
  912HK4    H2476606   6.361   5.024   4.731  0.0627 -0.3449 -2.4071
  912HK4    C4576607   6.164   5.106   4.713 -0.3425  0.4680  0.1681
  912HK4    H2576608   6.118   5.026   4.773 -1.6750  0.2151 -1.1546
  913HK4    H2876609   0.289   2.984  10.761 -0.9665  2.2983 -0.0738
  913HK4    C4876610   0.393   3.007  10.736 -0.6137  0.0867 -0.8054
  913HK4    C4776611   0.417   3.135  10.688  0.1402  0.1243 -0.3314
  913HK4    H2776612   0.332   3.204  10.692 -2.0614 -2.5930  1.1796
  913HK4    C4676613   0.540   3.180  10.641  0.0218  0.0436 -0.7230
  913HK4    H2676614   0.543   3.285  10.608 -0.2682  1.5876  3.7927
  913HK4    C4076615   0.649   3.091  10.642  0.1868  0.2386  1.0073
  913HK4    C5076616   0.616   2.963  10.691  0.4162  0.0007  0.5527
  913HK4    H3076617   0.701   2.894  10.697  0.5755  0.1525  0.0343
  913HK4    C4976618   0.494   2.913  10.734 -0.2081  0.5177 -0.5917
  913HK4    H2976619   0.488   2.819  10.791 -0.6417 -0.0779 -1.6062
  913HK4     N276620   0.780   3.141  10.632  0.1761  0.2117  0.7168
  913HK4    C3076621   0.808   3.278  10.654  0.4632  0.3665 -0.5994
  913HK4    C2976622   0.753   3.366  10.746 -0.0069 -0.0395 -0.4865
  913HK4    H1576623   0.661   3.338  10.797 -1.2446  1.5072 -1.7954
  913HK4    C2876624   0.808   3.492  10.771  0.7091 -0.6445  1.0277
  913HK4    C2776625   0.917   3.529  10.689 -0.5543 -0.1052 -0.4365
  913HK4    H1476626   0.968   3.623  10.713  2.8408 -2.0773  0.4307
  913HK4    C3276627   0.983   3.444  10.601  0.1396  0.2703 -0.2771
  913HK4    H1676628   1.047   3.492  10.527 -0.7618 -1.2347 -2.0498
  913HK4    C3176629   0.932   3.316  10.589  0.8622 -0.0380 -0.0814
  913HK4    C3476630   0.982   3.195  10.525 -0.2752 -0.4208 -0.2621
  913HK4    C3376631   0.895   3.088  10.571 -0.2145 -0.2121  0.3455
  913HK4    C3576632   0.903   2.973  10.494 -0.2170  0.1395 -0.1854
  913HK4    H1776633   0.846   2.888  10.532  0.9400  0.0722  1.4487
  913HK4    C3676634   0.986   2.958  10.383  0.3940 -0.1366  0.3048
  913HK4    H1876635   1.013   2.857  10.347  2.3069  1.2258 -2.2198
  913HK4    C3776636   1.062   3.065  10.340  0.0131  0.0944  0.1995
  913HK4    H1976637   1.131   3.042  10.259 -0.3470 -1.2543  0.2740
  913HK4    C3876638   1.066   3.182  10.416  0.5874 -0.0179  0.3458
  913HK4    H2076639   1.128   3.267  10.389 -1.8588  1.6988 -0.0195
  913HK4    C1476640   0.750   3.586  10.868  0.4991  0.1812  0.1113
  913HK4     C976641   0.749   3.724  10.848 -0.5010  0.1519 -0.0806
  913HK4     C876642   0.765   3.806  10.962  0.3293  0.1133 -0.1629
  913HK4    C1176643   0.755   3.755  11.091  1.1124  0.0279 -0.1344
  913HK4     H476644   0.793   3.801  11.183  0.4974 -0.8879  0.5789
  913HK4    C1276645   0.729   3.619  11.104  0.2705  0.1741 -0.2682
  913HK4     H576646   0.731   3.582  11.208 -3.1536  1.6771  0.4139
  913HK4    C1376647   0.732   3.531  10.997 -0.9714 -0.0058 -0.1646
  913HK4     H676648   0.716   3.424  11.018 -0.5941  0.4297  2.4704
  913HK4     C776649   0.795   3.951  10.947  0.3730  0.1562  0.3223
  913HK4     O276650   0.840   4.015  11.041  0.3584  0.4055  0.1601
  913HK4     C476651   0.789   4.010  10.811  0.5300 -0.2376  0.1421
  913HK4     C376652   0.828   4.142  10.790 -0.0474 -0.0841  0.0371
  913HK4     H376653   0.912   4.174  10.853  2.5102 -3.3603 -1.5582
  913HK4     C276654   0.789   4.219  10.681  0.1229 -0.5757 -0.3729
  913HK4     H276655   0.835   4.311  10.641  0.5884 -0.1438  1.1128
  913HK4     C176656   0.692   4.159  10.602 -0.3565  0.3108 -0.4596
  913HK4     H176657   0.657   4.215  10.514 -2.6512  0.5302  0.5325
  913HK4     C676658   0.635   4.032  10.624  0.3668  0.1018  0.2052
  913HK4     C576659   0.699   3.952  10.720  0.2108  0.0570  0.2698
  913HK4    C1076660   0.698   3.803  10.733  0.3132 -0.0224 -0.5689
  913HK4     O176661   0.663   3.740  10.633  0.4588 -0.6270 -0.2409
  913HK4    C1676662   0.500   4.003  10.573  0.1522  0.5877  0.4941
  913HK4    C1576663   0.447   4.063  10.457  0.1334 -0.2832  0.0429
  913HK4     H776664   0.513   4.131  10.401 -0.9024  1.6168  1.0705
  913HK4    C2076665   0.320   4.041  10.406  0.1620 -0.4245  0.0351
  913HK4     H976666   0.308   4.064  10.300 -1.7354  0.3918  0.4081
  913HK4    C1976667   0.236   3.959  10.479  0.0670  0.0304  0.4337
  913HK4    C1876668   0.279   3.902  10.605  0.6730 -0.2483  0.1044
  913HK4    C1776669   0.409   3.929  10.647  0.3396  0.5162  0.6551
  913HK4     H876670   0.432   3.904  10.751 -0.0844 -0.9307  0.4190
  913HK4     N176671   0.187   3.808  10.655  0.1862  0.4169  0.4576
  913HK4    C2176672   0.078   3.824  10.566  0.3765 -0.0533  0.1430
  913HK4    C2276673   0.100   3.915  10.456  0.3378 -0.4759 -0.2157
  913HK4    C2676674  11.240   3.939  10.371  0.3198 -0.5062 -0.2025
  913HK4    H1376675   0.016   3.993  10.279 -3.4335 -1.3109 -1.7433
  913HK4    C2576676  11.117   3.876  10.383 -0.1883  0.4528 -0.3003
  913HK4    H1276677  11.038   3.895  10.311 -0.6399 -0.7280 -0.1311
  913HK4    C2476678  11.095   3.789  10.489  0.2126  0.7338  0.0129
  913HK4    H1176679  10.999   3.736  10.492  0.5750  0.1060  1.1412
  913HK4    C2376680  11.198   3.771  10.580  0.2193  0.2624 -0.0883
  913HK4    H1076681  11.164   3.740  10.679 -1.3660  0.4192 -0.5754
  913HK4    C3976682   0.221   3.688  10.719  0.1192  0.2783  0.2353
  913HK4    C4176683   0.139   3.628  10.817 -0.1042  0.0996 -0.0616
  913HK4    H2176684   0.040   3.664  10.848 -0.4365 -0.8472  0.0012
  913HK4    C4276685   0.195   3.529  10.896 -0.6111 -0.6835 -0.6681
  913HK4    H2276686   0.135   3.467  10.965  1.5150 -2.0126  0.0491
  913HK4    C4376687   0.329   3.492  10.887 -0.2315  0.3821  0.4240
  913HK4    H2376688   0.368   3.409  10.947  2.2265  0.3243 -1.1868
  913HK4    C4476689   0.412   3.548  10.790 -0.0294 -0.0623  0.3373
  913HK4    H2476690   0.520   3.533  10.779  0.3397  0.9118  2.3312
  913HK4    C4576691   0.353   3.642  10.705  0.0471  0.0283  0.3847
  913HK4    H2576692   0.414   3.676  10.621 -2.5016  0.2841 -1.4022
  914HK4    H2876693   8.134   3.160   5.425 -0.8844 -0.9846 -1.6055
  914HK4    C4876694   8.083   3.114   5.509  0.7456  0.3992  0.2034
  914HK4    C4776695   8.112   2.979   5.523 -0.4188  0.0732 -0.3786
  914HK4    H2776696   8.173   2.930   5.446  1.2025 -0.4345  1.1820
  914HK4    C4676697   8.049   2.905   5.623 -0.4407  0.1464 -0.3394
  914HK4    H2676698   8.080   2.801   5.638  2.7425  1.2711  1.1457
  914HK4    C4076699   7.942   2.953   5.701 -0.0448  0.3165  0.0941
  914HK4    C5076700   7.913   3.089   5.677 -0.0702  0.2164 -0.4530
  914HK4    H3076701   7.830   3.131   5.737 -0.9202  0.3020 -1.6746
  914HK4    C4976702   7.983   3.169   5.588  0.2402  0.1573 -0.2644
  914HK4    H2976703   7.967   3.278   5.586  0.7748  0.2693  0.9637
  914HK4     N276704   7.916   2.894   5.826 -0.0835 -0.1832 -0.1507
  914HK4    C3076705   7.791   2.885   5.891  0.0795  0.8192  0.3138
  914HK4    C2976706   7.665   2.891   5.834 -0.0412 -0.1690  0.4750
  914HK4    H1576707   7.665   2.911   5.727 -1.5670  0.6632  0.6198
  914HK4    C2876708   7.550   2.895   5.912 -0.1893  0.3967  0.2310
  914HK4    C2776709   7.571   2.881   6.051 -0.4159  0.3391  0.2602
  914HK4    H1476710   7.488   2.860   6.120 -0.5576  2.1861  0.6866
  914HK4    C3276711   7.694   2.877   6.115 -0.3609  0.9335  0.1996
  914HK4    H1676712   7.702   2.884   6.223 -0.0201  2.2119  0.0972
  914HK4    C3176713   7.808   2.879   6.034 -0.2507 -0.0092  0.3236
  914HK4    C3476714   7.950   2.884   6.059 -0.1402 -0.2976 -0.2564
  914HK4    C3376715   8.012   2.877   5.928  0.0054 -0.0054 -0.2045
  914HK4    C3576716   8.151   2.875   5.926 -0.0051 -0.3044 -0.6726
  914HK4    H1776717   8.200   2.864   5.830  1.3686  1.3592 -0.1785
  914HK4    C3676718   8.222   2.863   6.044 -0.2089  0.2724 -0.4875
  914HK4    H1876719   8.326   2.827   6.040  0.0250  0.6053  1.9189
  914HK4    C3776720   8.167   2.886   6.169  0.3023 -0.2856 -0.1544
  914HK4    H1976721   8.221   2.906   6.262 -0.8842  1.3986  0.2061
  914HK4    C3876722   8.028   2.890   6.174  0.2913 -0.1620 -0.5526
  914HK4    H2076723   7.969   2.915   6.263  2.0070  0.5342  0.4144
  914HK4    C1476724   7.427   2.949   5.851 -0.2548 -0.1107 -0.0898
  914HK4     C976725   7.321   2.997   5.929  0.1207 -0.0166  0.3673
  914HK4     C876726   7.184   2.982   5.900  0.2219 -0.1047 -0.0701
  914HK4    C1176727   7.155   2.925   5.777 -0.1838  0.2931 -0.1592
  914HK4     H476728   7.053   2.892   5.751 -0.0623  0.5067 -0.9337
  914HK4    C1276729   7.254   2.882   5.690 -0.1578 -0.2901  0.1598
  914HK4     H576730   7.245   2.862   5.582 -0.9604 -0.7461  0.3051
  914HK4    C1376731   7.387   2.891   5.729 -0.0216  0.5626 -0.4902
  914HK4     H676732   7.462   2.828   5.678  2.6773  1.7872  1.8374
  914HK4     C776733   7.073   3.022   5.990  0.3688  0.6173 -0.2093
  914HK4     O276734   6.955   3.013   5.956  0.3339  0.0646  0.0501
  914HK4     C476735   7.107   3.069   6.126 -0.0900 -0.1305  0.1644
  914HK4     C376736   7.009   3.089   6.222  0.0065  0.1615  0.2017
  914HK4     H376737   6.907   3.116   6.188  0.3635  2.6833  0.9709
  914HK4     C276738   7.038   3.113   6.356 -0.1240  0.3435  0.1993
  914HK4     H276739   6.961   3.097   6.433  0.1205 -0.4283  0.2825
  914HK4     C176740   7.172   3.134   6.385 -0.1317  0.0875  0.4108
  914HK4     H176741   7.207   3.143   6.489  1.8636  0.5880 -0.2838
  914HK4     C676742   7.274   3.119   6.290 -0.4798 -1.0421  0.2099
  914HK4     C576743   7.242   3.096   6.155 -0.0848  0.0969 -0.0802
  914HK4    C1076744   7.344   3.084   6.047  0.1639  0.2919  0.1317
  914HK4     O176745   7.409   3.187   6.029  0.1857  0.2905  0.1991
  914HK4    C1676746   7.410   3.081   6.332 -0.0601  0.4572  0.2128
  914HK4    C1576747   7.428   2.992   6.439 -0.3017  0.2024  0.0442
  914HK4     H776748   7.343   2.940   6.484 -0.2608  2.3167  2.7063
  914HK4    C2076749   7.551   2.953   6.492 -0.1892  0.0386 -0.3400
  914HK4     H976750   7.555   2.881   6.574  1.5783 -0.2763 -0.6738
  914HK4    C1976751   7.665   3.019   6.447 -0.3153 -0.1968 -1.0045
  914HK4    C1876752   7.651   3.127   6.351 -0.2577  0.8261  0.1418
  914HK4    C1776753   7.525   3.153   6.299 -0.1723  0.4231 -0.2605
  914HK4     H876754   7.523   3.240   6.233  0.2893 -0.3483 -1.3052
  914HK4     N176755   7.780   3.177   6.323  0.0628 -0.1974 -0.2216
  914HK4    C2176756   7.872   3.101   6.398 -0.2475 -0.2834  0.0701
  914HK4    C2276757   7.806   2.991   6.466 -0.4571  0.1260  0.5306
  914HK4    C2676758   7.873   2.905   6.553 -0.2038 -0.2926 -0.0710
  914HK4    H1376759   7.823   2.818   6.596  1.5768 -1.3565 -0.1378
  914HK4    C2576760   8.010   2.920   6.565 -0.3224  0.4775  0.4286
  914HK4    H1276761   8.060   2.831   6.602  1.2979  1.8043  1.5206
  914HK4    C2476762   8.077   3.025   6.503 -0.0785 -0.0394 -0.1929
  914HK4    H1176763   8.183   3.045   6.525  0.1688 -1.2188 -0.2659
  914HK4    C2376764   8.010   3.106   6.413 -0.3083  0.4562  0.4220
  914HK4    H1076765   8.064   3.142   6.325  3.1206  1.2874  2.8022
  914HK4    C3976766   7.812   3.243   6.203  0.1166  0.3165  0.0731
  914HK4    C4176767   7.924   3.329   6.199  0.5354 -0.2243  0.1144
  914HK4    H2176768   7.953   3.380   6.292  0.4428 -0.6209  0.3634
  914HK4    C4276769   7.964   3.393   6.083 -0.5456 -0.0934 -0.1932
  914HK4    H2276770   8.049   3.463   6.080 -0.9471  0.3913 -0.2608
  914HK4    C4376771   7.889   3.378   5.966 -0.2676 -0.3488 -0.3383
  914HK4    H2376772   7.895   3.450   5.885 -0.8036  0.5801  0.4342
  914HK4    C4476773   7.780   3.292   5.965 -0.4791 -0.0869  0.0702
  914HK4    H2476774   7.723   3.274   5.873 -1.5002 -1.2270  0.9088
  914HK4    C4576775   7.743   3.225   6.081 -0.4168  0.3837  0.3623
  914HK4    H2576776   7.652   3.163   6.082  0.6845 -1.2751  1.4227
  915HK4    H2876777   5.465   0.957  10.545 -2.1190  0.3281 -0.5058
  915HK4    C4876778   5.472   1.065  10.558 -0.0664  0.1600 -0.0292
  915HK4    C4776779   5.379   1.123  10.645 -0.6313 -0.1550 -0.4187
  915HK4    H2776780   5.307   1.057  10.694  0.0567 -1.1161 -0.6879
  915HK4    C4676781   5.393   1.259  10.673 -0.1852 -0.2567 -0.1443
  915HK4    H2676782   5.347   1.284  10.770  1.5645  2.4698  0.0235
  915HK4    C4076783   5.491   1.341  10.614 -0.8423  0.1996 -0.6123
  915HK4    C5076784   5.572   1.283  10.514 -0.2861  0.0631 -0.0896
  915HK4    H3076785   5.635   1.342  10.446  0.7821 -0.7700  0.1661
  915HK4    C4976786   5.566   1.145  10.495 -0.0829  0.0663 -0.1741
  915HK4    H2976787   5.646   1.099  10.435  0.0603 -0.1437  0.1783
  915HK4     N276788   5.503   1.479  10.631  0.1820  0.0477 -0.0564
  915HK4    C3076789   5.389   1.556  10.661 -0.1447 -0.5765  0.3012
  915HK4    C2976790   5.254   1.529  10.643 -0.1594 -0.4412  0.2165
  915HK4    H1576791   5.230   1.452  10.570  1.8189 -0.7556 -0.1291
  915HK4    C2876792   5.161   1.616  10.699 -0.2751 -0.0364 -0.5951
  915HK4    C2776793   5.192   1.733  10.771 -0.7182 -0.3002  0.0312
  915HK4    H1476794   5.115   1.797  10.816 -1.8849 -1.5574 -0.1490
  915HK4    C3276795   5.327   1.765  10.781 -0.5936 -0.7444 -0.2032
  915HK4    H1676796   5.359   1.841  10.852  0.3661 -1.4221  0.0881
  915HK4    C3176797   5.422   1.683  10.722 -0.1634 -0.4971  0.1466
  915HK4    C3476798   5.567   1.682  10.725 -0.1643 -0.0319  0.3453
  915HK4    C3376799   5.613   1.552  10.681  0.0716  0.1591  0.0225
  915HK4    C3576800   5.744   1.507  10.697  0.0613  0.0155 -0.2815
  915HK4    H1776801   5.788   1.415  10.657 -0.3749 -1.8915  3.3469
  915HK4    C3676802   5.832   1.594  10.760 -0.4582  0.1772  0.2302
  915HK4    H1876803   5.932   1.557  10.789 -0.2068  2.0080  1.7801
  915HK4    C3776804   5.795   1.724  10.792  0.2331  0.2770  0.6461
  915HK4    H1976805   5.876   1.780  10.838  1.6412 -0.8959 -0.3735
  915HK4    C3876806   5.663   1.766  10.781  0.3313  0.2188 -0.8669
  915HK4    H2076807   5.636   1.867  10.813  1.8393  0.6140 -0.7869
  915HK4    C1476808   5.025   1.605  10.642 -0.2338  0.2032 -0.7435
  915HK4     C976809   4.942   1.717  10.635 -0.3254  0.1782 -0.0952
  915HK4     C876810   4.803   1.703  10.658 -0.1946 -0.1024  0.5200
  915HK4    C1176811   4.745   1.578  10.674 -0.0893 -0.2127  0.0326
  915HK4     H476812   4.637   1.556  10.666  0.2766 -1.4303 -1.7774
  915HK4    C1276813   4.829   1.468  10.672  0.0806 -0.0767 -0.3331
  915HK4     H576814   4.797   1.363  10.673 -1.3599  0.3672  0.7321
  915HK4    C1376815   4.967   1.477  10.654  0.1113  0.1120 -0.0102
  915HK4     H676816   5.030   1.395  10.618  2.9115  1.0157  2.6168
  915HK4     C776817   4.724   1.827  10.678 -0.2270  0.0196 -0.3811
  915HK4     O276818   4.608   1.815  10.717 -0.3569  0.1487 -0.7160
  915HK4     C476819   4.784   1.961  10.659 -0.1433  0.1023  0.4760
  915HK4     C376820   4.716   2.077  10.693 -0.2579  0.3082 -0.4584
  915HK4     H376821   4.608   2.067  10.714 -0.0887 -1.3356 -0.2844
  915HK4     C276822   4.784   2.197  10.705 -0.0412  0.0996  0.4242
  915HK4     H276823   4.725   2.287  10.729 -0.3392  0.3731 -1.2491
  915HK4     C176824   4.920   2.206  10.679 -0.1552  0.2411 -0.1338
  915HK4     H176825   4.969   2.304  10.687  0.1536 -0.0376  1.4879
  915HK4     C676826   4.989   2.089  10.638 -0.2580 -0.0852  0.6221
  915HK4     C576827   4.917   1.972  10.613 -0.1685 -0.0832  0.3546
  915HK4    C1076828   4.991   1.847  10.581 -0.1242  0.0748 -0.1593
  915HK4     O176829   5.060   1.839  10.479 -0.0049  0.3471 -0.1004
  915HK4    C1676830   5.134   2.092  10.657 -0.1461 -0.4347 -0.1705
  915HK4    C1576831   5.197   2.148  10.770 -1.0077 -0.2191  0.2024
  915HK4     H776832   5.133   2.183  10.853  1.9169  2.5925  1.4117
  915HK4    C2076833   5.334   2.168  10.785 -0.9622 -0.3338 -0.0679
  915HK4     H976834   5.390   2.196  10.874 -1.2599 -1.8225  0.5977
  915HK4    C1976835   5.411   2.156  10.670 -0.0992  0.0403  0.4671
  915HK4    C1876836   5.357   2.099  10.548 -0.0214  0.2070  0.3577
  915HK4    C1776837   5.222   2.069  10.552 -0.0875  0.4015 -0.3104
  915HK4     H876838   5.172   2.058  10.455 -3.5639  0.9161  1.3475
  915HK4     N176839   5.458   2.065  10.455 -0.3067  0.2273  0.0377
  915HK4    C2176840   5.581   2.093  10.518 -0.3384  0.3431  0.0457
  915HK4    C2276841   5.554   2.144  10.651 -0.1385 -0.0686  0.2447
  915HK4    C2676842   5.667   2.174  10.727  0.1592  1.0531 -0.6374
  915HK4    H1376843   5.652   2.218  10.826 -0.3527  2.6383 -1.4049
  915HK4    C2576844   5.795   2.166  10.673  0.4854  0.0704  0.2838
  915HK4    H1276845   5.880   2.200  10.732  1.0511  3.4202 -2.3401
  915HK4    C2476846   5.821   2.116  10.546 -0.7211 -0.2355  0.1525
  915HK4    H1176847   5.919   2.109  10.498 -0.4690  0.1289  0.6079
  915HK4    C2376848   5.711   2.076  10.471 -0.4950 -0.1800 -0.2079
  915HK4    H1076849   5.714   2.050  10.365  2.8602  1.9860 -0.7316
  915HK4    C3976850   5.447   1.983  10.343  0.1282 -0.1314  0.2572
  915HK4    C4176851   5.534   1.999  10.233 -0.7722 -0.2397 -0.4834
  915HK4    H2176852   5.565   2.097  10.195  0.5057 -0.4845 -0.1020
  915HK4    C4276853   5.576   1.891  10.156 -0.2029  0.1293 -0.6884
  915HK4    H2276854   5.645   1.904  10.072 -0.6474  1.0128 -0.9210
  915HK4    C4376855   5.522   1.764  10.171  0.1241  0.0655 -0.0084
  915HK4    H2376856   5.562   1.680  10.113  3.9008  1.7878 -0.0305
  915HK4    C4476857   5.432   1.744  10.274  0.3031 -0.0334  0.1283
  915HK4    H2476858   5.370   1.653  10.274  2.5455 -1.6049  0.0441
  915HK4    C4576859   5.401   1.850  10.358 -0.1222 -0.0715  0.0192
  915HK4    H2576860   5.328   1.837  10.440 -1.3017  1.5211 -0.7322
  916HK4    H2876861   2.000   3.195   8.477  1.0907 -1.5308 -0.1535
  916HK4    C4876862   2.033   3.162   8.576  0.5825 -0.1195  0.5082
  916HK4    C4776863   2.036   3.249   8.684  0.1903  0.1091  0.3365
  916HK4    H2776864   2.067   3.351   8.659 -0.0898 -0.0461 -0.6341
  916HK4    C4676865   2.049   3.199   8.814 -0.0106  0.1887  0.3874
  916HK4    H2676866   2.045   3.271   8.897 -1.3931  0.2016  0.3216
  916HK4    C4076867   2.073   3.063   8.838  0.4823  0.2814  0.4394
  916HK4    C5076868   2.071   2.978   8.725  0.0680  0.6821  0.1404
  916HK4    H3076869   2.082   2.869   8.735 -0.1828  0.6374 -0.0804
  916HK4    C4976870   2.053   3.026   8.596 -0.4003 -0.3654 -0.1860
  916HK4    H2976871   2.049   2.964   8.505  0.6837  1.7928 -1.7557
  916HK4     N276872   2.120   3.016   8.961  0.3198 -0.4581  0.2210
  916HK4    C3076873   2.204   3.085   9.050 -0.1342  0.1637  0.1744
  916HK4    C2976874   2.301   3.175   9.008  0.3090 -0.3693  0.0328
  916HK4    H1576875   2.302   3.212   8.905 -0.0322  0.8085  0.4431
  916HK4    C2876876   2.400   3.212   9.097  0.1348 -0.5428  0.2967
  916HK4    C2776877   2.378   3.169   9.230 -0.5706  0.5767  0.5481
  916HK4    H1476878   2.433   3.226   9.306 -0.5690  2.1090 -0.5889
  916HK4    C3276879   2.290   3.072   9.276 -0.6354  0.5171  0.2967
  916HK4    H1676880   2.293   3.026   9.374  0.6073  0.2470  0.1325
  916HK4    C3176881   2.197   3.026   9.182 -0.2836  0.1140  0.1460
  916HK4    C3476882   2.110   2.911   9.165  0.4039 -0.3206 -0.4625
  916HK4    C3376883   2.056   2.911   9.031 -0.6681 -0.0283 -0.0329
  916HK4    C3576884   1.978   2.805   8.986 -0.4583 -0.1813 -0.0345
  916HK4    H1776885   1.953   2.790   8.881 -1.0073  0.8726 -0.0594
  916HK4    C3676886   1.949   2.704   9.078 -0.0692 -0.2089  0.0574
  916HK4    H1876887   1.892   2.614   9.053 -2.0020  0.7799  0.8525
  916HK4    C3776888   1.989   2.708   9.211  0.5246 -0.3218 -0.1132
  916HK4    H1976889   1.940   2.639   9.280 -2.0619  0.7611 -0.7974
  916HK4    C3876890   2.072   2.811   9.253  0.6230 -0.3047 -0.3463
  916HK4    H2076891   2.105   2.804   9.357  2.2296 -0.2895 -0.8422
  916HK4    C1476892   2.533   3.254   9.051 -0.2937 -0.0111 -0.4715
  916HK4     C976893   2.649   3.201   9.110 -0.4565  0.0234 -0.1195
  916HK4     C876894   2.766   3.279   9.109 -0.0092 -0.6491 -0.4846
  916HK4    C1176895   2.760   3.405   9.049 -0.2413 -0.1227  0.6156
  916HK4     H476896   2.837   3.479   9.074  1.1110 -1.3722  0.2662
  916HK4    C1276897   2.654   3.447   8.970  0.3513  0.1597 -0.0334
  916HK4     H576898   2.667   3.512   8.882 -1.2413 -0.2493 -0.5858
  916HK4    C1376899   2.537   3.373   8.975  0.2403  0.3447  0.1041
  916HK4     H676900   2.453   3.409   8.914  1.2309  0.3047 -1.2838
  916HK4     C776901   2.870   3.248   9.209 -0.0732  0.3594 -0.0983
  916HK4     O276902   2.986   3.261   9.172 -0.0484 -0.0441 -0.1567
  916HK4     C476903   2.842   3.149   9.316 -0.0903 -0.0094 -0.4437
  916HK4     C376904   2.925   3.148   9.428 -0.1610  0.2407 -0.3876
  916HK4     H376905   3.004   3.224   9.443  1.1667 -1.2320  0.1234
  916HK4     C276906   2.907   3.050   9.524 -0.6046  0.4477 -0.2614
  916HK4     H276907   2.972   3.049   9.613  1.2862 -0.6963 -1.6249
  916HK4     C176908   2.811   2.952   9.501  0.0857 -0.2537 -0.1522
  916HK4     H176909   2.802   2.868   9.572 -1.6161  1.5386  1.7987
  916HK4     C676910   2.724   2.949   9.390 -0.3986  0.6696  0.2001
  916HK4     C576911   2.745   3.049   9.295 -0.2638  0.1352 -0.3282
  916HK4    C1076912   2.651   3.070   9.181 -0.6093  0.0544 -0.0556
  916HK4     O176913   2.614   2.975   9.112 -0.2420  0.0210 -0.2062
  916HK4    C1676914   2.593   2.885   9.412  0.1248 -0.3881  0.2786
  916HK4    C1576915   2.534   2.908   9.539  0.3579  0.2217  0.2769
  916HK4     H776916   2.564   2.997   9.597  1.2797 -0.0412  0.2192
  916HK4    C2076917   2.428   2.828   9.579  0.4020 -0.1958 -0.4155
  916HK4     H976918   2.384   2.850   9.676 -0.0201 -1.4028 -0.3292
  916HK4    C1976919   2.375   2.730   9.497 -0.6066  0.0812 -0.0961
  916HK4    C1876920   2.425   2.714   9.362  0.1411 -0.4517  0.2413
  916HK4    C1776921   2.537   2.790   9.329 -0.0013 -0.2554  0.2106
  916HK4     H876922   2.606   2.750   9.254 -1.3344 -0.4463 -0.9412
  916HK4     N176923   2.368   2.605   9.294  0.1735 -0.3838  0.1066
  916HK4    C2176924   2.273   2.559   9.388  0.1226 -0.0265  0.2283
  916HK4    C2276925   2.277   2.624   9.518 -0.1115 -0.2890  0.3659
  916HK4    C2676926   2.204   2.571   9.623 -0.2576 -0.2813  0.2701
  916HK4    H1376927   2.218   2.614   9.723 -0.7203  1.5957 -0.4598
  916HK4    C2576928   2.116   2.466   9.605 -0.3486 -0.1944  0.2004
  916HK4    H1276929   2.066   2.418   9.689  0.6145 -2.5672 -0.5411
  916HK4    C2476930   2.108   2.407   9.479  0.8414 -0.4237  0.2320
  916HK4    H1176931   2.013   2.364   9.446 -1.1385  3.1068  1.0688
  916HK4    C2376932   2.185   2.453   9.373 -0.3462  0.4341 -0.2591
  916HK4    H1076933   2.171   2.408   9.275 -0.8634 -4.8764  2.1074
  916HK4    C3976934   2.372   2.581   9.156  0.6665 -1.0131  0.2265
  916HK4    C4176935   2.343   2.454   9.104 -0.0059 -0.6101 -0.3847
  916HK4    H2176936   2.349   2.358   9.158  1.9028 -0.0297  0.4703
  916HK4    C4276937   2.310   2.444   8.969  0.1655 -0.2567 -0.4528
  916HK4    H2276938   2.291   2.345   8.925 -1.0575  0.7139 -2.1281
  916HK4    C4376939   2.305   2.549   8.879 -0.4033  0.2371  0.1524
  916HK4    H2376940   2.282   2.529   8.774 -0.4889  0.1580  0.1876
  916HK4    C4476941   2.335   2.675   8.930 -0.1841 -0.1519  0.9963
  916HK4    H2476942   2.344   2.755   8.854  0.7498 -1.4173 -0.2626
  916HK4    C4576943   2.366   2.688   9.065  0.7329 -0.4914  0.8226
  916HK4    H2576944   2.379   2.786   9.114 -1.6798 -0.7798  2.1300
  917HK4    H2876945   5.829   6.732   6.651  0.2778  0.4161  0.4484
  917HK4    C4876946   5.730   6.728   6.696  0.2113 -0.2354  0.2500
  917HK4    C4776947   5.643   6.836   6.693  0.8958  0.3436  0.9309
  917HK4    H2776948   5.671   6.931   6.646  1.9300 -0.2219  0.3720
  917HK4    C4676949   5.516   6.833   6.750  0.3086 -0.3407 -0.3889
  917HK4    H2676950   5.466   6.928   6.773 -1.1369 -1.1433 -0.1401
  917HK4    C4076951   5.464   6.716   6.808 -0.3668 -0.2600 -0.8335
  917HK4    C5076952   5.551   6.605   6.807 -0.0605 -0.0185 -0.6695
  917HK4    H3076953   5.521   6.515   6.862 -1.2514  0.1574 -1.0319
  917HK4    C4976954   5.680   6.612   6.755  0.2171 -0.3846 -0.0430
  917HK4    H2976955   5.736   6.522   6.785 -2.5402 -1.9046  0.7316
  917HK4     N276956   5.333   6.702   6.857 -0.2323 -0.5169 -0.5458
  917HK4    C3076957   5.288   6.599   6.943 -0.2044  0.7099  0.9535
  917HK4    C2976958   5.342   6.557   7.063  0.7132 -0.3749  0.1689
  917HK4    H1576959   5.439   6.603   7.083  0.6023 -0.6243  1.3127
  917HK4    C2876960   5.274   6.475   7.152  0.1254 -0.0290  0.0397
  917HK4    C2776961   5.145   6.433   7.114  0.2465 -0.2796 -0.0863
  917HK4    H1476962   5.096   6.353   7.172 -1.5055  0.6219 -0.2902
  917HK4    C3276963   5.086   6.465   6.992  0.0335  0.6323  0.2530
  917HK4    H1676964   4.992   6.416   6.967  0.1015  0.7135 -0.1694
  917HK4    C3176965   5.157   6.548   6.907  0.4754 -0.2326 -0.2334
  917HK4    C3476966   5.119   6.629   6.792 -0.0887  0.0337  0.1376
  917HK4    C3376967   5.220   6.732   6.778 -0.1890  0.0628 -0.3875
  917HK4    C3576968   5.202   6.832   6.684  0.1181  0.3117 -0.1833
  917HK4    H1776969   5.278   6.909   6.676  0.0075  0.2116 -2.5370
  917HK4    C3676970   5.088   6.826   6.604 -0.4188  0.9667  0.5121
  917HK4    H1876971   5.067   6.917   6.546 -0.2056  0.5343 -0.2662
  917HK4    C3776972   4.995   6.724   6.613  0.2274  0.3253  0.0552
  917HK4    H1976973   4.911   6.725   6.544 -1.5417 -1.0806  2.0838
  917HK4    C3876974   5.007   6.625   6.710 -0.2953  0.5893  0.3942
  917HK4    H2076975   4.929   6.549   6.715 -0.4007  0.5991 -1.0662
  917HK4    C1476976   5.336   6.443   7.282  0.3038  0.1568  0.0017
  917HK4     C976977   5.297   6.335   7.362  0.5739  0.1413  0.1116
  917HK4     C876978   5.292   6.355   7.501 -0.2806 -0.0758  0.1160
  917HK4    C1176979   5.345   6.469   7.561  0.0117 -0.1365 -0.0226
  917HK4     H476980   5.328   6.482   7.669  0.3189 -1.0858  0.1428
  917HK4    C1276981   5.398   6.572   7.484  0.1946 -0.1607  0.0716
  917HK4     H576982   5.417   6.673   7.525  0.1356  0.7075 -1.9565
  917HK4    C1376983   5.395   6.553   7.347  0.5555 -0.0011  0.0409
  917HK4     H676984   5.431   6.635   7.283  0.4628 -0.2678 -0.3542
  917HK4     C776985   5.208   6.263   7.580 -0.3480 -0.0609  0.0601
  917HK4     O276986   5.239   6.249   7.698 -0.4222  0.2644  0.1191
  917HK4     C476987   5.127   6.162   7.507 -0.5432  0.2500 -0.1578
  917HK4     C376988   5.035   6.089   7.581  0.2673 -0.2554  0.3592
  917HK4     H376989   5.000   6.128   7.678  1.6766 -1.3678  1.3375
  917HK4     C276990   4.972   5.978   7.527 -0.3261  0.3200 -0.1238
  917HK4     H276991   4.901   5.919   7.587  0.2748 -0.8209 -0.5123
  917HK4     C176992   5.006   5.935   7.399 -0.1575 -0.3260  0.1404
  917HK4     H176993   4.935   5.867   7.348  0.7303 -2.6439  1.8925
  917HK4     C676994   5.098   6.006   7.320 -0.1108 -0.1776  0.3289
  917HK4     C576995   5.157   6.120   7.375  0.5755 -0.5342  0.3355
  917HK4    C1076996   5.257   6.204   7.303 -0.0292  0.2144  0.3566
  917HK4     O176997   5.335   6.156   7.220  0.2353 -0.0473  0.7512
  917HK4    C1676998   5.124   5.950   7.187  0.1383 -0.1303  0.3572
  917HK4    C1576999   5.130   5.809   7.177 -0.9908 -0.1867  0.4327
  917HK4     H777000   5.174   5.762   7.266  0.4868 -2.0838 -1.2500
  917HK4    C2077001   5.102   5.744   7.057  0.1377  0.3200 -0.1140
  917HK4     H977002   5.117   5.637   7.049 -0.5696  0.1856  0.3310
  917HK4    C1977003   5.065   5.821   6.947  0.1895  0.2994 -0.1457
  917HK4    C1877004   5.087   5.965   6.950  0.1097  0.3168 -0.3282
  917HK4    C1777005   5.112   6.027   7.072  1.1158 -0.5844 -0.0618
  917HK4     H877006   5.116   6.136   7.079  0.5307 -0.3082 -3.3933
  917HK4     N177007   5.066   6.034   6.829 -0.5549  0.2332 -0.2641
  917HK4    C2177008   5.022   5.931   6.744  0.0574  0.1859 -0.5272
  917HK4    C2277009   5.015   5.804   6.812  0.4702  0.3063 -0.2519
  917HK4    C2677010   4.943   5.703   6.748  0.0136  0.2551  0.3289
  917HK4    H1377011   4.908   5.622   6.811 -0.2194  1.7841  2.2005
  917HK4    C2577012   4.885   5.720   6.623 -0.0878 -0.1497  0.3196
  917HK4    H1277013   4.811   5.647   6.592 -0.9818  1.6750 -2.0140
  917HK4    C2477014   4.893   5.844   6.560 -0.3587  0.0261  0.6301
  917HK4    H1177015   4.835   5.858   6.469  1.3504 -0.9023 -0.6379
  917HK4    C2377016   4.962   5.949   6.620 -0.4136  0.5637 -0.2468
  917HK4    H1077017   4.993   6.036   6.562 -0.2291  0.0541 -0.9154
  917HK4    C3977018   5.130   6.155   6.797  0.1084 -0.0990 -0.1936
  917HK4    C4177019   5.070   6.229   6.694  0.3458  0.0925 -0.1949
  917HK4    H2177020   4.962   6.232   6.673  0.7010 -0.8004 -2.3146
  917HK4    C4277021   5.141   6.315   6.611 -0.4182  0.3181 -0.6180
  917HK4    H2277022   5.086   6.365   6.530  0.5094  0.9410 -0.8807
  917HK4    C4377023   5.275   6.341   6.639 -0.5024 -0.3187  0.3875
  917HK4    H2377024   5.330   6.418   6.584 -0.2118 -0.5777  0.3153
  917HK4    C4477025   5.334   6.280   6.749  0.5504  0.1240  0.0714
  917HK4    H2477026   5.424   6.328   6.791 -0.3600  0.6251  1.4736
  917HK4    C4577027   5.265   6.186   6.824 -0.0999  0.5888  0.0653
  917HK4    H2577028   5.317   6.119   6.894 -0.9891 -0.8717 -0.6503
  918HK4    H2877029   2.419   0.506   7.618 -1.2713  0.0687  1.4910
  918HK4    C4877030   2.346   0.454   7.555  0.2291  0.0302 -0.2479
  918HK4    C4777031   2.383   0.331   7.503  0.7031  0.2399 -0.4060
  918HK4    H2777032   2.473   0.276   7.537  0.7233 -0.2282 -1.2109
  918HK4    C4677033   2.294   0.260   7.424 -0.0373  0.3481  0.3266
  918HK4    H2677034   2.339   0.192   7.350 -0.9767  0.6309 -0.5214
  918HK4    C4077035   2.170   0.315   7.388  0.0794  0.2765 -0.1846
  918HK4    C5077036   2.138   0.443   7.437 -0.1618  0.3101 -0.4226
  918HK4    H3077037   2.042   0.486   7.406 -0.1876  1.6858  1.4415
  918HK4    C4977038   2.223   0.511   7.524 -0.0893 -0.4506  0.1088
  918HK4    H2977039   2.208   0.605   7.579 -0.5913 -0.8595  0.6738
  918HK4     N277040   2.067   0.244   7.325  0.3947 -0.2115 -0.1432
  918HK4    C3077041   2.066   0.104   7.308 -0.2895 -0.2162 -0.0654
  918HK4    C2977042   2.137   0.004   7.374  0.0716 -0.2225 -0.4592
  918HK4    H1577043   2.212   0.041   7.443 -1.0743  4.3573 -1.5416
  918HK4    C2877044   2.113  11.114   7.376 -0.1894 -0.1755 -0.0748
  918HK4    C2777045   1.995  11.083   7.306  0.3861 -0.3806 -0.9777
  918HK4    H1477046   1.970  10.977   7.288  1.0014 -0.4893 -1.1766
  918HK4    C3277047   1.915  11.175   7.240 -0.3935 -0.4635 -0.1658
  918HK4    H1677048   1.818  11.146   7.200 -1.1963  0.1012  1.3243
  918HK4    C3177049   1.950   0.061   7.232 -0.1704 -0.5161 -0.0818
  918HK4    C3477050   1.883   0.185   7.195  0.5387 -0.0631  0.1367
  918HK4    C3377051   1.961   0.295   7.248  0.4740  0.0768 -0.0602
  918HK4    C3577052   1.952   0.417   7.181 -0.6057  0.0274 -0.0110
  918HK4    H1777053   2.004   0.506   7.214 -1.4453  0.8813 -0.9570
  918HK4    C3677054   1.866   0.429   7.073 -0.0623  0.0258 -0.4440
  918HK4    H1877055   1.842   0.529   7.033  1.2052  0.8666  0.8563
  918HK4    C3777056   1.795   0.319   7.026  0.3383 -0.3582 -0.1462
  918HK4    H1977057   1.739   0.325   6.933  0.5010  1.5893 -0.1478
  918HK4    C3877058   1.802   0.192   7.082 -0.5613  0.0607  0.9267
  918HK4    H2077059   1.759   0.102   7.038  0.2462  1.0089 -1.9142
  918HK4    C1477060   2.208  11.010   7.418 -0.4304 -0.2768  0.2074
  918HK4     C977061   2.200  10.876   7.379  0.2567 -0.1457 -0.3845
  918HK4     C877062   2.214  10.774   7.475 -0.5710  0.3618  0.2706
  918HK4    C1177063   2.269  10.805   7.599 -0.5486  0.4699  0.2357
  918HK4     H477064   2.297  10.718   7.661 -1.3407 -0.3687 -0.5527
  918HK4    C1277065   2.303  10.935   7.632  0.3849  0.2874  0.0278
  918HK4     H577066   2.369  10.957   7.717  0.3886  1.1770 -0.1904
  918HK4    C1377067   2.274  11.036   7.540  0.0294  0.0596 -0.1100
  918HK4     H677068   2.303  11.137   7.571 -0.0452  0.6046 -1.7875
  918HK4     C777069   2.196  10.631   7.442 -0.0396  0.3149  0.1798
  918HK4     O277070   2.182  10.545   7.529 -0.7263 -0.1261 -0.3538
  918HK4     C477071   2.172  10.596   7.300 -0.0821 -0.3351  0.3456
  918HK4     C377072   2.157  10.463   7.263 -0.1200 -0.2844  0.1701
  918HK4     H377073   2.213  10.394   7.327 -0.3702  0.4097  1.1393
  918HK4     C277074   2.102  10.423   7.141 -0.7567 -0.1286  0.4002
  918HK4     H277075   2.065  10.322   7.116 -0.8653 -0.0427  0.2198
  918HK4     C177076   2.072  10.526   7.053  0.0053 -0.0933  0.1767
  918HK4     H177077   2.040  10.507   6.949  0.4774 -0.0026  0.0146
  918HK4     C677078   2.092  10.663   7.080 -0.0717 -0.0451 -0.0047
  918HK4     C577079   2.151  10.696   7.203 -0.1533 -0.5269  0.1663
  918HK4    C1077080   2.186  10.837   7.236 -0.5801 -0.3179 -0.2550
  918HK4     O177081   2.247  10.908   7.156 -0.1626 -0.2516  0.1214
  918HK4    C1677082   1.996  10.752   7.013  0.0880  0.3177  0.2483
  918HK4    C1577083   1.859  10.720   7.012  0.0915  0.3167 -0.1525
  918HK4     H777084   1.821  10.640   7.077 -0.3125 -1.1509 -2.1224
  918HK4    C2077085   1.766  10.800   6.947 -0.1526 -0.2381 -0.4954
  918HK4     H977086   1.665  10.762   6.930  1.1600 -3.7367 -0.9216
  918HK4    C1977087   1.799  10.922   6.889  0.1115 -0.3582 -0.6041
  918HK4    C1877088   1.940  10.956   6.890 -0.0408  0.2729  0.7241
  918HK4    C1777089   2.031  10.863   6.937  0.2878  0.6294  0.7927
  918HK4     H877090   2.137  10.878   6.915  0.4703  0.1992  1.3695
  918HK4     N177091   1.958  11.083   6.831  0.0289  0.0384  0.2404
  918HK4    C2177092   1.829  11.130   6.798  0.1111 -0.2260 -0.4733
  918HK4    C2277093   1.729  11.027   6.816 -0.0067 -0.0309 -0.0170
  918HK4    C2677094   1.599  11.072   6.801  0.0862  0.1684 -0.2410
  918HK4    H1377095   1.514  11.004   6.791 -0.1543  0.5431 -0.7628
  918HK4    C2577096   1.571  11.204   6.768 -0.1207  0.2569  0.2763
  918HK4    H1277097   1.465  11.222   6.750  0.5299  2.7477 -1.1439
  918HK4    C2477098   1.665   0.056   6.753  0.3301 -0.1342  0.4960
  918HK4    H1177099   1.637   0.148   6.699 -1.0489 -0.0808  1.2971
  918HK4    C2377100   1.796   0.016   6.777  0.3541  0.0103  0.6087
  918HK4    H1077101   1.877   0.087   6.795  0.5005  0.2014 -0.7404
  918HK4    C3977102   2.061  11.172   6.860  0.3445 -0.0207 -0.6749
  918HK4    C4177103   2.129  11.172   6.984 -0.0242  0.0753 -0.4688
  918HK4    H2177104   2.096  11.112   7.070  0.8681  0.6768  0.3074
  918HK4    C4277105   2.245  11.245   7.008 -0.1696  0.1234  0.0842
  918HK4    H2277106   2.292  11.243   7.107  1.6415 -3.5504 -0.7714
  918HK4    C4377107   2.292   0.088   6.913  0.1626 -0.0162  0.1114
  918HK4    H2377108   2.376   0.155   6.932  0.1609  0.1867 -0.5791
  918HK4    C4477109   2.229   0.093   6.789  0.2277  0.1954  0.0882
  918HK4    H2477110   2.280   0.153   6.712 -0.1701 -1.1578 -1.2371
  918HK4    C4577111   2.119   0.012   6.766  0.5495 -0.0540 -0.5823
  918HK4    H2577112   2.084   0.013   6.661  1.7775  0.2356 -0.9950
  919HK4    H2877113   6.515   8.582  10.328 -0.9753 -0.8128 -2.5431
  919HK4    C4877114   6.421   8.550  10.374 -0.2285  0.6472  0.1185
  919HK4    C4777115   6.316   8.503  10.296  0.4495  0.2003 -0.5238
  919HK4    H2777116   6.327   8.492  10.187  0.5828  1.2001 -0.6159
  919HK4    C4677117   6.204   8.449  10.358  0.8338  0.1699  0.1414
  919HK4    H2677118   6.137   8.391  10.293 -0.7199  0.8179  1.1538
  919HK4    C4077119   6.176   8.455  10.496 -0.0458  0.0343 -0.0277
  919HK4    C5077120   6.288   8.506  10.564 -0.2619  0.4236  0.0368
  919HK4    H3077121   6.272   8.519  10.672 -0.8378  4.8197 -0.4620
  919HK4    C4977122   6.406   8.559  10.511  0.1530 -0.2995  0.2302
  919HK4    H2977123   6.477   8.618  10.571  0.6714  1.6989 -2.2925
  919HK4     N277124   6.045   8.453  10.545 -0.0853 -0.0584 -0.1414
  919HK4    C3077125   5.933   8.480  10.463 -0.1993  0.1756  0.0937
  919HK4    C2977126   5.931   8.555  10.346  0.2511 -0.2066 -0.1621
  919HK4    H1577127   6.022   8.606  10.316 -0.4087  0.4286 -1.0857
  919HK4    C2877128   5.810   8.591  10.289  0.2995  0.1293 -0.0552
  919HK4    C2777129   5.692   8.544  10.351  0.5775 -0.5631 -0.0508
  919HK4    H1477130   5.599   8.580  10.304 -0.2016 -2.4031  0.0314
  919HK4    C3277131   5.692   8.469  10.468  0.0707 -0.3922  0.0610
  919HK4    H1677132   5.595   8.447  10.513  0.3197  1.1636  1.4094
  919HK4    C3177133   5.812   8.436  10.530  0.0256 -0.2275  0.2338
  919HK4    C3477134   5.853   8.369  10.652  0.0403  0.1086  0.4155
  919HK4    C3377135   5.995   8.394  10.663  0.0909  0.0155 -0.0285
  919HK4    C3577136   6.055   8.379  10.787 -0.2016  0.2191  0.1379
  919HK4    H1777137   6.163   8.392  10.801 -0.4226  1.2202  0.9270
  919HK4    C3677138   5.981   8.330  10.894 -0.1171 -0.4607 -0.1099
  919HK4    H1877139   6.027   8.320  10.994 -1.3909 -0.5547  0.4832
  919HK4    C3777140   5.845   8.307  10.884 -0.3397  0.7611  0.0166
  919HK4    H1977141   5.794   8.262  10.970  0.9313  0.2657  0.5168
  919HK4    C3877142   5.781   8.324  10.762 -0.5330  0.0352  0.0124
  919HK4    H2077143   5.674   8.346  10.760 -0.1455  1.8702 -1.5377
  919HK4    C1477144   5.799   8.649  10.155 -0.3151  0.0402 -0.0454
  919HK4     C977145   5.683   8.704  10.098 -0.1546  0.2814 -0.1467
  919HK4     C877146   5.657   8.675   9.962 -0.1458 -0.0852 -0.0738
  919HK4    C1177147   5.758   8.626   9.881 -0.1116  0.0093 -0.0872
  919HK4     H477148   5.729   8.609   9.776  0.3396  0.9412 -0.3766
  919HK4    C1277149   5.885   8.595   9.929 -0.3014 -0.2136  0.2697
  919HK4     H577150   5.973   8.608   9.865  0.1756  0.1690  1.0023
  919HK4    C1377151   5.898   8.601  10.067 -0.0797  0.0108  0.2418
  919HK4     H677152   5.996   8.576  10.112  0.1308  0.1015 -0.1621
  919HK4     C777153   5.530   8.718   9.900 -0.4226 -0.3634  0.2995
  919HK4     O277154   5.476   8.644   9.818  0.3963 -0.7395  0.0937
  919HK4     C477155   5.446   8.818   9.970 -0.6722 -0.3100 -0.0756
  919HK4     C377156   5.329   8.859   9.907 -0.5018  0.3354  0.0172
  919HK4     H377157   5.313   8.847   9.798 -3.4460  3.0752  0.0764
  919HK4     C277158   5.240   8.944   9.971 -0.0530  0.8324 -0.0184
  919HK4     H277159   5.164   9.005   9.921  0.5014  1.8026  0.2846
  919HK4     C177160   5.262   8.973  10.105  0.2628  0.0754  0.0928
  919HK4     H177161   5.171   8.997  10.163  0.3298 -0.1741  0.3064
  919HK4     C677162   5.379   8.930  10.172  0.0581 -0.2851  0.2187
  919HK4     C577163   5.476   8.856  10.102 -0.1258 -0.0725 -0.2639
  919HK4    C1077164   5.602   8.809  10.166 -0.2468  0.0624  0.0775
  919HK4     O177165   5.661   8.883  10.244 -0.0199  0.2598 -0.2776
  919HK4    C1677166   5.389   8.981  10.309 -0.0595  0.3844 -0.0183
  919HK4    C1577167   5.328   9.099  10.354 -0.4976  0.2435 -0.2494
  919HK4     H777168   5.317   9.172  10.272 -0.5920 -0.8654 -1.2303
  919HK4    C2077169   5.284   9.121  10.484 -0.7885 -0.7002 -0.1867
  919HK4     H977170   5.260   9.223  10.513 -0.5632 -1.0997  1.4562
  919HK4    C1977171   5.305   9.020  10.577  0.1179 -0.4313 -0.0956
  919HK4    C1877172   5.376   8.898  10.542 -0.1298 -0.5134 -0.3149
  919HK4    C1777173   5.414   8.886  10.409 -0.0883  0.0213 -0.3539
  919HK4     H877174   5.478   8.799  10.395  0.9547  0.7869 -0.3938
  919HK4     N177175   5.406   8.824  10.658  0.1797  0.2089  0.0685
  919HK4    C2177176   5.330   8.886  10.760  0.2447 -0.1305  0.3230
  919HK4    C2277177   5.278   9.015  10.720  0.5796 -0.0930  0.0067
  919HK4    C2677178   5.203   9.092  10.808  0.3338  0.0689 -0.3444
  919HK4    H1377179   5.166   9.183  10.761 -0.7868 -0.2352 -0.0653
  919HK4    C2577180   5.163   9.045  10.933  0.5631  0.1185 -0.2518
  919HK4    H1277181   5.094   9.106  10.991  2.2236 -0.1475  2.0777
  919HK4    C2477182   5.198   8.916  10.971 -0.5272 -0.0813  0.0989
  919HK4    H1177183   5.148   8.866  11.055 -0.5804 -1.5197 -0.7882
  919HK4    C2377184   5.284   8.848  10.885 -0.5956 -0.0842  0.0343
  919HK4    H1077185   5.333   8.755  10.913  0.9453  0.7700  0.2600
  919HK4    C3977186   5.521   8.747  10.681 -0.3016 -0.5255  0.0159
  919HK4    C4177187   5.528   8.670  10.798  0.3032  0.1744  0.4476
  919HK4    H2177188   5.440   8.609  10.823 -0.9498  1.8486  0.1835
  919HK4    C4277189   5.651   8.634  10.852  0.3048 -0.3059  0.1302
  919HK4    H2277190   5.645   8.552  10.925  2.3252 -0.3908  0.2409
  919HK4    C4377191   5.769   8.664  10.785  0.2677 -0.2795  0.0796
  919HK4    H2377192   5.869   8.640  10.821 -0.1131 -2.5137 -0.2743
  919HK4    C4477193   5.768   8.743  10.671  0.3508 -0.2089  0.1261
  919HK4    H2477194   5.863   8.760  10.619  0.0541 -0.2537 -0.4390
  919HK4    C4577195   5.644   8.786  10.625  0.0033 -0.8754  0.4360
  919HK4    H2577196   5.638   8.846  10.533  1.5747  0.1250  0.9745
  920HK4    H2877197   2.040  10.439   1.880 -0.7381 -1.0280 -1.5204
  920HK4    C4877198   2.000  10.523   1.822 -0.0347  0.1649 -0.3114
  920HK4    C4777199   1.981  10.643   1.890  0.1926 -0.0152  0.0715
  920HK4    H2777200   2.013  10.662   1.993  1.7055  1.9495 -0.7356
  920HK4    C4677201   1.909  10.744   1.828  0.0490 -0.2572 -0.1583
  920HK4    H2677202   1.893  10.839   1.882 -1.5954 -0.0566 -0.9830
  920HK4    C4077203   1.849  10.736   1.701  0.2465  0.2327 -0.2826
  920HK4    C5077204   1.883  10.618   1.632 -0.0226 -0.0380  0.0489
  920HK4    H3077205   1.849  10.604   1.528 -0.8953 -1.1259  0.4691
  920HK4    C4977206   1.948  10.512   1.693 -0.3845 -0.3642 -0.1281
  920HK4    H2977207   1.983  10.426   1.634  3.2298  2.6982 -2.7267
  920HK4     N277208   1.734  10.807   1.662 -0.0284 -0.1066 -0.0788
  920HK4    C3077209   1.637  10.865   1.746  0.1645  0.2104 -0.0759
  920HK4    C2977210   1.613  10.859   1.883  0.2115 -0.3255 -0.0907
  920HK4    H1577211   1.662  10.785   1.946 -0.9444 -1.2253 -0.2270
  920HK4    C2877212   1.523  10.947   1.943 -0.1338 -0.6121 -0.1920
  920HK4    C2777213   1.430  11.023   1.870 -0.1410  0.0044  0.4641
  920HK4    H1477214   1.338  11.056   1.921 -1.4782 -0.1386 -1.8104
  920HK4    C3277215   1.448  11.031   1.733 -0.3517 -0.5288  0.4052
  920HK4    H1677216   1.385  11.092   1.668 -1.2706 -0.3196  1.4890
  920HK4    C3177217   1.551  10.957   1.676  0.2233  0.4508  0.1676
  920HK4    C3477218   1.589  10.945   1.536 -0.0985 -0.1712  0.1334
  920HK4    C3377219   1.707  10.860   1.535 -0.2543 -0.3849 -0.1469
  920HK4    C3577220   1.778  10.852   1.416 -0.0666  0.2792 -0.0818
  920HK4    H1777221   1.876  10.804   1.413  0.0375  0.4002  0.9899
  920HK4    C3677222   1.739  10.924   1.304  0.2641  0.4622 -0.0820
  920HK4    H1877223   1.803  10.898   1.218 -0.1042 -2.8974  0.5636
  920HK4    C3777224   1.628  11.007   1.308 -0.1769 -0.1148 -0.1148
  920HK4    H1977225   1.594  11.063   1.221  0.6159 -1.2250 -1.1457
  920HK4    C3877226   1.550  11.016   1.423 -0.2678 -0.6909 -0.1334
  920HK4    H2077227   1.471  11.090   1.434 -1.3339 -1.9015  0.5713
  920HK4    C1477228   1.496  10.928   2.086 -0.1452 -0.0444 -0.1203
  920HK4     C977229   1.374  10.943   2.153 -0.1526  0.3372 -0.2188
  920HK4     C877230   1.370  11.006   2.279 -0.1645 -0.3715  0.1390
  920HK4    C1177231   1.487  11.051   2.339 -0.0422 -0.4923 -0.0120
  920HK4     H477232   1.488  11.101   2.437  0.9014  0.7009 -0.6147
  920HK4    C1277233   1.610  11.016   2.283 -0.4737 -0.2049 -1.1504
  920HK4     H577234   1.707  11.048   2.323 -0.9010  0.0500 -0.2903
  920HK4    C1377235   1.614  10.952   2.159  0.5006 -0.3696 -1.0413
  920HK4     H677236   1.712  10.924   2.120  0.5397 -0.1470 -1.1022
  920HK4     C777237   1.249  11.000   2.364  0.1595 -0.1978  0.6180
  920HK4     O277238   1.223  11.103   2.425 -0.0179  0.0367  0.1487
  920HK4     C477239   1.145  10.898   2.338  0.4679 -0.4045  0.1736
  920HK4     C377240   1.040  10.874   2.426  0.2620 -0.4226 -0.0768
  920HK4     H377241   1.012  10.943   2.507  0.6962 -0.5367  0.1677
  920HK4     C277242   0.965  10.757   2.419 -0.0205 -0.2710  0.3617
  920HK4     H277243   0.890  10.740   2.497  0.9760 -0.2306  1.3450
  920HK4     C177244   0.990  10.662   2.321 -0.0291 -0.4562  0.5396
  920HK4     H177245   0.930  10.570   2.321 -1.5344  0.4890 -0.9311
  920HK4     C677246   1.091  10.689   2.226 -0.3511  0.1923  0.3779
  920HK4     C577247   1.164  10.808   2.231  0.2937 -0.1780 -0.0502
  920HK4    C1077248   1.261  10.849   2.126  0.3764 -0.3476 -0.0423
  920HK4     O177249   1.225  10.830   2.010 -0.1317  0.3223  0.0027
  920HK4    C1677250   1.105  10.586   2.121  0.0820  0.0963  0.5267
  920HK4    C1577251   0.991  10.516   2.076 -0.2687  0.6254  0.5887
  920HK4     H777252   0.903  10.581   2.071 -2.1407 -1.8679  0.3614
  920HK4    C2077253   0.983  10.386   2.029  0.3798  0.7982 -0.0214
  920HK4     H977254   0.882  10.346   2.014  0.9466 -0.3391 -0.8199
  920HK4    C1977255   1.100  10.312   2.023 -0.2053 -0.2124  0.6332
  920HK4    C1877256   1.222  10.383   2.059  0.0072 -0.4648  0.4163
  920HK4    C1777257   1.223  10.514   2.105 -0.2352 -0.2873 -0.0829
  920HK4     H877258   1.315  10.573   2.104 -0.6716  0.3999 -0.1367
  920HK4     N177259   1.326  10.288   2.070  0.4896  0.0648  0.3752
  920HK4    C2177260   1.273  10.161   2.041  0.4938  0.0696  0.3430
  920HK4    C2277261   1.132  10.172   2.008  0.7077  0.1029 -0.5840
  920HK4    C2677262   1.058  10.061   1.968 -0.3354  0.5062  0.1912
  920HK4    H1377263   0.951  10.066   1.949 -0.1637  0.2089 -0.9206
  920HK4    C2577264   1.125   9.941   1.946 -0.2981  0.4847  0.4285
  920HK4    H1277265   1.065   9.855   1.916 -0.3714  0.7169 -0.1086
  920HK4    C2477266   1.263   9.934   1.964 -0.2269  0.0899 -0.2377
  920HK4    H1177267   1.303   9.852   1.903 -0.2722  0.1178 -0.3025
  920HK4    C2377268   1.336  10.040   2.017  0.1841  0.1622 -0.9450
  920HK4    H1077269   1.439  10.025   2.048 -0.5714 -0.8190  1.1517
  920HK4    C3977270   1.464  10.313   2.061  0.5171 -0.3407 -0.3052
  920HK4    C4177271   1.560  10.229   2.120  0.1694 -0.3001  0.3149
  920HK4    H2177272   1.543  10.190   2.222  1.7855 -1.5324  0.1363
  920HK4    C4277273   1.690  10.233   2.073  0.0748  0.1208  0.0905
  920HK4    H2277274   1.768  10.208   2.147 -0.8609  1.3788  1.5316
  920HK4    C4377275   1.734  10.319   1.972 -0.0959  0.2705  0.1432
  920HK4    H2377276   1.839  10.330   1.944  0.4170  0.6233  2.1387
  920HK4    C4477277   1.641  10.406   1.915 -0.0037  0.4383  0.2484
  920HK4    H2477278   1.677  10.475   1.837 -0.2821  1.7761  1.3027
  920HK4    C4577279   1.511  10.404   1.963 -0.0615  0.3910  0.0910
  920HK4    H2577280   1.442  10.475   1.915  0.1174 -0.1628 -0.9908
  921HK4    H2877281   4.452   9.497   8.122  0.3445  1.2567  0.4134
  921HK4    C4877282   4.449   9.451   8.221 -0.5956  0.5376  0.0581
  921HK4    C4777283   4.464   9.527   8.336 -0.3467  0.4249  0.1005
  921HK4    H2777284   4.498   9.632   8.331 -1.9210  0.8896 -1.0883
  921HK4    C4677285   4.474   9.467   8.461 -0.3338 -0.0457 -0.1290
  921HK4    H2677286   4.501   9.538   8.541 -0.2032 -2.4029  1.9702
  921HK4    C4077287   4.465   9.327   8.477  0.4736 -0.1189 -0.2902
  921HK4    C5077288   4.446   9.249   8.361  0.0169  0.2457 -0.4626
  921HK4    H3077289   4.443   9.140   8.377 -0.1297  0.1424 -1.1912
  921HK4    C4977290   4.439   9.314   8.239 -0.7008  0.4985 -0.2870
  921HK4    H2977291   4.442   9.249   8.149  0.3756 -0.7054  0.6047
  921HK4     N277292   4.453   9.276   8.607  0.2876  0.1096 -0.2176
  921HK4    C3077293   4.360   9.314   8.706 -0.3558 -0.6079 -0.5471
  921HK4    C2977294   4.266   9.416   8.700  0.2453  0.0020  0.2393
  921HK4    H1577295   4.265   9.492   8.623 -1.1604  0.7781  1.0004
  921HK4    C2877296   4.180   9.448   8.805 -0.0532  0.2842 -0.0916
  921HK4    C2777297   4.194   9.357   8.912 -0.0563 -0.2923 -0.5729
  921HK4    H1477298   4.108   9.347   8.980  1.5088  2.4232  1.8908
  921HK4    C3277299   4.283   9.252   8.928  0.1491  0.0026  0.2013
  921HK4    H1677300   4.280   9.188   9.017 -3.6637  0.4492  0.4846
  921HK4    C3177301   4.372   9.230   8.824 -0.0273  0.2083  0.0091
  921HK4    C3477302   4.467   9.127   8.786  0.1183  0.2951  0.1444
  921HK4    C3377303   4.518   9.161   8.655 -0.4003 -0.2798 -0.2117
  921HK4    C3577304   4.595   9.069   8.585  0.5124  0.1928  0.1592
  921HK4    H1777305   4.657   9.094   8.499 -0.0401 -1.8146 -0.8621
  921HK4    C3677306   4.616   8.943   8.640  0.3624  0.5509  1.0398
  921HK4    H1877307   4.667   8.860   8.589  0.5554 -0.3923  2.7254
  921HK4    C3777308   4.559   8.905   8.761 -0.2119 -0.5675  0.4287
  921HK4    H1977309   4.574   8.802   8.793  1.0222 -0.7488 -0.6563
  921HK4    C3877310   4.490   8.999   8.836  0.1270  0.1661 -0.1762
  921HK4    H2077311   4.430   8.978   8.924  0.4636  1.1995  0.3109
  921HK4    C1477312   4.124   9.583   8.821 -0.4025  0.0920  0.2994
  921HK4     C977313   4.112   9.656   8.940 -0.5853 -0.1474  0.4338
  921HK4     C877314   4.012   9.754   8.952 -0.3665  0.1306 -0.0172
  921HK4    C1177315   3.936   9.784   8.839 -0.3473 -0.1170 -0.0919
  921HK4     H477316   3.858   9.862   8.844  1.4595  1.8498 -1.5685
  921HK4    C1277317   3.948   9.716   8.718  0.5555  0.2886 -0.2411
  921HK4     H577318   3.901   9.744   8.623  1.8258 -1.9775 -1.5903
  921HK4    C1377319   4.040   9.612   8.711 -0.1863 -0.4010  0.0053
  921HK4     H677320   4.059   9.567   8.613  0.2133 -0.1012 -0.0576
  921HK4     C777321   3.976   9.815   9.082 -0.8237 -0.5457  0.1770
  921HK4     O277322   3.921   9.925   9.083 -0.1523 -0.2066  0.0110
  921HK4     C477323   4.043   9.754   9.198  0.6296  0.9251  0.1312
  921HK4     C377324   3.987   9.782   9.322 -0.0946  0.2682 -0.0410
  921HK4     H377325   3.925   9.872   9.337  2.3892  2.1164 -0.5277
  921HK4     C277326   4.032   9.718   9.437  0.5668 -0.2852 -0.6064
  921HK4     H277327   3.988   9.738   9.536 -1.2007 -2.4748 -0.8927
  921HK4     C177328   4.130   9.619   9.434  0.2328 -0.6279 -0.4451
  921HK4     H177329   4.161   9.574   9.529 -0.7261  2.6018  1.4750
  921HK4     C677330   4.176   9.574   9.308  0.7616  0.3517 -0.6091
  921HK4     C577331   4.141   9.652   9.197 -0.4876 -0.1514 -0.5706
  921HK4    C1077332   4.191   9.619   9.061  0.0160 -0.9514 -0.1971
  921HK4     O177333   4.314   9.619   9.055  0.0143 -0.5377 -0.3088
  921HK4    C1677334   4.227   9.436   9.307  0.2226  0.1410  0.2010
  921HK4    C1577335   4.160   9.320   9.349 -0.2499  0.1779 -0.4480
  921HK4     H777336   4.063   9.338   9.399 -1.1891 -0.1379 -2.1223
  921HK4    C2077337   4.222   9.196   9.349  0.0169  0.3105 -0.2062
  921HK4     H977338   4.163   9.108   9.373 -0.7747  0.7037 -0.6975
  921HK4    C1977339   4.352   9.177   9.302 -0.0665  0.1805 -0.3808
  921HK4    C1877340   4.424   9.293   9.254  0.2613  0.3223  0.4545
  921HK4    C1777341   4.358   9.415   9.266  0.3099  0.3578  0.3652
  921HK4     H877342   4.418   9.506   9.271 -1.1757  1.4390 -1.0594
  921HK4     N177343   4.552   9.257   9.206 -0.1700 -0.5324 -0.0698
  921HK4    C2177344   4.562   9.117   9.217  0.3110 -0.4924  0.0545
  921HK4    C2277345   4.442   9.066   9.282  0.0007  0.1667  0.0012
  921HK4    C2677346   4.418   8.929   9.292  0.0626  0.1441 -0.1428
  921HK4    H1377347   4.327   8.884   9.330  1.0046 -1.7509 -0.0356
  921HK4    C2577348   4.508   8.836   9.241  0.1961 -0.0316  0.4154
  921HK4    H1277349   4.480   8.731   9.249 -0.2939  0.0357 -0.3642
  921HK4    C2477350   4.620   8.885   9.173  0.0390 -0.6234 -0.2744
  921HK4    H1177351   4.681   8.809   9.122 -0.4280 -1.0595 -0.1916
  921HK4    C2377352   4.647   9.021   9.163 -0.0070 -0.6084 -0.2347
  921HK4    H1077353   4.733   9.051   9.104 -1.6667  1.0833 -1.8567
  921HK4    C3977354   4.630   9.338   9.123  0.0580 -0.1781  0.4872
  921HK4    C4177355   4.768   9.313   9.117 -0.0163 -0.4209 -0.2533
  921HK4    H2177356   4.816   9.242   9.186  1.3772  0.9623  0.2320
  921HK4    C4277357   4.850   9.369   9.019 -0.2896 -0.0514 -0.2715
  921HK4    H2277358   4.945   9.321   8.992  0.3515  1.5352 -0.8991
  921HK4    C4377359   4.792   9.449   8.921  0.0337  0.7332  0.1693
  921HK4    H2377360   4.856   9.482   8.839  0.4990  0.0253  0.2418
  921HK4    C4477361   4.658   9.482   8.930 -0.1801 -0.0770  0.0182
  921HK4    H2477362   4.615   9.535   8.844  0.4780 -2.5658 -1.8802
  921HK4    C4577363   4.576   9.428   9.028  0.1353 -0.7182 -0.0713
  921HK4    H2577364   4.469   9.413   9.004 -0.2818 -0.0801  1.3284
  922HK4    H2877365  10.240  10.662   5.169 -1.1437 -2.2492 -1.8710
  922HK4    C4877366  10.274  10.729   5.089 -0.2019 -0.2726  0.1340
  922HK4    C4777367  10.197  10.755   4.976 -0.2236 -0.0705  0.1970
  922HK4    H2777368  10.103  10.699   4.964 -0.1727 -0.3780  1.1792
  922HK4    C4677369  10.250  10.836   4.876  0.1462 -0.6777 -0.0979
  922HK4    H2677370  10.193  10.841   4.782 -0.5102 -0.6014  0.2985
  922HK4    C4077371  10.376  10.897   4.881 -0.0425 -0.3071  0.0805
  922HK4    C5077372  10.445  10.871   5.002  0.5390 -0.3865 -0.2667
  922HK4    H3077373  10.542  10.920   5.019  0.1536 -0.4712  2.2910
  922HK4    C4977374  10.397  10.792   5.105 -0.0788 -0.3447 -0.5205
  922HK4    H2977375  10.459  10.782   5.195  0.9742  0.4901 -1.1442
  922HK4     N277376  10.399  11.016   4.811 -0.7373 -0.1761  0.0726
  922HK4    C3077377  10.309  11.115   4.764 -0.3200  0.2458  0.1644
  922HK4    C2977378  10.176  11.124   4.802 -0.2203  0.4196  0.4886
  922HK4    H1577379  10.131  11.043   4.860  2.0858 -0.6520  0.8094
  922HK4    C2877380  10.086  11.206   4.735 -0.0717  0.0598 -0.1626
  922HK4    C2777381  10.136   0.040   4.632 -0.5371  0.3867 -0.1331
  922HK4    H1477382  10.072   0.109   4.575  1.9136  0.3566 -3.0536
  922HK4    C3277383  10.271   0.037   4.601 -0.4747 -0.1604  0.1796
  922HK4    H1677384  10.302   0.104   4.520 -0.4506 -1.3667 -0.8262
  922HK4    C3177385  10.364  11.201   4.661 -0.2149  0.0231  0.0377
  922HK4    C3477386  10.501  11.157   4.646 -0.0721  0.2888  0.5312
  922HK4    C3377387  10.516  11.048   4.740 -0.6278  0.0624  0.3593
  922HK4    C3577388  10.632  10.971   4.728 -0.2273  0.6988  0.1426
  922HK4    H1777389  10.654  10.897   4.805 -1.0073 -0.8309 -1.0737
  922HK4    C3677390  10.727  10.993   4.629  0.1092  0.0403  0.3201
  922HK4    H1877391  10.815  10.927   4.621  0.6304  0.5860  1.3511
  922HK4    C3777392  10.712  11.106   4.550 -0.0372  0.0855  0.4161
  922HK4    H1977393  10.777  11.113   4.463 -1.6359  1.6376 -0.7068
  922HK4    C3877394  10.601  11.190   4.555 -0.4771 -0.4498 -0.1857
  922HK4    H2077395  10.588   0.024   4.485  0.5883 -0.8728 -0.8887
  922HK4    C1477396   9.942  11.179   4.748 -0.1043  0.2080 -0.2356
  922HK4     C977397   9.853  11.180   4.640 -0.2812  0.0094 -0.0968
  922HK4     C877398   9.722  11.228   4.655 -0.3114 -0.1205  0.0291
  922HK4    C1177399   9.681   0.013   4.784 -0.2979 -0.2527  0.0690
  922HK4     H477400   9.579   0.051   4.801  0.0767  0.5026  0.6354
  922HK4    C1277401   9.763   0.002   4.895 -0.1448 -0.5654 -0.0748
  922HK4     H577402   9.722   0.009   4.997  0.5563 -2.8722  0.3847
  922HK4    C1377403   9.892  11.201   4.878  0.3219  0.6495 -0.1434
  922HK4     H677404   9.956  11.175   4.964  0.0405  0.2318 -0.0590
  922HK4     C777405   9.624  11.235   4.544  0.1879  0.0280 -0.4036
  922HK4     O277406   9.519   0.050   4.555  0.0985 -0.1282 -0.3575
  922HK4     C477407   9.663  11.170   4.417 -0.1117 -0.3513 -0.3062
  922HK4     C377408   9.563  11.147   4.324 -0.6031 -0.4803  0.2528
  922HK4     H377409   9.461  11.183   4.345 -0.6063  0.4437 -1.2870
  922HK4     C277410   9.582  11.085   4.201  0.0938 -0.0669  0.1511
  922HK4     H277411   9.499  11.069   4.130 -0.3221 -0.1460  0.6542
  922HK4     C177412   9.713  11.047   4.174 -0.0506 -0.2844 -0.2632
  922HK4     H177413   9.724  10.977   4.090 -1.5701 -0.4400 -0.3394
  922HK4     C677414   9.817  11.058   4.268 -0.2662  0.2258 -0.0868
  922HK4     C577415   9.790  11.114   4.394  0.1328  0.0412  0.0830
  922HK4    C1077416   9.884  11.115   4.509  0.1795 -0.0549  0.0454
  922HK4     O177417   9.979  11.037   4.511 -0.2546 -0.5900 -0.2177
  922HK4    C1677418   9.942  11.084   4.194 -0.0082 -0.2600  0.1733
  922HK4    C1577419   9.940  11.172   4.084  0.4095  0.0711  0.4306
  922HK4     H777420   9.854  11.240   4.079  0.5070  0.1978  0.4718
  922HK4    C2077421  10.040  11.179   3.986 -0.1411 -0.8146 -0.2072
  922HK4     H977422  10.041   0.015   3.916  1.4970  0.9774  1.8849
  922HK4    C1977423  10.152  11.098   3.999  0.6093  0.2805  0.2912
  922HK4    C1877424  10.164  11.011   4.114  0.1635 -0.6613 -0.3692
  922HK4    C1777425  10.054  11.003   4.199  0.4055  0.3010  0.0342
  922HK4     H877426  10.055  10.914   4.262 -1.5987  0.5480  0.4580
  922HK4     N177427  10.278  10.929   4.099  0.3451 -0.4824  0.0282
  922HK4    C2177428  10.339  10.964   3.977 -0.2867 -0.1157 -0.1819
  922HK4    C2277429  10.266  11.072   3.913  0.5645  0.6468  0.1226
  922HK4    C2677430  10.303  11.109   3.784  0.0975  0.6994  0.0040
  922HK4    H1377431  10.240  11.190   3.746 -1.1767  0.3253  1.2840
  922HK4    C2577432  10.406  11.043   3.718 -0.3241 -0.1190  0.1533
  922HK4    H1277433  10.417  11.066   3.612  1.2926  2.9743  0.9496
  922HK4    C2477434  10.483  10.950   3.787 -0.3482 -0.7435 -0.6550
  922HK4    H1177435  10.578  10.917   3.743 -0.3894 -2.3125  0.4050
  922HK4    C2377436  10.450  10.908   3.915  0.0671  0.5189 -0.1263
  922HK4    H1077437  10.524  10.849   3.969 -1.4025 -2.0211 -0.8239
  922HK4    C3977438  10.340  10.862   4.205  0.1982 -0.5776  0.0492
  922HK4    C4177439  10.432  10.756   4.190  0.0697 -0.6247 -0.4314
  922HK4    H2177440  10.419  10.694   4.100 -0.1138 -2.8680  1.1117
  922HK4    C4277441  10.508  10.706   4.294  0.4074 -0.0513 -0.4043
  922HK4    H2277442  10.579  10.625   4.270  1.4095  0.0765  2.0082
  922HK4    C4377443  10.503  10.761   4.422 -0.5932  0.7173 -0.7655
  922HK4    H2377444  10.569  10.727   4.502 -1.5826 -0.9682 -0.6484
  922HK4    C4477445  10.413  10.864   4.443 -0.5271  0.5055  0.5856
  922HK4    H2477446  10.379  10.891   4.545 -1.4860 -0.8704  0.6372
  922HK4    C4577447  10.341  10.914   4.336  0.7303  0.3725 -0.3321
  922HK4    H2577448  10.298  11.013   4.356 -0.4043 -0.5930  2.1289
  923HK4    H2877449   7.804   8.136   7.704 -1.5493 -0.0969  0.3700
  923HK4    C4877450   7.764   8.083   7.790 -0.3239 -0.6934  0.5958
  923HK4    C4777451   7.832   7.974   7.842  0.3321 -0.5960 -0.0590
  923HK4    H2777452   7.908   7.914   7.789  0.2837 -1.4219  0.7867
  923HK4    C4677453   7.812   7.937   7.975 -0.0355  0.2498  0.1223
  923HK4    H2677454   7.881   7.868   8.026 -0.7162  0.9585  2.0611
  923HK4    C4077455   7.716   7.996   8.059  0.5907  0.4597  0.6908
  923HK4    C5077456   7.633   8.094   8.000  0.2367 -0.3328 -0.1367
  923HK4    H3077457   7.549   8.148   8.046  1.3140  3.4324 -2.3283
  923HK4    C4977458   7.661   8.132   7.870 -0.8173 -0.2171 -0.3302
  923HK4    H2977459   7.598   8.207   7.818  1.0941 -0.1787 -2.6806
  923HK4     N277460   7.666   7.936   8.176 -0.4141  0.1570  0.1076
  923HK4    C3077461   7.651   7.798   8.199  0.0985  0.0293 -0.3139
  923HK4    C2977462   7.659   7.695   8.106 -0.0195 -0.2816  0.0147
  923HK4    H1577463   7.694   7.718   8.005  1.6099  1.4384  0.9460
  923HK4    C2877464   7.649   7.561   8.140  0.3107 -0.2296  0.3180
  923HK4    C2777465   7.606   7.532   8.271  0.6117 -0.5319  0.3571
  923HK4    H1477466   7.601   7.427   8.300  0.5552 -0.2197  1.4924
  923HK4    C3277467   7.578   7.633   8.363 -0.1139 -0.3789 -0.0286
  923HK4    H1677468   7.555   7.608   8.466  2.7266  0.0090  0.7493
  923HK4    C3177469   7.596   7.767   8.330 -0.0761 -0.5000 -0.5075
  923HK4    C3477470   7.590   7.898   8.393  0.2026 -0.8444  0.2364
  923HK4    C3377471   7.632   7.998   8.298  0.2498 -0.4945  0.6207
  923HK4    C3577472   7.647   8.130   8.339 -1.3984 -0.0459 -0.1780
  923HK4    H1777473   7.672   8.201   8.260 -0.3808  1.2845  1.3245
  923HK4    C3677474   7.634   8.167   8.472  0.0617 -0.7734  0.1759
  923HK4    H1877475   7.641   8.271   8.506 -1.6833 -0.5635 -0.0679
  923HK4    C3777476   7.592   8.071   8.564 -0.2018 -0.3626  0.4846
  923HK4    H1977477   7.554   8.102   8.661 -1.0156  2.3868 -0.6627
  923HK4    C3877478   7.569   7.940   8.524  0.5063 -0.3819  0.1336
  923HK4    H2077479   7.512   7.877   8.593 -2.0156 -2.0683 -3.3394
  923HK4    C1477480   7.659   7.456   8.037  0.4191 -0.2343  0.3358
  923HK4     C977481   7.583   7.338   8.025  0.0738 -0.0566  0.7320
  923HK4     C877482   7.629   7.220   7.963 -0.4209  0.2644 -0.2561
  923HK4    C1177483   7.747   7.229   7.891 -0.1728 -0.0193  0.1103
  923HK4     H477484   7.789   7.141   7.840  1.0057  0.9312 -0.5947
  923HK4    C1277485   7.815   7.350   7.883 -0.4061  0.1451  0.6112
  923HK4     H577486   7.886   7.359   7.800 -0.2321 -1.0344  0.6224
  923HK4    C1377487   7.777   7.459   7.961  0.2680  0.7251  0.1361
  923HK4     H677488   7.835   7.552   7.973  0.3290  0.7762 -0.5456
  923HK4     C777489   7.558   7.092   7.985 -0.0350  0.0473 -0.2679
  923HK4     O277490   7.609   6.996   7.927 -0.0164 -0.0180 -0.1404
  923HK4     C477491   7.432   7.088   8.061  0.3889  0.2600  0.4506
  923HK4     C377492   7.374   6.963   8.080  0.2950  0.2756  0.2819
  923HK4     H377493   7.427   6.870   8.054 -2.0348 -0.1387 -3.3617
  923HK4     C277494   7.245   6.955   8.132  0.2187  0.4256  0.1194
  923HK4     H277495   7.194   6.859   8.148  1.8896 -0.8086 -1.7395
  923HK4     C177496   7.186   7.075   8.168 -0.4049  0.1877 -0.1137
  923HK4     H177497   7.080   7.066   8.196 -0.5349 -0.5343 -0.8210
  923HK4     C677498   7.246   7.202   8.158 -0.1514  0.0943  0.1748
  923HK4     C577499   7.368   7.210   8.091 -0.4627  0.0337 -0.4089
  923HK4    C1077500   7.440   7.339   8.066 -0.1015 -0.0638  0.1317
  923HK4     O177501   7.376   7.439   8.037 -0.1874 -0.2174 -0.2034
  923HK4    C1677502   7.208   7.291   8.268  0.6540 -0.2093  0.6996
  923HK4    C1577503   7.183   7.234   8.395 -0.2586 -0.4221  0.4285
  923HK4     H777504   7.201   7.129   8.421 -0.4215 -0.0475  2.1506
  923HK4    C2077505   7.127   7.315   8.494  0.0768  0.0443  0.2399
  923HK4     H977506   7.091   7.261   8.582 -2.0395  0.5154 -0.3300
  923HK4    C1977507   7.082   7.444   8.470 -0.6691 -0.2962 -0.2069
  923HK4    C1877508   7.097   7.500   8.337 -0.3254 -0.4499 -0.2328
  923HK4    C1777509   7.163   7.421   8.244 -0.1476 -0.6057  0.0278
  923HK4     H877510   7.177   7.472   8.149  0.2629  1.3689  1.1300
  923HK4     N177511   7.058   7.636   8.341  0.0397 -0.3516  0.0169
  923HK4    C2177512   7.032   7.670   8.475 -0.2777 -0.0319 -0.1240
  923HK4    C2277513   7.045   7.552   8.559  1.0103  0.1563 -0.0363
  923HK4    C2677514   7.041   7.571   8.696  0.2858  0.8428 -0.1514
  923HK4    H1377515   7.020   7.485   8.760  0.7498  0.2188 -0.8329
  923HK4    C2577516   7.024   7.700   8.746 -0.1406  0.6512  0.2082
  923HK4    H1277517   6.999   7.696   8.852  0.6682 -0.0644  0.3813
  923HK4    C2477518   7.002   7.813   8.668 -0.9583  0.1680 -0.2707
  923HK4    H1177519   7.037   7.907   8.715  1.9544 -1.5330  1.0955
  923HK4    C2377520   7.008   7.795   8.530 -0.0177  0.0610 -0.2224
  923HK4    H1077521   7.007   7.885   8.468  1.9578  0.0321 -0.3301
  923HK4    C3977522   7.099   7.721   8.238 -0.0550 -0.6388 -0.2589
  923HK4    C4177523   7.013   7.827   8.202  0.0782 -0.2713  0.4868
  923HK4    H2177524   6.911   7.796   8.176 -0.6336  0.5739  2.1938
  923HK4    C4277525   7.050   7.950   8.148  0.6056 -0.4659  0.4040
  923HK4    H2277526   6.974   8.026   8.125  0.8016 -0.2556  0.4524
  923HK4    C4377527   7.184   7.971   8.116  0.5289 -0.1021  0.3109
  923HK4    H2377528   7.219   8.058   8.062 -2.6381  0.6282 -0.6420
  923HK4    C4477529   7.272   7.869   8.152  0.5112 -0.2023  0.0699
  923HK4    H2477530   7.378   7.880   8.128  0.9527 -2.2505  0.9794
  923HK4    C4577531   7.234   7.748   8.209 -0.1471 -0.1494 -0.2406
  923HK4    H2577532   7.305   7.664   8.212  0.4182  0.3031 -0.9334
  924HK4    H2877533   7.713   5.233   6.908 -0.4554  0.0232 -0.0201
  924HK4    C4877534   7.718   5.284   6.811  0.1006  0.5990  0.3072
  924HK4    C4777535   7.617   5.362   6.758 -0.2369 -0.1086 -0.0985
  924HK4    H2777536   7.524   5.372   6.816 -1.0143  0.8596 -1.4974
  924HK4    C4677537   7.638   5.409   6.629 -0.1947 -0.1825 -0.1184
  924HK4    H2677538   7.553   5.467   6.589 -1.2221 -0.9508  0.9093
  924HK4    C4077539   7.756   5.400   6.552  0.0906 -0.0337  0.3035
  924HK4    C5077540   7.860   5.330   6.617 -0.2850 -0.8009  0.0860
  924HK4    H3077541   7.958   5.334   6.568 -0.1482 -3.6999  0.0945
  924HK4    C4977542   7.836   5.269   6.740 -0.4506 -1.3697 -0.2282
  924HK4    H2977543   7.923   5.236   6.798 -0.7163 -1.3166  0.1986
  924HK4     N277544   7.760   5.425   6.415  0.1873  0.3690  0.3786
  924HK4    C3077545   7.647   5.433   6.330  0.1383 -0.0238  0.4057
  924HK4    C2977546   7.538   5.347   6.329 -0.3751  0.6331  0.2513
  924HK4    H1577547   7.529   5.264   6.399 -0.7934 -0.5166 -1.1475
  924HK4    C2877548   7.446   5.355   6.226  0.0190  0.0709 -0.1445
  924HK4    C2777549   7.466   5.446   6.120 -0.0056  0.4417  0.1675
  924HK4    H1477550   7.399   5.450   6.033 -1.6591  2.0891  1.4839
  924HK4    C3277551   7.567   5.540   6.129  0.0571  0.4140 -0.2162
  924HK4    H1677552   7.574   5.619   6.054  0.3959  0.3099 -0.2938
  924HK4    C3177553   7.671   5.525   6.220 -0.0865 -0.7274 -0.2376
  924HK4    C3477554   7.812   5.558   6.224 -0.2310 -0.1289 -0.1277
  924HK4    C3377555   7.862   5.491   6.343  0.0718 -0.1561 -0.2695
  924HK4    C3577556   7.992   5.526   6.377 -0.1144  0.5298 -0.2520
  924HK4    H1777557   8.042   5.456   6.444 -0.2683  0.2664 -0.4124
  924HK4    C3677558   8.072   5.605   6.296  0.5529  0.1491  0.0316
  924HK4    H1877559   8.180   5.611   6.315  0.4665 -1.4362  1.0958
  924HK4    C3777560   8.026   5.663   6.178  0.3629 -0.2126 -0.0715
  924HK4    H1977561   8.085   5.736   6.124  2.0096 -0.9454  0.6975
  924HK4    C3877562   7.893   5.638   6.145  0.1121  0.2376  0.5859
  924HK4    H2077563   7.857   5.655   6.043 -1.2241  1.9831  1.3316
  924HK4    C1477564   7.337   5.259   6.202 -0.2013  0.2622  0.0942
  924HK4     C977565   7.290   5.205   6.081 -0.3250  0.3413  0.1083
  924HK4     C877566   7.157   5.159   6.067 -0.0253 -0.5266  0.1243
  924HK4    C1177567   7.074   5.159   6.178  0.0485 -0.0855  0.1759
  924HK4     H477568   6.969   5.129   6.165  0.2095 -1.0180  0.9969
  924HK4    C1277569   7.119   5.203   6.302  0.1474  0.4504 -0.0469
  924HK4     H577570   7.053   5.230   6.386 -0.2822 -1.4223  0.2417
  924HK4    C1377571   7.251   5.246   6.313  0.4197 -0.5124  0.4930
  924HK4     H677572   7.286   5.279   6.411  1.1910 -0.4429  0.1930
  924HK4     C777573   7.099   5.135   5.933 -0.3034  0.0172  0.1476
  924HK4     O277574   6.993   5.073   5.923 -0.1544 -0.2199  0.0521
  924HK4     C477575   7.176   5.180   5.814 -0.0175  0.4891  0.5111
  924HK4     C377576   7.113   5.184   5.691  0.3453  0.5895  0.3285
  924HK4     H377577   7.010   5.145   5.688  1.4963 -2.5392 -1.5830
  924HK4     C277578   7.178   5.232   5.578  0.5297 -0.3749  0.0131
  924HK4     H277579   7.114   5.230   5.488 -0.1339  1.6953  0.3902
  924HK4     C177580   7.312   5.269   5.585  0.5732 -0.4173 -0.5172
  924HK4     H177581   7.371   5.280   5.493 -2.2570 -0.7153 -2.4435
  924HK4     C677582   7.379   5.263   5.709 -0.2235  0.0166 -0.0621
  924HK4     C577583   7.313   5.212   5.822  0.0875  0.1294  0.1714
  924HK4    C1077584   7.373   5.199   5.958 -0.1567 -0.2014  0.2475
  924HK4     O177585   7.475   5.131   5.966 -0.0081 -0.0555 -0.3792
  924HK4    C1677586   7.486   5.363   5.721  0.1257 -0.3878  0.1610
  924HK4    C1577587   7.469   5.487   5.657 -0.3825  0.0769  1.1994
  924HK4     H777588   7.370   5.517   5.620 -2.0454 -3.2358  2.7040
  924HK4    C2077589   7.570   5.582   5.659 -0.0233 -0.2649 -0.3557
  924HK4     H977590   7.557   5.690   5.646  0.4919 -0.3033 -1.2491
  924HK4    C1977591   7.697   5.553   5.707  0.1120  0.1117 -0.4777
  924HK4    C1877592   7.715   5.422   5.766 -0.0212  0.1620 -0.3268
  924HK4    C1777593   7.612   5.329   5.770  0.4274 -0.3486 -0.5796
  924HK4     H877594   7.631   5.222   5.776 -1.1443 -0.6401 -0.5792
  924HK4     N177595   7.843   5.402   5.823 -0.1456  0.4572  0.0581
  924HK4    C2177596   7.911   5.524   5.804  0.3238  0.2207  0.2278
  924HK4    C2277597   7.823   5.618   5.736  0.0003 -0.0212  0.3168
  924HK4    C2677598   7.862   5.747   5.703 -0.2989 -0.0941 -0.3144
  924HK4    H1377599   7.791   5.816   5.657 -1.3282 -0.2459  1.0435
  924HK4    C2577600   7.993   5.781   5.735 -0.2458 -0.0158 -0.6089
  924HK4    H1277601   8.026   5.880   5.705  1.1604  0.0517  1.1111
  924HK4    C2477602   8.079   5.693   5.799 -0.1716  0.0338 -0.6440
  924HK4    H1177603   8.184   5.721   5.819 -0.2323  0.8639 -1.4798
  924HK4    C2377604   8.038   5.568   5.842  0.3136  0.1901  0.2942
  924HK4    H1077605   8.086   5.530   5.932 -0.8377 -1.7938  0.1060
  924HK4    C3977606   7.888   5.304   5.911  0.2896  0.6989  0.1109
  924HK4    C4177607   8.022   5.260   5.910  0.0238 -0.1108 -0.4848
  924HK4    H2177608   8.096   5.293   5.836  0.3222  1.2000  0.3831
  924HK4    C4277609   8.076   5.176   6.006  0.2752  0.4350 -0.1489
  924HK4    H2277610   8.183   5.149   6.002  0.0125 -0.6778 -0.0307
  924HK4    C4377611   7.990   5.126   6.103  0.0112 -0.5023 -0.8673
  924HK4    H2377612   8.022   5.042   6.165 -2.3828  0.8941  2.4092
  924HK4    C4477613   7.858   5.168   6.110  0.0944 -0.3733 -0.1005
  924HK4    H2477614   7.804   5.148   6.204  0.1285  1.0682  0.2392
  924HK4    C4577615   7.807   5.259   6.018  0.6264  0.1958  0.1579
  924HK4    H2577616   7.709   5.304   6.040 -0.4087 -1.2129 -1.4463
  925HK4    H2877617   4.896   1.535   3.394 -1.1267  0.5628  2.1711
  925HK4    C4877618   4.862   1.431   3.401 -0.2294  0.0867 -0.1228
  925HK4    C4777619   4.896   1.345   3.298  0.3924 -0.1761  0.2977
  925HK4    H2777620   4.921   1.387   3.199  1.5714 -0.5729  0.4248
  925HK4    C4677621   4.873   1.209   3.314 -0.6825 -0.0333  0.0146
  925HK4    H2677622   4.855   1.158   3.218 -0.9381 -0.4858  0.3024
  925HK4    C4077623   4.835   1.146   3.434 -0.2654 -0.3983 -0.0430
  925HK4    C5077624   4.811   1.241   3.535 -0.0982  0.1626 -0.5297
  925HK4    H3077625   4.779   1.209   3.636 -0.1625  0.2649 -0.5169
  925HK4    C4977626   4.816   1.379   3.521  0.1029  0.2179  0.0641
  925HK4    H2977627   4.798   1.449   3.604  1.8043 -0.4872  1.0494
  925HK4     N277628   4.808   1.008   3.442 -0.1054 -0.3876  0.7539
  925HK4    C3077629   4.858   0.912   3.351 -0.2499  0.3236 -0.0796
  925HK4    C2977630   4.973   0.913   3.274 -0.1230 -0.3145  0.1047
  925HK4    H1577631   5.041   0.998   3.277 -0.7172  0.2234 -1.4359
  925HK4    C2877632   5.011   0.811   3.187  0.1987 -0.2709  0.1901
  925HK4    C2777633   4.918   0.706   3.175 -0.3972  0.3133 -0.3943
  925HK4    H1477634   4.949   0.618   3.116 -0.7737 -0.8239  1.0846
  925HK4    C3277635   4.799   0.694   3.246 -0.3461  0.3827 -0.2956
  925HK4    H1677636   4.756   0.598   3.276 -0.6998  0.7067  0.2345
  925HK4    C3177637   4.770   0.798   3.334  0.0821  0.0148  0.2860
  925HK4    C3477638   4.659   0.826   3.422  0.0210  0.0528  0.1977
  925HK4    C3377639   4.687   0.953   3.487 -0.7779  0.3798 -0.0978
  925HK4    C3577640   4.603   0.987   3.593 -0.1387  0.0600  0.5130
  925HK4    H1777641   4.620   1.079   3.649 -6.3954  1.4209  0.4983
  925HK4    C3677642   4.506   0.904   3.647 -0.2958  0.0545  0.2224
  925HK4    H1877643   4.464   0.923   3.747 -0.2468 -0.8717  0.4226
  925HK4    C3777644   4.484   0.781   3.585 -0.0547  0.0432  0.1557
  925HK4    H1977645   4.403   0.721   3.628 -0.5433  1.2799  1.0130
  925HK4    C3877646   4.558   0.746   3.473 -0.1157  0.1511  0.0810
  925HK4    H2077647   4.519   0.670   3.405  1.5571 -1.4018  0.8267
  925HK4    C1477648   5.109   0.850   3.084  0.5011 -1.1110  0.1578
  925HK4     C977649   5.104   0.811   2.950  0.0094 -0.0903 -0.1282
  925HK4     C877650   5.224   0.771   2.887  0.3193  0.2173  0.2651
  925HK4    C1177651   5.348   0.786   2.949  0.4124  0.4680  0.0165
  925HK4     H477652   5.440   0.751   2.900  0.0327 -0.3312 -0.1412
  925HK4    C1277653   5.349   0.829   3.081 -0.0148  0.2731  0.0848
  925HK4     H577654   5.441   0.812   3.139 -0.0387 -0.6800 -0.1444
  925HK4    C1377655   5.233   0.871   3.146  0.1519  0.1828  0.4403
  925HK4     H677656   5.244   0.932   3.237 -1.4781  0.2377  0.5980
  925HK4     C777657   5.229   0.746   2.742 -0.0093 -0.1820  0.3200
  925HK4     O277658   5.317   0.677   2.692  0.2293  0.2196  0.1795
  925HK4     C477659   5.112   0.788   2.661  0.1456  0.1344  0.2565
  925HK4     C377660   5.121   0.786   2.522  0.0432  0.2458  0.2480
  925HK4     H377661   5.220   0.772   2.475 -0.6349  1.1209 -1.4539
  925HK4     C277662   5.012   0.814   2.441 -0.0872 -0.0172  0.3318
  925HK4     H277663   5.029   0.834   2.334 -0.6530 -0.0708  0.2338
  925HK4     C177664   4.890   0.839   2.502 -0.0773  0.3705  0.1979
  925HK4     H177665   4.795   0.845   2.447 -0.1239  1.9126  0.4126
  925HK4     C677666   4.870   0.833   2.641 -0.2543 -0.2337  0.1457
  925HK4     C577667   4.985   0.810   2.718 -0.0985 -0.3001 -0.1099
  925HK4    C1077668   4.988   0.843   2.863  0.2920  0.4941 -0.2954
  925HK4     O177669   4.914   0.931   2.907 -0.4536 -0.3985  0.2620
  925HK4    C1677670   4.730   0.827   2.687 -0.3932 -0.4549 -0.3080
  925HK4    C1577671   4.708   0.740   2.795 -0.2094 -0.1436 -0.0206
  925HK4     H777672   4.789   0.674   2.830 -0.4402  0.2481  1.2940
  925HK4    C2077673   4.590   0.742   2.868 -0.1310  0.1057  0.1019
  925HK4     H977674   4.579   0.686   2.961  1.4607 -0.0176  0.2166
  925HK4    C1977675   4.481   0.821   2.834 -0.2891 -0.3145 -0.3685
  925HK4    C1877676   4.499   0.902   2.715 -0.5596 -0.5312 -0.5616
  925HK4    C1777677   4.622   0.907   2.650 -0.2604 -0.1220  0.0261
  925HK4     H877678   4.638   0.990   2.582 -0.7964  0.8558  1.0627
  925HK4     N177679   4.386   0.984   2.696 -0.2831 -0.0963 -0.3658
  925HK4    C2177680   4.293   0.952   2.796 -0.1162  0.0223 -0.1731
  925HK4    C2277681   4.351   0.857   2.889 -0.3114 -0.3285 -0.4067
  925HK4    C2677682   4.272   0.803   2.989  0.2571  0.1382  0.3016
  925HK4    H1377683   4.322   0.759   3.075 -0.9807  0.4256  1.1877
  925HK4    C2577684   4.135   0.826   2.989  0.2684  0.2208 -0.5376
  925HK4    H1277685   4.065   0.766   3.047 -0.5687  0.1275 -1.6307
  925HK4    C2477686   4.082   0.919   2.900 -0.3331 -0.0788 -0.4992
  925HK4    H1177687   3.973   0.920   2.887 -0.5190 -0.0748  1.0010
  925HK4    C2377688   4.160   0.991   2.810 -0.1836 -0.1235 -0.4067
  925HK4    H1077689   4.117   1.080   2.765 -1.7417 -0.6850 -0.0594
  925HK4    C3977690   4.399   1.107   2.630 -0.3988  0.2391  0.2406
  925HK4    C4177691   4.284   1.162   2.570 -0.1638  0.1368 -0.3059
  925HK4    H2177692   4.210   1.091   2.530 -0.2309 -0.4578  0.8334
  925HK4    C4277693   4.256   1.298   2.567  0.3164  0.2418 -0.0953
  925HK4    H2277694   4.155   1.330   2.538  0.4067  0.3487 -0.2957
  925HK4    C4377695   4.344   1.383   2.632  0.1916 -0.1902  0.6521
  925HK4    H2377696   4.317   1.488   2.642  0.8430  0.0215  0.2450
  925HK4    C4477697   4.463   1.336   2.687  0.1519 -0.0081  0.8961
  925HK4    H2477698   4.540   1.404   2.723  0.8941 -0.1369 -0.4115
  925HK4    C4577699   4.488   1.199   2.689 -0.0556 -0.0585  0.1913
  925HK4    H2577700   4.578   1.167   2.743  1.1369 -0.4529 -1.9768
  926HK4    H2877701   1.888  11.173   6.158  0.4044 -0.6302  0.1568
  926HK4    C4877702   1.867  11.158   6.052 -0.7927 -0.0302  0.3038
  926HK4    C4777703   1.791   0.003   5.982 -0.4920 -0.1441 -0.1715
  926HK4    H2777704   1.756   0.097   6.027  0.1764 -0.8291  1.8269
  926HK4    C4677705   1.773  11.230   5.845 -0.6361  0.2840 -0.2185
  926HK4    H2677706   1.717   0.057   5.787 -0.4093  1.2920  0.8352
  926HK4    C4077707   1.834  11.121   5.781 -0.0238  0.4357  0.1007
  926HK4    C5077708   1.900  11.021   5.857 -0.9275  0.0887  0.4368
  926HK4    H3077709   1.919  10.924   5.809  0.5361 -1.6056  4.2818
  926HK4    C4977710   1.926  11.048   5.991 -0.1557  0.3431  0.2406
  926HK4    H2977711   1.985  10.975   6.048  1.0278 -0.1196 -1.5271
  926HK4     N277712   1.795  11.083   5.652  0.2933 -0.0291  0.1400
  926HK4    C3077713   1.667  11.111   5.600  0.2134 -0.0960  0.3006
  926HK4    C2977714   1.546  11.143   5.661  0.0369 -0.1051 -0.0436
  926HK4    H1577715   1.548  11.131   5.769 -0.5207  2.1868  0.2296
  926HK4    C2877716   1.425  11.168   5.598  0.3139  0.4306 -0.3703
  926HK4    C2777717   1.433  11.160   5.458 -0.3768 -0.1969 -0.3784
  926HK4    H1477718   1.341  11.169   5.399 -1.6269 -2.9787  1.0374
  926HK4    C3277719   1.550  11.133   5.387  0.0546  0.1645  0.1863
  926HK4    H1677720   1.548  11.099   5.283 -0.2617  1.5043 -0.2668
  926HK4    C3177721   1.669  11.117   5.455 -0.0452 -0.1249  0.2958
  926HK4    C3477722   1.804  11.074   5.422 -0.1361  0.2119 -0.5116
  926HK4    C3377723   1.879  11.053   5.543 -0.2783  0.3272 -0.4034
  926HK4    C3577724   2.011  11.009   5.539 -0.2729  0.3625 -0.6159
  926HK4    H1777725   2.075  11.016   5.627  0.3690 -1.0102 -0.9595
  926HK4    C3677726   2.071  10.972   5.419  0.0529 -0.0258 -0.3361
  926HK4    H1877727   2.155  10.902   5.426 -0.5964 -0.6496  1.4495
  926HK4    C3777728   1.998  10.992   5.302 -0.0411 -0.6287 -0.3792
  926HK4    H1977729   2.053  10.968   5.211  1.5301 -0.2683  0.4741
  926HK4    C3877730   1.870  11.047   5.302  0.0682 -0.3725 -0.2637
  926HK4    H2077731   1.823  11.076   5.209  0.7510 -0.5672 -0.6686
  926HK4    C1477732   1.302  11.162   5.680  0.1761  0.2909 -0.5904
  926HK4     C977733   1.188  11.089   5.646  0.0369  0.3066 -0.1405
  926HK4     C877734   1.063  11.130   5.699  0.0071  0.4768 -0.3446
  926HK4    C1177735   1.062  11.222   5.803 -0.1461  0.1553 -0.0609
  926HK4     H477736   0.968  11.232   5.859  0.3538  2.6689  0.3812
  926HK4    C1277737   1.175   0.038   5.853  0.1669 -0.3058 -0.1707
  926HK4     H577738   1.178   0.097   5.946  0.9048  2.0420 -1.6257
  926HK4    C1377739   1.292   0.010   5.783  0.2171 -0.1943 -0.1320
  926HK4     H677740   1.384   0.067   5.800 -0.0395  0.5140 -1.1231
  926HK4     C777741   0.938  11.070   5.647 -0.1487 -0.0675  0.6472
  926HK4     O277742   0.834  11.129   5.674  0.0319  0.3018  0.5466
  926HK4     C477743   0.946  10.947   5.565 -0.3506  0.1437  0.3086
  926HK4     C377744   0.831  10.901   5.501  0.2621 -0.0517 -0.6523
  926HK4     H377745   0.736  10.951   5.524  0.2943 -0.6545  0.8272
  926HK4     C277746   0.837  10.775   5.441  0.4211 -0.1110 -0.5167
  926HK4     H277747   0.752  10.746   5.377 -0.1730  0.1369  0.1562
  926HK4     C177748   0.950  10.697   5.462  0.2201 -0.1862  0.2985
  926HK4     H177749   0.961  10.616   5.387 -0.0081  0.9772 -1.0181
  926HK4     C677750   1.062  10.736   5.537  0.3075 -0.0128  0.0762
  926HK4     C577751   1.066  10.873   5.566 -0.3185  0.1796 -0.7211
  926HK4    C1077752   1.190  10.953   5.586 -0.4620  0.2016  0.0705
  926HK4     O177753   1.290  10.899   5.539 -0.3890  0.6450 -0.2749
  926HK4    C1677754   1.158  10.634   5.582  0.2230 -0.1260 -0.0005
  926HK4    C1577755   1.175  10.508   5.523  0.5634 -0.3078  0.4828
  926HK4     H777756   1.141  10.495   5.419  0.6819  0.2029  0.3805
  926HK4    C2077757   1.245  10.405   5.585  0.0508 -0.9456  0.0103
  926HK4     H977758   1.248  10.302   5.547 -0.5471 -2.1954  3.2221
  926HK4    C1977759   1.309  10.436   5.704 -0.3451 -0.6465  0.1464
  926HK4    C1877760   1.296  10.568   5.764  0.5990 -0.3482 -0.2889
  926HK4    C1777761   1.214  10.664   5.706  0.6348 -0.2381 -0.1578
  926HK4     H877762   1.164  10.733   5.774 -0.0691 -1.2754  0.3889
  926HK4     N177763   1.381  10.572   5.876  0.2199  0.1830 -0.0183
  926HK4    C2177764   1.436  10.443   5.895 -0.1857  0.0548  0.3233
  926HK4    C2277765   1.397  10.355   5.786 -0.3895 -0.2147  0.6181
  926HK4    C2677766   1.425  10.219   5.784  0.7054  0.0229 -0.2526
  926HK4    H1377767   1.393  10.162   5.696 -1.8031  1.6233 -0.4037
  926HK4    C2577768   1.510  10.167   5.880 -0.1101 -0.4502  0.2115
  926HK4    H1277769   1.559  10.070   5.874 -0.7537 -0.8697  1.4122
  926HK4    C2477770   1.546  10.247   5.988 -0.4640  0.0851 -0.0695
  926HK4    H1177771   1.604  10.201   6.070  1.2704  1.9659 -0.1943
  926HK4    C2377772   1.506  10.380   5.997  0.5574  0.3941  0.0313
  926HK4    H1077773   1.517  10.424   6.096 -1.2940  2.0712 -0.4798
  926HK4    C3977774   1.445  10.688   5.922  0.2202  0.3855 -0.5349
  926HK4    C4177775   1.473  10.703   6.059 -0.8341 -0.2537 -0.2380
  926HK4    H2177776   1.407  10.655   6.133 -2.0139  1.1480 -0.3446
  926HK4    C4277777   1.575  10.791   6.095 -0.5130 -0.4569 -0.6595
  926HK4    H2277778   1.623  10.796   6.194  1.3948 -0.0593 -1.5863
  926HK4    C4377779   1.631  10.880   6.004 -0.3363  0.2298  0.1116
  926HK4    H2377780   1.706  10.950   6.040  1.5831 -0.4017 -2.4777
  926HK4    C4477781   1.595  10.867   5.870  1.2717 -0.2930 -0.2886
  926HK4    H2477782   1.626  10.945   5.799  0.9447  1.1048  1.0730
  926HK4    C4577783   1.501  10.774   5.826  0.7632  0.2496 -0.3445
  926HK4    H2577784   1.480  10.781   5.718  0.4744  1.2434 -0.2304
  927HK4    H2877785   1.592   1.004   9.193 -1.8037  2.1222  0.4252
  927HK4    C4877786   1.669   1.065   9.145 -0.1974  0.1230  0.3692
  927HK4    C4777787   1.800   1.056   9.189 -0.0221 -0.1822 -0.2105
  927HK4    H2777788   1.829   0.971   9.253 -0.1201 -0.1553 -0.1313
  927HK4    C4677789   1.899   1.138   9.136  0.1723 -0.2235  0.0883
  927HK4    H2677790   2.003   1.134   9.172  0.1139 -0.8426  0.1930
  927HK4    C4077791   1.871   1.232   9.036 -0.0889  0.1410  0.5030
  927HK4    C5077792   1.736   1.241   8.996  0.0634 -0.0817 -0.0711
  927HK4    H3077793   1.709   1.311   8.915  2.0861 -0.4821 -1.1150
  927HK4    C4977794   1.636   1.163   9.052  0.1996 -0.5594 -0.4949
  927HK4    H2977795   1.532   1.196   9.038  0.6417  1.5028  0.8284
  927HK4     N277796   1.945   1.343   8.994  0.4964 -0.3328  0.2730
  927HK4    C3077797   2.043   1.412   9.069  0.4423  0.3509 -0.2770
  927HK4    C2977798   2.072   1.398   9.204  0.0254 -0.2767 -0.2502
  927HK4    H1577799   1.991   1.360   9.267  2.0218 -3.6384  0.3785
  927HK4    C2877800   2.182   1.461   9.261  0.0126 -0.6221  0.1649
  927HK4    C2777801   2.260   1.549   9.182 -0.1811 -0.6433 -0.0483
  927HK4    H1477802   2.355   1.587   9.221  0.4935 -1.9786 -0.3304
  927HK4    C3277803   2.228   1.567   9.048 -0.0408  0.5950  0.0758
  927HK4    H1677804   2.290   1.633   8.988  1.1338  0.3410  0.9944
  927HK4    C3177805   2.125   1.497   8.985  0.6286  0.0353 -0.4180
  927HK4    C3477806   2.068   1.491   8.852 -0.2695 -0.2072 -0.0219
  927HK4    C3377807   1.967   1.388   8.862 -0.1610 -0.2934  0.1768
  927HK4    C3577808   1.896   1.357   8.746  0.0020  0.4622 -0.1217
  927HK4    H1777809   1.811   1.289   8.746  0.1193  0.3162 -0.0745
  927HK4    C3677810   1.919   1.425   8.627 -1.0979  0.2949 -0.4286
  927HK4    H1877811   1.868   1.386   8.537 -0.2109 -0.6826 -0.5122
  927HK4    C3777812   2.014   1.526   8.624 -0.5822 -0.1600  0.4623
  927HK4    H1977813   2.011   1.591   8.536 -1.7181  0.8280  1.1902
  927HK4    C3877814   2.097   1.555   8.732  0.3496 -0.6572 -0.1177
  927HK4    H2077815   2.168   1.638   8.730  0.7701 -1.0359 -1.9882
  927HK4    C1477816   2.186   1.477   9.407 -0.3538 -0.2921  0.1418
  927HK4     C977817   2.216   1.595   9.475 -0.0147 -0.1838 -0.1897
  927HK4     C877818   2.286   1.587   9.598 -0.4847  0.0065  0.0952
  927HK4    C1177819   2.315   1.463   9.654  0.0137  0.1730  0.1990
  927HK4     H477820   2.376   1.460   9.746  0.0187  2.2180  0.2972
  927HK4    C1277821   2.269   1.346   9.594  0.2026 -0.1177  0.6214
  927HK4     H577822   2.267   1.258   9.659 -0.4433 -0.4324  0.1720
  927HK4    C1377823   2.212   1.352   9.468 -0.4073  0.0698  0.9045
  927HK4     H677824   2.163   1.259   9.437 -1.1943  0.9622 -0.6069
  927HK4     C777825   2.327   1.710   9.667 -0.2840 -0.2023  0.3464
  927HK4     O277826   2.345   1.705   9.789  0.1823  0.0878  0.2907
  927HK4     C477827   2.306   1.840   9.599 -0.1948 -0.3251  0.0891
  927HK4     C377828   2.344   1.960   9.657  0.7140 -0.6811  0.2414
  927HK4     H377829   2.394   1.953   9.754 -0.0848  0.2024  0.7326
  927HK4     C277830   2.348   2.083   9.593  0.2384 -0.9631 -0.3339
  927HK4     H277831   2.366   2.177   9.648  0.3183 -0.2420 -1.5702
  927HK4     C177832   2.322   2.080   9.456  0.4658 -0.3365 -0.4000
  927HK4     H177833   2.338   2.175   9.404  1.1670  0.1336  0.6628
  927HK4     C677834   2.278   1.962   9.392  0.5905 -0.5624 -0.0749
  927HK4     C577835   2.265   1.843   9.464  0.2999 -0.5270 -0.0667
  927HK4    C1077836   2.183   1.728   9.415  0.1416 -0.2599 -0.4404
  927HK4     O177837   2.068   1.755   9.384  0.3577  0.3949 -0.6694
  927HK4    C1677838   2.280   1.959   9.245  0.2454  0.0211 -0.0927
  927HK4    C1577839   2.391   2.008   9.173  0.1735 -0.2734 -0.4069
  927HK4     H777840   2.487   2.006   9.228 -0.5787 -1.6040  0.8916
  927HK4    C2077841   2.385   2.038   9.038  0.4754  0.0397 -0.3505
  927HK4     H977842   2.475   2.068   8.984  0.2843  1.4225  0.0852
  927HK4    C1977843   2.269   2.014   8.966  0.1838  0.2242  0.0550
  927HK4    C1877844   2.154   1.960   9.036  0.2076 -0.2299 -0.2504
  927HK4    C1777845   2.162   1.943   9.174  0.2143  0.5054 -0.1550
  927HK4     H877846   2.068   1.951   9.228 -0.2393  0.5445 -0.9354
  927HK4     N177847   2.059   1.911   8.945  0.1288  0.3480 -0.4857
  927HK4    C2177848   2.113   1.932   8.816  0.0996  0.0341 -0.5484
  927HK4    C2277849   2.243   1.997   8.824  0.2231 -0.2815  0.1066
  927HK4    C2677850   2.320   2.023   8.711 -0.3639  0.0277 -0.2217
  927HK4    H1377851   2.421   2.063   8.720 -0.4502 -0.0776  1.4237
  927HK4    C2577852   2.270   1.987   8.586  0.1561 -0.6086 -0.2478
  927HK4    H1277853   2.313   2.032   8.497 -0.5422  1.1297  0.2649
  927HK4    C2477854   2.154   1.913   8.577  0.1082 -0.5303 -0.2708
  927HK4    H1177855   2.118   1.884   8.477  0.3798  0.8422 -0.7689
  927HK4    C2377856   2.078   1.885   8.691 -0.3599  0.0741 -0.4336
  927HK4    H1077857   1.996   1.813   8.681  0.9006 -1.5085  0.4726
  927HK4    C3977858   1.923   1.891   8.971 -0.0394  0.7411 -1.0481
  927HK4    C4177859   1.842   1.797   8.904  0.4355 -0.8156  0.5261
  927HK4    H2177860   1.886   1.711   8.851  0.1590 -1.7600  1.7950
  927HK4    C4277861   1.707   1.788   8.936  0.3957  0.3093  0.6979
  927HK4    H2277862   1.646   1.728   8.867 -1.6463  2.1008  0.8777
  927HK4    C4377863   1.644   1.868   9.031 -0.4410  0.0439  0.3711
  927HK4    H2377864   1.538   1.861   9.055 -0.4524  0.5963  0.4882
  927HK4    C4477865   1.725   1.964   9.090 -0.0078 -0.0553 -0.0575
  927HK4    H2477866   1.664   2.043   9.137  2.2993 -0.3595  3.6987
  927HK4    C4577867   1.861   1.977   9.064 -0.2556  0.5764 -1.0409
  927HK4    H2577868   1.906   2.066   9.111 -1.0451  0.6991 -0.5115
  928HK4    H2877869   9.048   2.895   4.394 -0.0013 -1.5754 -0.7197
  928HK4    C4877870   8.953   2.873   4.344 -0.6792  0.5485 -0.4417
  928HK4    C4777871   8.847   2.958   4.372 -0.5772  0.6144 -0.2486
  928HK4    H2777872   8.869   3.064   4.393  0.4940  0.2935  0.2804
  928HK4    C4677873   8.717   2.919   4.342 -0.4328 -0.5708  0.6830
  928HK4    H2677874   8.631   2.987   4.350 -1.0692 -1.3164  0.2176
  928HK4    C4077875   8.699   2.788   4.293  0.1331 -0.2299 -0.4552
  928HK4    C5077876   8.807   2.709   4.250 -0.2296 -0.6579 -0.5830
  928HK4    H3077877   8.791   2.606   4.213  1.0271 -1.7279  1.7350
  928HK4    C4977878   8.937   2.754   4.275 -0.6632  0.0730  0.3643
  928HK4    H2977879   9.011   2.673   4.279 -0.3305  0.3630  0.0279
  928HK4     N277880   8.574   2.730   4.319  0.0963  0.0157 -0.0763
  928HK4    C3077881   8.484   2.763   4.422  0.2997 -0.4901  0.2671
  928HK4    C2977882   8.507   2.837   4.537  0.0956 -0.4913  0.3116
  928HK4    H1577883   8.599   2.893   4.555 -0.4311 -0.5179  3.2724
  928HK4    C2877884   8.404   2.863   4.627 -0.1974 -0.0634 -0.1427
  928HK4    C2777885   8.271   2.822   4.603 -0.2776 -0.1993  0.5304
  928HK4    H1477886   8.188   2.836   4.674 -1.2262 -1.5425 -0.3122
  928HK4    C3277887   8.249   2.744   4.491  0.1845  0.4926 -0.0478
  928HK4    H1677888   8.159   2.681   4.492 -0.9521  2.0255 -1.5004
  928HK4    C3177889   8.349   2.713   4.400  0.0720  0.2624 -0.0902
  928HK4    C3477890   8.363   2.642   4.274  0.2286  0.9481 -0.4639
  928HK4    C3377891   8.502   2.644   4.233  0.4414 -0.4928  0.1390
  928HK4    C3577892   8.546   2.585   4.115  0.5628  0.1655 -0.1529
  928HK4    H1777893   8.647   2.547   4.099  0.4717 -0.9752  1.7106
  928HK4    C3677894   8.446   2.520   4.044  0.3978 -0.4847  0.6559
  928HK4    H1877895   8.474   2.456   3.958 -4.5961 -0.8625 -0.8739
  928HK4    C3777896   8.312   2.513   4.081  0.2018 -0.0774  0.0261
  928HK4    H1977897   8.240   2.444   4.035  0.2188  0.0849 -0.2455
  928HK4    C3877898   8.268   2.577   4.196  0.4805 -0.2921  0.2488
  928HK4    H2077899   8.165   2.570   4.232  0.1401  0.5578 -0.5399
  928HK4    C1477900   8.444   2.906   4.762 -0.3938  0.2368 -0.1806
  928HK4     C977901   8.360   2.879   4.870 -0.2400 -0.0309 -0.1270
  928HK4     C877902   8.354   2.964   4.983  0.1182 -0.2857  0.0864
  928HK4    C1177903   8.448   3.066   4.988 -0.2908  0.0902  0.1960
  928HK4     H477904   8.458   3.123   5.082 -0.3147  0.9640 -0.3198
  928HK4    C1277905   8.545   3.089   4.891  0.0148 -0.5806  0.3413
  928HK4     H577906   8.608   3.179   4.891  0.0210 -0.5864 -0.0309
  928HK4    C1377907   8.546   3.000   4.784 -0.2764  0.1269 -0.2520
  928HK4     H677908   8.638   2.961   4.738  0.6671  1.0260  0.8366
  928HK4     C777909   8.249   2.956   5.087 -0.0138  0.5900  0.0237
  928HK4     O277910   8.250   3.036   5.181  0.0838  0.5753  0.0355
  928HK4     C477911   8.145   2.853   5.070  0.5042 -0.0598  0.7251
  928HK4     C377912   8.036   2.843   5.157  0.2554  0.4821  0.4811
  928HK4     H377913   8.007   2.931   5.216 -0.0572  0.7340 -0.0408
  928HK4     C277914   7.941   2.741   5.156  0.4309  0.3191  0.0897
  928HK4     H277915   7.863   2.729   5.232 -0.4879  0.4651 -0.8242
  928HK4     C177916   7.954   2.648   5.054  0.2965  0.2796  0.1099
  928HK4     H177917   7.899   2.553   5.056 -1.5853  1.3292 -0.2052
  928HK4     C677918   8.056   2.655   4.957  0.3934 -0.1853  0.1765
  928HK4     C577919   8.157   2.749   4.976  0.0270  0.1654  0.4118
  928HK4    C1077920   8.278   2.756   4.888 -0.3681  0.0519 -0.1410
  928HK4     O177921   8.351   2.658   4.898 -0.1397  0.2139 -0.2224
  928HK4    C1677922   8.017   2.616   4.820  0.4755 -0.0993  0.1281
  928HK4    C1577923   7.887   2.640   4.771  0.5062 -0.1429  0.0277
  928HK4     H777924   7.811   2.698   4.826  0.7162  0.4382 -0.2911
  928HK4    C2077925   7.848   2.591   4.647  0.0872 -0.6881  0.3707
  928HK4     H977926   7.757   2.627   4.600  0.1112 -1.3352 -0.1686
  928HK4    C1977927   7.925   2.496   4.583 -0.1906 -0.0896 -0.8620
  928HK4    C1877928   8.050   2.455   4.644 -0.4211  0.0095 -0.3276
  928HK4    C1777929   8.098   2.523   4.755  0.1067  0.0774 -0.5944
  928HK4     H877930   8.198   2.504   4.795 -0.5986 -0.8016  0.7974
  928HK4     N177931   8.119   2.369   4.557  0.6640  0.4207  0.1145
  928HK4    C2177932   8.031   2.341   4.450  0.5039 -0.1024  0.3835
  928HK4    C2277933   7.906   2.413   4.465 -0.2375 -1.2787 -0.0348
  928HK4    C2677934   7.808   2.409   4.366 -0.1319 -0.0065 -0.2065
  928HK4    H1377935   7.723   2.475   4.379  0.3452  1.3538 -3.6634
  928HK4    C2577936   7.830   2.334   4.251 -0.1517  0.1925 -0.3378
  928HK4    H1277937   7.748   2.305   4.186  1.5539  2.4845 -3.6810
  928HK4    C2477938   7.950   2.266   4.233 -0.1351  0.0935  0.1422
  928HK4    H1177939   7.963   2.202   4.145 -0.1131  1.1426 -0.6294
  928HK4    C2377940   8.042   2.261   4.337  0.1235  0.4849 -0.0688
  928HK4    H1077941   8.125   2.190   4.336 -0.5868 -0.4192  2.3352
  928HK4    C3977942   8.228   2.290   4.595  0.1883 -0.0977  0.3991
  928HK4    C4177943   8.305   2.233   4.491 -0.0367  0.1860  0.0765
  928HK4    H2177944   8.330   2.293   4.402  1.0678  1.4637  1.2139
  928HK4    C4277945   8.370   2.111   4.505 -0.2006  0.0698 -0.1919
  928HK4    H2277946   8.426   2.062   4.424 -2.0184 -4.0427  0.9025
  928HK4    C4377947   8.366   2.050   4.630  0.9178  0.4013  0.0089
  928HK4    H2377948   8.399   1.946   4.633  1.2269  0.4630 -1.0620
  928HK4    C4477949   8.297   2.105   4.737  0.2911  0.3641 -0.3768
  928HK4    H2477950   8.295   2.044   4.829 -0.4825  1.2699  0.2269
  928HK4    C4577951   8.222   2.221   4.718  0.2169  0.5050  0.7386
  928HK4    H2577952   8.168   2.265   4.803 -0.5875 -0.0903  0.5360
  929HK4    H2877953   5.488   9.031   8.230 -1.9353  0.2856  0.0987
  929HK4    C4877954   5.530   9.004   8.327 -0.0602  0.7713 -0.5538
  929HK4    C4777955   5.455   9.000   8.444  0.4059  0.8861 -0.2507
  929HK4    H2777956   5.348   9.023   8.440  0.1531 -0.2620 -0.1994
  929HK4    C4677957   5.516   8.995   8.569  0.1141 -0.5904 -0.1478
  929HK4    H2677958   5.455   8.964   8.655 -1.9670  1.0716 -0.9765
  929HK4    C4077959   5.656   8.998   8.590  0.0570 -0.1315  0.1801
  929HK4    C5077960   5.730   9.007   8.471 -0.0999 -0.2191  0.0772
  929HK4    H3077961   5.839   9.019   8.482 -0.0155 -1.8197  1.1186
  929HK4    C4977962   5.667   9.011   8.347 -0.0627 -0.6784  0.0407
  929HK4    H2977963   5.734   9.048   8.267  0.6826  1.0181  1.4148
  929HK4     N277964   5.714   9.037   8.711  0.2930  0.2896 -0.0642
  929HK4    C3077965   5.647   9.096   8.820  0.3266 -0.1563  0.2027
  929HK4    C2977966   5.546   9.192   8.819  0.6084  0.1407 -0.0471
  929HK4    H1577967   5.488   9.195   8.727  1.5314 -1.7019 -0.7026
  929HK4    C2877968   5.504   9.258   8.934 -0.1899 -0.1836 -0.1502
  929HK4    C2777969   5.564   9.224   9.057 -0.2049  0.3675  0.0119
  929HK4    H1477970   5.520   9.262   9.150 -0.5998 -1.6598  0.6647
  929HK4    C3277971   5.656   9.120   9.068  0.1876  0.7162  0.0495
  929HK4    H1677972   5.675   9.071   9.164 -2.1257  1.3316  0.8648
  929HK4    C3177973   5.700   9.061   8.950  0.3892  0.3379  0.3096
  929HK4    C3477974   5.819   8.985   8.915 -0.0462 -0.1549 -0.1003
  929HK4    C3377975   5.828   8.978   8.771  0.1055 -0.1070 -0.0940
  929HK4    C3577976   5.948   8.931   8.721  0.2807  0.7798 -0.5276
  929HK4    H1777977   5.957   8.911   8.614 -2.1207  3.4174 -1.2815
  929HK4    C3677978   6.048   8.884   8.806 -0.6329  0.4358  0.3667
  929HK4    H1877979   6.139   8.830   8.776 -0.4108 -0.0028  1.7878
  929HK4    C3777980   6.032   8.887   8.944  0.3974  0.3364  0.4955
  929HK4    H1977981   6.113   8.853   9.007  0.6448  0.4077  0.2126
  929HK4    C3877982   5.919   8.943   9.002  0.0141  0.1193 -0.0380
  929HK4    H2077983   5.907   8.974   9.106 -0.1403 -1.0877  0.3146
  929HK4    C1477984   5.423   9.382   8.935  0.3107  0.1395  0.3592
  929HK4     C977985   5.433   9.487   9.027 -0.2882  0.1540  0.4063
  929HK4     C877986   5.319   9.560   9.068 -0.5249  0.1969 -0.3160
  929HK4    C1177987   5.203   9.552   8.992 -0.5886 -0.2301 -0.1768
  929HK4     H477988   5.120   9.623   8.998  0.9897  1.7288 -0.9441
  929HK4    C1277989   5.199   9.462   8.886 -0.3444 -0.8470  0.3341
  929HK4     H577990   5.104   9.448   8.831 -0.1259  1.0322 -0.5676
  929HK4    C1377991   5.306   9.379   8.857  0.4307  0.2017  0.1753
  929HK4     H677992   5.308   9.315   8.768 -0.8585 -1.2339  1.1473
  929HK4     C777993   5.317   9.631   9.198 -0.1612 -0.3806  0.0131
  929HK4     O277994   5.214   9.689   9.233  0.5594  0.5846  0.5326
  929HK4     C477995   5.440   9.641   9.279 -0.1442 -0.3916 -0.0169
  929HK4     C377996   5.426   9.704   9.401 -0.0407 -0.1815 -0.1124
  929HK4     H377997   5.330   9.752   9.424 -0.5506 -0.6665 -1.2529
  929HK4     C277998   5.539   9.715   9.482  0.1380  0.4822 -0.4507
  929HK4     H277999   5.530   9.753   9.585 -1.3408  0.1362 -0.4369
  929HK4     C178000   5.654   9.651   9.439  0.4402  0.4188  0.4380
  929HK4     H178001   5.749   9.663   9.493  1.1269  1.1897 -0.9198
  929HK4     C678002   5.668   9.572   9.323 -0.0369  0.6568  0.2166
  929HK4     C578003   5.559   9.579   9.235 -0.0344 -0.2936  0.1401
  929HK4    C1078004   5.559   9.518   9.099 -0.0174  0.1828 -0.0775
  929HK4     O178005   5.650   9.550   9.023 -0.6265  0.3919 -0.7222
  929HK4    C1678006   5.766   9.463   9.329 -0.2979  0.4221  0.2656
  929HK4    C1578007   5.781   9.385   9.446 -0.0973 -0.6668 -0.4820
  929HK4     H778008   5.725   9.408   9.537  1.0257 -2.4042  0.6795
  929HK4    C2078009   5.872   9.280   9.456  0.0373 -0.5090 -0.0601
  929HK4     H978010   5.881   9.212   9.541 -0.1419 -1.7701 -1.0445
  929HK4    C1978011   5.940   9.246   9.340 -0.1902  0.1239 -0.3795
  929HK4    C1878012   5.929   9.321   9.216 -0.5505 -0.3102 -0.6146
  929HK4    C1778013   5.841   9.429   9.217 -0.3566 -0.1592  0.4047
  929HK4     H878014   5.857   9.503   9.140  1.0098  0.1066  0.9170
  929HK4     N178015   6.035   9.290   9.130  0.0948 -0.2647  0.1608
  929HK4    C2178016   6.112   9.190   9.193  0.1104 -0.1066  0.3963
  929HK4    C2278017   6.051   9.155   9.320 -0.0452  0.1314  0.3855
  929HK4    C2678018   6.103   9.053   9.399  0.0923 -0.1889 -0.1205
  929HK4    H1378019   6.067   9.027   9.498  0.3743  0.8261  0.2561
  929HK4    C2578020   6.218   8.987   9.356  1.0455  0.8470  0.8290
  929HK4    H1278021   6.261   8.901   9.407  0.6230  0.4746  0.5567
  929HK4    C2478022   6.273   9.019   9.233  0.7851 -0.1404  0.4526
  929HK4    H1178023   6.351   8.963   9.180  0.7576  0.4166 -0.1947
  929HK4    C2378024   6.225   9.121   9.151  0.4624  0.1224  0.9657
  929HK4    H1078025   6.289   9.148   9.067 -3.1166  1.3748 -1.5103
  929HK4    C3978026   6.024   9.313   8.992  0.1094 -0.1674  0.1759
  929HK4    C4178027   6.142   9.315   8.915  0.0385  0.2432  0.0790
  929HK4    H2178028   6.243   9.285   8.948  0.2669  0.7257 -0.1660
  929HK4    C4278029   6.140   9.376   8.790  0.5075  1.0342  0.4526
  929HK4    H2278030   6.231   9.381   8.728 -0.7374 -0.9417 -1.6121
  929HK4    C4378031   6.018   9.407   8.731  0.4141  0.4373  0.3267
  929HK4    H2378032   6.016   9.462   8.637 -0.8074 -0.3256 -0.0970
  929HK4    C4478033   5.898   9.382   8.796  0.3661  0.5951  0.2985
  929HK4    H2478034   5.804   9.398   8.740  0.6248 -0.0040 -0.3142
  929HK4    C4578035   5.902   9.346   8.930  0.2658  0.7111  0.3338
  929HK4    H2578036   5.804   9.333   8.978 -0.1535  1.3887 -0.3269
  930HK4    H2878037   1.545   8.202   7.756 -0.1948  0.6861 -1.8690
  930HK4    C4878038   1.611   8.138   7.697 -0.2838 -0.8992 -0.3020
  930HK4    C4778039   1.702   8.044   7.744  0.2401 -0.3072 -0.1286
  930HK4    H2778040   1.715   8.019   7.851  1.0694 -0.5560 -0.2826
  930HK4    C4678041   1.786   7.986   7.650  0.0779 -0.8203  0.0450
  930HK4    H2678042   1.877   7.943   7.693 -0.6173 -2.7240 -0.3401
  930HK4    C4078043   1.774   8.006   7.510 -0.2533  0.0297  0.1912
  930HK4    C5078044   1.679   8.102   7.470 -0.1568 -0.0560 -0.2446
  930HK4    H3078045   1.673   8.132   7.365 -1.2619 -0.8690 -0.4194
  930HK4    C4978046   1.596   8.166   7.562 -0.1295 -0.1365 -0.1649
  930HK4    H2978047   1.520   8.226   7.511  0.6725 -0.6826 -2.0561
  930HK4     N278048   1.778   7.891   7.430 -0.4821  0.2178 -0.0899
  930HK4    C3078049   1.763   7.757   7.469  0.2526  0.1655  0.0143
  930HK4    C2978050   1.721   7.693   7.585 -0.1580 -0.2000 -0.3349
  930HK4    H1578051   1.694   7.757   7.669 -1.6213 -1.4583  0.1908
  930HK4    C2878052   1.723   7.556   7.608 -0.6432 -0.2076 -0.3416
  930HK4    C2778053   1.742   7.471   7.497  0.1363 -0.4010 -0.0668
  930HK4    H1478054   1.719   7.365   7.512 -4.2819  0.8523  3.1738
  930HK4    C3278055   1.779   7.532   7.377  0.9162  0.0002  0.3755
  930HK4    H1678056   1.803   7.466   7.294 -0.3424 -0.6913  0.5439
  930HK4    C3178057   1.790   7.669   7.357  0.5976  0.0051  0.2230
  930HK4    C3478058   1.838   7.751   7.247  0.2358  0.1477  0.1709
  930HK4    C3378059   1.828   7.887   7.298 -0.0818  0.1633  0.0614
  930HK4    C3578060   1.887   7.984   7.219 -0.3966  0.1993 -0.1303
  930HK4    H1778061   1.866   8.091   7.229 -1.5386 -0.1015  0.8312
  930HK4    C3678062   1.954   7.951   7.102 -0.2605 -0.0366  0.0149
  930HK4    H1878063   1.993   8.033   7.040  0.1946  0.1963  0.6072
  930HK4    C3778064   1.964   7.820   7.057 -0.6627  0.2710 -1.0016
  930HK4    H1978065   2.000   7.797   6.957  2.0012 -2.6142  0.5108
  930HK4    C3878066   1.904   7.717   7.130  0.1665  0.5024  0.0283
  930HK4    H2078067   1.911   7.611   7.106  0.1358  0.1536  1.5526
  930HK4    C1478068   1.745   7.499   7.742  0.2015  0.3574 -0.2394
  930HK4     C978069   1.832   7.394   7.771  0.0719  0.4090  0.3587
  930HK4     C878070   1.794   7.299   7.867 -0.2213 -0.3298 -0.4799
  930HK4    C1178071   1.680   7.325   7.943 -0.0229 -0.4606 -0.1365
  930HK4     H478072   1.667   7.262   8.032 -0.0764 -0.9992 -0.5193
  930HK4    C1278073   1.600   7.438   7.933  0.2581 -0.2815 -0.3694
  930HK4     H578074   1.525   7.461   8.009  0.4765  0.2910 -0.3245
  930HK4    C1378075   1.638   7.525   7.831 -0.2739 -0.3289 -0.6092
  930HK4     H678076   1.581   7.619   7.833  0.5229  0.1617 -0.7560
  930HK4     C778077   1.870   7.172   7.871  0.2391 -0.0365  0.2917
  930HK4     O278078   1.839   7.082   7.948 -0.5257  0.4868  0.5907
  930HK4     C478079   1.991   7.157   7.786  0.2937  0.0367  0.3569
  930HK4     C378080   2.052   7.032   7.781 -0.0980 -0.1274 -0.3882
  930HK4     H378081   1.999   6.943   7.819  0.3790 -0.9092 -1.5353
  930HK4     C278082   2.188   7.025   7.754 -0.0376 -0.0795 -0.1042
  930HK4     H278083   2.238   6.928   7.740 -0.6320 -0.0857 -2.5085
  930HK4     C178084   2.260   7.143   7.742 -0.0869 -0.0105  0.2764
  930HK4     H178085   2.369   7.138   7.732 -0.0635  0.0460  0.5002
  930HK4     C678086   2.201   7.271   7.737  0.0095  0.0197 -0.0562
  930HK4     C578087   2.062   7.275   7.754  0.0100  0.0903 -0.0693
  930HK4    C1078088   1.973   7.389   7.721 -0.1030 -0.0057 -0.1008
  930HK4     O178089   2.011   7.491   7.664  0.4778 -0.2041 -0.0680
  930HK4    C1678090   2.288   7.390   7.734  0.1937 -0.1172 -0.1575
  930HK4    C1578091   2.397   7.407   7.822 -0.1604 -0.1707  0.2905
  930HK4     H778092   2.393   7.359   7.921 -0.1372 -1.6438 -0.4128
  930HK4    C2078093   2.512   7.478   7.791 -0.0658 -0.2621  0.4293
  930HK4     H978094   2.579   7.506   7.872 -0.9273  1.7821  0.4501
  930HK4    C1978095   2.520   7.547   7.671  0.1649  0.0685  0.6343
  930HK4    C1878096   2.410   7.533   7.577  0.6276 -0.3315  0.1516
  930HK4    C1778097   2.299   7.458   7.613  0.2994  0.0573 -0.0494
  930HK4     H878098   2.216   7.456   7.542  1.1318  0.5626 -1.0449
  930HK4     N178099   2.434   7.605   7.458 -0.1319 -0.0161  0.1858
  930HK4    C2178100   2.552   7.677   7.483  0.1746 -0.3986 -0.1420
  930HK4    C2278101   2.614   7.639   7.609  0.0214 -0.2109 -0.0125
  930HK4    C2678102   2.737   7.684   7.656 -0.0627 -0.2113  0.2130
  930HK4    H1378103   2.767   7.673   7.760  0.6302 -0.9919 -0.0703
  930HK4    C2578104   2.805   7.768   7.569 -0.2052 -0.0240  0.2803
  930HK4    H1278105   2.899   7.804   7.611 -0.1395 -2.5117  2.4097
  930HK4    C2478106   2.751   7.810   7.448 -0.2691  0.1655  0.3757
  930HK4    H1178107   2.807   7.874   7.378 -1.3968  0.6860 -0.0666
  930HK4    C2378108   2.625   7.769   7.408 -0.1259  0.0150  0.0735
  930HK4    H1078109   2.590   7.796   7.309  1.8306  1.7694 -0.1743
  930HK4    C3978110   2.395   7.575   7.327 -0.7245  0.0640  0.3445
  930HK4    C4178111   2.351   7.445   7.295  0.3469 -0.1769 -0.1448
  930HK4    H2178112   2.383   7.359   7.356 -1.3549  0.6738  1.9815
  930HK4    C4278113   2.265   7.429   7.187 -0.1250 -0.1673  0.2283
  930HK4    H2278114   2.244   7.328   7.148 -0.9688  0.5497 -1.2351
  930HK4    C4378115   2.213   7.534   7.113 -0.2316 -0.1844  0.2808
  930HK4    H2378116   2.130   7.527   7.043  0.9385  2.0036 -1.4042
  930HK4    C4478117   2.257   7.661   7.149 -0.3286 -0.2489  0.6286
  930HK4    H2478118   2.212   7.750   7.103  0.7911  0.2941  0.5727
  930HK4    C4578119   2.352   7.684   7.248  0.5038  0.1295 -0.2453
  930HK4    H2578120   2.392   7.785   7.261  1.6181 -0.4157  0.6208
  931HK4    H2878121   7.815   5.813   9.557 -1.6861  1.3470  0.8597
  931HK4    C4878122   7.914   5.858   9.561 -0.6532 -0.7506 -0.3113
  931HK4    C4778123   8.009   5.843   9.460 -0.3035  0.8248 -0.2247
  931HK4    H2778124   7.988   5.777   9.375 -1.7322  0.5577  0.3116
  931HK4    C4678125   8.133   5.903   9.476 -0.1924  0.3987  0.5223
  931HK4    H2678126   8.212   5.886   9.401 -1.0444  0.9622 -0.5076
  931HK4    C4078127   8.168   5.985   9.585  0.6294 -0.0289  0.5819
  931HK4    C5078128   8.067   5.998   9.683 -0.2237  0.5413 -0.3682
  931HK4    H3078129   8.078   6.068   9.767 -0.3051  0.8430 -0.6088
  931HK4    C4978130   7.944   5.935   9.673  0.2171 -0.2498 -0.8752
  931HK4    H2978131   7.867   5.951   9.750  1.9277  2.2315  0.3758
  931HK4     N278132   8.268   6.083   9.573  0.0025  0.5271 -0.0954
  931HK4    C3078133   8.340   6.130   9.684 -0.8800  0.5996  0.4453
  931HK4    C2978134   8.356   6.088   9.816 -0.3731 -0.0533  0.1705
  931HK4    H1578135   8.287   6.010   9.851 -1.5525  0.6659 -0.5176
  931HK4    C2878136   8.439   6.148   9.909 -0.9628  0.4787  0.3610
  931HK4    C2778137   8.507   6.260   9.857  0.8527 -0.7466  0.0627
  931HK4    H1478138   8.590   6.303   9.915  0.7899  1.2100 -1.2431
  931HK4    C3278139   8.494   6.310   9.728 -0.5466 -0.2156  0.3996
  931HK4    H1678140   8.551   6.402   9.714  0.7678 -1.0485  0.1890
  931HK4    C3178141   8.410   6.248   9.637 -0.5682  0.2689  0.0864
  931HK4    C3478142   8.377   6.273   9.498 -0.0479 -0.0141 -0.0870
  931HK4    C3378143   8.278   6.172   9.464 -0.4366  0.4125 -0.2312
  931HK4    C3578144   8.228   6.168   9.335 -0.1598 -0.3084 -0.3151
  931HK4    H1778145   8.133   6.116   9.320  0.3522 -1.6548  0.9482
  931HK4    C3678146   8.285   6.252   9.240 -0.3080  0.0355 -0.0989
  931HK4    H1878147   8.248   6.237   9.137  2.0310 -0.8589 -0.8595
  931HK4    C3778148   8.375   6.353   9.272  0.2670 -0.4739 -0.0901
  931HK4    H1978149   8.413   6.423   9.197  0.1659  1.1372  1.3470
  931HK4    C3878150   8.420   6.364   9.403 -0.1636  0.1398  0.0052
  931HK4    H2078151   8.476   6.448   9.444 -1.4956 -0.2503  2.7246
  931HK4    C1478152   8.443   6.107  10.050 -0.8960  0.4559  0.3504
  931HK4     C978153   8.493   6.189  10.152  0.1329  0.1207  0.1193
  931HK4     C878154   8.547   6.140  10.273  0.3849 -0.2036 -0.1267
  931HK4    C1178155   8.528   6.003  10.293  0.5526 -0.3199 -0.7378
  931HK4     H478156   8.550   5.957  10.389 -1.6731 -1.4107 -0.7118
  931HK4    C1278157   8.475   5.918  10.196 -0.2762 -0.3452 -0.2698
  931HK4     H578158   8.478   5.809  10.209 -0.5340 -0.4711 -1.2740
  931HK4    C1378159   8.434   5.969  10.074  0.2373  0.2836 -0.1848
  931HK4     H678160   8.382   5.902  10.003  1.3619 -1.4813  0.6120
  931HK4     C778161   8.628   6.229  10.359 -0.2935  0.1042  0.2005
  931HK4     O278162   8.693   6.184  10.454 -0.2054 -0.5501 -0.1643
  931HK4     C478163   8.643   6.370  10.316 -0.1354 -0.1371 -0.5572
  931HK4     C378164   8.733   6.450  10.385 -0.0298 -0.4384 -0.3462
  931HK4     H378165   8.820   6.400  10.431 -0.0113  0.1624  0.2878
  931HK4     C278166   8.730   6.589  10.380  0.7435 -0.4173 -0.3078
  931HK4     H278167   8.784   6.648  10.456  0.0373  0.4825 -0.4958
  931HK4     C178168   8.643   6.642  10.286  0.3046 -0.1751  0.2364
  931HK4     H178169   8.652   6.749  10.263  1.4393 -0.1528  0.7438
  931HK4     C678170   8.555   6.566  10.207  0.5589  0.5284 -0.7337
  931HK4     C578171   8.550   6.427  10.228 -0.0569  0.6442 -0.1350
  931HK4    C1078172   8.460   6.334  10.155  0.2995  0.1597  0.0415
  931HK4     O178173   8.340   6.358  10.142  0.2590  0.2082  0.5086
  931HK4    C1678174   8.452   6.651  10.145 -0.0971  0.5675  0.3927
  931HK4    C1578175   8.405   6.773  10.198 -0.4803  0.3549  0.5385
  931HK4     H778176   8.433   6.805  10.299  0.8391  1.4925 -0.1652
  931HK4    C2078177   8.357   6.872  10.113 -0.3815  0.0764  0.1551
  931HK4     H978178   8.342   6.972  10.154  0.7157  0.5777 -0.6377
  931HK4    C1978179   8.334   6.847   9.979 -0.0217  0.0645  0.0924
  931HK4    C1878180   8.356   6.714   9.925 -0.5486 -0.0001  0.0299
  931HK4    C1778181   8.422   6.627  10.011 -0.5016  0.4917  0.4980
  931HK4     H878182   8.455   6.532   9.969 -0.0561  1.4321 -1.3464
  931HK4     N178183   8.301   6.692   9.797  0.3841 -0.4454 -0.3001
  931HK4    C2178184   8.263   6.821   9.754 -0.0859 -0.2984  0.5474
  931HK4    C2278185   8.265   6.911   9.868  0.5620  0.4474 -0.0483
  931HK4    C2678186   8.195   7.029   9.848 -0.3114 -0.1796 -0.7551
  931HK4    H1378187   8.208   7.101   9.929  3.0342 -0.7677 -0.7264
  931HK4    C2578188   8.121   7.069   9.737 -0.2627  0.5532 -0.5306
  931HK4    H1278189   8.083   7.169   9.720 -0.7545  0.7366  1.4968
  931HK4    C2478190   8.119   6.978   9.632 -0.5867 -0.3573  0.2539
  931HK4    H1178191   8.054   7.001   9.547  1.7155 -0.3721 -1.5670
  931HK4    C2378192   8.193   6.861   9.640  0.8160  0.5210  0.2785
  931HK4    H1078193   8.182   6.791   9.557  1.2977 -0.0519  0.6934
  931HK4    C3978194   8.246   6.572   9.753 -0.1059 -0.4101  0.2079
  931HK4    C4178195   8.222   6.549   9.616  0.6706 -0.7821  0.1286
  931HK4    H2178196   8.291   6.588   9.539  0.2524  0.8694  0.5771
  931HK4    C4278197   8.138   6.445   9.579 -0.2084  0.0466 -0.2208
  931HK4    H2278198   8.113   6.440   9.472  0.8342 -1.4112 -0.4262
  931HK4    C4378199   8.075   6.361   9.669  0.0223  0.0080 -0.0988
  931HK4    H2378200   7.996   6.292   9.639 -2.1583  1.4420  2.1022
  931HK4    C4478201   8.100   6.382   9.805  0.4462 -0.4294 -0.1046
  931HK4    H2478202   8.092   6.298   9.875  0.9702 -1.4746 -1.2718
  931HK4    C4578203   8.186   6.484   9.845  0.6838 -0.8073  0.3431
  931HK4    H2578204   8.209   6.484   9.953 -2.2658  3.9413  1.1062
  932HK4    H2878205   0.497   5.623   0.409  1.3267 -0.1121 -0.0326
  932HK4    C4878206   0.514   5.663   0.309  0.0880  0.0556 -0.1819
  932HK4    C4778207   0.470   5.787   0.264  0.1076  0.0970 -0.0878
  932HK4    H2778208   0.403   5.853   0.321  0.0306 -0.4650  0.4773
  932HK4    C4678209   0.513   5.834   0.140  0.1577  0.0861 -0.0747
  932HK4    H2678210   0.505   5.941   0.116 -2.1978  0.1749  1.0068
  932HK4    C4078211   0.576   5.750   0.046  0.2913  0.0833  0.0165
  932HK4    C5078212   0.614   5.623   0.093  0.3258  0.0407 -0.1250
  932HK4    H3078213   0.661   5.553   0.021 -1.2298  1.0266 -2.1533
  932HK4    C4978214   0.592   5.585   0.225 -0.3533 -0.2434 -0.3150
  932HK4    H2978215   0.650   5.500   0.263 -1.4943 -0.2467  1.4754
  932HK4     N278216   0.600   5.786  11.161  0.1591  0.4759  0.1003
  932HK4    C3078217   0.516   5.861  11.075 -0.0221 -0.1462 -0.2714
  932HK4    C2978218   0.378   5.873  11.076  0.0039  0.1248  0.0910
  932HK4    H1578219   0.329   5.860  11.173 -3.2384 -1.3224 -1.6578
  932HK4    C2878220   0.304   5.920  10.968 -0.2564 -0.7518 -0.1114
  932HK4    C2778221   0.377   5.975  10.861 -0.3002  0.1815  0.3361
  932HK4    H1478222   0.331   6.043  10.788  3.5803  2.7368  0.1538
  932HK4    C3278223   0.515   5.964  10.853 -0.3014 -0.0697  0.6372
  932HK4    H1678224   0.576   6.006  10.773 -1.6402 -1.8792 -1.3972
  932HK4    C3178225   0.586   5.901  10.954  0.5482  0.0407  0.1183
  932HK4    C3478226   0.715   5.836  10.961  0.5881  0.1044 -0.0324
  932HK4    C3378227   0.722   5.772  11.091 -0.0988 -0.3126 -0.1945
  932HK4    C3578228   0.836   5.700  11.125  0.0042  0.0254  0.1759
  932HK4    H1778229   0.860   5.672  11.227 -1.4859  0.4331  0.6588
  932HK4    C3678230   0.945   5.695  11.040 -0.1340 -0.2223  0.0089
  932HK4    H1878231   1.041   5.659  11.080  1.0331  0.5285 -2.0288
  932HK4    C3778232   0.935   5.751  10.913 -0.1030 -0.8349 -0.2610
  932HK4    H1978233   1.011   5.746  10.835  0.1742  1.8942 -0.2160
  932HK4    C3878234   0.820   5.817  10.872  0.4469  0.1648 -0.2096
  932HK4    H2078235   0.812   5.844  10.766  1.0530  1.2408  0.0050
  932HK4    C1478236   0.160   5.894  10.953 -0.4744  0.2879  0.1844
  932HK4     C978237   0.100   5.869  10.830  0.3036  0.7130 -0.2860
  932HK4     C878238  11.211   5.890  10.803  0.2645 -0.0868 -0.7398
  932HK4    C1178239  11.132   5.931  10.910  0.7709  0.3936 -0.5471
  932HK4     H478240  11.029   5.962  10.884  0.8055  2.0702  1.1879
  932HK4    C1278241  11.185   5.943  11.038 -0.5162 -0.1499  0.0500
  932HK4     H578242  11.118   5.938  11.124  0.9932 -0.3382  1.2385
  932HK4    C1378243   0.073   5.923  11.061 -0.4381  0.4996  0.1578
  932HK4     H678244   0.107   5.931  11.165  2.0788  0.6435 -0.6336
  932HK4     C778245  11.149   5.876  10.669 -0.3311 -0.5227 -0.4236
  932HK4     O278246  11.027   5.883  10.658 -0.2400  0.7320 -0.7258
  932HK4     C478247  11.232   5.830  10.556  0.0457 -0.2537 -0.2636
  932HK4     C378248  11.174   5.825  10.429 -0.1554  0.2540 -0.1942
  932HK4     H378249  11.069   5.856  10.416  0.2211  1.9311  0.6616
  932HK4     C278250   0.003   5.793  10.319  0.2182  0.3852  0.0313
  932HK4     H278251  11.219   5.771  10.216 -2.1783  0.8908  0.6374
  932HK4     C178252   0.139   5.772  10.342  0.0879 -0.3350  0.1671
  932HK4     H178253   0.195   5.740  10.253  3.6364  0.8283  1.9206
  932HK4     C678254   0.202   5.785  10.467  0.2755 -0.4874  0.0905
  932HK4     C578255   0.121   5.809  10.579 -0.0246 -0.5391 -0.1158
  932HK4    C1078256   0.178   5.811  10.717  0.0088  0.0155 -0.1357
  932HK4     O178257   0.245   5.714  10.751  0.1196  0.1368 -0.0154
  932HK4    C1678258   0.343   5.827  10.464  0.1659 -0.1403 -0.3478
  932HK4    C1578259   0.398   5.937  10.396 -0.1838  0.1567 -0.1531
  932HK4     H778260   0.330   6.012  10.353  0.5976  1.3788  0.7045
  932HK4    C2078261   0.533   5.947  10.363 -0.0543  0.6606  0.5236
  932HK4     H978262   0.561   6.016  10.284 -0.6125  0.5133  0.1962
  932HK4    C1978263   0.619   5.847  10.409 -0.1657 -0.0028 -0.6934
  932HK4    C1878264   0.572   5.746  10.501  0.2776  0.6669  0.2753
  932HK4    C1778265   0.434   5.732  10.511  0.3027  0.0757 -0.1731
  932HK4     H878266   0.389   5.647  10.561  0.6084 -0.6554 -1.1238
  932HK4     N178267   0.671   5.653  10.539  0.1119  0.4729  0.2349
  932HK4    C2178268   0.785   5.697  10.468 -0.1933  0.0602 -0.5116
  932HK4    C2278269   0.759   5.816  10.390  0.0835  0.5721  0.1814
  932HK4    C2678270   0.865   5.876  10.323  0.1592  0.0642 -0.1569
  932HK4    H1378271   0.839   5.970  10.274 -0.5903  0.2512  0.6033
  932HK4    C2578272   0.994   5.823  10.323  0.0767 -0.1382 -0.3169
  932HK4    H1278273   1.073   5.861  10.258 -0.9434 -2.1991 -2.8655
  932HK4    C2478274   1.018   5.710  10.400 -0.2770 -0.1760 -0.2594
  932HK4    H1178275   1.118   5.665  10.390 -0.0695  0.5128 -1.4919
  932HK4    C2378276   0.917   5.656  10.478 -0.1389  0.4440  0.3515
  932HK4    H1078277   0.939   5.568  10.539 -0.5699 -0.6819 -1.0757
  932HK4    C3978278   0.656   5.557  10.639  0.0330  0.1808 -0.0587
  932HK4    C4178279   0.743   5.445  10.645  0.2008  0.2998 -0.2555
  932HK4    H2178280   0.791   5.399  10.558  1.3077 -0.9363  1.0026
  932HK4    C4278281   0.750   5.375  10.765 -0.0821 -0.2046 -0.5329
  932HK4    H2278282   0.828   5.299  10.779  0.5198  0.6272  0.6258
  932HK4    C4378283   0.681   5.415  10.878  0.6858  0.1644 -0.1953
  932HK4    H2378284   0.700   5.366  10.973  0.8585 -0.4001 -0.5213
  932HK4    C4478285   0.592   5.522  10.872 -0.0570 -0.4150  0.4815
  932HK4    H2478286   0.519   5.539  10.953 -0.9275 -0.4002 -0.2946
  932HK4    C4578287   0.584   5.594  10.754 -0.6036 -1.2336  0.0125
  932HK4    H2578288   0.512   5.678  10.759 -2.0054 -2.3288 -1.3764
  933HK4    H2878289   7.076   0.006   9.092  0.9736  0.5217  1.3530
  933HK4    C4878290   6.994   0.065   9.134  0.1039  0.0507  0.3701
  933HK4    C4778291   6.865   0.079   9.085  0.1298  0.0971  0.3182
  933HK4    H2778292   6.834   0.034   8.989 -1.7619 -2.0309  1.8785
  933HK4    C4678293   6.768   0.146   9.158 -0.5742  0.0657 -0.5793
  933HK4    H2678294   6.693   0.202   9.100 -0.8655  0.3171  0.0388
  933HK4    C4078295   6.794   0.199   9.286 -0.3751 -0.5110 -0.3775
  933HK4    C5078296   6.925   0.181   9.336 -0.5060 -0.5579 -0.0495
  933HK4    H3078297   6.950   0.188   9.442  1.7868 -0.4382 -0.5780
  933HK4    C4978298   7.021   0.113   9.262  0.2289  0.0349  0.3524
  933HK4    H2978299   7.121   0.102   9.307  1.4152 -1.3570 -2.4834
  933HK4     N278300   6.689   0.235   9.372  0.3713 -0.0294  0.3410
  933HK4    C3078301   6.689   0.342   9.464  0.2289  0.3407 -0.0876
  933HK4    C2978302   6.779   0.447   9.474  0.5938  0.0254 -0.0636
  933HK4    H1578303   6.886   0.433   9.456  0.6198  0.6526 -0.4065
  933HK4    C2878304   6.750   0.559   9.550  0.4828 -0.2963  0.3725
  933HK4    C2778305   6.637   0.555   9.633 -0.1737  0.0667 -0.4987
  933HK4    H1478306   6.621   0.645   9.695  0.0657 -0.3467  0.1786
  933HK4    C3278307   6.543   0.452   9.628 -0.0653 -0.0692  0.1563
  933HK4    H1678308   6.449   0.457   9.682 -0.8161  1.2471 -1.2183
  933HK4    C3178309   6.565   0.347   9.540  0.5543 -0.2238  0.4911
  933HK4    C3478310   6.494   0.226   9.502  0.1360  0.1682  0.0180
  933HK4    C3378311   6.573   0.160   9.400  0.1014  0.2437 -0.0598
  933HK4    C3578312   6.520   0.049   9.337  0.3249  0.1380 -0.0600
  933HK4    H1778313   6.571  11.239   9.259  1.7070 -1.2495  1.8461
  933HK4    C3678314   6.391   0.009   9.371  0.4690  0.1580  0.4980
  933HK4    H1878315   6.342  11.172   9.322  0.9679  0.2735 -0.1978
  933HK4    C3778316   6.315   0.072   9.469  0.0348 -0.0906  0.3200
  933HK4    H1978317   6.224   0.037   9.519  0.6170 -0.6167  1.0239
  933HK4    C3878318   6.369   0.179   9.539  0.3106 -0.1505  0.1999
  933HK4    H2078319   6.305   0.242   9.601  0.1722  1.0607 -1.1437
  933HK4    C1478320   6.857   0.660   9.553  0.4864 -0.2922  0.0935
  933HK4     C978321   6.881   0.745   9.662  0.1092 -0.2715  0.1629
  933HK4     C878322   6.944   0.870   9.641 -0.1728 -0.1798 -0.1541
  933HK4    C1178323   7.012   0.896   9.522  0.3981 -0.0183  0.2100
  933HK4     H478324   7.089   0.974   9.512  0.4424 -0.3325 -1.9681
  933HK4    C1278325   6.989   0.813   9.414  0.2610 -0.0176  0.2370
  933HK4     H578326   7.013   0.842   9.311 -0.9105 -0.7470 -0.2575
  933HK4    C1378327   6.911   0.698   9.429  0.7981 -0.3881  0.1987
  933HK4     H678328   6.891   0.641   9.337 -0.9807 -1.4973  1.2543
  933HK4     C778329   6.959   0.969   9.749  0.2187 -0.2495 -0.1444
  933HK4     O278330   7.008   1.079   9.723 -0.3766 -0.0536 -0.4166
  933HK4     C478331   6.919   0.943   9.889  0.1375  0.3067 -0.0616
  933HK4     C378332   6.927   1.045   9.984  0.2629 -0.0133  0.2671
  933HK4     H378333   6.996   1.130   9.977  3.0015 -2.2206 -0.6457
  933HK4     C278334   6.857   1.028  10.103  0.1198  0.0048  0.1838
  933HK4     H278335   6.841   1.101  10.184  0.4853  1.5019 -1.0777
  933HK4     C178336   6.795   0.906  10.130  0.0849 -0.0614 -0.1888
  933HK4     H178337   6.719   0.898  10.209  0.5099 -1.2526  0.1064
  933HK4     C678338   6.797   0.797  10.041  1.1409 -0.5238  0.3929
  933HK4     C578339   6.861   0.818   9.918  0.4727  0.2042  0.1598
  933HK4    C1078340   6.855   0.720   9.806 -0.9781  0.3819  0.0843
  933HK4     O178341   6.871   0.602   9.833 -0.2072  0.5004  0.1462
  933HK4    C1678342   6.756   0.671  10.104  0.3370 -0.2812  0.3589
  933HK4    C1578343   6.776   0.659  10.243  0.1707 -0.3784  0.3771
  933HK4     H778344   6.880   0.662  10.280  0.6596  3.9356 -1.1406
  933HK4    C2078345   6.681   0.615  10.335  0.1301 -0.2215  0.4095
  933HK4     H978346   6.706   0.608  10.440  1.9970  0.1965  0.0098
  933HK4    C1978347   6.560   0.573  10.280  0.1015  0.6016 -0.1780
  933HK4    C1878348   6.543   0.556  10.137  0.6040 -0.8048 -0.0782
  933HK4    C1778349   6.641   0.610  10.055  0.4000 -0.1816  0.0870
  933HK4     H878350   6.631   0.597   9.947  1.6044 -0.9909  0.0616
  933HK4     N178351   6.414   0.509  10.103  0.4175 -0.3198 -0.0437
  933HK4    C2178352   6.348   0.497  10.227  0.3644  0.2676 -0.0114
  933HK4    C2278353   6.430   0.544  10.337  0.2727  0.2787  0.0491
  933HK4    C2678354   6.382   0.566  10.466 -0.1371  0.1020 -0.0694
  933HK4    H1378355   6.444   0.615  10.541  0.3243  1.9570 -1.6231
  933HK4    C2578356   6.249   0.531  10.486 -0.1471  0.1615 -0.0342
  933HK4    H1278357   6.193   0.552  10.577  0.3294  0.9829  0.0760
  933HK4    C2478358   6.171   0.471  10.388 -0.3359  0.6075 -0.1588
  933HK4    H1178359   6.076   0.427  10.421  0.8343 -0.8212  1.3907
  933HK4    C2378360   6.220   0.453  10.259  0.4182  0.2486  0.1764
  933HK4    H1078361   6.161   0.395  10.188  1.8791  0.3101 -1.1146
  933HK4    C3978362   6.380   0.434   9.991 -0.3846  0.3187 -0.2351
  933HK4    C4178363   6.246   0.434   9.947 -0.3320  0.5920 -0.3942
  933HK4    H2178364   6.187   0.525   9.966 -0.7629  0.5357 -1.4383
  933HK4    C4278365   6.198   0.323   9.880 -0.2963  0.1231  0.3534
  933HK4    H2278366   6.095   0.316   9.841 -0.9723 -3.1959  2.5011
  933HK4    C4378367   6.286   0.218   9.854  0.3011  0.8162 -0.4681
  933HK4    H2378368   6.256   0.118   9.822  2.5220 -0.0203 -0.0231
  933HK4    C4478369   6.422   0.216   9.884  0.1018 -0.1068  0.4134
  933HK4    H2478370   6.479   0.123   9.880 -1.9538 -1.4327  1.0070
  933HK4    C4578371   6.465   0.326   9.958 -0.4879 -0.0393  0.6582
  933HK4    H2578372   6.566   0.320  10.002  0.5364 -0.0765 -1.6356
  934HK4    H2878373   8.766  10.042   8.699 -1.0694  0.3922  1.0489
  934HK4    C4878374   8.780  10.141   8.655  0.9755 -0.7492 -0.9502
  934HK4    C4778375   8.872  10.231   8.707 -0.3032 -0.0529  0.1462
  934HK4    H2778376   8.941  10.199   8.787  0.7143  1.2875 -0.1735
  934HK4    C4678377   8.899  10.356   8.653 -0.4368 -0.1256 -0.0857
  934HK4    H2678378   9.001  10.397   8.653 -1.5960  2.8770 -0.3252
  934HK4    C4078379   8.815  10.406   8.551 -0.4888 -0.2677 -0.1159
  934HK4    C5078380   8.711  10.321   8.510 -0.4995 -0.3881  0.1554
  934HK4    H3078381   8.618  10.376   8.491  0.2503  1.4315  1.6364
  934HK4    C4978382   8.703  10.188   8.550 -0.4253 -0.3663  0.2394
  934HK4    H2978383   8.650  10.109   8.494  1.2708 -0.6603 -1.0247
  934HK4     N278384   8.806  10.542   8.520 -0.0027 -0.2227 -0.0704
  934HK4    C3078385   8.867  10.644   8.595 -0.1334  0.0797 -0.3719
  934HK4    C2978386   8.888  10.649   8.732 -0.1636  0.2965 -0.3717
  934HK4    H1578387   8.848  10.568   8.793  1.0959 -1.8920 -2.3843
  934HK4    C2878388   8.940  10.761   8.797  0.5103 -0.1557 -0.1304
  934HK4    C2778389   8.954  10.879   8.722  1.0586 -0.4843 -0.5458
  934HK4    H1478390   8.967  10.973   8.777 -1.1059 -0.5069  0.0327
  934HK4    C3278391   8.921  10.879   8.587 -0.8223  0.8013 -0.0964
  934HK4    H1678392   8.921  10.977   8.539  0.5330  1.3769  1.0541
  934HK4    C3178393   8.879  10.766   8.518 -0.0761  0.3862  0.1207
  934HK4    C3478394   8.821  10.734   8.389  0.2035 -0.4054  0.1880
  934HK4    C3378395   8.776  10.597   8.393 -0.3604 -0.2283  0.0074
  934HK4    C3578396   8.712  10.541   8.283 -0.0335 -0.2101 -0.1934
  934HK4    H1778397   8.693  10.434   8.283  0.7351 -0.3558  1.0773
  934HK4    C3678398   8.693  10.619   8.169  0.6806 -0.0427 -0.2014
  934HK4    H1878399   8.658  10.564   8.081 -0.6840 -0.5340  0.6338
  934HK4    C3778400   8.746  10.747   8.158  0.6656 -0.0031  0.1795
  934HK4    H1978401   8.740  10.800   8.062 -0.4588  1.9736  1.3104
  934HK4    C3878402   8.814  10.801   8.267  0.1388  0.0966  0.4627
  934HK4    H2078403   8.863  10.898   8.257  0.4786 -0.2313 -1.4119
  934HK4    C1478404   8.941  10.761   8.944  0.3940 -0.3076 -0.1301
  934HK4     C978405   8.920  10.874   9.024 -0.0101 -0.3602 -0.1553
  934HK4     C878406   9.001  10.897   9.137 -0.1674  0.3229 -0.1819
  934HK4    C1178407   9.094  10.802   9.176 -0.1818  0.2265 -0.3854
  934HK4     H478408   9.174  10.823   9.248  0.3261  2.7434 -1.6288
  934HK4    C1278409   9.090  10.674   9.122  0.4706 -0.1019  0.3323
  934HK4     H578410   9.132  10.592   9.183 -0.1286 -3.0091 -2.9801
  934HK4    C1378411   9.010  10.656   9.009  0.5357  0.0320  0.2678
  934HK4     H678412   8.988  10.552   8.981 -1.0274  1.0059 -2.3175
  934HK4     C778413   8.973  11.004   9.235  0.0981  0.4529 -0.2465
  934HK4     O278414   9.040  11.028   9.335 -0.5689 -0.2796  0.3898
  934HK4     C478415   8.843  11.073   9.224  0.1231  0.4452 -0.6030
  934HK4     C378416   8.814  11.176   9.312  0.1803 -0.2029  0.1722
  934HK4     H378417   8.870  11.175   9.407  2.2934  1.0786 -1.0406
  934HK4     C278418   8.686  11.231   9.307  0.1177 -0.3420  0.1973
  934HK4     H278419   8.661   0.069   9.371 -0.2158 -0.0479 -0.3244
  934HK4     C178420   8.580  11.167   9.245  0.4346 -0.5305 -0.1530
  934HK4     H178421   8.479  11.211   9.250  0.8937  0.3234  1.6093
  934HK4     C678422   8.604  11.047   9.174  0.1809 -0.6178 -0.0951
  934HK4     C578423   8.738  11.019   9.146  0.2319 -0.1445 -0.3429
  934HK4    C1078424   8.788  10.944   9.027  0.0335 -0.2697 -0.3458
  934HK4     O178425   8.735  10.976   8.921  0.1764 -0.6728 -0.5356
  934HK4    C1678426   8.491  10.954   9.171  0.1232 -0.5479 -0.1083
  934HK4    C1578427   8.371  10.977   9.240  0.1674  0.6775 -0.4286
  934HK4     H778428   8.369  11.040   9.331 -1.0881  0.9340 -0.6280
  934HK4    C2078429   8.246  10.922   9.215  0.2363  0.4716 -0.3177
  934HK4     H978430   8.156  10.948   9.271 -1.1711 -1.0856 -1.8069
  934HK4    C1978431   8.236  10.825   9.116  0.0845 -0.0351  0.1801
  934HK4    C1878432   8.357  10.800   9.039  0.0954  0.8678 -0.1053
  934HK4    C1778433   8.480  10.853   9.075  0.7018 -0.3263 -0.4058
  934HK4     H878434   8.568  10.812   9.025  3.2026  1.8477  2.0514
  934HK4     N178435   8.325  10.721   8.927  0.1008  0.0845  0.4405
  934HK4    C2178436   8.185  10.705   8.925  0.0904  0.1903  0.2393
  934HK4    C2278437   8.127  10.760   9.046 -0.1683  0.7269 -0.1354
  934HK4    C2678438   8.000  10.717   9.085  0.0625 -0.3574 -0.5682
  934HK4    H1378439   7.943  10.776   9.157 -2.9465 -1.6231 -1.8344
  934HK4    C2578440   7.930  10.622   9.012 -0.4168 -0.3321 -0.1430
  934HK4    H1278441   7.831  10.590   9.044 -2.1612  2.5266 -2.3511
  934HK4    C2478442   7.985  10.574   8.894  0.1453 -0.3578  0.1268
  934HK4    H1178443   7.923  10.504   8.835 -0.5786  1.2013 -1.0074
  934HK4    C2378444   8.108  10.619   8.848  0.2203 -0.1721  0.5063
  934HK4    H1078445   8.138  10.578   8.751  0.3122 -0.4491  0.6524
  934HK4    C3978446   8.413  10.717   8.819 -0.3493  0.2740  0.0648
  934HK4    C4178447   8.408  10.613   8.724  0.6051 -0.0810  0.3961
  934HK4    H2178448   8.346  10.528   8.755  1.4979 -1.0837 -0.5194
  934HK4    C4278449   8.453  10.626   8.593 -0.4881 -0.0210  0.0221
  934HK4    H2278450   8.414  10.554   8.519 -0.7478  0.4451 -0.3042
  934HK4    C4378451   8.503  10.747   8.546  0.0041 -0.3478 -0.2966
  934HK4    H2378452   8.563  10.760   8.456  2.3387 -0.5881  1.1659
  934HK4    C4478453   8.517  10.851   8.638  0.2427 -0.2488 -0.4413
  934HK4    H2478454   8.551  10.950   8.605 -0.3778  0.0962 -0.0555
  934HK4    C4578455   8.472  10.835   8.769 -0.1820 -0.0766 -0.5610
  934HK4    H2578456   8.507  10.917   8.833  0.7016 -1.3332  0.6081
  935HK4    H2878457   9.984   5.327  11.109  1.2344  1.7398  1.6065
  935HK4    C4878458   9.952   5.430  11.099 -0.5214  1.0564  0.0300
  935HK4    C4778459   9.848   5.483  11.174 -0.8766 -0.3170  0.5095
  935HK4    H2778460   9.789   5.423  11.246 -1.8015 -0.6050 -0.4740
  935HK4    C4678461   9.802   5.612  11.152 -0.4366 -0.2849 -0.2004
  935HK4    H2678462   9.727   5.648  11.224  0.3456  1.6531 -0.3213
  935HK4    C4078463   9.860   5.698  11.056  0.4713 -0.4680  0.1862
  935HK4    C5078464   9.975   5.647  10.991  0.1748  0.0104 -0.7230
  935HK4    H3078465  10.051   5.714  10.948  0.3300  1.3209  1.4756
  935HK4    C4978466  10.010   5.513  11.004  0.3907  0.1110 -0.2443
  935HK4    H2978467  10.076   5.457  10.936 -2.4580 -1.6402 -1.6274
  935HK4     N278468   9.788   5.801  10.995 -0.1030 -0.2885  1.1622
  935HK4    C3078469   9.650   5.829  11.002 -0.0273  0.2910  0.4324
  935HK4    C2978470   9.541   5.747  11.027  0.0335  0.1265  0.1582
  935HK4    H1578471   9.565   5.640  11.023 -1.0492 -0.1022 -0.4267
  935HK4    C2878472   9.405   5.773  11.012  0.0410  0.2636  0.3331
  935HK4    C2778473   9.381   5.910  10.990 -0.2706  0.0625 -0.5763
  935HK4    H1478474   9.277   5.947  10.999  0.0342  0.2144  2.8228
  935HK4    C3278475   9.481   6.005  10.972 -0.0053  0.0417  0.7668
  935HK4    H1678476   9.441   6.106  10.967  0.3593  0.1726  0.5823
  935HK4    C3178477   9.614   5.966  10.974  0.0972  0.3933  0.7717
  935HK4    C3478478   9.743   6.023  10.938  0.1733  0.2983  0.9022
  935HK4    C3378479   9.844   5.920  10.945 -0.5311 -0.4490  0.2733
  935HK4    C3578480   9.972   5.957  10.905 -0.8826  0.2846 -0.1832
  935HK4    H1778481  10.053   5.913  10.962  0.2790  0.1007 -1.9379
  935HK4    C3678482  10.003   6.081  10.848  0.0073  0.5511  0.8764
  935HK4    H1878483  10.100   6.109  10.806  1.1981 -0.4045  2.8629
  935HK4    C3778484   9.907   6.181  10.854 -0.1807  0.4827 -0.7632
  935HK4    H1978485   9.930   6.287  10.853 -0.7168  0.6970  2.7680
  935HK4    C3878486   9.777   6.150  10.894  0.1200 -0.0589 -0.1863
  935HK4    H2078487   9.702   6.224  10.867 -2.4250 -1.8206  1.8606
  935HK4    C1478488   9.307   5.668  10.980  0.2264  0.1548  0.1241
  935HK4     C978489   9.212   5.686  10.878  0.3842 -0.1968 -0.0882
  935HK4     C878490   9.079   5.640  10.887  0.1086  0.6560  0.2247
  935HK4    C1178491   9.046   5.569  11.002  0.5605  0.2113  0.0779
  935HK4     H478492   8.946   5.526  11.016  0.6004  0.5917  1.6366
  935HK4    C1278493   9.139   5.548  11.104  0.2820 -0.2197  0.2478
  935HK4     H578494   9.111   5.497  11.197 -0.6555 -2.4638 -1.2310
  935HK4    C1378495   9.270   5.592  11.093 -0.0735  0.9303  0.5515
  935HK4     H678496   9.340   5.594  11.178 -0.0624 -0.5870  0.5895
  935HK4     C778497   8.986   5.675  10.777 -0.1746  0.2907  0.3521
  935HK4     O278498   8.874   5.624  10.780  0.0927 -0.3344 -0.1864
  935HK4     C478499   9.035   5.757  10.664  0.0059 -0.4382 -0.1052
  935HK4     C378500   8.943   5.818  10.580 -0.1775 -0.0428  0.3808
  935HK4     H378501   8.837   5.788  10.570 -0.4165  0.7531  0.5114
  935HK4     C278502   8.971   5.923  10.494 -0.2222  0.1645  0.6173
  935HK4     H278503   8.889   5.985  10.456 -0.1462 -1.8759 -3.1313
  935HK4     C178504   9.102   5.970  10.495 -0.0214 -0.3741 -0.0108
  935HK4     H178505   9.133   6.069  10.460 -1.6534 -0.2555 -1.1337
  935HK4     C678506   9.202   5.914  10.578  0.0444 -0.0458  0.1361
  935HK4     C578507   9.167   5.806  10.659 -0.2925  0.4738  0.6849
  935HK4    C1078508   9.266   5.747  10.754  0.2212  0.6630  0.2639
  935HK4     O178509   9.376   5.710  10.711 -0.3564 -0.3448 -0.3758
  935HK4    C1678510   9.315   5.998  10.619 -0.0912 -0.2464  0.9163
  935HK4    C1578511   9.297   6.134  10.652  0.8365  0.0133  0.3911
  935HK4     H778512   9.198   6.169  10.687  0.5529  0.8536 -1.1708
  935HK4    C2078513   9.393   6.234  10.647 -0.1168  0.9119 -0.2699
  935HK4     H978514   9.373   6.341  10.656  0.2213  0.7313  3.7302
  935HK4    C1978515   9.520   6.199  10.602 -0.2339  0.2422 -0.0962
  935HK4    C1878516   9.549   6.059  10.576 -0.8648  0.1126 -0.1260
  935HK4    C1778517   9.448   5.966  10.592 -0.4218 -0.4357 -0.5142
  935HK4     H878518   9.472   5.865  10.560 -0.4476 -0.7880  0.5511
  935HK4     N178519   9.679   6.050  10.521 -0.6398  0.3269  0.3600
  935HK4    C2178520   9.739   6.178  10.520  0.5273 -0.2215 -0.1532
  935HK4    C2278521   9.638   6.272  10.562  0.3249 -0.5478  0.0938
  935HK4    C2678522   9.675   6.403  10.594  0.0938 -0.4753  0.0674
  935HK4    H1378523   9.607   6.488  10.597  0.5289 -0.1745  1.2962
  935HK4    C2578524   9.809   6.436  10.581 -0.0914  0.1897 -0.1275
  935HK4    H1278525   9.841   6.528  10.630  1.2699 -0.1215 -0.4042
  935HK4    C2478526   9.904   6.348  10.531  0.0603  0.0721  0.3708
  935HK4    H1178527  10.010   6.377  10.531  0.0583  0.1737 -2.1528
  935HK4    C2378528   9.870   6.218  10.496  0.3423  0.2133 -0.4381
  935HK4    H1078529   9.936   6.158  10.434 -0.4495  0.5930 -1.6558
  935HK4    C3978530   9.752   5.931  10.521 -0.7358  0.2654 -0.3257
  935HK4    C4178531   9.858   5.913  10.430 -0.6676 -0.4060 -0.1188
  935HK4    H2178532   9.858   5.966  10.334 -1.0116 -1.0323 -0.4669
  935HK4    C4278533   9.956   5.816  10.451 -0.0125  0.3012  0.1237
  935HK4    H2278534  10.043   5.804  10.385  1.0656 -0.5462  1.6461
  935HK4    C4378535   9.942   5.725  10.556  0.3203  0.4988  0.3385
  935HK4    H2378536   9.997   5.630  10.553 -2.0670 -0.8730 -1.7397
  935HK4    C4478537   9.840   5.745  10.648 -0.2866  0.2838 -0.2811
  935HK4    H2478538   9.845   5.685  10.740  2.6127 -0.4566 -0.8732
  935HK4    C4578539   9.744   5.845  10.633 -0.1109  0.4748 -0.1207
  935HK4    H2578540   9.649   5.845  10.688 -0.1285 -0.8004 -0.1258
  936HK4    H2878541   3.366   0.039   9.554 -0.7493  1.1588  0.5534
  936HK4    C4878542   3.274   0.004   9.506 -0.2497  0.5042  0.0725
  936HK4    C4778543   3.185  11.179   9.584  0.0248 -0.5341 -0.5810
  936HK4    H2778544   3.221  11.149   9.684 -1.2306  0.0857  0.0693
  936HK4    C4678545   3.062  11.134   9.538  0.0108 -0.4027 -0.6716
  936HK4    H2678546   3.001  11.079   9.612 -0.4073 -1.4327 -1.7646
  936HK4    C4078547   3.024  11.169   9.406 -0.2339  0.8687 -0.2738
  936HK4    C5078548   3.123  11.226   9.324  0.3560  0.1232 -0.0977
  936HK4    H3078549   3.117  11.208   9.216 -0.4856  1.4326 -0.2766
  936HK4    C4978550   3.246   0.021   9.371  0.3397  0.1688 -0.0947
  936HK4    H2978551   3.329   0.031   9.299  0.9269  1.4585  0.7400
  936HK4     N278552   2.894  11.146   9.361 -0.1319 -0.1481 -0.0654
  936HK4    C3078553   2.800  11.055   9.413 -0.1432  0.0672  0.2883
  936HK4    C2978554   2.812  10.945   9.497 -0.1378 -0.0098  0.1844
  936HK4    H1578555   2.913  10.919   9.531 -0.3348 -2.0802 -0.7310
  936HK4    C2878556   2.711  10.857   9.535 -0.2042  0.0199  0.0728
  936HK4    C2778557   2.588  10.883   9.470 -0.1849  0.5988  0.2674
  936HK4    H1478558   2.498  10.836   9.511 -0.2620  1.4796  1.1195
  936HK4    C3278559   2.563  10.985   9.379 -0.3467  0.3805  0.0643
  936HK4    H1678560   2.465  11.011   9.339  0.0400 -0.9537 -1.8164
  936HK4    C3178561   2.668  11.074   9.356 -0.1233  0.1701  0.2766
  936HK4    C3478562   2.676  11.193   9.274  0.7206 -0.0978 -0.0407
  936HK4    C3378563   2.816  11.231   9.280  0.5630  0.4943 -0.0659
  936HK4    C3578564   2.851   0.094   9.205 -0.3462  0.7283 -0.1604
  936HK4    H1778565   2.954   0.128   9.192  0.2132 -1.4110 -1.6287
  936HK4    C3678566   2.755   0.169   9.138  0.0734  0.7007 -0.7956
  936HK4    H1878567   2.798   0.237   9.063 -0.4491  0.7993 -1.0032
  936HK4    C3778568   2.622   0.130   9.133  0.3495 -0.3543  0.0786
  936HK4    H1978569   2.545   0.187   9.083  2.4549  1.1108 -1.5422
  936HK4    C3878570   2.581   0.016   9.201  0.3829 -0.2824  0.2192
  936HK4    H2078571   2.475  11.236   9.206 -0.0302  0.8431 -1.8216
  936HK4    C1478572   2.735  10.717   9.573 -0.1792 -0.0179 -0.0726
  936HK4     C978573   2.664  10.603   9.533 -0.1428 -0.0288 -0.0991
  936HK4     C878574   2.635  10.491   9.613  0.0094  0.3135  0.4297
  936HK4    C1178575   2.678  10.494   9.746  0.0148 -0.0250  0.4396
  936HK4     H478576   2.640  10.422   9.820  0.3246 -1.2080 -0.5393
  936HK4    C1278577   2.742  10.607   9.794 -0.5175  0.0722  0.9266
  936HK4     H578578   2.755  10.613   9.903 -0.6178 -0.5728  0.9748
  936HK4    C1378579   2.775  10.711   9.708 -0.1122 -0.9218 -0.1255
  936HK4     H678580   2.829  10.792   9.760 -1.3837 -0.2130  0.1061
  936HK4     C778581   2.572  10.369   9.558  0.7298 -0.0738  0.4520
  936HK4     O278582   2.602  10.259   9.603 -0.4687 -0.4350  0.3616
  936HK4     C478583   2.508  10.379   9.425  0.6429  0.1793  0.5122
  936HK4     C378584   2.428  10.274   9.383  0.4635  0.4662  0.1267
  936HK4     H378585   2.399  10.188   9.446 -1.3010 -0.6542 -2.1068
  936HK4     C278586   2.364  10.275   9.259 -0.7831  0.0026  0.7533
  936HK4     H278587   2.305  10.192   9.218 -1.3881  0.0500  1.5085
  936HK4     C178588   2.373  10.393   9.187 -0.0281 -0.6648 -0.2513
  936HK4     H178589   2.300  10.391   9.105 -0.1243 -1.5576 -0.1484
  936HK4     C678590   2.444  10.508   9.228 -0.2238 -0.5491 -0.2338
  936HK4     C578591   2.524  10.492   9.342 -0.8696  0.2723  0.3341
  936HK4    C1078592   2.618  10.597   9.391 -0.0678 -0.2211 -0.1164
  936HK4     O178593   2.695  10.643   9.308 -0.4448  0.1293 -0.2777
  936HK4    C1678594   2.406  10.639   9.173  0.0518 -0.3234  0.1077
  936HK4    C1578595   2.270  10.673   9.159  0.1537  0.0147 -0.0597
  936HK4     H778596   2.199  10.632   9.233  0.2624 -0.4855 -0.2374
  936HK4    C2078597   2.226  10.767   9.067  0.2816  0.2121  0.0814
  936HK4     H978598   2.123  10.803   9.066  0.1550 -0.1400 -2.2519
  936HK4    C1978599   2.321  10.825   8.983  0.2936 -0.1747 -0.1730
  936HK4    C1878600   2.462  10.792   8.995  0.3942  0.3637  0.1522
  936HK4    C1778601   2.500  10.698   9.089 -0.2729 -0.3308 -0.2611
  936HK4     H878602   2.602  10.665   9.070 -0.8750 -0.2009 -4.0135
  936HK4     N178603   2.529  10.835   8.879 -0.1040  0.1532 -0.2144
  936HK4    C2178604   2.436  10.882   8.783 -0.0496  0.6503 -0.0199
  936HK4    C2278605   2.310  10.892   8.855  0.0396  0.4464  0.1642
  936HK4    C2678606   2.203  10.967   8.808 -0.0736 -0.1131 -0.4819
  936HK4    H1378607   2.117  10.978   8.873  1.2882 -1.4925  1.6019
  936HK4    C2578608   2.219  11.052   8.698 -0.4756 -0.1647 -0.5787
  936HK4    H1278609   2.141  11.120   8.665 -0.5980  0.5629  1.1410
  936HK4    C2478610   2.338  11.038   8.629 -0.3800 -0.2318 -0.4013
  936HK4    H1178611   2.350  11.096   8.536 -1.0772  1.2736  0.4310
  936HK4    C2378612   2.443  10.954   8.665  0.1710  0.6240 -0.0274
  936HK4    H1078613   2.526  10.944   8.594 -0.3027 -0.9612 -0.3557
  936HK4    C3978614   2.665  10.869   8.883  0.1266 -0.8053  0.0682
  936HK4    C4178615   2.727  10.879   8.757 -0.1722 -0.3705 -0.0453
  936HK4    H2178616   2.690  10.828   8.667 -0.3548  1.6319 -1.1464
  936HK4    C4278617   2.849  10.945   8.748 -0.1720 -0.3344  0.2248
  936HK4    H2278618   2.900  10.961   8.652 -0.0338 -3.1189 -0.2207
  936HK4    C4378619   2.906  11.002   8.861  0.0320 -0.1857  0.0482
  936HK4    H2378620   2.999  11.057   8.855  1.0254 -1.8566 -0.1775
  936HK4    C4478621   2.847  10.989   8.987  0.1685  0.2638  0.1574
  936HK4    H2478622   2.902  11.018   9.078 -0.0229 -1.0022  0.6876
  936HK4    C4578623   2.729  10.916   8.999  0.4373 -0.2617 -0.3294
  936HK4    H2578624   2.673  10.906   9.093 -0.3984 -0.3530 -0.8286
  937HK4    H2878625   8.088   2.213   7.693 -1.9907  0.6498 -1.7341
  937HK4    C4878626   8.157   2.208   7.608  0.2383  0.4490  0.0391
  937HK4    C4778627   8.280   2.146   7.621 -0.3235 -0.6443  0.1779
  937HK4    H2778628   8.322   2.131   7.721 -1.1785  2.8878  1.1268
  937HK4    C4678629   8.361   2.124   7.510 -0.2388 -0.7038  0.2507
  937HK4    H2678630   8.453   2.066   7.525 -1.8924 -3.6167 -0.3376
  937HK4    C4078631   8.332   2.172   7.381 -0.2197 -0.4771  0.3315
  937HK4    C5078632   8.205   2.234   7.373  0.1226  0.1117 -0.6470
  937HK4    H3078633   8.183   2.291   7.282  1.0030  1.6736  0.0852
  937HK4    C4978634   8.120   2.251   7.481  0.5545 -0.1659 -0.2612
  937HK4    H2978635   8.014   2.277   7.464  0.3669  0.3176  1.4968
  937HK4     N278636   8.399   2.137   7.263  0.0462  0.2509  0.2670
  937HK4    C3078637   8.394   2.220   7.149 -0.4951 -0.0005  0.1086
  937HK4    C2978638   8.368   2.353   7.116 -0.7415 -0.1641 -0.3644
  937HK4    H1578639   8.357   2.421   7.200  1.3572 -1.5580  1.0953
  937HK4    C2878640   8.370   2.406   6.988  0.4221  0.2513 -0.1815
  937HK4    C2778641   8.395   2.313   6.884 -0.2654 -0.1003 -0.0370
  937HK4    H1478642   8.403   2.355   6.783 -1.0661  1.3267  0.4757
  937HK4    C3278643   8.422   2.179   6.906  0.3577  0.0870  0.3783
  937HK4    H1678644   8.470   2.112   6.835  2.0395  0.1578  1.4386
  937HK4    C3178645   8.409   2.130   7.036 -0.3011 -0.1279  0.2373
  937HK4    C3478646   8.422   1.994   7.083 -0.0157 -0.2297 -0.1242
  937HK4    C3378647   8.430   2.004   7.228  0.5639  0.4927 -0.2065
  937HK4    C3578648   8.472   1.893   7.300 -0.4517  0.0896 -0.2284
  937HK4    H1778649   8.504   1.911   7.402 -1.4564 -2.5429  0.5833
  937HK4    C3678650   8.508   1.778   7.231 -0.0167 -0.0596  0.2475
  937HK4    H1878651   8.551   1.702   7.297  0.0723  0.7482  1.1312
  937HK4    C3778652   8.513   1.771   7.092 -0.2143  0.5545  0.2069
  937HK4    H1978653   8.554   1.686   7.038  1.1786  1.8489 -0.8149
  937HK4    C3878654   8.463   1.878   7.019 -0.5094 -0.1370 -0.6111
  937HK4    H2078655   8.462   1.873   6.910 -1.4614 -1.7267 -0.5388
  937HK4    C1478656   8.357   2.550   6.962 -0.0590  0.2812  0.2253
  937HK4     C978657   8.317   2.598   6.836 -0.3799  0.1490  0.2767
  937HK4     C878658   8.374   2.715   6.781  0.0287 -0.2665 -0.1891
  937HK4    C1178659   8.473   2.782   6.851 -0.1971 -0.3075  0.1783
  937HK4     H478660   8.513   2.871   6.799  1.3103 -1.4545 -0.6520
  937HK4    C1278661   8.512   2.736   6.976  0.2936  0.6958  0.4050
  937HK4     H578662   8.596   2.781   7.031  0.4884 -0.5300  1.1363
  937HK4    C1378663   8.455   2.622   7.032  0.6169  0.0750 -0.4932
  937HK4     H678664   8.485   2.594   7.134 -0.2239 -1.2202 -0.5966
  937HK4     C778665   8.355   2.756   6.640  0.2399  0.1436 -0.0976
  937HK4     O278666   8.391   2.864   6.594 -0.4036  0.4053  0.0203
  937HK4     C478667   8.273   2.668   6.553 -0.4039  0.5878  0.0597
  937HK4     C378668   8.259   2.689   6.417  0.1837  0.1242 -0.0728
  937HK4     H378669   8.301   2.782   6.375  1.2417 -0.5666 -0.5802
  937HK4     C278670   8.191   2.595   6.342 -0.1040 -0.0939  0.4642
  937HK4     H278671   8.166   2.626   6.239 -0.6138  2.1511  1.2310
  937HK4     C178672   8.150   2.471   6.390 -0.0332 -0.2397  0.1540
  937HK4     H178673   8.111   2.392   6.325  0.8855  1.0305 -1.9984
  937HK4     C678674   8.160   2.444   6.528  0.3061  0.0427  0.1843
  937HK4     C578675   8.218   2.548   6.602  0.5584  0.0885 -0.0796
  937HK4    C1078676   8.217   2.530   6.750 -0.0933  0.1722 -0.0750
  937HK4     O178677   8.113   2.524   6.815 -0.1390  0.0351 -0.1585
  937HK4    C1678678   8.172   2.303   6.568  0.1084 -0.0580 -0.1149
  937HK4    C1578679   8.244   2.211   6.489 -0.4456  0.1716 -0.8924
  937HK4     H778680   8.266   2.226   6.382  0.4949  0.8705 -0.6123
  937HK4    C2078681   8.269   2.084   6.538 -1.2583  0.1294 -0.5684
  937HK4     H978682   8.351   2.025   6.496 -1.4914 -0.5254 -0.1133
  937HK4    C1978683   8.209   2.038   6.654 -0.1669 -0.1961 -0.1222
  937HK4    C1878684   8.117   2.125   6.724  0.0332 -0.0048 -0.0961
  937HK4    C1778685   8.100   2.255   6.677  0.8352  0.3397  0.5483
  937HK4     H878686   8.012   2.311   6.709  0.4021 -1.1669  2.0459
  937HK4     N178687   8.060   2.053   6.832  0.5825  0.3657  0.4422
  937HK4    C2178688   8.124   1.928   6.840 -0.2325 -0.0891 -0.1349
  937HK4    C2278689   8.216   1.914   6.728 -0.3814 -0.2736 -0.2323
  937HK4    C2678690   8.286   1.797   6.700  0.6004  0.1808  0.3019
  937HK4    H1378691   8.349   1.781   6.612 -1.0503 -1.2164 -0.6545
  937HK4    C2578692   8.282   1.696   6.795  0.6181 -0.1955 -0.0964
  937HK4    H1278693   8.343   1.609   6.768 -1.8682 -1.6374 -1.2472
  937HK4    C2478694   8.201   1.708   6.908  0.0217 -0.2151 -0.5194
  937HK4    H1178695   8.198   1.624   6.978 -0.3055 -0.9494 -1.4021
  937HK4    C2378696   8.124   1.822   6.929 -0.1946 -0.3731 -0.4699
  937HK4    H1078697   8.059   1.821   7.017  2.1614 -0.6686  1.3451
  937HK4    C3978698   7.977   2.107   6.931 -0.0902  0.3808 -0.1274
  937HK4    C4178699   7.872   2.035   6.992  0.3212 -0.0845  0.0390
  937HK4    H2178700   7.817   1.962   6.932 -0.4231  1.4011 -1.1141
  937HK4    C4278701   7.818   2.077   7.113  0.0779  0.1736 -0.1608
  937HK4    H2278702   7.749   2.013   7.170 -0.9010  0.3973 -1.0853
  937HK4    C4378703   7.872   2.186   7.181  0.3770 -0.1342  0.1013
  937HK4    H2378704   7.839   2.220   7.279  1.4627 -0.3136  0.5338
  937HK4    C4478705   7.973   2.259   7.119  0.2007 -0.0026 -0.0319
  937HK4    H2478706   8.003   2.349   7.174  0.8352 -0.2934  0.1047
  937HK4    C4578707   8.027   2.222   6.996  0.2155  0.2321 -0.0971
  937HK4    H2578708   8.116   2.270   6.955 -0.1725  1.4544  0.4777
  938HK4    H2878709   2.365   3.688   2.136 -1.4637  1.2178 -0.9121
  938HK4    C4878710   2.349   3.719   2.239 -0.1747 -0.5330 -0.1638
  938HK4    C4778711   2.396   3.644   2.346 -0.2131 -0.0394  0.1999
  938HK4    H2778712   2.479   3.573   2.338  0.2419  0.4996  0.1665
  938HK4    C4678713   2.346   3.651   2.476 -0.0299  0.5494  0.2392
  938HK4    H2678714   2.362   3.566   2.543  0.2218 -1.0980 -1.8676
  938HK4    C4078715   2.243   3.742   2.509 -0.2034  0.4695 -0.0786
  938HK4    C5078716   2.202   3.833   2.409  0.2796  0.8971  0.1097
  938HK4    H3078717   2.141   3.922   2.435  0.2268  1.6805 -2.6255
  938HK4    C4978718   2.257   3.814   2.284  0.2286 -0.3467  0.2771
  938HK4    H2978719   2.242   3.897   2.214  0.5647  0.4168  1.1047
  938HK4     N278720   2.154   3.711   2.612 -0.0255  0.1895 -0.0103
  938HK4    C3078721   2.131   3.581   2.663  0.2891  0.3059  0.4321
  938HK4    C2978722   2.148   3.454   2.610 -0.1117  0.1662  0.6364
  938HK4    H1578723   2.192   3.441   2.511  1.0153  0.3371  1.1084
  938HK4    C2878724   2.127   3.341   2.688 -0.1391 -0.2383  0.0439
  938HK4    C2778725   2.086   3.351   2.823  0.0508 -0.4711  0.1200
  938HK4    H1478726   2.062   3.261   2.881 -0.3956 -1.0570 -0.9433
  938HK4    C3278727   2.075   3.479   2.875  0.1138 -0.5350  0.2870
  938HK4    H1678728   2.041   3.498   2.977 -0.2172  1.5798 -0.2032
  938HK4    C3178729   2.089   3.595   2.801  0.7203 -0.3837  0.6342
  938HK4    C3478730   2.081   3.736   2.834  0.0613 -0.3055  0.1360
  938HK4    C3378731   2.125   3.804   2.714  0.1980 -0.0890  0.3086
  938HK4    C3578732   2.141   3.942   2.709 -0.4613 -0.0228  0.0258
  938HK4    H1778733   2.191   3.990   2.625  0.9438 -0.9932  0.2870
  938HK4    C3678734   2.124   4.013   2.827 -0.4426 -0.4762  0.3024
  938HK4    H1878735   2.139   4.122   2.824  0.6661 -0.5755  1.8958
  938HK4    C3778736   2.066   3.955   2.938 -1.0311 -0.2494  0.1148
  938HK4    H1978737   2.051   4.020   3.024 -0.1132 -0.3606  0.3669
  938HK4    C3878738   2.043   3.818   2.940  0.3157 -0.4809  0.3622
  938HK4    H2078739   1.982   3.774   3.019  0.8767 -0.3239  0.8872
  938HK4    C1478740   2.105   3.218   2.609 -0.0737 -0.1211 -0.1568
  938HK4     C978741   1.996   3.134   2.634 -0.0529 -0.2196 -0.4001
  938HK4     C878742   2.001   2.995   2.610 -0.2261 -0.2497 -0.2631
  938HK4    C1178743   2.115   2.946   2.546 -0.3157  0.0329 -0.6420
  938HK4     H478744   2.123   2.838   2.528  1.7145  0.0537  0.0743
  938HK4    C1278745   2.219   3.032   2.514 -0.0308 -0.2934 -0.5923
  938HK4     H578746   2.281   3.006   2.427  2.1884  0.9499  0.5845
  938HK4    C1378747   2.218   3.169   2.541  0.0546 -0.4653  0.3062
  938HK4     H678748   2.294   3.242   2.511 -0.7551  0.0694 -0.4502
  938HK4     C778749   1.910   2.902   2.679 -0.1671 -0.3981 -0.3867
  938HK4     O278750   1.895   2.788   2.634  0.3552 -0.5965 -0.0628
  938HK4     C478751   1.819   2.965   2.778  0.5079 -0.1459  0.0758
  938HK4     C378752   1.748   2.883   2.864  0.3722  0.1836  0.2783
  938HK4     H378753   1.751   2.774   2.845  1.8264  0.4110 -0.8885
  938HK4     C278754   1.665   2.939   2.961 -0.0395 -0.3678  0.2489
  938HK4     H278755   1.604   2.871   3.023 -0.5390 -1.2984 -1.2263
  938HK4     C178756   1.652   3.077   2.972  0.0831 -0.3153 -0.2468
  938HK4     H178757   1.584   3.121   3.046  2.1989  1.2151  0.8294
  938HK4     C678758   1.718   3.165   2.885  0.3582  0.0840  0.3601
  938HK4     C578759   1.799   3.104   2.788 -0.0866 -0.2359  0.1880
  938HK4    C1078760   1.871   3.192   2.692 -0.2527 -0.6917 -0.3565
  938HK4     O178761   1.807   3.258   2.610 -0.0643 -0.2612 -0.1577
  938HK4    C1678762   1.744   3.299   2.937  0.2000  0.0397  0.5511
  938HK4    C1578763   1.760   3.330   3.074  0.1725  0.1117  0.5384
  938HK4     H778764   1.783   3.249   3.144 -0.3546 -0.5388 -0.0362
  938HK4    C2078765   1.730   3.455   3.126 -0.2136  0.3484 -0.2432
  938HK4     H978766   1.715   3.463   3.234 -3.3170  0.1894 -0.6174
  938HK4    C1978767   1.704   3.564   3.043 -0.1425  0.2584 -0.3833
  938HK4    C1878768   1.692   3.535   2.902  0.5337 -0.2069 -0.3511
  938HK4    C1778769   1.703   3.404   2.856  0.2986 -0.3482 -0.0040
  938HK4     H878770   1.660   3.378   2.759 -1.2010  0.1695  0.5155
  938HK4     N178771   1.647   3.650   2.833 -0.1842 -0.2016  0.1291
  938HK4    C2178772   1.648   3.754   2.928 -0.4735  0.4456 -0.5750
  938HK4    C2278773   1.673   3.704   3.061  0.0637  0.3474 -0.7090
  938HK4    C2678774   1.698   3.795   3.164  0.0211 -0.3060 -0.1120
  938HK4    H1378775   1.685   3.763   3.267  2.0993 -1.3576 -0.1505
  938HK4    C2578776   1.703   3.931   3.136 -0.4106 -0.2999 -0.1662
  938HK4    H1278777   1.717   4.004   3.215  2.4042  1.7160 -2.4136
  938HK4    C2478778   1.680   3.978   3.007 -0.4257  0.2174  0.0217
  938HK4    H1178779   1.689   4.086   2.991  0.3838  0.0344 -0.8343
  938HK4    C2378780   1.657   3.890   2.901 -0.1005  0.4836 -0.2676
  938HK4    H1078781   1.630   3.934   2.805 -2.1556  0.1546  0.1433
  938HK4    C3978782   1.655   3.672   2.695  0.0727  0.4935  0.2531
  938HK4    C4178783   1.559   3.746   2.623  0.0314  0.1981  0.0009
  938HK4    H2178784   1.476   3.804   2.666  0.9693  2.4560 -1.1488
  938HK4    C4278785   1.571   3.764   2.486 -0.1906 -0.1138 -0.0593
  938HK4    H2278786   1.495   3.828   2.438  0.1539  1.2174  1.1176
  938HK4    C4378787   1.678   3.710   2.416 -0.2480  0.1876 -0.3785
  938HK4    H2378788   1.677   3.706   2.307 -0.1252  1.4963 -0.4441
  938HK4    C4478789   1.775   3.637   2.483 -0.6562 -0.1588 -0.1659
  938HK4    H2478790   1.856   3.591   2.424 -1.0054 -1.4687  0.3532
  938HK4    C4578791   1.764   3.623   2.621 -0.4247 -0.0312 -0.1356
  938HK4    H2578792   1.844   3.563   2.667 -0.4396  0.7941  0.9586
  939HK4    H2878793   8.446  10.280   0.622 -0.0767 -2.0194  0.0822
  939HK4    C4878794   8.554  10.281   0.639 -0.0326  0.6824 -0.1488
  939HK4    C4778795   8.614  10.155   0.638 -0.4944  0.4608 -0.0101
  939HK4    H2778796   8.555  10.062   0.633  1.7533 -1.0793  1.3872
  939HK4    C4678797   8.752  10.154   0.650 -0.4552 -0.4265 -0.4874
  939HK4    H2678798   8.808  10.075   0.598 -1.4668 -0.4888 -1.4948
  939HK4    C4078799   8.827  10.271   0.674 -0.3149 -0.5566 -0.2904
  939HK4    C5078800   8.759  10.394   0.684  0.3361 -0.1887 -0.4065
  939HK4    H3078801   8.819  10.486   0.675 -0.4723  0.3570 -0.4018
  939HK4    C4978802   8.621  10.400   0.663  0.2072  0.4083  0.5782
  939HK4    H2978803   8.561  10.491   0.658  1.1109  1.1433  2.7950
  939HK4     N278804   8.963  10.262   0.702 -0.3073  0.0724 -0.0962
  939HK4    C3078805   9.032  10.149   0.753  0.0713  0.5511  0.4576
  939HK4    C2978806   8.987  10.030   0.809 -0.1276  0.1952 -0.4514
  939HK4    H1578807   8.879  10.022   0.821 -0.0872 -0.8954 -0.7989
  939HK4    C2878808   9.072   9.934   0.862 -0.2849  0.1274 -0.3105
  939HK4    C2778809   9.205   9.977   0.883 -0.0325 -0.4890 -0.6224
  939HK4    H1478810   9.273   9.898   0.918  0.4936 -0.0695 -0.6935
  939HK4    C3278811   9.256  10.100   0.843 -0.3984 -0.0474  0.2427
  939HK4    H1678812   9.363  10.121   0.849  0.1869 -2.0795 -2.0137
  939HK4    C3178813   9.172  10.184   0.772  0.2439  0.2301 -0.1982
  939HK4    C3478814   9.193  10.316   0.717  0.0811  0.4623  0.2887
  939HK4    C3378815   9.064  10.352   0.662  0.0157 -0.2587 -0.0396
  939HK4    C3578816   9.061  10.469   0.586  0.0459  0.1956  0.6543
  939HK4    H1778817   8.971  10.496   0.532  1.1261  1.1003 -0.7150
  939HK4    C3678818   9.170  10.554   0.572 -0.4958  0.8337  0.3443
  939HK4    H1878819   9.158  10.652   0.524  0.4852  2.3535  3.0668
  939HK4    C3778820   9.292  10.515   0.626 -0.6937  0.2573  0.3733
  939HK4    H1978821   9.378  10.581   0.619 -0.5882  0.0397 -0.4202
  939HK4    C3878822   9.306  10.393   0.692  0.1977  0.2545  0.1842
  939HK4    H2078823   9.401  10.373   0.742  1.8918  3.8517 -1.3792
  939HK4    C1478824   9.017   9.810   0.917 -0.0035  0.1596  0.0404
  939HK4     C978825   9.070   9.725   1.015  0.6762 -0.0347 -0.4818
  939HK4     C878826   9.022   9.593   1.022  0.0992  0.1930  0.0021
  939HK4    C1178827   8.921   9.547   0.938  0.0637 -0.3780  0.3511
  939HK4     H478828   8.880   9.445   0.946 -1.7859  0.1508 -1.8230
  939HK4    C1278829   8.862   9.632   0.845  0.7389 -0.3132 -0.0255
  939HK4     H578830   8.781   9.595   0.780  0.8392  0.9867 -0.8903
  939HK4    C1378831   8.912   9.761   0.836  0.1070 -0.0594  0.0291
  939HK4     H678832   8.867   9.815   0.752 -0.2244 -0.9586 -0.3812
  939HK4     C778833   9.065   9.498   1.127 -0.3077  0.2172  0.1941
  939HK4     O278834   9.026   9.381   1.127 -0.1844  0.1768 -0.0327
  939HK4     C478835   9.165   9.541   1.228  0.6575 -0.3764 -0.5010
  939HK4     C378836   9.214   9.454   1.324  0.0601  0.3095  0.4268
  939HK4     H378837   9.175   9.351   1.318  2.0290 -0.3401 -1.4120
  939HK4     C278838   9.326   9.488   1.400  0.2435 -0.2531  0.4064
  939HK4     H278839   9.374   9.422   1.473 -3.2519 -0.9238  2.2396
  939HK4     C178840   9.387   9.610   1.375 -0.0993 -0.1711 -0.0561
  939HK4     H178841   9.453   9.638   1.459  0.3426  2.1011 -1.1388
  939HK4     C678842   9.347   9.702   1.276  0.3253  0.1084  0.0311
  939HK4     C578843   9.226   9.668   1.215  0.4690 -0.2429 -0.0652
  939HK4    C1078844   9.161   9.768   1.125 -0.4663 -0.2705  0.5715
  939HK4     O178845   9.143   9.884   1.162  0.7347  0.2244 -0.3759
  939HK4    C1678846   9.458   9.759   1.199 -0.1415  0.3301 -0.4787
  939HK4    C1578847   9.586   9.698   1.194 -0.1509  0.2194  0.4247
  939HK4     H778848   9.596   9.589   1.185  1.2889  0.5750 -3.7786
  939HK4    C2078849   9.703   9.772   1.179 -0.1989  0.2224  0.0375
  939HK4     H978850   9.799   9.724   1.198  0.0220  0.5508 -0.2612
  939HK4    C1978851   9.701   9.908   1.150 -0.3849  0.1138 -0.4600
  939HK4    C1878852   9.570   9.969   1.141 -0.4871 -0.1244 -0.5926
  939HK4    C1778853   9.456   9.896   1.173 -0.6353  0.4522  0.1871
  939HK4     H878854   9.371   9.958   1.200 -1.8467 -2.2087  2.8517
  939HK4     N178855   9.575  10.103   1.097  0.2787  0.1688  0.3599
  939HK4    C2178856   9.713  10.125   1.077  0.2180  0.2067 -0.0183
  939HK4    C2278857   9.795  10.009   1.105 -0.0542  0.0167  0.0104
  939HK4    C2678858   9.932  10.018   1.125 -0.0170 -0.2872 -0.1012
  939HK4    H1378859   9.993   9.928   1.135  0.3604  0.0781  1.0374
  939HK4    C2578860   9.990  10.142   1.103 -0.4030 -0.0140  0.4258
  939HK4    H1278861  10.097  10.137   1.083 -0.7549  0.7265 -1.8381
  939HK4    C2478862   9.918  10.259   1.080  0.1433  0.2374 -0.0179
  939HK4    H1178863   9.968  10.351   1.047  0.9100 -0.1708  0.0018
  939HK4    C2378864   9.780  10.246   1.067  0.1090  0.2954  0.2899
  939HK4    H1078865   9.716  10.334   1.057  1.4650  1.2786  0.0223
  939HK4    C3978866   9.488  10.208   1.129 -0.0043  0.1192 -0.2338
  939HK4    C4178867   9.414  10.220   1.249  0.3804  0.9707 -0.0772
  939HK4    H2178868   9.433  10.152   1.334 -1.3578 -1.7258 -1.7809
  939HK4    C4278869   9.318  10.319   1.263 -0.5926  0.0642 -0.3403
  939HK4    H2278870   9.262  10.338   1.356 -2.2543 -0.0257 -1.3012
  939HK4    C4378871   9.293  10.415   1.166 -0.2495  0.4586 -0.0411
  939HK4    H2378872   9.196  10.464   1.164  0.5827  2.0735 -1.9681
  939HK4    C4478873   9.364  10.403   1.047 -0.7564 -0.6408 -0.2421
  939HK4    H2478874   9.362  10.496   0.988 -0.7107 -1.7843 -2.0885
  939HK4    C4578875   9.461  10.305   1.032 -0.0993  0.0183 -0.3084
  939HK4    H2578876   9.513  10.305   0.935 -0.5869  0.6914 -0.5755
  940HK4    H2878877   5.879   1.500   7.623  0.6463  0.0571  0.5831
  940HK4    C4878878   5.772   1.494   7.607  0.7492  0.2736 -0.1796
  940HK4    C4778879   5.710   1.589   7.525  0.0149 -0.2754 -0.2726
  940HK4    H2778880   5.764   1.653   7.453 -1.0367  1.5290  0.4936
  940HK4    C4678881   5.574   1.611   7.536 -0.0328 -0.4042 -0.5993
  940HK4    H2678882   5.526   1.694   7.480  0.7022 -0.4637 -1.3224
  940HK4    C4078883   5.491   1.539   7.625 -0.2604  0.1414 -0.3657
  940HK4    C5078884   5.561   1.446   7.704 -0.1398 -0.2306 -0.9100
  940HK4    H3078885   5.518   1.400   7.794  0.3174  1.0569 -0.0287
  940HK4    C4978886   5.697   1.418   7.696  0.2138  1.1466  0.1288
  940HK4    H2978887   5.751   1.348   7.761 -1.2071  1.4945  1.7131
  940HK4     N278888   5.364   1.581   7.665 -0.1380 -0.1606  0.3419
  940HK4    C3078889   5.307   1.708   7.646  0.0081 -0.1174  0.1943
  940HK4    C2978890   5.366   1.826   7.604  0.1658 -0.1392  0.3537
  940HK4    H1578891   5.473   1.834   7.622  0.2705  2.5532 -1.0891
  940HK4    C2878892   5.294   1.939   7.566  0.0856 -0.1837  0.3702
  940HK4    C2778893   5.154   1.930   7.579 -0.0374  0.0671 -0.7912
  940HK4    H1478894   5.099   2.020   7.549 -1.2247  0.5278  2.5773
  940HK4    C3278895   5.087   1.816   7.624  0.1355  0.3683  0.2369
  940HK4    H1678896   4.982   1.790   7.608 -0.1071  1.2556  0.3677
  940HK4    C3178897   5.162   1.706   7.662  0.0378  0.4218  0.5844
  940HK4    C3478898   5.122   1.568   7.680 -0.0829  0.3036 -0.5528
  940HK4    C3378899   5.250   1.501   7.689 -0.2655  0.1169  0.6596
  940HK4    C3578900   5.241   1.364   7.716  0.2028 -0.0098  0.1876
  940HK4    H1778901   5.329   1.315   7.756  0.6406 -0.2010 -0.9925
  940HK4    C3678902   5.122   1.294   7.728  0.1687  0.0091 -0.0289
  940HK4    H1878903   5.120   1.195   7.775  0.1253 -1.0452 -2.2193
  940HK4    C3778904   5.003   1.359   7.698  0.1289  0.2129  0.5554
  940HK4    H1978905   4.913   1.296   7.699  0.4546 -0.2470  1.9803
  940HK4    C3878906   5.003   1.496   7.674 -0.0748  0.2009  0.4804
  940HK4    H2078907   4.914   1.552   7.646 -0.1226  0.0545  0.3371
  940HK4    C1478908   5.366   2.066   7.548 -0.3323 -0.0688 -0.5044
  940HK4     C978909   5.314   2.195   7.566 -0.2371 -0.0701 -0.2196
  940HK4     C878910   5.344   2.307   7.485  0.5639  0.0491  0.2338
  940HK4    C1178911   5.437   2.288   7.384  0.3979 -0.1523  0.1159
  940HK4     H478912   5.440   2.359   7.300 -1.4686  0.7434  0.7723
  940HK4    C1278913   5.520   2.176   7.383  0.4274 -0.1284 -0.0834
  940HK4     H578914   5.607   2.166   7.317 -0.8739  0.0749 -1.8576
  940HK4    C1378915   5.476   2.069   7.460 -0.4624 -0.1941 -0.6722
  940HK4     H678916   5.531   1.974   7.448 -1.1224 -0.4272 -1.9686
  940HK4     C778917   5.303   2.444   7.521 -0.2372  0.0116 -0.5119
  940HK4     O278918   5.357   2.541   7.467  0.4530 -0.1503 -0.1139
  940HK4     C478919   5.215   2.469   7.638 -0.0597  0.2562 -0.4304
  940HK4     C378920   5.181   2.600   7.668  0.1983  0.2673 -0.1782
  940HK4     H378921   5.215   2.691   7.615 -1.4272  2.2095  2.0063
  940HK4     C278922   5.083   2.617   7.764 -0.0606 -0.3343 -0.3370
  940HK4     H278923   5.040   2.714   7.792 -1.5292 -0.7261 -1.1863
  940HK4     C178924   5.018   2.504   7.815 -0.3901 -0.1893 -0.4355
  940HK4     H178925   4.947   2.525   7.896 -0.4922  1.5340 -0.9539
  940HK4     C678926   5.039   2.371   7.772  0.5723 -0.1765 -0.0288
  940HK4     C578927   5.156   2.356   7.698  0.5721  0.1039 -0.0918
  940HK4    C1078928   5.224   2.224   7.681 -0.0208 -0.2105 -0.0156
  940HK4     O178929   5.254   2.178   7.791 -0.2473  0.0247  0.1474
  940HK4    C1678930   4.921   2.284   7.783  0.3851  0.0716 -0.0627
  940HK4    C1578931   4.793   2.338   7.808  0.6432  0.4530  0.4391
  940HK4     H778932   4.767   2.442   7.785  2.0620  0.8605  0.6174
  940HK4    C2078933   4.688   2.261   7.856  0.7006 -0.0159 -0.1829
  940HK4     H978934   4.590   2.308   7.848  0.1387 -1.2092 -0.4087
  940HK4    C1978935   4.702   2.125   7.880  0.1011 -0.0499 -0.0049
  940HK4    C1878936   4.835   2.070   7.861  0.3116  0.3008  0.4591
  940HK4    C1778937   4.936   2.147   7.805  0.1854  0.0387 -0.1308
  940HK4     H878938   5.018   2.094   7.756  1.2264  0.2781  1.3268
  940HK4     N178939   4.843   1.937   7.905 -0.2226 -0.0145 -0.3926
  940HK4    C2178940   4.715   1.916   7.959 -0.1107 -0.1975 -0.2011
  940HK4    C2278941   4.617   2.019   7.932  0.0768  0.1057  0.2701
  940HK4    C2678942   4.482   2.006   7.959 -0.0504  0.5613 -0.1112
  940HK4    H1378943   4.420   2.095   7.954 -0.4453  0.3098  0.2340
  940HK4    C2578944   4.435   1.884   8.008  0.8185  0.1047 -0.4039
  940HK4    H1278945   4.330   1.880   8.036  0.7504  0.4697 -0.6137
  940HK4    C2478946   4.525   1.781   8.036  0.3168 -0.1412  0.3315
  940HK4    H1178947   4.504   1.701   8.108 -1.4479  0.7053  0.7832
  940HK4    C2378948   4.661   1.799   8.011  0.2568 -0.3544 -0.1674
  940HK4    H1078949   4.724   1.720   8.051 -0.0700 -0.1502  0.7731
  940HK4    C3978950   4.955   1.867   7.952 -0.2117  0.1594 -0.1623
  940HK4    C4178951   4.962   1.727   7.942  0.1295  0.1785 -0.1940
  940HK4    H2178952   4.909   1.689   7.853 -2.2345  2.0969  0.3572
  940HK4    C4278953   5.063   1.645   7.993 -0.1500  0.1330  0.2864
  940HK4    H2278954   5.073   1.539   7.965 -0.8288  0.0370  0.3932
  940HK4    C4378955   5.166   1.712   8.057  0.0249  0.0858  0.0604
  940HK4    H2378956   5.248   1.658   8.104  0.1532  1.2140  1.1548
  940HK4    C4478957   5.162   1.849   8.081  0.0169  0.1748 -0.4472
  940HK4    H2478958   5.235   1.896   8.149  0.2348 -0.9196  0.0882
  940HK4    C4578959   5.061   1.926   8.024 -0.1004  0.1300 -0.3004
  940HK4    H2578960   5.077   2.034   8.027  1.4396 -0.1217  3.0364
  941HK4    H2878961  10.733   1.586   7.424  2.7300  0.6856  1.3327
  941HK4    C4878962  10.681   1.668   7.472 -0.3869 -0.2227 -0.3797
  941HK4    C4778963  10.572   1.737   7.420 -0.0353  0.5338 -0.1240
  941HK4    H2778964  10.528   1.689   7.332 -0.7498  0.0061  0.5113
  941HK4    C4678965  10.510   1.839   7.492  0.0859  0.2201  0.4346
  941HK4    H2678966  10.432   1.897   7.440  1.4234 -0.3467 -2.3167
  941HK4    C4078967  10.551   1.871   7.622  0.3578 -0.3076  0.4803
  941HK4    C5078968  10.662   1.801   7.674  1.1608  0.1726 -0.5652
  941HK4    H3078969  10.694   1.813   7.779 -2.3505  0.1570  0.5643
  941HK4    C4978970  10.723   1.700   7.601  0.5635 -0.0689 -0.7332
  941HK4    H2978971  10.811   1.651   7.644  0.2586 -0.8169 -0.9580
  941HK4     N278972  10.509   1.983   7.696 -0.6648 -0.2012 -0.2510
  941HK4    C3078973  10.467   2.105   7.641 -0.0946  0.0980 -0.0343
  941HK4    C2978974  10.481   2.149   7.510  0.5693 -0.2585 -0.0839
  941HK4    H1578975  10.569   2.115   7.455  1.4765  0.4605  0.9070
  941HK4    C2878976  10.407   2.257   7.462  1.0426  0.4403  0.7472
  941HK4    C2778977  10.325   2.327   7.553 -0.1873  0.1020 -0.0868
  941HK4    H1478978  10.264   2.410   7.512  1.4607  1.2002 -0.3673
  941HK4    C3278979  10.308   2.286   7.684  0.5042  0.8502  0.2420
  941HK4    H1678980  10.250   2.342   7.758  0.0695  1.9123 -0.8889
  941HK4    C3178981  10.374   2.172   7.729  0.0176  0.4085 -0.1527
  941HK4    C3478982  10.373   2.093   7.851  0.9215  0.5835 -0.0283
  941HK4    C3378983  10.453   1.975   7.825 -0.6483 -0.4535 -0.2571
  941HK4    C3578984  10.466   1.878   7.923 -0.0672  0.1351  0.2592
  941HK4    H1778985  10.538   1.797   7.911 -0.3750 -0.3334  1.4938
  941HK4    C3678986  10.410   1.893   8.050 -0.6515 -0.7319  0.1139
  941HK4    H1878987  10.410   1.816   8.128  2.5624  0.2918  1.1860
  941HK4    C3778988  10.337   2.010   8.069  0.1139 -0.2193 -0.0617
  941HK4    H1978989  10.289   2.026   8.166  0.1411 -0.9870  0.0798
  941HK4    C3878990  10.312   2.109   7.975  0.7508 -0.0304 -0.0291
  941HK4    H2078991  10.257   2.200   7.999 -1.1654 -1.5312  1.4126
  941HK4    C1478992  10.432   2.311   7.328  0.1729 -0.2658  0.2892
  941HK4     C978993  10.401   2.440   7.284  0.8087 -0.1604  0.1355
  941HK4     C878994  10.328   2.462   7.165 -0.3474 -0.2983  0.8013
  941HK4    C1178995  10.288   2.357   7.083  0.7703 -0.1222  0.0178
  941HK4     H478996  10.239   2.377   6.987 -0.8352 -1.4439  0.5398
  941HK4    C1278997  10.329   2.228   7.117  0.1082 -0.3167  0.0784
  941HK4     H578998  10.287   2.145   7.060 -2.2186  0.8070  0.1026
  941HK4    C1378999  10.401   2.210   7.235  0.1894 -0.0680  0.0690
  941HK4     H679000  10.430   2.109   7.267  0.2041 -0.0054  0.2509
  941HK4     C779001  10.310   2.596   7.105 -0.8056 -0.5299  0.4182
  941HK4     O279002  10.220   2.624   7.026  0.1735  0.7017 -0.2860
  941HK4     C479003  10.407   2.701   7.146 -0.6475 -0.5287  0.0385
  941HK4     C379004  10.409   2.821   7.076 -0.1978 -0.6733 -0.1953
  941HK4     H379005  10.332   2.843   7.001 -0.4179 -2.5952 -0.5675
  941HK4     C279006  10.488   2.930   7.108 -0.1027 -0.6606 -0.4770
  941HK4     H279007  10.484   3.024   7.051  2.1264  0.4766  1.1285
  941HK4     C179008  10.570   2.917   7.219  0.5041  0.2852 -0.7954
  941HK4     H179009  10.623   3.009   7.246  0.9603  0.2727 -1.6378
  941HK4     C679010  10.566   2.796   7.292 -0.3618  0.4265 -0.6013
  941HK4     C579011  10.481   2.687   7.265 -0.5731  0.4135  0.1000
  941HK4    C1079012  10.468   2.560   7.341  0.3024  0.2210 -0.0637
  941HK4     O179013  10.494   2.559   7.461 -0.0940  0.6002  0.0249
  941HK4    C1679014  10.661   2.801   7.403 -0.0221  0.1179 -0.8715
  941HK4    C1579015  10.702   2.925   7.458  0.0721 -0.1278 -0.3828
  941HK4     H779016  10.614   2.989   7.478 -0.6098 -1.6810  1.8175
  941HK4    C2079017  10.822   2.950   7.522  0.1380 -0.4341 -0.3894
  941HK4     H979018  10.858   3.053   7.517 -0.1992 -0.1865  1.8298
  941HK4    C1979019  10.909   2.843   7.543  0.5493 -0.1738 -0.7789
  941HK4    C1879020  10.874   2.715   7.485 -0.2680 -0.1856 -0.2505
  941HK4    C1779021  10.755   2.699   7.414 -0.6719 -0.3498  0.4482
  941HK4     H879022  10.727   2.603   7.371  1.0932  0.0653 -1.6945
  941HK4     N179023  10.960   2.612   7.530  0.0684  0.1801 -0.0593
  941HK4    C2179024  11.057   2.675   7.609 -0.4154 -0.0516  0.7274
  941HK4    C2279025  11.030   2.817   7.619  0.1732  0.1222 -0.0790
  941HK4    C2679026  11.118   2.902   7.685 -0.1520  0.4789 -0.0993
  941HK4    H1379027  11.091   3.007   7.680 -0.5425  0.3242 -1.4946
  941HK4    C2579028  11.239   2.848   7.728 -0.1689  0.1048 -0.5153
  941HK4    H1279029   0.056   2.908   7.791 -2.2762  0.5427  1.3006
  941HK4    C2479030   0.020   2.713   7.713 -0.3659 -0.0288  0.2982
  941HK4    H1179031   0.125   2.679   7.706 -0.4573 -0.4230  0.8034
  941HK4    C2379032  11.179   2.624   7.654 -0.0660 -0.0225 -0.1716
  941HK4    H1079033  11.211   2.520   7.647 -1.4118 -0.3074 -2.2514
  941HK4    C3979034  10.909   2.483   7.549 -0.0541  0.2901  0.3606
  941HK4    C4179035  11.001   2.376   7.556 -0.0075  0.3094  0.0114
  941HK4    H2179036  11.098   2.379   7.503 -0.5047  1.5176 -0.8655
  941HK4    C4279037  10.950   2.256   7.603  0.0127  0.3111  0.0383
  941HK4    H2279038  11.034   2.191   7.633  1.9643  1.8439 -1.9004
  941HK4    C4379039  10.817   2.230   7.631  0.1605 -0.0199  0.4365
  941HK4    H2379040  10.781   2.127   7.621  0.1071 -0.1303  1.6397
  941HK4    C4479041  10.725   2.334   7.625  0.2156  0.0091  0.1245
  941HK4    H2479042  10.624   2.321   7.665  0.9165  0.4726  2.1094
  941HK4    C4579043  10.775   2.458   7.585 -0.0944  0.1260  0.0976
  941HK4    H2579044  10.701   2.538   7.602 -2.6204 -1.9050 -0.9203
  942HK4    H2879045   2.338   1.939   7.624 -1.2688 -0.4594  0.2636
  942HK4    C4879046   2.293   1.989   7.538 -0.4979  0.0681  0.1635
  942HK4    C4779047   2.211   1.921   7.448  0.4247 -0.3048 -0.4062
  942HK4    H2779048   2.224   1.812   7.456 -0.2432 -0.1747  3.7071
  942HK4    C4679049   2.153   1.981   7.337  0.2448  0.0232 -0.1349
  942HK4    H2679050   2.091   1.919   7.272  0.9974 -0.2460 -0.5983
  942HK4    C4079051   2.175   2.117   7.306 -0.6028  0.3203  0.5197
  942HK4    C5079052   2.256   2.182   7.401  0.2340 -0.0264  0.0502
  942HK4    H3079053   2.297   2.281   7.374  1.2966 -0.9502 -1.8357
  942HK4    C4979054   2.311   2.125   7.515 -0.0080  0.0099  0.1836
  942HK4    H2979055   2.382   2.175   7.582  0.3265 -0.4947  0.2052
  942HK4     N279056   2.165   2.164   7.174  0.1003  0.1563  0.4067
  942HK4    C3079057   2.177   2.093   7.053  0.3190  0.3440  0.3179
  942HK4    C2979058   2.245   1.977   7.018 -0.1059  0.4183 -0.7731
  942HK4    H1579059   2.283   1.910   7.095 -1.9826  1.1611  0.8420
  942HK4    C2879060   2.253   1.935   6.885  0.2601  0.2586 -0.6999
  942HK4    C2779061   2.174   1.996   6.787  0.1574  0.1283 -0.6982
  942HK4    H1479062   2.166   1.968   6.681  3.2465  0.9531 -1.2048
  942HK4    C3279063   2.099   2.109   6.821  0.0987 -0.2768  0.5084
  942HK4    H1679064   2.029   2.156   6.753  1.4369  1.3038  0.1995
  942HK4    C3179065   2.110   2.167   6.947  0.5251  0.3474  0.1880
  942HK4    C3479066   2.053   2.287   7.006 -0.0647  0.0316  0.2703
  942HK4    C3379067   2.097   2.284   7.144 -1.0043 -0.4226  0.5652
  942HK4    C3579068   2.077   2.393   7.228  0.1225  0.3921 -0.1988
  942HK4    H1779069   2.139   2.405   7.316  0.6656  0.0066 -0.5234
  942HK4    C3679070   1.997   2.496   7.181  0.0641  0.6204  0.4022
  942HK4    H1879071   1.988   2.580   7.251 -1.5593  1.8172 -1.1723
  942HK4    C3779072   1.955   2.500   7.048  0.7722  0.0044  0.1586
  942HK4    H1979073   1.887   2.578   7.016  0.5598 -0.6184 -0.9246
  942HK4    C3879074   1.983   2.397   6.959 -0.0504 -0.0777 -0.0091
  942HK4    H2079075   1.955   2.409   6.854  0.1103  1.2466  0.0917
  942HK4    C1479076   2.371   1.859   6.839 -0.1370 -0.4850 -0.4933
  942HK4     C979077   2.445   1.899   6.728 -0.2296 -0.2817 -0.4805
  942HK4     C879078   2.506   1.795   6.655  0.2595 -0.7239  0.5528
  942HK4    C1179079   2.497   1.663   6.700  0.5009 -0.8637  0.1930
  942HK4     H479080   2.557   1.582   6.657  0.2733 -1.8686  1.7323
  942HK4    C1279081   2.435   1.624   6.818  0.3504 -0.0534  0.3853
  942HK4     H579082   2.412   1.518   6.830 -0.2347  0.0629  0.3120
  942HK4    C1379083   2.370   1.726   6.887  0.1194 -0.1853  0.3644
  942HK4     H679084   2.304   1.707   6.973 -1.1961  0.4297 -0.4927
  942HK4     C779085   2.598   1.831   6.545 -0.8448  0.2315 -0.0605
  942HK4     O279086   2.614   1.754   6.451 -0.6080 -0.1381  0.2793
  942HK4     C479087   2.642   1.970   6.521 -0.3677  0.0337 -0.3373
  942HK4     C379088   2.738   2.001   6.425 -0.1771  0.5390  0.0180
  942HK4     H379089   2.824   1.933   6.428  1.1663  2.1830 -0.4018
  942HK4     C279090   2.748   2.132   6.380  0.1010  0.5620  0.1480
  942HK4     H279091   2.827   2.164   6.310 -0.4754 -1.0356 -1.2527
  942HK4     C179092   2.657   2.229   6.422 -0.4160  0.2942 -0.3525
  942HK4     H179093   2.660   2.318   6.358 -0.7017 -0.7350 -1.8312
  942HK4     C679094   2.557   2.202   6.518 -0.0848 -0.1269 -0.1238
  942HK4     C579095   2.558   2.072   6.571 -0.0766  0.0089  0.2090
  942HK4    C1079096   2.479   2.040   6.693  0.4372 -0.2009  0.4829
  942HK4     O179097   2.480   2.125   6.782 -0.3802 -0.0530  0.3495
  942HK4    C1679098   2.456   2.308   6.518 -0.1949 -0.2317 -0.4119
  942HK4    C1579099   2.326   2.282   6.568 -0.1041 -0.4122 -0.2672
  942HK4     H779100   2.290   2.186   6.528  0.0824 -0.6008  0.0231
  942HK4    C2079101   2.243   2.380   6.621  0.0515 -0.1423 -0.5138
  942HK4     H979102   2.143   2.353   6.656  1.7328 -3.5868  1.9942
  942HK4    C1979103   2.291   2.510   6.624  0.0226 -0.1353 -0.3347
  942HK4    C1879104   2.413   2.542   6.553 -0.0135 -0.3265 -0.4832
  942HK4    C1779105   2.495   2.440   6.505  0.1991 -0.3221 -0.1300
  942HK4     H879106   2.583   2.483   6.457  1.2354  0.0538  2.0379
  942HK4     N179107   2.446   2.679   6.562 -0.5268 -0.2339  0.0602
  942HK4    C2179108   2.350   2.730   6.651 -0.3415 -0.3380  0.3224
  942HK4    C2279109   2.247   2.634   6.687 -0.3485 -0.4444  0.0184
  942HK4    C2679110   2.171   2.664   6.799  0.3867  0.2041  0.3450
  942HK4    H1379111   2.109   2.583   6.837 -0.2940 -0.0794 -1.3481
  942HK4    C2579112   2.185   2.781   6.873 -0.1894  0.2068  0.4546
  942HK4    H1279113   2.133   2.791   6.968  2.0990 -0.1738  1.7914
  942HK4    C2479114   2.276   2.876   6.827 -0.1571 -0.1687 -0.2650
  942HK4    H1179115   2.284   2.969   6.885 -3.0654 -0.3859  0.5632
  942HK4    C2379116   2.363   2.849   6.721  0.2273 -0.2487  0.0693
  942HK4    H1079117   2.424   2.932   6.685 -0.3527 -0.1827 -0.7732
  942HK4    C3979118   2.489   2.753   6.451  0.1273 -0.4981  0.1345
  942HK4    C4179119   2.548   2.879   6.471 -0.0023 -0.3793 -0.2160
  942HK4    H2179120   2.609   2.900   6.560  0.9541 -1.4101 -0.6148
  942HK4    C4279121   2.539   2.975   6.371 -0.4242 -0.0789  0.1104
  942HK4    H2279122   2.582   3.074   6.392  0.4647 -0.4895  0.2696
  942HK4    C4379123   2.492   2.953   6.242  0.0000  0.2592 -0.1049
  942HK4    H2379124   2.509   3.023   6.161 -0.0436  0.5116  0.1030
  942HK4    C4479125   2.436   2.827   6.220 -0.4603  0.4414  0.0035
  942HK4    H2479126   2.398   2.799   6.121 -0.9923 -2.2066  0.9283
  942HK4    C4579127   2.438   2.732   6.321  0.2553  0.3803 -0.0639
  942HK4    H2579128   2.373   2.643   6.314  0.3513  0.2865  0.2480
  943HK4    H2879129   1.945  10.889  10.406 -1.7820  0.1778  1.0101
  943HK4    C4879130   1.939  10.794  10.460 -0.2559 -0.2174  0.5246
  943HK4    C4779131   1.856  10.694  10.411 -0.3597 -0.0583  0.3775
  943HK4    H2779132   1.799  10.710  10.317  0.5596 -1.5362 -0.4515
  943HK4    C4679133   1.841  10.568  10.467 -0.2442 -0.1521  0.1900
  943HK4    H2679134   1.795  10.490  10.405  1.0619  0.5702 -1.7610
  943HK4    C4079135   1.914  10.540  10.585 -0.0329 -0.1306  0.0680
  943HK4    C5079136   2.005  10.637  10.631 -0.2300 -0.1336  0.4618
  943HK4    H3079137   2.051  10.634  10.731  1.2702  2.0162 -0.1249
  943HK4    C4979138   2.015  10.763  10.572 -0.1557 -0.1314  0.4797
  943HK4    H2979139   2.061  10.839  10.636 -1.9366 -0.5285  2.2752
  943HK4     N279140   1.866  10.440  10.670  0.1556 -0.7894 -0.5865
  943HK4    C3079141   1.735  10.402  10.706 -0.0387 -0.0170 -0.4718
  943HK4    C2979142   1.614  10.465  10.678 -0.2704 -0.5462 -0.6808
  943HK4    H1579143   1.611  10.559  10.622 -0.2119 -0.7391 -1.0092
  943HK4    C2879144   1.495  10.425  10.737  0.0870 -0.1258  0.3441
  943HK4    C2779145   1.498  10.310  10.819 -0.2407 -0.4368 -0.0821
  943HK4    H1479146   1.400  10.275  10.855  0.1259 -1.1105  0.2555
  943HK4    C3279147   1.614  10.237  10.838 -0.1026 -0.3146 -0.4403
  943HK4    H1679148   1.598  10.141  10.887 -2.9091  1.1646  1.6960
  943HK4    C3179149   1.735  10.283  10.788 -0.1302  0.4247  0.1671
  943HK4    C3479150   1.874  10.240  10.790 -0.2466  0.0383  0.1165
  943HK4    C3379151   1.953  10.348  10.732  0.2102 -0.3990 -0.0765
  943HK4    C3579152   2.091  10.352  10.742  0.2294 -0.1844 -0.4216
  943HK4    H1779153   2.149  10.428  10.691  0.6414  2.4256  3.7155
  943HK4    C3679154   2.151  10.243  10.805  0.0118  0.2318  0.5090
  943HK4    H1879155   2.254  10.262  10.839 -0.5154  1.9290  1.2366
  943HK4    C3779156   2.079  10.136  10.857  0.3356 -0.3412 -0.2156
  943HK4    H1979157   2.130  10.041  10.875 -0.6867 -0.6662  1.0290
  943HK4    C3879158   1.940  10.135  10.851  0.3527 -0.0742 -0.7217
  943HK4    H2079159   1.877  10.051  10.882  2.2729 -1.1533  0.3615
  943HK4    C1479160   1.373  10.505  10.714  0.3494  0.2508  0.2541
  943HK4     C979161   1.273  10.523  10.810 -0.1059  0.4928 -0.2667
  943HK4     C879162   1.138  10.510  10.774 -0.2084 -0.6729  0.5268
  943HK4    C1179163   1.109  10.489  10.639 -0.0518 -0.0441  0.3956
  943HK4     H479164   1.007  10.458  10.612  0.5518 -1.6550 -0.1277
  943HK4    C1279165   1.205  10.488  10.538 -0.1103 -0.6784  0.3402
  943HK4     H579166   1.176  10.464  10.435 -2.2087  1.6208  0.3499
  943HK4    C1379167   1.338  10.501  10.578 -0.2296  0.3701  0.4040
  943HK4     H679168   1.410  10.521  10.497 -1.7964 -0.9941 -1.3620
  943HK4     C779169   1.026  10.534  10.868 -0.2445 -0.6598  0.4823
  943HK4     O279170   0.913  10.493  10.842 -0.5396  0.3724  0.1133
  943HK4     C479171   1.051  10.621  10.985 -0.4724  0.4054 -0.2598
  943HK4     C379172   0.949  10.651  11.075 -0.4012 -0.0641 -0.0228
  943HK4     H379173   0.850  10.608  11.056 -0.0211 -0.8769 -0.2137
  943HK4     C279174   0.970  10.719  11.194 -0.5552 -0.0945  0.0198
  943HK4     H279175   0.888  10.737   0.018 -0.6477 -2.1274  0.4505
  943HK4     C179176   1.094  10.780  11.203 -0.5753 -0.0079 -0.2935
  943HK4     H179177   1.116  10.831   0.050 -0.7117  0.5087 -0.5341
  943HK4     C679178   1.200  10.757  11.113 -0.6414 -0.2717 -0.3029
  943HK4     C579179   1.183  10.662  11.012 -0.2260 -0.3730 -0.2784
  943HK4    C1079180   1.296  10.599  10.936  0.1500 -0.0648  0.0222
  943HK4     O179181   1.400  10.576  10.998  0.3823  0.2973 -0.2337
  943HK4    C1679182   1.326  10.828  11.140 -0.7737 -0.0724 -0.2048
  943HK4    C1579183   1.360  10.876   0.020  0.0994 -0.3722 -0.3195
  943HK4     H779184   1.304  10.836   0.106  2.3505 -1.2894  0.7532
  943HK4    C2079185   1.447  10.978   0.056  0.4574 -0.7158 -0.2008
  943HK4     H979186   1.453  11.003   0.162  1.0326 -1.0033 -0.1588
  943HK4    C1979187   1.511  11.039  11.197  0.5186  0.1238  0.3134
  943HK4    C1879188   1.478  10.999  11.061  0.1306  0.2872  0.3586
  943HK4    C1779189   1.387  10.896  11.036  0.6550 -0.2179  0.5299
  943HK4     H879190   1.344  10.888  10.936  1.6614  4.7381 -0.4525
  943HK4     N179191   1.548  11.083  10.973  0.0169 -0.1277 -0.1285
  943HK4    C2179192   1.619  11.179  11.048  0.3922 -0.1802 -0.4204
  943HK4    C2279193   1.588  11.162  11.188  0.5402  0.0658 -0.3553
  943HK4    C2679194   1.651  11.238   0.037 -0.0082 -0.0332  0.0826
  943HK4    H1379195   1.634  11.222   0.143  0.5104 -0.5942  0.0791
  943HK4    C2579196   1.753   0.081   0.010 -0.3924  0.4146  0.1274
  943HK4    H1279197   1.804   0.140   0.086  2.1010 -2.0024  0.4355
  943HK4    C2479198   1.796   0.085  11.126 -0.5481  0.8650  0.0852
  943HK4    H1179199   1.899   0.116  11.101  1.2398 -2.9111  2.2750
  943HK4    C2379200   1.727   0.016  11.026  0.2163  0.1594  0.0365
  943HK4    H1079201   1.766   0.028  10.925  0.9547 -0.8577  0.1879
  943HK4    C3979202   1.562  11.060  10.835  0.2359 -0.2267 -0.0887
  943HK4    C4179203   1.597  11.166  10.748  0.2307 -0.2448 -0.1164
  943HK4    H2179204   1.574   0.021  10.779  1.2743  0.4539 -1.6124
  943HK4    C4279205   1.636  11.138  10.618  0.0548  0.3332 -0.2921
  943HK4    H2279206   1.684  11.214  10.554  2.4662 -1.1179 -0.2951
  943HK4    C4379207   1.634  11.008  10.569  0.2273  0.1219  0.2592
  943HK4    H2379208   1.676  10.992  10.470  0.2022  0.3424  0.2129
  943HK4    C4479209   1.578  10.906  10.645  0.3899 -0.3087 -0.1971
  943HK4    H2479210   1.573  10.803  10.605 -2.5392  0.0662 -0.9265
  943HK4    C4579211   1.550  10.932  10.779 -0.1101 -0.0847 -0.3427
  943HK4    H2579212   1.542  10.843  10.844 -0.2278  0.6713  0.6879
  944HK4    H2879213   3.092   4.887   3.914  0.8797 -1.8510 -1.4596
  944HK4    C4879214   3.147   4.868   4.006 -0.1476  0.0790 -0.4308
  944HK4    C4779215   3.222   4.969   4.066 -0.0830 -0.3091  0.1431
  944HK4    H2779216   3.241   5.062   4.011  2.4463 -2.2039 -2.3554
  944HK4    C4679217   3.240   4.970   4.204  0.6186 -0.1876  0.0535
  944HK4    H2679218   3.286   5.056   4.256  2.1778 -1.5981  1.0411
  944HK4    C4079219   3.201   4.861   4.283  0.0923 -0.1148 -0.1045
  944HK4    C5079220   3.138   4.754   4.216  0.4120 -0.2999 -0.1081
  944HK4    H3079221   3.125   4.658   4.270  1.1560 -0.5512 -0.3673
  944HK4    C4979222   3.100   4.762   4.083 -0.3076  0.5683  0.1498
  944HK4    H2979223   3.035   4.689   4.033 -0.1421  0.6265 -0.1541
  944HK4     N279224   3.260   4.842   4.409  0.0110  0.4423  0.0166
  944HK4    C3079225   3.384   4.896   4.449  0.0632  0.2948  0.0482
  944HK4    C2979226   3.498   4.920   4.373  0.3037 -0.1112  0.2718
  944HK4    H1579227   3.493   4.901   4.265  0.7849  2.4091 -0.2472
  944HK4    C2879228   3.618   4.962   4.430  0.1650 -0.2654  0.6757
  944HK4    C2779229   3.623   4.972   4.570  0.4651 -0.3597  0.6701
  944HK4    H1479230   3.723   4.982   4.616  0.9434  1.0072 -0.5892
  944HK4    C3279231   3.514   4.939   4.648  0.1819  0.0018  0.4323
  944HK4    H1679232   3.528   4.937   4.756 -1.4025  1.0100  0.6798
  944HK4    C3179233   3.394   4.893   4.594  0.7052 -0.8590 -0.0079
  944HK4    C3479234   3.276   4.823   4.641  0.0411  0.0865 -0.2454
  944HK4    C3379235   3.196   4.794   4.524 -0.3692  0.6579 -0.1044
  944HK4    C3579236   3.079   4.722   4.544  0.1134 -0.0717  0.0916
  944HK4    H1779237   3.025   4.695   4.453 -0.1728 -0.9943  0.5233
  944HK4    C3679238   3.035   4.691   4.672  0.0787 -0.3979  0.0025
  944HK4    H1879239   2.937   4.648   4.695 -0.6776  0.5058 -1.4711
  944HK4    C3779240   3.121   4.719   4.779  0.0676  0.0211 -0.0983
  944HK4    H1979241   3.083   4.713   4.881  2.9933  1.3072  1.1115
  944HK4    C3879242   3.241   4.787   4.771  0.2484 -0.3236 -0.3016
  944HK4    H2079243   3.290   4.842   4.852 -1.2065 -0.6591  0.8076
  944HK4    C1479244   3.739   4.939   4.350 -0.2396 -0.3832  0.0906
  944HK4     C979245   3.857   4.878   4.394  0.1395  0.2882 -0.0039
  944HK4     C879246   3.980   4.897   4.326 -0.0495  0.0153 -0.4247
  944HK4    C1179247   3.972   4.976   4.212 -0.2012  0.0579 -0.3862
  944HK4     H479248   4.065   5.014   4.168  0.5066 -1.0751  0.1085
  944HK4    C1279249   3.857   5.033   4.157 -0.1571  0.3709 -0.1540
  944HK4     H579250   3.862   5.082   4.059 -0.0806 -2.2985 -1.5307
  944HK4    C1379251   3.740   5.012   4.229  0.2409  0.2017  0.4474
  944HK4     H679252   3.648   5.066   4.204 -0.8890 -1.9958 -0.2127
  944HK4     C779253   4.102   4.823   4.364  0.0019  0.2043 -0.2215
  944HK4     O279254   4.201   4.837   4.292 -0.1341  0.1269 -0.4202
  944HK4     C479255   4.099   4.738   4.485 -0.1891 -0.1233 -0.4550
  944HK4     C379256   4.215   4.679   4.534 -0.3279  0.1190  0.1736
  944HK4     H379257   4.291   4.663   4.457  0.2124  0.3806  0.6545
  944HK4     C279258   4.223   4.629   4.664 -0.0359  0.6413  0.3566
  944HK4     H279259   4.317   4.591   4.706 -1.1275 -0.7118  1.6217
  944HK4     C179260   4.109   4.638   4.743 -0.5385 -0.1852 -0.2723
  944HK4     H179261   4.124   4.612   4.849  2.5715  1.7945 -0.1745
  944HK4     C679262   3.984   4.682   4.695 -0.3976  0.1964 -0.2900
  944HK4     C579263   3.983   4.733   4.565  0.1041  1.1335  0.0685
  944HK4    C1079264   3.854   4.780   4.505 -0.1578 -0.1968 -0.4326
  944HK4     O179265   3.767   4.695   4.491 -0.3312 -0.0108 -0.4878
  944HK4    C1679266   3.881   4.709   4.796  0.1804 -0.1813  0.4094
  944HK4    C1579267   3.911   4.767   4.921  0.7672 -0.0032  0.1871
  944HK4     H779268   4.016   4.798   4.934  0.7597  0.0297  0.1578
  944HK4    C2079269   3.833   4.753   5.035 -0.0844 -0.1471 -0.4090
  944HK4     H979270   3.859   4.796   5.132 -1.0723  0.2488 -0.3194
  944HK4    C1979271   3.721   4.671   5.030 -0.2056 -0.0210  0.1754
  944HK4    C1879272   3.672   4.636   4.898  0.0600  0.1797  0.0204
  944HK4    C1779273   3.759   4.644   4.790  0.0781  0.0426  0.0249
  944HK4     H879274   3.760   4.561   4.719  1.4241  0.6753 -0.7217
  944HK4     N179275   3.571   4.537   4.906  0.2105 -0.0277 -0.6346
  944HK4    C2179276   3.575   4.496   5.041 -0.3659  0.2182 -0.5388
  944HK4    C2279277   3.650   4.587   5.125 -0.7174  0.0994 -0.0962
  944HK4    C2679278   3.676   4.563   5.259 -0.9609  0.5622  0.0346
  944HK4    H1379279   3.719   4.647   5.315 -2.2265  2.1574 -1.3260
  944HK4    C2579280   3.624   4.445   5.311 -0.2260  0.2041 -0.0395
  944HK4    H1279281   3.621   4.451   5.419  0.3429 -3.2833  0.2113
  944HK4    C2479282   3.557   4.353   5.232 -0.2241 -0.1066  0.3215
  944HK4    H1179283   3.549   4.251   5.272 -0.9005 -0.9609 -1.8788
  944HK4    C2379284   3.538   4.374   5.095 -0.3404  0.6506  0.4517
  944HK4    H1079285   3.496   4.295   5.033  1.4499  0.3660 -0.4477
  944HK4    C3979286   3.476   4.506   4.808 -0.5770  0.5274 -0.0557
  944HK4    C4179287   3.367   4.419   4.828  0.0899 -0.3797 -0.3087
  944HK4    H2179288   3.347   4.391   4.932  0.7312 -0.0983 -0.1040
  944HK4    C4279289   3.278   4.374   4.732  0.2828 -0.6028 -0.3829
  944HK4    H2279290   3.203   4.298   4.759  0.4646  0.2963  2.7655
  944HK4    C4379291   3.291   4.419   4.601  0.2783 -0.3625 -0.3016
  944HK4    H2379292   3.214   4.395   4.527  0.2531 -1.3785  0.0443
  944HK4    C4479293   3.395   4.506   4.572 -0.0853  0.1108 -0.1856
  944HK4    H2479294   3.391   4.557   4.474 -0.6065  0.8850  0.2311
  944HK4    C4579295   3.483   4.545   4.672  0.0745 -0.1477 -0.2240
  944HK4    H2579296   3.562   4.615   4.642 -1.4483  2.5460  1.7902
  945HK4    H2879297   6.351   7.454   3.221  0.4464 -0.0793  0.2537
  945HK4    C4879298   6.322   7.364   3.166  0.0084  0.2792 -0.1157
  945HK4    C4779299   6.318   7.365   3.027  0.4695  0.3445 -0.1296
  945HK4    H2779300   6.309   7.466   2.983  1.2932  0.7260  0.5565
  945HK4    C4679301   6.306   7.248   2.954  0.0486  0.0482  0.4169
  945HK4    H2679302   6.318   7.240   2.845  0.9581  1.8390  0.3728
  945HK4    C4079303   6.292   7.125   3.022 -0.5513 -0.1954 -0.1343
  945HK4    C5079304   6.288   7.131   3.163  0.7484 -0.1986 -0.0891
  945HK4    H3079305   6.284   7.038   3.221 -3.2645 -0.7914 -1.1414
  945HK4    C4979306   6.303   7.247   3.238 -0.5222  0.1859 -0.4029
  945HK4    H2979307   6.314   7.241   3.348  2.8561 -3.0752 -0.7905
  945HK4     N279308   6.298   6.999   2.961  0.3374 -0.2153 -0.0171
  945HK4    C3079309   6.361   6.963   2.840  0.0929 -0.5005 -0.0626
  945HK4    C2979310   6.473   7.019   2.779  0.0960 -0.0722  0.3334
  945HK4    H1579311   6.522   7.102   2.831  1.1833 -1.0095  0.8117
  945HK4    C2879312   6.515   6.974   2.655 -0.2576  0.2504  0.0928
  945HK4    C2779313   6.448   6.867   2.592 -0.2022  0.5389 -0.4601
  945HK4    H1479314   6.492   6.813   2.506  0.7424  0.5114  0.0286
  945HK4    C3279315   6.341   6.801   2.651  0.4119 -0.3466 -0.3034
  945HK4    H1679316   6.327   6.695   2.629  0.3472 -0.4339  0.1702
  945HK4    C3179317   6.293   6.858   2.769  0.4601 -0.7040 -0.1138
  945HK4    C3479318   6.186   6.819   2.858  0.3297 -0.0846 -0.0030
  945HK4    C3379319   6.192   6.907   2.974 -0.3673  0.5347 -0.4322
  945HK4    C3579320   6.088   6.895   3.066 -0.0219  0.1246 -0.0906
  945HK4    H1779321   6.085   6.971   3.144  1.5849  0.3897 -0.2793
  945HK4    C3679322   5.986   6.801   3.053  0.1606 -0.1054  0.1156
  945HK4    H1879323   5.897   6.799   3.118 -0.7038 -0.8259 -1.0699
  945HK4    C3779324   5.988   6.712   2.946  0.0725  0.2860 -0.2190
  945HK4    H1979325   5.898   6.652   2.930  0.6445 -0.6831  0.1644
  945HK4    C3879326   6.086   6.723   2.848  0.2918 -0.0427 -0.0405
  945HK4    H2079327   6.085   6.659   2.761 -0.0734  0.1455 -0.1751
  945HK4    C1479328   6.608   7.053   2.574  0.5072 -0.5544  0.1708
  945HK4     C979329   6.624   7.046   2.435 -0.9343 -0.2623 -0.0168
  945HK4     C879330   6.750   7.070   2.376 -0.6315 -0.3449  0.6006
  945HK4    C1179331   6.857   7.120   2.450  0.1316 -0.3908 -0.4645
  945HK4     H479332   6.954   7.136   2.401 -0.0470 -0.3614 -0.8113
  945HK4    C1279333   6.837   7.143   2.585  0.0151  0.4912 -0.6256
  945HK4     H579334   6.932   7.159   2.638  0.0911 -1.8293  0.0159
  945HK4    C1379335   6.714   7.114   2.643  0.4212 -0.1321 -0.0646
  945HK4     H679336   6.703   7.125   2.752 -0.1032  0.6969 -0.1933
  945HK4     C779337   6.778   7.011   2.243  0.1831 -0.4015  0.7949
  945HK4     O279338   6.883   7.039   2.186 -0.6234  0.4781 -0.2716
  945HK4     C479339   6.668   6.944   2.171  0.2874  0.0143  0.2414
  945HK4     C379340   6.703   6.874   2.056 -0.2682  0.0399  0.0533
  945HK4     H379341   6.808   6.843   2.044 -0.8103 -1.9570  0.3491
  945HK4     C279342   6.605   6.839   1.964  0.0906 -0.4861 -0.1316
  945HK4     H279343   6.633   6.826   1.858 -1.1136  0.0841 -0.5365
  945HK4     C179344   6.473   6.872   1.991  0.1564 -0.2758 -0.0625
  945HK4     H179345   6.391   6.847   1.922 -0.9899  0.4919  1.0012
  945HK4     C679346   6.440   6.946   2.106 -0.0900 -0.2378 -0.1556
  945HK4     C579347   6.535   6.982   2.202 -0.0037 -0.7538 -0.0464
  945HK4    C1079348   6.509   7.027   2.341 -0.6567  0.0182 -0.4162
  945HK4     O179349   6.399   7.076   2.369 -0.6254  0.0640 -0.3758
  945HK4    C1679350   6.295   6.957   2.124 -0.0992 -0.4832 -0.0901
  945HK4    C1579351   6.202   6.851   2.118 -0.1975 -0.3730 -0.5633
  945HK4     H779352   6.245   6.750   2.114  2.0735  0.5129  0.5287
  945HK4    C2079353   6.065   6.867   2.134 -0.0905 -0.0198  0.0136
  945HK4     H979354   6.006   6.779   2.110  1.9596 -1.5187  0.4147
  945HK4    C1979355   6.009   6.993   2.157  0.0582 -0.0168  0.3653
  945HK4    C1879356   6.100   7.106   2.159 -0.1526  0.1466  0.6889
  945HK4    C1779357   6.235   7.081   2.141 -0.4502 -0.5670 -0.6700
  945HK4     H879358   6.295   7.171   2.155 -0.9988 -0.4386  0.9533
  945HK4     N179359   6.028   7.223   2.190 -0.0915  0.3048  0.2369
  945HK4    C2179360   5.896   7.185   2.222 -0.0792  0.0113 -0.0591
  945HK4    C2279361   5.881   7.041   2.207 -0.2025  0.0548 -0.3599
  945HK4    C2679362   5.759   6.978   2.228  0.2671 -0.5591  0.5499
  945HK4    H1379363   5.741   6.871   2.227  0.5651 -0.6158 -3.0403
  945HK4    C2579364   5.650   7.060   2.256  0.2750 -0.2874 -0.1957
  945HK4    H1279365   5.552   7.020   2.281  0.3549 -0.9375 -0.9210
  945HK4    C2479366   5.660   7.197   2.277 -0.1198 -0.3463  0.3757
  945HK4    H1179367   5.567   7.255   2.269  0.5294  0.8950  1.5848
  945HK4    C2379368   5.784   7.257   2.261 -0.2223 -0.2373 -0.0074
  945HK4    H1079369   5.796   7.358   2.300 -0.5233 -0.9890  2.0789
  945HK4    C3979370   6.076   7.343   2.245 -0.0450  0.2642  0.2808
  945HK4    C4179371   6.025   7.468   2.205  0.0330  0.3038  0.3028
  945HK4    H2179372   5.940   7.474   2.137  1.5685 -0.4080 -1.7303
  945HK4    C4279373   6.067   7.590   2.259  0.8792  0.4764 -0.7439
  945HK4    H2279374   6.038   7.689   2.222  3.7294  1.7701  0.2950
  945HK4    C4379375   6.174   7.587   2.348  0.4430 -0.0298 -0.2344
  945HK4    H2379376   6.189   7.678   2.406 -0.7706 -1.0440  1.7431
  945HK4    C4479377   6.237   7.468   2.382  0.2095 -0.2103 -0.4284
  945HK4    H2479378   6.329   7.465   2.442 -0.1017 -0.5364  0.0341
  945HK4    C4579379   6.179   7.349   2.341  0.6764 -0.4334 -0.4404
  945HK4    H2579380   6.224   7.260   2.388  0.0702 -0.3550  0.3007
  946HK4    H2879381   7.928   6.105   5.443 -0.1066 -0.2831  0.0916
  946HK4    C4879382   7.996   6.020   5.434 -0.0036 -0.1859 -0.0641
  946HK4    C4779383   7.947   5.913   5.359 -0.4437 -0.1197  0.1243
  946HK4    H2779384   7.841   5.904   5.330 -0.5103  1.4928 -0.1745
  946HK4    C4679385   8.032   5.806   5.335 -0.7179 -0.4330  0.5415
  946HK4    H2679386   8.014   5.740   5.249  1.2246 -2.1568  1.4285
  946HK4    C4079387   8.162   5.805   5.389 -0.4414  0.2428 -0.0856
  946HK4    C5079388   8.203   5.911   5.472  0.4563  0.1552 -0.4213
  946HK4    H3079389   8.299   5.909   5.528  0.6944  0.1175 -0.8337
  946HK4    C4979390   8.119   6.018   5.498  0.0560 -0.2120 -0.1823
  946HK4    H2979391   8.136   6.088   5.581 -0.6495  1.4017 -1.3618
  946HK4     N279392   8.239   5.689   5.398 -0.3692  0.3263  0.4405
  946HK4    C3079393   8.192   5.558   5.375 -0.1171  0.3601 -0.2797
  946HK4    C2979394   8.067   5.501   5.394  0.0901 -0.2177 -0.6167
  946HK4    H1579395   7.998   5.564   5.449  2.2911 -1.0956  3.3250
  946HK4    C2879396   8.039   5.369   5.359 -0.3331 -0.2143 -0.2871
  946HK4    C2779397   8.141   5.287   5.307  0.0947  0.4089 -0.4402
  946HK4    H1479398   8.131   5.177   5.310  0.2589  0.3496 -1.7675
  946HK4    C3279399   8.264   5.344   5.277  0.0050  0.5468 -0.5440
  946HK4    H1679400   8.334   5.280   5.224 -1.0912 -0.4624 -0.7969
  946HK4    C3179401   8.290   5.478   5.304 -0.0557  0.5265 -0.3805
  946HK4    C3479402   8.409   5.560   5.291  0.3864 -0.0394  0.1061
  946HK4    C3379403   8.375   5.684   5.359 -0.4452 -0.3541  0.2669
  946HK4    C3579404   8.480   5.770   5.388 -0.6231  0.2270 -0.7945
  946HK4    H1779405   8.465   5.874   5.417  1.4197 -0.2543  2.2168
  946HK4    C3679406   8.608   5.738   5.344 -0.5878  0.0287 -0.5468
  946HK4    H1879407   8.696   5.803   5.351  0.1510 -0.9112 -0.8798
  946HK4    C3779408   8.635   5.620   5.276  0.4164 -0.2367  0.3037
  946HK4    H1979409   8.735   5.601   5.237  0.2636 -0.2133 -0.0986
  946HK4    C3879410   8.537   5.524   5.250  0.3670 -0.1421  0.1360
  946HK4    H2079411   8.547   5.433   5.191  1.1626  1.3311 -2.0757
  946HK4    C1479412   7.921   5.317   5.430  0.0850  0.0897  0.6424
  946HK4     C979413   7.907   5.191   5.488 -0.5005  0.0770  0.4860
  946HK4     C879414   7.779   5.138   5.512 -0.3427 -0.5066  0.0663
  946HK4    C1179415   7.665   5.208   5.472 -0.1756 -0.4440 -0.3010
  946HK4     H479416   7.574   5.178   5.525  0.0958 -2.0345 -0.6991
  946HK4    C1279417   7.676   5.335   5.416 -0.3835 -0.5393 -0.5593
  946HK4     H579418   7.584   5.389   5.390  1.0158  2.4604  0.4752
  946HK4    C1379419   7.803   5.387   5.395 -0.2207 -0.4441  0.6004
  946HK4     H679420   7.806   5.490   5.357  1.6625 -1.0421 -0.9804
  946HK4     C779421   7.771   5.004   5.573 -0.0037 -0.2421  0.7009
  946HK4     O279422   7.682   4.985   5.656 -0.2380  0.4526  0.6116
  946HK4     C479423   7.889   4.915   5.581  0.0294 -0.2417  0.2027
  946HK4     C379424   7.870   4.778   5.594 -0.2570 -0.2564 -0.3321
  946HK4     H379425   7.774   4.739   5.557 -0.6936 -0.0160  0.5242
  946HK4     C279426   7.976   4.690   5.612 -0.1066 -0.0137 -0.0245
  946HK4     H279427   7.960   4.582   5.625  1.4213 -0.1543  0.8528
  946HK4     C179428   8.101   4.748   5.628 -0.1360  0.0153  0.1061
  946HK4     H179429   8.190   4.684   5.637  1.7286  2.2785 -1.5493
  946HK4     C679430   8.125   4.886   5.613 -0.1627 -0.0922 -0.9452
  946HK4     C579431   8.017   4.973   5.589 -0.1058  0.1425 -0.3604
  946HK4    C1079432   8.023   5.114   5.543 -0.2874  0.4465  0.5580
  946HK4     O179433   8.099   5.185   5.610  0.4747  0.3400 -0.1911
  946HK4    C1679434   8.263   4.931   5.592  0.0794 -0.4825 -0.1805
  946HK4    C1579435   8.344   4.841   5.520  0.2166 -0.0516 -0.5673
  946HK4     H779436   8.297   4.787   5.436 -0.4892  2.0379 -1.5478
  946HK4    C2079437   8.482   4.841   5.528  0.1891  0.1466 -0.0551
  946HK4     H979438   8.531   4.789   5.446 -1.1995 -1.9774  0.4329
  946HK4    C1979439   8.548   4.928   5.615  0.1208  0.0750  0.0678
  946HK4    C1879440   8.462   5.016   5.692  0.1269  0.0915  0.0570
  946HK4    C1779441   8.324   5.021   5.679  0.1085 -0.6574 -0.0165
  946HK4     H879442   8.265   5.074   5.754  1.2836 -0.8180  1.0412
  946HK4     N179443   8.532   5.083   5.795  0.0029  0.4151 -0.0672
  946HK4    C2179444   8.665   5.039   5.783 -0.0520  0.1681  0.2262
  946HK4    C2279445   8.676   4.935   5.682 -0.0175  0.0689  0.3294
  946HK4    C2679446   8.792   4.860   5.670  0.1628  0.4325 -0.2035
  946HK4    H1379447   8.808   4.804   5.578  1.2282  0.5027 -0.0669
  946HK4    C2579448   8.889   4.891   5.765  0.2110 -0.5138  0.0636
  946HK4    H1279449   8.984   4.839   5.763 -0.4954 -1.7928 -3.0407
  946HK4    C2479450   8.878   4.988   5.864 -0.2946 -0.0119 -0.4759
  946HK4    H1179451   8.963   5.011   5.930 -0.6639  2.3373 -0.7786
  946HK4    C2379452   8.765   5.068   5.876  0.1757  0.6214 -0.1624
  946HK4    H1079453   8.777   5.163   5.926 -1.1482  1.0211 -0.5699
  946HK4    C3979454   8.498   5.213   5.834  0.2259  0.5670 -0.3828
  946HK4    C4179455   8.559   5.282   5.941 -0.4225 -0.0602  0.3953
  946HK4    H2179456   8.591   5.231   6.033 -1.3131 -0.2840  0.5822
  946HK4    C4279457   8.556   5.420   5.956 -0.0300  0.0822 -0.7529
  946HK4    H2279458   8.593   5.466   6.049 -2.5840  0.8874 -0.1097
  946HK4    C4379459   8.489   5.499   5.863  0.2313  0.3598 -0.7032
  946HK4    H2379460   8.502   5.607   5.871  0.5821  0.1828  1.7209
  946HK4    C4479461   8.415   5.436   5.764 -0.1021  0.0998 -0.2929
  946HK4    H2479462   8.347   5.500   5.706 -0.6491 -0.1659  0.0596
  946HK4    C4579463   8.421   5.298   5.752 -0.9390  0.0198  0.1265
  946HK4    H2579464   8.381   5.259   5.657  3.3018  0.6253 -2.0415
  947HK4    H2879465   9.319   2.787   0.336 -0.6363 -0.3061 -0.0510
  947HK4    C4879466   9.246   2.779   0.417 -0.5059  0.3702  0.1394
  947HK4    C4779467   9.225   2.869   0.520  0.0508  0.4553  0.1837
  947HK4    H2779468   9.278   2.965   0.529 -0.4862  0.6571  1.4025
  947HK4    C4679469   9.145   2.827   0.626  0.5208 -0.0176  0.3513
  947HK4    H2679470   9.096   2.907   0.683  0.0842 -1.1741  1.6200
  947HK4    C4079471   9.087   2.699   0.637  0.2197  0.1010  0.1389
  947HK4    C5079472   9.109   2.613   0.528  1.1496 -0.5118  0.8156
  947HK4    H3079473   9.068   2.511   0.534 -0.3439  0.0835  0.7632
  947HK4    C4979474   9.187   2.653   0.420 -0.2849  0.2637  0.0545
  947HK4    H2979475   9.189   2.582   0.336 -1.3034 -0.2673  0.4771
  947HK4     N279476   9.041   2.651   0.760  0.0454 -0.5252 -0.1706
  947HK4    C3079477   9.078   2.689   0.891 -0.5225  0.2983 -0.2472
  947HK4    C2979478   9.169   2.788   0.925 -0.3021  0.0103  0.0020
  947HK4    H1579479   9.248   2.821   0.857  0.6316  1.2699  1.6354
  947HK4    C2879480   9.165   2.845   1.052 -0.3031  0.2843 -0.1195
  947HK4    C2779481   9.062   2.801   1.137 -0.3294  0.3012 -0.1412
  947HK4    H1479482   9.039   2.866   1.223 -3.0269  0.2909 -0.7934
  947HK4    C3279483   8.975   2.697   1.106 -0.2337  0.2136 -0.1119
  947HK4    H1679484   8.913   2.664   1.189  0.7381 -0.9989  0.1543
  947HK4    C3179485   8.984   2.630   0.984  0.0155 -0.0775  0.0644
  947HK4    C3479486   8.890   2.549   0.909 -0.1648  0.2534 -0.0647
  947HK4    C3379487   8.924   2.573   0.770 -0.3402  0.0543 -0.1413
  947HK4    C3579488   8.836   2.526   0.673 -0.2758  0.1554 -0.2470
  947HK4    H1779489   8.850   2.560   0.570  0.6960 -0.2459 -0.2501
  947HK4    C3679490   8.714   2.470   0.706  0.1442 -0.4931  0.2114
  947HK4    H1879491   8.636   2.465   0.629  0.0929  1.4355  0.1195
  947HK4    C3779492   8.679   2.456   0.840  0.0739  0.1487  0.2592
  947HK4    H1979493   8.578   2.426   0.870 -0.5166  1.7797  0.0041
  947HK4    C3879494   8.769   2.489   0.941  0.1196 -0.1286  0.3095
  947HK4    H2079495   8.738   2.466   1.043 -1.2303  0.9112  0.1579
  947HK4    C1479496   9.286   2.900   1.114 -0.2834  0.1960 -0.0837
  947HK4     C979497   9.324   2.888   1.249  0.6583 -0.6713 -0.4164
  947HK4     C879498   9.412   2.978   1.312 -0.3411  0.0436 -0.0298
  947HK4    C1179499   9.480   3.067   1.229 -0.2626 -0.0177 -0.0330
  947HK4     H479500   9.555   3.141   1.261 -0.8583 -0.1844  1.8118
  947HK4    C1279501   9.455   3.081   1.093  0.2253 -0.1500 -0.1348
  947HK4     H579502   9.509   3.152   1.029 -0.3902  1.4861  1.1147
  947HK4    C1379503   9.356   2.999   1.042  0.0269  0.0213 -0.0276
  947HK4     H679504   9.311   3.021   0.944 -1.7599  0.0628  0.7746
  947HK4     C779505   9.442   2.963   1.456  0.2345 -0.1184 -0.1655
  947HK4     O279506   9.520   3.045   1.504  0.3039 -0.2358 -0.0745
  947HK4     C479507   9.373   2.862   1.541  0.1959 -0.0873 -0.1613
  947HK4     C379508   9.382   2.873   1.679  0.3860 -0.1430 -0.1692
  947HK4     H379509   9.458   2.938   1.726  0.7003 -0.8021  0.2352
  947HK4     C279510   9.289   2.798   1.749  0.2700  0.0835 -0.0842
  947HK4     H279511   9.307   2.788   1.857 -0.2943 -1.5892 -0.1268
  947HK4     C179512   9.200   2.713   1.683  0.6548 -0.4783  0.1148
  947HK4     H179513   9.106   2.696   1.737  1.2463 -0.7055  1.0901
  947HK4     C679514   9.197   2.689   1.545 -0.0139  0.0780  0.0286
  947HK4     C579515   9.287   2.771   1.476 -0.4091  0.4196 -0.0749
  947HK4    C1079516   9.284   2.768   1.327 -0.2275 -0.1535 -0.0674
  947HK4     O179517   9.324   2.665   1.274  0.2249 -0.3753  0.6944
  947HK4    C1679518   9.079   2.615   1.498  0.2357  0.0135 -0.5117
  947HK4    C1579519   8.947   2.635   1.543  0.3172 -0.4187 -0.0788
  947HK4     H779520   8.922   2.725   1.602  0.1338 -0.0493 -0.7180
  947HK4    C2079521   8.843   2.551   1.504  0.1295 -0.0348 -0.4164
  947HK4     H979522   8.744   2.573   1.543 -0.0058 -0.2785 -0.6268
  947HK4    C1979523   8.863   2.442   1.420 -0.2702 -0.1334 -0.3862
  947HK4    C1879524   8.999   2.419   1.374 -0.2947 -0.4309 -0.3183
  947HK4    C1779525   9.100   2.502   1.420 -0.3626 -0.7208  0.3643
  947HK4     H879526   9.201   2.490   1.380  0.3528  2.7386  0.9429
  947HK4     N179527   9.000   2.332   1.262  0.1763 -0.6140 -0.1737
  947HK4    C2179528   8.866   2.292   1.245  0.0312 -0.1928 -0.0456
  947HK4    C2279529   8.779   2.350   1.345 -0.2084 -0.3923 -0.1347
  947HK4    C2679530   8.643   2.325   1.349 -0.2682 -0.0881 -0.2161
  947HK4    H1379531   8.573   2.365   1.423 -0.5274  1.0436 -1.0532
  947HK4    C2579532   8.592   2.236   1.255 -0.1546 -0.0965 -0.2699
  947HK4    H1279533   8.485   2.217   1.263 -0.1912 -1.2812 -2.8717
  947HK4    C2479534   8.669   2.182   1.152  0.4808 -0.1243  0.2204
  947HK4    H1179535   8.626   2.102   1.091  1.0058  0.1094 -0.4563
  947HK4    C2379536   8.804   2.215   1.146  0.4208 -0.0030 -0.4419
  947HK4    H1079537   8.856   2.190   1.054  0.2433 -0.8992 -0.3022
  947HK4    C3979538   9.108   2.283   1.188  0.0441 -0.3360 -0.5513
  947HK4    C4179539   9.228   2.278   1.262 -0.3393 -0.1213  0.0993
  947HK4    H2179540   9.229   2.225   1.359  1.5938 -1.1988 -0.4745
  947HK4    C4279541   9.351   2.310   1.205 -0.1258  0.0534  0.6615
  947HK4    H2279542   9.429   2.332   1.279 -0.8409 -2.1934  2.1450
  947HK4    C4379543   9.361   2.333   1.069  0.1779  0.5321  0.7649
  947HK4    H2379544   9.454   2.367   1.022 -0.4017 -0.2795 -1.0529
  947HK4    C4479545   9.247   2.331   0.989  0.3978 -0.1907  0.4668
  947HK4    H2479546   9.249   2.347   0.880  0.3511  4.7432  1.0991
  947HK4    C4579547   9.125   2.309   1.051 -0.1859  0.5336 -0.4190
  947HK4    H2579548   9.041   2.313   0.980 -0.8305  1.7502  0.4009
  948HK4    H2879549   4.338   8.598   6.394 -1.9381 -0.4266 -1.5551
  948HK4    C4879550   4.326   8.693   6.447  0.1568 -0.8067 -0.3414
  948HK4    C4779551   4.268   8.803   6.385 -0.5929 -0.6514  0.6238
  948HK4    H2779552   4.255   8.794   6.276  3.5489 -1.5242  0.1097
  948HK4    C4679553   4.250   8.924   6.449  0.1023 -0.0137 -0.3657
  948HK4    H2679554   4.186   9.003   6.407 -2.8319 -2.2351 -0.2670
  948HK4    C4079555   4.288   8.947   6.583  0.1265  0.0375 -0.3815
  948HK4    C5079556   4.341   8.830   6.642 -0.9346 -0.1153  0.2711
  948HK4    H3079557   4.377   8.842   6.745 -1.1471 -2.9263  0.7124
  948HK4    C4979558   4.353   8.705   6.582 -0.4454  0.2021 -0.3114
  948HK4    H2979559   4.369   8.615   6.644  1.2965 -0.6669 -1.9862
  948HK4     N279560   4.323   9.075   6.627  0.3652 -0.2806  0.3598
  948HK4    C3079561   4.319   9.111   6.764 -0.5226  0.5357  0.1298
  948HK4    C2979562   4.254   9.054   6.873  0.1248 -0.0109  0.2340
  948HK4    H1579563   4.164   8.994   6.861  0.2952 -0.2604  0.2017
  948HK4    C2879564   4.285   9.085   7.005 -0.2667  0.5751  0.1919
  948HK4    C2779565   4.364   9.200   7.029  0.4745 -0.0584  0.8075
  948HK4    H1479566   4.390   9.243   7.126 -0.1003 -0.3116  1.0807
  948HK4    C3279567   4.424   9.271   6.926  0.5115 -0.6375  0.4255
  948HK4    H1679568   4.492   9.356   6.938 -1.5563  1.2062 -0.6880
  948HK4    C3179569   4.398   9.229   6.796 -0.4931  0.4779  0.2617
  948HK4    C3479570   4.450   9.266   6.666 -0.1897  0.3359  0.3426
  948HK4    C3379571   4.408   9.170   6.566 -0.6112  0.5672  0.2982
  948HK4    C3579572   4.441   9.187   6.432  0.5173 -0.2203  0.4648
  948HK4    H1779573   4.394   9.127   6.355 -0.9996 -0.5776  1.6446
  948HK4    C3679574   4.525   9.291   6.393 -0.0752  0.1565  0.1951
  948HK4    H1879575   4.562   9.286   6.289  2.3916 -1.2942  1.1195
  948HK4    C3779576   4.577   9.374   6.491  0.0949  0.4173 -0.1154
  948HK4    H1979577   4.658   9.445   6.473  0.0909  0.1658 -1.1448
  948HK4    C3879578   4.543   9.360   6.625 -0.4783  0.3623 -0.2653
  948HK4    H2079579   4.595   9.417   6.703 -1.0710 -0.8050  0.9989
  948HK4    C1479580   4.238   8.994   7.110 -0.3822  0.0169 -0.3412
  948HK4     C979581   4.248   9.023   7.247 -1.0949 -0.1744 -0.2411
  948HK4     C879582   4.279   8.923   7.341 -0.0221  0.2262 -0.1612
  948HK4    C1179583   4.302   8.794   7.295  0.4927  0.2833 -0.0757
  948HK4     H479584   4.358   8.726   7.361  0.1899  1.2409  1.1835
  948HK4    C1279585   4.274   8.756   7.165 -0.2809  0.1341  0.1323
  948HK4     H579586   4.285   8.650   7.137 -1.0466  0.3488 -1.0348
  948HK4    C1379587   4.246   8.858   7.074 -0.0895 -0.0289 -0.1064
  948HK4     H679588   4.229   8.825   6.971  0.8790 -2.0684  0.3534
  948HK4     C779589   4.279   8.951   7.486  0.0566  0.0527 -0.1276
  948HK4     O279590   4.296   8.860   7.568  0.0389 -0.0589 -0.2467
  948HK4     C479591   4.253   9.088   7.538 -0.3259 -0.1520  0.2241
  948HK4     C379592   4.271   9.123   7.671  0.7006 -0.0771  0.0725
  948HK4     H379593   4.263   9.046   7.749 -0.8108 -0.6843 -0.6657
  948HK4     C279594   4.281   9.255   7.713  0.3358 -0.0244  0.0051
  948HK4     H279595   4.282   9.282   7.819 -0.7032 -2.5051  0.6794
  948HK4     C179596   4.271   9.353   7.614  0.2958 -0.3229 -0.2849
  948HK4     H179597   4.320   9.448   7.638 -1.0019 -0.0760  1.5483
  948HK4     C679598   4.224   9.323   7.485  0.2746  0.0566 -0.3636
  948HK4     C579599   4.218   9.189   7.446  0.2766 -0.0733  0.0780
  948HK4    C1079600   4.197   9.151   7.303 -0.4731 -0.1192  0.1950
  948HK4     O179601   4.095   9.191   7.247 -0.3569  0.5461  0.4519
  948HK4    C1679602   4.207   9.438   7.394 -0.0730 -0.2654 -0.7047
  948HK4    C1579603   4.291   9.550   7.407 -0.2515 -0.1651 -0.4263
  948HK4     H779604   4.400   9.535   7.403  0.1174  1.4642  2.0275
  948HK4    C2079605   4.256   9.684   7.396  0.0805 -0.0655 -0.2926
  948HK4     H979606   4.330   9.763   7.411 -0.9407  0.4295  2.3085
  948HK4    C1979607   4.124   9.715   7.364  0.1561  0.1904 -0.3656
  948HK4    C1879608   4.038   9.602   7.333 -0.1663  0.4187 -0.2960
  948HK4    C1779609   4.076   9.472   7.361 -0.0354  0.5024 -0.0796
  948HK4     H879610   3.999   9.395   7.363  0.7382 -0.2900 -0.1804
  948HK4     N179611   3.904   9.643   7.313 -0.4230 -0.2426  0.0508
  948HK4    C2179612   3.906   9.782   7.339 -0.1587 -0.2373  0.0132
  948HK4    C2279613   4.037   9.830   7.375 -0.1406 -0.0393 -0.3190
  948HK4    C2679614   4.064   9.958   7.424 -0.4149 -0.0758 -0.0594
  948HK4    H1379615   4.159   9.997   7.461 -1.8183  2.9677  0.4934
  948HK4    C2579616   3.956  10.043   7.440 -0.6378 -0.4670  0.5131
  948HK4    H1279617   3.976  10.148   7.460  1.3417 -1.0245  1.5388
  948HK4    C2479618   3.827   9.996   7.413 -0.6949 -0.1768  0.2816
  948HK4    H1179619   3.744  10.041   7.468 -1.6117 -2.8506  1.1732
  948HK4    C2379620   3.801   9.873   7.354 -0.0673 -0.1052 -0.1471
  948HK4    H1079621   3.702   9.844   7.318  1.0174 -2.5337 -1.3538
  948HK4    C3979622   3.826   9.577   7.218  0.2610 -0.3258 -0.4594
  948HK4    C4179623   3.687   9.602   7.220  0.3898  0.3811 -0.1961
  948HK4    H2179624   3.636   9.637   7.312  1.2832  0.5639  0.2326
  948HK4    C4279625   3.613   9.595   7.103 -0.1162  0.1130  0.1384
  948HK4    H2279626   3.505   9.575   7.111  0.0640 -0.3065  1.7533
  948HK4    C4379627   3.674   9.553   6.985 -0.1605  0.2870  0.0535
  948HK4    H2379628   3.622   9.556   6.889 -0.0211  1.2174 -0.0045
  948HK4    C4479629   3.810   9.526   6.980 -0.0463  0.8722 -0.0683
  948HK4    H2479630   3.844   9.471   6.891  0.6748 -1.9879  1.9111
  948HK4    C4579631   3.883   9.531   7.098  0.6493  0.1669 -0.4650
  948HK4    H2579632   3.986   9.493   7.087  0.6968  0.2099 -0.1651
  949HK4    H2879633   2.381   8.380   9.691 -1.5454  1.2916 -2.1078
  949HK4    C4879634   2.457   8.458   9.689  0.0050 -0.1311  0.0649
  949HK4    C4779635   2.579   8.447   9.754 -0.0225  0.3854  0.2124
  949HK4    H2779636   2.602   8.353   9.808  0.9093 -1.6190 -3.4990
  949HK4    C4679637   2.675   8.539   9.715 -0.0992  0.3100 -0.1487
  949HK4    H2679638   2.773   8.536   9.765  0.4300  0.6709 -1.1361
  949HK4    C4079639   2.647   8.652   9.635  0.0010  0.4321 -0.0128
  949HK4    C5079640   2.518   8.665   9.580  0.0369 -0.0820 -0.2240
  949HK4    H3079641   2.483   8.744   9.511  0.9545  0.5313  0.0014
  949HK4    C4979642   2.426   8.563   9.604 -0.0989  0.2051  0.5158
  949HK4    H2979643   2.333   8.563   9.546  0.3978  0.8101 -0.3033
  949HK4     N279644   2.728   8.766   9.631  0.2225  0.2759 -0.0210
  949HK4    C3079645   2.810   8.806   9.738 -0.0304  0.4124  0.1222
  949HK4    C2979646   2.778   8.818   9.873  0.3063  0.1469  0.2281
  949HK4    H1579647   2.682   8.779   9.904 -0.1173  2.2098  1.6134
  949HK4    C2879648   2.858   8.884   9.967  0.2857 -0.3338  0.5870
  949HK4    C2779649   2.975   8.950   9.925  0.1059 -0.3464  0.0532
  949HK4    H1479650   3.049   8.975  10.003  1.9972  1.8477 -2.3462
  949HK4    C3279651   3.001   8.959   9.788  0.2813  0.0998  0.1155
  949HK4    H1679652   3.084   9.021   9.758  0.1179  0.3204  0.1159
  949HK4    C3179653   2.921   8.889   9.698  0.2681  0.0424  0.1702
  949HK4    C3479654   2.898   8.913   9.557  0.0659 -0.2634  0.1527
  949HK4    C3379655   2.785   8.831   9.519  0.0901 -0.0916 -0.3021
  949HK4    C3579656   2.730   8.849   9.393  0.0145  0.6357 -0.1734
  949HK4    H1779657   2.642   8.790   9.367 -1.0297  1.9065  0.3925
  949HK4    C3679658   2.792   8.941   9.310  0.1619  0.6044 -0.0963
  949HK4    H1879659   2.759   8.941   9.204 -0.4044 -2.6336  0.0440
  949HK4    C3779660   2.895   9.026   9.348 -0.1062  0.6928  0.4364
  949HK4    H1979661   2.926   9.100   9.274  2.4631  0.9351  1.6903
  949HK4    C3879662   2.955   9.007   9.472  0.1854 -0.3423  0.1440
  949HK4    H2079663   3.003   9.096   9.513 -0.9588  0.2648  0.1602
  949HK4    C1479664   2.800   8.903  10.100 -1.3915  0.4189 -0.2331
  949HK4     C979665   2.819   9.017  10.179  0.0637  0.1830 -0.2395
  949HK4     C879666   2.812   9.005  10.319 -0.2090  0.2240 -0.2509
  949HK4    C1179667   2.782   8.880  10.371  0.6356 -0.1311 -0.6256
  949HK4     H479668   2.792   8.866  10.480  0.1791 -0.4307 -0.6211
  949HK4    C1279669   2.757   8.766  10.296 -0.0141 -0.4124  0.0155
  949HK4     H579670   2.723   8.675  10.348  1.1962  1.0507  3.5211
  949HK4    C1379671   2.776   8.777  10.159  0.3299  0.2426  0.1117
  949HK4     H679672   2.751   8.698  10.087  0.7639  1.7047 -1.6737
  949HK4     C779673   2.820   9.124  10.407  0.6047 -0.0570  0.0599
  949HK4     O279674   2.847   9.125  10.527  0.3734 -0.8697  0.1193
  949HK4     C479675   2.822   9.257  10.343  0.3211 -0.0510  0.0700
  949HK4     C379676   2.813   9.376  10.415  0.1021  0.0993 -0.2006
  949HK4     H379677   2.779   9.379  10.520  0.4312  2.1974 -0.1332
  949HK4     C279678   2.838   9.500  10.358  0.4972 -0.0295 -0.3107
  949HK4     H279679   2.863   9.575  10.434 -3.4267  0.0202  1.0615
  949HK4     C179680   2.872   9.510  10.223  0.4449  0.2469 -0.3037
  949HK4     H179681   2.894   9.610  10.182  1.4408 -0.3668 -1.2752
  949HK4     C679682   2.888   9.394  10.146  0.1755  0.0066  0.0018
  949HK4     C579683   2.848   9.274  10.206 -0.4130  0.1740 -0.0456
  949HK4    C1079684   2.831   9.153  10.120  0.1090  0.2007 -0.1908
  949HK4     O179685   2.770   9.173  10.015 -0.3540 -0.3886 -0.0316
  949HK4    C1679686   2.975   9.412  10.029  0.0166 -0.0296 -0.1227
  949HK4    C1579687   3.048   9.305   9.974  0.1447  0.0007 -0.0129
  949HK4     H779688   3.074   9.218  10.036 -2.3066  0.3939  1.6134
  949HK4    C2079689   3.097   9.306   9.844  0.3211 -0.1702  0.0504
  949HK4     H979690   3.121   9.211   9.796 -3.7371 -1.2736  0.0023
  949HK4    C1979691   3.076   9.417   9.762  0.0685 -0.4036 -0.1992
  949HK4    C1879692   2.989   9.521   9.813  0.0999 -0.4205 -0.1069
  949HK4    C1779693   2.949   9.521   9.946  0.0540 -0.0186 -0.1169
  949HK4     H879694   2.899   9.611   9.982  0.8981  1.1266 -1.7421
  949HK4     N179695   2.970   9.620   9.714 -0.0318 -0.5603 -0.2216
  949HK4    C2179696   3.052   9.585   9.605  0.0154 -0.4268 -0.2285
  949HK4    C2279697   3.099   9.449   9.623  0.2986 -0.3208 -0.1415
  949HK4    C2679698   3.183   9.388   9.530  0.2357 -0.6135 -0.0039
  949HK4    H1379699   3.225   9.292   9.559 -1.1061 -1.3723 -0.5578
  949HK4    C2579700   3.225   9.465   9.422 -0.2431  0.0693  0.2876
  949HK4    H1279701   3.289   9.428   9.342  1.8371  0.2649  1.8499
  949HK4    C2479702   3.182   9.596   9.408 -0.6549 -0.0960 -0.0033
  949HK4    H1179703   3.210   9.648   9.315 -0.2856  0.4222  0.3995
  949HK4    C2379704   3.098   9.661   9.498  0.1222  0.3853  0.3834
  949HK4    H1079705   3.079   9.768   9.488  0.2076  0.2907 -0.8875
  949HK4    C3979706   2.847   9.684   9.691  0.2721  0.1440  0.0859
  949HK4    C4179707   2.850   9.801   9.612 -0.3716  0.3170  0.3126
  949HK4    H2179708   2.935   9.870   9.623  0.6401 -0.8638  0.0434
  949HK4    C4279709   2.745   9.838   9.529 -0.8368  0.0058  0.7593
  949HK4    H2279710   2.738   9.941   9.491 -2.7618  0.4417  2.2287
  949HK4    C4379711   2.632   9.758   9.520 -0.4493 -0.4033 -0.6546
  949HK4    H2379712   2.559   9.793   9.447  1.7943  2.7403 -1.5062
  949HK4    C4479713   2.623   9.643   9.597 -0.2166 -0.1862 -0.3028
  949HK4    H2479714   2.549   9.565   9.574 -1.7850  0.9768  0.7557
  949HK4    C4579715   2.729   9.608   9.681 -0.0903  0.7347 -0.0772
  949HK4    H2579716   2.707   9.542   9.766 -0.6997 -0.4794 -1.1576
  950HK4    H2879717   4.378   9.792   8.836 -0.0435 -1.4825 -0.6396
  950HK4    C4879718   4.339   9.839   8.747 -0.3389 -0.6249 -0.0548
  950HK4    C4779719   4.376   9.802   8.618 -1.2998 -1.1302 -0.1882
  950HK4    H2779720   4.445   9.717   8.603 -1.2056 -0.8716 -1.2744
  950HK4    C4679721   4.299   9.838   8.509  0.1229 -0.0648 -0.8536
  950HK4    H2679722   4.340   9.810   8.411  1.1341 -1.6856  0.0233
  950HK4    C4079723   4.178   9.909   8.523  0.2183 -0.0635  0.0093
  950HK4    C5079724   4.148   9.957   8.652 -0.3342 -0.2730 -0.0367
  950HK4    H3079725   4.051  10.004   8.674 -0.3579  0.9253 -2.4841
  950HK4    C4979726   4.232   9.928   8.759  0.1855  0.0514 -0.3590
  950HK4    H2979727   4.220   9.987   8.851 -2.7101 -1.3695  0.1992
  950HK4     N279728   4.085   9.919   8.418 -0.2194 -0.4705  0.3593
  950HK4    C3079729   4.077   9.823   8.315 -0.0643 -0.1886  0.0863
  950HK4    C2979730   4.102   9.687   8.324  0.3103 -0.1026  0.3484
  950HK4    H1579731   4.174   9.645   8.394 -0.4437  0.2519  1.3551
  950HK4    C2879732   4.040   9.605   8.231  0.7124  0.1804 -0.1739
  950HK4    C2779733   3.956   9.656   8.130  0.9733  0.5881 -0.1815
  950HK4    H1479734   3.912   9.600   8.046 -1.6716  0.6914  1.0895
  950HK4    C3279735   3.923   9.791   8.121  0.1378  0.3396 -1.0031
  950HK4    H1679736   3.853   9.829   8.046 -0.8539 -2.1001 -1.3375
  950HK4    C3179737   3.981   9.872   8.218 -0.2855 -0.6422  0.0735
  950HK4    C3479738   3.938  10.003   8.263 -0.0121 -0.4296 -0.2783
  950HK4    C3379739   4.014  10.036   8.383  0.2791 -0.4162 -0.4678
  950HK4    C3579740   4.001  10.164   8.433 -0.2953 -0.3582 -0.7545
  950HK4    H1779741   4.059  10.196   8.520 -0.6073 -0.2882 -0.5738
  950HK4    C3679742   3.919  10.259   8.372 -0.2178  0.3085  0.1601
  950HK4    H1879743   3.914  10.362   8.410 -0.5447  1.1271 -2.0526
  950HK4    C3779744   3.833  10.222   8.269  0.0269  0.2841 -0.0374
  950HK4    H1979745   3.753  10.286   8.230 -0.4081  0.7169  1.5318
  950HK4    C3879746   3.848  10.096   8.212  0.6765  0.3671 -0.0528
  950HK4    H2079747   3.808  10.080   8.112  2.3197 -0.6139 -0.5632
  950HK4    C1479748   4.084   9.465   8.216  0.3424  0.0642 -0.1711
  950HK4     C979749   4.064   9.384   8.103  0.2527  0.0567 -0.1548
  950HK4     C879750   4.059   9.243   8.108  0.5129  0.0480 -0.2169
  950HK4    C1179751   4.088   9.185   8.231  0.2554  0.2421 -0.0605
  950HK4     H479752   4.046   9.086   8.251  0.2319  0.3196  0.2774
  950HK4    C1279753   4.119   9.260   8.344 -0.5856 -0.1900  0.4561
  950HK4     H579754   4.151   9.205   8.433 -1.6239 -0.0402  0.9260
  950HK4    C1379755   4.103   9.398   8.338 -0.0649 -0.1558 -0.2311
  950HK4     H679756   4.125   9.455   8.429  0.7407  1.1134 -1.1994
  950HK4     C779757   4.020   9.161   7.991 -0.7917 -0.3043  0.4482
  950HK4     O279758   4.062   9.046   7.981 -0.1384 -0.0656  0.4315
  950HK4     C479759   3.982   9.233   7.867  0.2743 -0.0826  0.2402
  950HK4     C379760   3.916   9.168   7.763  0.1840  0.2112  0.1127
  950HK4     H379761   3.905   9.059   7.774 -1.4497  0.3180 -0.4814
  950HK4     C279762   3.883   9.226   7.642  0.3277  0.3801  0.1528
  950HK4     H279763   3.837   9.166   7.562  0.6337  0.6735 -0.2435
  950HK4     C179764   3.917   9.360   7.630 -0.2201  0.4753 -0.3828
  950HK4     H179765   3.884   9.402   7.533 -2.2915 -0.7205 -0.2184
  950HK4     C679766   3.986   9.433   7.729 -0.3460 -0.1881  0.1977
  950HK4     C579767   4.027   9.364   7.843  0.0844 -0.0354  0.1363
  950HK4    C1079768   4.075   9.437   7.964  0.2306  0.2408 -0.0869
  950HK4     O179769   4.170   9.512   7.945  0.6641 -0.2930 -0.0230
  950HK4    C1679770   3.947   9.575   7.728 -0.3409 -0.1853  0.6228
  950HK4    C1579771   3.815   9.618   7.701  0.1717  0.3469 -1.0981
  950HK4     H779772   3.742   9.537   7.693 -0.1538  0.1773  2.7172
  950HK4    C2079773   3.777   9.751   7.704 -0.0486  0.2640 -0.3086
  950HK4     H979774   3.670   9.773   7.697 -0.6602 -2.3114  0.6004
  950HK4    C1979775   3.875   9.848   7.720 -0.1091  0.3144 -0.2416
  950HK4    C1879776   4.015   9.812   7.735 -0.3123 -0.1584  0.5733
  950HK4    C1779777   4.043   9.675   7.734 -0.3256 -0.1624  0.0827
  950HK4     H879778   4.146   9.640   7.731 -0.3220 -0.1024 -0.4264
  950HK4     N179779   4.086   9.918   7.794  0.2016  0.3292 -0.9071
  950HK4    C2179780   3.999  10.027   7.814  0.0450  0.1072 -0.3737
  950HK4    C2279781   3.868   9.985   7.766 -0.0696  0.3159 -0.2425
  950HK4    C2679782   3.760  10.069   7.791  0.0738  0.4691 -0.1245
  950HK4    H1379783   3.668  10.058   7.733  0.5622 -0.1736 -0.7903
  950HK4    C2579784   3.786  10.187   7.858  0.7434  0.2989 -0.0838
  950HK4    H1279785   3.700  10.251   7.879 -0.4596 -0.7225 -1.8735
  950HK4    C2479786   3.912  10.233   7.895  0.9133  0.0653 -0.3859
  950HK4    H1179787   3.925  10.335   7.932  2.4773 -0.5088  0.7289
  950HK4    C2379788   4.022  10.149   7.876  0.6699 -0.4636  0.5265
  950HK4    H1079789   4.119  10.181   7.913  1.2824 -1.6182 -0.0719
  950HK4    C3979790   4.225   9.915   7.807  0.1469  0.1998 -0.3304
  950HK4    C4179791   4.305   9.843   7.715  0.3906  0.2538 -0.1594
  950HK4    H2179792   4.278   9.844   7.608 -0.3776  1.7778  0.0207
  950HK4    C4279793   4.415   9.768   7.755 -0.0659 -0.4924 -0.2950
  950HK4    H2279794   4.450   9.684   7.693  0.4200 -0.6278  0.1645
  950HK4    C4379795   4.462   9.776   7.885 -0.5477 -0.3396 -0.1291
  950HK4    H2379796   4.560   9.740   7.915 -1.1087 -1.7762  0.0215
  950HK4    C4479797   4.385   9.847   7.977 -0.1533 -0.3076  0.1730
  950HK4    H2479798   4.399   9.825   8.084 -1.1590 -0.9134  0.1889
  950HK4    C4579799   4.273   9.920   7.940  0.1269 -0.1155 -0.3114
  950HK4    H2579800   4.233   9.989   8.016 -1.3252 -0.0855 -1.0912
  951HK4    H2879801   2.643   5.441  10.648 -1.1433 -1.2281 -1.0044
  951HK4    C4879802   2.690   5.459  10.551 -0.1068 -0.1138 -0.2984
  951HK4    C4779803   2.818   5.513  10.548 -0.0332 -0.2626  0.1288
  951HK4    H2779804   2.869   5.537  10.643 -0.9540  0.2553  0.4970
  951HK4    C4679805   2.875   5.547  10.426 -0.0577 -0.0328  0.1833
  951HK4    H2679806   2.963   5.614  10.424 -0.9481  1.1202 -0.5565
  951HK4    C4079807   2.807   5.520  10.306  0.0357 -0.2950  0.1901
  951HK4    C5079808   2.678   5.464  10.317 -0.1255  0.1018  0.3168
  951HK4    H3079809   2.630   5.418  10.230  0.2675 -1.2597  0.8068
  951HK4    C4979810   2.616   5.431  10.437 -0.2982 -0.7722 -0.0144
  951HK4    H2979811   2.506   5.426  10.433 -0.3683  0.5384  0.1393
  951HK4     N279812   2.823   5.609  10.200  0.0745 -0.0083  0.4391
  951HK4    C3079813   2.834   5.750  10.206  0.1878  0.0030  0.0077
  951HK4    C2979814   2.784   5.835  10.304  0.2808  0.3541 -0.2476
  951HK4    H1579815   2.758   5.787  10.398  1.9485 -0.2275 -0.0745
  951HK4    C2879816   2.778   5.973  10.291  0.0370  0.3458 -0.2173
  951HK4    C2779817   2.831   6.028  10.173  0.7887  0.3398  0.1142
  951HK4    H1479818   2.842   6.135  10.152 -1.2487  0.9835  2.1489
  951HK4    C3279819   2.875   5.946  10.069  0.0522  0.1801 -0.0779
  951HK4    H1679820   2.924   5.986   9.980  1.7389 -1.5456  0.0533
  951HK4    C3179821   2.868   5.808  10.078  0.2097  0.1825  0.0939
  951HK4    C3479822   2.883   5.698   9.984  0.0036 -0.1591  0.4636
  951HK4    C3379823   2.844   5.583  10.063 -0.6789 -0.0178  0.3267
  951HK4    C3579824   2.831   5.462   9.997  0.2887  0.0448  0.0203
  951HK4    H1779825   2.795   5.370  10.044 -0.8438  0.3339 -0.2573
  951HK4    C3679826   2.847   5.463   9.859 -0.4535 -0.0075 -0.0668
  951HK4    H1879827   2.855   5.370   9.801 -0.3028 -0.5328  0.8019
  951HK4    C3779828   2.867   5.576   9.780 -0.6536  0.2366  0.2246
  951HK4    H1979829   2.837   5.579   9.675 -1.1686  0.8008  0.3864
  951HK4    C3879830   2.892   5.696   9.845  0.2891 -0.0930  0.4773
  951HK4    H2079831   2.904   5.785   9.784 -0.3949 -1.3713 -1.5468
  951HK4    C1479832   2.695   6.060  10.377 -0.1608  0.2145 -0.2728
  951HK4     C979833   2.634   6.181  10.342 -0.2621  0.2951  0.1895
  951HK4     C879834   2.624   6.292  10.429  0.0907  0.3528  0.1573
  951HK4    C1179835   2.656   6.269  10.562 -0.1167 -0.1891  0.1159
  951HK4     H479836   2.631   6.347  10.636  1.5924 -0.4274  0.9587
  951HK4    C1279837   2.701   6.146  10.608 -0.1283 -0.1011  0.3614
  951HK4     H579838   2.696   6.118  10.714 -2.3622 -2.7055 -0.3776
  951HK4    C1379839   2.730   6.048  10.513 -0.4846  0.3191 -0.1819
  951HK4     H679840   2.726   5.946  10.553  1.6143 -0.0449 -0.8535
  951HK4     C779841   2.600   6.428  10.374 -0.5603  0.3733  0.4873
  951HK4     O279842   2.654   6.524  10.429  0.0034  0.4546 -0.1988
  951HK4     C479843   2.572   6.439  10.229  0.3191 -0.1767  0.2654
  951HK4     C379844   2.521   6.560  10.181  0.0040 -0.4764 -0.1569
  951HK4     H379845   2.542   6.656  10.231  2.2256  0.1742 -2.2298
  951HK4     C279846   2.483   6.575  10.048 -0.0160 -0.6179 -0.1684
  951HK4     H279847   2.454   6.676  10.017 -0.2540  0.2101  2.5987
  951HK4     C179848   2.500   6.466   9.963 -0.0610 -0.8157  0.0780
  951HK4     H179849   2.480   6.489   9.858  1.1393  2.5672  0.5107
  951HK4     C679850   2.545   6.339  10.005 -0.7199 -1.0080  0.2195
  951HK4     C579851   2.570   6.328  10.142  0.0134 -0.0902  0.1599
  951HK4    C1079852   2.579   6.193  10.204 -0.0713 -0.1366  0.0742
  951HK4     O179853   2.509   6.098  10.169  0.2647 -0.2345 -0.3297
  951HK4    C1679854   2.621   6.261   9.906  0.6462  0.2344  0.2717
  951HK4    C1579855   2.709   6.322   9.814  0.0497  0.5573 -0.0856
  951HK4     H779856   2.743   6.423   9.840 -1.7377  1.0711  0.3027
  951HK4    C2079857   2.760   6.257   9.702 -0.0599  0.4521 -0.0761
  951HK4     H979858   2.831   6.304   9.634 -2.2792 -0.5219 -3.1892
  951HK4    C1979859   2.726   6.124   9.679  0.4998  0.2515  0.2412
  951HK4    C1879860   2.625   6.064   9.765  0.1361 -0.0664 -0.4111
  951HK4    C1779861   2.573   6.135   9.872  0.3684  0.6169 -0.7527
  951HK4     H879862   2.485   6.095   9.923  2.0051  0.2664  1.8602
  951HK4     N179863   2.605   5.928   9.733  0.0513 -0.0884 -0.2640
  951HK4    C2179864   2.694   5.895   9.629 -0.2055 -0.3032 -0.4147
  951HK4    C2279865   2.759   6.017   9.587 -0.2773 -0.0277  0.2734
  951HK4    C2679866   2.855   6.014   9.486 -0.7401 -0.2885 -0.1544
  951HK4    H1379867   2.898   6.102   9.440 -0.7233 -0.7557 -1.0514
  951HK4    C2579868   2.886   5.891   9.429 -1.1215  0.1569 -1.3380
  951HK4    H1279869   2.956   5.893   9.345  0.8455 -0.1118  0.2613
  951HK4    C2479870   2.826   5.771   9.464 -0.0475 -0.1044 -0.3442
  951HK4    H1179871   2.874   5.677   9.431  0.3578  0.1345 -0.4382
  951HK4    C2379872   2.728   5.778   9.562 -0.3435 -0.2214 -0.6271
  951HK4    H1079873   2.680   5.683   9.586  2.3211 -1.1548  1.2790
  951HK4    C3979874   2.547   5.826   9.809 -0.6469  0.7417  0.3282
  951HK4    C4179875   2.481   5.709   9.764  0.2882  0.2720  0.1738
  951HK4    H2179876   2.470   5.696   9.656  0.5054  0.9815  0.0639
  951HK4    C4279877   2.435   5.607   9.847 -0.2319  0.2506 -0.1398
  951HK4    H2279878   2.360   5.539   9.805 -1.0951  2.1145 -1.7322
  951HK4    C4379879   2.445   5.623   9.985 -0.5897  0.1156 -0.0967
  951HK4    H2379880   2.429   5.535  10.048 -0.3116 -0.7191 -1.1697
  951HK4    C4479881   2.512   5.733  10.036 -0.0875 -0.2663  0.0691
  951HK4    H2479882   2.511   5.749  10.145 -0.1160 -0.0284  0.0350
  951HK4    C4579883   2.564   5.829   9.949 -0.8986  0.4491  0.3706
  951HK4    H2579884   2.630   5.910   9.985  0.7787 -1.3387  1.4389
  952HK4    H2879885   8.011   8.089   1.819  0.4323  0.1926 -1.1409
  952HK4    C4879886   7.960   8.177   1.858  0.4596 -0.0741 -0.4896
  952HK4    C4779887   8.017   8.244   1.965 -0.1533 -0.8593  0.3347
  952HK4    H2779888   8.116   8.217   2.005  1.5342  3.2278 -0.7807
  952HK4    C4679889   7.944   8.343   2.030  0.0877 -0.2843 -0.2582
  952HK4    H2679890   7.983   8.408   2.110 -3.2880  2.1145 -0.4789
  952HK4    C4079891   7.809   8.367   1.995  0.2053  0.0497 -0.4810
  952HK4    C5079892   7.761   8.302   1.880 -0.8107 -0.2501  0.1081
  952HK4    H3079893   7.660   8.329   1.845 -1.4793 -0.3021  1.9736
  952HK4    C4979894   7.833   8.207   1.809  0.1743  0.2400  0.4433
  952HK4    H2979895   7.790   8.154   1.723  1.1183  0.6969 -0.3129
  952HK4     N279896   7.717   8.458   2.049  0.4064 -0.1630  0.2345
  952HK4    C3079897   7.771   8.579   2.096 -0.3621  0.2428  0.0751
  952HK4    C2979898   7.873   8.661   2.047 -0.3908  0.1611 -0.1214
  952HK4    H1579899   7.907   8.645   1.945 -1.8728 -0.5682 -0.5194
  952HK4    C2879900   7.926   8.771   2.112 -0.1428 -0.1544  0.2180
  952HK4    C2779901   7.854   8.814   2.225 -0.3910  0.1098 -0.0412
  952HK4    H1479902   7.872   8.920   2.251  2.0716 -0.0712 -0.8265
  952HK4    C3279903   7.749   8.743   2.281  0.1082 -0.3499  0.3194
  952HK4    H1679904   7.697   8.779   2.370 -1.9996  0.0694 -1.0395
  952HK4    C3179905   7.709   8.625   2.218 -0.8593  0.2339 -0.1715
  952HK4    C3479906   7.610   8.523   2.245 -0.3106 -0.1984  0.2307
  952HK4    C3379907   7.615   8.423   2.139  0.3422 -0.1125  0.1803
  952HK4    C3579908   7.540   8.307   2.147 -0.0436  0.1264  0.0468
  952HK4    H1779909   7.520   8.258   2.052 -0.6592 -1.4241  0.9521
  952HK4    C3679910   7.463   8.283   2.260 -0.5900  0.6458 -0.2156
  952HK4    H1879911   7.390   8.201   2.261 -0.6206  0.6620 -0.8563
  952HK4    C3779912   7.457   8.381   2.359  0.7629 -0.3202  0.8368
  952HK4    H1979913   7.398   8.362   2.448 -1.4704 -1.6670 -0.8706
  952HK4    C3879914   7.531   8.499   2.357  0.2195  0.0143  0.6538
  952HK4    H2079915   7.504   8.569   2.436  1.4940  1.6885 -0.3563
  952HK4    C1479916   8.064   8.817   2.089 -0.2349  0.3172  0.5979
  952HK4     C979917   8.145   8.868   2.191 -0.0009  0.1761  0.4864
  952HK4     C879918   8.236   8.973   2.167  0.0420  0.1137  0.3973
  952HK4    C1179919   8.255   9.023   2.038 -0.7974 -0.8311 -0.1007
  952HK4     H479920   8.304   9.122   2.030  0.2438 -1.3116  0.2651
  952HK4    C1279921   8.186   8.963   1.933  0.5020 -1.1540 -0.7807
  952HK4     H579922   8.191   8.996   1.829  2.4998  1.3555  0.0513
  952HK4    C1379923   8.089   8.867   1.960 -0.4273  0.1095  0.4786
  952HK4     H679924   8.051   8.810   1.874  3.0298  0.3768 -1.3369
  952HK4     C779925   8.308   9.041   2.277  0.4346 -0.0829  0.2662
  952HK4     O279926   8.347   9.157   2.266 -0.0445  0.0690  0.1638
  952HK4     C479927   8.294   8.983   2.412  0.3757 -0.5294  0.0688
  952HK4     C379928   8.375   9.039   2.510 -0.0070  0.1848 -0.0256
  952HK4     H379929   8.462   9.101   2.483 -0.3582  1.2937  1.3129
  952HK4     C279930   8.373   8.995   2.642 -0.4052 -0.4594 -0.2469
  952HK4     H279931   8.461   9.008   2.705 -0.7261 -0.8972  0.2888
  952HK4     C179932   8.274   8.901   2.666 -0.2272 -0.6433 -0.2259
  952HK4     H179933   8.274   8.862   2.769  3.1985 -1.0633 -0.3216
  952HK4     C679934   8.180   8.850   2.574 -0.7182  0.3003 -0.2473
  952HK4     C579935   8.205   8.877   2.439 -0.3260 -0.0178 -0.2404
  952HK4    C1079936   8.153   8.799   2.323  0.5621 -0.8605 -0.0793
  952HK4     O179937   8.182   8.680   2.327  0.3851 -0.9001  0.0418
  952HK4    C1679938   8.051   8.811   2.631 -0.4676 -0.2069 -0.0223
  952HK4    C1579939   8.021   8.835   2.767 -0.6927  0.4270 -0.1798
  952HK4     H779940   8.054   8.933   2.804  0.6412  0.1221 -0.5265
  952HK4    C2079941   7.933   8.758   2.841  0.2191 -0.2133  0.2445
  952HK4     H979942   7.920   8.785   2.946  1.0149  2.4145 -0.3022
  952HK4    C1979943   7.863   8.652   2.783 -0.4847  0.3667  0.0333
  952HK4    C1879944   7.889   8.626   2.643  0.0911 -0.2044  0.2456
  952HK4    C1779945   7.972   8.712   2.573 -0.4910 -0.0516 -0.2550
  952HK4     H879946   7.965   8.704   2.464  2.1903  2.1359 -0.6451
  952HK4     N179947   7.836   8.504   2.596  0.3904 -0.4682  0.5809
  952HK4    C2179948   7.752   8.469   2.704 -0.1037 -0.2114  0.2791
  952HK4    C2279949   7.766   8.552   2.821 -0.6395  0.4528 -0.1243
  952HK4    C2679950   7.702   8.519   2.940  0.2886 -0.1406  0.2132
  952HK4    H1379951   7.712   8.591   3.021  0.0840  1.7309 -1.4085
  952HK4    C2579952   7.610   8.414   2.945  0.5665 -0.3671  0.7183
  952HK4    H1279953   7.552   8.392   3.035  1.2045 -0.5060  1.0940
  952HK4    C2479954   7.590   8.336   2.832  0.2548  0.0886  0.4592
  952HK4    H1179955   7.503   8.268   2.838  0.6491 -0.4097  0.5306
  952HK4    C2379956   7.659   8.365   2.715 -0.2641 -0.0880  0.1038
  952HK4    H1079957   7.650   8.291   2.635  2.6280  0.0024 -0.3812
  952HK4    C3979958   7.904   8.418   2.509 -0.0547 -0.2764  0.0391
  952HK4    C4179959   8.043   8.404   2.493 -0.0044 -0.4607  0.6261
  952HK4    H2179960   8.108   8.454   2.567  1.6158 -1.3833 -0.1398
  952HK4    C4279961   8.100   8.306   2.412  0.3180  0.6555 -0.5186
  952HK4    H2279962   8.199   8.261   2.432  0.2635  1.1936  1.0215
  952HK4    C4379963   8.020   8.225   2.332  0.1756 -0.2276  0.5087
  952HK4    H2379964   8.055   8.132   2.286 -1.9448 -0.1988 -1.2327
  952HK4    C4479965   7.883   8.242   2.340  0.1896  0.0292  0.2051
  952HK4    H2479966   7.806   8.183   2.288 -0.0602 -1.2329  1.9722
  952HK4    C4579967   7.826   8.332   2.430 -0.2736  0.0694 -0.1259
  952HK4    H2579968   7.717   8.336   2.448 -0.2181  0.1058  0.1945
  953HK4    H2879969   1.202   2.474   8.882  1.1465 -0.1082  3.2761
  953HK4    C4879970   1.181   2.579   8.901 -0.2438  0.2369  0.1962
  953HK4    C4779971   1.075   2.643   8.838 -1.0897 -0.2252  1.1322
  953HK4    H2779972   1.004   2.579   8.784  0.3904  0.1846 -1.3597
  953HK4    C4679973   1.043   2.777   8.858 -0.0427  0.1895  0.1005
  953HK4    H2679974   0.976   2.825   8.785 -4.2999 -0.2216  3.4887
  953HK4    C4079975   1.103   2.850   8.963  0.0537  0.3057 -0.0347
  953HK4    C5079976   1.208   2.781   9.026 -0.4189 -0.0694  0.3401
  953HK4    H3079977   1.264   2.831   9.105  1.0297 -0.0327 -0.6983
  953HK4    C4979978   1.251   2.652   8.997 -0.1734  0.0179  0.3115
  953HK4    H2979979   1.355   2.630   9.023  0.0756  2.0230  1.0438
  953HK4     N279980   1.106   2.990   8.966 -0.3557  0.3116  0.1749
  953HK4    C3079981   1.104   3.076   8.854  0.2802  0.4387  0.2607
  953HK4    C2979982   1.135   3.053   8.720 -1.0939 -0.4255  0.0764
  953HK4    H1579983   1.196   2.965   8.703 -1.2559  0.0433 -3.2194
  953HK4    C2879984   1.103   3.145   8.621  0.3892  0.2639  0.2225
  953HK4    C2779985   1.056   3.273   8.660  0.2864  0.1693  0.4070
  953HK4    H1479986   1.042   3.351   8.584  0.8105 -0.2650 -0.1498
  953HK4    C3279987   1.045   3.304   8.795  0.8425  0.3901  0.4061
  953HK4    H1679988   1.020   3.405   8.826  0.4766  1.3648 -2.8868
  953HK4    C3179989   1.057   3.207   8.894 -0.6135  0.1068  0.3156
  953HK4    C3479990   1.043   3.203   9.038 -0.4520  0.0956  0.3324
  953HK4    C3379991   1.066   3.066   9.078 -0.2538  0.1284  0.3351
  953HK4    C3579992   1.052   3.028   9.211  0.0523 -0.1996  0.2747
  953HK4    H1779993   1.051   2.922   9.236  1.8867 -0.6063 -1.2633
  953HK4    C3679994   1.020   3.119   9.311 -0.1406 -0.0731  0.0985
  953HK4    H1879995   1.015   3.090   9.417  0.1918  2.2432  0.7853
  953HK4    C3779996   0.991   3.248   9.267 -0.0625 -0.0638  0.0720
  953HK4    H1979997   0.933   3.309   9.336  0.8294  0.4555  0.3625
  953HK4    C3879998   1.005   3.294   9.136  0.0229  0.3951  0.2417
  953HK4    H2079999   1.009   3.400   9.112 -0.3488  0.2974 -0.2609
  953HK4    C1480000   1.132   3.120   8.479 -0.2122  0.2625  0.0951
  953HK4     C980001   1.152   3.211   8.375  0.3140  0.0086 -0.0270
  953HK4     C880002   1.113   3.181   8.242  0.6822 -0.3190 -0.0633
  953HK4    C1180003   1.070   3.052   8.215 -0.1485 -0.1477  0.4267
  953HK4     H480004   1.014   3.031   8.122  1.5556 -0.3259 -0.5653
  953HK4    C1280005   1.071   2.950   8.309  0.9539 -0.5102  0.0275
  953HK4     H580006   1.034   2.847   8.296  0.8616 -0.3481 -1.0430
  953HK4    C1380007   1.105   2.987   8.439  0.7380  0.1261 -0.0962
  953HK4     H680008   1.129   2.901   8.502  1.2838 -0.3734 -0.9709
  953HK4     C780009   1.122   3.274   8.128 -0.5414  0.0296  0.1193
  953HK4     O280010   1.072   3.244   8.020  0.4786 -0.3807 -0.2480
  953HK4     C480011   1.189   3.404   8.152  0.2471 -0.3483  0.0021
  953HK4     C380012   1.234   3.482   8.046 -0.4031 -0.0801 -0.0856
  953HK4     H380013   1.208   3.457   7.942 -2.3639 -1.1782  0.6475
  953HK4     C280014   1.313   3.594   8.072 -0.5696 -0.0423  0.2628
  953HK4     H280015   1.369   3.641   7.990 -0.0623 -1.4751 -0.2245
  953HK4     C180016   1.323   3.639   8.203 -0.2456  0.9278 -0.0935
  953HK4     H180017   1.404   3.708   8.232 -0.6290  1.4614 -0.2777
  953HK4     C680018   1.242   3.580   8.302 -0.3543  0.1020 -0.6707
  953HK4     C580019   1.193   3.450   8.285 -0.2867  0.0018 -0.0974
  953HK4    C1080020   1.204   3.349   8.394  0.0564  0.1086 -0.0321
  953HK4     O180021   1.279   3.371   8.489 -0.2638  0.4244  0.1462
  953HK4    C1680022   1.170   3.677   8.386  0.1638 -0.1232  0.0328
  953HK4    C1580023   1.160   3.809   8.339  0.6318 -0.2655 -0.4723
  953HK4     H780024   1.167   3.824   8.230  3.1040 -3.1267 -0.7553
  953HK4    C2080025   1.134   3.917   8.423  0.3683 -0.4450 -0.3219
  953HK4     H980026   1.130   4.023   8.397 -2.0981 -0.2704  0.6643
  953HK4    C1980027   1.129   3.894   8.560 -0.3751  0.2729 -0.2241
  953HK4    C1880028   1.145   3.759   8.610  0.2647  0.3752 -0.1471
  953HK4    C1780029   1.155   3.651   8.522  0.1518  0.1713  0.0883
  953HK4     H880030   1.138   3.548   8.551 -0.0059 -0.3732 -1.8401
  953HK4     N180031   1.141   3.752   8.750  0.3237  0.5076 -0.1384
  953HK4    C2180032   1.124   3.884   8.797 -0.2439  0.3796  0.0169
  953HK4    C2280033   1.111   3.971   8.682 -0.2836  0.1630 -0.1402
  953HK4    C2680034   1.094   4.106   8.710  0.2799  0.2266 -0.0814
  953HK4    H1380035   1.086   4.175   8.626 -0.3517 -1.0410 -1.0935
  953HK4    C2580036   1.090   4.153   8.841  0.0368 -0.1467  0.0451
  953HK4    H1280037   1.056   4.252   8.870 -0.2336  0.1624 -1.2663
  953HK4    C2480038   1.113   4.067   8.948 -0.4900 -0.1764  0.1367
  953HK4    H1180039   1.089   4.098   9.051  2.8825 -1.2037  1.3024
  953HK4    C2380040   1.132   3.931   8.927 -0.6046 -0.2108  0.2610
  953HK4    H1080041   1.194   3.878   8.999 -1.3163  0.7879  1.6263
  953HK4    C3980042   1.191   3.645   8.826  0.2463  0.5891  0.0277
  953HK4    C4180043   1.142   3.633   8.958 -0.0019 -0.4773 -0.1570
  953HK4    H2180044   1.046   3.683   8.977  0.7921  0.4731  1.5013
  953HK4    C4280045   1.204   3.559   9.058 -0.1355  0.1305  0.3766
  953HK4    H2280046   1.164   3.542   9.160  2.0929  3.7884  1.9618
  953HK4    C4380047   1.320   3.490   9.028 -0.2996  0.0370 -0.0415
  953HK4    H2380048   1.354   3.407   9.091  0.0928  0.2638  0.0479
  953HK4    C4480049   1.372   3.505   8.900 -0.1774 -0.3575 -0.0429
  953HK4    H2480050   1.479   3.479   8.895  0.1422  0.6606  1.4764
  953HK4    C4580051   1.310   3.575   8.797  0.1159  0.2850  0.2203
  953HK4    H2580052   1.332   3.552   8.692 -2.2554 -1.7429  0.1428
  954HK4    H2880053   7.805   5.516   5.114 -0.8163  0.6206 -1.1893
  954HK4    C4880054   7.819   5.458   5.023  0.5084 -0.2318 -0.4691
  954HK4    C4780055   7.706   5.410   4.958 -0.0730  0.4585  0.0205
  954HK4    H2780056   7.606   5.424   5.003  0.1849  0.8903  0.4604
  954HK4    C4680057   7.715   5.347   4.834 -0.0407  0.2551  0.1248
  954HK4    H2680058   7.622   5.328   4.779 -0.8109 -0.0201  1.4878
  954HK4    C4080059   7.838   5.333   4.766  0.1202 -0.1579  0.5000
  954HK4    C5080060   7.952   5.380   4.835  0.1406  0.2991  0.1507
  954HK4    H3080061   8.041   5.389   4.771  0.9742 -0.8788  1.1353
  954HK4    C4980062   7.941   5.443   4.958  1.1558 -0.9931  0.9128
  954HK4    H2980063   8.033   5.464   5.014  1.5038  0.5995 -0.2025
  954HK4     N280064   7.863   5.245   4.660 -0.6617  0.3869 -0.1379
  954HK4    C3080065   7.789   5.127   4.638 -0.0918 -0.0087  0.0662
  954HK4    C2980066   7.726   5.044   4.730 -0.0394 -0.1519 -0.0268
  954HK4    H1580067   7.689   5.094   4.820  0.3722 -1.8479  1.1132
  954HK4    C2880068   7.693   4.912   4.701  0.4491 -0.3780  0.4402
  954HK4    C2780069   7.719   4.866   4.570  0.2269 -0.0491  0.2796
  954HK4    H1480070   7.693   4.764   4.539  1.9389 -0.3622 -0.1433
  954HK4    C3280071   7.779   4.947   4.475 -0.1121  0.2331  0.3036
  954HK4    H1680072   7.796   4.918   4.372 -0.4286  1.3914 -0.0900
  954HK4    C3180073   7.814   5.079   4.503  0.7501  0.0312  0.2007
  954HK4    C3480074   7.896   5.180   4.440  0.6487 -0.1434 -0.2133
  954HK4    C3380075   7.928   5.281   4.540  0.3547 -0.4263  0.1634
  954HK4    C3580076   8.017   5.382   4.507 -0.2660  0.0547 -0.0436
  954HK4    H1780077   8.024   5.467   4.576 -0.2055  0.7845 -0.9470
  954HK4    C3680078   8.075   5.392   4.381 -0.3908  0.2926 -0.0816
  954HK4    H1880079   8.155   5.461   4.352  0.6901 -0.8278  0.1878
  954HK4    C3780080   8.028   5.302   4.286 -0.4189 -0.1952  0.3890
  954HK4    H1980081   8.092   5.303   4.198 -0.4987  2.9533  0.3032
  954HK4    C3880082   7.945   5.193   4.311  0.0079 -0.7274 -0.5203
  954HK4    H2080083   7.913   5.126   4.231 -0.7514  1.0232 -1.7161
  954HK4    C1480084   7.661   4.816   4.806  0.2517 -0.3666  0.3909
  954HK4     C980085   7.690   4.679   4.799  0.4575 -0.3362  0.6381
  954HK4     C880086   7.597   4.577   4.827  0.0067 -0.0217  0.2815
  954HK4    C1180087   7.484   4.627   4.891 -0.0044  0.2511  0.0521
  954HK4     H480088   7.435   4.550   4.953  0.7813  0.6545  1.1984
  954HK4    C1280089   7.451   4.759   4.919  0.4795  0.3836  0.0083
  954HK4     H580090   7.387   4.782   5.006 -0.1138  0.5494 -0.4724
  954HK4    C1380091   7.545   4.852   4.878 -0.0367  0.6453 -0.5858
  954HK4     H680092   7.514   4.958   4.871 -1.1945  0.2414 -1.6802
  954HK4     C780093   7.628   4.438   4.788  0.3016  0.1518 -0.1066
  954HK4     O280094   7.570   4.356   4.859  0.5998 -0.3490 -0.4409
  954HK4     C480095   7.750   4.404   4.712  0.0509 -0.0378 -0.4282
  954HK4     C380096   7.759   4.279   4.652 -0.2846 -0.5933  0.6642
  954HK4     H380097   7.692   4.198   4.688 -0.5234  0.0176  1.6159
  954HK4     C280098   7.866   4.256   4.566 -0.5959  1.0042 -0.1609
  954HK4     H280099   7.881   4.154   4.528  2.5138  1.2281  0.3613
  954HK4     C180100   7.953   4.359   4.531  0.6004 -0.0111 -0.1880
  954HK4     H180101   8.041   4.339   4.468  0.0231 -0.3907 -0.8850
  954HK4     C680102   7.937   4.490   4.581  0.3875 -0.0049 -0.2691
  954HK4     C580103   7.843   4.506   4.684  0.9631 -0.6392  0.3580
  954HK4    C1080104   7.826   4.634   4.757  0.2314 -0.6966  0.2890
  954HK4     O180105   7.926   4.684   4.808 -0.1347  0.1045  0.2294
  954HK4    C1680106   7.963   4.602   4.490  0.4753 -0.0190 -0.2588
  954HK4    C1580107   7.913   4.605   4.358  0.7931 -0.3564 -0.3918
  954HK4     H780108   7.827   4.544   4.325  0.6889 -0.1582 -0.4893
  954HK4    C2080109   7.953   4.704   4.269 -0.0169 -0.0684 -0.4404
  954HK4     H980110   7.945   4.684   4.162 -1.0272  0.3972 -0.4565
  954HK4    C1980111   8.026   4.814   4.312 -0.1196 -0.1739  0.0037
  954HK4    C1880112   8.082   4.811   4.445 -0.4513  0.4895  0.1637
  954HK4    C1780113   8.044   4.707   4.530 -0.7212  0.6980  0.2978
  954HK4     H880114   8.112   4.678   4.610 -0.0612 -0.3771 -0.6368
  954HK4     N180115   8.176   4.915   4.461  0.1898 -0.0972  0.2656
  954HK4    C2180116   8.181   4.986   4.340  0.2051 -0.5250  0.0154
  954HK4    C2280117   8.087   4.928   4.246  0.3584 -0.5142 -0.1451
  954HK4    C2680118   8.089   4.961   4.111  0.4059  0.2142  0.0306
  954HK4    H1380119   8.022   4.907   4.044 -0.1698  1.0224 -0.0453
  954HK4    C2580120   8.182   5.052   4.062  0.4694  0.2003  0.1288
  954HK4    H1280121   8.179   5.069   3.954  1.2793 -0.8860 -0.0716
  954HK4    C2480122   8.267   5.110   4.155 -0.0347  0.1781  0.6076
  954HK4    H1180123   8.362   5.152   4.119 -0.6162  0.1542 -1.0085
  954HK4    C2380124   8.266   5.085   4.292  0.3040 -0.3649  0.5124
  954HK4    H1080125   8.316   5.151   4.362  1.5915 -0.6971 -0.0691
  954HK4    C3980126   8.203   4.980   4.582  0.3142 -0.6600  0.5412
  954HK4    C4180127   8.323   5.049   4.610 -0.0354 -0.0095  0.4557
  954HK4    H2180128   8.407   5.056   4.540  0.4778 -2.1887  0.8056
  954HK4    C4280129   8.350   5.106   4.734 -0.4818  0.6954  0.2304
  954HK4    H2280130   8.438   5.167   4.758 -0.3752 -0.0324  1.7334
  954HK4    C4380131   8.257   5.100   4.837 -0.2612  0.1158  0.3942
  954HK4    H2380132   8.283   5.134   4.937 -1.8705 -0.9786  1.1961
  954HK4    C4480133   8.141   5.029   4.812  0.0365 -0.1282 -0.3322
  954HK4    H2480134   8.078   4.998   4.897  1.5581 -2.5024 -0.0254
  954HK4    C4580135   8.109   4.977   4.687 -0.3594 -0.5567 -0.0562
  954HK4    H2580136   8.011   4.932   4.665 -1.2567  1.5900 -0.6157
  955HK4    H2880137   4.682   3.628   1.156 -0.0362  0.4429  1.6804
  955HK4    C4880138   4.667   3.523   1.182 -0.3281  0.0603  0.0323
  955HK4    C4780139   4.728   3.425   1.104  0.6730  0.5945  0.1371
  955HK4    H2780140   4.781   3.460   1.014  1.2328  1.7498  0.9027
  955HK4    C4680141   4.755   3.298   1.153 -0.8234  0.2594  0.1003
  955HK4    H2680142   4.813   3.232   1.088 -0.2595  0.3528  0.5065
  955HK4    C4080143   4.718   3.266   1.285 -0.2814 -0.6389  0.0362
  955HK4    C5080144   4.651   3.360   1.366  0.5781  0.0134 -0.0061
  955HK4    H3080145   4.586   3.328   1.449  2.9986 -1.3196  1.4272
  955HK4    C4980146   4.630   3.486   1.311  0.1463  0.0159  0.1578
  955HK4    H2980147   4.611   3.560   1.390  2.6356  1.2721 -0.3587
  955HK4     N280148   4.716   3.132   1.329 -0.0206 -0.4964  0.4830
  955HK4    C3080149   4.697   3.016   1.251  0.0789 -0.0936 -0.1535
  955HK4    C2980150   4.672   2.979   1.120 -0.3634  0.0683 -0.1144
  955HK4    H1580151   4.659   3.056   1.043 -1.3175 -1.3948 -1.4509
  955HK4    C2880152   4.649   2.849   1.078  0.8762 -0.2438  0.1480
  955HK4    C2780153   4.650   2.745   1.174 -0.3180 -0.0553  0.3813
  955HK4    H1480154   4.637   2.638   1.155  1.9604 -0.5401  1.2755
  955HK4    C3280155   4.675   2.775   1.308 -0.6300  0.4158  0.3363
  955HK4    H1680156   4.711   2.695   1.373  1.6891  0.0046 -1.4188
  955HK4    C3180157   4.688   2.907   1.347 -0.8537  0.4304  0.3658
  955HK4    C3480158   4.707   2.955   1.483 -0.6741  0.1131  0.4523
  955HK4    C3380159   4.733   3.097   1.464  0.3486 -0.0566  0.5539
  955HK4    C3580160   4.790   3.171   1.567  0.7784  0.2031  0.1289
  955HK4    H1780161   4.811   3.278   1.556 -2.7544  0.7826 -1.8007
  955HK4    C3680162   4.814   3.109   1.689  0.2788  0.0234  0.1358
  955HK4    H1880163   4.873   3.155   1.769 -3.6206  1.9345  2.0467
  955HK4    C3780164   4.797   2.972   1.704  0.2008 -0.0003 -0.1685
  955HK4    H1980165   4.803   2.926   1.802 -1.3359 -0.3414 -0.2169
  955HK4    C3880166   4.742   2.894   1.602 -0.2550 -0.1562  0.1959
  955HK4    H2080167   4.716   2.789   1.618 -0.0664 -0.2689 -0.2300
  955HK4    C1480168   4.593   2.823   0.945  0.6045 -0.8282  0.3728
  955HK4     C980169   4.507   2.716   0.917 -0.0378 -0.2868  0.2607
  955HK4     C880170   4.526   2.633   0.805 -0.0872 -0.3281  0.2818
  955HK4    C1180171   4.625   2.670   0.714 -0.3515 -0.0624  0.1040
  955HK4     H480172   4.663   2.602   0.636 -0.3744 -3.9127  3.2737
  955HK4    C1280173   4.692   2.791   0.725  0.2921 -0.4435  0.3809
  955HK4     H580174   4.757   2.824   0.642 -1.0419 -0.9621 -0.8873
  955HK4    C1380175   4.678   2.867   0.841 -0.0944 -0.0969  0.1080
  955HK4     H680176   4.727   2.964   0.855  1.1129 -0.3989 -1.9393
  955HK4     C780177   4.433   2.528   0.759  0.0471 -0.2204 -0.2374
  955HK4     O280178   4.451   2.451   0.664  0.3574 -0.3780 -0.0508
  955HK4     C480179   4.308   2.513   0.838  0.1732 -0.3971 -0.0716
  955HK4     C380180   4.209   2.425   0.795 -0.3261  0.3785 -0.5317
  955HK4     H380181   4.210   2.373   0.698 -0.3043  0.4081 -0.5474
  955HK4     C280182   4.101   2.395   0.877  0.5685 -0.8923  0.2114
  955HK4     H280183   4.026   2.324   0.838  1.0100  0.1720 -2.6829
  955HK4     C180184   4.096   2.455   1.002 -0.0653 -0.2192 -0.1349
  955HK4     H180185   4.016   2.428   1.071 -0.6239  1.1391 -0.2200
  955HK4     C680186   4.201   2.531   1.057 -0.6484  0.7112 -0.2843
  955HK4     C580187   4.298   2.573   0.965 -0.3177 -0.0385 -0.2801
  955HK4    C1080188   4.385   2.689   0.998  0.0409 -0.4794  0.3134
  955HK4     O180189   4.331   2.774   1.068  0.5545 -0.0755  0.2181
  955HK4    C1680190   4.219   2.513   1.202  0.1157  1.0269 -0.3346
  955HK4    C1580191   4.345   2.526   1.264  0.0284 -0.4913  0.1739
  955HK4     H780192   4.427   2.484   1.204  1.3346 -0.0775  1.6565
  955HK4    C2080193   4.367   2.542   1.400  0.1295  0.7084  0.0158
  955HK4     H980194   4.466   2.557   1.442  1.6189  2.4830 -3.9181
  955HK4    C1980195   4.256   2.552   1.483 -0.0053  0.3228 -0.1170
  955HK4    C1880196   4.123   2.550   1.426 -0.0944 -0.0418  0.1036
  955HK4    C1780197   4.111   2.523   1.290  0.3801 -0.6868  0.1917
  955HK4     H880198   4.011   2.538   1.249  0.4216  0.1056  0.3755
  955HK4     N180199   4.023   2.554   1.525 -0.3073 -0.4919 -0.0907
  955HK4    C2180200   4.091   2.552   1.649 -0.1470  0.2378 -0.1655
  955HK4    C2280201   4.233   2.542   1.626 -0.1805 -0.2436 -0.1823
  955HK4    C2680202   4.320   2.507   1.728 -0.3662  0.6314  0.2869
  955HK4    H1380203   4.426   2.499   1.703 -0.3936  1.7007 -0.1635
  955HK4    C2580204   4.273   2.473   1.854  0.0421 -0.2699  0.2017
  955HK4    H1280205   4.340   2.451   1.937  0.4421  0.9717  0.2109
  955HK4    C2480206   4.137   2.489   1.877  0.1573  0.4323  0.3971
  955HK4    H1180207   4.107   2.493   1.983  0.4630  0.7657  0.4735
  955HK4    C2380208   4.047   2.527   1.779  0.4746  0.3073  0.0588
  955HK4    H1080209   3.943   2.542   1.808  0.3362  0.0785 -0.3157
  955HK4    C3980210   3.888   2.529   1.497 -0.3390 -0.1381 -0.2566
  955HK4    C4180211   3.809   2.459   1.591 -0.3070  0.1997  0.0188
  955HK4    H2180212   3.858   2.386   1.657  0.1614 -2.1644 -2.8398
  955HK4    C4280213   3.670   2.463   1.594 -0.2965  0.0222  0.8305
  955HK4    H2280214   3.615   2.410   1.673 -0.6768 -1.2145 -0.2485
  955HK4    C4380215   3.604   2.522   1.488  0.5218 -0.8674 -0.1914
  955HK4    H2380216   3.497   2.508   1.470  0.2610 -2.0323  2.1980
  955HK4    C4480217   3.675   2.584   1.385  0.0655  0.1507  0.0977
  955HK4    H2480218   3.615   2.624   1.302 -3.7835 -2.1582  1.5964
  955HK4    C4580219   3.814   2.590   1.394  0.1098  0.0337 -0.4831
  955HK4    H2580220   3.870   2.660   1.332  1.8519  0.0247  1.0438
  956HK4    H2880221   4.329   1.066   4.021  0.1879 -0.0654 -0.9370
  956HK4    C4880222   4.303   0.961   4.038 -0.7802  0.2470 -0.4550
  956HK4    C4780223   4.366   0.905   4.148 -0.9441 -0.4536 -0.7150
  956HK4    H2780224   4.376   0.966   4.239 -0.0951  0.7621 -1.6090
  956HK4    C4680225   4.385   0.768   4.161 -0.4560 -0.3009  0.2858
  956HK4    H2680226   4.443   0.727   4.244  0.8766  1.3017  0.1586
  956HK4    C4080227   4.330   0.687   4.059  0.3839  0.0163 -0.4255
  956HK4    C5080228   4.267   0.749   3.949  0.4725 -0.1541 -0.5733
  956HK4    H3080229   4.242   0.682   3.866 -1.7738 -1.0696  0.7784
  956HK4    C4980230   4.242   0.886   3.938 -0.5006 -0.2999 -0.2135
  956HK4    H2980231   4.154   0.915   3.879 -2.4851  0.1780  2.8194
  956HK4     N280232   4.324   0.548   4.071 -0.1043  0.0592 -0.1414
  956HK4    C3080233   4.328   0.479   4.194 -0.3215 -0.1143 -0.2311
  956HK4    C2980234   4.294   0.521   4.322  0.9371  0.5214 -0.0897
  956HK4    H1580235   4.259   0.623   4.342  1.8757  0.6241  1.0852
  956HK4    C2880236   4.287   0.438   4.434  0.0162  0.4339 -0.2045
  956HK4    C2780237   4.305   0.301   4.406 -0.7960  0.3066 -0.1177
  956HK4    H1480238   4.311   0.232   4.491 -1.5391 -1.2811 -1.3420
  956HK4    C3280239   4.335   0.253   4.279 -0.7221  0.4718 -0.1640
  956HK4    H1680240   4.343   0.144   4.274 -0.6714  0.3001  2.6830
  956HK4    C3180241   4.349   0.338   4.170 -0.2635 -0.0567 -0.5207
  956HK4    C3480242   4.394   0.331   4.032  0.5115  0.6265 -0.3060
  956HK4    C3380243   4.373   0.461   3.971 -0.1491  0.4344 -0.4910
  956HK4    C3580244   4.433   0.493   3.850  0.3427  0.4373 -0.2485
  956HK4    H1780245   4.412   0.587   3.799  3.1104  0.3362 -1.6659
  956HK4    C3680246   4.494   0.389   3.781 -0.5975 -0.0932 -0.2833
  956HK4    H1880247   4.539   0.418   3.685  0.4800  2.2314  0.8693
  956HK4    C3780248   4.504   0.260   3.830 -0.3507  0.0187 -0.0403
  956HK4    H1980249   4.501   0.178   3.757  1.9340 -0.5312  0.4449
  956HK4    C3880250   4.458   0.232   3.958  0.1814  0.0617  0.1627
  956HK4    H2080251   4.482   0.132   3.994  0.6757 -0.1133 -0.6613
  956HK4    C1480252   4.300   0.485   4.573 -0.3895  0.2014 -0.0881
  956HK4     C980253   4.364   0.414   4.675  0.2173  0.3180 -0.3850
  956HK4     C880254   4.317   0.428   4.807  0.5225 -0.2279 -0.2206
  956HK4    C1180255   4.215   0.518   4.835  0.7675  0.1492 -0.5432
  956HK4     H480256   4.165   0.520   4.933  0.4288  0.0071 -0.7144
  956HK4    C1280257   4.158   0.599   4.737 -0.3631  0.4417  0.3445
  956HK4     H580258   4.073   0.662   4.765 -0.9424 -0.3172  0.2939
  956HK4    C1380259   4.202   0.581   4.607 -0.4250  0.0020  0.3819
  956HK4     H680260   4.144   0.629   4.527  0.7936  1.3013  0.2509
  956HK4     C780261   4.376   0.350   4.919 -0.0111 -0.2420  0.0526
  956HK4     O280262   4.330   0.364   5.032  0.3112  0.1240  0.1403
  956HK4     C480263   4.503   0.277   4.900  0.3048  0.3509 -0.1379
  956HK4     C380264   4.565   0.215   5.008  0.5532  0.5572 -0.1623
  956HK4     H380265   4.554   0.247   5.112  2.9160  0.1745  0.2506
  956HK4     C280266   4.668   0.124   4.983 -0.1194 -0.2450 -0.0597
  956HK4     H280267   4.722   0.082   5.069 -1.6862 -1.0586  0.5394
  956HK4     C180268   4.713   0.096   4.855 -0.4272 -0.5022 -0.1106
  956HK4     H180269   4.796   0.028   4.834  0.7108  1.0851 -0.8959
  956HK4     C680270   4.654   0.158   4.743 -0.1580 -0.0884 -0.0253
  956HK4     C580271   4.553   0.251   4.771  0.1784  0.3234 -0.1818
  956HK4    C1080272   4.490   0.336   4.665  0.2124  0.2881 -0.2310
  956HK4     O180273   4.559   0.376   4.571  0.3614  0.3078 -0.1119
  956HK4    C1680274   4.642   0.072   4.624  0.3649 -0.1338 -0.0454
  956HK4    C1580275   4.592  11.190   4.642  0.2502 -0.0727  0.0851
  956HK4     H780276   4.550  11.164   4.741 -0.4348 -3.2422 -0.9719
  956HK4    C2080277   4.575  11.100   4.537 -0.3275  0.3045 -0.1476
  956HK4     H980278   4.566  10.993   4.550 -0.2413  0.0472 -2.0709
  956HK4    C1980279   4.604  11.142   4.408 -0.0157  0.1792 -0.1177
  956HK4    C1880280   4.660   0.027   4.389 -0.3844  0.3291 -0.1785
  956HK4    C1780281   4.675   0.114   4.496 -0.3227  0.2332 -0.1093
  956HK4     H880282   4.739   0.202   4.483 -1.6510  0.9818 -1.8243
  956HK4     N180283   4.711   0.041   4.258 -0.7239  0.3868 -0.3063
  956HK4    C2180284   4.668  11.171   4.193 -0.5218  0.2160 -0.1299
  956HK4    C2280285   4.600  11.077   4.279 -0.2004  0.0578 -0.0503
  956HK4    C2680286   4.521  10.978   4.221 -0.5865  0.2118  0.2163
  956HK4    H1380287   4.473  10.905   4.286 -2.1703  1.6515  0.7078
  956HK4    C2580288   4.519  10.970   4.082  0.4428  0.8027  0.1671
  956HK4    H1280289   4.469  10.883   4.040 -0.4827  0.3504  2.1500
  956HK4    C2480290   4.578  11.064   3.997 -0.2033  0.7869 -0.2980
  956HK4    H1180291   4.543  11.070   3.893  0.6145  0.4414 -0.5925
  956HK4    C2380292   4.653  11.165   4.055  0.1888  0.4533 -0.2218
  956HK4    H1080293   4.709  11.231   3.988  0.0872  0.8522  0.0839
  956HK4    C3980294   4.770   0.156   4.203 -0.0848  0.2574  0.0988
  956HK4    C4180295   4.862   0.136   4.098 -0.3645  0.1889 -0.1368
  956HK4    H2180296   4.939   0.058   4.108 -0.0873  0.1037 -2.6258
  956HK4    C4280297   4.876   0.237   4.004 -0.4421  0.0200 -0.3267
  956HK4    H2280298   4.948   0.232   3.921 -0.4215  1.0071 -0.3845
  956HK4    C4380299   4.802   0.355   4.010 -0.0445  0.2448  0.1472
  956HK4    H2380300   4.768   0.382   3.910 -0.3457 -0.5984  0.0174
  956HK4    C4480301   4.716   0.376   4.117 -0.0395  0.5950  0.0824
  956HK4    H2480302   4.661   0.470   4.131 -1.0157 -0.2108  1.8016
  956HK4    C4580303   4.696   0.276   4.211 -0.2917  0.1667 -0.4280
  956HK4    H2580304   4.628   0.284   4.297  3.8860  0.4032  3.0073
  957HK4    H2880305   2.704   1.229   8.858  0.5966  0.3399  0.5287
  957HK4    C4880306   2.804   1.253   8.821  0.4173  0.0505 -0.1410
  957HK4    C4780307   2.871   1.154   8.749  0.2156 -0.1363 -0.0761
  957HK4    H2780308   2.822   1.059   8.725 -1.5434  0.9549 -0.9069
  957HK4    C4680309   3.002   1.180   8.708  0.2709 -0.3240 -0.0173
  957HK4    H2680310   3.042   1.108   8.635  1.8788 -1.0901  1.5786
  957HK4    C4080311   3.074   1.288   8.762 -0.0701  0.0586 -0.3253
  957HK4    C5080312   3.010   1.379   8.849  0.1853  0.5205 -0.6156
  957HK4    H3080313   3.066   1.452   8.909  1.6614  0.2243 -1.5996
  957HK4    C4980314   2.874   1.362   8.871  0.2531  0.2670 -0.3851
  957HK4    H2980315   2.823   1.437   8.933 -2.5581 -0.9019 -1.2065
  957HK4     N280316   3.213   1.295   8.746 -0.1323  0.3110 -0.7550
  957HK4    C3080317   3.295   1.185   8.714 -0.1441  0.1992 -0.3962
  957HK4    C2980318   3.298   1.055   8.763 -0.1600  0.2151 -0.3549
  957HK4    H1580319   3.206   1.012   8.803 -0.2143  1.0826  0.4663
  957HK4    C2880320   3.413   0.977   8.760 -0.0697  0.3283  0.0803
  957HK4    C2780321   3.524   1.027   8.689  0.1944  0.0282  0.2794
  957HK4    H1480322   3.612   0.962   8.677 -0.3828 -1.3288  3.0017
  957HK4    C3280323   3.524   1.153   8.629 -0.3194 -0.5008 -0.8514
  957HK4    H1680324   3.601   1.174   8.555  0.9251  0.3750  0.6639
  957HK4    C3180325   3.414   1.235   8.648 -0.1476 -0.2879 -0.7766
  957HK4    C3480326   3.396   1.379   8.635 -0.0712 -0.2246 -0.1867
  957HK4    C3380327   3.272   1.415   8.702  0.0772  0.3947 -0.2488
  957HK4    C3580328   3.244   1.550   8.720 -0.2671  0.2511  0.2802
  957HK4    H1780329   3.152   1.589   8.765 -0.7459  0.7813 -1.1435
  957HK4    C3680330   3.326   1.647   8.664  0.0384  0.1159  0.4914
  957HK4    H1880331   3.291   1.751   8.653 -0.3609 -0.0153  0.5017
  957HK4    C3780332   3.442   1.611   8.596 -0.1559  0.3974  0.0055
  957HK4    H1980333   3.508   1.683   8.546 -1.1212  1.5589  0.3665
  957HK4    C3880334   3.475   1.478   8.579 -0.0642  0.3175  0.7575
  957HK4    H2080335   3.563   1.442   8.524  1.0205  0.6300  2.2739
  957HK4    C1480336   3.438   0.868   8.855 -0.4767  0.0807 -0.0933
  957HK4     C980337   3.559   0.836   8.918 -0.3409 -0.3018 -0.5458
  957HK4     C880338   3.607   0.706   8.944 -0.4409 -0.1366  0.4621
  957HK4    C1180339   3.517   0.605   8.911 -0.2048 -0.1420 -0.1673
  957HK4     H480340   3.532   0.502   8.946 -0.3842 -0.4244 -0.9267
  957HK4    C1280341   3.389   0.629   8.860  0.0532  0.3377 -0.5895
  957HK4     H580342   3.324   0.548   8.825 -0.0792  0.7016 -1.1819
  957HK4    C1380343   3.348   0.760   8.841 -0.4167  0.1373 -0.9439
  957HK4     H680344   3.240   0.774   8.822  0.0469  1.7191 -2.5855
  957HK4     C780345   3.740   0.686   9.006  0.0709  0.3535 -0.4793
  957HK4     O280346   3.797   0.578   8.998  0.5843  0.6215 -0.4808
  957HK4     C480347   3.825   0.801   9.043  0.1300 -0.0190  0.5462
  957HK4     C380348   3.950   0.786   9.102  0.3290 -0.1337  0.0941
  957HK4     H380349   3.977   0.687   9.142 -0.4708 -1.4815 -2.5830
  957HK4     C280350   4.037   0.892   9.124 -0.0617  0.1818  0.1183
  957HK4     H280351   4.142   0.877   9.152  0.6204 -1.0121 -2.8884
  957HK4     C180352   4.000   1.015   9.072 -0.0463  0.1208 -0.0373
  957HK4     H180353   4.082   1.083   9.042 -0.5986  1.8632  2.2771
  957HK4     C680354   3.876   1.036   9.009 -0.0978  0.0281  0.0332
  957HK4     C580355   3.785   0.930   9.001  0.2668 -0.2597 -0.3269
  957HK4    C1080356   3.643   0.951   8.961 -0.1873 -0.9350  0.8836
  957HK4     O180357   3.582   1.038   9.022 -0.6802  0.0215 -0.9230
  957HK4    C1680358   3.837   1.171   8.965  0.7088  0.2172 -0.1103
  957HK4    C1580359   3.790   1.191   8.834  0.1886 -0.1004  0.0239
  957HK4     H780360   3.770   1.105   8.768 -1.5246  1.2408 -1.2628
  957HK4    C2080361   3.759   1.319   8.790 -0.4840 -0.3190 -0.1385
  957HK4     H980362   3.696   1.331   8.701 -2.3577  1.3278  1.3517
  957HK4    C1980363   3.783   1.428   8.873 -0.4864 -0.4794  0.0719
  957HK4    C1880364   3.825   1.411   9.011 -0.2271 -0.0769  0.0426
  957HK4    C1780365   3.850   1.280   9.050  0.7510  0.1011  0.0310
  957HK4     H880366   3.892   1.265   9.150  1.9336 -0.9900 -0.6166
  957HK4     N180367   3.858   1.534   9.073 -0.5588  0.0605 -0.0492
  957HK4    C2180368   3.842   1.631   8.972 -0.6063 -0.0896 -0.1880
  957HK4    C2280369   3.796   1.570   8.848 -0.9328 -0.4304  0.1022
  957HK4    C2680370   3.781   1.652   8.736 -0.3752  0.0920  0.3990
  957HK4    H1380371   3.742   1.607   8.645 -3.1021  1.2283  0.9748
  957HK4    C2580372   3.802   1.789   8.745 -0.3085  0.1596 -0.7329
  957HK4    H1280373   3.810   1.843   8.651 -0.6175 -0.0546 -0.8809
  957HK4    C2480374   3.853   1.847   8.861 -0.1734 -0.4447 -0.4828
  957HK4    H1180375   3.902   1.945   8.860 -0.5228 -0.1864  2.4739
  957HK4    C2380376   3.865   1.768   8.975 -0.2342 -0.1482 -0.2723
  957HK4    H1080377   3.868   1.817   9.072  2.4287 -0.0141 -0.3842
  957HK4    C3980378   3.827   1.551   9.208  0.0438 -0.0797  0.1085
  957HK4    C4180379   3.886   1.653   9.286 -0.0725  0.2392 -0.2225
  957HK4    H2180380   3.956   1.724   9.239 -0.7091  0.7055 -0.4757
  957HK4    C4280381   3.862   1.669   9.422  0.2412  0.2451 -0.1646
  957HK4    H2280382   3.912   1.752   9.475  3.0575 -1.8087  0.4737
  957HK4    C4380383   3.758   1.597   9.479  0.4109 -0.2324 -0.4566
  957HK4    H2380384   3.720   1.632   9.575  0.1942 -1.2676 -0.1552
  957HK4    C4480385   3.689   1.504   9.403 -0.6867  0.2406 -0.0526
  957HK4    H2480386   3.599   1.456   9.445 -0.5506 -0.8738 -1.0064
  957HK4    C4580387   3.727   1.476   9.272  0.0489  0.0006  0.2098
  957HK4    H2580388   3.669   1.405   9.211 -1.7529 -0.1801  2.0520
  958HK4    H2880389   7.998   9.603  11.135 -0.1845 -0.3300  0.9594
  958HK4    C4880390   7.920   9.646  11.073  0.2089 -0.2514  0.5167
  958HK4    C4780391   7.944   9.708  10.951 -0.5071 -0.1220  0.4373
  958HK4    H2780392   8.045   9.717  10.909 -0.8750 -1.9118 -0.9211
  958HK4    C4680393   7.843   9.766  10.875 -0.0183 -0.3844 -0.4220
  958HK4    H2680394   7.871   9.853  10.814 -0.4221  0.7339  0.9616
  958HK4    C4080395   7.708   9.760  10.917  0.1211  0.0514  0.0997
  958HK4    C5080396   7.691   9.688  11.037 -0.5739 -0.2455 -0.1767
  958HK4    H3080397   7.589   9.679  11.076 -0.7686 -3.3368 -1.2329
  958HK4    C4980398   7.788   9.623  11.112 -0.1451 -0.0236 -0.5389
  958HK4    H2980399   7.757   9.543  11.180 -2.7639  3.1572  2.1863
  958HK4     N280400   7.597   9.819  10.856 -0.1315  0.4047  0.9025
  958HK4    C3080401   7.612   9.929  10.768  0.1315 -0.2984  0.0596
  958HK4    C2980402   7.688  10.041  10.799  0.0984 -0.1601 -0.3573
  958HK4    H1580403   7.744  10.038  10.892  0.1595 -0.7418 -0.4117
  958HK4    C2880404   7.680  10.161  10.730  0.1924  0.2073  0.2648
  958HK4    C2780405   7.587  10.164  10.624  0.3656  0.2174  0.1071
  958HK4    H1480406   7.567  10.263  10.582  1.0736  0.1528 -0.3868
  958HK4    C3280407   7.517  10.052  10.579 -0.6397  0.3991  1.2040
  958HK4    H1680408   7.438  10.074  10.508 -0.6710 -1.5536  0.6021
  958HK4    C3180409   7.521   9.936  10.656  0.1940 -0.3776  0.0031
  958HK4    C3480410   7.443   9.815  10.669  0.3195 -0.4840 -0.2169
  958HK4    C3380411   7.489   9.755  10.793  0.4110  0.2544  0.1108
  958HK4    C3580412   7.421   9.645  10.846 -0.3779  0.4507 -0.4697
  958HK4    H1780413   7.434   9.606  10.947  0.3476  1.2974 -0.2331
  958HK4    C3680414   7.318   9.585  10.775 -0.7640 -0.0578  0.5111
  958HK4    H1880415   7.265   9.490  10.794 -1.5809  0.2149 -0.3507
  958HK4    C3780416   7.277   9.638  10.653  0.3217 -0.0831  0.1247
  958HK4    H1980417   7.202   9.593  10.587  1.9805  0.1260 -1.9357
  958HK4    C3880418   7.335   9.755  10.606 -0.3545  0.2875  0.1963
  958HK4    H2080419   7.289   9.789  10.513 -0.4719  0.1989  0.2202
  958HK4    C1480420   7.719  10.282  10.804  0.3948  0.2317  0.1262
  958HK4     C980421   7.642  10.399  10.819 -0.0102 -0.0222  0.0250
  958HK4     C880422   7.714  10.516  10.850 -0.2098 -0.0187  0.4787
  958HK4    C1180423   7.850  10.514  10.876  0.0604  0.2779 -0.8572
  958HK4     H480424   7.885  10.593  10.944 -3.2982  1.1411 -0.0275
  958HK4    C1280425   7.927  10.400  10.857 -0.0854  0.2290 -1.1622
  958HK4     H580426   8.036  10.405  10.874 -0.2241 -2.1340  0.6564
  958HK4    C1380427   7.858  10.285  10.823  0.4256 -0.4297  0.0102
  958HK4     H680428   7.916  10.192  10.813  0.2385 -0.2025 -3.5205
  958HK4     C780429   7.657  10.652  10.835  0.0637  0.0663  0.1971
  958HK4     O280430   7.722  10.753  10.861  0.2429  0.0170 -0.0582
  958HK4     C480431   7.510  10.653  10.813  0.1194  0.1788 -0.1682
  958HK4     C380432   7.442  10.766  10.772 -0.2284  0.0389  0.0281
  958HK4     H380433   7.503  10.852  10.738 -0.2859  1.2470  2.8548
  958HK4     C280434   7.304  10.782  10.784 -0.2420  0.5707 -0.7456
  958HK4     H280435   7.258  10.875  10.749  0.3041  1.3766  0.6192
  958HK4     C180436   7.228  10.680  10.840  0.5748  0.2851 -0.1393
  958HK4     H180437   7.119  10.691  10.838  0.6567  1.0484 -2.8976
  958HK4     C680438   7.293  10.559  10.874  0.1877  0.1261  0.0286
  958HK4     C580439   7.429  10.543  10.848  0.1669  0.1640 -0.1005
  958HK4    C1080440   7.495  10.409  10.837  0.1305  0.0413  1.1541
  958HK4     O180441   7.429  10.308  10.860  0.7852 -0.7011 -0.2120
  958HK4    C1680442   7.203  10.465  10.943  0.2366 -0.3372 -0.5322
  958HK4    C1580443   7.064  10.461  10.917  0.0903  0.1023  0.1614
  958HK4     H780444   7.015  10.513  10.834 -1.1732 -1.8792 -0.3614
  958HK4    C2080445   6.977  10.397  11.005  0.2667 -0.1512  0.1485
  958HK4     H980446   6.878  10.364  10.973  0.3783 -0.6868  0.3472
  958HK4    C1980447   7.028  10.335  11.119  0.3994 -0.4787 -0.0865
  958HK4    C1880448   7.169  10.342  11.151  0.3698  0.0059 -0.0595
  958HK4    C1780449   7.249  10.416  11.064  0.0706  0.0264 -0.3193
  958HK4     H880450   7.353  10.422  11.095 -0.5929 -0.5115  2.1875
  958HK4     N180451   7.197  10.263   0.017  0.3064 -0.0371 -0.0742
  958HK4    C2180452   7.078  10.193   0.043  0.2026  0.3239  0.4272
  958HK4    C2280453   6.967  10.241  11.210  0.2235 -0.1878  0.0921
  958HK4    C2680454   6.848  10.170  11.200 -0.3255  0.7176  0.1655
  958HK4    H1380455   6.754  10.217  11.169 -0.6177 -0.1697 -0.3166
  958HK4    C2580456   6.841  10.054   0.028  0.2031  0.1075 -0.7079
  958HK4    H1280457   6.752   9.991   0.033  0.6951 -0.6527 -1.3660
  958HK4    C2480458   6.942  10.003   0.109  0.0705  0.5581 -0.2564
  958HK4    H1180459   6.944   9.897   0.136 -0.0543  0.5175 -0.4089
  958HK4    C2380460   7.061  10.076   0.115  0.6453 -0.3521 -0.5536
  958HK4    H1080461   7.127  10.051   0.199  0.0340 -2.3862 -0.6471
  958HK4    C3980462   7.280  10.312   0.118 -0.0320  0.5170 -0.0625
  958HK4    C4180463   7.361  10.214   0.179 -0.2131  0.7062  0.4868
  958HK4    H2180464   7.365  10.106   0.155 -0.8040  0.7563  0.1545
  958HK4    C4280465   7.455  10.250   0.275  0.3961  0.6028 -0.0569
  958HK4    H2280466   7.544  10.189   0.296  1.1982  1.5438 -0.7198
  958HK4    C4380467   7.462  10.384   0.313  0.4948  0.5806  0.0026
  958HK4    H2380468   7.541  10.414   0.381  0.0627  1.6834  0.0248
  958HK4    C4480469   7.375  10.478   0.258 -0.2390 -0.0244  0.1205
  958HK4    H2480470   7.397  10.584   0.278 -1.1758  0.3581 -0.8777
  958HK4    C4580471   7.280  10.446   0.162 -0.2479  0.5133 -0.0492
  958HK4    H2580472   7.209  10.523   0.128 -1.8419 -0.2035  1.5868
  959HK4    H2880473   0.372   2.542   1.538 -0.8366  0.3107 -1.3813
  959HK4    C4880474   0.445   2.580   1.467  0.4131 -0.2114 -0.4066
  959HK4    C4780475   0.564   2.637   1.511  0.2324 -0.1981  0.0717
  959HK4    H2780476   0.593   2.627   1.617 -2.2541 -2.2133  0.6154
  959HK4    C4680477   0.638   2.709   1.418  0.0306 -0.2145 -0.1035
  959HK4    H2680478   0.741   2.726   1.454 -0.1442 -0.2182  0.4019
  959HK4    C4080479   0.603   2.727   1.283 -0.3062  0.0375  0.0169
  959HK4    C5080480   0.489   2.656   1.241  0.2192 -0.5760 -0.3870
  959HK4    H3080481   0.464   2.653   1.134  0.2566  2.1256 -0.5083
  959HK4    C4980482   0.409   2.590   1.333  0.3033 -0.7203 -0.4160
  959HK4    H2980483   0.324   2.528   1.300 -1.1929  1.5226 -0.9200
  959HK4     N280484   0.646   2.844   1.219 -0.3930  0.1161  0.1038
  959HK4    C3080485   0.702   2.956   1.285  0.1079 -0.3356  0.4493
  959HK4    C2980486   0.665   3.013   1.406 -0.2387 -0.8009  0.5649
  959HK4    H1580487   0.597   2.955   1.468 -0.2773 -0.4100  0.8916
  959HK4    C2880488   0.722   3.133   1.447 -0.5397 -0.2079 -0.7212
  959HK4    C2780489   0.823   3.189   1.366 -0.3309  0.1174 -0.2429
  959HK4    H1480490   0.862   3.290   1.382  0.1320  0.2615 -2.1151
  959HK4    C3280491   0.868   3.136   1.245  0.2471 -0.3711  0.1872
  959HK4    H1680492   0.942   3.188   1.185 -1.1475  0.9583 -0.4120
  959HK4    C3180493   0.804   3.020   1.204  0.4162 -0.6186  0.6140
  959HK4    C3480494   0.816   2.943   1.081  0.1725  0.0949  0.1392
  959HK4    C3380495   0.707   2.848   1.093  0.3278 -0.0474  0.4459
  959HK4    C3580496   0.705   2.751   0.993  0.2831 -0.0608  0.4598
  959HK4    H1780497   0.607   2.713   0.964  0.3967  0.5683 -0.7810
  959HK4    C3680498   0.810   2.732   0.904 -0.1095 -0.8368  0.1578
  959HK4    H1880499   0.808   2.661   0.820 -2.5935 -0.1287 -0.4081
  959HK4    C3780500   0.919   2.819   0.906 -0.2341 -0.6918  0.6793
  959HK4    H1980501   1.015   2.779   0.873 -0.1806  0.7048 -0.9133
  959HK4    C3880502   0.919   2.931   0.989 -0.1483 -0.0323 -0.2026
  959HK4    H2080503   0.984   3.015   0.966 -0.3277  0.5642  1.4539
  959HK4    C1480504   0.626   3.221   1.515  0.2469  0.3585 -0.3339
  959HK4     C980505   0.582   3.344   1.465  0.5062  0.6097  0.0537
  959HK4     C880506   0.530   3.440   1.554 -0.6467 -0.4034  0.4850
  959HK4    C1180507   0.525   3.403   1.688  0.0190 -0.1320  0.5901
  959HK4     H480508   0.481   3.477   1.757 -2.4357  0.1400 -1.1978
  959HK4    C1280509   0.568   3.283   1.743 -0.0489 -0.4604 -0.0731
  959HK4     H580510   0.578   3.260   1.850  3.4529  0.6217 -0.1168
  959HK4    C1380511   0.614   3.188   1.652 -0.2002 -0.1349 -0.4881
  959HK4     H680512   0.648   3.090   1.686 -1.5853 -0.6406 -0.5374
  959HK4     C780513   0.483   3.569   1.499  0.2571 -0.1358  0.3229
  959HK4     O280514   0.444   3.655   1.578  0.1969 -0.0840  0.2375
  959HK4     C480515   0.491   3.602   1.355  0.6139  0.1465  0.4071
  959HK4     C380516   0.440   3.723   1.309 -0.4299 -0.3397  0.2691
  959HK4     H380517   0.424   3.809   1.375  0.8463 -0.1350  0.3338
  959HK4     C280518   0.452   3.747   1.173 -0.2167 -0.1107  0.3264
  959HK4     H280519   0.385   3.821   1.126  0.0245  0.6339  1.1562
  959HK4     C180520   0.533   3.666   1.094 -0.4036  0.2936 -0.2836
  959HK4     H180521   0.553   3.702   0.992 -0.4230  0.6141 -0.1738
  959HK4     C680522   0.595   3.548   1.141 -0.2264  0.5981  0.2410
  959HK4     C580523   0.560   3.512   1.272 -0.3040 -0.1875  0.0017
  959HK4    C1080524   0.582   3.372   1.318 -0.0847 -0.1873 -0.0962
  959HK4     O180525   0.539   3.285   1.243 -0.2562 -0.2191  0.0367
  959HK4    C1680526   0.721   3.506   1.078 -0.2190  0.4600  0.3488
  959HK4    C1580527   0.813   3.604   1.036  0.8215 -0.3457  0.7407
  959HK4     H780528   0.802   3.708   1.069  1.7744  0.4139 -1.2703
  959HK4    C2080529   0.903   3.583   0.932  0.5189  0.1294  0.3851
  959HK4     H980530   0.957   3.670   0.895  0.1970  0.2877  0.2850
  959HK4    C1980531   0.908   3.462   0.865 -0.2351  0.3792 -0.1277
  959HK4    C1880532   0.817   3.355   0.904  0.3285 -0.0431  0.0274
  959HK4    C1780533   0.740   3.383   1.016  0.0260  0.8692 -0.3993
  959HK4     H880534   0.688   3.297   1.060  2.3507 -0.4064 -0.0436
  959HK4     N180535   0.815   3.251   0.810  0.0738 -0.2133  0.2228
  959HK4    C2180536   0.911   3.280   0.711 -0.2806 -0.3955 -0.1751
  959HK4    C2280537   0.965   3.411   0.742 -0.8386 -0.1608 -0.1867
  959HK4    C2680538   1.070   3.459   0.665 -0.0510 -0.7428  0.5238
  959HK4    H1380539   1.116   3.555   0.688 -0.2649 -0.4274 -0.3574
  959HK4    C2580540   1.118   3.389   0.555  0.1662  0.0947  0.0877
  959HK4    H1280541   1.199   3.435   0.498  1.0208 -2.9320 -1.2447
  959HK4    C2480542   1.052   3.273   0.517 -0.4348  0.6874 -0.7132
  959HK4    H1180543   1.079   3.210   0.431 -1.1843 -1.5959  0.6741
  959HK4    C2380544   0.947   3.220   0.591 -0.0872  0.3235 -0.4815
  959HK4    H1080545   0.885   3.137   0.557 -0.4582  1.8986 -3.8325
  959HK4    C3980546   0.710   3.160   0.792  0.2079 -0.6175  1.4189
  959HK4    C4180547   0.739   3.036   0.731  0.1849 -0.1284  0.3982
  959HK4    H2180548   0.844   3.002   0.723  0.6071  1.4256 -0.9165
  959HK4    C4280549   0.640   2.946   0.696  0.0434  0.0036  0.4606
  959HK4    H2280550   0.672   2.846   0.665  2.1966  0.6444  0.5652
  959HK4    C4380551   0.506   2.977   0.718  0.0329  0.2417  0.0674
  959HK4    H2380552   0.423   2.915   0.683 -1.5506  0.0741  3.8775
  959HK4    C4480553   0.474   3.093   0.788 -0.1257  0.1184  0.2008
  959HK4    H2480554   0.370   3.109   0.819 -0.3711 -1.7366  0.4176
  959HK4    C4580555   0.574   3.183   0.822 -0.0036  0.0578  0.0065
  959HK4    H2580556   0.558   3.260   0.899 -1.4967 -1.6363  1.4685
  960HK4    H2880557   1.201   9.294   6.759  0.2705  1.1267 -0.5163
  960HK4    C4880558   1.223   9.339   6.855  0.0391 -0.4891  0.3155
  960HK4    C4780559   1.233   9.264   6.972  0.4530 -0.7739  0.0980
  960HK4    H2780560   1.246   9.155   6.967 -0.4573 -0.8957  0.2510
  960HK4    C4680561   1.268   9.325   7.092 -0.3958 -0.2452  0.0805
  960HK4    H2680562   1.279   9.251   7.173 -0.7998 -0.5652 -0.1558
  960HK4    C4080563   1.296   9.463   7.093 -0.4617 -0.2314  0.3192
  960HK4    C5080564   1.273   9.538   6.977 -0.7235 -0.2323  0.3718
  960HK4    H3080565   1.297   9.646   6.973 -1.9539  0.1762  3.0415
  960HK4    C4980566   1.238   9.477   6.856  0.5134 -0.5417  0.1690
  960HK4    H2980567   1.197   9.534   6.771 -1.6015 -0.3568  1.2714
  960HK4     N280568   1.356   9.525   7.204  0.2056 -0.3000  0.0014
  960HK4    C3080569   1.435   9.642   7.201  0.2716 -0.3442 -0.0561
  960HK4    C2980570   1.543   9.673   7.121  0.1839  0.1358  0.0119
  960HK4    H1580571   1.569   9.607   7.038  0.0947  0.6730 -0.4499
  960HK4    C2880572   1.634   9.774   7.150  0.2326  0.1840 -0.3058
  960HK4    C2780573   1.606   9.850   7.265 -0.2916  0.0975 -0.3756
  960HK4    H1480574   1.661   9.942   7.289 -0.2847  0.9915 -3.6052
  960HK4    C3280575   1.506   9.819   7.357  0.1365  0.0601  0.0788
  960HK4    H1680576   1.484   9.883   7.442  0.7553 -1.9684  1.7930
  960HK4    C3180577   1.419   9.716   7.325  0.6695 -0.3728  0.0114
  960HK4    C3480578   1.334   9.635   7.411  0.7787 -0.3286  0.1580
  960HK4    C3380579   1.289   9.524   7.328 -0.2861  0.4049 -0.2543
  960HK4    C3580580   1.219   9.423   7.393  0.4377 -0.0143 -0.1228
  960HK4    H1780581   1.174   9.342   7.336  0.4729 -0.4563  0.4721
  960HK4    C3680582   1.213   9.424   7.532  0.3433 -0.1412 -0.1262
  960HK4    H1880583   1.180   9.332   7.582  1.8833 -0.2017  0.8275
  960HK4    C3780584   1.259   9.530   7.610 -0.2329 -0.3730  0.5278
  960HK4    H1980585   1.266   9.524   7.719  0.2391  0.2231  0.5288
  960HK4    C3880586   1.313   9.641   7.548 -0.2651 -0.6419  0.0159
  960HK4    H2080587   1.335   9.730   7.607 -0.0696  0.0037 -0.9996
  960HK4    C1480588   1.765   9.786   7.084  0.2404  0.4705 -0.2411
  960HK4     C980589   1.880   9.834   7.148  0.0794  0.5336  0.0054
  960HK4     C880590   1.974   9.908   7.072  0.4817  0.4090  0.3851
  960HK4    C1180591   1.954   9.918   6.935 -0.8185  0.3488  0.5655
  960HK4     H480592   2.028   9.972   6.874 -1.6999  1.3916  0.4039
  960HK4    C1280593   1.851   9.857   6.863 -0.0461  0.0325 -0.2781
  960HK4     H580594   1.858   9.853   6.754 -0.4075  0.9940 -0.3382
  960HK4    C1380595   1.755   9.797   6.944 -0.1386  0.2410 -0.2341
  960HK4     H680596   1.669   9.748   6.895  2.1939 -0.5934 -3.6941
  960HK4     C780597   2.065  10.003   7.140  0.5976  0.1816  0.5518
  960HK4     O280598   2.162  10.047   7.080 -0.0282  0.5790 -0.1789
  960HK4     C480599   2.053  10.021   7.287 -0.8185  0.6958  0.3865
  960HK4     C380600   2.126  10.126   7.342 -0.2258  0.1630  0.6313
  960HK4     H380601   2.218  10.167   7.297 -0.6211  0.3996  0.0226
  960HK4     C280602   2.108  10.156   7.476  0.0186 -0.1722  0.7416
  960HK4     H280603   2.150  10.246   7.524 -2.0564  0.4908  1.3874
  960HK4     C180604   2.009  10.087   7.544 -0.0702 -0.1901  0.5930
  960HK4     H180605   1.962  10.142   7.627 -0.2644 -0.6498  0.7912
  960HK4     C680606   1.939   9.973   7.498  0.6654 -0.5878  0.4505
  960HK4     C580607   1.970   9.939   7.366 -0.0622 -0.2715  0.1943
  960HK4    C1080608   1.902   9.827   7.295  0.2288 -0.2894 -0.0575
  960HK4     O180609   1.901   9.716   7.348  0.3384 -0.1094  0.3244
  960HK4    C1680610   1.807   9.957   7.560  0.2972 -0.1008 -0.1997
  960HK4    C1580611   1.725  10.057   7.617 -0.6831 -0.6416 -0.6332
  960HK4     H780612   1.743  10.159   7.580  0.0925 -0.6574 -0.3215
  960HK4    C2080613   1.617  10.045   7.703  0.2054 -0.3919  0.5358
  960HK4     H980614   1.572  10.127   7.758  2.4229  0.0329  1.7693
  960HK4    C1980615   1.586   9.914   7.736 -0.9319 -0.2386  0.1346
  960HK4    C1880616   1.669   9.804   7.688 -0.1363  0.4868 -0.1715
  960HK4    C1780617   1.776   9.829   7.603  0.4098  0.0684  0.3889
  960HK4     H880618   1.839   9.747   7.569 -1.8899 -0.3863 -3.0894
  960HK4     N180619   1.632   9.683   7.751  0.0746  0.3568 -0.2967
  960HK4    C2180620   1.521   9.714   7.833 -0.1041 -0.3093 -0.2875
  960HK4    C2280621   1.498   9.857   7.836 -0.1762 -0.3407  0.7472
  960HK4    C2680622   1.387   9.909   7.901 -0.4210  0.2070 -0.1006
  960HK4    H1380623   1.351  10.012   7.904 -0.4219  0.2291 -0.8137
  960HK4    C2580624   1.308   9.820   7.973 -0.0098 -0.3147 -0.2894
  960HK4    H1280625   1.224   9.866   8.026 -0.6538  1.7593 -2.9984
  960HK4    C2480626   1.336   9.684   7.984  0.1892 -0.2028  0.6860
  960HK4    H1180627   1.273   9.623   8.049 -0.8607 -0.2756 -0.3893
  960HK4    C2380628   1.439   9.630   7.907 -0.0599  0.0529  0.1687
  960HK4    H1080629   1.457   9.523   7.901  0.2230  0.0361  1.1347
  960HK4    C3980630   1.673   9.554   7.717 -0.6118  0.0532  0.0317
  960HK4    C4180631   1.688   9.465   7.825  0.1516  0.2932  0.1313
  960HK4    H2180632   1.699   9.507   7.926 -0.5236  0.0496  0.3130
  960HK4    C4280633   1.647   9.334   7.800  0.1936  0.2622  0.2271
  960HK4    H2280634   1.659   9.253   7.874  0.8754  0.2514  0.1128
  960HK4    C4380635   1.599   9.291   7.677 -0.1862  0.1037  0.4275
  960HK4    H2380636   1.575   9.186   7.661  1.4255 -0.2312  0.1224
  960HK4    C4480637   1.598   9.377   7.567  0.2876 -0.4145  0.0157
  960HK4    H2480638   1.531   9.360   7.482  0.3220  0.6149 -0.2207
  960HK4    C4580639   1.638   9.508   7.588  0.3385 -0.4192 -0.0622
  960HK4    H2580640   1.625   9.586   7.512  1.5632 -1.2825 -1.1763
  961HK4    H2880641  11.236   3.978   6.690  0.6404 -1.4609 -2.9549
  961HK4    C4880642  11.129   3.982   6.667 -0.0390  0.0507  0.0770
  961HK4    C4780643  11.098   3.982   6.531 -0.0831 -0.2355  0.0869
  961HK4    H2780644  11.170   3.975   6.448 -0.1606  0.6804 -0.0644
  961HK4    C4680645  10.965   3.999   6.494  0.0501  0.5975 -0.0136
  961HK4    H2680646  10.929   3.978   6.392  0.7949 -1.5901  0.1594
  961HK4    C4080647  10.861   4.018   6.586  0.0478 -0.0890  0.1205
  961HK4    C5080648  10.900   4.025   6.722  0.0363  0.6854  0.0894
  961HK4    H3080649  10.821   4.029   6.798  1.0907  0.5974  1.1944
  961HK4    C4980650  11.031   4.006   6.762 -0.0142  0.2474  0.0522
  961HK4    H2980651  11.057   3.987   6.867  0.1616  0.6573  0.0829
  961HK4     N280652  10.734   4.069   6.554  0.2357  0.4031  0.1513
  961HK4    C3080653  10.703   4.155   6.447 -0.3658  0.3734  0.3013
  961HK4    C2980654  10.777   4.250   6.377  0.3616 -1.0529 -0.8962
  961HK4    H1580655  10.885   4.240   6.377  0.2335 -2.7765 -2.6271
  961HK4    C2880656  10.726   4.330   6.276  0.4683  0.2808  0.0935
  961HK4    C2780657  10.601   4.290   6.225  0.6023 -0.1624  0.1088
  961HK4    H1480658  10.572   4.333   6.128  1.5656  0.6119  0.1588
  961HK4    C3280659  10.522   4.195   6.288  0.1268 -0.1593 -0.4739
  961HK4    H1680660  10.422   4.177   6.249 -0.8920 -2.0181  2.8014
  961HK4    C3180661  10.566   4.130   6.403 -0.0390 -0.1804 -0.4211
  961HK4    C3480662  10.510   4.041   6.503  0.1478  0.5439  0.3356
  961HK4    C3380663  10.615   4.005   6.595  0.2865  0.2522  0.0623
  961HK4    C3580664  10.591   3.935   6.713 -0.0832  0.5647  0.1724
  961HK4    H1780665  10.670   3.896   6.777 -0.7075  0.7659  1.0761
  961HK4    C3680666  10.459   3.903   6.745 -0.1205  0.4153 -0.1178
  961HK4    H1880667  10.442   3.844   6.836  1.1009 -0.6581 -0.5688
  961HK4    C3780668  10.355   3.936   6.659 -0.1599  0.1519 -0.1684
  961HK4    H1980669  10.252   3.902   6.671 -0.3511  1.4018  1.9839
  961HK4    C3880670  10.383   3.999   6.538  0.2216 -0.1671 -0.2464
  961HK4    H2080671  10.292   4.010   6.478 -2.3709  3.4858  4.0443
  961HK4    C1480672  10.781   4.466   6.263  0.4076  0.2698 -0.2630
  961HK4     C980673  10.698   4.574   6.231 -0.3580 -0.2470 -0.0365
  961HK4     C880674  10.746   4.682   6.154 -0.1853  0.0387  0.4718
  961HK4    C1180675  10.879   4.679   6.113 -0.3811  0.0892 -0.1832
  961HK4     H480676  10.915   4.770   6.064  1.7192 -1.5206 -1.7292
  961HK4    C1280677  10.971   4.582   6.154 -0.1269  0.1614 -0.5864
  961HK4     H580678  11.075   4.582   6.118  1.1577  1.9784  2.8880
  961HK4    C1380679  10.917   4.477   6.227  0.4927  0.2852  0.0521
  961HK4     H680680  10.995   4.408   6.259  2.0877  2.0617  0.0589
  961HK4     C780681  10.657   4.789   6.106  0.2921  0.1500 -0.1692
  961HK4     O280682  10.699   4.893   6.055  0.1636  0.2390 -0.0917
  961HK4     C480683  10.510   4.773   6.112  0.3134  0.1150  0.2812
  961HK4     C380684  10.427   4.857   6.040  0.0201 -0.4615 -0.0637
  961HK4     H380685  10.465   4.902   5.946  0.4576  3.2833  1.8027
  961HK4     C280686  10.292   4.867   6.070  0.1772 -0.1422  0.5235
  961HK4     H280687  10.229   4.956   6.055  0.7852 -0.0216 -1.4081
  961HK4     C180688  10.244   4.765   6.153 -0.0906 -0.3136  0.1583
  961HK4     H180689  10.138   4.749   6.175  0.0044 -2.0496 -0.5342
  961HK4     C680690  10.321   4.662   6.211  0.0897 -0.0406  0.4041
  961HK4     C580691  10.459   4.676   6.201  0.0689 -0.3526 -0.3583
  961HK4    C1080692  10.555   4.585   6.271 -0.3130 -0.3589  0.1511
  961HK4     O180693  10.537   4.584   6.393  0.0717 -0.0223  0.2116
  961HK4    C1680694  10.250   4.534   6.225  0.2922 -0.1829  0.1157
  961HK4    C1580695  10.167   4.478   6.125 -0.3417  0.4201  0.3000
  961HK4     H780696  10.149   4.538   6.035  0.3738  0.4002  0.1382
  961HK4    C2080697  10.092   4.362   6.144 -0.0245  0.2152  0.3073
  961HK4     H980698  10.042   4.322   6.056 -1.7940 -0.4899  1.6052
  961HK4    C1980699  10.101   4.297   6.266 -0.4239 -0.0256  0.2077
  961HK4    C1880700  10.181   4.358   6.371 -0.1049  0.0472 -0.0764
  961HK4    C1780701  10.252   4.475   6.350 -0.3517  0.2715  0.3454
  961HK4     H880702  10.251   4.526   6.447 -0.7492  0.9142  0.0035
  961HK4     N180703  10.162   4.286   6.490 -0.1210 -0.1261 -0.1829
  961HK4    C2180704  10.072   4.182   6.462  0.1950 -0.5607  0.3940
  961HK4    C2280705  10.024   4.189   6.325  0.2339 -0.3936  0.3886
  961HK4    C2680706   9.947   4.088   6.270  0.5588 -0.4259 -0.0135
  961HK4    H1380707   9.922   4.100   6.165 -0.3487 -2.1993 -0.0294
  961HK4    C2580708   9.912   3.977   6.347  0.0127 -0.3255 -0.1156
  961HK4    H1280709   9.832   3.905   6.325 -1.2605  1.3126 -0.9689
  961HK4    C2480710   9.967   3.968   6.474  0.1035 -0.0903 -0.1394
  961HK4    H1180711   9.947   3.880   6.536 -1.0735  1.0730  1.1576
  961HK4    C2380712  10.048   4.064   6.533 -0.0254 -0.4149  0.5667
  961HK4    H1080713  10.102   4.041   6.625  0.0781  0.0491  0.6247
  961HK4    C3980714  10.232   4.304   6.610  0.1317  0.1210 -0.3663
  961HK4    C4180715  10.183   4.249   6.731  0.3375 -0.5157 -0.5714
  961HK4    H2180716  10.074   4.248   6.743  0.6553  2.0911  3.2838
  961HK4    C4280717  10.260   4.235   6.846 -0.3089  0.2820 -0.0457
  961HK4    H2280718  10.222   4.217   6.948 -1.4828 -0.2765 -0.5753
  961HK4    C4380719  10.393   4.274   6.848 -0.1231 -0.3313 -0.1107
  961HK4    H2380720  10.442   4.264   6.945 -1.9884  0.3011  0.9118
  961HK4    C4480721  10.449   4.325   6.731 -0.3976 -0.0629 -0.1258
  961HK4    H2480722  10.528   4.401   6.741 -0.7413  0.3592 -0.6041
  961HK4    C4580723  10.369   4.338   6.618  0.1690  0.0033 -0.5208
  961HK4    H2580724  10.424   4.378   6.532  0.5557 -0.3306 -0.4281
  962HK4    H2880725  10.462   7.484   8.665  0.7884  0.2045 -0.7062
  962HK4    C4880726  10.509   7.399   8.713 -0.1652  0.2295  0.2773
  962HK4    C4780727  10.474   7.347   8.837 -0.8897 -0.3233 -0.1490
  962HK4    H2780728  10.389   7.385   8.897 -0.8561 -0.8969  0.2644
  962HK4    C4680729  10.526   7.230   8.889 -0.0691  0.2221  0.2726
  962HK4    H2680730  10.489   7.204   8.990 -1.1333  0.7428  0.0204
  962HK4    C4080731  10.622   7.163   8.810  0.0115  0.4353  0.1856
  962HK4    C5080732  10.667   7.224   8.692 -0.3356  0.3395  0.0047
  962HK4    H3080733  10.747   7.171   8.639 -1.0080  0.8984 -1.6084
  962HK4    C4980734  10.608   7.338   8.638 -0.5584  0.1370 -0.1723
  962HK4    H2980735  10.672   7.390   8.564 -2.4045  1.4852 -0.8588
  962HK4     N280736  10.680   7.045   8.857 -0.7086 -0.1760 -0.4369
  962HK4    C3080737  10.669   6.999   8.990 -0.2908  0.1545 -0.2897
  962HK4    C2980738  10.683   7.068   9.110 -0.1909 -0.1011 -0.1521
  962HK4    H1580739  10.676   7.177   9.107 -1.5103 -0.2044 -1.7989
  962HK4    C2880740  10.705   7.012   9.235 -0.5655  0.2386  0.0700
  962HK4    C2780741  10.698   6.871   9.239  0.0390  0.1962 -0.2921
  962HK4    H1480742  10.689   6.824   9.338 -0.4077 -0.9388 -0.8590
  962HK4    C3280743  10.679   6.794   9.124  1.3174 -0.1166 -0.3018
  962HK4    H1680744  10.678   6.686   9.142 -0.0002 -0.2449 -1.0857
  962HK4    C3180745  10.672   6.855   8.999 -0.3558  0.1655 -0.0861
  962HK4    C3480746  10.698   6.811   8.864  0.8658  0.2264  0.1206
  962HK4    C3380747  10.696   6.929   8.779 -0.0695 -0.1338 -0.3710
  962HK4    C3580748  10.689   6.907   8.642 -0.0071  0.1157 -0.4139
  962HK4    H1780749  10.684   6.996   8.578  1.2271 -1.8219 -3.3196
  962HK4    C3680750  10.668   6.782   8.585 -0.3091 -0.0038 -0.0398
  962HK4    H1880751  10.654   6.775   8.476  1.0790  0.2781 -0.2485
  962HK4    C3780752  10.682   6.672   8.667  0.2849  0.2405  0.1842
  962HK4    H1980753  10.681   6.571   8.626 -1.6095  0.6916 -0.8927
  962HK4    C3880754  10.698   6.685   8.805  0.4591  0.2026  0.1690
  962HK4    H2080755  10.704   6.595   8.867  0.5053 -0.6577 -1.0607
  962HK4    C1480756  10.755   7.092   9.347  0.7586  0.1040 -0.4210
  962HK4     C980757  10.834   7.030   9.445 -0.0924 -0.3427 -0.0214
  962HK4     C880758  10.824   7.076   9.578  0.2091  0.0232 -0.1244
  962HK4    C1180759  10.741   7.186   9.602 -0.0985 -0.2737  0.1740
  962HK4     H480760  10.771   7.238   9.694 -1.1067 -0.8400  0.8287
  962HK4    C1280761  10.659   7.247   9.508  0.2487 -0.4113 -0.2213
  962HK4     H580762  10.584   7.320   9.542  0.5765 -0.2349  0.1287
  962HK4    C1380763  10.675   7.205   9.377  0.2607 -0.2933 -0.2607
  962HK4     H680764  10.604   7.235   9.299 -2.8381  1.4279  3.1052
  962HK4     C780765  10.887   7.002   9.690 -0.1287 -0.1786 -0.0658
  962HK4     O280766  10.862   7.036   9.805  0.6712 -0.3264  0.1543
  962HK4     C480767  10.959   6.876   9.664  0.4388  0.1299  0.0033
  962HK4     C380768  10.996   6.798   9.774  1.0035  0.5723  0.1294
  962HK4     H380769  10.992   6.833   9.878  1.5899  0.9286  0.0366
  962HK4     C280770  11.047   6.670   9.754 -0.0204  0.1750 -0.0303
  962HK4     H280771  11.100   6.614   9.833  2.1994  1.4294 -0.5876
  962HK4     C180772  11.060   6.629   9.622  0.7088 -0.0781  0.1151
  962HK4     H180773  11.105   6.530   9.606  0.3237  0.0628 -2.0320
  962HK4     C680774  11.029   6.704   9.507 -0.0563 -0.5956 -0.0216
  962HK4     C580775  10.985   6.835   9.532 -0.2763 -0.6961  0.1141
  962HK4    C1080776  10.937   6.925   9.423 -0.3746 -0.6643  0.1867
  962HK4     O180777  11.003   6.955   9.324  0.0494 -0.0332  0.6626
  962HK4    C1680778  10.978   6.626   9.393  0.1601 -0.8398  0.0523
  962HK4    C1580779  10.928   6.495   9.408 -0.7698 -0.4338  0.5252
  962HK4     H780780  10.924   6.458   9.512  3.4213  1.9693  1.6560
  962HK4    C2080781  10.906   6.410   9.300 -0.0568  0.0180  0.0180
  962HK4     H980782  10.849   6.320   9.322  1.4291 -0.8035  0.6134
  962HK4    C1980783  10.935   6.451   9.171 -0.1309  0.3994  0.1201
  962HK4    C1880784  10.995   6.581   9.147  0.0085  0.3431  0.1692
  962HK4    C1780785  11.017   6.655   9.263 -0.3582  0.4447  0.1759
  962HK4     H880786  11.083   6.739   9.241  0.2838 -0.5301 -1.8011
  962HK4     N180787  11.022   6.601   9.010  0.2805 -0.1984  0.1412
  962HK4    C2180788  10.974   6.486   8.944 -0.0399  0.0570 -0.0766
  962HK4    C2280789  10.932   6.386   9.041  0.2869  0.1977  0.2090
  962HK4    C2680790  10.890   6.261   8.999 -0.2578  0.4235  0.0687
  962HK4    H1380791  10.842   6.188   9.065  2.4128 -1.6515 -0.1945
  962HK4    C2580792  10.904   6.229   8.865 -0.0369  0.2687  0.1248
  962HK4    H1280793  10.893   6.124   8.841  2.1649 -0.0847  0.5701
  962HK4    C2480794  10.930   6.330   8.772 -0.0029  0.0427 -0.1104
  962HK4    H1180795  10.937   6.302   8.666  3.3608  1.1741 -0.2622
  962HK4    C2380796  10.973   6.457   8.808  0.2239 -0.0476 -0.0622
  962HK4    H1080797  11.031   6.514   8.735  3.0097 -2.4702  0.1943
  962HK4    C3980798  11.127   6.681   8.964 -0.0788  0.2499  0.0925
  962HK4    C4180799  11.124   6.742   8.837 -0.0163  0.1614  0.0474
  962HK4    H2180800  11.028   6.770   8.791 -0.6037 -0.9290  0.6040
  962HK4    C4280801  11.246   6.778   8.781 -0.2214  0.5750 -0.1376
  962HK4    H2280802  11.246   6.833   8.686  0.6073 -2.2343 -1.8295
  962HK4    C4380803   0.118   6.760   8.850 -0.4571 -0.5091  0.0051
  962HK4    H2380804   0.204   6.810   8.805 -2.1618  1.5331 -1.0800
  962HK4    C4480805   0.121   6.707   8.978 -0.0080 -0.2768  0.0956
  962HK4    H2480806   0.218   6.681   9.023  0.0631 -0.9148 -0.4306
  962HK4    C4580807   0.000   6.668   9.035 -0.0466 -0.4078 -0.0830
  962HK4    H2580808  11.243   6.641   9.141 -0.5169  1.0509  0.2728
  963HK4    H2880809   5.985   7.077   1.056 -0.0442 -0.2207 -0.5718
  963HK4    C4880810   6.084   7.080   1.012  0.3713 -0.3186  0.3545
  963HK4    C4780811   6.136   7.207   0.988  0.0292 -0.3314 -0.4806
  963HK4    H2780812   6.075   7.298   0.995 -0.0997 -0.5849  2.2274
  963HK4    C4680813   6.268   7.209   0.945  0.3874  0.2901  0.6347
  963HK4    H2680814   6.323   7.305   0.940 -1.0444  1.2648  2.9489
  963HK4    C4080815   6.347   7.094   0.923  0.1585  0.1876  0.3436
  963HK4    C5080816   6.292   6.968   0.955 -0.2394  0.2926  0.0743
  963HK4    H3080817   6.347   6.873   0.958  0.3716  0.6724  1.5447
  963HK4    C4980818   6.159   6.964   0.995  0.1412 -0.6024  1.2830
  963HK4    H2980819   6.117   6.864   1.016  0.3983 -0.6418  1.6046
  963HK4     N280820   6.463   7.095   0.845 -0.1007  0.1963 -0.0426
  963HK4    C3080821   6.486   7.181   0.736 -0.1513 -0.0731 -0.2663
  963HK4    C2980822   6.410   7.271   0.663 -0.3196 -0.2013 -0.2502
  963HK4    H1580823   6.306   7.288   0.690  0.0392  0.4936  0.7110
  963HK4    C2880824   6.458   7.344   0.555 -0.5151  0.3347  0.0230
  963HK4    C2780825   6.588   7.314   0.508 -0.4334  0.7496 -0.0278
  963HK4    H1480826   6.637   7.374   0.430  0.5288  0.9091  0.6919
  963HK4    C3280827   6.670   7.225   0.577 -0.7995  0.4533  0.0311
  963HK4    H1680828   6.773   7.212   0.543 -1.5410 -1.9092 -1.3765
  963HK4    C3180829   6.623   7.161   0.691 -0.0232 -0.0140  0.0921
  963HK4    C3480830   6.685   7.061   0.775  0.2445  0.3269  0.2998
  963HK4    C3380831   6.581   7.022   0.869  0.0987  0.6197  0.2608
  963HK4    C3580832   6.612   6.924   0.963 -0.0025  0.5615  0.2327
  963HK4    H1780833   6.540   6.881   1.032  0.1423  0.4580  0.3174
  963HK4    C3680834   6.740   6.870   0.959 -0.1821  0.1645 -0.3448
  963HK4    H1880835   6.769   6.798   1.037  1.0381  0.6520 -0.3363
  963HK4    C3780836   6.838   6.911   0.870  0.6370  0.1828  0.5603
  963HK4    H1980837   6.938   6.877   0.896  0.5227 -0.3343  0.3303
  963HK4    C3880838   6.814   7.010   0.775  0.0439 -0.1845  0.3305
  963HK4    H2080839   6.878   7.032   0.689 -1.8094 -0.6934 -1.2261
  963HK4    C1480840   6.373   7.449   0.496  0.1760  0.7874 -0.1786
  963HK4     C980841   6.387   7.489   0.363 -0.3451  0.5028 -0.3194
  963HK4     C880842   6.365   7.624   0.331 -0.3170  0.5727 -0.0412
  963HK4    C1180843   6.327   7.709   0.434  0.9655  0.5263  0.4712
  963HK4     H480844   6.301   7.814   0.410  1.6736  0.5192 -0.3662
  963HK4    C1280845   6.296   7.668   0.563 -0.3140 -0.0290 -0.0077
  963HK4     H580846   6.222   7.721   0.624  1.1356  1.3569  0.5745
  963HK4    C1380847   6.315   7.533   0.593  0.6857  0.2397  0.6183
  963HK4     H680848   6.302   7.498   0.696 -0.4050  1.7305  1.0104
  963HK4     C780849   6.374   7.675   0.192 -0.4861  0.2597 -0.1692
  963HK4     O280850   6.409   7.792   0.172 -0.6468  0.2301 -0.6269
  963HK4     C480851   6.378   7.575   0.084  0.2835 -0.0968  0.1828
  963HK4     C380852   6.373   7.616  11.199  0.2699  0.3353  0.3138
  963HK4     H380853   6.364   7.724  11.181  2.1233  0.3043 -0.8801
  963HK4     C280854   6.389   7.532  11.089 -0.3497  0.1238  0.3860
  963HK4     H280855   6.387   7.566  10.985  1.3492 -2.6058 -0.5833
  963HK4     C180856   6.428   7.403  11.123  0.3489  0.2318  0.0070
  963HK4     H180857   6.426   7.322  11.049  1.4923 -0.9558  1.2472
  963HK4     C680858   6.458   7.361   0.007 -0.4811 -0.3506  0.0227
  963HK4     C580859   6.410   7.441   0.112  0.2891 -0.0956  0.1861
  963HK4    C1080860   6.393   7.390   0.251  0.1544 -0.0478  0.1860
  963HK4     O180861   6.327   7.288   0.267  0.1741 -0.2081 -0.7046
  963HK4    C1680862   6.573   7.271   0.026 -0.5253 -0.4170 -0.0198
  963HK4    C1580863   6.664   7.248  11.169 -0.4924 -0.1395 -0.0522
  963HK4     H780864   6.694   7.340  11.116  0.0842  0.1606  0.7856
  963HK4    C2080865   6.747   7.136  11.162  0.0125  0.2146  0.2254
  963HK4     H980866   6.799   7.121  11.068  1.1192 -1.3930  1.0795
  963HK4    C1980867   6.749   7.042   0.017  0.0173  0.2050  0.2153
  963HK4    C1880868   6.673   7.079   0.135  0.0272 -0.5050  0.4443
  963HK4    C1780869   6.588   7.189   0.137  0.5354 -0.1009  0.0719
  963HK4     H880870   6.562   7.233   0.233  1.5851 -0.0853  0.3604
  963HK4     N180871   6.698   6.989   0.240  0.2054 -0.2150  0.6529
  963HK4    C2180872   6.799   6.903   0.193  0.4995  0.4997 -0.0240
  963HK4    C2280873   6.830   6.928   0.053  0.0863  0.1254 -0.1810
  963HK4    C2680874   6.919   6.849  11.230 -0.1096 -0.3197  0.0658
  963HK4    H1380875   6.932   6.862  11.122  3.2195 -0.6495  0.3789
  963HK4    C2580876   6.992   6.751   0.048  0.9389  0.4352  0.0285
  963HK4    H1280877   7.060   6.684  11.242 -2.5118 -2.6624 -0.6570
  963HK4    C2480878   6.973   6.734   0.185 -0.1901  0.2323 -0.1548
  963HK4    H1180879   7.047   6.669   0.233  0.7074  3.4068  2.9253
  963HK4    C2380880   6.877   6.806   0.255 -0.4622 -0.2734 -0.0056
  963HK4    H1080881   6.878   6.787   0.363  0.1481  1.1537  0.2621
  963HK4    C3980882   6.623   6.973   0.357 -0.3133  0.1292  0.3670
  963HK4    C4180883   6.670   6.904   0.470 -0.2462 -0.4069  0.0115
  963HK4    H2180884   6.777   6.915   0.494 -0.0924 -0.3032 -0.7099
  963HK4    C4280885   6.589   6.834   0.558  0.3610 -0.7827  0.2814
  963HK4    H2280886   6.621   6.775   0.645 -0.2146 -1.2931  0.1537
  963HK4    C4380887   6.451   6.836   0.540  0.3033  0.1602  0.7310
  963HK4    H2380888   6.387   6.770   0.598  0.0175  0.3450  0.6264
  963HK4    C4480889   6.402   6.907   0.431  0.0192 -1.3858 -0.1740
  963HK4    H2480890   6.294   6.923   0.422  0.2690  0.4599 -0.1336
  963HK4    C4580891   6.482   6.977   0.342 -0.3361 -0.1220  0.4911
  963HK4    H2580892   6.441   7.020   0.249  1.4681 -1.0207 -0.7727
  964HK4    H2880893   9.570   1.144   3.449  0.0492  0.1426 -1.9151
  964HK4    C4880894   9.597   1.039   3.438 -0.6202 -0.2680  0.0830
  964HK4    C4780895   9.503   0.945   3.396 -1.0213  0.1989 -0.0778
  964HK4    H2780896   9.402   0.967   3.360 -1.2034 -3.0551 -1.7167
  964HK4    C4680897   9.535   0.810   3.403  0.6416  0.6129  0.5915
  964HK4    H2680898   9.471   0.740   3.347  0.0745 -0.3076  2.3624
  964HK4    C4080899   9.653   0.763   3.465  0.7411 -0.1845 -0.1927
  964HK4    C5080900   9.744   0.861   3.508  0.2638  0.2236 -0.1147
  964HK4    H3080901   9.827   0.842   3.578  1.0066  2.2124 -0.4150
  964HK4    C4980902   9.717   0.997   3.493 -0.4131  0.0928 -0.0920
  964HK4    H2980903   9.801   1.064   3.517 -0.2956  0.1865 -0.7451
  964HK4     N280904   9.679   0.628   3.492 -0.0105 -0.3639 -0.3564
  964HK4    C3080905   9.592   0.519   3.511 -0.0262 -0.2152  0.4197
  964HK4    C2980906   9.467   0.515   3.571 -0.5119  0.1386 -0.5512
  964HK4    H1580907   9.433   0.611   3.609 -1.4715 -0.1179 -0.7614
  964HK4    C2880908   9.404   0.397   3.607  0.2175  0.0323  0.4150
  964HK4    C2780909   9.473   0.274   3.595 -0.4237 -0.2408 -0.5751
  964HK4    H1480910   9.428   0.176   3.613 -0.4984  0.3294  2.7706
  964HK4    C3280911   9.604   0.276   3.549 -0.2630 -0.2961 -0.1218
  964HK4    H1680912   9.662   0.186   3.525  0.3248  0.5186 -1.8023
  964HK4    C3180913   9.667   0.394   3.512 -0.0432 -0.2251  0.4705
  964HK4    C3480914   9.806   0.432   3.500 -0.0962 -0.4826 -0.9801
  964HK4    C3380915   9.810   0.576   3.481  0.0165 -0.3606 -0.0470
  964HK4    C3580916   9.930   0.635   3.446 -0.4420  0.2891 -0.5317
  964HK4    H1780917   9.932   0.744   3.437 -3.8382  0.4245 -0.1138
  964HK4    C3680918  10.041   0.558   3.413 -0.1825  0.5748 -0.3354
  964HK4    H1880919  10.130   0.607   3.371 -0.2608  1.9145  1.0277
  964HK4    C3780920  10.039   0.419   3.420 -0.0190  0.5624 -0.5383
  964HK4    H1980921  10.127   0.362   3.391 -0.6972 -0.9998  0.4111
  964HK4    C3880922   9.922   0.362   3.468  0.6002  0.0356  0.3532
  964HK4    H2080923   9.906   0.254   3.466 -0.1464  0.0610  2.9629
  964HK4    C1480924   9.275   0.403   3.677  0.2119  0.0381  0.4070
  964HK4     C980925   9.231   0.306   3.768  0.0064 -0.4613 -0.2205
  964HK4     C880926   9.092   0.286   3.781 -0.0457  0.0157 -0.0394
  964HK4    C1180927   9.003   0.358   3.703  0.4177  0.7132  0.0644
  964HK4     H480928   8.895   0.336   3.711  0.9412 -1.4514  1.8177
  964HK4    C1280929   9.044   0.453   3.610 -0.0471  0.2636 -0.6054
  964HK4     H580930   8.969   0.501   3.546 -0.6996 -0.3801 -0.3426
  964HK4    C1380931   9.181   0.471   3.598  0.0944 -0.0563  0.4652
  964HK4     H680932   9.216   0.548   3.528 -0.1926  0.1348  0.5335
  964HK4     C780933   9.039   0.197   3.887  0.1492 -0.0436  0.0089
  964HK4     O280934   8.935   0.134   3.863 -0.0708 -0.0810  1.0527
  964HK4     C480935   9.125   0.162   4.002 -0.0837 -0.7329 -0.0201
  964HK4     C380936   9.074   0.076   4.098 -0.8092 -0.3005 -0.0122
  964HK4     H380937   8.968   0.049   4.091 -1.2022  0.7672  1.4827
  964HK4     C280938   9.142   0.059   4.218  0.0095 -0.1471 -0.4469
  964HK4     H280939   9.098   0.012   4.307  0.6225 -0.5874 -0.3717
  964HK4     C180940   9.260   0.132   4.234 -0.3237  0.3728 -0.3256
  964HK4     H180941   9.313   0.106   4.327  0.0063  0.6404 -0.4416
  964HK4     C680942   9.314   0.221   4.139 -0.0203  0.2128 -0.2992
  964HK4     C580943   9.250   0.227   4.015 -0.0666 -0.7031 -0.3212
  964HK4    C1080944   9.313   0.274   3.889 -0.0592 -0.0087 -0.0561
  964HK4     O180945   9.436   0.267   3.889 -0.0450  0.1934  0.6467
  964HK4    C1680946   9.424   0.308   4.185 -0.0237 -0.0405  0.2047
  964HK4    C1580947   9.495   0.281   4.304 -0.0656  0.4653  0.3428
  964HK4     H780948   9.520   0.177   4.324  0.0397  0.7477  1.6806
  964HK4    C2080949   9.544   0.381   4.388 -0.0656  0.4388  0.3729
  964HK4     H980950   9.611   0.347   4.466  0.3381 -1.8009 -0.9052
  964HK4    C1980951   9.537   0.514   4.347  0.9513  0.3588 -0.0809
  964HK4    C1880952   9.491   0.540   4.212  0.0497  0.0644  0.1664
  964HK4    C1780953   9.425   0.440   4.141  0.0089 -0.0079  0.3067
  964HK4     H880954   9.372   0.474   4.053 -2.4798 -2.4875  0.7821
  964HK4     N180955   9.476   0.678   4.191 -0.1221  0.0581  0.2422
  964HK4    C2180956   9.511   0.741   4.312  0.1918  0.0290  0.1678
  964HK4    C2280957   9.557   0.643   4.409 -0.3954  0.2290  0.6462
  964HK4    C2680958   9.621   0.671   4.529 -0.0060 -0.6590  0.6489
  964HK4    H1380959   9.696   0.598   4.561  1.2812  0.5253  0.3601
  964HK4    C2580960   9.637   0.805   4.565 -0.8325 -0.2416 -0.5214
  964HK4    H1280961   9.678   0.821   4.664 -1.3972  0.1573 -0.3492
  964HK4    C2480962   9.606   0.902   4.471  0.1150  0.5109 -0.0600
  964HK4    H1180963   9.632   1.008   4.484 -0.6153  0.5424  1.2757
  964HK4    C2380964   9.551   0.869   4.347 -0.1779  0.1438  0.1659
  964HK4    H1080965   9.533   0.949   4.276  1.2301 -0.9782 -1.4837
  964HK4    C3980966   9.501   0.742   4.068 -0.3171  0.0324  0.1895
  964HK4    C4180967   9.449   0.870   4.043 -0.3474 -0.0523 -0.1778
  964HK4    H2180968   9.367   0.907   4.106 -1.6848 -0.3966 -1.6927
  964HK4    C4280969   9.484   0.946   3.932 -0.2215 -0.2758 -0.2894
  964HK4    H2280970   9.423   1.034   3.908  2.3599  1.6768  0.1735
  964HK4    C4380971   9.578   0.893   3.844 -0.1110  0.3540 -0.5539
  964HK4    H2380972   9.628   0.961   3.775 -0.0933  2.1909  1.2410
  964HK4    C4480973   9.627   0.764   3.858 -0.0851  0.4092 -0.1287
  964HK4    H2480974   9.677   0.717   3.771  1.0130  2.3246 -0.5755
  964HK4    C4580975   9.596   0.695   3.975  0.1332  0.8895  0.2131
  964HK4    H2580976   9.659   0.608   4.000 -0.8646 -0.0758 -0.5769
  965HK4    H2880977   3.158   3.619   8.442 -0.5580  3.0180 -0.3242
  965HK4    C4880978   3.053   3.601   8.464 -0.0714 -0.1192 -0.2968
  965HK4    C4780979   3.030   3.525   8.578 -0.1965 -0.1424 -0.3377
  965HK4    H2780980   3.110   3.505   8.650 -0.3840 -0.2094 -0.1480
  965HK4    C4680981   2.900   3.485   8.607 -0.1054 -0.1426  0.0673
  965HK4    H2680982   2.879   3.442   8.706  1.0417  1.3770  1.0071
  965HK4    C4080983   2.790   3.522   8.527  0.0062 -0.4659 -0.2355
  965HK4    C5080984   2.816   3.606   8.417 -0.4060 -0.1361 -0.0820
  965HK4    H3080985   2.742   3.635   8.341 -0.4396 -0.7679 -0.2896
  965HK4    C4980986   2.946   3.645   8.386 -0.3345 -0.3696 -0.0766
  965HK4    H2980987   2.964   3.728   8.317  1.8303  0.0457  0.9391
  965HK4     N280988   2.666   3.457   8.537 -0.4206  0.4699  0.7405
  965HK4    C3080989   2.642   3.325   8.582  0.1371  0.1973  0.2445
  965HK4    C2980990   2.725   3.222   8.626 -0.0382 -0.1999 -0.3377
  965HK4    H1580991   2.833   3.230   8.618  0.1794 -1.1822  1.4426
  965HK4    C2880992   2.670   3.100   8.663  0.0109 -0.0705  0.1628
  965HK4    C2780993   2.533   3.075   8.641  0.0045  0.2066 -0.1170
  965HK4    H1480994   2.488   2.984   8.684  0.7350 -0.0449  0.1293
  965HK4    C3280995   2.450   3.165   8.576 -0.5061  0.1180  0.4118
  965HK4    H1680996   2.350   3.139   8.542  0.2580  0.2348 -2.0340
  965HK4    C3180997   2.506   3.290   8.549  0.3034 -0.3091  0.0963
  965HK4    C3480998   2.447   3.404   8.482  0.0408 -0.4022  0.1619
  965HK4    C3380999   2.548   3.508   8.481 -0.5385  0.1607  0.7053
  965HK4    C3581000   2.507   3.640   8.465 -0.2810  0.2221  0.5485
  965HK4    H1781001   2.583   3.715   8.445 -0.3147  0.2777  0.6266
  965HK4    C3681002   2.372   3.671   8.454 -0.1812  0.3834 -0.2279
  965HK4    H1881003   2.339   3.775   8.440 -0.1358  0.3347 -0.7315
  965HK4    C3781004   2.275   3.571   8.452  0.2659 -0.0606  0.0667
  965HK4    H1981005   2.179   3.607   8.413 -0.1056 -1.6716 -0.5654
  965HK4    C3881006   2.313   3.439   8.468  0.0155  0.0375  1.5015
  965HK4    H2081007   2.246   3.355   8.448  0.2418  0.4431 -1.1253
  965HK4    C1481008   2.758   3.002   8.727  0.4798 -0.1090 -0.5340
  965HK4     C981009   2.727   2.866   8.737 -0.4904  0.1380 -0.2226
  965HK4     C881010   2.759   2.791   8.852 -0.1767 -0.0698 -0.4443
  965HK4    C1181011   2.849   2.849   8.941 -1.4517  0.6073  0.4342
  965HK4     H481012   2.901   2.779   9.008 -1.0153  1.3480  0.8661
  965HK4    C1281013   2.897   2.979   8.925 -0.1829  0.0808 -0.1573
  965HK4     H581014   2.965   3.015   9.004 -2.7818  1.3682  1.5527
  965HK4    C1381015   2.847   3.057   8.822 -0.1742  0.1803 -0.0847
  965HK4     H681016   2.865   3.165   8.818 -1.0357  0.2986 -1.0871
  965HK4     C781017   2.712   2.651   8.867 -0.1459 -0.0041  0.3116
  965HK4     O281018   2.736   2.589   8.970  0.2472 -0.6285 -0.1535
  965HK4     C481019   2.652   2.587   8.747  0.4862 -0.1632  0.0828
  965HK4     C381020   2.612   2.455   8.761 -0.2011  0.0697  0.3397
  965HK4     H381021   2.605   2.418   8.864  2.3783  0.6815  0.7777
  965HK4     C281022   2.557   2.386   8.653  0.4537 -0.0764  0.0994
  965HK4     H281023   2.542   2.277   8.659  0.7817 -0.2091 -1.2167
  965HK4     C181024   2.524   2.456   8.537  1.2625 -0.3997 -0.3351
  965HK4     H181025   2.469   2.402   8.459  0.0818  2.4770 -1.5714
  965HK4     C681026   2.545   2.596   8.530  0.3377 -0.2482 -0.1138
  965HK4     C581027   2.619   2.658   8.630 -0.4705 -0.0912  0.3911
  965HK4    C1081028   2.683   2.792   8.615 -0.3078 -0.2185 -0.0723
  965HK4     O181029   2.747   2.824   8.515  0.2835  0.6152  0.5649
  965HK4    C1681030   2.450   2.668   8.444  0.1825 -0.4269 -0.0969
  965HK4    C1581031   2.482   2.790   8.380  0.2852 -0.1957  0.3975
  965HK4     H781032   2.582   2.799   8.336  0.6994  1.8899  1.6987
  965HK4    C2081033   2.391   2.889   8.344 -0.0827 -0.6057  0.1885
  965HK4     H981034   2.422   2.974   8.284 -0.7105 -0.7473 -0.3394
  965HK4    C1981035   2.256   2.858   8.353 -0.3101  0.4137  0.2991
  965HK4    C1881036   2.218   2.728   8.403 -0.1657  0.1721 -0.2224
  965HK4    C1781037   2.314   2.639   8.451 -0.0237  0.6221  0.3342
  965HK4     H881038   2.277   2.542   8.484 -1.1498  0.8655 -0.1929
  965HK4     N181039   2.080   2.709   8.382 -0.2344  0.1113  0.2661
  965HK4    C2181040   2.034   2.815   8.301  0.0689  0.0358 -0.0077
  965HK4    C2281041   2.140   2.912   8.284 -0.3573  0.5992  0.5216
  965HK4    C2681042   2.119   3.041   8.234 -0.2176  0.5216  0.2617
  965HK4    H1381043   2.206   3.097   8.201 -0.6176  0.6349 -0.6126
  965HK4    C2581044   1.990   3.072   8.193 -0.3624  0.2332  0.4907
  965HK4    H1281045   1.980   3.175   8.157  1.6216  0.3030  0.0866
  965HK4    C2481046   1.888   2.978   8.197  0.0124 -0.2054 -0.2685
  965HK4    H1181047   1.804   2.990   8.126  1.5740  1.7814 -1.8648
  965HK4    C2381048   1.908   2.856   8.259  0.1973 -0.5403 -0.9749
  965HK4    H1081049   1.826   2.785   8.273  0.9042 -0.9227  1.6384
  965HK4    C3981050   2.003   2.637   8.474 -0.4409 -0.2525 -0.1856
  965HK4    C4181051   1.876   2.595   8.427 -0.6685  0.2693 -0.0376
  965HK4    H2181052   1.871   2.565   8.322  1.9644 -1.7727  0.3697
  965HK4    C4281053   1.781   2.553   8.519  0.2514 -0.8822  0.3974
  965HK4    H2281054   1.683   2.525   8.477  0.1635 -0.1848  0.1366
  965HK4    C4381055   1.805   2.549   8.656  0.3267 -0.8483  0.3869
  965HK4    H2381056   1.740   2.496   8.726  1.9306  0.3074  2.8241
  965HK4    C4481057   1.933   2.580   8.702  0.4158 -0.5616 -0.0563
  965HK4    H2481058   1.949   2.553   8.807 -2.9238 -0.7733  0.4623
  965HK4    C4581059   2.027   2.629   8.612  0.0049 -0.1181 -0.2551
  965HK4    H2581060   2.129   2.644   8.650 -0.5668  1.5757  0.6443
  966HK4    H2881061   1.469   4.224   8.921  3.4189  2.1300  4.4019
  966HK4    C4881062   1.516   4.126   8.922 -0.3293  0.0924 -0.4470
  966HK4    C4781063   1.467   4.016   8.852 -0.3199  0.1391 -0.5252
  966HK4    H2781064   1.380   4.021   8.786 -1.7441 -1.6894  1.1564
  966HK4    C4681065   1.516   3.888   8.873 -0.2738  0.3262  0.5114
  966HK4    H2681066   1.478   3.804   8.813 -1.7908 -0.4231  2.4323
  966HK4    C4081067   1.616   3.856   8.968 -0.2630 -0.2240  0.3214
  966HK4    C5081068   1.661   3.968   9.041 -0.0194  0.0660 -0.2765
  966HK4    H3081069   1.741   3.944   9.112  1.0539  2.3388 -0.6762
  966HK4    C4981070   1.608   4.095   9.021 -0.2709 -0.0832 -0.5561
  966HK4    H2981071   1.636   4.179   9.086 -1.1708 -0.8710  0.8611
  966HK4     N281072   1.682   3.733   8.968 -0.1783 -0.1796 -0.2563
  966HK4    C3081073   1.712   3.656   8.853  0.0711 -0.0037 -0.3095
  966HK4    C2981074   1.722   3.688   8.719 -0.3995 -0.2612 -0.4044
  966HK4    H1581075   1.680   3.785   8.692 -0.1026 -0.2115 -0.6897
  966HK4    C2881076   1.765   3.598   8.622 -0.5081 -0.5207 -0.2086
  966HK4    C2781077   1.779   3.463   8.661 -0.2093 -0.5435 -0.3978
  966HK4    H1481078   1.786   3.387   8.582 -3.5473 -0.5289 -0.7704
  966HK4    C3281079   1.779   3.427   8.795 -0.3249  0.4490 -0.1232
  966HK4    H1681080   1.805   3.324   8.817 -2.3090  0.3923  2.0780
  966HK4    C3181081   1.753   3.523   8.892 -1.2198 -0.2250  0.3056
  966HK4    C3481082   1.750   3.523   9.037 -0.7594 -0.1622  0.3115
  966HK4    C3381083   1.714   3.656   9.082 -0.1307  0.1375 -0.0565
  966HK4    C3581084   1.723   3.679   9.219  0.6191  0.1129 -0.1018
  966HK4    H1781085   1.686   3.772   9.262  1.0549 -0.1957  0.9462
  966HK4    C3681086   1.762   3.580   9.309 -0.1943 -0.1055  0.0117
  966HK4    H1881087   1.757   3.599   9.417  0.7423 -2.6776  0.5273
  966HK4    C3781088   1.789   3.452   9.262  0.1468 -0.0921  0.1679
  966HK4    H1981089   1.838   3.380   9.327 -2.2550  0.8558  3.1805
  966HK4    C3881090   1.784   3.422   9.127 -0.1863 -0.0907  0.1779
  966HK4    H2081091   1.808   3.319   9.100 -1.1577 -1.1895  3.2661
  966HK4    C1481092   1.806   3.644   8.488 -0.4583  0.2320  0.0620
  966HK4     C981093   1.799   3.584   8.362 -0.0679  0.2770  0.0162
  966HK4     C881094   1.891   3.616   8.260 -0.1692 -0.2483 -0.2390
  966HK4    C1181095   1.975   3.725   8.276 -1.1133  0.3990  0.3428
  966HK4     H481096   2.022   3.769   8.186  0.1298 -1.6554 -0.0378
  966HK4    C1281097   1.985   3.792   8.397  0.4462  0.4394  0.2094
  966HK4     H581098   2.052   3.877   8.416 -0.4045  0.9565  0.9899
  966HK4    C1381099   1.902   3.747   8.499 -0.4236  0.2693 -0.5664
  966HK4     H681100   1.910   3.794   8.598  1.3066  1.4263 -1.2479
  966HK4     C781101   1.879   3.560   8.124 -0.3873  0.3593 -0.4708
  966HK4     O281102   1.967   3.572   8.038 -0.0933 -0.3527 -0.2739
  966HK4     C481103   1.771   3.463   8.096 -0.1861  0.0379 -0.1336
  966HK4     C381104   1.757   3.419   7.965 -0.5430  0.9716 -0.4111
  966HK4     H381105   1.815   3.466   7.885  0.5091  2.2911  1.0939
  966HK4     C281106   1.686   3.302   7.940 -0.1846  0.6714 -0.0447
  966HK4     H281107   1.692   3.253   7.841  1.0198  0.2248  0.2459
  966HK4     C181108   1.635   3.233   8.049  0.2163  0.0764 -0.2328
  966HK4     H181109   1.611   3.127   8.036 -0.3637  0.3521 -1.5504
  966HK4     C681110   1.628   3.286   8.179  0.0388  0.1768 -0.2824
  966HK4     C581111   1.694   3.408   8.201  0.0047  0.1335  0.0562
  966HK4    C1081112   1.693   3.484   8.329  0.2071 -0.0723  0.1835
  966HK4     O181113   1.581   3.499   8.378  0.1465  0.4807 -0.1190
  966HK4    C1681114   1.544   3.212   8.274  0.1961  0.1133 -0.1923
  966HK4    C1581115   1.440   3.132   8.222 -0.5155  0.4822  0.6383
  966HK4     H781116   1.391   3.169   8.131  0.0574  0.7367  0.4301
  966HK4    C2081117   1.407   3.007   8.273  0.2287  0.1864  0.4054
  966HK4     H981118   1.347   2.937   8.215  1.2696 -0.4251  0.0404
  966HK4    C1981119   1.458   2.974   8.398  0.9080  0.2724  0.1572
  966HK4    C1881120   1.533   3.074   8.472 -0.0214  0.6639  0.5871
  966HK4    C1781121   1.584   3.184   8.404  0.0745  0.1709 -0.1402
  966HK4     H881122   1.650   3.250   8.459 -1.9926  1.8303  0.4149
  966HK4     N181123   1.586   3.014   8.589  0.0339 -0.0347  0.2108
  966HK4    C2181124   1.547   2.879   8.588  0.0002 -0.0253 -0.4238
  966HK4    C2281125   1.463   2.850   8.473  0.0693 -0.1334 -0.4487
  966HK4    C2681126   1.391   2.731   8.474  0.0289 -0.1091 -0.2451
  966HK4    H1381127   1.325   2.710   8.389 -0.0747  0.4582 -0.3081
  966HK4    C2581128   1.393   2.640   8.579 -0.2396  0.0893 -0.0674
  966HK4    H1281129   1.365   2.537   8.560 -1.4592  0.7792 -2.1810
  966HK4    C2481130   1.465   2.673   8.693  0.4760  0.0506 -0.5030
  966HK4    H1181131   1.449   2.620   8.788  1.4594 -1.2201 -1.0279
  966HK4    C2381132   1.546   2.786   8.692 -0.1556  0.5075  0.0483
  966HK4    H1081133   1.629   2.786   8.763 -0.8859 -2.6259  0.9437
  966HK4    C3981134   1.591   3.084   8.710  0.4730  0.6332 -0.1960
  966HK4    C4181135   1.700   3.056   8.795  0.2144  0.0287 -0.0636
  966HK4    H2181136   1.800   3.047   8.749 -0.9938  2.0196 -3.2816
  966HK4    C4281137   1.697   3.066   8.933  0.0928 -0.1581 -0.0527
  966HK4    H2281138   1.791   3.067   8.990 -0.2104  3.0583  0.4988
  966HK4    C4381139   1.576   3.113   8.984  0.1273 -0.1380  0.0111
  966HK4    H2381140   1.564   3.115   9.092 -1.0255 -0.6592 -0.0926
  966HK4    C4481141   1.466   3.149   8.907  0.1800 -0.3609 -0.1719
  966HK4    H2481142   1.384   3.195   8.963  1.0291  0.6498  0.2449
  966HK4    C4581143   1.475   3.137   8.769  0.2335  0.1246 -0.2083
  966HK4    H2581144   1.396   3.185   8.708 -0.8594  1.4487  2.1885
  967HK4    H2881145   6.666  10.002  11.070  0.5856 -1.5591 -1.4808
  967HK4    C4881146   6.560  10.015  11.045  0.4672  0.4588 -0.0544
  967HK4    C4781147   6.519  10.043  10.916  0.8272 -0.1512 -0.3078
  967HK4    H2781148   6.597  10.062  10.840  1.7722  1.8532  1.1029
  967HK4    C4681149   6.385  10.064  10.883  0.6313 -0.0021  0.5864
  967HK4    H2681150   6.364  10.101  10.782  0.1248 -1.4115  0.1607
  967HK4    C4081151   6.284  10.044  10.979 -0.1028 -0.2202 -0.2305
  967HK4    C5081152   6.327  10.022  11.111  0.2196  0.3199 -0.2438
  967HK4    H3081153   6.253   9.988  11.184 -0.9446  1.4760 -0.8761
  967HK4    C4981154   6.462  10.007  11.143  0.2360  0.3526 -0.2964
  967HK4    H2981155   6.494   9.999   0.000 -0.9771 -0.8178  0.0057
  967HK4     N281156   6.150  10.039  10.940 -0.2059  0.0501  0.0803
  967HK4    C3081157   6.098  10.030  10.809 -0.2621  0.7258  0.0554
  967HK4    C2981158   6.132   9.944  10.705 -0.2224  0.2393  0.4732
  967HK4    H1581159   6.193   9.858  10.734  0.7141  1.1569  1.2887
  967HK4    C2881160   6.072   9.949  10.580 -0.0616  0.0219  0.3860
  967HK4    C2781161   5.960  10.032  10.557 -0.3472 -0.4684 -0.0012
  967HK4    H1481162   5.917  10.028  10.456 -1.4306 -0.8341  0.4697
  967HK4    C3281163   5.919  10.120  10.656 -0.6323 -0.1558 -0.3920
  967HK4    H1681164   5.833  10.182  10.630 -0.7407  0.6997  1.8234
  967HK4    C3181165   5.980  10.110  10.781 -0.6796 -0.0305 -0.3591
  967HK4    C3481166   5.943  10.161  10.911 -0.3419 -0.1869 -0.2031
  967HK4    C3381167   6.049  10.117  11.000 -0.5566 -0.3265 -0.0166
  967HK4    C3581168   6.040  10.168  11.129  0.2996 -0.3952  0.0704
  967HK4    H1781169   6.128  10.150  11.191  1.6550  0.7429 -1.4376
  967HK4    C3681170   5.946  10.262  11.170  0.1662 -0.4014 -0.2247
  967HK4    H1881171   5.939  10.278   0.030 -1.1124  0.3261 -0.4044
  967HK4    C3781172   5.859  10.317  11.077 -0.1509  0.0004  0.3112
  967HK4    H1981173   5.779  10.385  11.107  0.5355 -0.0946  2.3649
  967HK4    C3881174   5.856  10.263  10.949  0.2790  0.1938  0.2157
  967HK4    H2081175   5.773  10.280  10.880  0.9833  1.2334 -0.3899
  967HK4    C1481176   6.162   9.905  10.473 -0.5224  0.0593 -0.0167
  967HK4     C981177   6.167   9.976  10.352  0.7095 -0.1096 -0.0677
  967HK4     C881178   6.175   9.912  10.227 -0.1884  0.0802 -0.2265
  967HK4    C1181179   6.192   9.774  10.233  0.3171  0.1531  0.0140
  967HK4     H481180   6.210   9.716  10.141 -0.4814 -1.4385  0.8521
  967HK4    C1281181   6.207   9.704  10.352  0.6232 -0.0515 -0.1428
  967HK4     H581182   6.207   9.594  10.354  0.2946 -0.0571 -0.3773
  967HK4    C1381183   6.186   9.766  10.474 -0.3209  0.0889 -0.3686
  967HK4     H681184   6.187   9.708  10.568  0.9414  1.6163  0.5914
  967HK4     C781185   6.145   9.976  10.097 -0.5137  0.3562 -0.0132
  967HK4     O281186   6.146   9.911   9.993  0.7519 -0.1083  0.2822
  967HK4     C481187   6.118  10.121  10.099  0.0605  0.4696 -0.7727
  967HK4     C381188   6.073  10.184   9.983 -0.6225 -0.0045 -0.7668
  967HK4     H381189   6.082  10.128   9.889 -0.7478 -0.1151 -0.7125
  967HK4     C281190   6.038  10.319   9.977  0.3542  0.2661 -0.4384
  967HK4     H281191   6.002  10.372   9.888 -1.8452  1.5527  1.1881
  967HK4     C181192   6.040  10.392  10.095  0.0218 -0.2971 -0.0811
  967HK4     H181193   6.013  10.499  10.102  1.0226 -0.0895  0.7540
  967HK4     C681194   6.078  10.330  10.216 -0.6984 -0.2887  0.1520
  967HK4     C581195   6.122  10.197  10.217  0.4834  0.0808 -0.5324
  967HK4    C1081196   6.169  10.125  10.339 -0.4505 -0.1119 -0.2867
  967HK4     O181197   6.239  10.190  10.416 -0.0066 -0.9061 -0.0178
  967HK4    C1681198   6.020  10.384  10.339 -0.2187 -0.4912  0.4672
  967HK4    C1581199   5.883  10.415  10.343 -0.1533 -0.1239 -0.1493
  967HK4     H781200   5.821  10.367  10.266 -1.3735 -0.6776  1.1547
  967HK4    C2081201   5.826  10.504  10.433  0.1955 -0.6759  0.6162
  967HK4     H981202   5.717  10.507  10.437  0.2490  1.1984  1.4806
  967HK4    C1981203   5.910  10.566  10.525  0.2694 -0.0001  0.0977
  967HK4    C1881204   6.050  10.529  10.530  0.3890  0.3758 -0.4572
  967HK4    C1781205   6.103  10.446  10.432  0.1592 -0.3925  0.0603
  967HK4     H881206   6.211  10.428  10.427  0.3216  0.2131  1.1907
  967HK4     N181207   6.122  10.610  10.620  0.0043 -0.6099  0.7429
  967HK4    C2181208   6.027  10.701  10.670  0.0861  0.1542 -0.4758
  967HK4    C2281209   5.894  10.675  10.619 -0.1260 -0.1545  0.2161
  967HK4    C2681210   5.787  10.762  10.642  0.0069  0.1231 -0.1963
  967HK4    H1381211   5.685  10.729  10.620 -0.4224  0.4439  1.2561
  967HK4    C2581212   5.817  10.882  10.704  0.3068 -0.0214 -0.0615
  967HK4    H1281213   5.738  10.945  10.744  0.6706  0.1228  0.4302
  967HK4    C2481214   5.946  10.913  10.746  0.0565  0.4019  0.3926
  967HK4    H1181215   5.967  11.014  10.785  0.3988  1.2202 -1.8618
  967HK4    C2381216   6.050  10.822  10.735 -0.2576  0.1285 -0.3019
  967HK4    H1081217   6.150  10.846  10.769 -0.7196  3.0793 -0.9469
  967HK4    C3981218   6.239  10.569  10.686  0.0096  0.1057  1.1833
  967HK4    C4181219   6.331  10.663  10.736  0.2820  0.6250 -0.2866
  967HK4    H2181220   6.324  10.768  10.704 -0.2406  0.3451 -1.1004
  967HK4    C4281221   6.430  10.629  10.828  0.4271 -0.0082 -0.6759
  967HK4    H2281222   6.504  10.699  10.869  0.8117 -1.2475  0.7765
  967HK4    C4381223   6.437  10.495  10.866  0.4040 -0.0065 -0.6609
  967HK4    H2381224   6.521  10.461  10.927  1.1838  2.1589 -0.4746
  967HK4    C4481225   6.343  10.402  10.824  0.3254  0.0086 -0.5233
  967HK4    H2481226   6.340  10.306  10.877  1.5777 -0.6535 -1.6357
  967HK4    C4581227   6.245  10.435  10.731 -0.1503 -0.3588 -0.1516
  967HK4    H2581228   6.179  10.355  10.693  0.6964 -0.6955 -0.9163
  968HK4    H2881229   8.821   4.211   1.070  0.0020 -0.6136 -0.0606
  968HK4    C4881230   8.791   4.240   0.969  0.0476  0.7668  0.3081
  968HK4    C4781231   8.863   4.180   0.866 -0.5483 -0.1633  0.4320
  968HK4    H2781232   8.931   4.097   0.891  1.9951  1.6563 -0.2685
  968HK4    C4681233   8.870   4.249   0.745 -0.2867 -0.6093  0.1911
  968HK4    H2681234   8.934   4.211   0.664  0.1696  1.5337 -0.4591
  968HK4    C4081235   8.806   4.368   0.707  0.2791 -0.3621  0.0218
  968HK4    C5081236   8.723   4.414   0.810 -0.2285  0.4773 -0.7521
  968HK4    H3081237   8.657   4.502   0.798 -0.9991 -0.2214 -1.6841
  968HK4    C4981238   8.723   4.357   0.937 -0.0643  0.4128 -0.7822
  968HK4    H2981239   8.685   4.420   1.019  1.8023 -0.2665  0.6347
  968HK4     N281240   8.848   4.450   0.601  0.1118 -0.6074 -0.2344
  968HK4    C3081241   8.973   4.445   0.537  0.1306  0.4235 -0.2877
  968HK4    C2981242   9.091   4.387   0.581 -0.0744  0.0738 -0.1934
  968HK4    H1581243   9.107   4.367   0.687  3.3845  0.8963 -0.4815
  968HK4    C2881244   9.204   4.373   0.500 -0.1096 -0.5349 -0.1410
  968HK4    C2781245   9.188   4.429   0.372 -0.0319 -0.4619 -0.1188
  968HK4    H1481246   9.279   4.448   0.312 -0.4449  1.4328 -0.1649
  968HK4    C3281247   9.070   4.478   0.317  0.0190 -0.6284 -0.3823
  968HK4    H1681248   9.064   4.522   0.217  1.4354  0.5108  0.0121
  968HK4    C3181249   8.961   4.494   0.401 -0.0856 -0.3966 -0.5656
  968HK4    C3481250   8.828   4.550   0.388  0.1326  0.2541  0.0013
  968HK4    C3381251   8.761   4.518   0.513  0.5246  0.6206  0.3045
  968HK4    C3581252   8.630   4.564   0.516  0.0651 -0.6346 -0.3006
  968HK4    H1781253   8.564   4.537   0.598 -0.6181  0.5296 -0.4509
  968HK4    C3681254   8.570   4.637   0.413 -0.2484 -0.4150  0.0388
  968HK4    H1881255   8.466   4.674   0.418 -0.5782 -0.8102 -3.0093
  968HK4    C3781256   8.634   4.657   0.292  0.1394  0.4367  0.3843
  968HK4    H1981257   8.582   4.695   0.203  0.9856 -4.3765 -2.3267
  968HK4    C3881258   8.764   4.612   0.281  0.0207  0.1797  0.0266
  968HK4    H2081259   8.817   4.634   0.188  2.2219 -1.3576  0.8711
  968HK4    C1481260   9.332   4.336   0.563  0.0975 -0.1627 -0.3354
  968HK4     C981261   9.459   4.370   0.514  0.2893  0.0949  0.3377
  968HK4     C881262   9.563   4.276   0.527 -0.2125 -0.5435 -0.2528
  968HK4    C1181263   9.549   4.153   0.591 -0.1477 -0.6382 -0.4141
  968HK4     H481264   9.629   4.079   0.589 -0.9537 -1.5138 -0.8719
  968HK4    C1281265   9.426   4.125   0.650  0.2527  0.2736  0.8686
  968HK4     H581266   9.407   4.028   0.698  0.1317  0.6477  1.5754
  968HK4    C1381267   9.323   4.218   0.639  0.1469  0.0651  0.0194
  968HK4     H681268   9.254   4.212   0.724  1.5828  2.2310  1.3984
  968HK4     C781269   9.688   4.293   0.449 -0.0121  0.2353  0.2415
  968HK4     O281270   9.791   4.272   0.514  0.0491  0.0496  0.0839
  968HK4     C481271   9.682   4.390   0.338  0.3151 -0.0703 -0.0420
  968HK4     C381272   9.789   4.380   0.249  0.2920  0.7660 -0.1640
  968HK4     H381273   9.854   4.292   0.246 -0.0621  0.4903  0.2952
  968HK4     C281274   9.817   4.490   0.168  0.0849  0.6641 -0.3758
  968HK4     H281275   9.885   4.481   0.082  1.6247 -1.8776  1.0574
  968HK4     C181276   9.741   4.606   0.180  0.0857  0.6259  0.0054
  968HK4     H181277   9.767   4.687   0.111 -0.5193  1.0264  0.2459
  968HK4     C681278   9.646   4.621   0.283  0.1132 -0.0274  0.1295
  968HK4     C581279   9.607   4.508   0.355  0.7843  0.1212  0.7336
  968HK4    C1081280   9.485   4.497   0.441 -0.0842 -0.3195 -0.5257
  968HK4     O181281   9.436   4.597   0.493  0.0273 -0.3392 -0.3821
  968HK4    C1681282   9.627   4.761   0.322  0.4533 -0.0704  0.4560
  968HK4    C1581283   9.736   4.850   0.326  0.1199  0.3669 -0.0614
  968HK4     H781284   9.838   4.810   0.335  0.1172  0.6363  1.3520
  968HK4    C2081285   9.718   4.986   0.300  0.0993  0.2734 -0.5223
  968HK4     H981286   9.798   5.056   0.321  0.2079 -0.7012  2.5939
  968HK4    C1981287   9.594   5.042   0.276 -0.0669  0.1389  0.0106
  968HK4    C1881288   9.479   4.953   0.274 -0.1531  0.2492  0.1422
  968HK4    C1781289   9.503   4.818   0.295  0.7594  0.3850 -0.0018
  968HK4     H881290   9.415   4.754   0.306  0.5575  0.3417 -1.6432
  968HK4     N181291   9.358   5.019   0.243 -0.0817  0.3938  0.1718
  968HK4    C2181292   9.397   5.154   0.227  0.2587  0.2661 -0.0869
  968HK4    C2281293   9.540   5.171   0.238  0.2765  0.2106 -0.2292
  968HK4    C2681294   9.598   5.296   0.218  0.1140  0.2366 -0.5324
  968HK4    H1381295   9.703   5.311   0.243  0.0979 -0.3186 -0.1457
  968HK4    C2581296   9.521   5.404   0.173  0.2749  0.4626 -0.2659
  968HK4    H1281297   9.574   5.499   0.168  1.2358 -0.0685 -0.2703
  968HK4    C2481298   9.385   5.383   0.156  0.2837  0.1145  0.0950
  968HK4    H1181299   9.325   5.471   0.129  4.0187  2.5013 -0.8807
  968HK4    C2381300   9.321   5.262   0.185  0.0780  0.2371  0.1591
  968HK4    H1081301   9.214   5.253   0.198 -0.2111  0.0697 -2.1243
  968HK4    C3981302   9.236   4.973   0.294  0.1357 -0.5668 -0.1725
  968HK4    C4181303   9.122   5.008   0.220  0.5796 -0.2605 -0.7121
  968HK4    H2181304   9.132   5.061   0.124  0.2724 -0.5708 -0.9175
  968HK4    C4281305   8.991   4.991   0.263  0.8005 -0.5908 -0.1656
  968HK4    H2281306   8.907   5.005   0.194 -0.8163 -2.4382  1.3577
  968HK4    C4381307   8.972   4.939   0.391  0.5682 -0.3042 -0.0818
  968HK4    H2381308   8.867   4.914   0.408  0.1927  1.0671 -0.3188
  968HK4    C4481309   9.080   4.894   0.465  0.2023 -0.3287  0.4387
  968HK4    H2481310   9.063   4.849   0.564 -0.3183  0.6158  0.7787
  968HK4    C4581311   9.209   4.905   0.415  0.0061 -0.3417 -0.0754
  968HK4    H2581312   9.296   4.865   0.469  0.4016  1.3278  0.5695
  969HK4    H2881313   0.118   8.418   9.766  0.8232  0.5352  0.1221
  969HK4    C4881314   0.049   8.498   9.796  0.0006 -0.2561  0.3422
  969HK4    C4781315   0.087   8.631   9.787 -0.2124 -0.1924  0.3931
  969HK4    H2781316   0.191   8.651   9.757 -0.2510 -0.8405 -0.1987
  969HK4    C4681317  11.246   8.727   9.835 -0.2403  0.3250 -0.6867
  969HK4    H2681318   0.029   8.832   9.832  0.7624  0.0129 -3.0312
  969HK4    C4081319  11.122   8.693   9.893  0.2345  0.0644  0.1701
  969HK4    C5081320  11.086   8.556   9.891 -0.3227  0.2149 -0.1108
  969HK4    H3081321  10.981   8.524   9.900 -0.3497  0.0809 -0.8486
  969HK4    C4981322  11.175   8.458   9.850 -0.3576  0.1932 -0.1379
  969HK4    H2981323  11.149   8.352   9.836  2.5910 -0.8510  1.9556
  969HK4     N281324  11.057   8.766   9.993 -0.2827  0.0338 -0.1411
  969HK4    C3081325  11.121   8.869  10.065  0.0297 -0.4713  0.3055
  969HK4    C2981326   0.002   8.865  10.117  0.3369  0.1847 -0.3995
  969HK4    H1581327   0.059   8.772  10.120 -1.6846 -1.1145 -0.9350
  969HK4    C2881328   0.055   8.977  10.180 -0.0471  0.2372 -0.1699
  969HK4    C2781329  11.221   9.091  10.197 -0.0426  0.2225 -0.0386
  969HK4    H1481330   0.018   9.184  10.234 -1.0898 -0.0292  1.9984
  969HK4    C3281331  11.087   9.091  10.158  0.0010  0.3953 -0.1860
  969HK4    H1681332  11.019   9.168  10.195  0.1246  1.2639 -1.7103
  969HK4    C3181333  11.034   8.982  10.091  0.3322 -0.3364  0.7349
  969HK4    C3481334  10.907   8.929  10.047  0.0351  0.0238  1.1620
  969HK4    C3381335  10.920   8.797   9.990 -0.2191  0.3682  0.2950
  969HK4    C3581336  10.804   8.720   9.979  0.2111 -0.2254 -0.1421
  969HK4    H1781337  10.804   8.620   9.937  1.5062 -1.0003  1.6595
  969HK4    C3681338  10.679   8.770  10.015  0.3869  0.2945 -0.2535
  969HK4    H1881339  10.589   8.709  10.034 -0.8291  1.9383 -0.6528
  969HK4    C3781340  10.666   8.900  10.061  0.1923  0.2918 -0.2948
  969HK4    H1981341  10.571   8.943  10.091  0.5844  0.7663  0.3022
  969HK4    C3881342  10.780   8.979  10.075  0.0411  0.3645  0.5934
  969HK4    H2081343  10.774   9.086  10.094  0.0426  0.5861 -0.6456
  969HK4    C1481344   0.178   8.962  10.259 -0.2365 -0.4243  0.0063
  969HK4     C981345   0.199   9.031  10.379  0.8953 -0.2893 -0.2715
  969HK4     C881346   0.327   9.066  10.425  0.5391  0.5193  0.1227
  969HK4    C1181347   0.435   9.027  10.346  0.0341  0.1123 -0.3640
  969HK4     H481348   0.537   9.052  10.378 -0.6018 -0.5056  2.3186
  969HK4    C1281349   0.417   8.955  10.228 -0.0612  0.0063 -0.2831
  969HK4     H581350   0.501   8.954  10.158  0.9006  1.7258  0.8012
  969HK4    C1381351   0.290   8.914  10.189 -0.1510  0.4673 -0.4746
  969HK4     H681352   0.281   8.841  10.107 -0.2922 -0.5977  0.4860
  969HK4     C781353   0.349   9.152  10.544 -0.1128  0.3829  0.3433
  969HK4     O281354   0.456   9.155  10.605  0.0440  0.3627  0.0692
  969HK4     C481355   0.233   9.222  10.604  0.1002  0.3857  0.7563
  969HK4     C381356   0.256   9.321  10.698  0.2684  0.2866  0.8179
  969HK4     H381357   0.358   9.355  10.724  0.2888  0.7921  0.1153
  969HK4     C281358   0.152   9.396  10.751 -0.2565  0.0825  0.0666
  969HK4     H281359   0.176   9.439  10.849 -2.2799 -1.5767  1.3372
  969HK4     C181360   0.023   9.377  10.701  0.0871  0.2586 -0.9089
  969HK4     H181361  11.194   9.440  10.746  0.7523 -0.4375  1.3133
  969HK4     C681362   0.001   9.274  10.607  0.1214 -0.4730 -0.1320
  969HK4     C581363   0.103   9.187  10.564  0.4753 -0.0865 -0.0899
  969HK4    C1081364   0.090   9.070  10.473  1.2430 -0.3660  0.1623
  969HK4     O181365   0.010   8.983  10.508  0.3330  0.1884 -0.5426
  969HK4    C1681366  11.123   9.290  10.533  0.1392 -0.3068 -0.1268
  969HK4    C1581367  11.091   9.416  10.477  0.0765 -0.2919 -0.0531
  969HK4     H781368  11.167   9.493  10.456 -2.1192  1.3253 -2.3585
  969HK4    C2081369  10.965   9.442  10.426 -0.0442  0.3523  0.5576
  969HK4     H981370  10.935   9.541  10.390 -2.2478 -0.8638 -1.0808
  969HK4    C1981371  10.868   9.343  10.434  0.0843  0.1949  0.1289
  969HK4    C1881372  10.896   9.215  10.496  0.2035  0.1748  0.0385
  969HK4    C1781373  11.024   9.193  10.544  0.0243 -0.1342  0.3748
  969HK4     H881374  11.046   9.103  10.602 -0.8679  0.2736  1.3648
  969HK4     N181375  10.788   9.125  10.478  0.0140  0.4094  0.0170
  969HK4    C2181376  10.686   9.200  10.416 -0.1645  0.1175 -0.0417
  969HK4    C2281377  10.731   9.335  10.387  0.3096 -0.1359 -0.4783
  969HK4    C2681378  10.639   9.426  10.336  0.0791 -0.5135 -0.7418
  969HK4    H1381379  10.677   9.525  10.314 -1.6696  0.1896 -0.6594
  969HK4    C2581380  10.505   9.393  10.324 -0.0100 -0.2588 -0.4200
  969HK4    H1281381  10.437   9.465  10.280 -0.9547 -0.6682  0.3400
  969HK4    C2481382  10.467   9.261  10.346 -0.2766 -0.1851 -0.4105
  969HK4    H1181383  10.361   9.231  10.354 -0.5110  1.1912  1.8224
  969HK4    C2381384  10.554   9.163  10.393 -0.0722  0.0077 -0.3959
  969HK4    H1081385  10.527   9.058  10.389 -1.5458  0.3545  0.0689
  969HK4    C3981386  10.801   8.986  10.470  0.2216  0.4699 -0.7313
  969HK4    C4181387  10.698   8.894  10.497  0.7917 -0.1004 -0.5116
  969HK4    H2181388  10.631   8.930  10.577  0.1951 -1.0975 -0.5440
  969HK4    C4281389  10.692   8.762  10.453 -0.2738 -0.0705 -0.4730
  969HK4    H2281390  10.602   8.699  10.461  0.8265 -1.8318 -1.5079
  969HK4    C4381391  10.800   8.720  10.377  0.0688  0.0950 -0.0759
  969HK4    H2381392  10.816   8.613  10.360 -1.1573 -0.3524  1.5448
  969HK4    C4481393  10.910   8.800  10.347  0.5693 -0.3542  0.5474
  969HK4    H2481394  10.993   8.759  10.288  0.3531 -0.1660  0.1146
  969HK4    C4581395  10.906   8.930  10.394  0.6004 -0.2782  0.3411
  969HK4    H2581396  10.996   8.990  10.372 -0.6477  1.4649 -0.0764
  970HK4    H2881397  10.152   7.919  10.782  1.8335 -2.2864  1.2763
  970HK4    C4881398  10.099   7.836  10.736 -0.1548 -0.2819 -0.1558
  970HK4    C4781399  10.142   7.782  10.615  1.1416 -0.3102  0.3037
  970HK4    H2781400  10.234   7.816  10.565  0.7720 -0.9399 -0.8275
  970HK4    C4681401  10.075   7.668  10.572  0.3415  0.2545  0.0307
  970HK4    H2681402  10.095   7.623  10.473 -0.4101 -2.3833  1.0312
  970HK4    C4081403   9.978   7.596  10.643  0.2331 -0.2132 -0.5803
  970HK4    C5081404   9.939   7.662  10.762  0.1948 -0.0518 -0.6810
  970HK4    H3081405   9.849   7.626  10.814  0.5829  0.1731  0.1687
  970HK4    C4981406   9.993   7.782  10.807 -0.2550 -0.0550 -0.1352
  970HK4    H2981407   9.964   7.832  10.901  0.1014 -2.4112  1.2848
  970HK4     N281408   9.897   7.504  10.575 -0.3886 -0.0347 -0.0929
  970HK4    C3081409   9.861   7.521  10.440  0.2519 -0.1957 -0.2880
  970HK4    C2981410   9.825   7.633  10.366  0.2034  0.0322  0.0786
  970HK4    H1581411   9.850   7.731  10.407 -2.0242  1.2737 -1.4561
  970HK4    C2881412   9.767   7.627  10.239 -0.4280  0.0858  0.3642
  970HK4    C2781413   9.763   7.497  10.184 -0.5682  0.2658 -0.0460
  970HK4    H1481414   9.772   7.494  10.074 -3.0569  0.1922 -0.2725
  970HK4    C3281415   9.786   7.382  10.257 -0.4014  0.5231  0.3074
  970HK4    H1681416   9.785   7.286  10.204 -0.2731  1.0942 -0.7427
  970HK4    C3181417   9.823   7.389  10.391 -1.0176 -0.1396  0.5190
  970HK4    C3481418   9.827   7.296  10.502  0.0433 -0.5810  0.1167
  970HK4    C3381419   9.867   7.373  10.618 -0.4244 -0.0257 -0.0892
  970HK4    C3581420   9.846   7.319  10.744  0.1913  0.3148  0.1631
  970HK4    H1781421   9.880   7.376  10.830  0.8438 -0.2035  0.2497
  970HK4    C3681422   9.788   7.192  10.754  0.0639  0.3250 -0.4073
  970HK4    H1881423   9.746   7.161  10.851  0.4639  2.3531  0.4554
  970HK4    C3781424   9.750   7.118  10.643 -0.2839  0.2288 -0.2226
  970HK4    H1981425   9.719   7.014  10.641 -1.0524  0.4288  0.7328
  970HK4    C3881426   9.771   7.169  10.515 -0.3352 -0.4850 -0.5180
  970HK4    H2081427   9.722   7.123  10.430  2.1012 -2.8224 -0.7384
  970HK4    C1481428   9.672   7.730  10.196 -0.2447  0.0200 -0.1922
  970HK4     C981429   9.565   7.699  10.111 -0.2430 -0.4355 -0.0355
  970HK4     C881430   9.527   7.790  10.010  0.0618 -0.0085  0.2374
  970HK4    C1181431   9.590   7.914  10.006  0.5536 -0.2854 -0.5674
  970HK4     H481432   9.574   7.987   9.925 -2.4700 -1.6613 -1.2785
  970HK4    C1281433   9.692   7.945  10.095 -0.1815 -0.2343  0.2592
  970HK4     H581434   9.732   8.048  10.096  0.4035 -0.4375 -0.9724
  970HK4    C1381435   9.730   7.859  10.197  0.0705 -0.1284  0.2548
  970HK4     H681436   9.778   7.903  10.285 -1.1724  3.5819 -0.8468
  970HK4     C781437   9.443   7.733   9.903  0.2996 -0.0929  0.0929
  970HK4     O281438   9.385   7.810   9.827  0.0939 -0.3997 -0.0629
  970HK4     C481439   9.399   7.591   9.896 -0.2364  0.0791 -0.0107
  970HK4     C381440   9.350   7.536   9.779  0.0671  0.6177 -0.3948
  970HK4     H381441   9.341   7.589   9.683 -1.4466  2.4238  0.7123
  970HK4     C281442   9.304   7.405   9.781 -0.2308  0.7320  0.3303
  970HK4     H281443   9.264   7.358   9.690 -2.6746 -0.5626  1.9973
  970HK4     C181444   9.317   7.329   9.897 -0.5486 -0.3687 -0.3477
  970HK4     H181445   9.276   7.227   9.893 -0.1779 -0.5334 -0.0106
  970HK4     C681446   9.376   7.378  10.015 -0.0877 -0.1059 -0.6849
  970HK4     C581447   9.415   7.513  10.012 -0.8822  0.1436  0.1230
  970HK4    C1081448   9.487   7.574  10.128 -0.7253 -0.1105  0.1597
  970HK4     O181449   9.426   7.572  10.235 -0.1698 -0.8806  0.4624
  970HK4    C1681450   9.431   7.270  10.098  0.0258  0.5485  0.1112
  970HK4    C1581451   9.479   7.149  10.041 -0.6088  0.0667  0.5982
  970HK4     H781452   9.534   7.156   9.946  1.4479  1.4095  1.8423
  970HK4    C2081453   9.508   7.034  10.113  0.7458  0.3430  0.5139
  970HK4     H981454   9.541   6.943  10.062  1.8064  1.1814 -0.2970
  970HK4    C1981455   9.484   7.036  10.250  0.9791  0.4445  0.5520
  970HK4    C1881456   9.433   7.155  10.314  0.2393  0.1114  0.5913
  970HK4    C1781457   9.404   7.265  10.234  0.3392 -0.1799  0.1536
  970HK4     H881458   9.330   7.333  10.276 -0.8061 -1.3622  0.0399
  970HK4     N181459   9.405   7.139  10.451 -0.5817  0.2771  0.4439
  970HK4    C2181460   9.438   7.003  10.473 -0.5393  0.1658 -0.3062
  970HK4    C2281461   9.498   6.940  10.357 -0.3155 -0.3031  0.0634
  970HK4    C2681462   9.527   6.804  10.352 -0.5571 -0.3360 -0.3481
  970HK4    H1381463   9.588   6.765  10.271  0.7046 -0.3019  0.5735
  970HK4    C2581464   9.477   6.723  10.453  0.1838 -0.6249 -0.2094
  970HK4    H1281465   9.494   6.616  10.453 -0.2145 -0.6855 -1.2359
  970HK4    C2481466   9.421   6.779  10.568  0.5821  0.2278 -0.4179
  970HK4    H1181467   9.408   6.725  10.663 -0.9703  2.8629  0.9074
  970HK4    C2381468   9.400   6.916  10.574 -0.0393  0.1231 -0.1578
  970HK4    H1081469   9.353   6.966  10.659 -1.7866 -0.0435 -1.0112
  970HK4    C3981470   9.412   7.242  10.545 -0.2333  0.1581  0.5454
  970HK4    C4181471   9.382   7.222  10.681  0.2076  0.4225  0.6832
  970HK4    H2181472   9.312   7.146  10.718 -1.1077  1.4065  0.2344
  970HK4    C4281473   9.427   7.310  10.779 -0.1143  0.3913  0.8560
  970HK4    H2281474   9.413   7.276  10.883 -0.4993  1.2000  1.0731
  970HK4    C4381475   9.486   7.431  10.747  0.7183 -0.1407  0.3679
  970HK4    H2381476   9.505   7.505  10.825 -3.5667  2.4902 -0.9407
  970HK4    C4481477   9.512   7.459  10.613  0.2948 -0.4666  0.2157
  970HK4    H2481478   9.582   7.538  10.584  0.9585 -0.9535  0.4553
  970HK4    C4581479   9.482   7.361  10.518  0.3814 -0.3134  0.0319
  970HK4    H2581480   9.532   7.367  10.421  0.3604  2.8953  0.1611
  971HK4    H2881481   1.266  10.001   2.767 -0.5972  0.0478 -0.7631
  971HK4    C4881482   1.232  10.105   2.764 -0.2440  0.1856  0.0236
  971HK4    C4781483   1.221  10.168   2.641  0.4902 -0.7767 -0.5363
  971HK4    H2781484   1.257  10.116   2.550  0.2200 -2.7556  0.4588
  971HK4    C4681485   1.175  10.299   2.636  0.7231 -0.6612  0.3280
  971HK4    H2681486   1.168  10.345   2.537 -0.8989 -1.5937 -0.0076
  971HK4    C4081487   1.146  10.373   2.753  0.5519  0.1647 -0.2328
  971HK4    C5081488   1.153  10.302   2.875  0.3261 -0.1004 -0.3728
  971HK4    H3081489   1.125  10.347   2.971 -1.2561 -0.2894 -0.7272
  971HK4    C4981490   1.193  10.169   2.881 -0.2823 -0.2601  0.2538
  971HK4    H2981491   1.165  10.106   2.967 -0.6141 -2.0293 -1.1256
  971HK4     N281492   1.161  10.512   2.751  0.1970  0.1990 -0.5295
  971HK4    C3081493   1.264  10.584   2.688  0.3744  0.0823 -0.3677
  971HK4    C2981494   1.380  10.550   2.619  0.2584 -0.2559 -0.4006
  971HK4    H1581495   1.408  10.446   2.633 -0.6246 -0.2866  1.3691
  971HK4    C2881496   1.464  10.638   2.551 -0.0672 -0.0416 -0.5225
  971HK4    C2781497   1.435  10.775   2.573  0.6596 -0.0464  0.4689
  971HK4    H1481498   1.503  10.853   2.536 -1.0127  0.7973 -0.8549
  971HK4    C3281499   1.327  10.812   2.651 -0.0924 -0.1565 -0.5118
  971HK4    H1681500   1.314  10.920   2.656 -1.7057 -0.3365 -0.5596
  971HK4    C3181501   1.235  10.724   2.709  0.1169 -0.0258  0.0185
  971HK4    C3481502   1.110  10.741   2.780 -0.0205  0.1966 -0.2754
  971HK4    C3381503   1.072  10.604   2.810  0.0715  0.1042 -0.5719
  971HK4    C3581504   0.944  10.584   2.861  0.3183  0.2307  0.1067
  971HK4    H1781505   0.910  10.485   2.891 -1.3395  0.8332  0.2735
  971HK4    C3681506   0.859  10.692   2.881 -0.0445  0.0626 -0.4945
  971HK4    H1881507   0.756  10.684   2.920  0.0691 -0.2301 -0.2468
  971HK4    C3781508   0.902  10.820   2.847  0.0814  0.0883 -0.2435
  971HK4    H1981509   0.837  10.904   2.872 -1.0125 -0.2270 -1.9336
  971HK4    C3881510   1.027  10.851   2.796  0.0815  0.2542 -0.1413
  971HK4    H2081511   1.040  10.942   2.738 -0.0334  0.2492 -0.1753
  971HK4    C1481512   1.596  10.597   2.501  0.0274 -0.1553 -0.1755
  971HK4     C981513   1.718  10.664   2.515 -0.1573  0.1676 -0.1150
  971HK4     C881514   1.819  10.653   2.418 -0.4569  0.4279 -0.4591
  971HK4    C1181515   1.799  10.568   2.310 -0.4570 -0.3431  0.1428
  971HK4     H481516   1.880  10.558   2.236 -0.0020 -1.3477  0.7688
  971HK4    C1281517   1.679  10.499   2.299 -0.3596 -0.4208 -0.4460
  971HK4     H581518   1.670  10.440   2.207  0.4562  1.4420 -1.7459
  971HK4    C1381519   1.578  10.507   2.394 -0.3573  0.3048 -0.5003
  971HK4     H681520   1.521  10.414   2.408  0.2617  0.1673  1.2978
  971HK4     C781521   1.926  10.756   2.414  0.2171 -0.2446  0.0401
  971HK4     O281522   2.023  10.745   2.340 -0.2678 -0.0204 -0.6330
  971HK4     C481523   1.912  10.875   2.502 -0.1222 -0.1188 -0.1824
  971HK4     C381524   1.993  10.984   2.474 -0.5972  0.2265 -0.2330
  971HK4     H381525   2.058  10.988   2.385  0.4697 -0.3553  0.4961
  971HK4     C281526   1.981  11.099   2.551 -0.0481 -0.4210  0.8286
  971HK4     H281527   2.049  11.183   2.529  0.4039 -0.6936  1.1573
  971HK4     C181528   1.884  11.108   2.650  0.0049  0.0654  0.8363
  971HK4     H181529   1.890  11.182   2.731  0.7346 -0.2342  1.0601
  971HK4     C681530   1.793  11.002   2.673 -0.0427  0.0130  0.4035
  971HK4     C581531   1.815  10.882   2.604  0.6186  0.0681  0.5117
  971HK4    C1081532   1.733  10.760   2.628  0.2585  0.1702 -0.1748
  971HK4     O181533   1.711  10.733   2.746  0.4067  0.1222 -0.1596
  971HK4    C1681534   1.658  11.046   2.711 -0.2452 -0.6454  0.4519
  971HK4    C1581535   1.590  11.152   2.647 -0.0086 -0.9069 -0.2384
  971HK4     H781536   1.641  11.215   2.572 -0.1557  0.4943  0.8169
  971HK4    C2081537   1.465  11.193   2.689  0.3619  0.0405 -0.0441
  971HK4     H981538   1.405   0.022   2.640 -0.6875  0.2554  1.5270
  971HK4    C1981539   1.410  11.139   2.804 -0.1629  0.3965 -0.1213
  971HK4    C1881540   1.476  11.028   2.871 -0.2358  0.0731 -0.5876
  971HK4    C1781541   1.603  10.992   2.826 -0.0302 -0.6516  0.5515
  971HK4     H881542   1.670  10.947   2.899  0.7243  0.5737  0.6273
  971HK4     N181543   1.405  10.978   2.982  0.2093  0.3949 -0.1569
  971HK4    C2181544   1.281  11.045   2.976  0.1222  0.2473 -0.0034
  971HK4    C2281545   1.287  11.153   2.880 -0.0850  0.2855  0.0267
  971HK4    C2681546   1.179  11.241   2.874 -0.2927  0.0382  0.1453
  971HK4    H1381547   1.178   0.085   2.817 -2.0432  0.5575  0.9928
  971HK4    C2581548   1.073  11.220   2.961 -0.3286 -0.1132  0.0649
  971HK4    H1281549   0.993   0.045   2.974 -1.4497 -1.4825  1.0262
  971HK4    C2481550   1.060  11.116   3.053 -0.1362 -0.0456  0.1680
  971HK4    H1181551   0.975  11.113   3.123 -0.7640 -2.8573 -0.6466
  971HK4    C2381552   1.169  11.030   3.057  0.1686  0.3341  0.0761
  971HK4    H1081553   1.156  10.942   3.121  0.1189 -1.0728 -1.8144
  971HK4    C3981554   1.425  10.852   3.040 -0.3368  0.4246  0.0921
  971HK4    C4181555   1.389  10.820   3.173 -0.4212  0.2182  0.0190
  971HK4    H2181556   1.371  10.905   3.240  1.8547 -0.7494  1.9155
  971HK4    C4281557   1.386  10.687   3.214 -0.3723  0.1076 -0.3264
  971HK4    H2281558   1.404  10.676   3.322  0.7828 -2.1164 -0.7143
  971HK4    C4381559   1.413  10.583   3.126  0.5434 -0.4976  0.6606
  971HK4    H2381560   1.404  10.481   3.165  0.5633 -0.1892  1.4821
  971HK4    C4481561   1.453  10.610   2.996  0.0366  0.1650  0.6359
  971HK4    H2481562   1.493  10.533   2.928  3.9534  1.3953  1.4364
  971HK4    C4581563   1.458  10.743   2.957  0.0086  0.1520  0.5847
  971HK4    H2581564   1.501  10.774   2.861  1.8303 -0.5667  1.1446
  972HK4    H2881565   6.034   5.141   8.874  1.7921  1.5301  0.9209
  972HK4    C4881566   5.973   5.161   8.962  0.4945  0.1789  0.3369
  972HK4    C4781567   5.944   5.287   9.013  0.1190  0.5424 -0.7540
  972HK4    H2781568   6.020   5.365   8.998 -1.0931  2.2747  1.7935
  972HK4    C4681569   5.838   5.303   9.101  0.0845 -0.2729 -0.6403
  972HK4    H2681570   5.810   5.407   9.124  3.0777  0.4119  0.1175
  972HK4    C4081571   5.749   5.200   9.137  0.1216  0.0554  0.3948
  972HK4    C5081572   5.781   5.074   9.083 -0.0794  0.2161 -0.0926
  972HK4    H3081573   5.716   4.986   9.099  0.2321  0.0055  0.0098
  972HK4    C4981574   5.892   5.055   9.001  0.3350  0.3407  0.4430
  972HK4    H2981575   5.927   4.952   8.987 -0.3924  0.2545 -0.8402
  972HK4     N281576   5.647   5.202   9.233 -0.0987 -0.2091  0.1696
  972HK4    C3081577   5.643   5.306   9.328  0.2860  0.2324 -0.2988
  972HK4    C2981578   5.743   5.373   9.398  0.3089  0.0803 -0.1886
  972HK4    H1581579   5.844   5.373   9.356  0.7738 -0.7448  0.9209
  972HK4    C2881580   5.724   5.457   9.507 -0.2914 -0.1003 -0.1544
  972HK4    C2781581   5.588   5.478   9.537 -0.1463  0.4060  0.1468
  972HK4    H1481582   5.565   5.552   9.616 -0.9467  0.5233 -0.1885
  972HK4    C3281583   5.481   5.420   9.469  0.0035 -0.1226  0.3629
  972HK4    H1681584   5.379   5.454   9.481  0.2936  0.7121  0.5353
  972HK4    C3181585   5.505   5.332   9.365  0.3995  0.4284 -0.0134
  972HK4    C3481586   5.421   5.239   9.292  0.3117  0.6606 -0.2112
  972HK4    C3381587   5.513   5.166   9.208 -0.0899 -0.1603  0.0575
  972HK4    C3581588   5.460   5.075   9.117 -0.0595 -0.3669  0.2424
  972HK4    H1781589   5.516   5.016   9.045  1.2787 -0.8772  1.6631
  972HK4    C3681590   5.322   5.057   9.108 -0.0554 -0.5521  0.5495
  972HK4    H1881591   5.286   4.993   9.027  0.0536  0.4584 -0.3120
  972HK4    C3781592   5.235   5.126   9.192 -0.1607 -0.2837  0.2175
  972HK4    H1981593   5.134   5.121   9.151 -1.1485  0.3868  2.5232
  972HK4    C3881594   5.284   5.218   9.284  0.4362 -0.1921 -0.1838
  972HK4    H2081595   5.225   5.260   9.365 -0.6291 -3.8495  1.0163
  972HK4    C1481596   5.834   5.507   9.590  0.0195 -0.6955 -0.2038
  972HK4     C981597   5.813   5.549   9.722 -0.1697 -0.1352 -0.4120
  972HK4     C881598   5.867   5.672   9.765  0.1789 -0.3684 -0.1851
  972HK4    C1181599   5.957   5.741   9.685 -0.0970 -0.0872 -0.2551
  972HK4     H481600   5.995   5.838   9.722  1.5832 -1.6780  2.3614
  972HK4    C1281601   5.989   5.693   9.559 -0.6214 -0.3137 -0.2982
  972HK4     H581602   6.048   5.755   9.490  0.6987 -1.2020 -0.0030
  972HK4    C1381603   5.931   5.575   9.513 -0.7306 -0.1259 -0.6456
  972HK4     H681604   5.972   5.528   9.423 -0.0148 -0.8334  0.0453
  972HK4     C781605   5.828   5.717   9.900  0.4021 -0.8360  0.0392
  972HK4     O281606   5.866   5.828   9.939 -0.0316 -0.6263 -0.1356
  972HK4     C481607   5.739   5.636   9.987 -0.5333  0.1604  0.0099
  972HK4     C381608   5.708   5.683  10.114  0.1968 -0.6624  0.4870
  972HK4     H381609   5.731   5.786  10.145 -1.4008  0.1901 -1.0699
  972HK4     C281610   5.630   5.607  10.200 -0.5339 -0.1376  0.2878
  972HK4     H281611   5.602   5.629  10.304  0.5136  0.6218  0.4173
  972HK4     C181612   5.565   5.497  10.145 -0.1178 -0.5207  0.5601
  972HK4     H181613   5.518   5.433  10.222  0.5920  0.0146  1.4406
  972HK4     C681614   5.572   5.457  10.010 -0.0288 -0.1677  0.4600
  972HK4     C581615   5.673   5.522   9.938 -0.0833 -0.2338  0.3249
  972HK4    C1081616   5.735   5.463   9.815 -0.0644  0.2992  0.0797
  972HK4     O181617   5.754   5.342   9.808 -0.0340  0.2972  0.2051
  972HK4    C1681618   5.449   5.400   9.954 -0.0551  0.8347 -0.5239
  972HK4    C1581619   5.335   5.380  10.033  0.2290  0.3603 -0.2326
  972HK4     H781620   5.327   5.406  10.140  2.5915  1.5041 -0.2977
  972HK4    C2081621   5.227   5.305   9.987  0.4362  0.0058 -0.1453
  972HK4     H981622   5.131   5.305  10.038  1.0806 -2.3631  1.1703
  972HK4    C1981623   5.228   5.239   9.865  0.2606  0.3186 -0.3163
  972HK4    C1881624   5.353   5.244   9.791  0.2961  0.5243 -0.2420
  972HK4    C1781625   5.449   5.337   9.830  0.8522 -0.1314 -0.0437
  972HK4     H881626   5.509   5.380   9.749 -1.8433  0.8649 -1.5543
  972HK4     N181627   5.360   5.141   9.695  0.0736 -0.5898  0.9282
  972HK4    C2181628   5.235   5.076   9.699 -0.4252  0.2953  0.0399
  972HK4    C2281629   5.150   5.134   9.801  0.2623 -0.5697  1.1201
  972HK4    C2681630   5.020   5.087   9.811 -0.0158 -0.1899 -0.5014
  972HK4    H1381631   4.965   5.112   9.902 -0.8059 -0.2930 -0.9507
  972HK4    C2581632   4.966   4.996   9.721 -0.4815 -0.0592 -0.3514
  972HK4    H1281633   4.864   4.958   9.736 -0.3347 -0.3730 -0.1453
  972HK4    C2481634   5.051   4.944   9.625  0.1033  0.7012 -0.2463
  972HK4    H1181635   5.014   4.890   9.537  2.7074  0.2012 -1.0840
  972HK4    C2381636   5.185   4.978   9.614  0.2835  0.0543 -0.1072
  972HK4    H1081637   5.246   4.920   9.545 -0.2727 -1.3287  0.5619
  972HK4    C3981638   5.477   5.073   9.660  0.0038 -0.0903 -0.2985
  972HK4    C4181639   5.486   4.993   9.544 -0.2089 -0.5432 -0.0049
  972HK4    H2181640   5.405   5.000   9.470 -0.8311  0.7391  0.7912
  972HK4    C4281641   5.599   4.918   9.515  0.2658  0.2759 -0.2979
  972HK4    H2281642   5.614   4.874   9.415  0.4659 -0.7115  0.1535
  972HK4    C4381643   5.707   4.917   9.603  0.4820  0.7233 -0.5599
  972HK4    H2381644   5.798   4.862   9.580  0.0033 -1.4673  2.5276
  972HK4    C4481645   5.702   4.992   9.721 -0.2853  0.0963 -0.1897
  972HK4    H2481646   5.793   5.002   9.781  0.2351 -0.2951 -0.8931
  972HK4    C4581647   5.587   5.063   9.749 -0.3094 -0.0534  0.0924
  972HK4    H2581648   5.585   5.128   9.838  0.3029  1.8879 -1.2622
  973HK4    H2881649   2.434  10.898   3.050 -0.9071  0.0647  0.0969
  973HK4    C4881650   2.438  10.944   3.149 -0.2953 -0.2582  0.2188
  973HK4    C4781651   2.531  10.906   3.246  0.4533  0.3366 -0.2581
  973HK4    H2781652   2.593  10.816   3.235 -2.3936 -1.6695 -0.4214
  973HK4    C4681653   2.515  10.965   3.371  0.3927  0.2245 -0.2129
  973HK4    H2681654   2.584  10.920   3.444 -2.2515 -0.8894  1.6647
  973HK4    C4081655   2.421  11.062   3.411  0.5243  0.3537 -0.2180
  973HK4    C5081656   2.338  11.102   3.304  0.2843  0.3109 -0.0459
  973HK4    H3081657   2.267  11.186   3.314 -1.3189 -1.1459  1.2535
  973HK4    C4981658   2.346  11.043   3.178  0.0967  0.1720  0.0066
  973HK4    H2981659   2.267  11.061   3.104  1.3754  0.2933 -1.3270
  973HK4     N281660   2.396  11.108   3.541 -0.2393 -0.0722 -0.2158
  973HK4    C3081661   2.431  11.034   3.656  0.1520  0.0328 -0.2677
  973HK4    C2981662   2.485  10.908   3.679 -0.0096  0.1244  0.6517
  973HK4    H1581663   2.468  10.839   3.596 -0.9355  2.0859 -0.8435
  973HK4    C2881664   2.562  10.870   3.788 -0.1283 -0.1733  0.6314
  973HK4    C2781665   2.556  10.954   3.901  0.8994  0.1646  0.4418
  973HK4    H1481666   2.597  10.932   4.001 -0.0656 -0.4621  0.7038
  973HK4    C3281667   2.490  11.076   3.892  0.1292 -0.2826 -0.0375
  973HK4    H1681668   2.480  11.135   3.983  0.1331 -0.4462  0.0695
  973HK4    C3181669   2.422  11.113   3.777  0.2183 -0.2500 -0.0788
  973HK4    C3481670   2.368  11.240   3.733  0.0341 -0.1575  0.4206
  973HK4    C3381671   2.364  11.236   3.588  0.6271 -0.0778  0.3996
  973HK4    C3581672   2.316   0.103   3.526  0.0947 -0.0941  0.7734
  973HK4    H1781673   2.301   0.098   3.418 -2.2068 -1.4823  1.1274
  973HK4    C3681674   2.279   0.220   3.592 -0.1681  0.2453  0.0373
  973HK4    H1881675   2.227   0.300   3.539 -0.6946 -0.6764 -0.8636
  973HK4    C3781676   2.286   0.221   3.731 -0.6413  0.2993  0.0623
  973HK4    H1981677   2.277   0.318   3.781 -0.4287  0.4548 -0.1983
  973HK4    C3881678   2.324   0.106   3.800  0.1575  0.3266 -0.3249
  973HK4    H2081679   2.308   0.113   3.907 -0.7085 -1.2674 -0.3331
  973HK4    C1481680   2.628  10.739   3.792 -0.0557 -0.1540  0.1655
  973HK4     C981681   2.659  10.662   3.905  0.2335 -0.1572  0.0831
  973HK4     C881682   2.783  10.594   3.911 -0.1666 -0.9214 -0.2434
  973HK4    C1181683   2.874  10.616   3.808  0.0894 -0.2063  0.1362
  973HK4     H481684   2.974  10.570   3.815  0.7696  1.1104 -0.6347
  973HK4    C1281685   2.840  10.679   3.689  0.2956 -0.0301  0.1712
  973HK4     H581686   2.916  10.685   3.610  1.6282  0.8699  1.4929
  973HK4    C1381687   2.713  10.734   3.680  0.1163 -0.4222  0.3069
  973HK4     H681688   2.664  10.741   3.581  1.2180  1.0698 -0.1565
  973HK4     C781689   2.803  10.493   4.017 -0.1316 -0.5503  0.1042
  973HK4     O281690   2.893  10.409   4.003 -0.2282 -0.6493  0.0792
  973HK4     C481691   2.711  10.487   4.132 -0.1800  0.0907  0.0964
  973HK4     C381692   2.746  10.398   4.233 -0.0061  0.2189  0.1504
  973HK4     H381693   2.825  10.322   4.224  0.1912  0.3314  0.8984
  973HK4     C281694   2.673  10.400   4.351 -0.1810 -0.0401  0.0490
  973HK4     H281695   2.716  10.363   4.446  0.1594 -1.1513 -0.5377
  973HK4     C181696   2.569  10.492   4.357 -0.0599  0.1141 -0.2224
  973HK4     H181697   2.513  10.488   4.451  1.2153 -2.0634  0.4787
  973HK4     C681698   2.528  10.586   4.260 -0.2519  0.1012 -0.1543
  973HK4     C581699   2.599  10.573   4.140 -0.2692 -0.0022 -0.1524
  973HK4    C1081700   2.563  10.649   4.017 -0.0789  0.0846 -0.1571
  973HK4     O181701   2.443  10.671   3.998 -0.1509 -0.3753 -0.2449
  973HK4    C1681702   2.492  10.717   4.317  0.0383  0.0984  0.0345
  973HK4    C1581703   2.554  10.754   4.438  0.3327 -0.1698 -0.0306
  973HK4     H781704   2.654  10.714   4.462  1.0028  1.5243  0.1083
  973HK4    C2081705   2.495  10.850   4.520 -0.0051 -0.2727 -0.1543
  973HK4     H981706   2.549  10.891   4.605  0.7440 -0.3504 -0.5875
  973HK4    C1981707   2.380  10.913   4.475  0.0097 -0.3175 -0.2575
  973HK4    C1881708   2.315  10.878   4.350 -0.0034 -0.0842 -0.3164
  973HK4    C1781709   2.374  10.777   4.275 -0.3296 -0.5790  0.0961
  973HK4     H881710   2.305  10.735   4.202 -0.4207  0.1143 -0.2185
  973HK4     N181711   2.196  10.949   4.323  0.4601  0.6063 -0.5661
  973HK4    C2181712   2.188  11.032   4.437  0.1697  0.3356 -0.3874
  973HK4    C2281713   2.293  11.013   4.534  0.2132  0.0037 -0.5004
  973HK4    C2681714   2.301  11.098   4.644 -0.6680  0.0968 -0.5086
  973HK4    H1381715   2.376  11.090   4.722 -0.1249 -2.1635 -1.2224
  973HK4    C2581716   2.207  11.199   4.664  0.3383  0.8429  0.5300
  973HK4    H1281717   2.212   0.022   4.746  0.8845 -2.3173  3.3580
  973HK4    C2481718   2.101  11.214   4.575  0.9943  0.7920 -0.2699
  973HK4    H1181719   2.026   0.044   4.595 -0.9651 -0.7113 -1.5190
  973HK4    C2381720   2.100  11.138   4.459  0.4798  0.5334 -0.0997
  973HK4    H1081721   2.022  11.150   4.385 -1.6367 -2.8287  1.4636
  973HK4    C3981722   2.137  10.963   4.197  0.1762  0.5171 -0.4428
  973HK4    C4181723   2.005  11.008   4.182  0.1083  0.5565  0.2721
  973HK4    H2181724   1.938  11.001   4.269 -0.1947 -0.2281 -0.0264
  973HK4    C4281725   1.949  11.025   4.056  0.6534  0.3779  0.0069
  973HK4    H2281726   1.848  11.070   4.055  0.6910  0.4728  0.4388
  973HK4    C4381727   2.020  10.995   3.940  0.6843 -0.1985  0.1747
  973HK4    H2381728   1.975  11.009   3.842 -1.1013 -0.0911  0.9974
  973HK4    C4481729   2.151  10.950   3.951  0.4771 -0.8764 -0.1372
  973HK4    H2481730   2.211  10.925   3.862 -0.6291  1.1656 -1.5010
  973HK4    C4581731   2.209  10.943   4.077  0.5972  0.1523 -0.1345
  973HK4    H2581732   2.319  10.939   4.086  0.5968  0.5206  0.0518
  974HK4    H2881733   5.652   8.387   7.326 -0.5567  1.0599 -0.4027
  974HK4    C4881734   5.594   8.387   7.418 -0.4418  0.3045 -0.3310
  974HK4    C4781735   5.592   8.500   7.499  0.1011  0.0227  0.0681
  974HK4    H2781736   5.634   8.594   7.462  2.8302 -1.1189  0.0809
  974HK4    C4681737   5.523   8.505   7.620  0.0961  0.6621  0.0376
  974HK4    H2681738   5.519   8.597   7.681 -3.3919  0.2472  0.5188
  974HK4    C4081739   5.446   8.395   7.662  0.5808  0.2650 -0.1044
  974HK4    C5081740   5.445   8.282   7.578  0.3734 -0.2534  0.5960
  974HK4    H3081741   5.366   8.207   7.596 -2.9133  3.0526  0.6789
  974HK4    C4981742   5.513   8.280   7.457 -0.5709  0.5347  0.0416
  974HK4    H2981743   5.503   8.197   7.385  0.6729  0.7869 -0.4470
  974HK4     N281744   5.392   8.380   7.790 -0.1345 -0.3505 -0.4706
  974HK4    C3081745   5.430   8.458   7.901 -0.0134 -0.1227 -0.6697
  974HK4    C2981746   5.560   8.502   7.926 -0.1415  0.0901 -0.3675
  974HK4    H1581747   5.640   8.469   7.859 -1.4540  0.4188 -2.1396
  974HK4    C2881748   5.586   8.583   8.035  0.3344  0.1197 -0.4994
  974HK4    C2781749   5.476   8.622   8.115  0.2589 -0.0313 -0.5320
  974HK4    H1481750   5.501   8.700   8.189  0.9608  0.2087 -1.0122
  974HK4    C3281751   5.346   8.577   8.100  0.1870  0.1087 -0.3390
  974HK4    H1681752   5.270   8.594   8.175  1.5161  0.5617  0.9137
  974HK4    C3181753   5.323   8.492   7.992  0.5459 -0.6832  0.2078
  974HK4    C3481754   5.206   8.424   7.939  0.1534  0.1619 -0.0048
  974HK4    C3381755   5.257   8.356   7.822 -0.1789  0.2423 -0.1986
  974HK4    C3581756   5.164   8.272   7.762  0.0911 -0.5319  0.4537
  974HK4    H1781757   5.200   8.225   7.670 -0.6034 -0.7846  0.3095
  974HK4    C3681758   5.030   8.265   7.799 -0.4560  0.4970 -1.2493
  974HK4    H1881759   4.957   8.204   7.745 -0.4567 -0.6203 -0.0058
  974HK4    C3781760   4.984   8.344   7.905  0.2941 -0.0433 -0.5098
  974HK4    H1981761   4.877   8.349   7.925  0.1571 -1.2636 -0.8825
  974HK4    C3881762   5.073   8.420   7.980  0.0732 -0.0088 -0.2831
  974HK4    H2081763   5.042   8.457   8.077  1.2755 -0.4783  0.2889
  974HK4    C1481764   5.723   8.576   8.086  0.1583 -0.6422 -0.1260
  974HK4     C981765   5.755   8.586   8.222  0.2629  0.1819 -0.2059
  974HK4     C881766   5.869   8.660   8.260  0.4714 -0.2574  0.0336
  974HK4    C1181767   5.945   8.721   8.161 -0.0760 -0.0750 -0.2724
  974HK4     H481768   6.012   8.805   8.187 -0.9870  0.4556  0.4271
  974HK4    C1281769   5.925   8.693   8.026 -0.3543  0.2086 -0.2919
  974HK4     H581770   5.989   8.736   7.948 -0.4033  1.9572  0.6055
  974HK4    C1381771   5.816   8.616   7.988 -0.3129  0.1295 -0.2579
  974HK4     H681772   5.804   8.572   7.887 -0.2308  2.9682 -1.5467
  974HK4     C781773   5.914   8.668   8.400 -0.1462 -0.5041  0.2513
  974HK4     O281774   6.022   8.721   8.422 -0.3090 -0.0936  0.0736
  974HK4     C481775   5.826   8.612   8.506 -0.3765 -0.2390  0.1981
  974HK4     C381776   5.860   8.626   8.640 -0.0636 -0.1607  0.1112
  974HK4     H381777   5.965   8.646   8.666  0.4723 -1.0515 -1.2906
  974HK4     C281778   5.764   8.616   8.739 -0.3390 -0.2218 -0.1613
  974HK4     H281779   5.788   8.656   8.839 -2.0434  0.9618 -0.1913
  974HK4     C181780   5.635   8.578   8.705 -0.4121 -0.2767  0.1706
  974HK4     H181781   5.555   8.610   8.774 -1.3608 -0.0354 -1.0277
  974HK4     C681782   5.599   8.548   8.572 -0.4561  0.0668  0.1042
  974HK4     C581783   5.697   8.565   8.473 -0.3853 -0.1710  0.1297
  974HK4    C1081784   5.676   8.522   8.332  0.6603 -0.0604 -0.0606
  974HK4     O181785   5.609   8.422   8.309  0.6384 -0.1629  0.4389
  974HK4    C1681786   5.456   8.541   8.539 -0.2805  0.2116 -0.6924
  974HK4    C1581787   5.372   8.641   8.592 -0.4011 -0.2785  0.0443
  974HK4     H781788   5.431   8.728   8.626  2.6324 -2.0440 -0.4907
  974HK4    C2081789   5.234   8.635   8.598 -0.4057  0.1508  0.4282
  974HK4     H981790   5.179   8.721   8.636  1.0102  1.2376  0.0613
  974HK4    C1981791   5.171   8.519   8.553 -0.1149  0.1486  0.0195
  974HK4    C1881792   5.252   8.411   8.500 -0.2308 -0.3161  0.7965
  974HK4    C1781793   5.390   8.425   8.502 -0.2478  0.0058 -0.1067
  974HK4     H881794   5.453   8.341   8.472 -1.9799 -1.5820  0.6006
  974HK4     N181795   5.172   8.306   8.450  0.2050 -0.0420 -0.4913
  974HK4    C2181796   5.038   8.347   8.461  0.1704 -0.4090  0.6006
  974HK4    C2281797   5.035   8.479   8.520 -0.0148 -0.0987 -0.0926
  974HK4    C2681798   4.913   8.516   8.575 -0.0226 -0.0529 -0.1387
  974HK4    H1381799   4.916   8.622   8.603 -1.5837  0.4291 -1.7400
  974HK4    C2581800   4.797   8.440   8.572 -0.1766  0.1792 -0.0134
  974HK4    H1281801   4.697   8.474   8.602  0.5297  2.2816  0.0786
  974HK4    C2481802   4.808   8.317   8.510 -0.4887  0.3045 -0.3251
  974HK4    H1181803   4.726   8.244   8.519 -0.2927  0.3017  1.7313
  974HK4    C2381804   4.926   8.265   8.457 -0.4387  0.4520 -0.3544
  974HK4    H1081805   4.936   8.168   8.408  2.2106 -0.7617  2.3709
  974HK4    C3981806   5.220   8.200   8.372  0.1517 -0.0043 -0.5728
  974HK4    C4181807   5.161   8.072   8.380 -0.3527  0.2997  0.6131
  974HK4    H2181808   5.130   8.035   8.479  1.0810 -0.4440  0.7940
  974HK4    C4281809   5.171   7.984   8.274 -0.3014  1.0901 -0.0416
  974HK4    H2281810   5.131   7.882   8.282  1.0917  0.3790 -1.7369
  974HK4    C4381811   5.237   8.016   8.156 -0.7761 -0.1210 -0.6490
  974HK4    H2381812   5.256   7.941   8.079  0.4992 -1.0839  0.5920
  974HK4    C4481813   5.289   8.145   8.144  0.2220 -0.4445  0.1344
  974HK4    H2481814   5.335   8.177   8.050  2.2368  1.8527  1.8438
  974HK4    C4581815   5.281   8.235   8.250  1.1686 -0.0927 -0.0922
  974HK4    H2581816   5.329   8.332   8.229  0.2478  0.2191 -0.7829
  975HK4    H2881817   6.224   8.690   4.436  0.9028  1.0842  0.1189
  975HK4    C4881818   6.171   8.713   4.529  0.4629 -0.2084  0.1983
  975HK4    C4781819   6.074   8.813   4.530  0.0942 -0.5638  0.2618
  975HK4    H2781820   6.032   8.848   4.435  1.1406 -0.0499 -0.0188
  975HK4    C4681821   6.014   8.861   4.646 -0.4570 -0.5718 -0.0199
  975HK4    H2681822   5.938   8.941   4.645  0.0504 -0.0728  0.4110
  975HK4    C4081823   6.069   8.821   4.769 -0.0334  0.3218  0.0884
  975HK4    C5081824   6.164   8.716   4.769  0.1969  0.5261  0.3285
  975HK4    H3081825   6.184   8.668   4.865  0.8781  0.9078  0.3811
  975HK4    C4981826   6.214   8.662   4.651  0.1100  0.1431  0.4682
  975HK4    H2981827   6.284   8.578   4.657  0.6343  0.4762 -0.8532
  975HK4     N281828   6.053   8.903   4.881 -0.2677  0.1400  0.1893
  975HK4    C3081829   6.039   9.043   4.888 -0.3343  0.1226  0.4050
  975HK4    C2981830   6.091   9.141   4.804 -0.9014  0.2075  0.1499
  975HK4    H1581831   6.122   9.103   4.707 -0.1476 -3.2084  1.6603
  975HK4    C2881832   6.122   9.272   4.840  0.5475 -0.1694  0.3317
  975HK4    C2781833   6.090   9.309   4.972 -0.1378  0.3815  0.0136
  975HK4    H1481834   6.110   9.415   4.997  2.5531  0.0640 -0.6935
  975HK4    C3281835   6.025   9.218   5.054 -0.6008  0.6733 -0.0247
  975HK4    H1681836   6.008   9.247   5.158  0.9357 -0.3766  0.5460
  975HK4    C3181837   5.986   9.091   5.014 -0.0748  0.3668  0.4233
  975HK4    C3481838   5.953   8.968   5.084 -0.3879  0.2139  0.0133
  975HK4    C3381839   5.999   8.857   5.003  0.1511  0.1678  0.3854
  975HK4    C3581840   5.980   8.732   5.060  0.4729 -0.0531  0.0102
  975HK4    H1781841   5.969   8.643   4.997  1.7283 -0.6771  0.6479
  975HK4    C3681842   5.929   8.709   5.187  0.7309  0.3016  0.1757
  975HK4    H1881843   5.932   8.606   5.223  2.7232  0.1850 -0.2639
  975HK4    C3781844   5.893   8.818   5.267 -1.4404 -0.2303 -0.0499
  975HK4    H1981845   5.817   8.800   5.343 -2.2990  0.5986 -0.6998
  975HK4    C3881846   5.905   8.945   5.213 -0.1868 -0.3289 -0.0086
  975HK4    H2081847   5.900   9.035   5.274  0.7833 -0.4515  0.2681
  975HK4    C1481848   6.237   9.338   4.778  0.5030 -0.1148  0.3093
  975HK4     C981849   6.341   9.397   4.851  0.9049  0.0179 -0.3580
  975HK4     C881850   6.394   9.521   4.812  0.7580  0.2953  0.3124
  975HK4    C1181851   6.357   9.582   4.693  0.7875 -0.1113  0.0984
  975HK4     H481852   6.379   9.688   4.670  0.8249  0.1245  1.2026
  975HK4    C1281853   6.266   9.517   4.611 -0.1661 -0.0603  1.1148
  975HK4     H581854   6.225   9.555   4.516  3.0217 -0.3472 -0.4438
  975HK4    C1381855   6.210   9.397   4.653 -0.3118 -0.2344  0.4253
  975HK4     H681856   6.155   9.330   4.585  0.3516  0.9722 -1.3303
  975HK4     C781857   6.480   9.598   4.905  0.5509  0.4764  0.3534
  975HK4     O281858   6.566   9.678   4.869  1.0407  0.0372  0.5357
  975HK4     C481859   6.489   9.545   5.043 -0.4835 -0.4047  0.0804
  975HK4     C381860   6.520   9.632   5.146 -0.0846 -0.1595 -0.2475
  975HK4     H381861   6.514   9.741   5.133  2.1116 -0.1421 -1.4127
  975HK4     C281862   6.564   9.589   5.271  0.5096  0.2602 -0.3112
  975HK4     H281863   6.601   9.652   5.354  0.0533  1.1388 -0.7621
  975HK4     C181864   6.569   9.452   5.290  0.1180  0.2060 -0.5972
  975HK4     H181865   6.610   9.414   5.385 -0.6529 -2.2533 -1.1987
  975HK4     C681866   6.530   9.360   5.190  0.1056 -0.5555  0.1052
  975HK4     C581867   6.485   9.406   5.066  0.3351 -0.4327  0.0666
  975HK4    C1081868   6.399   9.329   4.971 -0.2265  0.0187  0.2028
  975HK4     O181869   6.390   9.207   4.970 -0.7113  0.0584 -0.3601
  975HK4    C1681870   6.542   9.218   5.227  0.4767 -0.4293  0.4707
  975HK4    C1581871   6.544   9.182   5.364  0.2984  0.4734  0.7175
  975HK4     H781872   6.484   9.240   5.434  0.0501  1.8963 -0.6494
  975HK4    C2081873   6.590   9.057   5.405  0.5401  0.3380  0.0429
  975HK4     H981874   6.579   9.032   5.510  0.0702 -1.2778 -0.3758
  975HK4    C1981875   6.645   8.966   5.315 -0.1036  0.0421 -0.0482
  975HK4    C1881876   6.652   9.006   5.176  0.6752  0.1501  0.0188
  975HK4    C1781877   6.600   9.130   5.137  0.5103  0.0735 -0.0019
  975HK4     H881878   6.614   9.153   5.032 -2.1072 -0.6952 -0.5575
  975HK4     N181879   6.718   8.905   5.104  0.2571  0.0345 -0.2030
  975HK4    C2181880   6.747   8.801   5.195  0.8256  0.7008  0.3800
  975HK4    C2281881   6.707   8.836   5.330  0.3933  0.3249  0.3546
  975HK4    C2681882   6.722   8.745   5.434 -0.4754 -0.0715  0.1291
  975HK4    H1381883   6.705   8.773   5.537  1.2541  1.6359 -0.0181
  975HK4    C2581884   6.762   8.617   5.397  0.6013  0.3986 -0.3402
  975HK4    H1281885   6.733   8.540   5.468  0.8517 -1.5663 -2.3277
  975HK4    C2481886   6.804   8.578   5.270  0.0869  0.0817 -0.4126
  975HK4    H1181887   6.864   8.488   5.248 -2.2976 -1.2913 -1.5424
  975HK4    C2381888   6.798   8.674   5.170  0.1985  0.5170 -0.0014
  975HK4    H1081889   6.853   8.657   5.078 -0.2151 -2.5084  0.2495
  975HK4    C3981890   6.682   8.881   4.970  0.2395 -0.1737 -0.1609
  975HK4    C4181891   6.778   8.829   4.882 -0.0993  0.1361 -0.7138
  975HK4    H2181892   6.878   8.876   4.875 -0.0634  0.4817  1.8731
  975HK4    C4281893   6.737   8.739   4.785  0.1888 -0.2828 -0.4495
  975HK4    H2281894   6.815   8.676   4.741  1.0724  1.0683 -0.8336
  975HK4    C4381895   6.604   8.705   4.761 -0.0228 -0.1598  0.5153
  975HK4    H2381896   6.568   8.633   4.687  0.1188  0.4660 -0.1624
  975HK4    C4481897   6.509   8.778   4.831 -0.3894 -0.5145  0.3919
  975HK4    H2481898   6.409   8.786   4.787  0.3553 -0.3526 -1.3101
  975HK4    C4581899   6.547   8.858   4.938  0.2164 -0.1680 -0.0710
  975HK4    H2581900   6.466   8.906   4.996  1.5600  1.4440  0.5202
  976HK4    H2881901   1.815   4.415  11.017  1.6335  1.5037 -0.2540
  976HK4    C4881902   1.746   4.475  10.958 -0.0178 -0.1180 -0.0202
  976HK4    C4781903   1.749   4.613  10.972  0.0806 -0.1337  0.1026
  976HK4    H2781904   1.832   4.656  11.030 -0.4730  1.3451 -0.1821
  976HK4    C4681905   1.652   4.688  10.906 -0.2754 -0.6112  0.0808
  976HK4    H2681906   1.649   4.794  10.935 -0.7036 -0.3601 -0.8737
  976HK4    C4081907   1.555   4.634  10.820 -0.7960 -0.1784  0.3924
  976HK4    C5081908   1.559   4.494  10.806 -0.2612 -0.1179 -0.0999
  976HK4    H3081909   1.501   4.451  10.723  0.6831 -2.5913  0.4823
  976HK4    C4981910   1.649   4.416  10.878 -0.0607  0.0900 -0.1230
  976HK4    H2981911   1.649   4.311  10.844 -3.2017 -0.1763  0.5123
  976HK4     N281912   1.494   4.711  10.720  0.0772  0.2213  0.1652
  976HK4    C3081913   1.542   4.829  10.659 -0.4791  0.5111  0.2843
  976HK4    C2981914   1.649   4.908  10.698 -0.3255  0.2013  0.4905
  976HK4    H1581915   1.730   4.862  10.754 -0.3662  0.2100  0.5572
  976HK4    C2881916   1.651   5.039  10.650  0.0509 -0.0544 -0.1907
  976HK4    C2781917   1.548   5.086  10.566 -0.0813  0.4700  0.2629
  976HK4    H1481918   1.545   5.184  10.517  3.0295  0.5267  0.0705
  976HK4    C3281919   1.448   5.004  10.516  0.2186  0.0878  0.2814
  976HK4    H1681920   1.384   5.036  10.434 -0.7189 -2.9333 -0.2337
  976HK4    C3181921   1.447   4.872  10.558 -0.0553 -0.1197 -0.3821
  976HK4    C3481922   1.340   4.773  10.555 -0.6171  0.4671  0.1841
  976HK4    C3381923   1.365   4.687  10.668  0.1715  0.3007 -0.1069
  976HK4    C3581924   1.268   4.600  10.717  0.2633 -0.1931 -0.7950
  976HK4    H1781925   1.289   4.530  10.797 -0.2908 -1.0359 -1.3770
  976HK4    C3681926   1.141   4.601  10.659 -0.2647  0.5698  0.3432
  976HK4    H1881927   1.058   4.553  10.712 -0.3473  1.1220  0.7109
  976HK4    C3781928   1.115   4.683  10.550  0.0536  0.0302 -0.1466
  976HK4    H1981929   1.014   4.678  10.508 -0.3126  0.3405  0.6987
  976HK4    C3881930   1.214   4.765  10.497 -0.3648  0.4005 -0.3630
  976HK4    H2081931   1.195   4.811  10.400  1.5474  2.4913  0.2196
  976HK4    C1481932   1.726   5.134  10.735 -0.0817 -0.1000 -0.0240
  976HK4     C981933   1.670   5.259  10.764 -0.0941 -0.1284  0.0765
  976HK4     C881934   1.750   5.375  10.755 -0.2117 -0.0348  0.2466
  976HK4    C1181935   1.885   5.362  10.729 -0.1366  0.2929  0.4693
  976HK4     H481936   1.946   5.451  10.748 -0.4645  0.2396  1.8186
  976HK4    C1281937   1.945   5.236  10.718 -0.0269  0.3340  0.5876
  976HK4     H581938   2.054   5.230  10.710 -0.3322 -2.7800 -1.6843
  976HK4    C1381939   1.865   5.122  10.719 -0.0288  0.3306  0.1400
  976HK4     H681940   1.917   5.029  10.692  3.0499  1.8628  0.4633
  976HK4     C781941   1.685   5.507  10.771 -0.0967 -0.0182  0.5707
  976HK4     O281942   1.731   5.606  10.712 -0.5004 -0.5435 -0.6349
  976HK4     C481943   1.543   5.519  10.807 -0.2079 -0.0597  0.1495
  976HK4     C381944   1.490   5.647  10.825  0.1260  0.1761 -0.5185
  976HK4     H381945   1.557   5.732  10.844  2.0839 -1.2812 -0.7848
  976HK4     C281946   1.354   5.659  10.852  0.0200 -0.1653 -0.8975
  976HK4     H281947   1.323   5.756  10.892  0.9278 -0.0332 -0.5053
  976HK4     C181948   1.272   5.547  10.858 -0.2851  0.1215  0.2854
  976HK4     H181949   1.166   5.559  10.887 -0.0526 -0.7901  1.5685
  976HK4     C681950   1.324   5.421  10.824 -0.3745  0.1210  0.1547
  976HK4     C581951   1.462   5.404  10.810 -0.3486  0.0461  0.5072
  976HK4    C1081952   1.528   5.270  10.807 -0.0101  0.2185  0.2629
  976HK4     O181953   1.482   5.184  10.882  0.0686  0.1028  0.1777
  976HK4    C1681954   1.234   5.341  10.739 -0.0091 -0.0365 -0.0866
  976HK4    C1581955   1.159   5.396  10.633 -0.5097 -0.0039  0.2853
  976HK4     H781956   1.158   5.505  10.617  0.1523  0.1904  1.5124
  976HK4    C2081957   1.059   5.324  10.568 -0.6737  0.5347 -0.0545
  976HK4     H981958   0.998   5.366  10.488  2.0438 -1.6860 -3.4288
  976HK4    C1981959   1.025   5.195  10.606  0.4331 -0.0187 -0.9108
  976HK4    C1881960   1.088   5.142  10.725 -0.4551  0.3663 -0.2592
  976HK4    C1781961   1.188   5.218  10.785  0.1831 -0.2688 -0.5163
  976HK4     H881962   1.204   5.199  10.891 -2.1941  0.2267 -0.0245
  976HK4     N181963   1.022   5.026  10.771  0.1046  0.0739 -0.1970
  976HK4    C2181964   0.920   4.998  10.677 -0.4105  0.4102  0.2602
  976HK4    C2281965   0.909   5.110  10.586  0.3063  0.0126 -0.3236
  976HK4    C2681966   0.810   5.114  10.488  0.0145  0.2219 -0.0196
  976HK4    H1381967   0.818   5.194  10.414 -1.5309 -0.4939 -0.9781
  976HK4    C2581968   0.715   5.013  10.482  0.2324  0.0160 -0.0076
  976HK4    H1281969   0.626   5.025  10.420  1.1649 -0.4927 -1.4388
  976HK4    C2481970   0.727   4.899  10.561  0.3294  0.0945  0.0900
  976HK4    H1181971   0.643   4.829  10.566  0.7478 -0.5643 -1.6677
  976HK4    C2381972   0.829   4.895  10.655 -0.1336  0.0907  0.5966
  976HK4    H1081973   0.853   4.802  10.706  0.8241  0.2671  0.4817
  976HK4    C3981974   1.068   4.939  10.870  0.1952  0.0991 -0.2166
  976HK4    C4181975   1.203   4.930  10.910  0.1402 -0.3369 -0.1147
  976HK4    H2181976   1.276   4.995  10.858 -0.8172  0.9671  0.1291
  976HK4    C4281977   1.253   4.830  10.992  0.5335 -0.0225  0.0324
  976HK4    H2281978   1.348   4.826  11.047  0.0934 -0.2204  0.7916
  976HK4    C4381979   1.164   4.738  11.045  0.1584  0.4541  0.2279
  976HK4    H2381980   1.204   4.662  11.113  1.3875  1.2953  0.4646
  976HK4    C4481981   1.027   4.753  11.026  0.0678 -0.3869  0.1952
  976HK4    H2481982   0.959   4.706  11.099 -1.1425 -0.4343 -0.9382
  976HK4    C4581983   0.983   4.848  10.935  0.6199  0.3025  0.6365
  976HK4    H2581984   0.875   4.872  10.931  1.2453  3.3031  0.8465
  977HK4    H2881985   0.016  10.602   4.339  4.6547  3.0214  1.8229
  977HK4    C4881986   0.033  10.632   4.236  0.1496  0.2721  0.1291
  977HK4    C4781987   0.120  10.558   4.158  0.0381  0.5636 -0.2764
  977HK4    H2781988   0.182  10.476   4.196  0.1826  0.8413  0.0804
  977HK4    C4681989   0.152  10.610   4.033  0.0325  0.0882 -0.4769
  977HK4    H2681990   0.200  10.538   3.964  1.5034  2.9020 -2.4878
  977HK4    C4081991   0.114  10.738   3.987 -0.8948 -0.1338 -0.3429
  977HK4    C5081992   0.034  10.812   4.076  0.3789  0.0629  0.6546
  977HK4    H3081993   0.013  10.914   4.042 -0.9079 -0.7141 -0.9747
  977HK4    C4981994  11.237  10.758   4.197 -0.4164  0.1610  0.4025
  977HK4    H2981995  11.162  10.807   4.260  1.2846  1.8976  1.1219
  977HK4     N281996   0.144  10.783   3.858 -0.6729  0.6596 -0.0140
  977HK4    C3081997   0.171  10.916   3.818 -0.1781  0.5309 -0.1135
  977HK4    C2981998   0.258  11.006   3.876 -0.1802  0.3879  0.1112
  977HK4    H1581999   0.329  10.972   3.951  0.8817  0.0942 -1.0105
  977HK4    C2882000   0.279  11.130   3.817 -0.3880  0.2732 -0.2004
  977HK4    C2782001   0.217  11.162   3.695 -0.1581  0.9736 -0.1384
  977HK4    H1482002   0.224   0.018   3.658 -2.3310  0.0139 -3.4534
  977HK4    C3282003   0.137  11.071   3.627  0.6510  0.1379  0.0342
  977HK4    H1682004   0.065  11.107   3.554  0.3597 -0.5930 -0.0398
  977HK4    C3182005   0.118  10.947   3.686 -0.0644  0.1022 -0.2610
  977HK4    C3482006   0.071  10.819   3.637 -0.2644 -0.0394  0.2969
  977HK4    C3382007   0.099  10.721   3.740  0.7415 -0.1846 -0.1079
  977HK4    C3582008   0.084  10.587   3.706  0.6121 -0.0495 -0.5804
  977HK4    H1782009   0.096  10.509   3.781 -1.9481  0.8470  0.8327
  977HK4    C3682010   0.045  10.550   3.577 -0.4544  0.1830 -0.3332
  977HK4    H1882011   0.019  10.445   3.563  0.9131 -0.5719  2.4170
  977HK4    C3782012   0.015  10.648   3.483  0.8360  0.2382 -0.7008
  977HK4    H1982013  11.233  10.604   3.388  0.9127  0.8690 -1.0201
  977HK4    C3882014   0.029  10.784   3.509 -0.2722  0.1783  0.2399
  977HK4    H2082015   0.028  10.859   3.431  1.1135  0.4924  0.5197
  977HK4    C1482016   0.319  11.236   3.912  0.6111 -0.0733 -0.2242
  977HK4     C982017   0.248   0.108   3.915 -0.0069 -0.4600  1.0235
  977HK4     C882018   0.315   0.232   3.918 -0.7715 -0.0415  0.8591
  977HK4    C1182019   0.452   0.234   3.942 -0.4295 -0.3627 -0.9604
  977HK4     H482020   0.504   0.331   3.934 -0.1470 -0.3933  0.4308
  977HK4    C1282021   0.521   0.117   3.970  0.3598  0.1308 -0.8402
  977HK4     H582022   0.630   0.122   3.982  0.5392 -3.8346 -0.1233
  977HK4    C1382023   0.453  11.245   3.956  0.5206 -0.0704  0.0522
  977HK4     H682024   0.510  11.152   3.959 -1.1426 -1.1931 -1.6135
  977HK4     C782025   0.237   0.358   3.907 -0.4017  0.0681 -0.6898
  977HK4     O282026   0.292   0.457   3.859  0.3695 -0.0194 -0.0033
  977HK4     C482027   0.089   0.358   3.913 -0.3871 -0.1770 -0.2805
  977HK4     C382028   0.019   0.478   3.904  0.1904  0.1421 -0.6190
  977HK4     H382029   0.072   0.570   3.876  0.0545  0.1804 -0.7485
  977HK4     C282030  11.128   0.470   3.903  0.2098 -0.1925 -0.6487
  977HK4     H282031  11.070   0.562   3.920  0.2892 -0.3583  0.6131
  977HK4     C182032  11.062   0.348   3.894 -0.6570  0.2462 -0.3525
  977HK4     H182033  10.952   0.345   3.888 -0.6339  1.3535 -1.9509
  977HK4     C682034  11.133   0.226   3.895 -0.2189  0.4990 -0.7455
  977HK4     C582035   0.024   0.233   3.908 -0.2298 -0.2627 -0.1917
  977HK4    C1082036   0.100   0.108   3.936 -0.1584 -0.1866 -0.0445
  977HK4     O182037   0.068   0.035   4.029 -0.5269 -0.0870 -0.0952
  977HK4    C1682038  11.053   0.107   3.863  0.2954 -0.1112  0.2338
  977HK4    C1582039  11.111   0.004   3.787 -0.1159 -0.0232 -0.2018
  977HK4     H782040  11.194   0.030   3.719  0.0558  2.7837  1.0268
  977HK4    C2082041  11.064  11.122   3.802  0.0396  0.0003  0.5066
  977HK4     H982042  11.111  11.033   3.760 -0.8732 -0.8361  1.2509
  977HK4    C1982043  10.955  11.096   3.884  0.2014 -0.3319  0.6146
  977HK4    C1882044  10.889  11.202   3.958  0.3885 -0.1486  0.5172
  977HK4    C1782045  10.939   0.082   3.938  0.3337 -0.1632  0.2775
  977HK4     H882046  10.883   0.166   3.981  1.9007  0.8571  0.3689
  977HK4     N182047  10.799  11.148   4.052 -0.0018  0.4120  0.4686
  977HK4    C2182048  10.822  11.009   4.053  0.2901  0.4602  0.5069
  977HK4    C2282049  10.904  10.972   3.939 -1.1512 -0.1978 -0.3276
  977HK4    C2682050  10.932  10.837   3.926  0.2006  0.0954 -0.5652
  977HK4    H1382051  10.939  10.802   3.823 -3.0537 -0.4390 -0.6833
  977HK4    C2582052  10.881  10.752   4.024  0.0362  0.3133 -0.4657
  977HK4    H1282053  10.892  10.646   4.005  1.3588  0.5248 -0.9210
  977HK4    C2482054  10.810  10.784   4.139 -0.3671 -0.0498 -0.6090
  977HK4    H1182055  10.789  10.708   4.215 -0.1718 -1.3892 -1.8824
  977HK4    C2382056  10.777  10.919   4.148  0.0262  0.0114 -0.0388
  977HK4    H1082057  10.718  10.963   4.228 -0.5814  3.0143 -2.0652
  977HK4    C3982058  10.669  11.191   4.084 -0.2589  0.0089 -0.0210
  977HK4    C4182059  10.592   0.019   3.994 -0.4121 -0.0503  0.0604
  977HK4    H2182060  10.630   0.031   3.891  0.5843  0.8300  0.5282
  977HK4    C4282061  10.468   0.075   4.024 -0.6516 -0.2323 -0.5818
  977HK4    H2282062  10.418   0.128   3.941 -0.3511  2.6561  1.0428
  977HK4    C4382063  10.410   0.043   4.146  0.2488  0.1489 -0.0547
  977HK4    H2382064  10.307   0.058   4.177  0.1948 -1.4487  0.5913
  977HK4    C4482065  10.484  11.223   4.242  0.5469  0.6910  0.1034
  977HK4    H2482066  10.448  11.208   4.345  2.1973 -3.0583  0.2196
  977HK4    C4582067  10.612  11.177   4.212  0.0801 -0.5967  0.0681
  977HK4    H2582068  10.675  11.164   4.301 -1.5712 -0.9645  1.2062
  978HK4    H2882069   2.080   2.160  10.037 -0.8977  0.7425  1.8468
  978HK4    C4882070   2.159   2.233  10.051  0.6152 -0.3548 -0.7019
  978HK4    C4782071   2.281   2.186  10.099  0.2154 -0.2405  0.4532
  978HK4    H2782072   2.292   2.083  10.136 -0.5800  0.6024  3.1387
  978HK4    C4682073   2.397   2.259  10.078  0.2110 -0.3890 -0.1007
  978HK4    H2682074   2.496   2.213  10.096 -0.3454 -1.6988 -0.3209
  978HK4    C4082075   2.392   2.384  10.013 -0.3559 -0.1734  0.3550
  978HK4    C5082076   2.269   2.424   9.957  0.0599 -0.3195 -0.6794
  978HK4    H3082077   2.265   2.518   9.900 -0.9666  0.1307  0.1117
  978HK4    C4982078   2.152   2.352   9.980  0.0359 -0.1741 -0.3459
  978HK4    H2982079   2.057   2.399   9.951  0.5975  2.2266  1.4293
  978HK4     N282080   2.499   2.473  10.029 -0.4582 -0.0261  0.2136
  978HK4    C3082081   2.578   2.473  10.145  0.2406 -0.5238 -0.2616
  978HK4    C2982082   2.537   2.468  10.278  0.6695  0.2638 -0.0954
  978HK4    H1582083   2.430   2.462  10.299  0.9532 -2.0033  0.7840
  978HK4    C2882084   2.625   2.493  10.382  0.3452  0.2296  0.1890
  978HK4    C2782085   2.756   2.536  10.352 -0.1051  1.2088 -0.3944
  978HK4    H1482086   2.821   2.570  10.434 -0.8244 -0.6861  1.0065
  978HK4    C3282087   2.797   2.552  10.220  0.3191  0.8149 -0.3144
  978HK4    H1682088   2.901   2.571  10.194  0.0775 -0.5222 -2.3588
  978HK4    C3182089   2.711   2.522  10.115  0.1278 -0.0041  0.0760
  978HK4    C3482090   2.708   2.554   9.974 -0.3709 -0.5665 -0.0471
  978HK4    C3382091   2.575   2.527   9.924 -0.8121  0.7950  0.3769
  978HK4    C3582092   2.542   2.554   9.791 -0.4310  1.3962  0.3978
  978HK4    H1782093   2.440   2.534   9.760  0.6272 -0.7924 -1.8150
  978HK4    C3682094   2.633   2.601   9.698 -0.2396  0.5587  0.1614
  978HK4    H1882095   2.611   2.594   9.590  2.4181  0.4542 -0.4202
  978HK4    C3782096   2.761   2.626   9.748 -0.0399  0.0024 -0.0709
  978HK4    H1982097   2.836   2.648   9.672 -0.3560  0.7514 -0.1648
  978HK4    C3882098   2.797   2.608   9.881 -0.2208 -0.9699 -0.1390
  978HK4    H2082099   2.884   2.665   9.915 -1.0300  0.8475 -1.0504
  978HK4    C1482100   2.559   2.519  10.510 -0.3943  0.2961 -0.2030
  978HK4     C982101   2.577   2.624  10.602  0.4611  0.0647 -0.1078
  978HK4     C882102   2.502   2.631  10.721  0.6719 -0.4105  0.0562
  978HK4    C1182103   2.424   2.519  10.747 -0.2564  0.2056 -0.0596
  978HK4     H482104   2.361   2.524  10.837  0.2150 -1.6094  0.3806
  978HK4    C1282105   2.417   2.402  10.673  0.4439  0.2514 -0.2049
  978HK4     H582106   2.380   2.309  10.719  2.8524 -1.1591 -1.0587
  978HK4    C1382107   2.484   2.407  10.552 -0.0371 -0.0477 -0.4867
  978HK4     H682108   2.446   2.336  10.477  0.8811  0.2098 -1.2133
  978HK4     C782109   2.524   2.732  10.828  0.1757 -0.5169  0.2600
  978HK4     O282110   2.433   2.762  10.904  0.3876 -0.3800  0.4595
  978HK4     C482111   2.647   2.815  10.825  0.0541 -0.3388  0.1788
  978HK4     C382112   2.682   2.883  10.941  0.3950 -0.1350 -0.0462
  978HK4     H382113   2.604   2.904  11.015  2.4728 -0.5302  2.3388
  978HK4     C282114   2.808   2.940  10.951  0.1247  0.4080  0.2300
  978HK4     H282115   2.852   2.979  11.045 -0.8716 -2.6046  2.0330
  978HK4     C182116   2.891   2.927  10.841 -0.3219  0.2750 -0.0905
  978HK4     H182117   2.977   2.995  10.847 -0.9368  1.1232 -0.7295
  978HK4     C682118   2.858   2.857  10.723 -0.2834  0.4638 -0.2134
  978HK4     C582119   2.731   2.798  10.713 -0.1503  0.1534 -0.0556
  978HK4    C1082120   2.683   2.728  10.591  0.3753  0.1364 -0.2539
  978HK4     O182121   2.674   2.800  10.491 -0.5099  0.0427 -0.2469
  978HK4    C1682122   2.973   2.831  10.635 -0.1758 -0.6124  0.2396
  978HK4    C1582123   3.094   2.792  10.694  0.3519 -0.2291 -0.5782
  978HK4     H782124   3.085   2.766  10.801 -1.5620 -0.3992 -0.7716
  978HK4    C2082125   3.220   2.814  10.638  0.4727  0.4254 -0.0612
  978HK4     H982126   3.310   2.776  10.686 -0.9967 -0.1466  2.3464
  978HK4    C1982127   3.227   2.887  10.520  0.1855  0.3699 -0.1127
  978HK4    C1882128   3.105   2.929  10.454  0.2891  0.7298 -0.0721
  978HK4    C1782129   2.983   2.900  10.514  0.8265 -0.0403  0.6460
  978HK4     H882130   2.896   2.953  10.478  0.2666 -2.5067 -1.7761
  978HK4     N182131   3.128   2.963  10.319  0.1319 -0.4123 -0.3991
  978HK4    C2182132   3.267   2.952  10.298  0.1452 -0.5408 -0.2427
  978HK4    C2282133   3.329   2.901  10.418  0.1802 -0.4980 -0.2416
  978HK4    C2682134   3.467   2.906  10.440  0.0855  0.1589  0.2167
  978HK4    H1382135   3.512   2.876  10.534 -1.1478  1.1824  1.1464
  978HK4    C2582136   3.552   2.961  10.345 -0.3338  0.0253 -0.2400
  978HK4    H1282137   3.655   2.928  10.340 -0.6928 -1.1498 -0.0943
  978HK4    C2482138   3.492   3.009  10.229 -0.0104  0.7491 -0.1113
  978HK4    H1182139   3.543   3.078  10.160  0.3428  0.2861 -0.3150
  978HK4    C2382140   3.355   3.004  10.204  0.1004 -0.8689 -0.4691
  978HK4    H1082141   3.311   3.044  10.112 -1.5847 -2.4419 -0.3696
  978HK4    C3982142   3.038   2.967  10.212 -0.2094  0.5216 -0.0874
  978HK4    C4182143   3.065   3.050  10.102  0.4949  0.0699 -0.2567
  978HK4    H2182144   3.102   3.149  10.130 -2.3979  1.6242 -1.6901
  978HK4    C4282145   2.988   3.040   9.986  0.2525 -0.2550 -0.0675
  978HK4    H2282146   2.996   3.117   9.908  0.1677 -0.2157 -0.0379
  978HK4    C4382147   2.886   2.947   9.969  0.0768 -0.1139  0.2017
  978HK4    H2382148   2.839   2.939   9.871  0.0317  2.1744 -0.0020
  978HK4    C4482149   2.853   2.867  10.077  0.2719 -0.2142  0.1852
  978HK4    H2482150   2.765   2.801  10.063 -1.2686  1.8326 -0.0022
  978HK4    C4582151   2.930   2.878  10.192  0.2177 -0.0711  0.2089
  978HK4    H2582152   2.924   2.793  10.261 -2.5109  0.8250  1.1315
  979HK4    H2882153   0.460  11.054   2.215 -1.9555 -0.1958 -0.5667
  979HK4    C4882154   0.429  11.152   2.252 -0.2645  0.0127  0.3712
  979HK4    C4782155   0.522   0.005   2.274  0.2842 -0.6392  1.0542
  979HK4    H2782156   0.624  11.240   2.234 -1.0159 -1.3889 -2.1306
  979HK4    C4682157   0.475   0.122   2.333  0.0450  0.0144 -0.4021
  979HK4    H2682158   0.556   0.192   2.358  1.5938 -2.1996  1.0463
  979HK4    C4082159   0.340   0.145   2.364  0.1184 -0.1106  0.0130
  979HK4    C5082160   0.248   0.042   2.339 -0.1756  0.1218  0.1327
  979HK4    H3082161   0.142   0.069   2.329  0.2556  0.7023 -3.4303
  979HK4    C4982162   0.296  11.170   2.289 -0.3855  0.1502 -0.1327
  979HK4    H2982163   0.221  11.089   2.290 -2.8323  2.3889  1.2425
  979HK4     N282164   0.293   0.274   2.394  0.9097 -0.0302  0.9455
  979HK4    C3082165   0.333   0.399   2.341 -0.1528 -0.2395 -0.3834
  979HK4    C2982166   0.402   0.415   2.222  0.5481 -0.4767 -0.0111
  979HK4    H1582167   0.406   0.333   2.151 -1.7815 -2.4306  2.0220
  979HK4    C2882168   0.432   0.546   2.185  0.2000 -0.2276  0.5828
  979HK4    C2782169   0.397   0.653   2.271  0.0034  0.1064  0.0876
  979HK4    H1482170   0.427   0.755   2.244 -0.0749 -0.7529 -3.5833
  979HK4    C3282171   0.325   0.633   2.388  0.3042 -0.1866  0.2261
  979HK4    H1682172   0.306   0.716   2.456 -1.8392 -1.9808  1.8756
  979HK4    C3182173   0.293   0.505   2.431 -0.2998 -0.2612 -0.4239
  979HK4    C3482174   0.213   0.441   2.534  0.2048  0.1580  0.2361
  979HK4    C3382175   0.207   0.299   2.502  0.2836  0.1140  0.4187
  979HK4    C3582176   0.106   0.219   2.554  0.2656  0.0470  0.2809
  979HK4    H1782177   0.087   0.115   2.527 -1.1886  0.6161 -0.9001
  979HK4    C3682178   0.011   0.283   2.632 -0.2738 -0.3907 -0.0159
  979HK4    H1882179  11.165   0.231   2.655 -0.5212  0.3176  0.6156
  979HK4    C3782180   0.011   0.420   2.659  0.5776 -0.4488  0.3021
  979HK4    H1982181  11.171   0.466   2.704 -0.1294  0.0787 -1.5365
  979HK4    C3882182   0.116   0.499   2.615 -0.1549  0.2310 -0.2454
  979HK4    H2082183   0.147   0.592   2.663 -0.5446  0.6595 -0.8166
  979HK4    C1482184   0.542   0.565   2.089 -0.1227  0.3519  0.3249
  979HK4     C982185   0.629   0.674   2.093 -0.2146  0.4125  0.7690
  979HK4     C882186   0.668   0.737   1.972 -0.0303 -0.6105  0.2891
  979HK4    C1182187   0.631   0.685   1.848 -0.1302  0.2608 -0.0465
  979HK4     H482188   0.660   0.733   1.754 -3.9747  0.7822 -1.0349
  979HK4    C1282189   0.563   0.565   1.843 -0.2494  0.3396 -0.2962
  979HK4     H582190   0.561   0.511   1.747  1.5811 -1.3003  0.5570
  979HK4    C1382191   0.516   0.510   1.962  0.5398  0.5347  0.1079
  979HK4     H682192   0.430   0.441   1.961  1.4984 -0.7027  1.3156
  979HK4     C782193   0.757   0.855   1.975 -0.3441 -0.3688  0.1524
  979HK4     O282194   0.799   0.893   1.866 -0.5566 -0.3841  0.0657
  979HK4     C482195   0.809   0.908   2.103  0.8715 -0.3432 -0.3426
  979HK4     C382196   0.904   1.009   2.115  0.4376 -0.0124  0.3331
  979HK4     H382197   0.958   1.049   2.028  1.2099 -2.9240 -0.5784
  979HK4     C282198   0.968   1.044   2.233  0.2518  0.2871  0.3475
  979HK4     H282199   1.063   1.100   2.230  0.2798  0.2260  0.0929
  979HK4     C182200   0.922   0.983   2.350  0.1580 -0.3108 -0.0032
  979HK4     H182201   0.989   0.990   2.437  0.0463  0.7247  0.0008
  979HK4     C682202   0.805   0.905   2.349 -0.1445  0.1454 -0.0400
  979HK4     C582203   0.765   0.853   2.225  0.5351  0.1244 -0.2506
  979HK4    C1082204   0.697   0.720   2.217  0.1919  0.2440  0.6098
  979HK4     O182205   0.729   0.636   2.300  0.2100  0.3009  0.6609
  979HK4    C1682206   0.714   0.923   2.463 -0.1121  0.6658 -0.0936
  979HK4    C1582207   0.734   1.032   2.549  0.1336  0.2273  0.4097
  979HK4     H782208   0.768   1.127   2.503 -1.3733  0.5134 -0.1328
  979HK4    C2082209   0.694   1.036   2.682 -0.1626  0.3451  0.3171
  979HK4     H982210   0.699   1.134   2.729 -0.8313  0.8259 -0.5843
  979HK4    C1982211   0.629   0.925   2.736 -0.2983  0.2547 -0.0308
  979HK4    C1882212   0.604   0.810   2.651  0.4547  0.2605 -0.2710
  979HK4    C1782213   0.640   0.818   2.518  0.4964  0.1445 -0.2668
  979HK4     H882214   0.594   0.746   2.451  0.9308 -0.8012  0.4452
  979HK4     N182215   0.540   0.709   2.726 -0.2039  0.4422 -0.5871
  979HK4    C2182216   0.517   0.765   2.853  0.9089 -0.1747 -0.1129
  979HK4    C2282217   0.571   0.899   2.866 -0.3712  0.3364 -0.0467
  979HK4    C2682218   0.552   0.977   2.979  0.3830  0.3202  0.0887
  979HK4    H1382219   0.615   1.066   2.990 -1.0634  1.4561 -0.7234
  979HK4    C2582220   0.469   0.924   3.076  0.3882 -0.3572 -0.2770
  979HK4    H1282221   0.455   0.981   3.167  2.4604  1.2074 -0.9180
  979HK4    C2482222   0.417   0.795   3.071  0.2595 -0.2867 -0.8026
  979HK4    H1182223   0.383   0.741   3.161  0.5132  0.4816 -0.2405
  979HK4    C2382224   0.438   0.718   2.957  0.3801 -0.4793 -0.6499
  979HK4    H1082225   0.393   0.619   2.956  0.0152 -0.3046 -1.9201
  979HK4    C3982226   0.541   0.571   2.698 -0.0145  0.5045 -0.8875
  979HK4    C4182227   0.455   0.480   2.763  0.1773  0.3201 -0.8939
  979HK4    H2182228   0.361   0.517   2.806 -0.7499 -2.0979 -0.7961
  979HK4    C4282229   0.465   0.342   2.746 -0.2935  0.0923  0.5968
  979HK4    H2282230   0.416   0.265   2.807  0.5932  0.6001  1.9771
  979HK4    C4382231   0.551   0.296   2.647  0.9063  0.3033  1.5236
  979HK4    H2382232   0.563   0.188   2.638  0.2220  0.3182  0.2515
  979HK4    C4482233   0.623   0.382   2.565 -0.4516 -0.3067 -0.3534
  979HK4    H2482234   0.694   0.344   2.491  0.5635 -0.4131  0.6664
  979HK4    C4582235   0.625   0.517   2.599  0.4634 -0.4079  0.0077
  979HK4    H2582236   0.717   0.575   2.581  0.4641  0.2897  2.0948
  980HK4    H2882237  10.966   5.929   0.435 -1.2421 -0.2100 -0.0450
  980HK4    C4882238  10.948   6.012   0.368 -0.0776  0.2791  0.2219
  980HK4    C4782239  11.027   6.034   0.256 -0.9898  0.2368 -0.4409
  980HK4    H2782240  11.097   5.955   0.226  0.1163  0.4875  1.3771
  980HK4    C4682241  11.020   6.157   0.191 -0.6938  0.0138 -0.8964
  980HK4    H2682242  11.077   6.172   0.098 -1.3359  1.2816 -1.1080
  980HK4    C4082243  10.937   6.262   0.236 -0.0585  0.0037  0.3132
  980HK4    C5082244  10.856   6.239   0.348 -0.6502 -0.5459 -0.2242
  980HK4    H3082245  10.788   6.316   0.390  0.6757  0.5482 -0.0669
  980HK4    C4982246  10.870   6.118   0.414 -0.7616 -0.2656  0.3230
  980HK4    H2982247  10.805   6.095   0.500 -1.7506 -1.4077 -0.7118
  980HK4     N282248  10.963   6.396   0.203 -0.1655 -0.0207  0.1252
  980HK4    C3082249  11.085   6.444   0.152 -0.2065 -0.2500 -0.1900
  980HK4    C2982250  11.212   6.387   0.152 -0.0834  0.0316  0.4883
  980HK4    H1582251  11.228   6.299   0.214 -0.8468 -0.2962  0.2258
  980HK4    C2882252   0.070   6.433   0.074  0.0402  0.1578  0.7287
  980HK4    C2782253   0.050   6.554   0.004  0.1109 -0.1424  0.1933
  980HK4    H1482254   0.132   6.590  11.189  0.3089  0.7789  0.9684
  980HK4    C3282255  11.177   6.623   0.009 -0.1644 -0.5902 -0.1973
  980HK4    H1682256  11.188   6.729  11.238  1.2897 -0.6464  0.2261
  980HK4    C3182257  11.068   6.563   0.070 -0.2816 -0.0371  0.1367
  980HK4    C3482258  10.926   6.589   0.066 -0.1599  0.7264  0.7212
  980HK4    C3382259  10.868   6.478   0.138  0.0983 -0.1770 -0.4541
  980HK4    C3582260  10.729   6.467   0.142  0.0895  0.1922  0.6833
  980HK4    H1782261  10.685   6.374   0.177 -0.3727  0.5828  1.1409
  980HK4    C3682262  10.651   6.569   0.088 -0.2810 -0.3327  0.2279
  980HK4    H1882263  10.544   6.546   0.074 -1.1055  2.9529  0.7992
  980HK4    C3782264  10.707   6.673   0.016 -0.2517 -0.6207 -0.1701
  980HK4    H1982265  10.647   6.757  11.229 -0.7430 -1.5213 -1.5411
  980HK4    C3882266  10.845   6.686   0.006 -0.3124 -0.0378 -0.3047
  980HK4    H2082267  10.889   6.772  11.204 -0.4817  0.0392 -0.3225
  980HK4    C1482268   0.201   6.368   0.086 -0.1492 -0.3069  0.2624
  980HK4     C982269   0.325   6.433   0.075 -0.1745 -0.1888  0.6955
  980HK4     C882270   0.433   6.369   0.012 -0.5890  0.0482 -0.2589
  980HK4    C1182271   0.426   6.234  11.230 -0.0507 -0.0969  0.2573
  980HK4     H482272   0.496   6.189  11.157  1.6606  2.0994  0.5025
  980HK4    C1282273   0.311   6.163   0.014  0.1803 -0.7449 -0.3376
  980HK4     H582274   0.308   6.058  11.227 -0.3207  0.0415 -2.7813
  980HK4    C1382275   0.200   6.228   0.065  0.4627 -0.2180 -0.3920
  980HK4     H682276   0.114   6.167   0.098 -1.1125  1.7114 -0.7918
  980HK4     C782277   0.552   6.446  11.215 -0.3156  0.0618  0.4882
  980HK4     O282278   0.662   6.395  11.195 -0.4465 -0.0157 -0.0347
  980HK4     C482279   0.552   6.593  11.229  0.3499  0.0565  0.5697
  980HK4     C382280   0.638   6.668  11.149 -0.2991  0.2313  0.0216
  980HK4     H382281   0.685   6.610  11.069 -0.1192 -1.9655  1.6806
  980HK4     C282282   0.640   6.807  11.139  0.0074  0.1955 -0.3850
  980HK4     H282283   0.710   6.864  11.075  0.9125  1.5330  1.7307
  980HK4     C182284   0.534   6.865  11.207  0.3706  0.2178  0.1633
  980HK4     H182285   0.534   6.975  11.205 -1.5625  0.2380 -4.3521
  980HK4     C682286   0.435   6.797   0.032  0.3755  0.3042  0.2496
  980HK4     C582287   0.452   6.660   0.054 -0.0197  0.2057 -0.0610
  980HK4    C1082288   0.347   6.574   0.117 -0.2621  0.1804 -0.5024
  980HK4     O182289   0.304   6.597   0.230  0.3949 -0.3079 -0.1552
  980HK4    C1682290   0.304   6.863   0.029  0.0410 -0.3568  0.2387
  980HK4    C1582291   0.268   6.946  11.169 -0.0099 -0.1657  0.4038
  980HK4     H782292   0.313   6.922  11.072  1.5623 -0.7281  1.2547
  980HK4    C2082293   0.163   7.037  11.163  0.2477  0.0987 -0.0685
  980HK4     H982294   0.158   7.106  11.079  1.3072  2.3525  1.6469
  980HK4    C1982295   0.081   7.045   0.027  0.4915  0.5692  0.0793
  980HK4    C1882296   0.112   6.962   0.142  0.2875  0.2689 -0.0811
  980HK4    C1782297   0.220   6.875   0.140  0.2158  0.1700  0.3141
  980HK4     H882298   0.247   6.818   0.229  2.4919 -0.9284 -1.0323
  980HK4     N182299   0.011   6.981   0.238  0.3896 -0.1133  0.1003
  980HK4    C2182300  11.164   7.073   0.189  0.1589 -0.4962 -0.1642
  980HK4    C2282301  11.210   7.121   0.061 -0.2077 -0.3696 -0.2490
  980HK4    C2682302  11.156   7.233  11.247  0.3694  0.0509  0.0061
  980HK4    H1382303  11.173   7.245  11.140 -0.0845 -0.3227 -0.1095
  980HK4    C2582304  11.057   7.302   0.067  0.0175 -0.5713  0.1322
  980HK4    H1282305  11.006   7.390   0.027  0.2517  0.5569  2.2509
  980HK4    C2482306  11.007   7.251   0.186 -0.5348 -0.5188 -0.0771
  980HK4    H1182307  10.925   7.300   0.241 -0.8702 -2.3699  1.1248
  980HK4    C2382308  11.055   7.137   0.248  0.6016  0.0449  0.0746
  980HK4    H1082309  11.000   7.091   0.330  0.8179  0.1634  0.2851
  980HK4    C3982310  11.225   6.897   0.346 -0.0599 -0.1612 -0.0752
  980HK4    C4182311  11.169   6.950   0.464 -0.3035  0.4844 -0.4756
  980HK4    H2182312  11.194   7.054   0.489 -0.1215  0.1010  0.9674
  980HK4    C4282313  11.092   6.874   0.551  0.5638  0.2029  0.0439
  980HK4    H2282314  11.059   6.917   0.646  0.2996  1.5360 -0.6494
  980HK4    C4382315  11.078   6.740   0.517  0.2752  0.2686 -0.0977
  980HK4    H2382316  11.013   6.676   0.577  2.4945 -1.0636  0.9543
  980HK4    C4482317  11.143   6.678   0.410 -0.1472 -0.1516 -0.1113
  980HK4    H2482318  11.129   6.572   0.387 -0.1811 -0.0928 -0.3678
  980HK4    C4582319  11.219   6.758   0.325 -0.1593 -0.1507 -0.1206
  980HK4    H2582320   0.051   6.712   0.265 -1.2026 -0.9707 -0.9027
  981HK4    H2882321   8.014   1.932   6.453  1.3438  0.9167  0.5792
  981HK4    C4882322   8.056   1.832   6.441 -0.7247  0.1695 -0.6836
  981HK4    C4782323   7.998   1.720   6.500  0.2434  0.2881  0.5147
  981HK4    H2782324   7.905   1.722   6.557 -0.5679 -1.9976 -0.6639
  981HK4    C4682325   8.044   1.590   6.482 -1.0920 -0.0921 -0.2552
  981HK4    H2682326   7.979   1.508   6.513 -0.6588 -0.2274  0.3076
  981HK4    C4082327   8.149   1.559   6.393 -0.0535  0.4148  0.7648
  981HK4    C5082328   8.200   1.676   6.332 -0.0955 -0.0714 -0.2163
  981HK4    H3082329   8.285   1.652   6.266 -0.0027  0.6335 -0.3475
  981HK4    C4982330   8.161   1.808   6.353 -0.3265 -0.1550 -0.1167
  981HK4    H2982331   8.215   1.889   6.302 -0.1060 -0.1434  0.1348
  981HK4     N282332   8.231   1.446   6.398 -0.2050  0.2669  0.0812
  981HK4    C3082333   8.259   1.362   6.508 -0.1658  0.4293  0.1956
  981HK4    C2982334   8.216   1.366   6.640 -0.5916 -0.1962  0.0807
  981HK4    H1582335   8.124   1.419   6.663  1.5452  2.6764  2.4539
  981HK4    C2882336   8.273   1.301   6.749  0.2802  0.2986 -0.0705
  981HK4    C2782337   8.380   1.217   6.710  0.4229  0.5822 -0.2870
  981HK4    H1482338   8.442   1.159   6.780 -1.3527 -1.2452 -0.1694
  981HK4    C3282339   8.420   1.196   6.579  0.3499  0.5634 -0.3076
  981HK4    H1682340   8.459   1.097   6.552  3.7733  1.5395  0.7687
  981HK4    C3182341   8.363   1.266   6.474 -0.7900 -0.1308 -0.1636
  981HK4    C3482342   8.398   1.285   6.334 -0.1890  0.0352  0.0077
  981HK4    C3382343   8.305   1.389   6.293 -0.4347 -0.1341  0.1358
  981HK4    C3582344   8.295   1.410   6.156  0.0246  0.0581  0.1299
  981HK4    H1782345   8.207   1.460   6.115 -0.4892 -0.8859  0.0783
  981HK4    C3682346   8.383   1.351   6.066  0.0759 -0.1177  0.2944
  981HK4    H1882347   8.389   1.359   5.957  2.8264 -0.8833  0.3427
  981HK4    C3782348   8.484   1.268   6.114 -0.0471 -0.2606  0.3019
  981HK4    H1982349   8.545   1.221   6.036 -0.9142 -0.1582 -0.4550
  981HK4    C3882350   8.483   1.222   6.245  0.5171  0.2830  0.4975
  981HK4    H2082351   8.525   1.129   6.284  1.2201  0.2871 -0.2176
  981HK4    C1482352   8.266   1.351   6.887  0.1317 -0.0247  0.0402
  981HK4     C982353   8.372   1.355   6.978  0.2673 -0.4647 -0.1019
  981HK4     C882354   8.347   1.340   7.116 -0.2224 -0.0343 -0.1416
  981HK4    C1182355   8.216   1.332   7.160 -0.2108 -1.1720 -0.2838
  981HK4     H482356   8.192   1.341   7.267 -2.5128 -0.1316 -0.8422
  981HK4    C1282357   8.108   1.343   7.073 -0.1830  0.1351 -0.1708
  981HK4     H582358   8.006   1.352   7.113 -0.6921 -1.1471 -1.1226
  981HK4    C1382359   8.134   1.356   6.937  0.1045  0.5356 -0.0785
  981HK4     H682360   8.049   1.379   6.871 -1.9751 -2.1126  1.5498
  981HK4     C782361   8.455   1.332   7.217 -0.4249 -0.3329  0.0516
  981HK4     O282362   8.439   1.376   7.330 -0.3065 -0.4552  0.1174
  981HK4     C482363   8.591   1.310   7.163 -0.4999 -0.8806  0.0804
  981HK4     C382364   8.695   1.288   7.253 -0.1345  0.0413 -0.1073
  981HK4     H382365   8.669   1.276   7.359  2.4148  1.3030  0.6864
  981HK4     C282366   8.826   1.272   7.210 -0.3285 -0.4149 -0.5439
  981HK4     H282367   8.912   1.237   7.270 -0.4149  0.4658  0.1032
  981HK4     C182368   8.845   1.273   7.073  0.2582 -0.9199 -0.4683
  981HK4     H182369   8.951   1.283   7.043  0.7055 -0.7423  1.1117
  981HK4     C682370   8.745   1.292   6.976 -0.0835  0.2961  0.1204
  981HK4     C582371   8.618   1.325   7.025 -0.1340 -0.0746  0.2319
  981HK4    C1082372   8.512   1.371   6.931  0.2143  0.1842 -0.0326
  981HK4     O182373   8.537   1.475   6.870  0.0953 -0.1322 -0.6246
  981HK4    C1682374   8.768   1.220   6.850  0.0599 -0.0141  0.3270
  981HK4    C1582375   8.836   1.096   6.850 -0.3208 -0.2234 -0.0709
  981HK4     H782376   8.855   1.037   6.941  1.7336  1.0127  0.3198
  981HK4    C2082377   8.871   1.036   6.730  0.8375 -0.0382  0.1760
  981HK4     H982378   8.885   0.928   6.740  1.3856  0.2340  2.6538
  981HK4    C1982379   8.845   1.106   6.613  0.6240 -0.3701  0.0240
  981HK4    C1882380   8.787   1.239   6.611  0.1090 -0.5904  0.1890
  981HK4    C1782381   8.745   1.290   6.733  0.2401 -0.3061  0.1156
  981HK4     H882382   8.729   1.398   6.743  0.6393  0.0242 -2.4470
  981HK4     N182383   8.794   1.291   6.480 -0.5674 -0.3530  0.2448
  981HK4    C2182384   8.845   1.190   6.394  0.0027  0.0347  0.1251
  981HK4    C2282385   8.883   1.077   6.476  0.2373 -0.0798 -0.1445
  981HK4    C2682386   8.908   0.956   6.411 -0.0490 -0.1873 -0.0539
  981HK4    H1382387   8.952   0.880   6.475 -0.2112  0.9540  1.4440
  981HK4    C2582388   8.889   0.939   6.274 -0.4082  0.0677 -0.0410
  981HK4    H1282389   8.944   0.857   6.228  3.6569  3.0403 -0.7875
  981HK4    C2482390   8.842   1.046   6.198 -0.1684  0.1580 -0.0633
  981HK4    H1182391   8.791   1.019   6.104 -1.7408 -0.6934  1.0012
  981HK4    C2382392   8.825   1.170   6.258 -0.2659  0.0350  0.1642
  981HK4    H1082393   8.808   1.260   6.199  1.5517  0.2788 -0.0128
  981HK4    C3982394   8.745   1.413   6.432  0.2207 -0.2306 -0.2657
  981HK4    C4182395   8.808   1.491   6.334  0.0259  0.6529  0.3060
  981HK4    H2182396   8.882   1.448   6.264 -0.3528 -0.9333  0.8706
  981HK4    C4282397   8.755   1.617   6.310 -0.3768  0.3937 -0.1717
  981HK4    H2282398   8.794   1.670   6.221  2.3340 -1.4648 -0.1480
  981HK4    C4382399   8.649   1.678   6.376 -0.0566  0.2177  0.5062
  981HK4    H2382400   8.641   1.786   6.364  0.5388 -0.1031 -3.6011
  981HK4    C4482401   8.580   1.598   6.465 -0.0163 -0.0648  0.2859
  981HK4    H2482402   8.495   1.639   6.523 -0.8844 -2.2628  0.6054
  981HK4    C4582403   8.632   1.472   6.492  0.3942  0.0051 -0.1703
  981HK4    H2582404   8.568   1.414   6.560 -1.3025  0.5277 -1.2848
  982HK4    H2882405   7.076   2.344   3.277  0.6535 -2.0432 -1.0894
  982HK4    C4882406   6.974   2.315   3.253 -0.1467 -0.0688 -0.1605
  982HK4    C4782407   6.960   2.217   3.155  0.3841 -0.6637  0.3552
  982HK4    H2782408   7.044   2.151   3.129  2.2127  1.1830  1.3489
  982HK4    C4682409   6.834   2.204   3.098  0.1618  0.1767  0.6439
  982HK4    H2682410   6.833   2.147   3.004 -1.4965  1.9242 -0.4281
  982HK4    C4082411   6.722   2.282   3.132 -0.0603  0.2985 -0.3350
  982HK4    C5082412   6.736   2.370   3.241  0.3223 -0.4332  0.2087
  982HK4    H3082413   6.646   2.429   3.264 -0.5315 -1.3592 -0.7118
  982HK4    C4982414   6.861   2.380   3.302  0.0417 -0.4500  0.7879
  982HK4    H2982415   6.886   2.460   3.373 -0.7956  0.3141  0.2265
  982HK4     N282416   6.596   2.258   3.077 -0.3398 -0.2376  0.5306
  982HK4    C3082417   6.540   2.143   3.019  0.2044 -0.0939 -0.2862
  982HK4    C2982418   6.581   2.011   3.032  0.1574 -0.0673  0.1261
  982HK4    H1582419   6.662   1.989   3.102 -0.9304 -0.9769  1.1414
  982HK4    C2882420   6.520   1.912   2.957  0.1311  0.2647 -0.2871
  982HK4    C2782421   6.409   1.944   2.876  0.3281  0.0183 -0.6555
  982HK4    H1482422   6.342   1.863   2.843  0.9224 -0.5677 -0.4452
  982HK4    C3282423   6.365   2.075   2.859 -0.0065  0.0028  0.1066
  982HK4    H1682424   6.269   2.107   2.817 -0.6228  0.6368  1.9495
  982HK4    C3182425   6.432   2.175   2.928  0.6295  0.1444 -0.7106
  982HK4    C3482426   6.412   2.318   2.942 -0.0962 -0.0294  0.1181
  982HK4    C3382427   6.512   2.364   3.037  0.0922 -0.1128 -0.0381
  982HK4    C3582428   6.529   2.502   3.038 -0.3356 -0.0585 -0.0821
  982HK4    H1782429   6.627   2.540   3.069  0.3940 -2.1658  0.2552
  982HK4    C3682430   6.450   2.587   2.961 -0.1662 -0.2124 -0.4272
  982HK4    H1882431   6.459   2.696   2.965 -1.2196 -0.1132 -0.5255
  982HK4    C3782432   6.352   2.542   2.873 -0.1125  0.0946 -0.6441
  982HK4    H1982433   6.285   2.611   2.821 -1.9552 -1.5399 -0.5033
  982HK4    C3882434   6.334   2.405   2.867 -0.2157  0.0586  0.3460
  982HK4    H2082435   6.249   2.380   2.803  0.8968  0.5064 -1.3345
  982HK4    C1482436   6.601   1.799   2.909  0.0548  0.2041 -0.2751
  982HK4     C982437   6.588   1.743   2.782  0.3112  0.0041 -0.2121
  982HK4     C882438   6.592   1.603   2.759 -0.7071 -0.1152  0.2940
  982HK4    C1182439   6.622   1.520   2.866 -0.3578 -0.5647 -0.1475
  982HK4     H482440   6.641   1.414   2.844 -0.7462 -1.1691  2.3007
  982HK4    C1282441   6.651   1.574   2.991 -0.5782  0.1157 -0.3829
  982HK4     H582442   6.653   1.504   3.077  1.0072  0.7894  0.1587
  982HK4    C1382443   6.646   1.711   3.010 -0.7238  0.0651 -0.0486
  982HK4     H682444   6.662   1.756   3.109  0.4220  0.9769 -0.6366
  982HK4     C782445   6.570   1.544   2.625 -0.8262  0.1320  0.2033
  982HK4     O282446   6.563   1.422   2.614  0.2337  0.0561  0.3275
  982HK4     C482447   6.529   1.639   2.520 -0.3987 -0.2708 -0.3328
  982HK4     C382448   6.499   1.589   2.394  0.7921 -0.1475 -0.6723
  982HK4     H382449   6.530   1.484   2.387  0.5060 -0.3185  0.5113
  982HK4     C282450   6.461   1.667   2.285 -1.3860  0.0508  0.1933
  982HK4     H282451   6.463   1.621   2.185 -5.1976  2.9943 -1.3404
  982HK4     C182452   6.446   1.803   2.306 -0.2772  0.2367 -0.1562
  982HK4     H182453   6.426   1.863   2.216 -1.0571  0.9372  0.4686
  982HK4     C682454   6.478   1.863   2.430  0.0140 -0.5351  0.1439
  982HK4     C582455   6.526   1.780   2.532  0.7894 -0.2709 -0.0035
  982HK4    C1082456   6.581   1.830   2.661 -0.0348  0.3954  0.0918
  982HK4     O182457   6.669   1.914   2.653 -0.0762  0.3734 -0.5882
  982HK4    C1682458   6.405   1.988   2.456  0.2186 -0.3436 -0.1911
  982HK4    C1582459   6.269   1.997   2.420  0.1622  0.7375  0.2665
  982HK4     H782460   6.211   1.903   2.412  1.8880 -0.3634  0.5137
  982HK4    C2082461   6.209   2.121   2.404 -0.2958  0.5178  0.2723
  982HK4     H982462   6.113   2.131   2.352  0.0173  0.2396 -0.3667
  982HK4    C1982463   6.273   2.241   2.434 -0.0768  0.3227  0.5769
  982HK4    C1882464   6.413   2.232   2.471  0.2276 -0.1482 -0.6589
  982HK4    C1782465   6.471   2.106   2.486  0.3085 -0.1626 -1.0956
  982HK4     H882466   6.567   2.098   2.537 -1.3109 -0.3145  2.0644
  982HK4     N182467   6.470   2.360   2.479  0.1324 -0.1386 -0.1047
  982HK4    C2182468   6.363   2.450   2.457  0.1352 -0.0928  0.0653
  982HK4    C2282469   6.241   2.381   2.421 -0.1710  0.2827  0.3836
  982HK4    C2682470   6.121   2.449   2.405 -0.4184 -0.1376  0.4533
  982HK4    H1382471   6.033   2.389   2.384 -0.1904 -0.2464 -0.1798
  982HK4    C2582472   6.113   2.585   2.437 -0.2129  0.0039 -0.1034
  982HK4    H1282473   6.014   2.630   2.445 -0.9422 -1.7120  0.9078
  982HK4    C2482474   6.227   2.651   2.481 -0.2113  0.2164 -0.4219
  982HK4    H1182475   6.227   2.754   2.520 -0.7111  0.1211 -0.1684
  982HK4    C2382476   6.349   2.586   2.485 -0.4381 -0.1771  0.1841
  982HK4    H1082477   6.423   2.637   2.547  0.6329  1.8621 -2.6578
  982HK4    C3982478   6.595   2.390   2.535 -0.0367  0.5018 -0.0564
  982HK4    C4182479   6.657   2.507   2.487  0.2403  0.2605 -0.2879
  982HK4    H2182480   6.636   2.536   2.384 -0.1072 -1.0518 -0.6015
  982HK4    C4282481   6.773   2.551   2.550  0.2807 -0.2305 -0.0086
  982HK4    H2282482   6.815   2.645   2.511 -0.4372  0.7800  1.5996
  982HK4    C4382483   6.836   2.476   2.648  0.0825 -0.2627  0.0935
  982HK4    H2382484   6.916   2.515   2.710 -0.8109 -0.9200  1.6926
  982HK4    C4482485   6.778   2.358   2.694 -0.1119 -0.3590 -0.4035
  982HK4    H2482486   6.824   2.304   2.777  0.1429 -0.7767 -0.8158
  982HK4    C4582487   6.656   2.317   2.639 -0.5410  0.2606  0.0751
  982HK4    H2582488   6.599   2.238   2.689  0.7680  0.2387  1.5884
  983HK4    H2882489   9.845   9.403   3.587  1.1108 -1.4020  0.9146
  983HK4    C4882490   9.873   9.486   3.651  0.3006 -0.1549 -0.3189
  983HK4    C4782491   9.993   9.556   3.644 -0.3167  0.9829  0.3668
  983HK4    H2782492  10.051   9.568   3.551 -1.2200 -0.6860 -0.4314
  983HK4    C4682493  10.050   9.610   3.759 -0.0919  0.4123  0.5212
  983HK4    H2682494  10.155   9.640   3.748  0.1076 -0.8533 -1.2819
  983HK4    C4082495   9.988   9.599   3.885 -0.0242 -0.1700  0.5034
  983HK4    C5082496   9.860   9.541   3.883  0.1933 -0.6497  0.0926
  983HK4    H3082497   9.809   9.517   3.977 -3.2090 -2.8165 -2.1677
  983HK4    C4982498   9.800   9.486   3.770  0.3862 -0.1300 -0.2653
  983HK4    H2982499   9.697   9.450   3.783  0.7559 -0.8005  0.8579
  983HK4     N282500  10.068   9.584   3.999  0.0656 -0.1406  0.4436
  983HK4    C3082501  10.174   9.492   4.014  0.2865 -0.0016 -0.2448
  983HK4    C2982502  10.181   9.369   3.950  0.2195 -0.1461  0.0256
  983HK4    H1582503  10.103   9.346   3.877 -0.9151  0.9915  0.8452
  983HK4    C2882504  10.290   9.286   3.969  0.1599 -0.3334 -0.4384
  983HK4    C2782505  10.397   9.328   4.051 -0.0851  0.3215 -0.4538
  983HK4    H1482506  10.491   9.272   4.061  0.2881  0.8202 -1.1285
  983HK4    C3282507  10.389   9.447   4.122 -0.0116 -0.1488  0.3409
  983HK4    H1682508  10.457   9.472   4.204  0.8126  0.1283 -0.4168
  983HK4    C3182509  10.281   9.532   4.104  0.0712 -0.0996  0.0521
  983HK4    C3482510  10.244   9.670   4.132  0.1942 -0.2071  0.7538
  983HK4    C3382511  10.111   9.691   4.080  0.3832 -0.1488  0.2851
  983HK4    C3582512  10.054   9.816   4.102  0.2691 -0.0128 -0.7577
  983HK4    H1782513   9.959   9.842   4.054 -0.2254 -1.2178 -0.4562
  983HK4    C3682514  10.120   9.913   4.176  0.1769 -0.1548 -0.4885
  983HK4    H1882515  10.085  10.017   4.165  0.2660  0.0619  1.2283
  983HK4    C3782516  10.245   9.884   4.229 -0.0323  0.0492  0.1213
  983HK4    H1982517  10.291   9.966   4.285  1.5571 -1.9686  1.8536
  983HK4    C3882518  10.315   9.767   4.201  0.2087  0.1710  0.2060
  983HK4    H2082519  10.424   9.758   4.206  0.0684 -1.7678 -0.0375
  983HK4    C1482520  10.261   9.144   3.943 -0.8135 -0.2349  0.1035
  983HK4     C982521  10.299   9.046   4.036 -0.0456  0.0059  0.0460
  983HK4     C882522  10.336   8.915   3.998  0.3684  0.0906  0.1561
  983HK4    C1182523  10.320   8.884   3.864  0.2117 -0.3876  0.2819
  983HK4     H482524  10.336   8.779   3.836 -2.5388 -0.9950  0.9028
  983HK4    C1282525  10.269   8.972   3.769  0.3290 -0.2367  0.3597
  983HK4     H582526  10.249   8.947   3.663  2.3332  0.9092 -0.3091
  983HK4    C1382527  10.247   9.103   3.809 -0.1175 -0.2073  0.0188
  983HK4     H682528  10.208   9.169   3.730  1.5280  4.1414  2.6581
  983HK4     C782529  10.370   8.805   4.092  0.4909  0.1340  0.1602
  983HK4     O282530  10.426   8.703   4.053  0.7590  0.3380  0.0071
  983HK4     C482531  10.350   8.838   4.235 -0.1050 -0.3984  0.2038
  983HK4     C382532  10.376   8.730   4.318  0.8159  0.0099  0.4497
  983HK4     H382533  10.390   8.624   4.294 -0.3582 -0.0353 -0.0512
  983HK4     C282534  10.390   8.762   4.453  0.2755  0.0900  0.4877
  983HK4     H282535  10.376   8.685   4.530 -1.5160  0.2571  0.3547
  983HK4     C182536  10.383   8.893   4.500  0.3463  0.2580  0.0353
  983HK4     H182537  10.380   8.913   4.608 -0.0667  1.5616 -0.2057
  983HK4     C682538  10.349   9.000   4.415  0.9118  0.0978 -0.3981
  983HK4     C582539  10.327   8.970   4.280 -0.4812 -0.3691 -0.0672
  983HK4    C1082540  10.275   9.068   4.181 -0.0240 -0.0107  0.0509
  983HK4     O182541  10.184   9.141   4.221 -0.3493 -0.3861 -0.0042
  983HK4    C1682542  10.366   9.130   4.483 -0.1828 -0.0499  0.1625
  983HK4    C1582543  10.487   9.153   4.551 -0.0786 -0.3030  0.0620
  983HK4     H782544  10.572   9.084   4.537  0.6206  0.6881 -0.5781
  983HK4    C2082545  10.496   9.244   4.656 -0.2043 -0.0238 -0.1674
  983HK4     H982546  10.584   9.251   4.719 -0.7177  1.4725  0.4154
  983HK4    C1982547  10.380   9.305   4.702 -0.2261 -0.2922  0.1429
  983HK4    C1882548  10.256   9.294   4.627  0.0924  0.3542 -0.4814
  983HK4    C1782549  10.254   9.201   4.524 -0.5030 -0.7634  0.5327
  983HK4     H882550  10.164   9.182   4.466 -1.6789  2.8077  1.0729
  983HK4     N182551  10.161   9.388   4.674  0.0609  0.1153 -0.0548
  983HK4    C2182552  10.226   9.466   4.771  0.3405 -0.2943  0.0882
  983HK4    C2282553  10.360   9.415   4.794  0.2995 -0.3177  0.2878
  983HK4    C2682554  10.436   9.451   4.905  0.3859 -0.1736  0.1832
  983HK4    H1382555  10.520   9.385   4.926  2.2236  1.2477 -2.3725
  983HK4    C2582556  10.383   9.544   4.992 -0.1142 -0.4072  0.1286
  983HK4    H1282557  10.436   9.558   5.086  1.1249 -0.2730 -0.5898
  983HK4    C2482558  10.256   9.597   4.970 -0.2265 -0.6639  0.1488
  983HK4    H1182559  10.223   9.683   5.030 -0.0601 -1.8559  1.9879
  983HK4    C2382560  10.176   9.558   4.863 -0.0191 -0.2340 -0.1647
  983HK4    H1082561  10.078   9.600   4.839  0.5427 -0.6980 -3.5768
  983HK4    C3982562  10.052   9.434   4.599 -0.1433  0.0063  0.1747
  983HK4    C4182563   9.947   9.511   4.653 -0.7403 -0.4640 -0.2975
  983HK4    H2182564   9.924   9.503   4.760 -1.0605  0.7214 -0.2691
  983HK4    C4282565   9.865   9.584   4.567  0.3370  0.4202 -0.5829
  983HK4    H2282566   9.773   9.627   4.607  0.3494  0.4426 -0.5753
  983HK4    C4382567   9.890   9.595   4.431  0.3619  0.3259 -0.5869
  983HK4    H2382568   9.839   9.669   4.368 -1.2291 -0.4747 -0.2755
  983HK4    C4482569   9.999   9.527   4.379  0.6565  0.3859 -0.0533
  983HK4    H2482570  10.018   9.531   4.270  0.3004 -1.2335 -0.1933
  983HK4    C4582571  10.074   9.442   4.460  0.3683  0.4473  0.2773
  983HK4    H2582572  10.156   9.390   4.408  1.0474  1.6269  0.1363
  984HK4    H2882573  11.153   2.130  10.870  0.7216  0.2590  1.8583
  984HK4    C4882574  11.215   2.043  10.847 -0.4525 -0.0726 -0.2407
  984HK4    C4782575   0.106   2.056  10.852 -0.4713  0.2303 -0.4647
  984HK4    H2782576   0.156   2.151  10.878  1.1207 -0.3603 -1.3089
  984HK4    C4682577   0.183   1.945  10.822  0.1746  0.3408  0.7628
  984HK4    H2682578   0.286   1.948  10.860  1.2420  0.6260 -1.9765
  984HK4    C4082579   0.131   1.821  10.779  0.3525  0.2497  0.8061
  984HK4    C5082580  11.238   1.819  10.774  0.3834  0.1788 -0.0021
  984HK4    H3082581  11.194   1.734  10.718 -0.4675  0.7621 -0.2260
  984HK4    C4982582  11.154   1.924  10.809 -0.2116 -0.0463 -0.7201
  984HK4    H2982583  11.044   1.920  10.815 -0.0834 -0.8245  1.8947
  984HK4     N282584   0.214   1.713  10.748 -0.2519  0.1457 -0.4485
  984HK4    C3082585   0.348   1.726  10.707 -0.1805 -0.9363 -0.5590
  984HK4    C2982586   0.412   1.820  10.628 -0.0467 -0.5257  0.0354
  984HK4    H1582587   0.358   1.911  10.600 -0.3938 -1.0512 -1.0316
  984HK4    C2882588   0.549   1.817  10.605 -0.0022 -0.3502  0.2772
  984HK4    C2782589   0.623   1.715  10.669  0.5503 -0.2886 -0.2567
  984HK4    H1482590   0.729   1.727  10.695  0.7057  1.1118 -1.4149
  984HK4    C3282591   0.562   1.616  10.745 -0.0925 -0.0366 -0.4355
  984HK4    H1682592   0.628   1.547  10.798 -0.8864 -0.4798 -0.0224
  984HK4    C3182593   0.424   1.615  10.761 -0.0948 -0.8361 -0.4758
  984HK4    C3482594   0.331   1.517  10.814 -0.2192 -0.1657  0.5769
  984HK4    C3382595   0.203   1.581  10.796  0.0676  0.1653 -0.3211
  984HK4    C3582596   0.094   1.495  10.803  0.2120  0.0801  0.9179
  984HK4    H1782597  11.245   1.544  10.813  0.3805  0.5319  0.3158
  984HK4    C3682598   0.104   1.357  10.817  0.0111 -0.0427 -0.1182
  984HK4    H1882599   0.014   1.296  10.802 -0.8279  0.9868  0.6082
  984HK4    C3782600   0.229   1.299  10.837 -0.1467 -0.5424 -0.5603
  984HK4    H1982601   0.242   1.191  10.839 -1.6311 -0.7391  1.4733
  984HK4    C3882602   0.342   1.380  10.839 -0.2808 -0.3568 -0.4128
  984HK4    H2082603   0.437   1.337  10.869  0.8326  0.7199 -2.2996
  984HK4    C1482604   0.619   1.927  10.537  0.0196 -0.0680  0.7507
  984HK4     C982605   0.758   1.944  10.542  0.0284 -0.1929  0.9402
  984HK4     C882606   0.814   2.073  10.549  0.0077 -0.1011 -0.3478
  984HK4    C1182607   0.730   2.180  10.521 -0.2311 -0.3166 -0.4502
  984HK4     H482608   0.767   2.283  10.511  1.8693 -0.7093  2.6890
  984HK4    C1282609   0.594   2.168  10.494 -0.4112  0.1829  0.2224
  984HK4     H582610   0.534   2.251  10.452  0.8344  1.3275  0.6412
  984HK4    C1382611   0.542   2.040  10.502  0.3157 -0.1376 -0.1467
  984HK4     H682612   0.448   2.027  10.446  0.8104 -0.7928 -0.8324
  984HK4     C782613   0.959   2.086  10.573 -0.0806 -0.3270  0.3292
  984HK4     O282614   1.001   2.201  10.591  0.1554 -0.2378 -0.7670
  984HK4     C482615   1.044   1.966  10.586 -0.1402 -0.3380  0.6159
  984HK4     C382616   1.175   1.985  10.630  0.1432  0.0912 -0.3881
  984HK4     H382617   1.220   2.082  10.657  0.3951 -0.0254 -0.3922
  984HK4     C282618   1.265   1.880  10.645  0.1092  0.2406  1.0024
  984HK4     H282619   1.371   1.896  10.667  0.1789  0.3723  0.5737
  984HK4     C182620   1.211   1.754  10.619 -0.4695  0.6207  0.3305
  984HK4     H182621   1.272   1.667  10.647 -2.2843 -0.9287 -0.4987
  984HK4     C682622   1.084   1.729  10.564  0.0599 -0.5201 -0.3963
  984HK4     C582623   1.001   1.839  10.542  0.0528 -0.3530  0.4676
  984HK4    C1082624   0.856   1.837  10.506  0.3194  0.5988 -0.6871
  984HK4     O182625   0.827   1.762  10.413  0.0605  0.1653 -0.2639
  984HK4    C1682626   1.076   1.602  10.490 -0.0153 -0.4194 -0.5597
  984HK4    C1582627   1.191   1.559  10.420  0.2044 -0.7513 -0.0012
  984HK4     H782628   1.258   1.635  10.378  0.9175 -1.7793 -0.7449
  984HK4    C2082629   1.211   1.426  10.385  0.1852 -0.5803 -0.6635
  984HK4     H982630   1.281   1.407  10.303 -0.2372 -0.7067 -0.9988
  984HK4    C1982631   1.115   1.332  10.421 -0.4435  0.1086 -0.5283
  984HK4    C1882632   0.994   1.374  10.490 -0.2185 -0.0541 -0.0339
  984HK4    C1782633   0.982   1.507  10.529  0.1019 -0.1496  0.3966
  984HK4     H882634   0.904   1.539  10.598  0.2812 -0.5465  0.7857
  984HK4     N182635   0.908   1.267  10.520 -0.1287 -0.2077 -0.3224
  984HK4    C2182636   0.978   1.153  10.474  0.0318 -0.4111  0.4216
  984HK4    C2282637   1.101   1.189  10.406 -0.3881  0.0561 -0.0932
  984HK4    C2682638   1.182   1.084  10.365  0.1088  0.5593 -0.4068
  984HK4    H1382639   1.284   1.104  10.331  0.4772  0.4044  0.6045
  984HK4    C2582640   1.143   0.951  10.374 -0.0794  0.6839  0.6895
  984HK4    H1282641   1.201   0.878  10.317  0.3631  1.8971 -0.4422
  984HK4    C2482642   1.023   0.922  10.437 -0.3226 -0.1394 -0.1259
  984HK4    H1182643   1.001   0.818  10.466  2.1471 -0.5606  0.3466
  984HK4    C2382644   0.937   1.021  10.484 -0.3365 -0.3109  0.2135
  984HK4    H1082645   0.830   1.000  10.494 -0.7322  1.6455  0.2481
  984HK4    C3982646   0.769   1.277  10.530 -0.1042 -0.0826 -0.0978
  984HK4    C4182647   0.685   1.179  10.585 -0.4473  0.1186 -0.2577
  984HK4    H2182648   0.740   1.102  10.642  1.2900  0.8857 -0.8709
  984HK4    C4282649   0.546   1.180  10.576 -0.5016  0.5230  0.5360
  984HK4    H2282650   0.492   1.104  10.634  0.4222  0.7273  1.6680
  984HK4    C4382651   0.486   1.291  10.518 -0.6651  0.3128  0.2985
  984HK4    H2382652   0.378   1.302  10.525 -0.5212  1.8204  0.2705
  984HK4    C4482653   0.564   1.394  10.466  0.2580 -0.6309 -0.1957
  984HK4    H2482654   0.514   1.471  10.407 -1.5845 -1.4658  0.2392
  984HK4    C4582655   0.703   1.385  10.467  0.3263  0.4158  0.3044
  984HK4    H2582656   0.764   1.450  10.402 -1.3505  1.1202 -0.5851
  985HK4    H2882657   1.727   5.510   6.262 -0.6339  0.5003  0.4632
  985HK4    C4882658   1.738   5.603   6.207 -0.3759  0.2851  0.1474
  985HK4    C4782659   1.742   5.719   6.284  0.4826 -0.0506  0.6226
  985HK4    H2782660   1.756   5.701   6.391 -0.0023 -0.8907  0.5514
  985HK4    C4682661   1.733   5.843   6.221 -0.6722 -0.3759  0.1362
  985HK4    H2682662   1.700   5.923   6.288 -0.2606 -2.4025  2.8248
  985HK4    C4082663   1.728   5.848   6.080  0.3855 -0.3085  0.0960
  985HK4    C5082664   1.713   5.731   6.003 -0.8931  0.1019 -0.2961
  985HK4    H3082665   1.701   5.731   5.894  0.0958  0.9871 -0.4071
  985HK4    C4982666   1.725   5.609   6.069  0.0568  0.4073  0.1091
  985HK4    H2982667   1.715   5.517   6.010  1.9355  0.5024 -0.3839
  985HK4     N282668   1.767   5.965   6.012  0.4196 -0.3098  0.1151
  985HK4    C3082669   1.729   5.993   5.880 -0.3945  0.0395  0.4174
  985HK4    C2982670   1.611   5.962   5.813 -0.3079 -0.2061  0.3788
  985HK4    H1582671   1.534   5.894   5.849 -0.9385  1.0189  1.3513
  985HK4    C2882672   1.590   6.018   5.687 -0.0881  0.1303  0.4913
  985HK4    C2782673   1.689   6.098   5.627 -0.4085 -0.1177 -0.3640
  985HK4    H1482674   1.677   6.137   5.524  0.0669  1.3809  0.1378
  985HK4    C3282675   1.808   6.130   5.692 -0.3824 -0.5288 -0.2091
  985HK4    H1682676   1.881   6.192   5.641 -0.1372 -0.6553 -0.0085
  985HK4    C3182677   1.831   6.076   5.818 -0.4037 -0.3568 -0.1315
  985HK4    C3482678   1.929   6.106   5.920 -0.2582  0.1308 -0.4106
  985HK4    C3382679   1.882   6.040   6.041 -0.0060  0.4439 -0.1439
  985HK4    C3582680   1.954   6.063   6.158 -0.3507  0.1970  0.1173
  985HK4    H1782681   1.939   6.000   6.246 -0.9410  0.6862  0.3722
  985HK4    C3682682   2.074   6.133   6.154  0.0754 -0.5442 -0.2071
  985HK4    H1882683   2.126   6.136   6.251 -0.6731 -1.7578  0.2314
  985HK4    C3782684   2.125   6.192   6.039 -0.2220  0.2507  0.0663
  985HK4    H1982685   2.229   6.223   6.025 -0.6837  1.4181 -0.9115
  985HK4    C3882686   2.047   6.179   5.925 -0.0400 -0.2425 -0.0035
  985HK4    H2082687   2.101   6.178   5.830  2.0577 -1.2936  1.1797
  985HK4    C1482688   1.490   5.958   5.597  0.0441  0.6501  0.0017
  985HK4     C982689   1.499   5.951   5.457  0.2055  0.1595  0.0376
  985HK4     C882690   1.386   5.970   5.375  0.2708 -0.2181 -0.1399
  985HK4    C1182691   1.261   5.973   5.436  0.0165 -0.9554 -0.6108
  985HK4     H482692   1.172   5.980   5.371 -0.3388 -1.3723 -0.1639
  985HK4    C1282693   1.245   5.965   5.574  0.2023  0.4532 -0.4985
  985HK4     H582694   1.159   5.921   5.626  1.7349 -0.9240  0.9287
  985HK4    C1382695   1.361   5.966   5.651 -0.0515 -0.1118 -0.1087
  985HK4     H682696   1.343   5.976   5.759  0.0249 -0.8993 -0.0231
  985HK4     C782697   1.409   6.012   5.235  0.1063  0.0585 -0.0841
  985HK4     O282698   1.320   5.991   5.153  0.2588 -0.7692 -0.0381
  985HK4     C482699   1.548   6.036   5.189  0.2529  0.0116  0.3341
  985HK4     C382700   1.573   6.121   5.082 -0.1236 -0.4808 -0.1512
  985HK4     H382701   1.494   6.142   5.009 -0.0623  0.0259 -0.0742
  985HK4     C282702   1.702   6.167   5.056 -0.0472 -0.5803  0.0486
  985HK4     H282703   1.724   6.251   4.989 -0.9444  1.1716  1.8807
  985HK4     C182704   1.805   6.106   5.126  0.3422 -0.4419 -0.4014
  985HK4     H182705   1.908   6.133   5.098 -0.1448  0.5756 -1.2059
  985HK4     C682706   1.789   5.999   5.217  0.1404  0.0402  0.1317
  985HK4     C582707   1.656   5.974   5.254  0.1822 -0.7022 -0.2276
  985HK4    C1082708   1.626   5.915   5.388  0.2965  0.1845  0.1909
  985HK4     O182709   1.666   5.802   5.414  0.5392  0.2543  0.1133
  985HK4    C1682710   1.906   5.962   5.298  0.3019 -0.0611 -0.1523
  985HK4    C1582711   2.002   6.058   5.337  0.1026 -0.0420  0.2843
  985HK4     H782712   1.963   6.161   5.345  1.2675  0.5489 -1.4464
  985HK4    C2082713   2.135   6.034   5.368  0.3125 -0.0158 -0.6065
  985HK4     H982714   2.202   6.117   5.391 -1.2551  1.7029 -2.0544
  985HK4    C1982715   2.182   5.903   5.363  0.3725 -0.0234  0.2212
  985HK4    C1882716   2.088   5.799   5.325  0.1641  0.0657  0.4834
  985HK4    C1782717   1.957   5.833   5.294  0.1716 -0.1226  0.2407
  985HK4     H882718   1.886   5.755   5.265 -0.6810  0.5725  0.4335
  985HK4     N182719   2.143   5.670   5.338 -0.1043 -0.0317  0.6505
  985HK4    C2182720   2.272   5.698   5.389  0.2657  0.0018 -0.2850
  985HK4    C2282721   2.306   5.839   5.401  0.5435 -0.0564 -0.3942
  985HK4    C2682722   2.425   5.882   5.458  0.4743 -0.0073 -0.2890
  985HK4    H1382723   2.428   5.989   5.480 -1.8268 -0.2592  1.4588
  985HK4    C2582724   2.518   5.789   5.503 -0.2278 -0.2343  0.7081
  985HK4    H1282725   2.602   5.823   5.564  0.2177 -0.6796  0.3437
  985HK4    C2482726   2.491   5.654   5.490 -0.4350 -0.1225 -0.0691
  985HK4    H1182727   2.572   5.581   5.504  0.7380  1.0408 -0.6700
  985HK4    C2382728   2.367   5.612   5.443 -0.0383 -0.5981 -0.7026
  985HK4    H1082729   2.352   5.504   5.439 -0.7769 -0.5193 -0.3148
  985HK4    C3982730   2.074   5.549   5.329 -0.3585  0.1686 -0.1633
  985HK4    C4182731   2.133   5.428   5.287 -0.3087 -0.0595  0.5518
  985HK4    H2182732   2.221   5.439   5.223  0.4461 -1.8431  1.2711
  985HK4    C4282733   2.084   5.299   5.307 -0.2194 -0.1222  0.3659
  985HK4    H2282734   2.149   5.212   5.290 -1.7713 -1.3711  0.7599
  985HK4    C4382735   1.954   5.294   5.357 -0.1442 -0.0642  0.5682
  985HK4    H2382736   1.891   5.206   5.346  1.3099 -1.1372  0.5810
  985HK4    C4482737   1.887   5.404   5.409 -1.0019 -0.3443  0.0561
  985HK4    H2482738   1.790   5.394   5.460 -2.8820 -0.7563 -3.4608
  985HK4    C4582739   1.952   5.526   5.396  0.1569 -0.9183  0.4092
  985HK4    H2582740   1.905   5.615   5.438 -1.2912 -0.8358 -1.3368
  986HK4    H2882741   7.011   9.208   7.546 -0.7295  2.0223  0.0734
  986HK4    C4882742   7.051   9.205   7.444 -0.3702 -0.2759  0.2703
  986HK4    C4782743   7.094   9.081   7.397 -0.0563  0.1568 -0.5773
  986HK4    H2782744   7.083   8.991   7.459  0.7767  1.4853  1.5542
  986HK4    C4682745   7.183   9.079   7.290  0.2018  0.3477 -0.3678
  986HK4    H2682746   7.218   8.983   7.249 -0.6506  0.0084 -0.3124
  986HK4    C4082747   7.222   9.196   7.222  0.5232  0.1876 -0.4547
  986HK4    C5082748   7.166   9.319   7.263  0.1272 -0.0467 -0.2927
  986HK4    H3082749   7.153   9.408   7.201  0.1504  0.0543 -0.1522
  986HK4    C4982750   7.081   9.320   7.374  0.0014 -0.7598 -0.3750
  986HK4    H2982751   7.030   9.414   7.400  1.4193 -0.5662  1.8466
  986HK4     N282752   7.277   9.204   7.093  0.5474 -0.2768 -0.4736
  986HK4    C3082753   7.238   9.106   6.999  0.2943 -0.4284 -0.2132
  986HK4    C2982754   7.108   9.068   6.968  0.2438 -0.3100 -0.1543
  986HK4    H1582755   7.028   9.086   7.040 -1.0668 -0.6154 -1.4976
  986HK4    C2882756   7.080   8.984   6.860  0.0624 -0.2664 -0.1423
  986HK4    C2782757   7.185   8.953   6.772  0.3643 -0.1644  0.1796
  986HK4    H1482758   7.169   8.910   6.672  0.0215 -0.8666  0.5343
  986HK4    C3282759   7.316   8.987   6.804  0.6075 -0.7237 -0.2240
  986HK4    H1682760   7.399   8.951   6.743  1.6335  0.5609  0.3932
  986HK4    C3182761   7.349   9.058   6.919  0.2287 -0.2044 -0.4370
  986HK4    C3482762   7.465   9.126   6.973  0.1548 -0.2489 -0.2276
  986HK4    C3382763   7.412   9.227   7.062  0.5729 -0.0569 -0.1970
  986HK4    C3582764   7.503   9.311   7.125 -0.0130 -0.0643  0.6720
  986HK4    H1782765   7.472   9.397   7.184  1.4061 -1.1111  3.0366
  986HK4    C3682766   7.639   9.289   7.105  0.0613  0.3028  0.7571
  986HK4    H1882767   7.703   9.337   7.180  0.9730  0.3447 -0.0410
  986HK4    C3782768   7.689   9.192   7.019 -0.3696  0.1463  0.6792
  986HK4    H1982769   7.797   9.196   7.002 -0.0404 -0.3888  2.5913
  986HK4    C3882770   7.601   9.106   6.954  0.2435 -0.2835  0.4181
  986HK4    H2082771   7.641   9.015   6.908 -1.5761 -1.5187  1.2126
  986HK4    C1482772   6.945   8.926   6.864  0.0312 -0.1838 -0.0036
  986HK4     C982773   6.914   8.806   6.799 -0.4317  0.0291 -0.1732
  986HK4     C882774   6.785   8.772   6.753 -0.3801 -0.4510  0.0320
  986HK4    C1182775   6.686   8.859   6.799  0.4620  0.6742 -0.2635
  986HK4     H482776   6.590   8.850   6.747 -0.1538 -1.7676  1.2200
  986HK4    C1282777   6.705   8.972   6.877 -0.2334  0.1863  0.6179
  986HK4     H582778   6.613   9.011   6.924 -0.6267 -0.0931  0.0834
  986HK4    C1382779   6.836   9.005   6.907  0.0400  0.0966 -0.4930
  986HK4     H682780   6.851   9.099   6.962  1.4509 -1.0740  1.1631
  986HK4     C782781   6.760   8.661   6.658  0.0716 -0.3660 -0.1921
  986HK4     O282782   6.648   8.610   6.660  0.2269 -0.7078 -0.1877
  986HK4     C482783   6.879   8.590   6.606  0.1453 -0.2917 -0.1211
  986HK4     C382784   6.854   8.511   6.495 -0.1695 -0.2741 -0.0647
  986HK4     H382785   6.754   8.494   6.451 -0.6275  0.3632  0.7251
  986HK4     C282786   6.962   8.446   6.436  0.0835 -0.1942  0.3131
  986HK4     H282787   6.957   8.397   6.338 -0.2400  0.1850  0.1379
  986HK4     C182788   7.090   8.460   6.490  0.2617 -0.2130 -0.1073
  986HK4     H182789   7.178   8.433   6.430  0.2385  2.2985 -1.3567
  986HK4     C682790   7.114   8.544   6.601 -0.1771  0.0550 -0.2116
  986HK4     C582791   7.006   8.603   6.666  0.0087  0.0537  0.0918
  986HK4    C1082792   7.017   8.701   6.778 -0.1654  0.2734 -0.0779
  986HK4     O182793   7.081   8.664   6.877 -0.1657  0.2280 -0.0942
  986HK4    C1682794   7.249   8.603   6.609 -0.3034  0.2828  0.2256
  986HK4    C1582795   7.324   8.636   6.495 -0.0148 -0.0174  0.3307
  986HK4     H782796   7.276   8.646   6.396  1.8792  0.8049 -0.5325
  986HK4    C2082797   7.462   8.654   6.503  0.0908 -0.4913 -0.3000
  986HK4     H982798   7.527   8.664   6.416 -1.7546 -0.5359 -1.7408
  986HK4    C1982799   7.531   8.641   6.623  0.2278  0.3678 -0.2795
  986HK4    C1882800   7.454   8.608   6.741 -0.1093  0.7101 -0.4013
  986HK4    C1782801   7.318   8.584   6.728  0.1009 -0.6300 -0.1570
  986HK4     H882802   7.270   8.529   6.808  0.6795 -0.8578  0.0400
  986HK4     N182803   7.537   8.564   6.847 -0.4643  1.0241  0.0111
  986HK4    C2182804   7.664   8.553   6.785 -0.6120  0.3145 -0.1635
  986HK4    C2282805   7.670   8.627   6.661  0.2017 -0.0172 -0.3227
  986HK4    C2682806   7.791   8.624   6.592  0.1367  0.0868 -0.4420
  986HK4    H1382807   7.813   8.704   6.522  0.2892 -0.1209 -0.6320
  986HK4    C2582808   7.892   8.536   6.629 -0.1337 -0.0594 -0.0502
  986HK4    H1282809   7.970   8.498   6.562  1.2452 -0.1842  1.6185
  986HK4    C2482810   7.888   8.462   6.747 -0.6066  0.0502  0.0048
  986HK4    H1182811   7.972   8.401   6.781  1.8136  3.0939 -0.2193
  986HK4    C2382812   7.773   8.476   6.823 -0.3918  0.8051  0.2031
  986HK4    H1082813   7.772   8.430   6.922  3.2166 -0.9132 -0.4903
  986HK4    C3982814   7.506   8.578   6.982 -0.2672 -0.0198  0.1693
  986HK4    C4182815   7.584   8.524   7.087  0.6601  0.3454 -0.3208
  986HK4    H2182816   7.634   8.429   7.069  0.7202  0.6379 -1.7292
  986HK4    C4282817   7.612   8.594   7.204 -0.1018 -0.3149  0.2619
  986HK4    H2282818   7.668   8.546   7.286  0.2566 -0.3275  0.0074
  986HK4    C4382819   7.558   8.722   7.219  0.4060 -0.1105  0.3575
  986HK4    H2382820   7.580   8.776   7.311  1.6115 -0.9002  0.5409
  986HK4    C4482821   7.468   8.773   7.127  1.0133 -0.2644 -0.3255
  986HK4    H2482822   7.406   8.860   7.154  3.1191  0.4259  2.5026
  986HK4    C4582823   7.441   8.700   7.012 -0.1250  0.1825 -0.3434
  986HK4    H2582824   7.368   8.742   6.941 -0.9903 -0.0090  0.4285
  987HK4    H2882825   5.537   7.188  10.873 -0.0588 -0.2315  0.0221
  987HK4    C4882826   5.453   7.133  10.915 -0.3594  0.0652 -0.1767
  987HK4    C4782827   5.384   7.179  11.027  0.7658 -0.5903  0.7980
  987HK4    H2782828   5.369   7.285  11.050  0.8372 -0.5764  0.7783
  987HK4    C4682829   5.314   7.094  11.112 -0.1152 -0.2441  0.4156
  987HK4    H2682830   5.258   7.133  11.199  0.1492  1.9727 -0.3704
  987HK4    C4082831   5.300   6.956  11.088 -0.6686 -0.0653 -0.2857
  987HK4    C5082832   5.362   6.908  10.970 -0.1684  0.0577 -0.0711
  987HK4    H3082833   5.349   6.805  10.935 -1.8144 -1.0197  3.4615
  987HK4    C4982834   5.439   6.996  10.895 -0.3164  0.0672 -0.2130
  987HK4    H2982835   5.499   6.947  10.817  2.2749  1.4076  0.8814
  987HK4     N282836   5.244   6.868  11.181 -0.1818  0.3030  0.3554
  987HK4    C3082837   5.232   6.877   0.073 -0.3925  0.2387  0.3435
  987HK4    C2982838   5.274   6.974   0.163 -0.2494  0.0843  0.4422
  987HK4    H1582839   5.353   7.043   0.134  0.3209 -1.1385 -0.9306
  987HK4    C2882840   5.229   6.986   0.295  0.0543 -0.0271  0.5557
  987HK4    C2782841   5.152   6.879   0.345  0.3154 -0.4145  0.1378
  987HK4    H1482842   5.091   6.886   0.436 -1.4273  1.0389 -1.0860
  987HK4    C3282843   5.112   6.777   0.259  0.5951 -0.4488  0.0490
  987HK4    H1682844   5.058   6.692   0.301  1.0951 -1.2346 -0.8849
  987HK4    C3182845   5.143   6.774   0.123  0.0669 -0.3628 -0.0740
  987HK4    C3482846   5.110   6.689   0.011 -0.3383 -0.1195 -0.1412
  987HK4    C3382847   5.161   6.761  11.143  0.6165 -0.2593  0.1823
  987HK4    C3582848   5.113   6.727  11.017 -0.0080 -0.0600  0.3660
  987HK4    H1782849   5.122   6.807  10.943 -2.6831  0.3944  0.4976
  987HK4    C3682850   5.028   6.620  10.998 -0.2670  0.2025  0.0272
  987HK4    H1882851   4.980   6.608  10.900 -0.7583  1.6613  0.0752
  987HK4    C3782852   4.989   6.550  11.113 -0.1668  0.0041 -0.0600
  987HK4    H1982853   4.913   6.473  11.103 -1.0561  0.8506  0.1184
  987HK4    C3882854   5.030   6.576  11.243 -0.1783 -0.2510 -0.0039
  987HK4    H2082855   5.007   6.520   0.086 -2.1009 -1.3442 -1.1418
  987HK4    C1482856   5.295   7.095   0.369 -0.2894  0.1422  0.6132
  987HK4     C982857   5.342   7.079   0.500  0.2125 -0.0085  0.4153
  987HK4     C882858   5.324   7.182   0.594 -0.1644  0.1855  0.1339
  987HK4    C1182859   5.278   7.307   0.553 -0.1725  0.2701  0.4002
  987HK4     H482860   5.277   7.389   0.625 -1.9320 -1.2515  2.1969
  987HK4    C1282861   5.253   7.328   0.418  0.3130 -0.0836  0.2558
  987HK4     H582862   5.230   7.432   0.392 -0.3971 -0.4162 -0.4535
  987HK4    C1382863   5.253   7.222   0.327  0.5074  0.1886 -0.0611
  987HK4     H682864   5.213   7.244   0.227 -2.6140 -0.7335  0.9111
  987HK4     C782865   5.353   7.157   0.737 -0.0159  0.1337  0.0956
  987HK4     O282866   5.347   7.249   0.818  0.1588 -0.1176  0.3931
  987HK4     C482867   5.379   7.021   0.788  0.2114  0.0954 -0.1267
  987HK4     C382868   5.364   6.993   0.924  0.2987 -0.5485 -0.2456
  987HK4     H382869   5.371   7.077   0.994  0.6064 -1.7016  1.1182
  987HK4     C282870   5.365   6.866   0.981 -0.6596 -0.3406  0.2464
  987HK4     H282871   5.366   6.848   1.089 -2.0460 -0.0689  0.3155
  987HK4     C182872   5.398   6.768   0.888 -0.0915 -0.0794  0.1652
  987HK4     H182873   5.380   6.668   0.931  1.7071 -0.6548 -0.3937
  987HK4     C682874   5.418   6.791   0.751 -0.7777 -0.1809  0.0450
  987HK4     C582875   5.405   6.919   0.694 -0.4980 -0.1789 -0.0203
  987HK4    C1082876   5.396   6.949   0.548 -0.1544 -0.3472 -0.0751
  987HK4     O182877   5.473   6.890   0.473 -0.1664  0.0066 -0.3640
  987HK4    C1682878   5.443   6.668   0.674  0.4997 -0.2995  0.6407
  987HK4    C1582879   5.362   6.554   0.688 -0.1057  0.1140  0.5494
  987HK4     H782880   5.256   6.577   0.705  0.2880  1.2434  1.5339
  987HK4    C2082881   5.406   6.428   0.647  0.3702  0.3122  0.4509
  987HK4     H982882   5.332   6.348   0.646  0.1505  0.5111  0.7351
  987HK4    C1982883   5.529   6.410   0.585 -0.0114 -0.0858 -0.2063
  987HK4    C1882884   5.614   6.527   0.569  0.0232 -0.0288  0.4016
  987HK4    C1782885   5.569   6.649   0.618  0.4307  0.1538  0.3297
  987HK4     H882886   5.639   6.732   0.612  1.2157 -0.5639 -0.6940
  987HK4     N182887   5.732   6.490   0.502 -0.0082 -0.0982  0.3835
  987HK4    C2182888   5.726   6.351   0.482 -0.2427 -0.0674  0.2238
  987HK4    C2282889   5.603   6.296   0.535 -0.4194 -0.2633 -0.3939
  987HK4    C2682890   5.570   6.162   0.516 -0.3004 -0.3499  0.0111
  987HK4    H1382891   5.472   6.127   0.550 -0.3231 -0.2252  0.0728
  987HK4    C2582892   5.658   6.077   0.451  0.2009  0.6238 -0.6074
  987HK4    H1282893   5.659   5.971   0.480 -0.1715  0.0744 -2.5344
  987HK4    C2482894   5.768   6.132   0.387  0.8184 -0.1568 -0.2340
  987HK4    H1182895   5.833   6.070   0.324  1.2779  0.1029 -0.0204
  987HK4    C2382896   5.804   6.265   0.405 -0.0719  0.0157  0.3041
  987HK4    H1082897   5.890   6.304   0.350 -1.5873  2.5001 -0.3722
  987HK4    C3982898   5.815   6.578   0.431  0.0395 -0.3655  0.1078
  987HK4    C4182899   5.947   6.538   0.402  0.3833  0.2410  0.8249
  987HK4    H2182900   5.997   6.477   0.479  0.1008  0.5254  1.2391
  987HK4    C4282901   6.018   6.599   0.300 -0.3166  0.4792  0.4827
  987HK4    H2282902   6.124   6.572   0.285 -0.4220  0.0854  0.4453
  987HK4    C4382903   5.958   6.687   0.210  0.4080  0.6821  0.1939
  987HK4    H2382904   6.015   6.705   0.118 -1.7072 -0.0720 -1.3096
  987HK4    C4482905   5.829   6.729   0.237  0.0575 -0.1952 -0.0849
  987HK4    H2482906   5.787   6.802   0.166  0.9347 -0.3488 -0.7756
  987HK4    C4582907   5.762   6.679   0.348  0.1300 -0.5867 -0.2186
  987HK4    H2582908   5.661   6.718   0.366  0.4208 -0.0468  0.2381
  988HK4    H2882909   3.893   9.078   6.753 -0.7593  2.8826  3.9508
  988HK4    C4882910   3.933   9.156   6.688 -0.3834 -0.2851  0.1968
  988HK4    C4782911   4.010   9.257   6.744 -0.5706  0.2057 -0.4241
  988HK4    H2782912   4.028   9.248   6.852  0.5953 -3.1215 -0.8578
  988HK4    C4682913   4.071   9.353   6.663 -0.0764 -0.0717 -0.3764
  988HK4    H2682914   4.138   9.428   6.708  0.4291 -0.9044  0.2727
  988HK4    C4082915   4.064   9.355   6.523 -0.1671 -0.5024 -0.3779
  988HK4    C5082916   3.985   9.248   6.474 -0.2213 -0.5452 -0.1981
  988HK4    H3082917   3.978   9.235   6.365 -0.8681 -0.2608 -0.1910
  988HK4    C4982918   3.917   9.154   6.550  0.3103 -0.6735  0.1220
  988HK4    H2982919   3.880   9.064   6.498 -1.0435 -0.4470  0.6936
  988HK4     N282920   4.100   9.464   6.443  0.1945 -0.3221  0.0305
  988HK4    C3082921   4.108   9.597   6.491 -0.2527 -0.3843  0.2886
  988HK4    C2982922   4.039   9.662   6.592 -0.1420  0.1459  0.0231
  988HK4    H1582923   3.953   9.610   6.633  0.2568 -0.1276  0.5100
  988HK4    C2882924   4.069   9.793   6.629  0.3678 -0.0953  0.4787
  988HK4    C2782925   4.169   9.859   6.554  0.4325 -0.1930  0.4822
  988HK4    H1482926   4.210   9.950   6.599  3.1122 -0.7968 -0.5818
  988HK4    C3282927   4.235   9.802   6.445 -0.0863 -0.6493  0.4074
  988HK4    H1682928   4.301   9.859   6.381  0.4661 -0.6765  0.9528
  988HK4    C3182929   4.209   9.668   6.415 -0.5321 -0.4453 -0.1454
  988HK4    C3482930   4.273   9.574   6.325  0.0858 -0.0891 -0.0846
  988HK4    C3382931   4.195   9.453   6.340 -0.0923  0.0033 -0.2730
  988HK4    C3582932   4.218   9.351   6.248 -0.2309 -0.4610  0.1990
  988HK4    H1782933   4.140   9.275   6.245  0.3258 -0.9998 -1.8465
  988HK4    C3682934   4.314   9.367   6.148  0.1765  0.6016  0.7451
  988HK4    H1882935   4.341   9.284   6.080 -1.2608  0.5551  0.2020
  988HK4    C3782936   4.391   9.481   6.135  0.9540 -0.0965 -0.8430
  988HK4    H1982937   4.451   9.492   6.044 -1.2747  3.3755 -2.0026
  988HK4    C3882938   4.372   9.583   6.228  0.0698 -0.8703 -0.1751
  988HK4    H2082939   4.416   9.682   6.216 -0.1124 -1.0291 -2.4145
  988HK4    C1482940   3.979   9.876   6.710  0.6216  0.0467  0.6175
  988HK4     C982941   3.954  10.014   6.705  0.1991 -0.0416  0.1466
  988HK4     C882942   3.911  10.092   6.814 -0.5893 -0.1784 -0.0645
  988HK4    C1182943   3.872  10.025   6.930 -0.3158 -0.3536 -0.0743
  988HK4     H482944   3.872  10.081   7.025 -0.9267  2.2869 -1.5889
  988HK4    C1282945   3.889   9.887   6.940 -0.7968 -0.4073  0.0033
  988HK4     H582946   3.884   9.837   7.037 -0.2958 -2.1431 -0.8488
  988HK4    C1382947   3.934   9.816   6.829 -0.6027 -0.2844  0.0028
  988HK4     H682948   3.911   9.709   6.845  0.2091 -0.2911  1.2322
  988HK4     C782949   3.901  10.239   6.810 -0.5381 -0.1632  0.2319
  988HK4     O282950   3.898  10.308   6.912 -0.6747 -0.1064  0.1907
  988HK4     C482951   3.932  10.308   6.683 -0.2255 -0.0290  0.3833
  988HK4     C382952   3.923  10.446   6.670 -0.3838 -0.1078 -0.3981
  988HK4     H382953   3.890  10.505   6.757 -0.4171  0.2823 -0.6728
  988HK4     C282954   3.955  10.523   6.559 -0.4800 -0.2177 -0.5033
  988HK4     H282955   3.971  10.630   6.580 -4.7699 -0.0934  2.8423
  988HK4     C182956   4.004  10.448   6.453  0.2123 -0.2324 -0.1796
  988HK4     H182957   4.026  10.501   6.359  0.8826  0.4663  0.3716
  988HK4     C682958   4.018  10.308   6.457 -0.2635 -0.2669  0.2531
  988HK4     C582959   3.972  10.236   6.568 -0.8481 -0.0299  0.1661
  988HK4    C1082960   3.957  10.088   6.576  0.3987 -0.1645  0.0807
  988HK4     O182961   3.897  10.034   6.483 -0.4136 -0.1841  0.6146
  988HK4    C1682962   4.118  10.247   6.367 -0.1694  0.0099  0.1724
  988HK4    C1582963   4.246  10.305   6.359 -0.0490 -0.2450  0.2287
  988HK4     H782964   4.278  10.379   6.435  0.9075 -0.7746  0.3387
  988HK4    C2082965   4.339  10.266   6.264  0.0547 -0.3517  0.3749
  988HK4     H982966   4.425  10.329   6.244 -0.1924 -0.8818 -2.6312
  988HK4    C1982967   4.304  10.163   6.177  0.1215  0.4547 -0.6152
  988HK4    C1882968   4.175  10.097   6.178  0.4378 -0.1591  0.1346
  988HK4    C1782969   4.088  10.151   6.272  0.4354 -0.1126  0.1053
  988HK4     H882970   3.983  10.136   6.246  0.6192 -0.5477 -0.3963
  988HK4     N182971   4.174   9.977   6.103  0.0761 -0.1258  0.0840
  988HK4    C2182972   4.308   9.953   6.069  0.0847  0.0662 -0.0217
  988HK4    C2282973   4.389  10.064   6.115  0.2484 -0.4845  1.0346
  988HK4    C2682974   4.528  10.053   6.122  0.4032  0.5113 -0.2834
  988HK4    H1382975   4.597  10.131   6.154 -0.9090  1.4456  0.2989
  988HK4    C2582976   4.594   9.938   6.081 -0.4255  0.0453 -0.3179
  988HK4    H1282977   4.701   9.929   6.102 -1.2609  0.0395  4.5169
  988HK4    C2482978   4.512   9.837   6.033 -0.2103 -0.0315 -0.5307
  988HK4    H1182979   4.558   9.741   6.004 -3.0061 -2.2574  1.9803
  988HK4    C2382980   4.373   9.837   6.029 -0.2003  0.1877 -0.8349
  988HK4    H1082981   4.308   9.753   6.003 -2.5495  1.9795 -0.8746
  988HK4    C3982982   4.068   9.888   6.083  0.3944 -0.5238  0.1750
  988HK4    C4182983   4.064   9.802   5.971 -0.8142  0.0760 -0.2577
  988HK4    H2182984   4.113   9.836   5.879  0.6463 -2.2245 -0.3872
  988HK4    C4282985   3.987   9.686   5.969 -1.0704  0.2394  0.0745
  988HK4    H2282986   4.003   9.606   5.896 -0.7043 -0.2640  0.6920
  988HK4    C4382987   3.901   9.657   6.075 -0.3073 -0.2583  0.5663
  988HK4    H2382988   3.839   9.569   6.067  0.5997 -0.6683 -2.6002
  988HK4    C4482989   3.901   9.738   6.188  0.3680  0.0697  0.3366
  988HK4    H2482990   3.835   9.725   6.275 -2.6933  2.9502 -1.4168
  988HK4    C4582991   3.983   9.850   6.189  0.5002 -0.0287  0.4385
  988HK4    H2582992   3.997   9.890   6.291  1.5766 -0.5281  0.4946
  989HK4    H2882993   8.898   6.082   2.360  2.6311  0.1279 -2.3832
  989HK4    C4882994   8.859   6.181   2.337 -0.0820 -0.3770 -0.2112
  989HK4    C4782995   8.820   6.253   2.449  0.4602  0.1409 -0.3510
  989HK4    H2782996   8.849   6.228   2.553 -0.5164 -1.5638 -0.4588
  989HK4    C4682997   8.741   6.366   2.431 -0.0734 -0.1819 -0.0807
  989HK4    H2682998   8.722   6.435   2.515  2.2676  0.8044 -0.3010
  989HK4    C4082999   8.701   6.414   2.305 -0.1587  0.4806  0.1985
  989HK4    C5083000   8.752   6.346   2.193 -0.1328 -0.0649  0.5443
  989HK4    H3083001   8.718   6.358   2.090 -1.8139 -1.9746  0.8370
  989HK4    C4983002   8.838   6.237   2.211  0.5837  0.4066  0.0233
  989HK4    H2983003   8.881   6.185   2.125 -0.8554  1.3410 -1.2864
  989HK4     N283004   8.580   6.484   2.289 -0.2796  0.3728  0.6132
  989HK4    C3083005   8.470   6.488   2.376 -0.1332  0.3315  0.7994
  989HK4    C2983006   8.416   6.389   2.457 -0.2246 -0.1457  0.1494
  989HK4    H1583007   8.464   6.292   2.442  1.2650  0.6779 -0.4231
  989HK4    C2883008   8.302   6.405   2.535 -0.0787 -0.0039  0.3343
  989HK4    C2783009   8.230   6.525   2.521 -0.1917 -0.1345 -0.1849
  989HK4    H1483010   8.134   6.550   2.568 -0.3721 -2.9697  1.0221
  989HK4    C3283011   8.277   6.627   2.438 -0.4212 -0.2891 -0.5076
  989HK4    H1683012   8.216   6.712   2.406  2.5521  1.0463 -2.8337
  989HK4    C3183013   8.394   6.611   2.366 -0.0492  0.3109 -0.0406
  989HK4    C3483014   8.465   6.687   2.264  0.2943  0.2311  0.1404
  989HK4    C3383015   8.571   6.602   2.213 -0.0503 -0.0604 -0.0958
  989HK4    C3583016   8.651   6.653   2.111 -0.5969  0.2616 -0.3637
  989HK4    H1783017   8.728   6.590   2.067  1.5238  1.9800  0.7579
  989HK4    C3683018   8.638   6.785   2.067  0.1367  0.4762  0.0560
  989HK4    H1883019   8.689   6.804   1.972 -0.9998  0.5003 -0.5543
  989HK4    C3783020   8.546   6.867   2.131 -0.8501 -0.2733 -0.3909
  989HK4    H1983021   8.555   6.975   2.117 -1.5425  0.2203  2.7712
  989HK4    C3883022   8.452   6.818   2.220 -0.4500  0.2124  0.3012
  989HK4    H2083023   8.392   6.882   2.285 -2.8205 -1.1622 -0.4558
  989HK4    C1483024   8.277   6.299   2.635  0.1745 -0.1511  0.2420
  989HK4     C983025   8.153   6.268   2.692 -0.0708 -0.3080 -0.3555
  989HK4     C883026   8.148   6.256   2.832 -0.3618 -0.1977 -0.3564
  989HK4    C1183027   8.264   6.270   2.907 -0.3089 -0.3450 -0.4156
  989HK4     H483028   8.250   6.287   3.015 -3.1048 -0.2968 -0.7469
  989HK4    C1283029   8.388   6.279   2.846  0.0432  0.3888  0.3974
  989HK4     H583030   8.479   6.295   2.906  1.6063 -0.3969 -1.6852
  989HK4    C1383031   8.397   6.287   2.707  0.1166  0.1889  0.3915
  989HK4     H683032   8.492   6.255   2.662  1.0692  2.7099  0.5312
  989HK4     C783033   8.032   6.189   2.897 -0.2151 -0.1591 -0.0487
  989HK4     O283034   8.030   6.181   3.019  1.0036 -0.3535 -0.0415
  989HK4     C483035   7.929   6.132   2.807 -0.6005  0.2107  0.1601
  989HK4     C383036   7.825   6.061   2.868 -0.4640  0.1869  0.3655
  989HK4     H383037   7.833   6.023   2.970 -1.0527  0.2972  0.4534
  989HK4     C283038   7.722   6.007   2.792 -0.6589  0.8027  0.1852
  989HK4     H283039   7.637   5.965   2.848 -1.2679 -0.6625 -1.7833
  989HK4     C183040   7.732   6.007   2.654 -0.2997  0.3120  0.2130
  989HK4     H183041   7.647   5.965   2.599 -1.4715  3.5003 -0.5067
  989HK4     C683042   7.841   6.068   2.588 -0.7361  0.5356 -0.3048
  989HK4     C583043   7.935   6.135   2.667 -0.1958 -0.7409  0.1556
  989HK4    C1083044   8.040   6.222   2.606 -0.5888 -0.1918  0.2644
  989HK4     O183045   8.004   6.303   2.521  0.2312 -0.4107 -0.2884
  989HK4    C1683046   7.838   6.062   2.441  0.4647  0.7679 -0.3425
  989HK4    C1583047   7.715   6.060   2.373  0.3706 -0.0970 -0.1641
  989HK4     H783048   7.628   6.099   2.428  0.5480 -1.4213  1.0896
  989HK4    C2083049   7.699   6.027   2.239 -0.3371 -0.6685  0.0611
  989HK4     H983050   7.600   6.025   2.192 -0.2731 -0.8024 -0.0665
  989HK4    C1983051   7.810   5.996   2.162 -0.2548  0.0482 -0.1108
  989HK4    C1883052   7.938   5.992   2.231 -0.2980 -0.3876 -0.0575
  989HK4    C1783053   7.949   6.023   2.366  0.4233  0.6684 -0.3500
  989HK4     H883054   8.050   6.010   2.405  0.2461  1.4227  0.3725
  989HK4     N183055   8.042   5.961   2.140 -0.1275  0.0604 -0.0166
  989HK4    C2183056   7.979   5.938   2.016  0.1328 -0.4745 -0.0495
  989HK4    C2283057   7.835   5.952   2.026  0.2188  0.4670 -0.1618
  989HK4    C2683058   7.755   5.947   1.913  0.2653  0.1450 -0.1790
  989HK4    H1383059   7.651   5.979   1.926  0.4116  0.9288 -0.9459
  989HK4    C2583060   7.814   5.918   1.791  0.3230 -0.2355 -0.0623
  989HK4    H1283061   7.756   5.932   1.699  1.3625 -0.9297 -0.8404
  989HK4    C2483062   7.951   5.900   1.780  0.3261 -0.2512  0.0172
  989HK4    H1183063   7.995   5.869   1.684 -0.9426 -0.7096 -0.4342
  989HK4    C2383064   8.034   5.915   1.890  0.3860  0.5352 -0.1293
  989HK4    H1083065   8.141   5.910   1.875  0.3986 -1.4133  0.4233
  989HK4    C3983066   8.178   5.985   2.159 -0.0977 -0.1888  0.0657
  989HK4    C4183067   8.281   5.917   2.090  0.3349  0.2272  0.2954
  989HK4    H2183068   8.244   5.830   2.034  0.0415  0.8203 -0.4441
  989HK4    C4283069   8.413   5.960   2.083  0.5087 -0.3539 -0.0108
  989HK4    H2283070   8.493   5.911   2.025  1.8929  1.0165  0.7253
  989HK4    C4383071   8.445   6.083   2.138  0.5733 -0.4220  0.1079
  989HK4    H2383072   8.547   6.122   2.143  0.5058 -0.2478  0.1030
  989HK4    C4483073   8.343   6.160   2.192  0.4162  0.1986 -1.0548
  989HK4    H2483074   8.365   6.254   2.245  1.4794 -1.5588  1.7570
  989HK4    C4583075   8.215   6.111   2.211  0.6770 -0.2228 -0.3771
  989HK4    H2583076   8.138   6.183   2.243  2.5418  1.3970  0.5239
  990HK4    H2883077   3.577   8.809   5.176  0.6313 -0.0535 -0.4979
  990HK4    C4883078   3.640   8.889   5.215  0.9675 -0.4456 -0.2368
  990HK4    C4783079   3.712   8.881   5.333 -0.1609 -0.1855  0.4742
  990HK4    H2783080   3.757   8.791   5.378 -0.1064 -0.9339 -1.0491
  990HK4    C4683081   3.763   8.998   5.389 -0.5115  0.0522  0.2954
  990HK4    H2683082   3.788   8.990   5.496 -0.8657  0.2536  0.3923
  990HK4    C4083083   3.753   9.123   5.325 -1.0327  0.0903  0.4513
  990HK4    C5083084   3.685   9.128   5.201 -0.0692 -0.0335 -0.0811
  990HK4    H3083085   3.668   9.225   5.152  1.5289 -0.7292 -2.1159
  990HK4    C4983086   3.615   9.015   5.161  0.8572 -0.5165 -0.3549
  990HK4    H2983087   3.536   9.023   5.085  0.1838 -1.0709  0.2728
  990HK4     N283088   3.782   9.247   5.384  0.4456 -0.0705  0.0709
  990HK4    C3083089   3.760   9.283   5.518 -0.1780  0.0098 -0.0533
  990HK4    C2983090   3.678   9.221   5.612 -0.3801  0.4628  0.0720
  990HK4    H1583091   3.622   9.133   5.580 -1.0100  1.8171 -2.7096
  990HK4    C2883092   3.675   9.266   5.743  0.3366 -0.8276  0.5454
  990HK4    C2783093   3.753   9.378   5.779 -0.7602  0.1017  0.0685
  990HK4    H1483094   3.762   9.395   5.887 -0.1255 -0.9761  0.1911
  990HK4    C3283095   3.825   9.447   5.683 -0.0902 -0.5444  0.1025
  990HK4    H1683096   3.886   9.535   5.705  1.4578 -1.6934  0.5031
  990HK4    C3183097   3.828   9.407   5.550  0.2231 -0.2224  0.0110
  990HK4    C3483098   3.890   9.455   5.428  0.6937 -0.0562  0.3157
  990HK4    C3383099   3.861   9.351   5.332 -0.1077  0.3636  0.0890
  990HK4    C3583100   3.907   9.368   5.201 -0.0442 -0.0636  0.0550
  990HK4    H1783101   3.875   9.296   5.125  1.3579 -0.6485 -0.0016
  990HK4    C3683102   3.981   9.480   5.166 -0.0248 -0.2394 -0.4717
  990HK4    H1883103   4.011   9.490   5.061 -0.0538 -0.3903 -0.4925
  990HK4    C3783104   4.005   9.580   5.259  0.3709  0.0712 -0.9045
  990HK4    H1983105   4.063   9.665   5.224 -0.7710  1.3025  0.1229
  990HK4    C3883106   3.962   9.568   5.391  0.3613 -0.2523 -0.9378
  990HK4    H2083107   3.982   9.642   5.468  1.4764 -2.6834  1.1451
  990HK4    C1483108   3.555   9.229   5.819 -0.1312 -0.2221  0.1082
  990HK4     C983109   3.491   9.320   5.905  0.2519  0.4612 -0.3267
  990HK4     C883110   3.437   9.272   6.026  0.2257  0.2403 -0.4231
  990HK4    C1183111   3.428   9.135   6.051  0.1085  0.3003 -0.1319
  990HK4     H483112   3.413   9.096   6.153  0.1841  2.9227  0.9203
  990HK4    C1283113   3.476   9.048   5.954 -0.6134 -0.2675  0.0136
  990HK4     H583114   3.456   8.941   5.968 -0.6704 -0.4296 -1.2158
  990HK4    C1383115   3.541   9.090   5.838  0.0555 -0.2011  0.4119
  990HK4     H683116   3.567   9.013   5.764  1.6488 -3.1257  3.8499
  990HK4     C783117   3.356   9.364   6.109 -0.3556 -0.3531 -0.3346
  990HK4     O283118   3.353   9.338   6.229  0.4286  0.5584 -0.1204
  990HK4     C483119   3.322   9.500   6.062  0.6797  0.2551  0.6390
  990HK4     C383120   3.230   9.577   6.132  0.4567  0.1196  0.4916
  990HK4     H383121   3.149   9.527   6.188  0.4092  1.8254  1.9667
  990HK4     C283122   3.223   9.714   6.111 -0.0079  0.0358  0.0744
  990HK4     H283123   3.162   9.794   6.155  1.3150  1.3734 -0.4650
  990HK4     C183124   3.315   9.770   6.023  0.1677  0.1223  0.3124
  990HK4     H183125   3.319   9.879   6.008  1.8445 -0.1538 -1.4938
  990HK4     C683126   3.404   9.696   5.942 -0.2046 -0.0349  0.0529
  990HK4     C583127   3.391   9.557   5.953 -0.2182 -0.0505 -0.0992
  990HK4    C1083128   3.464   9.461   5.866  0.1196  0.4297 -0.3492
  990HK4     O183129   3.441   9.488   5.748 -0.0546  0.3615 -0.3307
  990HK4    C1683130   3.485   9.773   5.846  0.2332 -0.3332  0.1861
  990HK4    C1583131   3.612   9.730   5.804  0.0974 -0.5306 -0.0203
  990HK4     H783132   3.669   9.653   5.859  0.4746 -0.0777  0.2300
  990HK4    C2083133   3.659   9.758   5.676 -0.2742  0.2054  0.0026
  990HK4     H983134   3.762   9.731   5.653 -0.7006 -2.1055  0.6917
  990HK4    C1983135   3.583   9.830   5.585  0.0448  0.5678  0.0202
  990HK4    C1883136   3.453   9.876   5.627  0.0616  0.4184  0.2340
  990HK4    C1783137   3.413   9.853   5.758  0.3720 -0.1621  0.2278
  990HK4     H883138   3.321   9.899   5.795  0.2888  0.1473 -0.3621
  990HK4     N183139   3.374   9.909   5.515  0.2770  0.0936 -0.0131
  990HK4    C2183140   3.456   9.899   5.400  0.5102  0.0990  0.1545
  990HK4    C2283141   3.585   9.847   5.441  0.5982  0.1822 -0.0211
  990HK4    C2683142   3.664   9.790   5.342  0.8581  0.0767  0.2451
  990HK4    H1383143   3.741   9.717   5.368 -1.1345 -2.4591 -0.7188
  990HK4    C2583144   3.621   9.782   5.209  0.0125  0.0501  0.5143
  990HK4    H1283145   3.678   9.732   5.131 -2.0037  0.3224 -1.1614
  990HK4    C2483146   3.496   9.828   5.170  0.0700 -0.0418  0.2288
  990HK4    H1183147   3.457   9.804   5.070  1.2978 -3.1835  0.4337
  990HK4    C2383148   3.418   9.890   5.267  0.2681  0.2364  0.2113
  990HK4    H1083149   3.325   9.931   5.229  0.8203  0.2175 -1.2048
  990HK4    C3983150   3.277  10.009   5.529  0.3411  0.1471  0.0529
  990HK4    C4183151   3.277  10.098   5.639 -0.2571  0.1244  0.0723
  990HK4    H2183152   3.362  10.100   5.709 -0.5923 -2.5015  0.5901
  990HK4    C4283153   3.172  10.187   5.659 -0.3855 -0.0255  0.0750
  990HK4    H2283154   3.175  10.271   5.730 -2.0837 -0.6238  0.8646
  990HK4    C4383155   3.066  10.187   5.570 -0.2199  0.6957 -0.1299
  990HK4    H2383156   2.992  10.267   5.569  0.2651  1.1854  1.7075
  990HK4    C4483157   3.054  10.090   5.471  0.3763  0.5565 -0.0657
  990HK4    H2483158   2.959  10.077   5.418  0.9442  2.3160 -1.5641
  990HK4    C4583159   3.159  10.001   5.453 -0.0616 -0.1231  0.6982
  990HK4    H2583160   3.149   9.913   5.387  0.3861  1.4306 -1.5293
  991HK4    H2883161   3.820   5.330   5.410 -1.8782  1.2918  0.3832
  991HK4    C4883162   3.759   5.241   5.402 -0.2077  0.0882  0.6483
  991HK4    C4783163   3.764   5.148   5.504  0.3533 -0.6212 -0.0213
  991HK4    H2783164   3.824   5.173   5.593  0.0205  0.8486 -0.2049
  991HK4    C4683165   3.669   5.046   5.503 -0.3497  0.0231  0.6033
  991HK4    H2683166   3.672   4.986   5.596 -0.9916  1.0981  1.3329
  991HK4    C4083167   3.572   5.037   5.401 -0.0045 -0.0385  0.2795
  991HK4    C5083168   3.581   5.119   5.287  0.7311 -0.7306 -0.1715
  991HK4    H3083169   3.512   5.103   5.203 -0.0341 -0.7402  0.4518
  991HK4    C4983170   3.674   5.222   5.293 -0.0716 -0.0377  0.5629
  991HK4    H2983171   3.678   5.290   5.207  0.4410  0.7199  1.1821
  991HK4     N283172   3.449   4.975   5.426 -0.1798  0.2167  0.0459
  991HK4    C3083173   3.388   4.955   5.551 -0.2866 -0.2258 -0.0774
  991HK4    C2983174   3.385   5.047   5.655  0.2258 -0.5780  0.2572
  991HK4    H1583175   3.459   5.127   5.656 -0.2957 -0.0944  0.4739
  991HK4    C2883176   3.294   5.044   5.760 -0.4993  0.8132 -0.3145
  991HK4    C2783177   3.205   4.935   5.759 -0.2217  0.5796 -0.0169
  991HK4    H1483178   3.127   4.932   5.837  0.8884 -1.3828  1.0566
  991HK4    C3283179   3.198   4.844   5.655 -0.0560  0.1862  0.3173
  991HK4    H1683180   3.124   4.764   5.649  1.2231 -0.8874 -2.1204
  991HK4    C3183181   3.283   4.855   5.545 -0.3071 -0.2138  0.0813
  991HK4    C3483182   3.277   4.806   5.409 -0.3974  0.2451 -0.0804
  991HK4    C3383183   3.381   4.883   5.343  0.1240 -0.1853  0.2410
  991HK4    C3583184   3.416   4.852   5.212  0.2890  0.1637  0.2014
  991HK4    H1783185   3.511   4.882   5.168  0.1981 -0.3827 -0.3740
  991HK4    C3683186   3.345   4.753   5.146 -0.2612  0.7087 -0.0233
  991HK4    H1883187   3.389   4.712   5.053  1.2758  0.1059  0.9494
  991HK4    C3783188   3.249   4.676   5.210 -0.0006  0.2811 -0.1433
  991HK4    H1983189   3.180   4.619   5.147  0.5490 -0.7959  0.2281
  991HK4    C3883190   3.217   4.699   5.344 -0.1481  0.1507 -0.1565
  991HK4    H2083191   3.166   4.617   5.396  1.4343  0.1865  1.4997
  991HK4    C1483192   3.303   5.131   5.878  0.9364 -0.0270  0.2051
  991HK4     C983193   3.247   5.098   6.002  0.7464 -0.0113  0.1226
  991HK4     C883194   3.171   5.195   6.071  0.3744  0.0789 -0.4168
  991HK4    C1183195   3.180   5.325   6.022 -0.2862  0.4654  0.4671
  991HK4     H483196   3.104   5.396   6.057  1.9334  2.3325  1.7062
  991HK4    C1283197   3.261   5.369   5.917 -0.4784 -0.4184 -0.0533
  991HK4     H583198   3.296   5.473   5.913 -3.3299  0.5595 -1.1669
  991HK4    C1383199   3.316   5.266   5.842  0.7972  0.0103  0.2896
  991HK4     H683200   3.401   5.299   5.780  0.8011 -2.5744 -1.1506
  991HK4     C783201   3.091   5.161   6.190  0.1490  0.3422 -0.4912
  991HK4     O283202   3.049   5.257   6.254 -0.2844 -0.2015  0.0443
  991HK4     C483203   3.105   5.023   6.242  0.0045  0.3087 -0.5394
  991HK4     C383204   3.022   4.979   6.345  0.3257 -0.3611 -0.5706
  991HK4     H383205   2.918   5.014   6.347  0.3424 -0.3222 -0.4513
  991HK4     C283206   3.067   4.872   6.422 -0.2039 -0.3234 -0.2099
  991HK4     H283207   3.012   4.844   6.514 -2.8204  1.4193 -1.1804
  991HK4     C183208   3.195   4.821   6.405  0.0806  0.0231  0.8591
  991HK4     H183209   3.219   4.726   6.454 -0.5020 -0.7855 -0.3922
  991HK4     C683210   3.286   4.873   6.310 -0.4524 -0.1461  0.2542
  991HK4     C583211   3.229   4.961   6.218  0.2388  0.4153  0.3589
  991HK4    C1083212   3.284   4.976   6.080 -0.1956 -0.3140  0.1020
  991HK4     O183213   3.346   4.887   6.024  0.0617 -0.0155 -0.0871
  991HK4    C1683214   3.428   4.864   6.346 -0.3387  1.1112  0.1475
  991HK4    C1583215   3.479   4.775   6.443  0.2899  1.2180 -0.0826
  991HK4     H783216   3.417   4.691   6.477 -0.3351  0.7185 -2.3777
  991HK4    C2083217   3.607   4.781   6.497  0.3731 -0.3680 -0.0823
  991HK4     H983218   3.635   4.718   6.581 -2.4797 -1.9873 -0.3100
  991HK4    C1983219   3.699   4.872   6.446  0.2952 -0.4189 -0.3110
  991HK4    C1883220   3.653   4.964   6.343  0.2649  0.2146  0.2634
  991HK4    C1783221   3.522   4.953   6.296  0.2283  0.5874  0.2772
  991HK4     H883222   3.496   5.025   6.219 -1.4975 -0.0746  0.2290
  991HK4     N183223   3.765   5.030   6.288  0.2348 -0.1756 -0.2695
  991HK4    C2183224   3.875   4.987   6.364 -0.0087  0.1336  0.2547
  991HK4    C2283225   3.842   4.889   6.466  0.2253 -0.1993  0.0121
  991HK4    C2683226   3.925   4.864   6.574  0.0127 -0.3851  0.1313
  991HK4    H1383227   3.906   4.780   6.641  3.0172 -0.9012  0.4154
  991HK4    C2583228   4.037   4.945   6.587 -0.3794  0.1372  0.2930
  991HK4    H1283229   4.108   4.925   6.668  1.0187 -0.1458 -0.9687
  991HK4    C2483230   4.068   5.047   6.498  0.2016 -0.2984 -0.0096
  991HK4    H1183231   4.134   5.131   6.523  1.6091 -0.7881 -1.9551
  991HK4    C2383232   3.993   5.060   6.381 -0.0928  0.2738  0.2409
  991HK4    H1083233   3.999   5.157   6.334 -1.2293  0.8415  1.2306
  991HK4    C3983234   3.761   5.138   6.200 -0.5458 -0.2804 -0.3672
  991HK4    C4183235   3.650   5.224   6.182 -0.5096 -0.1282  0.1219
  991HK4    H2183236   3.575   5.248   6.259 -1.0343  2.1580 -1.0519
  991HK4    C4283237   3.632   5.296   6.064  0.4435 -0.1166 -0.0188
  991HK4    H2283238   3.573   5.389   6.062 -1.4018 -1.2934 -1.6786
  991HK4    C4383239   3.730   5.295   5.966  0.7823  0.1846  0.3149
  991HK4    H2383240   3.739   5.368   5.886 -1.4963 -0.1365 -0.2520
  991HK4    C4483241   3.843   5.214   5.980  0.2245 -0.6685 -0.0604
  991HK4    H2483242   3.908   5.200   5.893 -0.0675 -0.6271 -0.2851
  991HK4    C4583243   3.854   5.136   6.095 -0.1440 -0.6382 -0.0028
  991HK4    H2583244   3.959   5.107   6.114  0.3444  1.0597 -0.0154
  992HK4    H2883245   8.867   6.911   5.472 -0.5169  0.4187 -0.0445
  992HK4    C4883246   8.931   6.931   5.558  0.1355  0.8858 -0.6411
  992HK4    C4783247   8.943   7.061   5.606 -0.6683  0.8637 -0.3791
  992HK4    H2783248   8.880   7.145   5.573 -0.8781  0.5669 -0.7366
  992HK4    C4683249   9.038   7.087   5.704 -0.2530 -0.3812 -0.4502
  992HK4    H2683250   9.050   7.187   5.748  1.8783  0.4066 -2.6919
  992HK4    C4083251   9.125   6.989   5.756 -0.1876  0.0186  0.1970
  992HK4    C5083252   9.105   6.859   5.706 -0.1004  0.0142  0.1759
  992HK4    H3083253   9.160   6.772   5.745  1.0614  1.3986  1.6840
  992HK4    C4983254   9.008   6.829   5.611 -0.1186  0.9636 -0.1160
  992HK4    H2983255   9.018   6.734   5.555  0.0841  2.5881 -2.9214
  992HK4     N283256   9.192   7.016   5.876  0.5575 -0.0121 -0.2045
  992HK4    C3083257   9.305   6.945   5.921  0.4773  0.2394  0.4077
  992HK4    C2983258   9.406   6.888   5.845 -0.0589 -0.2036  0.0191
  992HK4    H1583259   9.400   6.884   5.736  1.2933 -2.2106 -0.0090
  992HK4    C2883260   9.523   6.835   5.898 -0.1951 -0.6668 -0.1403
  992HK4    C2783261   9.548   6.851   6.036 -0.1892  0.0682 -0.2263
  992HK4    H1483262   9.638   6.814   6.087 -0.3648  1.2288  0.9313
  992HK4    C3283263   9.450   6.910   6.115  0.3387  0.2066  0.3248
  992HK4    H1683264   9.462   6.925   6.222 -2.0995 -0.6260  0.7346
  992HK4    C3183265   9.331   6.961   6.063 -0.2013 -0.7146  0.6494
  992HK4    C3483266   9.225   7.050   6.105  0.0852  0.1060 -0.3395
  992HK4    C3383267   9.138   7.075   5.993 -0.2731 -0.6992 -0.2412
  992HK4    C3583268   9.021   7.150   6.006  0.0658 -0.1468 -0.3702
  992HK4    H1783269   8.946   7.120   5.933 -0.8272 -0.3793  0.6392
  992HK4    C3683270   8.985   7.208   6.126 -0.1291 -0.1395 -0.4321
  992HK4    H1883271   8.904   7.283   6.129 -2.5416 -2.6657 -0.8000
  992HK4    C3783272   9.070   7.180   6.233 -0.1921  0.0244 -0.3389
  992HK4    H1983273   9.021   7.196   6.329 -1.0333  2.7295 -1.1740
  992HK4    C3883274   9.187   7.105   6.227 -0.2693 -0.0907 -0.3637
  992HK4    H2083275   9.255   7.101   6.312 -1.0089 -1.3101  0.1866
  992HK4    C1483276   9.605   6.740   5.821 -0.3497 -0.6511 -0.3246
  992HK4     C983277   9.679   6.636   5.879  0.0152 -0.1902  0.0398
  992HK4     C883278   9.814   6.618   5.843  0.1412  0.1804  0.3301
  992HK4    C1183279   9.866   6.681   5.730  0.0888  0.3573  0.4035
  992HK4     H483280   9.962   6.651   5.686 -0.0281  0.0917  0.3283
  992HK4    C1283281   9.783   6.763   5.653 -0.0133  0.0486  0.1848
  992HK4     H583282   9.808   6.816   5.560  0.9885  1.3437  1.1689
  992HK4    C1383283   9.655   6.791   5.700  0.0127  0.1858  0.1784
  992HK4     H683284   9.592   6.846   5.628 -0.2256  0.6585  0.7469
  992HK4     C783285   9.889   6.509   5.909 -0.0347  0.1457  0.4709
  992HK4     O283286  10.008   6.488   5.887 -0.2737 -0.4017 -0.3265
  992HK4     C483287   9.821   6.415   6.000 -0.2408 -0.2743 -0.1130
  992HK4     C383288   9.887   6.299   6.039  0.3037 -0.0332 -0.3237
  992HK4     H383289   9.955   6.240   5.975 -0.2391 -1.7948  0.6928
  992HK4     C283290   9.841   6.229   6.150  0.1902  0.4404 -0.0676
  992HK4     H283291   9.887   6.135   6.183  1.7945  0.9792 -0.7267
  992HK4     C183292   9.728   6.275   6.216 -0.1806  0.0193 -0.4114
  992HK4     H183293   9.696   6.216   6.303  1.3643 -0.0371  0.1188
  992HK4     C683294   9.656   6.390   6.180 -0.7218 -0.2080 -0.0782
  992HK4     C583295   9.701   6.454   6.064  0.1506  0.0757  0.4126
  992HK4    C1083296   9.618   6.542   5.977  0.1664 -0.0431  0.2732
  992HK4     O183297   9.498   6.516   5.966  0.1673  0.0319  0.0639
  992HK4    C1683298   9.589   6.456   6.293  0.0269  0.3321  0.0519
  992HK4    C1583299   9.606   6.412   6.426  0.2768 -0.2173 -0.1613
  992HK4     H783300   9.706   6.378   6.455  1.0807  1.6766 -0.6503
  992HK4    C2083301   9.500   6.421   6.516  0.0927  0.0488 -0.4010
  992HK4     H983302   9.507   6.374   6.614  0.2606 -1.3063 -1.0493
  992HK4    C1983303   9.378   6.471   6.475  0.0728  0.4034  0.0913
  992HK4    C1883304   9.363   6.530   6.343 -0.0591 -0.0549 -0.1010
  992HK4    C1783305   9.475   6.529   6.260  0.1126  0.4968  0.1239
  992HK4     H883306   9.470   6.599   6.177  0.9504  1.0059  0.4947
  992HK4     N183307   9.250   6.613   6.350 -0.5620 -0.7261 -0.1380
  992HK4    C2183308   9.193   6.608   6.479  0.2390  0.4922  0.2719
  992HK4    C2283309   9.270   6.517   6.561 -0.3074 -0.2470 -0.0355
  992HK4    C2683310   9.226   6.471   6.684 -0.0496  0.2061  0.2271
  992HK4    H1383311   9.263   6.375   6.722 -0.6787 -0.0854  0.1186
  992HK4    C2583312   9.108   6.523   6.737  0.1127  0.7329  0.0584
  992HK4    H1283313   9.067   6.487   6.831 -0.1569 -0.0102 -0.3420
  992HK4    C2483314   9.036   6.620   6.668  0.0589  0.7794  0.1798
  992HK4    H1183315   8.934   6.651   6.697 -0.8611 -0.4245 -1.6930
  992HK4    C2383316   9.078   6.656   6.541 -0.7131 -0.7526 -0.5154
  992HK4    H1083317   9.016   6.704   6.465  2.1581  1.9133 -1.2835
  992HK4    C3983318   9.185   6.664   6.236  0.0775  0.5647  0.0623
  992HK4    C4183319   9.097   6.773   6.246 -0.5188  0.0670  0.2802
  992HK4    H2183320   9.105   6.834   6.337 -0.3939  0.0605  0.2737
  992HK4    C4283321   9.012   6.810   6.142  0.0656  0.1697 -0.1588
  992HK4    H2283322   8.941   6.894   6.152 -1.3954 -0.8566 -1.6999
  992HK4    C4383323   9.016   6.745   6.019 -0.4171  0.3404 -0.2672
  992HK4    H2383324   8.958   6.772   5.932 -2.4278 -2.9332 -0.0437
  992HK4    C4483325   9.110   6.643   6.006 -0.2299  0.3991  0.5256
  992HK4    H2483326   9.104   6.589   5.910  2.5755  0.3530  0.3474
  992HK4    C4583327   9.193   6.603   6.110  0.2132  0.3721  0.1620
  992HK4    H2583328   9.248   6.508   6.098 -0.0257  0.3136 -0.5383
  993HK4    H2883329   5.763   1.570   6.152 -0.9416 -0.6285  0.1030
  993HK4    C4883330   5.787   1.504   6.068 -0.0531 -0.1974  0.0042
  993HK4    C4783331   5.691   1.433   5.997 -0.2774  0.5479 -0.4332
  993HK4    H2783332   5.585   1.461   6.005 -0.6264 -0.1131 -2.3910
  993HK4    C4683333   5.731   1.329   5.913  0.1520 -0.0192  0.4765
  993HK4    H2683334   5.653   1.275   5.858  1.8542 -2.7234  0.6328
  993HK4    C4083335   5.867   1.301   5.889 -0.0630 -0.3230 -0.3818
  993HK4    C5083336   5.960   1.382   5.957 -0.4564 -0.2916  0.1185
  993HK4    H3083337   6.068   1.369   5.944  0.0088  3.8572 -1.0701
  993HK4    C4983338   5.922   1.483   6.045 -0.0262  0.0059 -0.0362
  993HK4    H2983339   6.001   1.538   6.098  0.6237 -1.5764  0.6827
  993HK4     N283340   5.916   1.182   5.834 -0.0106 -0.2826 -0.4220
  993HK4    C3083341   5.842   1.062   5.839 -0.2569 -0.0961  0.3374
  993HK4    C2983342   5.746   1.020   5.932 -0.5476 -0.1014  0.0361
  993HK4    H1583343   5.719   1.089   6.011  1.1125  2.6687 -1.7177
  993HK4    C2883344   5.695   0.891   5.936 -0.0813 -0.2967 -0.1980
  993HK4    C2783345   5.739   0.803   5.835 -0.1664  0.5287 -0.9562
  993HK4    H1483346   5.691   0.704   5.832  2.3835 -0.7219 -2.2695
  993HK4    C3283347   5.843   0.839   5.750  0.4051  0.1219 -0.4336
  993HK4    H1683348   5.871   0.780   5.662 -1.6299 -1.7062  0.0938
  993HK4    C3183349   5.906   0.963   5.756  0.1537  0.2159  0.2829
  993HK4    C3483350   6.032   1.018   5.710  0.0317 -0.1697 -0.5319
  993HK4    C3383351   6.029   1.156   5.754  0.1740 -0.2805 -0.1632
  993HK4    C3583352   6.135   1.241   5.726  0.3128 -0.2223  0.5541
  993HK4    H1783353   6.134   1.349   5.740  1.1439  0.0139 -1.1644
  993HK4    C3683354   6.244   1.186   5.659  0.2359  0.5843 -0.2428
  993HK4    H1883355   6.334   1.247   5.639  0.1560  1.2609  1.3206
  993HK4    C3783356   6.249   1.053   5.621 -0.4758  0.5468 -0.2039
  993HK4    H1983357   6.339   1.005   5.582 -1.4270  0.6777 -2.6527
  993HK4    C3883358   6.142   0.967   5.642 -0.1749 -0.0201 -0.9738
  993HK4    H2083359   6.132   0.866   5.600 -0.7884 -0.2983 -0.1838
  993HK4    C1483360   5.648   0.846   6.068  0.2369  0.2626  0.1039
  993HK4     C983361   5.699   0.728   6.122 -0.3265 -0.2701 -0.5293
  993HK4     C883362   5.612   0.627   6.171 -0.3367 -0.0993 -0.1907
  993HK4    C1183363   5.476   0.654   6.174 -0.2634  0.2188  0.2506
  993HK4     H483364   5.404   0.575   6.200  0.6200 -0.1269  1.6743
  993HK4    C1283365   5.422   0.775   6.129 -0.0084  0.2492  0.0260
  993HK4     H583366   5.316   0.804   6.130 -0.4770 -1.3352  2.5863
  993HK4    C1383367   5.510   0.872   6.083  0.0904 -0.1247 -0.5681
  993HK4     H683368   5.469   0.966   6.046  1.5140  0.3273 -1.0344
  993HK4     C783369   5.666   0.498   6.217  0.0259 -0.3019 -1.1657
  993HK4     O283370   5.594   0.406   6.255  0.2794 -0.2480 -0.5564
  993HK4     C483371   5.813   0.481   6.210  0.1522  0.2976 -0.0499
  993HK4     C383372   5.873   0.355   6.208 -0.2342  0.0990  0.6682
  993HK4     H383373   5.806   0.268   6.205 -1.7848  1.2739 -0.0087
  993HK4     C283374   6.010   0.346   6.228 -0.0892 -0.0293 -0.3567
  993HK4     H283375   6.061   0.249   6.233  1.0630  0.6406  1.3023
  993HK4     C183376   6.085   0.459   6.260 -0.3056 -0.0733  0.3134
  993HK4     H183377   6.195   0.463   6.254 -0.3086 -0.4086 -0.0521
  993HK4     C683378   6.026   0.586   6.276 -0.1632 -0.0378  0.5572
  993HK4     C583379   5.895   0.595   6.228  0.2816  0.2907 -0.6106
  993HK4    C1083380   5.843   0.715   6.158 -0.3779  0.3035 -0.1067
  993HK4     O183381   5.926   0.800   6.126 -0.2785  0.3169  0.1899
  993HK4    C1683382   6.084   0.685   6.367  0.4560  0.2966 -0.1929
  993HK4    C1583383   6.210   0.667   6.427  0.3950 -0.5108 -0.3039
  993HK4     H783384   6.278   0.602   6.370  0.4464 -0.2952 -0.4851
  993HK4    C2083385   6.258   0.742   6.534 -0.5615 -0.0156 -0.2236
  993HK4     H983386   6.364   0.740   6.555 -0.6184 -1.3008 -0.0089
  993HK4    C1983387   6.183   0.850   6.580 -0.3221  0.0360  0.0460
  993HK4    C1883388   6.053   0.877   6.522 -0.5160 -0.1589  0.3890
  993HK4    C1783389   6.010   0.790   6.422  0.2976  0.2610 -0.3378
  993HK4     H883390   5.903   0.775   6.414  0.0337  0.8181  1.8658
  993HK4     N183391   6.000   0.996   6.575 -0.3886  0.1104 -0.0759
  993HK4    C2183392   6.086   1.042   6.677 -0.4630 -0.2925  0.1698
  993HK4    C2283393   6.201   0.954   6.680  0.0208  0.3227 -0.3094
  993HK4    C2683394   6.309   0.983   6.762  0.4042 -0.2628 -0.6005
  993HK4    H1383395   6.389   0.909   6.767  0.9392  0.1923 -2.0986
  993HK4    C2583396   6.312   1.099   6.838 -0.2291 -0.0614 -0.8742
  993HK4    H1283397   6.395   1.108   6.908  1.2789 -1.6083 -2.4131
  993HK4    C2483398   6.211   1.193   6.825 -0.0078  0.2680 -0.2654
  993HK4    H1183399   6.211   1.294   6.870  0.3905  0.7614 -1.3396
  993HK4    C2383400   6.103   1.164   6.742  0.0372 -0.1834 -0.1654
  993HK4    H1083401   6.033   1.244   6.717 -0.2665  0.5060  2.7095
  993HK4    C3983402   5.925   1.086   6.498 -0.2367 -0.0292 -0.3893
  993HK4    C4183403   5.836   1.174   6.562  0.6060  0.1806  0.5076
  993HK4    H2183404   5.800   1.158   6.665 -1.2531  2.1716  0.2184
  993HK4    C4283405   5.772   1.270   6.485 -0.1316 -0.3465  0.4607
  993HK4    H2283406   5.722   1.356   6.534  1.7369  0.6777  0.6272
  993HK4    C4383407   5.784   1.280   6.347 -0.2402 -0.3218  0.4523
  993HK4    H2383408   5.735   1.362   6.295  0.3386 -0.0999  0.2512
  993HK4    C4483409   5.868   1.191   6.281 -0.0782 -0.2532  0.5658
  993HK4    H2483410   5.864   1.188   6.172 -0.3165  2.7954  0.4528
  993HK4    C4583411   5.938   1.099   6.359  0.2679 -0.8269 -0.4214
  993HK4    H2583412   6.016   1.041   6.307 -0.6090 -2.0680 -0.3891
  994HK4    H2883413   2.502   6.865   5.477  0.3762  1.4120  0.5561
  994HK4    C4883414   2.421   6.870   5.404  0.2906 -0.2022  0.5270
  994HK4    C4783415   2.437   6.824   5.274 -0.5292  0.3920  0.2105
  994HK4    H2783416   2.536   6.815   5.226 -0.4892 -0.1447  0.3946
  994HK4    C4683417   2.324   6.818   5.194 -0.3288  0.1618 -0.0565
  994HK4    H2683418   2.322   6.743   5.113 -1.4891 -0.4014  0.4832
  994HK4    C4083419   2.195   6.853   5.240 -0.4088 -0.2160  0.0058
  994HK4    C5083420   2.188   6.899   5.373  0.3531 -0.5803  0.1784
  994HK4    H3083421   2.092   6.930   5.418  0.1441 -2.1534  0.8555
  994HK4    C4983422   2.299   6.915   5.454  0.3255  0.4790  0.0067
  994HK4    H2983423   2.287   6.949   5.558  0.8436  0.7017 -0.0031
  994HK4     N283424   2.088   6.870   5.153 -0.1386  0.3045 -0.2314
  994HK4    C3083425   2.093   6.901   5.015 -0.0728  0.1702 -0.2601
  994HK4    C2983426   2.201   6.951   4.943  0.1576  0.0798  0.0247
  994HK4    H1583427   2.295   6.969   4.996  1.1553 -1.1243 -1.2940
  994HK4    C2883428   2.198   6.956   4.804  0.0486  0.4280  0.0384
  994HK4    C2783429   2.073   6.934   4.743 -0.0788 -0.3014  0.5538
  994HK4    H1483430   2.071   6.922   4.634 -0.6178 -1.4800  0.6958
  994HK4    C3283431   1.957   6.902   4.814 -0.6023 -0.8959 -0.5639
  994HK4    H1683432   1.858   6.884   4.774 -1.3032 -0.0930  0.7746
  994HK4    C3183433   1.964   6.884   4.951 -0.0904  0.6934 -0.3682
  994HK4    C3483434   1.875   6.835   5.055  0.3580 -0.3632 -0.4820
  994HK4    C3383435   1.956   6.823   5.174  0.1758 -0.6568 -0.3860
  994HK4    C3583436   1.895   6.767   5.286 -0.3409  0.0551 -0.3109
  994HK4    H1783437   1.958   6.753   5.373  0.8598 -0.3350 -1.2214
  994HK4    C3683438   1.764   6.720   5.288 -0.1343 -0.5011  0.1318
  994HK4    H1883439   1.718   6.674   5.377 -1.5650  1.9942  0.7349
  994HK4    C3783440   1.693   6.724   5.169  0.4338  0.0324 -0.1952
  994HK4    H1983441   1.588   6.693   5.175  0.0373  1.0026 -2.0026
  994HK4    C3883442   1.748   6.778   5.054  0.0976  0.2109 -0.2731
  994HK4    H2083443   1.699   6.773   4.956  3.0670 -0.0474 -1.8199
  994HK4    C1483444   2.315   7.006   4.731  0.2689  0.3948  0.3642
  994HK4     C983445   2.313   7.076   4.610 -0.0586  0.9666  0.6982
  994HK4     C883446   2.430   7.089   4.531 -0.3963 -0.0623  0.0155
  994HK4    C1183447   2.549   7.042   4.585 -0.4545 -0.1346  0.0781
  994HK4     H483448   2.639   7.062   4.526 -1.4801  0.8593 -1.1684
  994HK4    C1283449   2.556   6.978   4.708  0.3245  0.0040  0.1057
  994HK4     H583450   2.658   6.968   4.748  0.0953 -0.6330  0.5485
  994HK4    C1383451   2.437   6.951   4.775  0.2600  0.1050  0.0320
  994HK4     H683452   2.443   6.876   4.855  2.9389  0.2835  0.0486
  994HK4     C783453   2.422   7.134   4.390  0.1326  0.1732  0.0579
  994HK4     O283454   2.526   7.130   4.326  0.0509 -0.2466 -0.0470
  994HK4     C483455   2.293   7.165   4.324 -0.0466 -0.4427  0.1136
  994HK4     C383456   2.295   7.180   4.186 -0.4657 -0.6587  0.0829
  994HK4     H383457   2.385   7.207   4.130 -1.2029 -0.8122 -1.2027
  994HK4     C283458   2.177   7.169   4.113 -0.1445 -0.1452 -0.5173
  994HK4     H283459   2.160   7.176   4.005  0.7129 -2.4454 -0.8425
  994HK4     C183460   2.066   7.146   4.194 -0.2645  0.7171 -0.4356
  994HK4     H183461   1.972   7.125   4.142 -0.1473 -0.0867 -0.3310
  994HK4     C683462   2.059   7.138   4.335 -0.3031  0.6005 -0.4442
  994HK4     C583463   2.179   7.155   4.406 -0.3365 -0.0166 -0.2369
  994HK4    C1083464   2.191   7.140   4.554  0.1125  0.4982 -0.2219
  994HK4     O183465   2.123   7.211   4.628 -0.2549  0.0920 -0.1664
  994HK4    C1683466   1.950   7.061   4.396  0.3772 -0.1238 -0.1393
  994HK4    C1583467   1.898   6.953   4.322 -0.4243 -0.1147  0.4034
  994HK4     H783468   1.965   6.907   4.248 -0.4613  0.0316  0.2785
  994HK4    C2083469   1.768   6.906   4.329 -0.4308 -0.2205 -0.3197
  994HK4     H983470   1.734   6.819   4.274 -0.6048  0.6013 -1.5281
  994HK4    C1983471   1.677   6.971   4.413 -0.1454  0.4685 -0.5375
  994HK4    C1883472   1.730   7.070   4.504  0.0246 -0.4398  0.3645
  994HK4    C1783473   1.859   7.118   4.484 -0.1436 -0.3628 -0.5228
  994HK4     H883474   1.892   7.210   4.533 -1.5768 -0.1053 -0.0130
  994HK4     N183475   1.630   7.115   4.593 -0.4211  0.3091 -0.5122
  994HK4    C2183476   1.513   7.045   4.559 -0.1859 -0.4440  0.2299
  994HK4    C2283477   1.538   6.952   4.450 -0.1757  0.5465 -0.6161
  994HK4    C2683478   1.445   6.854   4.417  0.1101  0.0746 -0.0330
  994HK4    H1383479   1.469   6.782   4.340  0.5261 -0.5910  0.7110
  994HK4    C2583480   1.326   6.845   4.489 -0.0566 -0.1127 -0.3326
  994HK4    H1283481   1.253   6.770   4.460  0.4771 -0.1157 -1.7144
  994HK4    C2483482   1.292   6.939   4.585  0.2673 -0.2599 -0.0763
  994HK4    H1183483   1.211   6.921   4.657  0.5854 -0.0463  0.3455
  994HK4    C2383484   1.386   7.037   4.615 -0.0776 -0.1069  0.5200
  994HK4    H1083485   1.364   7.112   4.691 -1.2737  2.7260 -2.5123
  994HK4    C3983486   1.655   7.201   4.701  0.2478 -0.4170 -0.0846
  994HK4    C4183487   1.557   7.276   4.770  0.1204 -0.2507 -0.4478
  994HK4    H2183488   1.457   7.293   4.726  0.4382  3.1030 -0.0212
  994HK4    C4283489   1.576   7.332   4.896  0.0443 -0.2151 -0.4518
  994HK4    H2283490   1.496   7.390   4.943 -0.6269  0.0580 -1.8847
  994HK4    C4383491   1.703   7.328   4.953 -0.2871 -1.1207  0.2281
  994HK4    H2383492   1.718   7.377   5.049 -2.1768  0.2064 -0.1070
  994HK4    C4483493   1.802   7.254   4.888  0.1941 -0.2474 -0.0399
  994HK4    H2483494   1.904   7.249   4.929  1.8159  0.6491 -3.7716
  994HK4    C4583495   1.777   7.186   4.770 -0.0854 -0.9161  0.4006
  994HK4    H2583496   1.853   7.114   4.738  0.7638  0.8293 -1.6037
  995HK4    H2883497   7.832   9.833   4.980 -0.3990  0.8324 -1.1965
  995HK4    C4883498   7.837   9.941   4.965  0.3885  1.0135  0.2641
  995HK4    C4783499   7.733  10.004   4.898  0.0682 -0.1077 -0.2931
  995HK4    H2783500   7.627   9.977   4.915  0.3692 -0.3911  1.2428
  995HK4    C4683501   7.763  10.118   4.824 -0.3108  0.0371 -0.2207
  995HK4    H2683502   7.672  10.176   4.803 -0.5590  0.1137  0.9879
  995HK4    C4083503   7.891  10.176   4.818 -0.3347  0.1271  0.0885
  995HK4    C5083504   7.994  10.111   4.889 -0.1852  0.2494 -0.0129
  995HK4    H3083505   8.094  10.156   4.897 -0.6641  1.5263 -1.0973
  995HK4    C4983506   7.964   9.999   4.966  0.5878  0.5716  0.7681
  995HK4    H2983507   8.036   9.963   5.041 -1.2296 -0.3569  2.1229
  995HK4     N283508   7.921  10.267   4.716  0.3387  0.1091  0.2688
  995HK4    C3083509   7.853  10.286   4.594  0.2861 -0.2831  0.2371
  995HK4    C2983510   7.782  10.200   4.511  0.7875 -0.0836 -0.4055
  995HK4    H1583511   7.761  10.101   4.550 -1.0812  0.1362 -0.8103
  995HK4    C2883512   7.753  10.225   4.378 -0.8244 -0.3696 -0.1210
  995HK4    C2783513   7.786  10.356   4.337  0.4053 -0.5204  0.3773
  995HK4    H1483514   7.761  10.382   4.233 -1.8174 -0.9649  0.7854
  995HK4    C3283515   7.842  10.454   4.419 -0.3220  0.3593 -0.1716
  995HK4    H1683516   7.861  10.555   4.383  0.0326  1.1053  2.0332
  995HK4    C3183517   7.878  10.422   4.549 -0.0805 -0.4360 -0.4329
  995HK4    C3483518   7.978  10.487   4.632 -0.5541 -0.1159 -0.1097
  995HK4    C3383519   7.993  10.387   4.736  0.5759  0.0303 -0.1361
  995HK4    C3583520   8.049  10.436   4.853  0.6291  0.1988 -0.2282
  995HK4    H1783521   8.034  10.394   4.953  1.3226  0.5433  0.0234
  995HK4    C3683522   8.109  10.561   4.861  0.1231  0.4206  0.1075
  995HK4    H1883523   8.160  10.583   4.956  0.5403 -1.1408  0.2761
  995HK4    C3783524   8.108  10.650   4.754 -0.1409  0.6228  0.2793
  995HK4    H1983525   8.159  10.746   4.762  1.7793 -0.2219 -1.4547
  995HK4    C3883526   8.032  10.614   4.644 -0.2138 -0.3247  0.6291
  995HK4    H2083527   8.001  10.696   4.579  0.2883 -0.6776 -0.0626
  995HK4    C1483528   7.752  10.118   4.277  0.1559 -0.3780 -0.1341
  995HK4     C983529   7.804  10.133   4.148 -0.1176 -0.1766 -0.2252
  995HK4     C883530   7.741  10.088   4.030 -0.3725  0.5793 -0.3764
  995HK4    C1183531   7.622  10.019   4.050 -0.1661  0.3502  0.0876
  995HK4     H483532   7.559  10.006   3.960 -0.0055 -1.8584  0.2778
  995HK4    C1283533   7.577   9.980   4.176 -0.1479 -0.0519 -0.0289
  995HK4     H583534   7.505   9.898   4.178  0.0603 -0.3447 -2.4081
  995HK4    C1383535   7.637  10.037   4.288 -0.0486 -0.0821 -0.0668
  995HK4     H683536   7.608   9.998   4.386 -0.8028  1.0202  0.1471
  995HK4     C783537   7.792  10.134   3.899  0.5964 -0.0452 -0.2278
  995HK4     O283538   7.761  10.069   3.798  0.3946 -0.7532  0.2844
  995HK4     C483539   7.904  10.230   3.895  0.3079  0.2880 -0.2424
  995HK4     C383540   7.922  10.301   3.777  0.0413  0.3160 -0.2692
  995HK4     H383541   7.858  10.275   3.691 -1.3786 -0.4682  1.0055
  995HK4     C283542   8.023  10.397   3.769 -0.1282  0.5146 -0.0678
  995HK4     H283543   8.026  10.462   3.681  1.1232 -0.8355 -1.0468
  995HK4     C183544   8.119  10.401   3.869  0.1697  0.2583 -0.3447
  995HK4     H183545   8.198  10.475   3.850 -0.0094  0.2110 -1.3050
  995HK4     C683546   8.103  10.320   3.984  0.2176 -0.1957 -0.6602
  995HK4     C583547   7.990  10.241   4.006  0.1810  0.0055 -0.1170
  995HK4    C1083548   7.942  10.188   4.137  0.0296 -0.5790 -0.4031
  995HK4     O183549   8.018  10.151   4.226 -0.5126  0.3983  0.4802
  995HK4    C1683550   8.230  10.281   4.047 -0.3430 -0.3391  0.3874
  995HK4    C1583551   8.346  10.265   3.967 -0.0752  0.4057  0.6292
  995HK4     H783552   8.316  10.244   3.863  1.2733 -0.7997  0.4690
  995HK4    C2083553   8.479  10.264   4.007  0.0541 -0.4893  0.1662
  995HK4     H983554   8.564  10.261   3.939 -0.3787  1.0276 -0.4720
  995HK4    C1983555   8.496  10.275   4.144  0.2319 -0.0714  0.1101
  995HK4    C1883556   8.383  10.292   4.233  0.2744  0.4147  0.0712
  995HK4    C1783557   8.253  10.292   4.183  0.1961  0.0029  0.2711
  995HK4     H883558   8.177  10.311   4.258  0.5183  1.4681  0.2309
  995HK4     N183559   8.419  10.283   4.369 -0.2993  0.4900  0.2294
  995HK4    C2183560   8.559  10.265   4.370 -0.3940 -0.3250 -0.1601
  995HK4    C2283561   8.609  10.262   4.234  0.1681 -0.9807  0.0594
  995HK4    C2683562   8.739  10.217   4.212  0.4628  0.0226 -0.3008
  995HK4    H1383563   8.787  10.217   4.115  1.2946  1.1412  0.1075
  995HK4    C2583564   8.813  10.164   4.317 -0.4490 -0.0477  0.3204
  995HK4    H1283565   8.917  10.132   4.304 -0.2615  1.1254 -1.2923
  995HK4    C2483566   8.764  10.167   4.447  0.6659  0.3815  0.7385
  995HK4    H1183567   8.822  10.117   4.526 -0.0579 -1.0616  0.3803
  995HK4    C2383568   8.638  10.218   4.475 -0.1286 -0.8088 -0.5792
  995HK4    H1083569   8.601  10.228   4.577 -3.0037 -0.4065 -1.6097
  995HK4    C3983570   8.328  10.252   4.471 -0.2476  0.0538  0.1477
  995HK4    C4183571   8.367  10.304   4.597 -0.3951  0.3849  0.0581
  995HK4    H2183572   8.410  10.405   4.604  2.2111 -0.7095  0.2290
  995HK4    C4283573   8.338  10.229   4.710 -0.5097  0.0928 -0.1649
  995HK4    H2283574   8.381  10.263   4.805 -0.9465 -0.1403  0.1175
  995HK4    C4383575   8.271  10.107   4.701 -0.2231 -0.0882  0.0968
  995HK4    H2383576   8.256  10.047   4.790  0.2963  0.2568  0.4155
  995HK4    C4483577   8.233  10.054   4.578  0.8297  0.0346 -0.2803
  995HK4    H2483578   8.179   9.959   4.582  0.9305  0.0623  4.0801
  995HK4    C4583579   8.257  10.131   4.464  0.2979 -0.2263 -0.5665
  995HK4    H2583580   8.222  10.103   4.364  1.3648  1.5743 -1.4641
  996HK4    H2883581   6.130   1.753   4.467  0.5477  0.5972 -0.2704
  996HK4    C4883582   6.063   1.718   4.388  0.5783  0.5574 -0.2794
  996HK4    C4783583   6.123   1.648   4.284  0.4308 -0.2494  0.1819
  996HK4    H2783584   6.232   1.632   4.284  0.6411  1.1340  0.9564
  996HK4    C4683585   6.042   1.589   4.188 -0.1145  0.4912  0.1910
  996HK4    H2683586   6.083   1.520   4.113 -0.0884  1.7174 -0.9378
  996HK4    C4083587   5.902   1.610   4.188 -0.2238 -0.2499 -0.2438
  996HK4    C5083588   5.850   1.686   4.294  0.4093  0.0561 -0.1520
  996HK4    H3083589   5.752   1.732   4.276  0.0288 -0.7854 -0.2488
  996HK4    C4983590   5.925   1.732   4.402  0.5454  0.3148 -0.3571
  996HK4    H2983591   5.873   1.796   4.474 -1.8294 -1.4653 -0.4397
  996HK4     N283592   5.824   1.568   4.079 -0.2589  0.4144 -0.4733
  996HK4    C3083593   5.874   1.548   3.949  0.6796 -0.2508 -0.0166
  996HK4    C2983594   5.983   1.606   3.886  0.5765 -0.0549 -0.0153
  996HK4    H1583595   6.047   1.670   3.946  0.3752  0.1465 -0.0172
  996HK4    C2883596   6.026   1.557   3.763  0.1133 -0.0511 -0.1803
  996HK4    C2783597   5.950   1.458   3.698 -0.1104 -0.2533  0.3835
  996HK4    H1483598   5.984   1.412   3.604 -0.6019  1.2417 -0.5463
  996HK4    C3283599   5.826   1.417   3.746 -0.3198  0.1803  0.2151
  996HK4    H1683600   5.748   1.397   3.673  1.1069  1.8222 -1.8242
  996HK4    C3183601   5.789   1.457   3.874 -0.6235  1.0651 -0.1485
  996HK4    C3483602   5.686   1.420   3.969  0.0962 -0.1963  0.1363
  996HK4    C3383603   5.706   1.492   4.093  0.0885 -0.0308  0.0412
  996HK4    C3583604   5.608   1.481   4.191 -0.2140 -0.4249 -0.3051
  996HK4    H1783605   5.605   1.550   4.276 -1.8518 -2.8467  1.6840
  996HK4    C3683606   5.494   1.404   4.173 -0.2513 -0.4500  0.0369
  996HK4    H1883607   5.410   1.429   4.240 -0.1069 -1.7942  0.7365
  996HK4    C3783608   5.478   1.326   4.059 -0.2922 -0.3413 -0.0341
  996HK4    H1983609   5.399   1.252   4.055 -0.6732 -0.1123  2.4445
  996HK4    C3883610   5.575   1.337   3.960 -0.2803  0.3154  0.0450
  996HK4    H2083611   5.572   1.264   3.879  2.2471 -0.7307  0.8325
  996HK4    C1483612   6.150   1.606   3.701  0.1912 -0.2242 -0.1639
  996HK4     C983613   6.170   1.596   3.563 -0.2001 -0.8010 -0.1828
  996HK4     C883614   6.302   1.593   3.514 -0.2261  0.9610 -0.4133
  996HK4    C1183615   6.409   1.629   3.595  0.2804 -0.6368 -0.3551
  996HK4     H483616   6.505   1.667   3.556 -0.1321  1.3512  0.5284
  996HK4    C1283617   6.390   1.646   3.732  0.6383 -0.2535 -0.3520
  996HK4     H583618   6.469   1.671   3.804  0.0848  3.0056 -0.8059
  996HK4    C1383619   6.262   1.629   3.783  0.5722 -0.5001 -0.5992
  996HK4     H683620   6.254   1.602   3.890 -0.1762 -1.6278 -0.9290
  996HK4     C783621   6.335   1.533   3.383 -0.3179  0.0763 -0.0373
  996HK4     O283622   6.442   1.552   3.325 -0.3913  0.4033 -0.0638
  996HK4     C483623   6.220   1.471   3.315 -0.1312 -0.7294  0.3710
  996HK4     C383624   6.243   1.368   3.224  0.2902  0.2468 -0.6379
  996HK4     H383625   6.330   1.302   3.230 -0.0598 -0.2979 -1.4237
  996HK4     C283626   6.148   1.342   3.126 -0.0053  0.1039 -0.3147
  996HK4     H283627   6.165   1.265   3.050  1.3270  0.6908 -0.6250
  996HK4     C183628   6.033   1.420   3.129  0.2360  0.4482  0.1126
  996HK4     H183629   5.986   1.434   3.030  1.2652  0.9826 -0.3134
  996HK4     C683630   5.997   1.512   3.229 -0.1801  0.2758  0.1223
  996HK4     C583631   6.096   1.538   3.325 -0.1165 -0.6966  0.3280
  996HK4    C1083632   6.069   1.607   3.454 -0.1006  0.2553 -0.1747
  996HK4     O183633   5.990   1.702   3.461 -0.4991 -0.0507 -0.5227
  996HK4    C1683634   5.862   1.570   3.222 -0.3792 -0.1631  0.3176
  996HK4    C1583635   5.753   1.490   3.181 -0.5393  0.0998  0.2364
  996HK4     H783636   5.762   1.381   3.183 -0.1935  0.1162 -0.2224
  996HK4    C2083637   5.647   1.551   3.115 -0.5259  0.0461  0.1634
  996HK4     H983638   5.574   1.486   3.068  0.8737 -1.8275  0.5499
  996HK4    C1983639   5.635   1.690   3.115  0.1341  0.1086 -0.4352
  996HK4    C1883640   5.741   1.775   3.164 -0.1761  0.3072 -0.0996
  996HK4    C1783641   5.852   1.708   3.215 -0.4721 -0.1929 -0.1082
  996HK4     H883642   5.947   1.761   3.219 -0.9037  0.6656 -0.8829
  996HK4     N183643   5.703   1.911   3.167  0.0822  0.3827 -0.1923
  996HK4    C2183644   5.570   1.914   3.122  0.0510 -0.2762 -0.1585
  996HK4    C2283645   5.526   1.781   3.085 -0.1214 -0.1679 -0.3461
  996HK4    C2683646   5.401   1.768   3.024 -0.0476 -0.1612 -0.5051
  996HK4    H1383647   5.360   1.668   3.013 -0.5783  0.1413 -1.2808
  996HK4    C2583648   5.326   1.882   2.997  0.3043  0.2619  0.2691
  996HK4    H1283649   5.235   1.870   2.938  0.1526 -1.0525  0.7598
  996HK4    C2483650   5.370   2.010   3.029  0.0484  0.3664  0.2049
  996HK4    H1183651   5.311   2.100   3.007 -0.4299 -0.1343 -0.5822
  996HK4    C2383652   5.490   2.025   3.097 -0.2772 -0.2702  0.9293
  996HK4    H1083653   5.520   2.121   3.140  0.8567 -0.4745  0.5956
  996HK4    C3983654   5.763   2.007   3.249 -0.6054  0.2547  0.4640
  996HK4    C4183655   5.758   2.143   3.214  0.1380  0.1933  0.1079
  996HK4    H2183656   5.750   2.163   3.106 -0.8897  0.5016  0.2348
  996HK4    C4283657   5.792   2.245   3.302  0.4056 -0.0420  0.2769
  996HK4    H2283658   5.764   2.350   3.286 -0.3789  0.2736  3.3633
  996HK4    C4383659   5.850   2.205   3.422  0.3219  0.1612  0.3834
  996HK4    H2383660   5.889   2.282   3.489 -0.3525  0.9400 -0.1029
  996HK4    C4483661   5.856   2.073   3.465 -0.1232  0.0662  0.1573
  996HK4    H2483662   5.884   2.047   3.568  0.6628  1.2408  0.2541
  996HK4    C4583663   5.805   1.975   3.381  0.9357 -0.2523 -0.1286
  996HK4    H2583664   5.788   1.874   3.420  1.9889 -0.4904 -0.2740
  997HK4    H2883665   8.210   9.170   1.069 -1.2484 -0.3915 -0.3418
  997HK4    C4883666   8.263   9.166   0.974 -0.0111  0.4840  0.3166
  997HK4    C4783667   8.217   9.231   0.860 -0.0571  0.1668  0.1568
  997HK4    H2783668   8.174   9.330   0.879  0.0670  0.0952  0.8050
  997HK4    C4683669   8.278   9.207   0.737 -0.0188  0.5637  0.0977
  997HK4    H2683670   8.225   9.253   0.653 -0.4297 -0.1580 -0.0410
  997HK4    C4083671   8.389   9.121   0.723 -0.4094  0.1090 -0.2680
  997HK4    C5083672   8.434   9.056   0.840  0.1189  0.7828 -0.0902
  997HK4    H3083673   8.530   9.004   0.849 -0.5481 -0.8501 -2.0998
  997HK4    C4983674   8.372   9.080   0.962 -0.5526 -0.1289 -0.2429
  997HK4    H2983675   8.416   9.038   1.054 -0.3781  1.2184  0.3053
  997HK4     N283676   8.427   9.061   0.602 -0.2411  0.6035 -0.4607
  997HK4    C3083677   8.341   9.024   0.497 -0.0502 -0.0470 -0.3923
  997HK4    C2983678   8.204   9.036   0.479 -0.1482 -0.5285  0.0268
  997HK4    H1583679   8.139   9.069   0.560  0.4992  1.4461 -0.2380
  997HK4    C2883680   8.142   9.013   0.356 -0.2926  0.0471 -0.0106
  997HK4    C2783681   8.220   8.966   0.248  0.2318  0.2044  0.2976
  997HK4    H1483682   8.171   8.960   0.150 -2.1811  0.0185  1.4521
  997HK4    C3283683   8.355   8.940   0.265  0.1388 -0.4889 -0.0172
  997HK4    H1683684   8.422   8.897   0.191 -0.1999 -1.4388  0.2265
  997HK4    C3183685   8.415   8.964   0.388  0.0508 -0.7966  0.0878
  997HK4    C3483686   8.555   8.970   0.424  0.0862  0.0540 -0.1823
  997HK4    C3383687   8.556   9.029   0.557 -0.3060 -0.2605 -0.0380
  997HK4    C3583688   8.678   9.048   0.622 -0.3192 -0.3048  0.0031
  997HK4    H1783689   8.669   9.120   0.703  2.6055  0.4455 -0.2902
  997HK4    C3683690   8.800   9.016   0.562 -0.3706 -0.2625 -0.1224
  997HK4    H1883691   8.898   9.019   0.612 -0.5272 -2.6099  0.4150
  997HK4    C3783692   8.800   8.965   0.433  0.4824  0.1015 -0.2660
  997HK4    H1983693   8.894   8.952   0.379  0.8683 -3.8700  1.1561
  997HK4    C3883694   8.679   8.938   0.370  0.2723  0.5695 -0.0624
  997HK4    H2083695   8.686   8.890   0.272  0.4656 -1.2071  0.8077
  997HK4    C1483696   7.999   9.040   0.334 -0.3126 -0.3349 -0.3566
  997HK4     C983697   7.920   8.976   0.238 -0.0971 -0.4794 -0.4377
  997HK4     C883698   7.824   9.047   0.163 -0.2448 -0.1089  0.0960
  997HK4    C1183699   7.790   9.175   0.203  0.2911 -0.1192  0.5981
  997HK4     H483700   7.716   9.240   0.153 -0.2952 -0.8229  0.5408
  997HK4    C1283701   7.859   9.237   0.306  0.4745  0.4600  0.1306
  997HK4     H583702   7.832   9.342   0.327  0.4887 -0.0708  3.0338
  997HK4    C1383703   7.958   9.169   0.375 -0.3941 -0.5841  0.3666
  997HK4     H683704   8.011   9.221   0.456 -1.3159 -0.1672  0.7012
  997HK4     C783705   7.758   8.987   0.045 -0.1166 -0.2527  0.0971
  997HK4     O283706   7.721   9.059  11.200 -0.5858 -0.1528  0.3632
  997HK4     C483707   7.771   8.841   0.026 -0.6769 -0.2662 -0.2467
  997HK4     C383708   7.725   8.780  11.158 -0.2671 -0.5333 -0.2674
  997HK4     H383709   7.705   8.844  11.071 -0.2906 -0.3065 -0.0923
  997HK4     C283710   7.722   8.641  11.145 -0.7462 -0.5405 -0.0736
  997HK4     H283711   7.719   8.597  11.044  0.7696  0.1302 -0.4276
  997HK4     C183712   7.752   8.563   0.008  0.3446 -0.0676 -0.0255
  997HK4     H183713   7.748   8.453  11.244 -0.0846 -0.2248  1.4346
  997HK4     C683714   7.786   8.622   0.132 -0.7797 -0.0721  0.2888
  997HK4     C583715   7.817   8.758   0.131 -0.0086 -0.2446 -0.5215
  997HK4    C1083716   7.910   8.828   0.224  0.0102 -0.4988 -0.3524
  997HK4     O183717   7.995   8.755   0.274 -0.2985 -0.4518  0.2525
  997HK4    C1683718   7.732   8.557   0.252  0.6251 -0.3440  0.7717
  997HK4    C1583719   7.681   8.426   0.245  0.1027 -0.0831 -0.2891
  997HK4     H783720   7.745   8.354   0.193 -1.0523 -0.4239 -1.2595
  997HK4    C2083721   7.572   8.381   0.318 -0.5217  0.3749 -0.9308
  997HK4     H983722   7.538   8.280   0.293  0.7623  0.1839 -1.9228
  997HK4    C1983723   7.504   8.458   0.411 -0.4860  0.0789 -0.6571
  997HK4    C1883724   7.550   8.596   0.419 -0.3618  0.0243 -0.3822
  997HK4    C1783725   7.662   8.633   0.345 -0.3460  0.1000 -0.3178
  997HK4     H883726   7.709   8.728   0.372 -0.6077  0.3967 -0.8895
  997HK4     N183727   7.478   8.678   0.508 -0.2890 -0.2186 -0.0997
  997HK4    C2183728   7.381   8.589   0.559 -0.0136 -0.5529 -0.1635
  997HK4    C2283729   7.400   8.453   0.512  0.0855 -0.5664 -0.0923
  997HK4    C2683730   7.340   8.345   0.576  0.4552 -0.6661  0.0849
  997HK4    H1383731   7.315   8.252   0.527 -2.6322  0.3267 -0.3329
  997HK4    C2583732   7.269   8.373   0.693 -0.1426 -0.2570 -0.3732
  997HK4    H1283733   7.210   8.298   0.747 -0.7396 -0.4895 -1.3292
  997HK4    C2483734   7.263   8.502   0.744 -0.0795 -0.3425 -0.1470
  997HK4    H1183735   7.204   8.520   0.835 -0.5632  0.1000 -0.5474
  997HK4    C2383736   7.314   8.613   0.679  0.4834 -0.4559  0.0947
  997HK4    H1083737   7.297   8.712   0.721  0.1233  0.3815 -1.9615
  997HK4    C3983738   7.472   8.817   0.508 -0.1084 -0.2093 -0.5417
  997HK4    C4183739   7.490   8.885   0.386 -0.7903  0.4857 -0.2618
  997HK4    H2183740   7.478   8.825   0.295 -0.8341 -1.4446  0.9952
  997HK4    C4283741   7.535   9.016   0.382  0.8154 -0.0470 -0.0202
  997HK4    H2283742   7.565   9.050   0.282 -1.5860 -2.4834 -1.6241
  997HK4    C4383743   7.561   9.084   0.501  0.0139 -0.2925  0.3006
  997HK4    H2383744   7.612   9.180   0.495  0.1199 -0.3734 -0.0939
  997HK4    C4483745   7.541   9.023   0.625  0.4952 -0.4775  0.2899
  997HK4    H2483746   7.584   9.068   0.715 -0.1198  1.1402 -0.2058
  997HK4    C4583747   7.497   8.891   0.626  0.1708 -0.3789 -0.4945
  997HK4    H2583748   7.484   8.835   0.719 -0.4478  0.8776  0.1825
  998HK4    H2883749  10.547   0.682   9.799  0.5157 -0.3027  2.5023
  998HK4    C4883750  10.458   0.621   9.812 -0.6049  0.7335  0.1195
  998HK4    C4783751  10.384   0.581   9.702 -0.3480 -0.2544  0.3011
  998HK4    H2783752  10.410   0.622   9.604 -0.3829  3.9537  1.9628
  998HK4    C4683753  10.295   0.474   9.714 -0.1703 -0.4805 -0.3397
  998HK4    H2683754  10.236   0.447   9.625 -2.7358  0.5817  1.0072
  998HK4    C4083755  10.271   0.401   9.832 -0.2502  0.1434  0.0299
  998HK4    C5083756  10.341   0.451   9.944  0.7949 -0.5985 -0.2772
  998HK4    H3083757  10.335   0.400  10.041  1.4009 -1.2320 -0.5709
  998HK4    C4983758  10.428   0.559   9.933 -0.6389  0.6106  0.0478
  998HK4    H2983759  10.486   0.577  10.025 -0.7558  1.7639 -0.0909
  998HK4     N283760  10.163   0.313   9.846 -0.3300  0.2436  0.0414
  998HK4    C3083761  10.051   0.315   9.761 -0.2857  0.2024 -0.0224
  998HK4    C2983762   9.988   0.409   9.680 -0.1594  0.4549  0.1783
  998HK4    H1583763  10.025   0.512   9.683 -0.7813  0.7109 -0.9428
  998HK4    C2883764   9.891   0.379   9.586 -0.4935  0.0961  0.6310
  998HK4    C2783765   9.851   0.245   9.574 -0.0039 -0.0199  0.2697
  998HK4    H1483766   9.774   0.220   9.500  0.3929  2.8868 -1.1802
  998HK4    C3283767   9.890   0.151   9.669  0.4892 -0.3654 -0.2714
  998HK4    H1683768   9.841   0.054   9.677 -1.0239  0.3705 -0.3652
  998HK4    C3183769   9.987   0.185   9.763  0.4497 -0.1659 -0.3030
  998HK4    C3483770  10.066   0.105   9.855 -0.0655  0.2520  0.5074
  998HK4    C3383771  10.177   0.185   9.904  0.4082  0.1362 -0.3571
  998HK4    C3583772  10.274   0.117   9.975 -0.0075  0.1150  0.1891
  998HK4    H1783773  10.370   0.165   9.996 -0.2463  0.0470  1.5209
  998HK4    C3683774  10.268  11.228  10.000 -0.7412  0.1658  0.2999
  998HK4    H1883775  10.357  11.177  10.042 -1.1808 -1.2297 -0.4329
  998HK4    C3783776  10.161  11.151   9.957 -0.2037 -0.2475 -0.3073
  998HK4    H1983777  10.156  11.046   9.985 -1.0253  0.0608  0.7325
  998HK4    C3883778  10.063  11.218   9.885 -0.0128  0.0713 -0.2738
  998HK4    H2083779   9.969  11.168   9.861  1.9833 -4.0159 -0.0207
  998HK4    C1483780   9.844   0.479   9.489 -0.4060 -0.5051 -0.0299
  998HK4     C983781   9.723   0.485   9.419 -0.2237  0.7367 -0.2630
  998HK4     C883782   9.712   0.529   9.285  0.2532 -0.4299 -0.6930
  998HK4    C1183783   9.825   0.587   9.230 -0.0726  0.7180 -0.1592
  998HK4     H483784   9.836   0.604   9.122 -0.5145 -1.7664 -0.6260
  998HK4    C1283785   9.941   0.604   9.303  0.0564 -0.3436 -0.1165
  998HK4     H583786  10.026   0.654   9.254 -0.4062 -0.2807 -0.8592
  998HK4    C1383787   9.953   0.549   9.430 -0.4010 -0.6754 -0.2212
  998HK4     H683788  10.038   0.581   9.492 -0.8618  2.5516 -1.2033
  998HK4     C783789   9.594   0.500   9.200 -0.5643  0.7167  0.0293
  998HK4     O283790   9.582   0.561   9.094  0.8265  0.2680 -0.4018
  998HK4     C483791   9.484   0.422   9.261 -0.1638  0.5136  0.4913
  998HK4     C383792   9.389   0.374   9.172  0.2244 -0.2569  0.4787
  998HK4     H383793   9.411   0.378   9.064  1.4811  1.7626  0.7800
  998HK4     C283794   9.281   0.294   9.209 -0.9482  0.9773 -0.2154
  998HK4     H283795   9.206   0.244   9.146  0.4912 -1.9278  0.2947
  998HK4     C183796   9.280   0.263   9.344  0.3554 -0.8716 -0.6177
  998HK4     H183797   9.189   0.209   9.372 -0.3242  1.2703  1.5384
  998HK4     C683798   9.369   0.312   9.442 -0.4190 -0.1292 -0.2878
  998HK4     C583799   9.477   0.388   9.398  0.1238 -0.5811  0.2493
  998HK4    C1083800   9.596   0.433   9.476 -0.0229  0.4299 -0.0939
  998HK4     O183801   9.586   0.463   9.595 -0.1323  0.0909 -0.0142
  998HK4    C1683802   9.320   0.315   9.581 -0.2137 -0.1090 -0.2155
  998HK4    C1583803   9.187   0.352   9.612 -0.2575 -0.3950 -0.0651
  998HK4     H783804   9.130   0.396   9.529  0.8306  0.7934 -0.1996
  998HK4    C2083805   9.130   0.331   9.737 -0.0131 -0.0497  0.1107
  998HK4     H983806   9.026   0.361   9.745  0.7806  3.1268 -0.9576
  998HK4    C1983807   9.195   0.266   9.841 -0.0314  0.0444  0.1779
  998HK4    C1883808   9.334   0.234   9.813 -0.1756 -0.3723 -0.0729
  998HK4    C1783809   9.386   0.252   9.685 -0.1237  0.4205  0.0540
  998HK4     H883810   9.487   0.214   9.669  0.1339  0.7375  0.8725
  998HK4     N183811   9.401   0.216   9.936 -0.0248  0.0154 -0.0979
  998HK4    C2183812   9.304   0.218  10.038  0.2154  0.4160  0.1245
  998HK4    C2283813   9.173   0.250   9.984 -0.0212 -0.5446  0.1134
  998HK4    C2683814   9.064   0.288  10.061 -0.1715 -0.5988 -0.0753
  998HK4    H1383815   8.971   0.301  10.005 -0.7292  3.1819  1.5435
  998HK4    C2583816   9.070   0.276  10.199  1.0294  0.1319 -0.0469
  998HK4    H1283817   8.977   0.270  10.255 -0.5977 -0.0700 -2.6566
  998HK4    C2483818   9.190   0.239  10.257  0.5885 -0.2263  0.6526
  998HK4    H1183819   9.197   0.233  10.366  1.7874 -1.2933  0.5361
  998HK4    C2383820   9.301   0.214  10.177  0.2507 -0.0002  0.1135
  998HK4    H1083821   9.396   0.197  10.227  0.0741 -1.1084  0.0862
  998HK4    C3983822   9.526   0.153   9.944  0.3384  0.6640 -0.5090
  998HK4    C4183823   9.610   0.183  10.053 -0.3497  0.1151  0.1812
  998HK4    H2183824   9.594   0.276  10.110 -0.6988 -1.3521  2.5581
  998HK4    C4283825   9.709   0.093  10.092 -0.5616 -0.2954 -0.2147
  998HK4    H2283826   9.763   0.126  10.183 -0.3596 -2.3685  0.4452
  998HK4    C4383827   9.731  11.220  10.028  0.9614  0.0367 -0.3373
  998HK4    H2383828   9.818  11.159  10.053 -1.0308 -3.1568 -0.9607
  998HK4    C4483829   9.651  11.189   9.919  0.2465 -0.6694  0.3815
  998HK4    H2483830   9.694  11.130   9.836  0.4069 -0.6305  0.4380
  998HK4    C4583831   9.554   0.031   9.878  0.5803 -0.0673  0.9029
  998HK4    H2583832   9.498   0.003   9.788 -2.2883 -0.0102  2.6033
  999HK4    H2883833   8.277   5.330   1.052  0.0404 -0.1395 -1.3494
  999HK4    C4883834   8.181   5.353   1.098  0.7538  0.0647  0.0618
  999HK4    C4783835   8.162   5.330   1.234  0.7607 -0.6604 -0.0591
  999HK4    H2783836   8.255   5.324   1.292 -0.1455 -0.4831  1.4481
  999HK4    C4683837   8.035   5.302   1.284  0.6380 -0.0632 -0.0452
  999HK4    H2683838   8.018   5.286   1.391 -1.6233 -0.7715 -0.4876
  999HK4    C4083839   7.918   5.300   1.205  0.4611 -0.9582  0.2312
  999HK4    C5083840   7.941   5.314   1.066  0.3730 -0.5873  0.2549
  999HK4    H3083841   7.858   5.284   1.000  0.4928  1.4426 -0.8731
  999HK4    C4983842   8.068   5.345   1.019  0.4412 -0.4172  0.5494
  999HK4    H2983843   8.085   5.337   0.911 -0.6528  1.8103  0.1786
  999HK4     N283844   7.788   5.287   1.254  0.2998  0.6688  0.2716
  999HK4    C3083845   7.752   5.219   1.372  0.1189  0.2179 -0.0419
  999HK4    C2983846   7.826   5.120   1.437  0.4230  0.4286 -0.0651
  999HK4    H1583847   7.916   5.086   1.386 -0.4271  0.0916 -1.3780
  999HK4    C2883848   7.780   5.061   1.554  0.1283 -0.2370 -0.5173
  999HK4    C2783849   7.653   5.096   1.604  0.4822  0.7968 -0.3418
  999HK4    H1483850   7.624   5.058   1.703 -1.0563  1.4562 -0.5259
  999HK4    C3283851   7.572   5.187   1.538 -0.5551  0.1162 -0.0116
  999HK4    H1683852   7.492   5.237   1.593 -0.2067  1.4136 -0.6734
  999HK4    C3183853   7.621   5.251   1.425 -0.2904 -0.7936 -0.4141
  999HK4    C3483854   7.576   5.349   1.328 -0.1051 -0.2498  0.0409
  999HK4    C3383855   7.675   5.365   1.223 -0.1057  0.0160  0.0832
  999HK4    C3583856   7.661   5.475   1.139 -0.1319 -0.0135  0.0483
  999HK4    H1783857   7.736   5.495   1.062 -0.5785  0.6104 -0.2237
  999HK4    C3683858   7.557   5.565   1.152 -0.2838 -0.1622 -0.1240
  999HK4    H1883859   7.556   5.656   1.091 -0.6180 -1.2724 -1.8135
  999HK4    C3783860   7.458   5.541   1.247 -0.5196  0.6366 -0.1656
  999HK4    H1983861   7.368   5.602   1.242 -1.3264 -0.3915  1.3129
  999HK4    C3883862   7.469   5.437   1.339 -0.1291 -0.1316 -1.0778
  999HK4    H2083863   7.416   5.447   1.433  2.0757  1.0242  0.0881
  999HK4    C1483864   7.838   4.933   1.598 -0.0098  0.0430  0.4863
  999HK4     C983865   7.783   4.820   1.659  0.6045 -0.6435 -0.2090
  999HK4     C883866   7.863   4.735   1.738  0.2900 -0.2821  0.5090
  999HK4    C1183867   8.002   4.743   1.731  0.2831 -0.1831  0.4650
  999HK4     H483868   8.057   4.665   1.787 -0.2117 -0.7199  0.2128
  999HK4    C1283869   8.057   4.844   1.653 -0.0708 -0.2023  0.1864
  999HK4     H583870   8.165   4.838   1.634  0.0795  0.4482  0.8002
  999HK4    C1383871   7.979   4.941   1.593 -0.0058 -0.3879 -0.1973
  999HK4     H683872   8.028   5.022   1.536 -0.7153  0.1102 -0.1203
  999HK4     C783873   7.802   4.632   1.825 -0.2428 -0.4059 -0.0058
  999HK4     O283874   7.871   4.557   1.894 -0.0233  0.1290  0.3604
  999HK4     C483875   7.655   4.618   1.823 -0.3083  0.2116  0.2457
  999HK4     C383876   7.595   4.522   1.904 -0.1827 -0.0803 -0.0096
  999HK4     H383877   7.650   4.461   1.976  0.6382 -0.4973 -0.9726
  999HK4     C283878   7.460   4.495   1.883  0.0883 -0.8986 -0.7580
  999HK4     H283879   7.408   4.443   1.964  1.5201  0.0473  0.7936
  999HK4     C183880   7.382   4.565   1.791 -0.3085  0.3027  0.4738
  999HK4     H183881   7.283   4.530   1.761 -0.0629 -1.6302  1.8605
  999HK4     C683882   7.436   4.677   1.723 -0.3342 -0.6053 -1.0651
  999HK4     C583883   7.575   4.691   1.733 -0.3981 -0.4973 -0.2497
  999HK4    C1083884   7.643   4.775   1.631  0.3594 -0.2939  0.4270
  999HK4     O183885   7.631   4.751   1.511  0.2606 -0.1800  0.4140
  999HK4    C1683886   7.336   4.779   1.690 -0.2946 -0.3544 -0.3972
  999HK4    C1583887   7.210   4.783   1.754 -0.1922 -0.3397 -0.1952
  999HK4     H783888   7.204   4.743   1.856 -0.5166  1.0125  0.3305
  999HK4    C2083889   7.101   4.849   1.699 -0.1035  0.2636  0.3335
  999HK4     H983890   7.003   4.834   1.744 -0.2801  2.5093  0.7586
  999HK4    C1983891   7.113   4.921   1.581  0.4948 -0.0721  0.1841
  999HK4    C1883892   7.242   4.916   1.515  0.4318  0.3016  0.0287
  999HK4    C1783893   7.351   4.857   1.576  0.3494  0.1407  0.0216
  999HK4     H883894   7.447   4.900   1.547  0.2075 -0.9233 -2.1672
  999HK4     N183895   7.234   4.970   1.385 -0.0704  0.0337 -0.0548
  999HK4    C2183896   7.098   5.000   1.362 -0.1367 -0.3090 -0.1141
  999HK4    C2283897   7.021   4.976   1.482  0.4125  0.0029  0.3025
  999HK4    C2683898   6.887   5.014   1.480  0.6676  0.8980 -0.0171
  999HK4    H1383899   6.820   4.989   1.563 -1.6447  1.1026 -1.7765
  999HK4    C2583900   6.822   5.055   1.364 -0.1472 -0.4604 -0.0509
  999HK4    H1283901   6.734   5.117   1.376  1.1050  1.4773 -0.7625
  999HK4    C2483902   6.899   5.058   1.248 -0.0298 -0.0124  0.0408
  999HK4    H1183903   6.845   5.098   1.160  0.3971 -0.5334 -0.4555
  999HK4    C2383904   7.036   5.034   1.243 -0.0671 -0.1965 -0.1182
  999HK4    H1083905   7.092   5.074   1.158 -2.3600  2.0147 -0.6704
  999HK4    C3983906   7.334   4.957   1.288  0.0997 -0.1669  0.1480
  999HK4    C4183907   7.344   5.065   1.196 -0.3008 -0.2340  0.0287
  999HK4    H2183908   7.317   5.167   1.226 -2.8973 -1.3075  1.6521
  999HK4    C4283909   7.430   5.049   1.089  0.5483  0.3835  0.6155
  999HK4    H2283910   7.451   5.134   1.021  0.1369 -0.1153 -0.1422
  999HK4    C4383911   7.511   4.938   1.071 -0.0440  0.0502 -0.0137
  999HK4    H2383912   7.580   4.928   0.987 -0.9082  0.2950 -0.7633
  999HK4    C4483913   7.504   4.835   1.164 -0.3021  0.1719  0.1001
  999HK4    H2483914   7.579   4.755   1.167  0.2827  0.6771 -0.8025
  999HK4    C4583915   7.409   4.840   1.265 -0.2449 -0.3950  0.1824
  999HK4    H2583916   7.391   4.747   1.322 -0.6645 -0.9694 -0.8774
 1000HK4    H2883917   6.427   6.668   1.828  0.9605  0.9718 -0.0109
 1000HK4    C4883918   6.400   6.666   1.722 -0.4803 -0.2910  0.3558
 1000HK4    C4783919   6.298   6.743   1.668  0.1206  0.0410 -0.3179
 1000HK4    H2783920   6.261   6.829   1.725  2.8517  0.5338  0.7605
 1000HK4    C4683921   6.250   6.725   1.538 -1.0693 -0.8126  0.2241
 1000HK4    H2683922   6.197   6.809   1.492 -0.0797 -0.9663 -1.2248
 1000HK4    C4083923   6.303   6.617   1.464  0.0595  0.0015 -0.1824
 1000HK4    C5083924   6.400   6.532   1.520  0.2266  0.1844 -0.1993
 1000HK4    H3083925   6.412   6.429   1.484 -1.5194  0.4403 -1.6137
 1000HK4    C4983926   6.454   6.566   1.643 -0.2220  0.1160  0.0163
 1000HK4    H2983927   6.528   6.500   1.692  0.2207  1.3608  1.0547
 1000HK4     N283928   6.249   6.574   1.342  0.0149  0.1945 -0.2304
 1000HK4    C3083929   6.117   6.610   1.307 -0.2015 -0.5435 -0.1928
 1000HK4    C2983930   5.998   6.603   1.378  0.0203 -0.5081  0.1820
 1000HK4    H1583931   6.001   6.618   1.486 -0.9077  2.4830 -0.1776
 1000HK4    C2883932   5.873   6.600   1.316  0.3568 -0.6940 -0.4894
 1000HK4    C2783933   5.870   6.640   1.181 -0.1301  0.1266 -0.2390
 1000HK4    H1483934   5.774   6.666   1.136 -0.0408  0.1400 -0.4213
 1000HK4    C3283935   5.986   6.658   1.106  0.0321 -0.9303 -0.2500
 1000HK4    H1683936   5.986   6.715   1.013 -0.1340  3.0663  2.0923
 1000HK4    C3183937   6.110   6.633   1.164  0.1957  0.2462 -0.0861
 1000HK4    C3483938   6.235   6.587   1.106  0.3475  0.0899  0.3562
 1000HK4    C3383939   6.316   6.552   1.220  0.6532  0.0938  0.1390
 1000HK4    C3583940   6.438   6.492   1.192  0.7739  0.6124 -0.4481
 1000HK4    H1783941   6.492   6.447   1.275 -0.0028  0.7253  0.1185
 1000HK4    C3683942   6.488   6.476   1.063  0.5521 -0.4399 -0.4074
 1000HK4    H1883943   6.575   6.411   1.049  1.3094  1.1498 -3.4818
 1000HK4    C3783944   6.415   6.530   0.957  0.1359  0.1185  0.1534
 1000HK4    H1983945   6.451   6.500   0.858  1.5682 -0.3841  0.8072
 1000HK4    C3883946   6.287   6.578   0.977 -0.0398 -0.3849  0.2319
 1000HK4    H2083947   6.224   6.613   0.895  2.7629 -1.2389 -2.3615
 1000HK4    C1483948   5.758   6.528   1.373 -0.0604  0.3479 -0.0114
 1000HK4     C983949   5.655   6.462   1.305  0.0261  0.2815 -0.0770
 1000HK4     C883950   5.531   6.441   1.368  0.1334 -1.0960 -0.3038
 1000HK4    C1183951   5.515   6.473   1.503  0.4475  0.2407 -0.5840
 1000HK4     H483952   5.420   6.445   1.551  1.9921 -0.5673  2.1116
 1000HK4    C1283953   5.621   6.528   1.575  0.1095 -0.3920  0.4011
 1000HK4     H583954   5.604   6.551   1.681 -1.0553 -2.1058  0.6171
 1000HK4    C1383955   5.742   6.553   1.511 -0.2238  0.2115 -0.0064
 1000HK4     H683956   5.828   6.567   1.577 -0.8193 -0.1274  0.8541
 1000HK4     C783957   5.422   6.378   1.289 -0.6145 -0.2809  0.0687
 1000HK4     O283958   5.307   6.391   1.331 -0.3740 -0.4449  0.7833
 1000HK4     C483959   5.446   6.320   1.155 -0.2267 -0.0718  0.0461
 1000HK4     C383960   5.343   6.268   1.079  0.3621 -0.6089 -0.3871
 1000HK4     H383961   5.237   6.279   1.106  0.3611  0.6547 -0.8941
 1000HK4     C283962   5.367   6.215   0.952 -0.4128 -0.7744 -0.4678
 1000HK4     H283963   5.293   6.142   0.916 -0.8511  0.0566 -1.2729
 1000HK4     C183964   5.490   6.230   0.891  0.0515 -0.2765  0.5792
 1000HK4     H183965   5.516   6.173   0.801  1.1249 -0.0625  0.7448
 1000HK4     C683966   5.587   6.311   0.955  0.0990 -0.0425  0.2079
 1000HK4     C583967   5.570   6.342   1.090 -0.1278 -0.1615  0.2062
 1000HK4    C1083968   5.680   6.389   1.178 -0.0862 -0.3027  0.2313
 1000HK4     O183969   5.793   6.340   1.168 -0.0109 -0.4360  1.6804
 1000HK4    C1683970   5.707   6.329   0.872  0.0790 -0.2169  0.1408
 1000HK4    C1583971   5.784   6.446   0.888  0.3150 -0.3256 -0.1965
 1000HK4     H783972   5.733   6.537   0.923  1.0662 -0.5364  1.5109
 1000HK4    C2083973   5.914   6.461   0.841  0.3435 -0.0021 -0.0195
 1000HK4     H983974   5.973   6.553   0.849 -0.7815  0.7916 -0.5972
 1000HK4    C1983975   5.962   6.359   0.760  0.2115 -0.2448  0.2073
 1000HK4    C1883976   5.896   6.231   0.750  0.4734 -0.3817  0.2304
 1000HK4    C1783977   5.768   6.224   0.805  0.2502  0.1129 -0.2194
 1000HK4     H883978   5.717   6.128   0.807  0.1136  0.1794 -0.5385
 1000HK4     N183979   5.977   6.134   0.687  0.3045 -0.2988 -0.1198
 1000HK4    C2183980   6.101   6.194   0.656  0.2138 -0.1055 -0.1095
 1000HK4    C2283981   6.088   6.334   0.692  0.0755 -0.1218 -0.0910
 1000HK4    C2683982   6.196   6.418   0.670  0.0173 -0.0265 -0.0200
 1000HK4    H1383983   6.180   6.523   0.645  2.4806 -0.0204 -1.6812
 1000HK4    C2583984   6.314   6.363   0.620 -0.3688 -0.1973 -0.7376
 1000HK4    H1283985   6.400   6.426   0.598 -1.6753  1.3261 -1.7080
 1000HK4    C2483986   6.329   6.230   0.586  0.5431 -0.1422 -0.5479
 1000HK4    H1183987   6.426   6.188   0.554  1.5288  0.8863  1.0449
 1000HK4    C2383988   6.221   6.145   0.605  0.4271  0.1592  0.1374
 1000HK4    H1083989   6.220   6.047   0.558 -1.2245  0.1800  0.0890
 1000HK4    C3983990   5.937   6.002   0.666 -0.2497 -0.1882  0.2281
 1000HK4    C4183991   5.987   5.937   0.551  0.0305 -0.0982  0.3003
 1000HK4    H2183992   6.005   5.996   0.460 -1.6912  1.3423  0.8568
 1000HK4    C4283993   5.977   5.800   0.533  0.8205 -0.2029  0.6286
 1000HK4    H2283994   6.020   5.753   0.443  0.8395  0.7520  0.1293
 1000HK4    C4383995   5.921   5.726   0.637  0.4681 -0.8055  0.0168
 1000HK4    H2383996   5.897   5.621   0.627  2.1629 -1.0120 -2.0947
 1000HK4    C4483997   5.888   5.787   0.757  0.2952 -0.1638 -0.3532
 1000HK4    H2483998   5.834   5.731   0.835 -0.5640  1.2813  0.1282
 1000HK4    C4583999   5.889   5.925   0.774  0.0471 -0.2428  0.3221
 1000HK4    H2584000   5.849   5.987   0.856 -2.4501  1.3619 -2.0336
 1001HK4    H2884001   5.587  10.107   4.632  0.8646  0.5214 -0.7931
 1001HK4    C4884002   5.622  10.202   4.673  0.3752  0.2326  0.3153
 1001HK4    C4784003   5.539  10.312   4.653 -0.5709 -0.4797  0.2492
 1001HK4    H2784004   5.449  10.309   4.590 -1.6216  3.2639  1.4312
 1001HK4    C4684005   5.558  10.426   4.730 -0.6253 -0.6612  0.5361
 1001HK4    H2684006   5.482  10.505   4.720  3.2742  3.4144  1.2992
 1001HK4    C4084007   5.664  10.443   4.822 -0.9816 -0.6932  0.9549
 1001HK4    C5084008   5.752  10.334   4.830  0.0639  0.0317 -0.5616
 1001HK4    H3084009   5.847  10.348   4.884 -1.1148 -0.2837  1.6333
 1001HK4    C4984010   5.729  10.216   4.760  0.4241 -0.6109  0.3935
 1001HK4    H2984011   5.800  10.132   4.769  0.9217 -0.4607 -1.7034
 1001HK4     N284012   5.656  10.538   4.924 -0.1696  0.3322  0.0687
 1001HK4    C3084013   5.773  10.583   4.989  0.3002 -0.8646  0.0637
 1001HK4    C2984014   5.896  10.607   4.930 -0.3135  0.5454 -0.6673
 1001HK4    H1584015   5.927  10.539   4.851  0.7557  1.0985 -0.7300
 1001HK4    C2884016   5.999  10.674   4.995 -0.0677 -0.1858 -0.2930
 1001HK4    C2784017   5.969  10.702   5.130  0.0686 -0.2274 -0.2537
 1001HK4    H1484018   6.040  10.765   5.185  1.8039 -3.1258  0.9405
 1001HK4    C3284019   5.850  10.672   5.195  0.1626 -0.2952 -0.1095
 1001HK4    H1684020   5.836  10.688   5.302  1.2433  1.3370 -0.1993
 1001HK4    C3184021   5.741  10.620   5.126  0.0029  0.3186 -0.3238
 1001HK4    C3484022   5.600  10.590   5.145  0.2334 -0.6825 -0.1999
 1001HK4    C3384023   5.550  10.546   5.016 -0.4690  0.3102 -0.2731
 1001HK4    C3584024   5.419  10.499   5.012 -0.2064 -0.4120 -0.3793
 1001HK4    H1784025   5.380  10.465   4.916  0.8188  0.6439 -1.1809
 1001HK4    C3684026   5.333  10.501   5.121  0.1743  0.3899 -0.0963
 1001HK4    H1884027   5.230  10.466   5.108  1.4108 -3.4563 -0.1089
 1001HK4    C3784028   5.380  10.556   5.240 -0.1496  0.1477  0.1432
 1001HK4    H1984029   5.309  10.578   5.321  0.1212  1.6093  0.0082
 1001HK4    C3884030   5.515  10.584   5.255 -0.1401  0.4013 -0.4310
 1001HK4    H2084031   5.536  10.627   5.353  1.4458 -0.7951 -0.2321
 1001HK4    C1484032   6.139  10.676   4.950 -0.0267 -1.0806 -0.2007
 1001HK4     C984033   6.254  10.666   5.029  0.0923 -0.0346 -0.2425
 1001HK4     C884034   6.373  10.729   4.986  0.0561  0.1190 -0.1136
 1001HK4    C1184035   6.374  10.797   4.864  0.1883  0.2986 -0.0147
 1001HK4     H484036   6.469  10.841   4.833  0.0511  2.7050  2.7055
 1001HK4    C1284037   6.264  10.804   4.779  0.1834  0.5435  0.0121
 1001HK4     H584038   6.252  10.869   4.691  2.4938 -0.3399 -0.9730
 1001HK4    C1384039   6.153  10.732   4.821  0.6025  0.1093  0.3772
 1001HK4     H684040   6.063  10.751   4.760  0.9671  1.4136  0.2520
 1001HK4     C784041   6.499  10.708   5.060 -0.1301  0.1058  0.2039
 1001HK4     O284042   6.602  10.775   5.047 -0.0974  0.2777  1.3061
 1001HK4     C484043   6.499  10.598   5.158  0.2223  0.1482  0.2526
 1001HK4     C384044   6.614  10.546   5.216  0.1692  0.2421  0.4431
 1001HK4     H384045   6.711  10.564   5.168  0.9251 -1.4199  1.2782
 1001HK4     C284046   6.622  10.466   5.330  0.2744  0.3014  0.4797
 1001HK4     H284047   6.699  10.387   5.335 -1.3521 -1.4201 -0.5579
 1001HK4     C184048   6.506  10.452   5.405 -0.1293  0.1516 -0.1719
 1001HK4     H184049   6.507  10.390   5.495 -1.1164  0.7869  0.2856
 1001HK4     C684050   6.383  10.497   5.353 -0.3059 -0.4051 -0.2453
 1001HK4     C584051   6.383  10.561   5.229  0.0901  0.4430  0.1890
 1001HK4    C1084052   6.259  10.575   5.146  0.4688 -0.3756 -0.5229
 1001HK4     O184053   6.193  10.472   5.136 -0.3411  0.0910  0.0326
 1001HK4    C1684054   6.283  10.527   5.457 -0.1152 -0.1204 -0.1453
 1001HK4    C1584055   6.311  10.542   5.595  0.1612  0.3313 -0.2514
 1001HK4     H784056   6.415  10.551   5.631  0.4441 -1.3627 -0.6199
 1001HK4    C2084057   6.213  10.525   5.692  0.2232 -0.2605 -0.2959
 1001HK4     H984058   6.235  10.543   5.797 -0.2974 -0.4531 -0.1578
 1001HK4    C1984059   6.082  10.487   5.666  0.0498 -0.1541  0.4027
 1001HK4    C1884060   6.050  10.462   5.527  0.1888 -0.0576  0.3522
 1001HK4    C1784061   6.151  10.490   5.436 -0.2472  0.2808 -0.0280
 1001HK4     H884062   6.110  10.522   5.340 -0.1978 -1.4617 -0.6532
 1001HK4     N184063   5.921  10.405   5.517  0.0535  0.2694  0.2021
 1001HK4    C2184064   5.879  10.383   5.650 -0.0761  0.4915  0.1992
 1001HK4    C2284065   5.972  10.438   5.746  0.2253 -0.4596  0.4604
 1001HK4    C2684066   5.940  10.428   5.881 -0.2779  0.4483  0.4146
 1001HK4    H1384067   6.016  10.453   5.955 -0.7289  1.5094  0.5308
 1001HK4    C2584068   5.815  10.381   5.920 -0.2027  0.0291  0.1531
 1001HK4    H1284069   5.779  10.374   6.023 -0.9950 -1.3191 -0.2014
 1001HK4    C2484070   5.730  10.321   5.828 -0.1199  0.6071 -0.3004
 1001HK4    H1184071   5.632  10.285   5.863  0.7002  1.0384  2.6141
 1001HK4    C2384072   5.761  10.324   5.693 -0.2622  0.4745 -0.3366
 1001HK4    H1084073   5.689  10.271   5.630  1.2346 -0.1529 -1.5311
 1001HK4    C3984074   5.863  10.358   5.399 -0.1627  0.2342  0.3238
 1001HK4    C4184075   5.724  10.342   5.388 -0.1035  0.0425 -0.1547
 1001HK4    H2184076   5.659  10.392   5.462 -0.2490 -0.2234 -0.1011
 1001HK4    C4284077   5.673  10.272   5.279  0.0717 -0.4682  0.0928
 1001HK4    H2284078   5.565  10.253   5.269 -0.0921  1.0206 -1.0428
 1001HK4    C4384079   5.757  10.221   5.181  0.1191  0.4072 -0.3215
 1001HK4    H2384080   5.704  10.181   5.094 -0.6644  0.3190  0.1920
 1001HK4    C4484081   5.894  10.243   5.184  0.1142  0.4089 -0.0949
 1001HK4    H2484082   5.958  10.206   5.102 -0.1224  0.7689 -0.4420
 1001HK4    C4584083   5.946  10.307   5.296 -0.3084  0.1834  0.2303
 1001HK4    H2584084   6.056  10.313   5.294 -0.3168  0.4875  0.4756
 1002HK4    H2884085   6.920  11.011   1.948 -0.1976 -2.9448  0.7228
 1002HK4    C4884086   6.845  11.042   2.020  0.2222 -0.4366  0.1507
 1002HK4    C4784087   6.711  11.054   1.985  0.1087 -0.5200  0.5545
 1002HK4    H2784088   6.685  11.021   1.883 -2.0234  1.4573  0.4230
 1002HK4    C4684089   6.616  11.103   2.074  0.0619 -0.2909  0.3789
 1002HK4    H2684090   6.509  11.099   2.046  0.2480 -2.9236 -0.0516
 1002HK4    C4084091   6.646  11.138   2.207  0.2325 -0.0429  0.2758
 1002HK4    C5084092   6.781  11.115   2.241  0.2461 -0.3856 -0.0070
 1002HK4    H3084093   6.805  11.127   2.347 -1.2890  3.5143  0.0004
 1002HK4    C4984094   6.878  11.070   2.152  0.4999  0.2800 -0.0704
 1002HK4    H2984095   6.982  11.044   2.176 -0.0234 -0.8605  0.9801
 1002HK4     N284096   6.572  11.232   2.280 -0.2894 -0.0845 -0.1934
 1002HK4    C3084097   6.472   0.071   2.231 -0.3319 -0.0038  0.0347
 1002HK4    C2984098   6.466   0.144   2.112  0.3788  0.0527  0.0310
 1002HK4    H1584099   6.546   0.125   2.040 -0.0794 -0.5860 -0.3157
 1002HK4    C2884100   6.365   0.233   2.081  0.2344 -0.0247  0.2717
 1002HK4    C2784101   6.257   0.237   2.171  0.5226  0.1543  0.6132
 1002HK4    H1484102   6.160   0.275   2.135 -2.0823 -3.1774  3.7686
 1002HK4    C3284103   6.258   0.166   2.290  0.0066  0.6225  0.8989
 1002HK4    H1684104   6.190   0.185   2.373  0.4253 -1.3194  1.7165
 1002HK4    C3184105   6.368   0.091   2.329  0.0810  0.4553  0.3800
 1002HK4    C3484106   6.409   0.018   2.448  0.4409  0.2253  0.1165
 1002HK4    C3384107   6.537  11.209   2.415  0.0539 -0.4759 -0.1720
 1002HK4    C3584108   6.598  11.130   2.512  0.4618 -0.1904 -0.1910
 1002HK4    H1784109   6.663  11.052   2.471 -0.4918 -1.6097  0.9368
 1002HK4    C3684110   6.539  11.111   2.636  0.2587  1.0247 -0.0998
 1002HK4    H1884111   6.580  11.040   2.709  1.7632  1.8761 -0.0810
 1002HK4    C3784112   6.423  11.177   2.674 -0.0897  0.3597 -0.0071
 1002HK4    H1984113   6.385  11.179   2.776 -1.3840  0.4709 -0.4836
 1002HK4    C3884114   6.357   0.002   2.576 -0.5907 -0.6213 -0.4034
 1002HK4    H2084115   6.258   0.038   2.606 -0.8617 -1.5058 -0.2046
 1002HK4    C1484116   6.393   0.339   1.983 -0.8211  0.1605  0.1718
 1002HK4     C984117   6.336   0.467   1.982  0.0886  0.5679 -0.0269
 1002HK4     C884118   6.294   0.530   1.863 -0.5253  0.0041 -0.1132
 1002HK4    C1184119   6.315   0.464   1.743  0.2631  0.1414 -0.0577
 1002HK4     H484120   6.241   0.485   1.664 -1.0510 -0.1183  1.0758
 1002HK4    C1284121   6.387   0.345   1.736  0.2931  0.1291  0.4612
 1002HK4     H584122   6.385   0.300   1.636  1.2470  1.2752 -0.1026
 1002HK4    C1384123   6.429   0.289   1.856  0.6476  0.4303  0.4809
 1002HK4     H684124   6.523   0.232   1.851  1.2650  1.3214  1.6203
 1002HK4     C784125   6.269   0.676   1.860  0.2233  0.1369  0.0155
 1002HK4     O284126   6.217   0.726   1.761  0.5365  0.1533 -0.1414
 1002HK4     C484127   6.277   0.755   1.986 -0.3886  0.0030  0.1372
 1002HK4     C384128   6.279   0.894   1.978  0.2835  0.0134  0.5098
 1002HK4     H384129   6.264   0.941   1.880 -0.4474 -1.7691 -0.2517
 1002HK4     C284130   6.280   0.971   2.094  0.2006  0.4482  0.2191
 1002HK4     H284131   6.286   1.081   2.097 -1.1438  0.4747  2.6985
 1002HK4     C184132   6.281   0.904   2.215 -0.5607 -0.0847 -0.0620
 1002HK4     H184133   6.294   0.962   2.308 -0.1362 -3.4976  2.0899
 1002HK4     C684134   6.273   0.764   2.228 -0.2351 -0.1000 -0.0283
 1002HK4     C584135   6.282   0.689   2.110  0.1955 -0.1517  0.0339
 1002HK4    C1084136   6.327   0.547   2.108 -0.3158 -0.3260  0.5180
 1002HK4     O184137   6.412   0.521   2.192 -0.1590 -0.3303  0.3587
 1002HK4    C1684138   6.257   0.706   2.362 -0.3297  0.5242  0.2314
 1002HK4    C1584139   6.176   0.591   2.372 -0.1684  0.4424  0.6296
 1002HK4     H784140   6.118   0.564   2.282  0.3634  1.6597 -0.0841
 1002HK4    C2084141   6.161   0.516   2.488  0.5352 -0.6276  0.0352
 1002HK4     H984142   6.097   0.429   2.501  0.9986 -0.6119  2.7298
 1002HK4    C1984143   6.246   0.553   2.592  0.4976 -0.4718  0.0118
 1002HK4    C1884144   6.341   0.661   2.580  0.2691 -0.2929 -0.1992
 1002HK4    C1784145   6.334   0.746   2.470 -0.1080  0.1905  0.1967
 1002HK4     H884146   6.404   0.830   2.468 -0.7636  0.7589  0.9209
 1002HK4     N184147   6.427   0.675   2.691 -0.3329  0.2257  0.2017
 1002HK4    C2184148   6.383   0.578   2.784 -0.0938  0.1902  0.2795
 1002HK4    C2284149   6.265   0.513   2.730  0.3112 -0.3700  0.0665
 1002HK4    C2684150   6.181   0.433   2.807 -0.2594 -0.2927 -0.4645
 1002HK4    H1384151   6.099   0.381   2.759  0.0022 -1.5878  0.4580
 1002HK4    C2584152   6.221   0.412   2.939  0.4728 -0.2799 -0.6792
 1002HK4    H1284153   6.163   0.347   3.004 -0.9731 -1.2833 -2.8831
 1002HK4    C2484154   6.339   0.464   2.990  0.0523  0.0092  0.0036
 1002HK4    H1184155   6.372   0.435   3.091  1.8611  0.9317 -0.3034
 1002HK4    C2384156   6.421   0.545   2.913  0.0027  0.3326  0.2879
 1002HK4    H1084157   6.516   0.575   2.958  0.0094 -1.9758  1.9223
 1002HK4    C3984158   6.562   0.708   2.677 -0.5017  0.6945 -0.3830
 1002HK4    C4184159   6.623   0.771   2.787 -0.0071 -0.3404 -0.0486
 1002HK4    H2184160   6.567   0.827   2.864 -0.8260 -4.0929  2.2088
 1002HK4    C4284161   6.761   0.769   2.805  0.0411  0.5546 -0.2648
 1002HK4    H2284162   6.801   0.814   2.897 -0.1189  3.5869 -1.6358
 1002HK4    C4384163   6.844   0.698   2.720 -0.0348  0.0815  0.0556
 1002HK4    H2384164   6.952   0.712   2.719  0.0229 -0.3430 -0.7644
 1002HK4    C4484165   6.788   0.636   2.608 -0.1255 -0.3794  0.3533
 1002HK4    H2484166   6.856   0.624   2.522 -0.5999  1.0502 -0.2329
 1002HK4    C4584167   6.651   0.639   2.591 -0.1551 -0.1334  0.6178
 1002HK4    H2584168   6.605   0.567   2.522 -1.1662  0.7757  0.3269
 1003HK4    H2884169   1.899   4.676   0.790  1.3579  0.2677  1.2949
 1003HK4    C4884170   1.958   4.621   0.717 -0.4637  0.0596 -0.0653
 1003HK4    C4784171   1.907   4.520   0.637 -0.0905 -0.0093 -0.2210
 1003HK4    H2784172   1.820   4.463   0.676  0.0536  1.1763  1.9412
 1003HK4    C4684173   1.979   4.469   0.530 -0.3122 -0.0160 -0.3688
 1003HK4    H2684174   1.926   4.401   0.462 -0.5428 -0.1959 -0.0124
 1003HK4    C4084175   2.105   4.517   0.488 -0.3817  0.3563 -0.1577
 1003HK4    C5084176   2.147   4.628   0.563  0.0952  0.2410 -0.2491
 1003HK4    H3084177   2.235   4.689   0.539  0.4395 -0.2783 -0.2969
 1003HK4    C4984178   2.081   4.674   0.676 -0.3682 -0.3303 -0.2862
 1003HK4    H2984179   2.132   4.744   0.744  0.4946 -0.3447 -0.9185
 1003HK4     N284180   2.142   4.516   0.353 -0.4392 -0.1996 -0.1738
 1003HK4    C3084181   2.269   4.491   0.295 -0.2523  0.0915  0.1092
 1003HK4    C2984182   2.368   4.403   0.336  0.2374  0.7996  0.4536
 1003HK4    H1584183   2.380   4.385   0.442  0.6295  2.8114  0.7798
 1003HK4    C2884184   2.478   4.370   0.257 -0.7694 -0.7600 -0.3006
 1003HK4    C2784185   2.486   4.434   0.132 -0.1797 -0.0410  0.1045
 1003HK4    H1484186   2.570   4.411   0.065  1.3655  2.5553  1.0716
 1003HK4    C3284187   2.396   4.531   0.091  0.3279  0.5678  0.4234
 1003HK4    H1684188   2.408   4.580  11.242  1.2225 -0.6425 -0.0806
 1003HK4    C3184189   2.290   4.567   0.174 -0.4656 -0.3313 -0.1917
 1003HK4    C3484190   2.172   4.650   0.158  0.2679  0.8798  0.6823
 1003HK4    C3384191   2.081   4.605   0.262 -0.3700 -0.4301 -0.4453
 1003HK4    C3584192   1.950   4.651   0.264 -0.1449  0.1771  0.4300
 1003HK4    H1784193   1.877   4.606   0.331  1.2757 -1.0170  1.1913
 1003HK4    C3684194   1.909   4.743   0.168  0.0749 -0.4672 -0.2863
 1003HK4    H1884195   1.802   4.769   0.166 -0.3169 -1.8719  1.2219
 1003HK4    C3784196   2.000   4.790   0.074  0.1109 -0.2210 -0.1276
 1003HK4    H1984197   1.969   4.875   0.013  1.3018  0.6967  0.5058
 1003HK4    C3884198   2.132   4.745   0.065  0.0387 -0.3648 -0.5090
 1003HK4    H2084199   2.193   4.773  11.228 -0.9852 -1.6399 -1.6699
 1003HK4    C1484200   2.574   4.263   0.287  0.7558  0.5330 -0.5109
 1003HK4     C984201   2.631   4.231   0.411 -0.4569  0.3621  0.0155
 1003HK4     C884202   2.665   4.096   0.435  0.0004  0.4760  0.0222
 1003HK4    C1184203   2.658   4.001   0.334 -0.1827 -0.2935  0.7550
 1003HK4     H484204   2.673   3.895   0.358  2.2002 -0.0124  0.5925
 1003HK4    C1284205   2.619   4.036   0.205  0.6112  0.2085  0.6484
 1003HK4     H584206   2.579   3.955   0.143 -2.0623  0.2330  2.2671
 1003HK4    C1384207   2.581   4.168   0.183 -0.5692 -0.2230  0.0820
 1003HK4     H684208   2.558   4.196   0.080 -0.6062 -1.5911 -0.2956
 1003HK4     C784209   2.747   4.056   0.551 -0.7812 -0.1111  0.3760
 1003HK4     O284210   2.741   3.941   0.596  0.5182 -0.0707  0.6822
 1003HK4     C484211   2.801   4.165   0.636 -0.0271 -0.2009  0.0167
 1003HK4     C384212   2.895   4.126   0.730  0.0706 -0.1556 -0.0614
 1003HK4     H384213   2.945   4.029   0.739 -1.8739 -1.1815 -0.1676
 1003HK4     C284214   2.930   4.223   0.824  0.2911  0.2224 -0.5347
 1003HK4     H284215   3.008   4.204   0.898  0.0965  0.0455 -0.3760
 1003HK4     C184216   2.865   4.346   0.830 -0.1723 -0.0665  0.3131
 1003HK4     H184217   2.915   4.429   0.883 -0.2893  0.3431 -0.2147
 1003HK4     C684218   2.760   4.381   0.743  0.2545  0.0980 -0.1387
 1003HK4     C584219   2.746   4.295   0.634 -0.5894 -0.4325  0.3763
 1003HK4    C1084220   2.674   4.334   0.510  0.0988  0.0324  0.1210
 1003HK4     O184221   2.675   4.454   0.481  0.0929  0.1067  0.4403
 1003HK4    C1684222   2.680   4.502   0.772  0.4378  0.2847 -0.4199
 1003HK4    C1584223   2.740   4.612   0.837  0.2620  0.1999 -0.1147
 1003HK4     H784224   2.848   4.621   0.815  0.2004 -2.3156 -1.7577
 1003HK4    C2084225   2.668   4.691   0.925 -0.4265 -0.1377 -0.3709
 1003HK4     H984226   2.709   4.781   0.971 -0.2893 -0.8814  1.0096
 1003HK4    C1984227   2.536   4.655   0.950 -0.3604 -0.2382 -0.1571
 1003HK4    C1884228   2.470   4.550   0.874 -0.2244 -0.3289 -0.1509
 1003HK4    C1784229   2.545   4.474   0.785  0.5455  0.0485  0.1735
 1003HK4     H884230   2.493   4.392   0.735 -0.1652  0.0405  0.9031
 1003HK4     N184231   2.343   4.526   0.932 -0.3524  0.1184 -0.2447
 1003HK4    C2184232   2.321   4.622   1.032  0.1392 -0.1490  0.1209
 1003HK4    C2284233   2.436   4.712   1.038 -0.0532  0.1082 -0.0315
 1003HK4    C2684234   2.439   4.820   1.125 -0.0787  0.2717 -0.2319
 1003HK4    H1384235   2.516   4.896   1.114  0.9427 -0.5220  1.2009
 1003HK4    C2584236   2.333   4.836   1.215  0.1636  0.2982  0.0495
 1003HK4    H1284237   2.342   4.907   1.297 -2.7111  0.0597  0.6119
 1003HK4    C2484238   2.223   4.752   1.210 -0.1186  0.6962 -0.4946
 1003HK4    H1184239   2.149   4.755   1.291  2.0132  0.5952  1.4775
 1003HK4    C2384240   2.214   4.649   1.116  0.1816  0.1433  0.0816
 1003HK4    H1084241   2.120   4.597   1.102  0.1460  0.2363 -0.0227
 1003HK4    C3984242   2.285   4.399   0.945  0.3944 -0.2581 -0.5406
 1003HK4    C4184243   2.145   4.386   0.949  0.3334  0.2965 -0.8824
 1003HK4    H2184244   2.086   4.458   0.890 -2.3086 -0.6573  0.4687
 1003HK4    C4284245   2.081   4.272   0.995  0.5654  0.2805 -0.5970
 1003HK4    H2284246   1.983   4.247   0.951  1.1767 -0.7603 -1.3706
 1003HK4    C4384247   2.160   4.170   1.046 -0.3337  0.0496  0.3620
 1003HK4    H2384248   2.116   4.080   1.089  0.4527 -0.4039  0.2418
 1003HK4    C4484249   2.299   4.177   1.040 -0.3605 -0.1392 -0.4878
 1003HK4    H2484250   2.354   4.085   1.066  1.2209  0.1170 -2.7586
 1003HK4    C4584251   2.362   4.291   0.993  0.1491 -0.5002 -0.6879
 1003HK4    H2584252   2.470   4.282   0.975  0.1170  0.4819 -1.4406
 1004HK4    H2884253   5.653   2.438   0.758  0.1589  0.0918 -0.4879
 1004HK4    C4884254   5.712   2.461   0.669 -0.0973 -0.1201 -0.7153
 1004HK4    C4784255   5.735   2.590   0.624 -0.1518  0.0947 -0.1275
 1004HK4    H2784256   5.662   2.667   0.652  1.7612  2.0369 -0.3030
 1004HK4    C4684257   5.808   2.618   0.509  0.1001  0.4939  0.1297
 1004HK4    H2684258   5.822   2.723   0.477 -1.0024  0.4270 -0.5986
 1004HK4    C4084259   5.864   2.513   0.433 -0.6960  0.3325 -0.2347
 1004HK4    C5084260   5.845   2.383   0.485  0.6406  0.1643 -0.1441
 1004HK4    H3084261   5.901   2.303   0.435  0.8724  0.4749 -0.3850
 1004HK4    C4984262   5.771   2.355   0.600 -0.0929 -0.1391 -0.6823
 1004HK4    H2984263   5.745   2.256   0.639 -1.9382  0.6239  0.0679
 1004HK4     N284264   5.874   2.528   0.295 -0.1264  0.4417 -0.1821
 1004HK4    C3084265   5.802   2.617   0.212 -0.1093  0.1149 -0.5528
 1004HK4    C2984266   5.677   2.677   0.227 -0.0141  0.0658  0.5327
 1004HK4    H1584267   5.620   2.632   0.308  2.3937  0.6724  2.6193
 1004HK4    C2884268   5.618   2.759   0.132  0.1285 -0.5923 -0.1324
 1004HK4    C2784269   5.697   2.788   0.018  0.2003  0.2853  0.1347
 1004HK4    H1484270   5.652   2.843  11.182 -1.2373  1.4498  1.6248
 1004HK4    C3284271   5.820   2.729  11.243  0.1719  0.2692  0.0168
 1004HK4    H1684272   5.868   2.726  11.145 -0.0913  3.2068 -0.2476
 1004HK4    C3184273   5.875   2.644   0.090  0.1792 -0.2635 -0.4625
 1004HK4    C3484274   5.996   2.564   0.091  0.2990 -0.0819  0.0055
 1004HK4    C3384275   5.986   2.492   0.217 -0.2576 -0.1788 -0.0921
 1004HK4    C3584276   6.073   2.386   0.239  0.2379  0.3531  0.5117
 1004HK4    H1784277   6.084   2.355   0.343  0.6234  1.0895  0.6958
 1004HK4    C3684278   6.173   2.357   0.147 -0.5753 -0.2227 -0.1888
 1004HK4    H1884279   6.249   2.280   0.163 -0.5737  0.0059  0.8937
 1004HK4    C3784280   6.187   2.431   0.030  0.3661  0.2761  0.2426
 1004HK4    H1984281   6.277   2.410  11.220 -0.3140 -2.3189  0.0467
 1004HK4    C3884282   6.101   2.537   0.004  0.2981  0.1443 -0.0644
 1004HK4    H2084283   6.105   2.594  11.159  1.9861 -0.4663 -0.3952
 1004HK4    C1484284   5.472   2.771   0.130  0.1175 -0.6390  0.3073
 1004HK4     C984285   5.384   2.771   0.021  0.3447  0.2307  0.1241
 1004HK4     C884286   5.260   2.837   0.022  0.1393 -0.1509 -0.0613
 1004HK4    C1184287   5.215   2.893   0.141 -0.3491  0.1881 -0.4013
 1004HK4     H484288   5.118   2.945   0.148  0.5987  1.8143  1.2330
 1004HK4    C1284289   5.295   2.896   0.255 -0.4591 -0.0112 -0.3200
 1004HK4     H584290   5.259   2.949   0.344  0.5778  0.6897 -0.3083
 1004HK4    C1384291   5.417   2.830   0.245 -0.4222  0.0534 -0.2982
 1004HK4     H684292   5.464   2.804   0.341  0.9217  1.7105 -0.4830
 1004HK4     C784293   5.195   2.873  11.141 -0.0294  0.1721  0.1158
 1004HK4     O284294   5.126   2.975  11.143  0.0019  0.1879  0.7407
 1004HK4     C484295   5.250   2.816  11.016 -0.4624 -0.2266  0.1087
 1004HK4     C384296   5.190   2.861  10.900  0.4167 -0.0755 -0.2874
 1004HK4     H384297   5.085   2.892  10.897 -0.1810 -1.9041  0.9766
 1004HK4     C284298   5.267   2.860  10.784 -0.2188  0.0388 -0.7102
 1004HK4     H284299   5.238   2.921  10.697  0.9980  1.3710 -0.2025
 1004HK4     C184300   5.393   2.801  10.779  0.1144  0.6298  0.5505
 1004HK4     H184301   5.461   2.830  10.697  0.6222 -0.4155  0.5926
 1004HK4     C684302   5.446   2.741  10.895  0.3994 -0.0232  0.0827
 1004HK4     C584303   5.372   2.745  11.014 -0.2500  0.1541 -0.3232
 1004HK4    C1084304   5.430   2.703  11.144 -0.2357  0.4746 -0.2240
 1004HK4     O184305   5.448   2.582  11.159  0.0860  0.4850 -0.5220
 1004HK4    C1684306   5.591   2.720  10.899  0.4458  0.3079  0.1653
 1004HK4    C1584307   5.677   2.814  10.840  0.4505  0.4763  0.4394
 1004HK4     H784308   5.650   2.920  10.822  1.1309  0.6660  0.5059
 1004HK4    C2084309   5.810   2.784  10.816  0.1602 -0.3454 -0.1685
 1004HK4     H984310   5.870   2.855  10.758  0.7923  0.4874  1.4530
 1004HK4    C1984311   5.859   2.657  10.845  0.0224 -0.3889 -0.1271
 1004HK4    C1884312   5.774   2.559  10.909 -0.3212 -0.1705 -0.2469
 1004HK4    C1784313   5.640   2.591  10.921 -0.2767 -0.0234 -0.1444
 1004HK4     H884314   5.574   2.516  10.964 -0.4552 -0.5054 -1.2490
 1004HK4     N184315   5.839   2.440  10.951  0.1254  0.2314  0.2014
 1004HK4    C2184316   5.969   2.464  10.903 -0.0371  0.3009 -0.2123
 1004HK4    C2284317   5.989   2.593  10.840  0.2021  0.0192 -0.7118
 1004HK4    C2684318   6.114   2.655  10.837  0.1461  0.1820  0.1367
 1004HK4    H1384319   6.127   2.748  10.783 -2.1761  0.7194  0.4527
 1004HK4    C2584320   6.220   2.586  10.894 -0.0296 -0.2195 -0.0167
 1004HK4    H1284321   6.300   2.649  10.934  0.1330 -1.4757  1.6934
 1004HK4    C2484322   6.204   2.456  10.940 -0.1686  0.0121  0.6062
 1004HK4    H1184323   6.295   2.400  10.966  0.9353  1.3102 -0.4333
 1004HK4    C2384324   6.080   2.394  10.950 -0.2820  0.1628  0.1560
 1004HK4    H1084325   6.072   2.290  10.982 -2.0593  0.0938 -0.4231
 1004HK4    C3984326   5.801   2.352  11.053  0.6607  0.4458  0.5870
 1004HK4    C4184327   5.716   2.391  11.158 -0.0746  0.2081  0.0838
 1004HK4    H2184328   5.689   2.498  11.166 -1.4578 -0.1260 -0.0289
 1004HK4    C4284329   5.659   2.305   0.003 -0.5829  0.1516 -0.2827
 1004HK4    H2284330   5.586   2.336   0.080 -0.9493 -0.0342 -0.5549
 1004HK4    C4384331   5.679   2.170  11.224 -0.8876  0.1222 -0.3733
 1004HK4    H2384332   5.632   2.096   0.041  0.3595 -0.1424  0.2460
 1004HK4    C4484333   5.754   2.121  11.118  0.0798  0.1081  0.3072
 1004HK4    H2484334   5.751   2.014  11.090 -0.2667  0.3489 -0.6054
 1004HK4    C4584335   5.816   2.213  11.035 -0.4286  0.3736  0.2190
 1004HK4    H2584336   5.874   2.184  10.946 -0.7408 -0.1335  0.1798
 1005HK4    H2884337   5.725   6.690   7.687 -1.0898 -1.4144  0.1792
 1005HK4    C4884338   5.668   6.754   7.754  0.1955 -0.2498  0.1796
 1005HK4    C4784339   5.641   6.728   7.887  0.2394  0.4843  0.3367
 1005HK4    H2784340   5.692   6.646   7.940 -0.2399  0.2151  0.3822
 1005HK4    C4684341   5.569   6.822   7.959  0.8401  0.4849  0.9405
 1005HK4    H2684342   5.540   6.799   8.063 -1.6159 -1.6642 -0.1670
 1005HK4    C4084343   5.533   6.951   7.915  0.1986 -0.1202 -0.3218
 1005HK4    C5084344   5.566   6.980   7.781 -0.2630 -0.1791 -0.4500
 1005HK4    H3084345   5.531   7.069   7.727  0.2386  0.8595  0.9247
 1005HK4    C4984346   5.633   6.882   7.709  0.3408 -0.2165  0.1608
 1005HK4    H2984347   5.650   6.901   7.602  3.0312 -4.1091 -0.2339
 1005HK4     N284348   5.517   7.056   8.007 -0.4258 -0.3613 -0.1554
 1005HK4    C3084349   5.563   7.063   8.140  0.3304  0.3948 -0.4550
 1005HK4    C2984350   5.679   7.008   8.193 -0.1019 -0.0309  0.0458
 1005HK4    H1584351   5.737   6.939   8.132  1.7024 -0.0801  1.7564
 1005HK4    C2884352   5.724   7.034   8.322 -0.4076 -0.5473  0.2581
 1005HK4    C2784353   5.643   7.124   8.395 -0.1204 -0.3000  0.2706
 1005HK4    H1484354   5.671   7.159   8.495 -0.8369  0.1737  0.3135
 1005HK4    C3284355   5.531   7.192   8.347  0.1746  0.0272  0.0450
 1005HK4    H1684356   5.493   7.276   8.404 -2.0050 -0.7451 -0.2016
 1005HK4    C3184357   5.490   7.161   8.218  0.2484 -0.0622  0.0397
 1005HK4    C3484358   5.408   7.228   8.119  0.0423 -0.4115 -0.0261
 1005HK4    C3384359   5.427   7.163   7.991 -0.4076 -0.3418 -0.1277
 1005HK4    C3584360   5.359   7.219   7.883  0.2297  0.1556 -0.2738
 1005HK4    H1784361   5.382   7.179   7.784  2.2683 -0.5292  0.4452
 1005HK4    C3684362   5.281   7.333   7.894 -0.2521 -0.2351  0.4215
 1005HK4    H1884363   5.235   7.369   7.801  1.3625 -0.1693 -0.3738
 1005HK4    C3784364   5.269   7.397   8.017  0.4291  0.5222  0.0974
 1005HK4    H1984365   5.220   7.493   8.031  0.1725  0.8806 -2.9670
 1005HK4    C3884366   5.335   7.346   8.128 -0.0786 -0.4836 -0.0641
 1005HK4    H2084367   5.310   7.379   8.229 -0.7166 -1.7963  0.2192
 1005HK4    C1484368   5.829   6.957   8.389 -0.0148 -0.3566 -0.1424
 1005HK4     C984369   5.841   6.917   8.523  0.5180  0.4202  0.0482
 1005HK4     C884370   5.962   6.890   8.589  0.3916 -0.2757 -0.0000
 1005HK4    C1184371   6.078   6.899   8.512  0.4112 -0.2141  0.0353
 1005HK4     H484372   6.173   6.909   8.566  0.4077  1.3150 -0.2091
 1005HK4    C1284373   6.072   6.925   8.376  0.5357  0.4130  0.1475
 1005HK4     H584374   6.168   6.925   8.321  1.5169  0.6047  1.8372
 1005HK4    C1384375   5.950   6.954   8.316  0.3302  0.0871  0.4072
 1005HK4     H684376   5.941   6.984   8.211  1.1456 -1.1969 -0.0448
 1005HK4     C784377   5.967   6.848   8.731 -0.3701  0.1433  0.1549
 1005HK4     O284378   6.074   6.814   8.781 -0.7051 -0.7192  0.2927
 1005HK4     C484379   5.839   6.850   8.804 -0.4518 -0.2864  0.0231
 1005HK4     C384380   5.849   6.825   8.940  0.4709 -0.3253 -0.0517
 1005HK4     H384381   5.941   6.853   8.995 -0.3938  2.9095 -0.1312
 1005HK4     C284382   5.734   6.790   9.011  0.1361 -0.0364 -0.4483
 1005HK4     H284383   5.742   6.729   9.102  1.4465 -2.2863 -2.0162
 1005HK4     C184384   5.613   6.779   8.943 -0.3970  0.3628  0.4361
 1005HK4     H184385   5.530   6.739   9.003 -1.0802 -0.1322 -0.8372
 1005HK4     C684386   5.600   6.814   8.807 -0.1386 -0.5092  0.1807
 1005HK4     C584387   5.715   6.851   8.736 -0.3064 -0.8203 -0.2555
 1005HK4    C1084388   5.713   6.879   8.590  0.5428  0.0742 -0.0953
 1005HK4     O184389   5.630   6.822   8.520  0.2103 -0.0748  0.4169
 1005HK4    C1684390   5.472   6.883   8.788  0.1245 -0.1440 -0.2753
 1005HK4    C1584391   5.412   6.960   8.891  0.7979  0.3190 -0.2256
 1005HK4     H784392   5.475   7.011   8.966 -0.0310  1.1937 -0.1186
 1005HK4    C2084393   5.275   6.983   8.898  0.6729 -0.2753 -0.6648
 1005HK4     H984394   5.235   7.020   8.992 -0.8462  2.2523 -2.2626
 1005HK4    C1984395   5.188   6.943   8.798 -0.1252 -0.0526 -0.0655
 1005HK4    C1884396   5.248   6.865   8.691 -0.0548  0.1353 -0.1611
 1005HK4    C1784397   5.384   6.836   8.692 -0.1100 -0.1224 -0.0696
 1005HK4     H884398   5.418   6.757   8.625  3.4447  1.2675  0.0117
 1005HK4     N184399   5.153   6.830   8.592 -0.0577 -0.4079  0.0319
 1005HK4    C2184400   5.032   6.886   8.639  0.3354 -0.2049  0.8253
 1005HK4    C2284401   5.047   6.955   8.765 -0.4046 -0.3421  0.9948
 1005HK4    C2684402   4.941   7.037   8.802 -0.6583 -0.4064  0.4234
 1005HK4    H1384403   4.954   7.082   8.901  2.4406  0.7630 -0.4425
 1005HK4    C2584404   4.821   7.048   8.734 -0.2087  0.0040 -0.3123
 1005HK4    H1284405   4.744   7.120   8.763 -0.5855  0.5547 -2.6228
 1005HK4    C2484406   4.809   6.965   8.624  0.1531 -0.3253 -0.1053
 1005HK4    H1184407   4.706   6.937   8.596  0.0912  0.2675 -0.4700
 1005HK4    C2384408   4.909   6.882   8.574  0.6992  0.2070  0.0969
 1005HK4    H1084409   4.882   6.800   8.506 -1.2184  1.8587 -1.2048
 1005HK4    C3984410   5.182   6.783   8.464  0.2701 -0.1502  0.0136
 1005HK4    C4184411   5.093   6.699   8.394 -0.4779  0.7495 -0.1290
 1005HK4    H2184412   5.006   6.647   8.436  1.0554 -0.8493  1.1417
 1005HK4    C4284413   5.116   6.671   8.260 -0.9607  0.2572 -0.1128
 1005HK4    H2284414   5.042   6.606   8.211 -0.3288 -2.5457  2.5047
 1005HK4    C4384415   5.233   6.714   8.198 -0.8353  0.5621  0.3348
 1005HK4    H2384416   5.258   6.687   8.095 -0.5133  0.1729  0.5103
 1005HK4    C4484417   5.326   6.787   8.271 -0.0715 -0.7250  0.6640
 1005HK4    H2484418   5.430   6.786   8.235 -0.6382 -1.0898 -1.0027
 1005HK4    C4584419   5.300   6.829   8.401  0.2304  0.4254  0.3553
 1005HK4    H2584420   5.383   6.872   8.459 -0.2575 -0.1057  1.4692
 1006HK4    H2884421   9.686   2.218   9.541  0.1693  0.5825  1.1121
 1006HK4    C4884422   9.580   2.234   9.518  0.4345  0.4912 -0.1977
 1006HK4    C4784423   9.537   2.203   9.389  0.0107 -0.0155  0.0629
 1006HK4    H2784424   9.595   2.142   9.318  0.1096 -0.3350  0.4196
 1006HK4    C4684425   9.404   2.225   9.357  0.0471 -0.0729 -0.1245
 1006HK4    H2684426   9.367   2.197   9.257  0.4039 -1.3778  0.0920
 1006HK4    C4084427   9.309   2.271   9.451  0.0534  0.0900 -0.1972
 1006HK4    C5084428   9.359   2.299   9.580  0.1636 -0.1664 -0.1839
 1006HK4    H3084429   9.292   2.327   9.663  0.6583 -1.5586  0.7094
 1006HK4    C4984430   9.494   2.290   9.611  0.1704  0.0071 -0.1538
 1006HK4    H2984431   9.539   2.333   9.702 -1.7250  0.2374  0.7158
 1006HK4     N284432   9.190   2.333   9.413 -0.1719 -0.3672 -0.2495
 1006HK4    C3084433   9.177   2.407   9.294  0.0194 -0.4394 -0.3151
 1006HK4    C2984434   9.272   2.487   9.232 -0.2731  0.0464 -0.1414
 1006HK4    H1584435   9.369   2.493   9.282 -0.5428 -0.5627  0.4632
 1006HK4    C2884436   9.245   2.576   9.129 -0.2863 -0.3637 -0.4940
 1006HK4    C2784437   9.108   2.584   9.098 -0.2730  0.0263 -0.4534
 1006HK4    H1484438   9.075   2.658   9.023  0.5221  1.7586  0.8592
 1006HK4    C3284439   9.003   2.516   9.160 -0.0332 -0.0498 -0.1307
 1006HK4    H1684440   8.901   2.537   9.128 -0.0130 -0.6018 -0.5612
 1006HK4    C3184441   9.037   2.430   9.263  0.0363  0.3522  0.1850
 1006HK4    C3484442   8.962   2.364   9.369 -0.0556  0.7060  0.3410
 1006HK4    C3384443   9.060   2.312   9.463 -0.1167  0.2439  0.1531
 1006HK4    C3584444   9.013   2.245   9.576 -0.0157  0.3153  0.2404
 1006HK4    H1784445   9.082   2.200   9.648  1.7243 -1.0139 -2.1718
 1006HK4    C3684446   8.879   2.225   9.605  0.0487  0.2406  0.4779
 1006HK4    H1884447   8.838   2.149   9.673 -3.3549 -0.0204 -1.7282
 1006HK4    C3784448   8.787   2.286   9.520  0.2690 -0.2268 -0.0984
 1006HK4    H1984449   8.681   2.293   9.546  0.6296 -2.0598  2.0499
 1006HK4    C3884450   8.829   2.342   9.400 -0.0593  0.1981 -0.0112
 1006HK4    H2084451   8.756   2.360   9.321  0.0929  0.9356  0.0144
 1006HK4    C1484452   9.348   2.672   9.086 -0.0687 -0.1934  0.4029
 1006HK4     C984453   9.341   2.798   9.025 -0.1431 -0.5563 -0.3419
 1006HK4     C884454   9.450   2.850   8.952 -0.0860  0.1178  0.2148
 1006HK4    C1184455   9.565   2.774   8.939 -0.2071 -0.0982  0.4245
 1006HK4     H484456   9.656   2.817   8.895 -1.0798  1.1008 -0.2335
 1006HK4    C1284457   9.579   2.648   8.996  0.1852 -0.0631  0.4082
 1006HK4     H584458   9.670   2.589   8.978  0.6273 -0.1166  2.6407
 1006HK4    C1384459   9.468   2.602   9.066 -0.3723 -0.4100 -0.6958
 1006HK4     H684460   9.475   2.498   9.100  0.6362 -0.2731 -0.4650
 1006HK4     C784461   9.444   2.979   8.878  0.2569  0.1206  0.1911
 1006HK4     O284462   9.522   2.993   8.784  0.5192 -1.0659  0.2164
 1006HK4     C484463   9.331   3.071   8.902  0.0942  0.1193 -0.5362
 1006HK4     C384464   9.338   3.205   8.864 -0.2118  0.3975  0.3721
 1006HK4     H384465   9.433   3.251   8.836 -0.8078 -0.0421 -2.5812
 1006HK4     C284466   9.227   3.288   8.874 -0.1959  0.4281  0.3198
 1006HK4     H284467   9.217   3.391   8.837 -1.0778  0.3557  0.3376
 1006HK4     C184468   9.108   3.231   8.919 -0.1552 -0.1194 -0.2531
 1006HK4     H184469   9.034   3.300   8.962  1.3111  0.2348  1.7959
 1006HK4     C684470   9.093   3.093   8.945  0.3853 -0.1411 -0.0316
 1006HK4     C584471   9.210   3.017   8.950  0.4718  0.0108  0.3091
 1006HK4    C1084472   9.224   2.890   9.027  0.4771  0.2189  0.6494
 1006HK4     O184473   9.168   2.887   9.136 -0.4467 -0.3270  0.1592
 1006HK4    C1684474   8.966   3.029   8.907  0.5643 -0.3325 -0.3004
 1006HK4    C1584475   8.888   3.091   8.807  0.0114 -0.1232  0.2538
 1006HK4     H784476   8.931   3.114   8.709  0.6261  0.0194  0.5556
 1006HK4    C2084477   8.751   3.104   8.828  0.0015  0.0442  0.0901
 1006HK4     H984478   8.705   3.176   8.760  0.7049 -0.2444 -0.7003
 1006HK4    C1984479   8.694   3.048   8.942  0.4574  0.1409  0.3667
 1006HK4    C1884480   8.769   2.960   9.030  0.4869 -0.2528 -0.0589
 1006HK4    C1784481   8.904   2.948   9.001  0.7359  0.6738  0.6947
 1006HK4     H884482   8.944   2.851   9.032  1.2994  0.4875 -0.5977
 1006HK4     N184483   8.682   2.882   9.110  0.2309  0.2248  0.1314
 1006HK4    C2184484   8.553   2.919   9.069  0.2838  0.2013 -0.0551
 1006HK4    C2284485   8.554   3.017   8.962  0.4092 -0.1052 -0.3354
 1006HK4    C2684486   8.431   3.057   8.913  0.1872  0.1333  0.4194
 1006HK4    H1384487   8.432   3.146   8.849 -1.7974 -0.2199 -0.1291
 1006HK4    C2584488   8.310   3.008   8.959  0.2029 -0.4200 -0.1240
 1006HK4    H1284489   8.221   3.053   8.914  0.2300  0.4996  0.7298
 1006HK4    C2484490   8.309   2.924   9.070 -0.0690 -0.2402  0.0104
 1006HK4    H1184491   8.215   2.874   9.094 -1.2519  0.6390 -2.5905
 1006HK4    C2384492   8.430   2.882   9.124  0.2109  0.7017  0.1285
 1006HK4    H1084493   8.425   2.839   9.224 -1.4541  0.7935  0.0834
 1006HK4    C3984494   8.726   2.792   9.208  0.2175 -0.1507 -0.2081
 1006HK4    C4184495   8.642   2.688   9.252  0.0302  0.1213  0.0678
 1006HK4    H2184496   8.564   2.655   9.182 -0.0811  0.8992 -0.1772
 1006HK4    C4284497   8.661   2.629   9.376  0.2917 -0.4307 -0.2318
 1006HK4    H2284498   8.597   2.544   9.405  0.5034 -1.0222 -1.4494
 1006HK4    C4384499   8.768   2.672   9.453 -0.0828  0.0786 -0.0008
 1006HK4    H2384500   8.797   2.607   9.536  0.9217  2.3030  1.4501
 1006HK4    C4484501   8.862   2.762   9.405  0.2159 -0.0725  0.2949
 1006HK4    H2484502   8.960   2.763   9.454  0.5448  0.3731 -0.3642
 1006HK4    C4584503   8.841   2.825   9.283 -0.0507 -0.2539  0.2465
 1006HK4    H2584504   8.904   2.913   9.262 -0.5854  0.0632 -0.0369
 1007HK4    H2884505   9.140   5.887   0.973  0.4035 -0.2232  1.5741
 1007HK4    C4884506   9.140   5.778   0.974 -0.0796 -0.2528 -0.1529
 1007HK4    C4784507   9.263   5.719   1.000 -0.2040 -0.4114  0.0695
 1007HK4    H2784508   9.353   5.780   1.010 -0.6145  0.1684  0.2198
 1007HK4    C4684509   9.272   5.581   1.015 -0.1883 -0.3711  0.4353
 1007HK4    H2684510   9.360   5.549   1.074 -0.2721 -0.7128  0.3746
 1007HK4    C4084511   9.161   5.495   1.009 -0.3398 -0.1383 -0.0095
 1007HK4    C5084512   9.037   5.559   0.986 -0.1079  0.0526 -0.7383
 1007HK4    H3084513   8.946   5.498   0.991 -0.3953  0.4130 -1.5474
 1007HK4    C4984514   9.027   5.697   0.971 -0.3181  0.0875 -0.2625
 1007HK4    H2984515   8.930   5.744   0.948 -0.0126  1.0244  0.3406
 1007HK4     N284516   9.167   5.355   1.013  0.3601 -0.0999  0.2546
 1007HK4    C3084517   9.288   5.284   0.995  0.1365 -0.3521 -0.2371
 1007HK4    C2984518   9.385   5.298   0.897  0.0641  0.2769 -0.2198
 1007HK4    H1584519   9.358   5.362   0.812  0.9395  1.5215  0.4188
 1007HK4    C2884520   9.492   5.212   0.878 -0.7355 -0.6217 -0.6918
 1007HK4    C2784521   9.500   5.103   0.967 -0.4774 -0.4913 -0.5547
 1007HK4    H1484522   9.593   5.044   0.969 -1.5877 -2.3334 -1.3316
 1007HK4    C3284523   9.409   5.078   1.068 -0.3343 -0.5948 -0.4524
 1007HK4    H1684524   9.417   4.989   1.129  1.2506  0.5156  1.0187
 1007HK4    C3184525   9.302   5.167   1.079  0.3154  0.0990  0.3629
 1007HK4    C3484526   9.171   5.164   1.142 -0.0741  0.0164 -0.4499
 1007HK4    C3384527   9.092   5.280   1.106  0.0021  0.3027  0.2919
 1007HK4    C3584528   8.957   5.280   1.140 -0.1335  0.1953 -0.2345
 1007HK4    H1784529   8.892   5.365   1.119 -0.7186  0.2322  1.6740
 1007HK4    C3684530   8.904   5.178   1.218  0.5743  0.1139  0.1447
 1007HK4    H1884531   8.801   5.191   1.256  0.3360  0.2301 -0.5285
 1007HK4    C3784532   8.981   5.068   1.253  0.2245  0.0343  0.6672
 1007HK4    H1984533   8.935   4.999   1.323 -1.2586 -0.5178 -0.8047
 1007HK4    C3884534   9.116   5.063   1.220  0.2409  0.6882  0.6336
 1007HK4    H2084535   9.172   4.973   1.246 -0.0786 -0.1914 -1.6086
 1007HK4    C1484536   9.573   5.226   0.755  0.4333  0.1533  0.1577
 1007HK4     C984537   9.633   5.117   0.692 -0.4266  0.0111 -0.4324
 1007HK4     C884538   9.762   5.122   0.635 -0.4593  0.1027 -0.4982
 1007HK4    C1184539   9.824   5.246   0.626 -0.3360  0.0985  0.3012
 1007HK4     H484540   9.918   5.274   0.577 -0.5262 -1.4306 -0.9557
 1007HK4    C1284541   9.764   5.358   0.683 -0.2443  0.3128 -0.0266
 1007HK4     H584542   9.817   5.455   0.683  0.3533 -0.0021 -1.4761
 1007HK4    C1384543   9.638   5.350   0.740 -0.1008  0.4545  0.3079
 1007HK4     H684544   9.595   5.440   0.788  0.6534  0.4722  0.9626
 1007HK4     C784545   9.843   5.000   0.611 -0.1953  0.0872  0.4606
 1007HK4     O284546   9.948   5.008   0.549 -0.3198 -0.3812  0.1920
 1007HK4     C484547   9.792   4.868   0.655 -0.2573 -0.1892 -0.4285
 1007HK4     C384548   9.877   4.758   0.655 -0.0686 -0.0432 -0.2503
 1007HK4     H384549   9.969   4.760   0.596 -1.4476 -0.2440 -2.4475
 1007HK4     C284550   9.837   4.644   0.723 -0.3562  0.4160  0.3600
 1007HK4     H284551   9.902   4.555   0.721  0.6263  1.1633 -1.4332
 1007HK4     C184552   9.715   4.645   0.791 -0.4058 -0.1376  0.2884
 1007HK4     H184553   9.692   4.555   0.849 -2.1619  1.2957  1.8803
 1007HK4     C684554   9.624   4.753   0.789 -0.2064  0.0266  0.1177
 1007HK4     C584555   9.662   4.862   0.709 -0.1412 -0.1886 -0.1462
 1007HK4    C1084556   9.573   4.982   0.706 -0.0599 -0.1304 -0.2195
 1007HK4     O184557   9.452   4.964   0.690 -0.0525 -0.6547  0.2753
 1007HK4    C1684558   9.530   4.751   0.901  0.0619  0.2130  0.3492
 1007HK4    C1584559   9.570   4.728   1.034  0.0790  0.1699  0.3372
 1007HK4     H784560   9.676   4.736   1.063  0.2600 -0.6798 -0.0796
 1007HK4    C2084561   9.477   4.693   1.131 -0.1009  0.5591  0.3093
 1007HK4     H984562   9.503   4.675   1.235 -2.2765  2.1187  1.1502
 1007HK4    C1984563   9.343   4.672   1.100  0.0947  0.0958 -0.2373
 1007HK4    C1884564   9.298   4.702   0.966 -0.0981  0.4562 -0.0933
 1007HK4    C1784565   9.394   4.739   0.873  0.1480  0.0529  0.0008
 1007HK4     H884566   9.370   4.748   0.767  1.6544 -0.1424 -0.3707
 1007HK4     N184567   9.159   4.685   0.947 -0.0566 -0.3433  0.3246
 1007HK4    C2184568   9.111   4.637   1.070  0.0214  0.1389  0.5423
 1007HK4    C2284569   9.219   4.638   1.167  0.2418  0.5760  0.2933
 1007HK4    C2684570   9.192   4.596   1.297  0.0360  0.0405  0.0791
 1007HK4    H1384571   9.275   4.598   1.367  0.1733 -2.4460  0.0045
 1007HK4    C2584572   9.074   4.532   1.333 -0.1230  0.4701  0.3362
 1007HK4    H1284573   9.052   4.506   1.437 -0.4372 -1.1263 -0.1086
 1007HK4    C2484574   8.976   4.520   1.235  0.5902  0.1167 -0.3331
 1007HK4    H1184575   8.882   4.469   1.261  0.8934 -0.4381 -0.3164
 1007HK4    C2384576   8.993   4.575   1.108 -0.6678  1.0579 -0.1001
 1007HK4    H1084577   8.905   4.577   1.043  0.2758 -1.6344 -1.5446
 1007HK4    C3984578   9.081   4.764   0.863 -0.4857 -0.2491  0.8146
 1007HK4    C4184579   8.965   4.710   0.802  0.0591 -0.1164 -0.3546
 1007HK4    H2184580   8.962   4.603   0.778 -0.7484 -0.1921  0.0723
 1007HK4    C4284581   8.860   4.795   0.772 -0.3204 -0.2976  0.4478
 1007HK4    H2284582   8.764   4.751   0.742  1.0921 -1.1258 -3.1325
 1007HK4    C4384583   8.861   4.931   0.803  0.2101 -0.0450 -0.6538
 1007HK4    H2384584   8.780   4.992   0.762  0.4186  0.4670 -0.3121
 1007HK4    C4484585   8.974   4.986   0.862 -0.1223 -0.3492  0.2673
 1007HK4    H2484586   8.986   5.089   0.899  0.5238 -0.4417  0.3225
 1007HK4    C4584587   9.083   4.903   0.885  0.0278 -0.1604  0.2199
 1007HK4    H2584588   9.172   4.948   0.933 -0.3133  1.6894 -0.8412
 1008HK4    H2884589   2.102   9.940   0.029 -0.8570  1.3242  1.3723
 1008HK4    C4884590   2.211   9.941   0.032 -0.8116  0.1493  0.4336
 1008HK4    C4784591   2.284   9.885   0.136 -0.0970 -0.1558 -0.2240
 1008HK4    H2784592   2.223   9.879   0.227  0.6580  0.3937  0.3219
 1008HK4    C4684593   2.423   9.887   0.130 -0.0922 -0.3386 -0.2001
 1008HK4    H2684594   2.483   9.848   0.213 -1.0789  0.0222  0.6861
 1008HK4    C4084595   2.493   9.946   0.022  0.3484 -0.0314  0.2551
 1008HK4    C5084596   2.416  10.009  11.171 -0.0356 -0.3508  0.3502
 1008HK4    H3084597   2.473  10.071  11.101  1.9879 -1.3379  1.1095
 1008HK4    C4984598   2.277  10.000  11.173 -0.0686  0.1980  0.9146
 1008HK4    H2984599   2.216  10.042  11.091 -0.8936  2.3656  2.5944
 1008HK4     N284600   2.633   9.950   0.022  0.3540 -0.1921  0.3490
 1008HK4    C3084601   2.716   9.965   0.135  0.1396  0.0799  0.4715
 1008HK4    C2984602   2.671   9.995   0.263 -0.2576  0.1067  0.3251
 1008HK4    H1584603   2.583  10.056   0.281  0.7681  1.2951  1.4078
 1008HK4    C2884604   2.756   9.974   0.371  0.0481  0.4367  0.1492
 1008HK4    C2784605   2.890   9.939   0.345 -0.0295  0.3669 -0.1644
 1008HK4    H1484606   2.946   9.915   0.437  0.7484 -0.1733 -0.7679
 1008HK4    C3284607   2.938   9.909   0.218  0.2401  0.6583 -0.1314
 1008HK4    H1684608   3.025   9.845   0.228 -0.5257 -0.2266  1.0223
 1008HK4    C3184609   2.850   9.915   0.110 -0.0235 -0.1418  0.0347
 1008HK4    C3484610   2.849   9.867  11.221  0.2801 -0.0306 -0.0054
 1008HK4    C3384611   2.714   9.888  11.173  0.3515  0.3904 -0.0283
 1008HK4    C3584612   2.673   9.831  11.053  0.3865  0.8230 -0.2449
 1008HK4    H1784613   2.578   9.862  11.009  1.3587  0.4740 -2.6871
 1008HK4    C3684614   2.760   9.756  10.976  0.1890  1.1995 -0.8417
 1008HK4    H1884615   2.721   9.709  10.884 -0.1625 -1.3221  0.5567
 1008HK4    C3784616   2.889   9.734  11.022 -0.0500  0.2907 -0.5955
 1008HK4    H1984617   2.959   9.669  10.969  0.4548 -0.8245  1.3751
 1008HK4    C3884618   2.934   9.792  11.140 -0.0840  0.0348 -0.4569
 1008HK4    H2084619   3.043   9.792  11.149 -0.1464  2.7138  1.0511
 1008HK4    C1484620   2.709   9.986   0.510  0.1099  0.1300  0.1964
 1008HK4     C984621   2.787  10.016   0.622  0.5634 -0.0135 -0.0757
 1008HK4     C884622   2.744   9.973   0.749  0.3372  0.0259 -0.1380
 1008HK4    C1184623   2.619   9.913   0.758  0.2044  0.3375  0.1297
 1008HK4     H484624   2.579   9.914   0.860  1.4949  2.5649  0.6441
 1008HK4    C1284625   2.535   9.893   0.649  0.2830 -0.3870  0.2023
 1008HK4     H584626   2.459   9.814   0.654  0.7273 -0.8030  0.4922
 1008HK4    C1384627   2.582   9.926   0.523  0.1994 -0.0432  0.2616
 1008HK4     H684628   2.514   9.910   0.438  0.6354 -4.1255  0.5801
 1008HK4     C784629   2.826  10.001   0.870 -0.0828  0.0930  0.1304
 1008HK4     O284630   2.783   9.978   0.983 -0.8091 -0.1557 -0.1926
 1008HK4     C484631   2.956  10.069   0.853 -0.0354 -0.0280  0.0067
 1008HK4     C384632   3.043  10.065   0.962 -0.5462 -0.2689  0.4085
 1008HK4     H384633   3.010  10.025   1.059  1.3474 -0.8835  0.8178
 1008HK4     C284634   3.170  10.121   0.952 -0.2948 -0.8804  0.1102
 1008HK4     H284635   3.243  10.104   1.032  0.2530  0.0658 -0.1756
 1008HK4     C184636   3.197  10.199   0.840 -0.7799  0.4291  0.8893
 1008HK4     H184637   3.297  10.243   0.837 -0.7455  0.3125  0.3793
 1008HK4     C684638   3.110  10.209   0.729  0.2923 -0.5090 -0.0472
 1008HK4     C584639   2.990  10.137   0.735 -0.0559  0.0746  0.0618
 1008HK4    C1084640   2.900  10.114   0.619  0.1618  0.4512 -0.1863
 1008HK4     O184641   2.885  10.199   0.532  0.0366  0.5885 -0.0303
 1008HK4    C1684642   3.146  10.324   0.644  0.3701 -0.4993 -0.0038
 1008HK4    C1584643   3.211  10.442   0.685  0.3823 -0.6139  0.3036
 1008HK4     H784644   3.204  10.472   0.790  1.1486  1.0335 -0.1032
 1008HK4    C2084645   3.282  10.522   0.596 -0.4250 -0.0723  0.1448
 1008HK4     H984646   3.326  10.616   0.631  1.8264 -0.8784 -0.4134
 1008HK4    C1984647   3.288  10.494   0.460 -0.0218 -0.8636  0.3218
 1008HK4    C1884648   3.225  10.371   0.418 -0.5037 -0.4836 -0.0780
 1008HK4    C1784649   3.159  10.291   0.509 -0.4989 -0.4986 -0.0877
 1008HK4     H884650   3.135  10.189   0.478 -1.3494 -0.3649  0.0942
 1008HK4     N184651   3.252  10.348   0.281 -0.0844  0.4799 -0.1662
 1008HK4    C2184652   3.338  10.451   0.239  0.3810  0.2077  0.1199
 1008HK4    C2284653   3.362  10.546   0.346  0.0622 -0.2883  0.6348
 1008HK4    C2684654   3.440  10.659   0.327 -0.1686 -0.2575 -0.1253
 1008HK4    H1384655   3.470  10.719   0.413 -1.4394 -0.1690  0.2599
 1008HK4    C2584656   3.505  10.675   0.205 -0.6211 -0.1887 -0.3578
 1008HK4    H1284657   3.582  10.747   0.178  0.8965 -1.1866  1.2471
 1008HK4    C2484658   3.487  10.583   0.102 -0.4734 -0.7565  0.1209
 1008HK4    H1184659   3.522  10.607   0.001  1.1269  0.3704  0.9151
 1008HK4    C2384660   3.404  10.473   0.119 -0.3430 -0.9522 -0.4968
 1008HK4    H1084661   3.395  10.398   0.040  0.1648 -0.0763 -1.3966
 1008HK4    C3984662   3.158  10.275   0.206 -0.4049  0.5295  0.1863
 1008HK4    C4184663   3.196  10.222   0.082 -0.1835 -0.0176  0.4851
 1008HK4    H2184664   3.296  10.184   0.055  0.5960  1.2870  1.5250
 1008HK4    C4284665   3.105  10.196  11.228  0.2392 -0.0887  0.1266
 1008HK4    H2284666   3.145  10.165  11.130  1.5079  2.7993 -0.3273
 1008HK4    C4384667   2.970  10.221  11.243  0.3461  0.4952  0.1050
 1008HK4    H2384668   2.888  10.188  11.178 -1.4275  2.1047  1.4506
 1008HK4    C4484669   2.924  10.270   0.117 -0.3740  0.5316 -0.1719
 1008HK4    H2484670   2.820  10.295   0.139 -0.4360  4.0237 -3.9752
 1008HK4    C4584671   3.018  10.287   0.218 -0.4892 -0.2941  0.0846
 1008HK4    H2584672   2.985  10.320   0.318 -2.0989 -1.3685 -0.0921
 1009HK4    H2884673   4.202   0.475   2.728  1.6935 -1.9501  1.7470
 1009HK4    C4884674   4.271   0.473   2.643  0.0728 -0.1425  0.3468
 1009HK4    C4784675   4.232   0.406   2.527 -0.3418  0.4618  0.1333
 1009HK4    H2784676   4.136   0.352   2.526 -0.9866  1.4363  3.1594
 1009HK4    C4684677   4.316   0.409   2.417 -0.6356  0.1626 -0.0992
 1009HK4    H2684678   4.283   0.364   2.322 -0.9407  1.0892 -0.4422
 1009HK4    C4084679   4.440   0.476   2.412 -0.0570 -0.8302  0.8212
 1009HK4    C5084680   4.473   0.548   2.528  0.5810  0.3457 -0.0727
 1009HK4    H3084681   4.567   0.605   2.531 -0.4849  2.2860 -2.2648
 1009HK4    C4984682   4.390   0.545   2.640  0.0084 -0.0683 -0.5072
 1009HK4    H2984683   4.420   0.595   2.733 -0.7991 -1.1773  0.3707
 1009HK4     N284684   4.544   0.427   2.331 -0.1180  0.4714 -0.0495
 1009HK4    C3084685   4.562   0.300   2.273 -0.0235  0.5354 -0.1595
 1009HK4    C2984686   4.497   0.182   2.305  0.3563  0.3391 -0.1109
 1009HK4    H1584687   4.426   0.186   2.387  0.3649  3.9199 -0.2139
 1009HK4    C2884688   4.540   0.063   2.247 -0.1927  0.0962 -0.0240
 1009HK4    C2784689   4.640   0.061   2.147 -0.1558  0.1102  0.0116
 1009HK4    H1484690   4.655  11.218   2.087  1.0428 -0.0804  0.5854
 1009HK4    C3284691   4.705   0.179   2.111 -0.1110  0.0510 -0.0998
 1009HK4    H1684692   4.787   0.173   2.039  0.5158 -0.9209  0.6897
 1009HK4    C3184693   4.670   0.297   2.176  0.2835  0.0012  0.2004
 1009HK4    C3484694   4.727   0.430   2.178  0.1971  0.0449 -0.2228
 1009HK4    C3384695   4.642   0.506   2.267 -0.0929  0.0653 -0.5174
 1009HK4    C3584696   4.655   0.644   2.267 -0.0329  0.0658  0.2408
 1009HK4    H1784697   4.582   0.695   2.329 -0.6664  0.3011 -0.6799
 1009HK4    C3684698   4.752   0.708   2.190  0.0406 -0.2423  0.0742
 1009HK4    H1884699   4.766   0.816   2.208 -1.7617 -0.0069  0.1890
 1009HK4    C3784700   4.827   0.634   2.099 -0.0282 -0.3697  0.1225
 1009HK4    H1984701   4.901   0.685   2.037  1.2030  0.0227  1.8902
 1009HK4    C3884702   4.819   0.496   2.097 -0.0022 -0.3634 -0.7842
 1009HK4    H2084703   4.877   0.434   2.027  2.0086  1.6387 -0.9514
 1009HK4    C1484704   4.513  11.183   2.314 -0.2469  0.1131 -0.0164
 1009HK4     C984705   4.598  11.072   2.318  0.2377  0.4854  0.0774
 1009HK4     C884706   4.556  10.938   2.304  0.2533  0.4454  0.4229
 1009HK4    C1184707   4.420  10.909   2.311  0.2833  0.1210 -0.2472
 1009HK4     H484708   4.378  10.807   2.306  1.4649 -0.3792 -0.1430
 1009HK4    C1284709   4.332  11.017   2.312 -0.0424 -0.1510  0.1519
 1009HK4     H584710   4.227  10.998   2.285 -0.6837 -0.2626  2.5903
 1009HK4    C1384711   4.376  11.148   2.308 -0.2246 -0.0728  0.5512
 1009HK4     H684712   4.298  11.226   2.308 -0.6737 -0.5084  1.7143
 1009HK4     C784713   4.649  10.827   2.272  0.0438  0.4028 -0.0431
 1009HK4     O284714   4.603  10.713   2.279  0.0629  0.3916 -0.1040
 1009HK4     C484715   4.793  10.861   2.262  0.2084 -0.0581  0.6910
 1009HK4     C384716   4.879  10.762   2.215  0.0508  0.4262 -0.6541
 1009HK4     H384717   4.846  10.659   2.235 -0.5724  0.7770  0.1701
 1009HK4     C284718   5.008  10.793   2.173  0.4278 -0.1974  0.0341
 1009HK4     H284719   5.076  10.710   2.149 -1.2737 -0.9025 -2.4792
 1009HK4     C184720   5.052  10.924   2.187 -0.1804  0.0380 -0.2367
 1009HK4     H184721   5.156  10.948   2.164 -0.9089  0.9971 -2.7634
 1009HK4     C684722   4.970  11.025   2.243  0.7235  0.3508  0.5247
 1009HK4     C584723   4.843  10.990   2.289  0.5503  0.0066 -0.2012
 1009HK4    C1084724   4.744  11.090   2.338  0.3845  0.0054 -0.5298
 1009HK4     O184725   4.782  11.146   2.441 -0.3364 -0.3709 -0.0617
 1009HK4    C1684726   5.003  11.164   2.208  0.0185  0.3911 -0.0050
 1009HK4    C1584727   5.050  11.198   2.079 -0.1762  0.0004 -0.1787
 1009HK4     H784728   5.061  11.115   2.008 -1.4484 -0.5903  0.2971
 1009HK4    C2084729   5.077   0.081   2.043  0.3142 -0.1073 -0.2126
 1009HK4     H984730   5.088   0.112   1.939  1.0438  0.8510  0.1403
 1009HK4    C1984731   5.080   0.182   2.139  0.4256 -0.1692 -0.1517
 1009HK4    C1884732   5.042   0.148   2.275 -0.0949  0.4643 -0.1387
 1009HK4    C1784733   5.012   0.016   2.304  0.2420  0.4084 -0.0428
 1009HK4     H884734   5.023  11.238   2.409 -1.5648  0.7198  0.2385
 1009HK4     N184735   5.034   0.267   2.350 -0.4130  0.5444 -0.3013
 1009HK4    C2184736   5.066   0.375   2.265 -0.9980  0.3970 -0.7152
 1009HK4    C2284737   5.102   0.325   2.134 -0.1533 -0.0842 -0.3010
 1009HK4    C2684738   5.163   0.416   2.048 -0.3364  0.1007 -0.2351
 1009HK4    H1384739   5.186   0.388   1.945  1.2391 -1.3253  0.4720
 1009HK4    C2584740   5.188   0.547   2.086  0.1311 -0.1109  0.1862
 1009HK4    H1284741   5.225   0.619   2.013  1.1831  0.3159  1.1240
 1009HK4    C2484742   5.155   0.589   2.214 -0.2427  0.1171  0.0147
 1009HK4    H1184743   5.203   0.683   2.249  1.6758 -0.2905 -1.4349
 1009HK4    C2384744   5.090   0.507   2.304 -0.1359  0.0301  0.0130
 1009HK4    H1084745   5.045   0.544   2.396  1.4224 -2.4474  1.8604
 1009HK4    C3984746   4.983   0.279   2.480  0.2147 -0.3575  0.0329
 1009HK4    C4184747   5.024   0.382   2.567 -0.4275 -0.1648  0.1092
 1009HK4    H2184748   5.125   0.422   2.552  0.4390 -1.5356  2.0918
 1009HK4    C4284749   4.947   0.420   2.677 -0.1349 -0.0081  0.2624
 1009HK4    H2284750   4.984   0.495   2.748 -2.2061  2.0728 -0.8020
 1009HK4    C4384751   4.828   0.355   2.708 -0.2757  0.1900  0.1388
 1009HK4    H2384752   4.761   0.401   2.781 -1.8555  1.1291 -1.8449
 1009HK4    C4484753   4.787   0.251   2.625  0.3808 -0.2518  0.3592
 1009HK4    H2484754   4.681   0.220   2.628  0.5710 -0.9730 -0.3693
 1009HK4    C4584755   4.866   0.211   2.519  0.1460 -0.1739  0.1532
 1009HK4    H2584756   4.821   0.128   2.462 -0.3780 -1.2985  2.1608
 1010HK4    H2884757  11.149   4.258   2.851  1.3598  0.4447  0.8961
 1010HK4    C4884758  11.142   4.316   2.759  0.1350 -0.0592  0.6672
 1010HK4    C4784759  11.120   4.250   2.639  0.5809  0.4076  0.3295
 1010HK4    H2784760  11.113   4.140   2.632 -1.1152  0.3862  1.9742
 1010HK4    C4684761  11.087   4.323   2.526 -0.4859 -0.3550  0.1371
 1010HK4    H2684762  11.064   4.264   2.436 -1.6660  0.2247  0.0426
 1010HK4    C4084763  11.054   4.460   2.536  0.1944 -0.2169  0.4829
 1010HK4    C5084764  11.075   4.521   2.661 -0.2590  0.4116  0.2541
 1010HK4    H3084765  11.085   4.630   2.653 -0.6531  0.4604  0.4278
 1010HK4    C4984766  11.120   4.452   2.773 -0.6471 -0.1186  0.0864
 1010HK4    H2984767  11.143   4.506   2.867 -1.6359  0.1236  0.1968
 1010HK4     N284768  11.006   4.528   2.424  0.0033 -0.4285  0.4371
 1010HK4    C3084769  11.032   4.490   2.291  0.0181 -0.3012  0.4028
 1010HK4    C2984770  11.146   4.447   2.225 -0.0886  0.1412 -0.0725
 1010HK4    H1584771  11.235   4.423   2.283  1.5663  1.0298 -2.1682
 1010HK4    C2884772  11.146   4.415   2.089 -0.1656  0.4327 -0.1423
 1010HK4    C2784773  11.029   4.434   2.014 -0.1012 -0.2585 -0.4227
 1010HK4    H1484774  11.027   4.413   1.906 -2.0872  1.2703 -0.7131
 1010HK4    C3284775  10.913   4.483   2.073  0.3558  0.4116 -0.0673
 1010HK4    H1684776  10.819   4.501   2.020  2.6285 -0.8596 -4.7705
 1010HK4    C3184777  10.918   4.522   2.207  0.8433  0.9656 -0.2481
 1010HK4    C3484778  10.828   4.594   2.295 -0.1374 -0.6518  0.1048
 1010HK4    C3384779  10.883   4.598   2.429  0.0592 -0.2938  0.0175
 1010HK4    C3584780  10.818   4.675   2.525  0.1266 -0.2235  0.0055
 1010HK4    H1784781  10.858   4.683   2.626  2.9910  0.3263 -1.1114
 1010HK4    C3684782  10.709   4.756   2.496  0.3497  0.1412  0.1875
 1010HK4    H1884783  10.690   4.839   2.566 -0.4709  0.8344 -0.8403
 1010HK4    C3784784  10.662   4.757   2.365  0.0018  0.7200  0.3109
 1010HK4    H1984785  10.585   4.829   2.338 -0.1857  0.4972  0.2499
 1010HK4    C3884786  10.718   4.675   2.268  0.1085 -0.0096  0.9857
 1010HK4    H2084787  10.685   4.679   2.164  2.7846  1.8867  0.1451
 1010HK4    C1484788   0.030   4.383   2.032 -0.3932 -0.4462 -0.1970
 1010HK4     C984789   0.061   4.415   1.899  1.1891  0.2110  0.3208
 1010HK4     C884790   0.145   4.335   1.819  0.2035 -0.1621 -0.3535
 1010HK4    C1184791   0.198   4.220   1.877 -0.0845  0.0253  0.2819
 1010HK4     H484792   0.253   4.153   1.809  0.3016  0.5258  0.0937
 1010HK4    C1284793   0.178   4.188   2.011 -0.2049 -0.2371  0.2012
 1010HK4     H584794   0.227   4.102   2.059  0.5786 -0.5878 -1.1845
 1010HK4    C1384795   0.094   4.270   2.086  0.3620  0.2277  0.3333
 1010HK4     H684796   0.077   4.244   2.191 -1.3089 -0.2265 -0.0323
 1010HK4     C784797   0.173   4.373   1.679 -0.0986  0.6576 -0.1926
 1010HK4     O284798   0.264   4.318   1.618 -0.3124 -0.1773  0.2347
 1010HK4     C484799   0.100   4.488   1.621 -0.2942  0.4050 -0.4444
 1010HK4     C384800   0.099   4.501   1.482  0.3298  0.5900 -0.4282
 1010HK4     H384801   0.189   4.468   1.428  1.0668 -1.1104  1.7590
 1010HK4     C284802   0.018   4.592   1.414  0.1306  0.1209 -0.8182
 1010HK4     H284803   0.021   4.592   1.305 -0.2687 -2.1005 -0.8616
 1010HK4     C184804  11.176   4.662   1.493 -0.0847 -0.9555 -0.0973
 1010HK4     H184805  11.115   4.740   1.445  1.7187  1.0412  0.7985
 1010HK4     C684806  11.167   4.646   1.633  0.0409  0.5016  0.0848
 1010HK4     C584807   0.013   4.566   1.700 -0.1309  0.1861 -0.0468
 1010HK4    C1084808   0.011   4.545   1.847  0.4514 -0.2378 -0.0964
 1010HK4     O184809   0.021   4.646   1.917  0.3311  0.1163 -0.5874
 1010HK4    C1684810  11.036   4.660   1.699 -0.0078 -0.4862  0.2114
 1010HK4    C1584811  10.921   4.610   1.635 -0.1203  0.1393 -0.0770
 1010HK4     H784812  10.932   4.544   1.549 -0.1286  0.3392 -0.2316
 1010HK4    C2084813  10.792   4.649   1.673 -0.3024 -0.6548  0.1402
 1010HK4     H984814  10.708   4.608   1.616 -0.1898 -2.5104  1.2774
 1010HK4    C1984815  10.772   4.733   1.782 -0.0255 -0.1195 -0.2194
 1010HK4    C1884816  10.889   4.783   1.852 -0.3151  0.0143  0.1613
 1010HK4    C1784817  11.014   4.751   1.802 -0.5534  0.3711 -0.6616
 1010HK4     H884818  11.102   4.811   1.826 -0.6654  0.6803 -1.0266
 1010HK4     N184819  10.852   4.878   1.949 -0.2463 -0.1083  0.3076
 1010HK4    C2184820  10.711   4.884   1.943 -0.2053  0.2629 -0.3942
 1010HK4    C2284821  10.656   4.795   1.843  0.0097  0.0438 -0.3161
 1010HK4    C2684822  10.519   4.776   1.831 -0.0465 -0.1438  0.5272
 1010HK4    H1384823  10.474   4.695   1.774  0.6364 -0.6362  0.6792
 1010HK4    C2584824  10.430   4.856   1.901  0.1384 -0.1100  0.7218
 1010HK4    H1284825  10.331   4.876   1.860 -0.5667  0.8186  2.8221
 1010HK4    C2484826  10.481   4.945   1.994  0.0210  0.6122  0.0898
 1010HK4    H1184827  10.412   4.998   2.062  1.0254  2.3927 -0.2280
 1010HK4    C2384828  10.617   4.956   2.017  0.0514 -0.0768  0.2615
 1010HK4    H1084829  10.657   4.997   2.109 -0.1852 -2.7464  1.5900
 1010HK4    C3984830  10.932   4.896   2.063  0.0677 -0.2087  0.1000
 1010HK4    C4184831  10.913   5.001   2.155  0.8291  0.6741 -0.7359
 1010HK4    H2184832  10.865   5.094   2.121 -0.8173  0.7299  1.5931
 1010HK4    C4284833  10.980   5.007   2.276 -0.2784 -0.2368 -0.0696
 1010HK4    H2284834  10.966   5.090   2.348  0.8604  0.4140 -0.6070
 1010HK4    C4384835  11.084   4.918   2.299 -0.1817 -0.1129 -0.0197
 1010HK4    H2384836  11.150   4.925   2.385 -1.2242  0.9177  0.7079
 1010HK4    C4484837  11.116   4.815   2.211 -0.3576 -0.2592  0.0901
 1010HK4    H2484838  11.192   4.736   2.225 -0.8257 -0.7007  0.1313
 1010HK4    C4584839  11.037   4.808   2.097  0.2115 -0.2036 -0.3130
 1010HK4    H2584840  11.059   4.718   2.037  3.1091  0.2597 -0.0104
 1011HK4    H2884841   1.388   1.078   4.085  0.9536  0.2877  0.8668
 1011HK4    C4884842   1.349   1.171   4.043  0.3598  0.1262  1.0624
 1011HK4    C4784843   1.231   1.227   4.092 -0.0869  0.2407 -0.1391
 1011HK4    H2784844   1.163   1.164   4.150 -0.8916  1.8120  0.6386
 1011HK4    C4684845   1.202   1.361   4.067  0.0175  0.2649 -0.1304
 1011HK4    H2684846   1.116   1.403   4.120 -0.6934 -0.8089 -0.4183
 1011HK4    C4084847   1.289   1.448   3.999  0.4567  0.1931  0.3293
 1011HK4    C5084848   1.405   1.385   3.950  0.1015 -0.2052 -0.0018
 1011HK4    H3084849   1.472   1.441   3.883 -0.2912 -0.5936 -0.7338
 1011HK4    C4984850   1.439   1.252   3.974 -0.1105 -0.2611 -0.0156
 1011HK4    H2984851   1.529   1.208   3.930  0.8409 -1.2172  2.7727
 1011HK4     N284852   1.287   1.587   4.016 -0.1821  0.2189  0.0648
 1011HK4    C3084853   1.239   1.658   4.128 -0.1534 -0.0273  0.2317
 1011HK4    C2984854   1.231   1.622   4.262 -0.3260  0.0638  0.2491
 1011HK4    H1584855   1.277   1.525   4.283  2.8211  0.7635 -2.9495
 1011HK4    C2884856   1.198   1.713   4.362  1.0003  0.5821  0.2186
 1011HK4    C2784857   1.156   1.843   4.326  0.4891  0.5263  0.6143
 1011HK4    H1484858   1.150   1.921   4.403  1.9214  0.3004  0.9678
 1011HK4    C3284859   1.162   1.875   4.191 -0.1149 -0.4580  0.3425
 1011HK4    H1684860   1.117   1.968   4.157 -0.7245 -1.3858 -1.4316
 1011HK4    C3184861   1.206   1.793   4.088 -0.3342 -0.1417 -0.0042
 1011HK4    C3484862   1.237   1.808   3.947 -0.1217 -0.0471  0.0520
 1011HK4    C3384863   1.285   1.677   3.908 -0.3083 -0.0531 -0.1608
 1011HK4    C3584864   1.316   1.662   3.773 -0.1193 -0.0415 -0.1197
 1011HK4    H1784865   1.356   1.565   3.744 -0.2095  0.0906 -0.6822
 1011HK4    C3684866   1.297   1.761   3.676 -0.6512 -0.2709 -0.2515
 1011HK4    H1884867   1.353   1.759   3.582  1.0695  0.2087  0.7389
 1011HK4    C3784868   1.242   1.880   3.722  0.2068 -0.0113  0.1307
 1011HK4    H1984869   1.209   1.960   3.655 -0.2281  0.1354  0.5198
 1011HK4    C3884870   1.209   1.908   3.854  0.3072  0.1403  0.1237
 1011HK4    H2084871   1.140   1.987   3.882 -1.4104 -1.4506  0.4904
 1011HK4    C1484872   1.189   1.681   4.505  0.0575 -0.0761  0.0092
 1011HK4     C984873   1.094   1.728   4.597  0.1911 -0.1101  0.1644
 1011HK4     C884874   1.131   1.743   4.732 -0.3441 -0.5892  0.3675
 1011HK4    C1184875   1.255   1.702   4.780 -0.0361  0.1689  0.2236
 1011HK4     H484876   1.291   1.714   4.883  0.3984  1.0326 -0.0158
 1011HK4    C1284877   1.343   1.639   4.693 -0.0834  0.3947  0.0110
 1011HK4     H584878   1.435   1.594   4.733  2.1629  3.0673 -1.9045
 1011HK4    C1384879   1.307   1.627   4.559 -0.1006 -0.3527  0.0824
 1011HK4     H684880   1.376   1.580   4.487  1.2727 -0.3279  1.3618
 1011HK4     C784881   1.039   1.805   4.830  0.0200 -0.2805  0.5187
 1011HK4     O284882   1.051   1.784   4.951  0.3227 -0.0383  0.5302
 1011HK4     C484883   0.912   1.864   4.781  0.2092 -0.1831  0.1409
 1011HK4     C384884   0.835   1.942   4.866 -0.2297  0.0851 -0.5066
 1011HK4     H384885   0.871   1.980   4.963 -0.4161 -1.5517  0.2161
 1011HK4     C284886   0.704   1.976   4.832 -0.2765  0.3920 -0.0329
 1011HK4     H284887   0.653   2.063   4.875 -0.6275 -0.1152  0.5773
 1011HK4     C184888   0.649   1.913   4.721  0.1015  0.0501 -0.0298
 1011HK4     H184889   0.545   1.931   4.690  0.0972  0.9753  0.5199
 1011HK4     C684890   0.718   1.822   4.638  0.0767 -0.2229  0.2513
 1011HK4     C584891   0.855   1.809   4.665  0.2597  0.6196 -0.2644
 1011HK4    C1084892   0.950   1.751   4.566  0.2481  0.0812  0.0391
 1011HK4     O184893   0.914   1.715   4.455 -0.5382  0.1163  0.2832
 1011HK4    C1684894   0.639   1.759   4.532 -0.3221 -0.1238  0.4850
 1011HK4    C1584895   0.536   1.835   4.473  0.0122 -0.1255 -0.1148
 1011HK4     H784896   0.534   1.945   4.479  0.6196 -0.1004 -0.3650
 1011HK4    C2084897   0.443   1.770   4.392  0.0396  0.1397 -0.3572
 1011HK4     H984898   0.353   1.830   4.379  0.0002 -0.0159 -0.7958
 1011HK4    C1984899   0.452   1.634   4.369  0.3271  0.1124 -0.0942
 1011HK4    C1884900   0.561   1.556   4.425  0.1597 -0.1203 -0.0892
 1011HK4    C1784901   0.649   1.622   4.510  0.2738  0.0426 -0.3315
 1011HK4     H884902   0.695   1.559   4.586  0.9531  0.6914 -0.1960
 1011HK4     N184903   0.535   1.418   4.415 -0.1200 -0.0662 -0.1102
 1011HK4    C2184904   0.407   1.410   4.355 -0.3606  0.1837  0.3633
 1011HK4    C2284905   0.355   1.539   4.317  0.0567  0.2793  0.1088
 1011HK4    C2684906   0.231   1.546   4.253  0.5415 -0.1541 -0.8879
 1011HK4    H1384907   0.190   1.641   4.219  1.9399  0.2429 -1.4888
 1011HK4    C2584908   0.159   1.428   4.232 -0.3095  0.0542  0.7686
 1011HK4    H1284909   0.052   1.432   4.212 -0.6785  2.6077  2.9221
 1011HK4    C2484910   0.217   1.305   4.260  0.0612  0.0930  0.1853
 1011HK4    H1184911   0.173   1.212   4.222  4.0632 -1.2567 -1.3852
 1011HK4    C2384912   0.339   1.292   4.326  0.1728 -0.0286 -0.0445
 1011HK4    H1084913   0.343   1.217   4.405  1.2047 -0.3971 -0.4361
 1011HK4    C3984914   0.640   1.326   4.420 -0.1386 -0.1074 -0.4970
 1011HK4    C4184915   0.623   1.186   4.428  0.1215 -0.1303 -0.3495
 1011HK4    H2184916   0.528   1.149   4.470  0.8827  0.1110  1.6466
 1011HK4    C4284917   0.724   1.096   4.397  0.0310 -0.2477 -0.3043
 1011HK4    H2284918   0.708   0.993   4.430  0.4660 -0.1971  0.0608
 1011HK4    C4384919   0.851   1.141   4.361  0.0326  0.2206  0.2890
 1011HK4    H2384920   0.932   1.068   4.364  1.9178  2.0515 -3.5699
 1011HK4    C4484921   0.869   1.278   4.343 -0.1085  0.1750 -0.2083
 1011HK4    H2484922   0.960   1.317   4.295 -0.3904  2.2522  0.9104
 1011HK4    C4584923   0.767   1.367   4.375  0.0708  0.1866  0.3513
 1011HK4    H2584924   0.786   1.473   4.353  1.0815  0.4213  2.2499
 1012HK4    H2884925   1.075   7.773   2.609  1.1026  0.2888  0.9115
 1012HK4    C4884926   1.115   7.795   2.511  0.1257  0.0735  0.4551
 1012HK4    C4784927   1.022   7.800   2.408  0.2450  0.0537  0.3462
 1012HK4    H2784928   0.919   7.774   2.434  0.2525  2.2974  2.7838
 1012HK4    C4684929   1.061   7.832   2.278  0.0424 -0.2974  0.1999
 1012HK4    H2684930   0.984   7.832   2.199  0.2109 -2.1764  0.0030
 1012HK4    C4084931   1.194   7.865   2.248 -0.1043  0.1930  0.0833
 1012HK4    C5084932   1.284   7.859   2.357  0.2682 -0.0940 -0.2380
 1012HK4    H3084933   1.389   7.891   2.347  1.4045 -2.9796  1.7284
 1012HK4    C4984934   1.249   7.824   2.487  0.0404 -0.1523 -0.3148
 1012HK4    H2984935   1.303   7.850   2.579  0.6320 -2.7450  0.0950
 1012HK4     N284936   1.231   7.932   2.131  0.3409  0.0151  0.1194
 1012HK4    C3084937   1.137   8.000   2.051  0.8419  0.3535 -0.1853
 1012HK4    C2984938   1.023   8.071   2.087  0.2979 -0.1164 -0.9834
 1012HK4    H1584939   1.008   8.094   2.192  1.7226  2.5284 -1.3256
 1012HK4    C2884940   0.935   8.129   1.995  0.2139  0.9096 -0.2665
 1012HK4    C2784941   0.971   8.130   1.859  0.1756  0.8421 -0.2774
 1012HK4    H1484942   0.919   8.194   1.786 -0.2980  0.1647 -0.5336
 1012HK4    C3284943   1.089   8.069   1.819 -0.0371  0.3333 -0.1351
 1012HK4    H1684944   1.098   8.047   1.713 -0.0585  1.9432 -0.4911
 1012HK4    C3184945   1.168   7.999   1.909  0.0559  0.1483 -0.3594
 1012HK4    C3484946   1.297   7.933   1.904 -0.1138 -0.2304  0.2083
 1012HK4    C3384947   1.327   7.886   2.038  0.2895 -0.1493  0.1479
 1012HK4    C3584948   1.448   7.821   2.057  0.5601  0.4663  0.5587
 1012HK4    H1784949   1.456   7.781   2.158 -2.4661 -0.3919  0.5136
 1012HK4    C3684950   1.545   7.817   1.958  0.0784 -0.6414  0.1190
 1012HK4    H1884951   1.651   7.806   1.985 -0.2461  0.4005  1.8400
 1012HK4    C3784952   1.513   7.863   1.830 -0.2179  0.0314  0.4322
 1012HK4    H1984953   1.575   7.831   1.746 -1.3809 -1.8827  0.2705
 1012HK4    C3884954   1.390   7.922   1.802 -0.1795 -0.0339  0.1264
 1012HK4    H2084955   1.365   7.948   1.699 -0.9426 -0.3432  0.2319
 1012HK4    C1484956   0.794   8.137   2.036  0.1953  0.2326 -0.1895
 1012HK4     C984957   0.700   8.096   1.940 -0.1567  0.3178  0.1174
 1012HK4     C884958   0.605   8.191   1.897 -0.1686  0.2251 -0.0611
 1012HK4    C1184959   0.600   8.316   1.958  0.0999  0.3136 -0.2196
 1012HK4     H484960   0.531   8.392   1.919 -0.5781  0.3300  0.9802
 1012HK4    C1284961   0.685   8.346   2.064  0.3822 -0.1733 -0.3058
 1012HK4     H584962   0.664   8.433   2.128 -1.2316 -0.2355 -0.7188
 1012HK4    C1384963   0.780   8.255   2.111 -0.3611 -0.4197  0.7542
 1012HK4     H684964   0.834   8.261   2.206 -0.8450 -2.2497  1.1603
 1012HK4     C784965   0.520   8.153   1.782 -0.0828 -0.4519  0.0946
 1012HK4     O284966   0.417   8.215   1.756  0.2292 -0.1361 -0.3955
 1012HK4     C484967   0.553   8.029   1.708 -0.0229 -0.1692 -0.3526
 1012HK4     C384968   0.477   7.998   1.595 -0.2959  0.3119 -0.3037
 1012HK4     H384969   0.396   8.064   1.563  0.3873  0.5043 -1.6679
 1012HK4     C284970   0.502   7.888   1.514  0.2184  0.2153 -0.0209
 1012HK4     H284971   0.433   7.868   1.431 -0.6958 -0.0997  0.7980
 1012HK4     C184972   0.604   7.801   1.552 -0.1016 -0.3279 -0.4007
 1012HK4     H184973   0.610   7.705   1.498  0.8131 -0.3219 -0.3227
 1012HK4     C684974   0.692   7.834   1.657 -0.1937 -0.1641 -0.3747
 1012HK4     C584975   0.659   7.942   1.739  0.0465 -0.0920 -0.3717
 1012HK4    C1084976   0.717   7.963   1.875 -0.5845  0.4066 -0.1772
 1012HK4     O184977   0.733   7.864   1.947 -0.5084  0.3044 -0.3360
 1012HK4    C1684978   0.830   7.792   1.628  0.0293  0.4489 -0.2197
 1012HK4    C1584979   0.872   7.759   1.497  0.2585  0.0580 -0.0478
 1012HK4     H784980   0.814   7.794   1.411 -0.5902 -2.3495 -0.5049
 1012HK4    C2084981   0.976   7.673   1.465  0.0994 -0.1144 -0.1093
 1012HK4     H984982   1.002   7.652   1.361 -2.4802  0.5338 -0.9314
 1012HK4    C1984983   1.047   7.613   1.568 -0.0556 -0.0190  0.0511
 1012HK4    C1884984   1.009   7.642   1.705  0.1584  0.5973 -0.0210
 1012HK4    C1784985   0.906   7.733   1.728 -0.2606  0.1612 -0.1669
 1012HK4     H884986   0.903   7.775   1.829  1.8140  1.6355 -0.6801
 1012HK4     N184987   1.100   7.591   1.800 -0.4306 -0.5755 -0.0856
 1012HK4    C2184988   1.199   7.523   1.725  0.1105  0.3266 -0.1948
 1012HK4    C2284989   1.167   7.535   1.584  0.0529  0.0954 -0.2008
 1012HK4    C2684990   1.231   7.445   1.499  0.7746  0.2785  0.1384
 1012HK4    H1384991   1.226   7.451   1.390 -0.2096  2.7315  0.2775
 1012HK4    C2584992   1.317   7.347   1.546 -0.2234 -0.2644  0.8624
 1012HK4    H1284993   1.362   7.281   1.471 -0.2663 -0.9834  1.4704
 1012HK4    C2484994   1.356   7.342   1.679  0.5694  0.4207  0.6571
 1012HK4    H1184995   1.423   7.262   1.714  1.3317  1.4388  1.5834
 1012HK4    C2384996   1.295   7.431   1.767  0.1319  0.5398  0.2335
 1012HK4    H1084997   1.353   7.457   1.855  0.1257  1.7781 -0.1099
 1012HK4    C3984998   1.074   7.562   1.934 -0.3000  1.1107  0.3089
 1012HK4    C4184999   1.172   7.544   2.033 -0.3815  0.0726  0.2061
 1012HK4    H2185000   1.272   7.587   2.019 -0.8845  0.8510 -0.9970
 1012HK4    C4285001   1.143   7.480   2.153  0.2423 -0.3909  0.1169
 1012HK4    H2285002   1.222   7.454   2.225  1.4326  1.2347 -0.5787
 1012HK4    C4385003   1.015   7.436   2.184 -0.1118  0.6884  0.2240
 1012HK4    H2385004   0.990   7.410   2.287  0.9353 -0.4534  0.1970
 1012HK4    C4485005   0.916   7.467   2.091  0.0174  0.7393  0.1051
 1012HK4    H2485006   0.817   7.420   2.080  0.6424 -0.6670  0.4436
 1012HK4    C4585007   0.942   7.527   1.968 -0.1587 -0.0697 -0.3318
 1012HK4    H2585008   0.855   7.552   1.906 -0.3721 -2.3244 -0.9550
 1013HK4    H2885009   0.282  11.188   9.297  0.6625 -0.9174 -0.0551
 1013HK4    C4885010   0.231  11.135   9.377  0.0954  0.4473  0.5166
 1013HK4    C4785011   0.219  10.996   9.376  0.0663  0.4532  0.2215
 1013HK4    H2785012   0.261  10.946   9.287  0.9453  2.8641 -0.7747
 1013HK4    C4685013   0.173  10.924   9.485  0.8047  0.3691  0.4783
 1013HK4    H2685014   0.156  10.815   9.479  1.2988  0.2236  1.5710
 1013HK4    C4085015   0.147  10.987   9.608 -0.2094 -0.0160  0.4706
 1013HK4    C5085016   0.164  11.127   9.608 -0.6126  0.0332  0.2230
 1013HK4    H3085017   0.147  11.175   9.706 -2.1119 -1.6765  0.8221
 1013HK4    C4985018   0.207  11.200   9.498  0.1060  0.2439  0.6297
 1013HK4    H2985019   0.232   0.057   9.516  1.4624 -0.2826  1.9109
 1013HK4     N285020   0.055  10.935   9.700 -0.7285  0.0856  0.0106
 1013HK4    C3085021  11.208  10.837   9.667 -0.0865 -0.5500  0.0320
 1013HK4    C2985022  11.134  10.812   9.552  0.4152 -0.6213 -0.2724
 1013HK4    H1585023  11.143  10.880   9.467 -2.5878  2.4553  1.7452
 1013HK4    C2885024  11.033  10.716   9.554 -0.5132  0.3517  0.0288
 1013HK4    C2785025  11.009  10.643   9.672 -0.5583 -0.2674 -0.3621
 1013HK4    H1485026  10.924  10.574   9.680  0.5799 -1.5622  0.8484
 1013HK4    C3285027  11.084  10.660   9.788 -0.0868 -0.1086 -0.6941
 1013HK4    H1685028  11.063  10.592   9.870 -0.6433 -0.3435 -1.0288
 1013HK4    C3185029  11.192  10.748   9.781  0.2464 -0.4377  0.1677
 1013HK4    C3485030   0.027  10.800   9.888 -0.0737  0.4619 -0.0147
 1013HK4    C3385031   0.086  10.922   9.837 -0.0301  0.4033 -0.1131
 1013HK4    C3585032   0.159  11.003   9.923 -0.3084  0.4072  0.1171
 1013HK4    H1785033   0.200  11.100   9.896  3.7147 -1.9792 -2.8177
 1013HK4    C3685034   0.185  10.957  10.052  0.2555 -0.4414 -0.3046
 1013HK4    H1885035   0.254  11.016  10.113 -0.9759 -0.2339  0.8963
 1013HK4    C3785036   0.132  10.838  10.101 -0.4678  0.1595  0.3680
 1013HK4    H1985037   0.145  10.802  10.204  0.7372  1.1405  0.5722
 1013HK4    C3885038   0.053  10.760  10.018  0.2251  0.0523 -0.1984
 1013HK4    H2085039  11.240  10.675  10.049  0.6037 -0.4452 -0.8095
 1013HK4    C1485040  10.947  10.714   9.435 -0.4582  0.2189 -0.0056
 1013HK4     C985041  10.810  10.685   9.440 -0.2853 -0.5149  0.5013
 1013HK4     C885042  10.762  10.598   9.341 -0.6163  0.0436  0.1741
 1013HK4    C1185043  10.842  10.547   9.239 -0.4006  0.0276  0.3546
 1013HK4     H485044  10.793  10.478   9.169 -0.4849  2.8432 -2.4325
 1013HK4    C1285045  10.974  10.588   9.224 -0.4333  0.1455  0.3999
 1013HK4     H585046  11.034  10.554   9.139  0.9115  2.8748  0.2121
 1013HK4    C1385047  11.020  10.676   9.321 -0.0439  0.0218  0.3233
 1013HK4     H685048  11.096  10.750   9.290 -1.2934  0.8921 -0.7274
 1013HK4     C785049  10.619  10.560   9.342 -0.5493 -0.2200 -0.2729
 1013HK4     O285050  10.577  10.473   9.265  0.3869 -0.6835 -0.2637
 1013HK4     C485051  10.532  10.625   9.442 -0.0366 -0.0647  0.0740
 1013HK4     C385052  10.400  10.581   9.454 -0.0977 -0.0783 -0.6628
 1013HK4     H385053  10.389  10.472   9.468  0.6070 -0.0852 -0.1695
 1013HK4     C285054  10.306  10.664   9.512  0.0364 -0.1267 -0.3723
 1013HK4     H285055  10.201  10.633   9.527  0.0861 -0.8314 -1.4064
 1013HK4     C185056  10.338  10.792   9.554 -0.0911 -0.1530 -0.1940
 1013HK4     H185057  10.270  10.852   9.618 -1.2909 -1.6578 -0.0255
 1013HK4     C685058  10.469  10.840   9.538 -0.0885  0.1012  0.5254
 1013HK4     C585059  10.568  10.750   9.496 -0.3435 -0.0432  0.2385
 1013HK4    C1085060  10.714  10.764   9.522 -0.2826  0.2629 -0.2454
 1013HK4     O185061  10.751  10.806   9.632 -0.6809 -0.0035 -0.0092
 1013HK4    C1685062  10.489  10.984   9.556  0.2197  0.0543  0.5606
 1013HK4    C1585063  10.403  11.074   9.622 -0.2966 -0.1119  0.1122
 1013HK4     H785064  10.330  11.036   9.695  0.4663 -0.2599  0.8112
 1013HK4    C2085065  10.421  11.212   9.614 -0.1625 -0.1349  0.0021
 1013HK4     H985066  10.356   0.037   9.663 -0.0818  1.8519 -2.7617
 1013HK4    C1985067  10.519   0.022   9.535  0.1122 -0.0802  0.3781
 1013HK4    C1885068  10.607  11.180   9.463 -0.4705 -0.5530  0.2486
 1013HK4    C1785069  10.587  11.043   9.477  0.1715 -0.6767 -0.0374
 1013HK4     H885070  10.628  10.975   9.401  2.1767 -0.4229  0.7933
 1013HK4     N185071  10.689   0.001   9.372 -0.3396 -0.4296  0.4616
 1013HK4    C2185072  10.642   0.134   9.371  0.7138 -0.0509  0.6197
 1013HK4    C2285073  10.543   0.152   9.475  0.2061 -0.1961  0.1635
 1013HK4    C2685074  10.506   0.275   9.528 -0.6102 -0.2259 -0.3256
 1013HK4    H1385075  10.451   0.276   9.622 -0.1798 -1.6529 -0.0385
 1013HK4    C2585076  10.558   0.387   9.466 -0.4955 -0.3282 -0.4134
 1013HK4    H1285077  10.529   0.490   9.490 -2.0450 -0.8321 -0.0930
 1013HK4    C2485078  10.657   0.375   9.369  0.2670  0.2139  0.2876
 1013HK4    H1185079  10.694   0.468   9.325  0.6900  0.4125  1.0616
 1013HK4    C2385080  10.700   0.251   9.322 -0.1999  0.1545  0.0090
 1013HK4    H1085081  10.779   0.243   9.248 -1.4509 -0.0710 -1.3092
 1013HK4    C3985082  10.825  11.221   9.353 -0.3335 -0.1482  0.0809
 1013HK4    C4185083  10.894   0.015   9.238  0.1538 -0.4196  0.2729
 1013HK4    H2185084  10.846   0.066   9.153  2.6294 -2.7255 -2.6149
 1013HK4    C4285085  11.029  11.231   9.226  0.5045  1.2147 -0.3152
 1013HK4    H2285086  11.073  11.234   9.125  0.3440  1.5506 -0.3743
 1013HK4    C4385087  11.100  11.165   9.325 -0.5591  0.4134 -0.0821
 1013HK4    H2385088  11.208  11.148   9.324 -0.3362  1.8661 -1.4157
 1013HK4    C4485089  11.032  11.125   9.440  0.0644 -0.1358  0.0998
 1013HK4    H2485090  11.088  11.091   9.528 -1.0879  1.1148  1.3361
 1013HK4    C4585091  10.895  11.149   9.452 -0.0086 -0.3326 -0.2833
 1013HK4    H2585092  10.841  11.123   9.544  1.8307 -1.5733  0.4852
 1014HK4    H2885093  10.399  10.993   0.294 -0.0532 -0.4068 -1.8024
 1014HK4    C4885094  10.508  10.981   0.293  0.0447  0.2183 -0.2180
 1014HK4    C4785095  10.568  10.930   0.179 -0.2597  0.0777 -0.3161
 1014HK4    H2785096  10.503  10.905   0.094  0.9262 -0.4230 -1.0885
 1014HK4    C4685097  10.695  10.874   0.182 -0.3020  0.0184  0.6678
 1014HK4    H2685098  10.728  10.817   0.094  1.6671 -0.1705  1.4877
 1014HK4    C4085099  10.773  10.881   0.299  0.6964  0.5445 -0.0123
 1014HK4    C5085100  10.710  10.943   0.409  0.3980  0.2997 -0.0454
 1014HK4    H3085101  10.771  10.963   0.498 -1.6894  0.4270  1.4034
 1014HK4    C4985102  10.580  10.993   0.411  0.0455 -0.5957 -0.1320
 1014HK4    H2985103  10.541  11.024   0.510  3.4519 -1.5810  1.6078
 1014HK4     N285104  10.862  10.780   0.337 -0.0864 -0.1475  0.0086
 1014HK4    C3085105  10.856  10.652   0.278  0.0893  0.0167 -0.3645
 1014HK4    C2985106  10.746  10.573   0.247 -0.1406 -0.0779  0.6827
 1014HK4    H1585107  10.652  10.628   0.242 -0.4692 -0.7459 -0.6798
 1014HK4    C2885108  10.751  10.436   0.223 -0.0888 -0.0012  0.2280
 1014HK4    C2785109  10.880  10.379   0.227  0.0948  0.4365  0.7209
 1014HK4    H1485110  10.898  10.275   0.197 -0.3564  0.9433 -1.3641
 1014HK4    C3285111  10.993  10.456   0.253  0.6782 -0.2682  0.2602
 1014HK4    H1685112  11.085  10.404   0.281  0.5585  1.0178  3.1350
 1014HK4    C3185113  10.987  10.591   0.285  0.0495 -0.0911 -0.5793
 1014HK4    C3485114  11.078  10.679   0.355  0.3751 -0.5723 -0.3911
 1014HK4    C3385115  10.993  10.793   0.387  0.1170 -0.7721 -0.3664
 1014HK4    C3585116  11.052  10.901   0.452 -0.5878 -0.6422  0.0549
 1014HK4    H1785117  10.994  10.982   0.496 -1.4030 -1.6985  0.9778
 1014HK4    C3685118  11.189  10.909   0.474 -0.5648 -0.0353 -0.2972
 1014HK4    H1885119  11.236  10.995   0.523 -2.3265  0.7169  0.1322
 1014HK4    C3785120   0.021  10.805   0.430 -0.1618  0.0651  0.1965
 1014HK4    H1985121   0.129  10.816   0.418 -0.4426  0.3761 -2.2377
 1014HK4    C3885122  11.215  10.688   0.376  0.2954 -0.0169 -0.0872
 1014HK4    H2085123   0.022  10.605   0.332  0.5569 -1.0798  2.1870
 1014HK4    C1485124  10.622  10.366   0.228  0.0945 -0.3620 -0.1734
 1014HK4     C985125  10.619  10.233   0.274 -0.7566 -0.3859 -0.2996
 1014HK4     C885126  10.559  10.136   0.191 -0.5223 -0.3275 -0.5378
 1014HK4    C1185127  10.476  10.168   0.084 -0.6407 -0.4322 -0.4789
 1014HK4     H485128  10.411  10.092   0.039 -1.8045  1.5254 -2.2141
 1014HK4    C1285129  10.464  10.304   0.059 -0.0031 -0.3325 -0.2232
 1014HK4     H585130  10.377  10.342   0.004 -1.3063  0.1307  2.1277
 1014HK4    C1385131  10.538  10.404   0.121 -0.0589 -0.3871 -0.0629
 1014HK4     H685132  10.518  10.509   0.096  1.0380 -0.2399 -0.3465
 1014HK4     C785133  10.580   9.993   0.222  0.1612 -0.1390 -0.1325
 1014HK4     O285134  10.513   9.908   0.165 -0.2848  0.1879 -0.0922
 1014HK4     C485135  10.654   9.958   0.346 -0.3230  0.3521  0.2989
 1014HK4     C385136  10.676   9.823   0.374  0.3670  0.4769  0.3555
 1014HK4     H385137  10.662   9.755   0.290  0.1595  0.8920  0.0521
 1014HK4     C285138  10.711   9.773   0.499 -0.2750 -0.0963  0.3047
 1014HK4     H285139  10.758   9.675   0.516 -0.7867 -0.5797 -1.0220
 1014HK4     C185140  10.704   9.867   0.601  0.1860 -0.0071  0.2562
 1014HK4     H185141  10.710   9.829   0.704 -0.2551 -1.7500 -0.3465
 1014HK4     C685142  10.677  10.004   0.581 -0.1130 -0.1751 -0.5104
 1014HK4     C585143  10.663  10.052   0.450 -0.0439  0.8291 -0.1565
 1014HK4    C1085144  10.669  10.195   0.409 -0.1951  0.8399 -0.1486
 1014HK4     O185145  10.744  10.271   0.469  0.1614  0.4855 -0.1512
 1014HK4    C1685146  10.678  10.092   0.699 -0.2416 -0.5558 -0.2238
 1014HK4    C1585147  10.755  10.059   0.812  0.0486 -0.0363 -0.2720
 1014HK4     H785148  10.828   9.978   0.799  1.0786  0.6566  1.0338
 1014HK4    C2085149  10.742  10.107   0.942 -0.5579 -0.2730 -0.2460
 1014HK4     H985150  10.821  10.070   1.009  1.4489  0.5044 -2.1242
 1014HK4    C1985151  10.648  10.208   0.958 -0.4788 -0.2015 -0.2219
 1014HK4    C1885152  10.575  10.256   0.843 -0.3440 -0.1056 -0.2672
 1014HK4    C1785153  10.586  10.195   0.719  0.0095 -0.3531 -0.1139
 1014HK4     H885154  10.513  10.215   0.641 -1.7986 -1.5235  1.2277
 1014HK4     N185155  10.505  10.374   0.876 -0.3074 -0.1878  0.1104
 1014HK4    C2185156  10.532  10.402   1.011  0.0316 -0.0642  0.0183
 1014HK4    C2285157  10.611  10.295   1.068 -0.3686 -0.3919 -0.0342
 1014HK4    C2685158  10.643  10.284   1.203 -0.2093  0.1660 -0.0246
 1014HK4    H1385159  10.704  10.202   1.243 -0.4553  0.0967  0.2048
 1014HK4    C2585160  10.583  10.381   1.282 -0.3308 -0.1255  0.2412
 1014HK4    H1285161  10.598  10.379   1.390 -0.0521 -0.0388  0.2050
 1014HK4    C2485162  10.507  10.486   1.231  0.6379  0.4463 -0.0246
 1014HK4    H1185163  10.468  10.567   1.294  0.1428  1.0106 -1.0484
 1014HK4    C2385164  10.486  10.503   1.095  0.3715  0.1246 -0.0237
 1014HK4    H1085165  10.454  10.600   1.055 -1.2279  0.5663  2.2626
 1014HK4    C3985166  10.465  10.471   0.783  0.4809  0.1750  0.1407
 1014HK4    C4185167  10.358  10.561   0.803  0.2417  0.0180 -0.4187
 1014HK4    H2185168  10.282  10.526   0.875  1.3556  1.0033  1.2815
 1014HK4    C4285169  10.334  10.670   0.720  0.2520  0.4739  0.1782
 1014HK4    H2285170  10.260  10.747   0.745  1.7388  1.8582  0.4077
 1014HK4    C4385171  10.419  10.701   0.615  0.1615  0.2410  0.0357
 1014HK4    H2385172  10.418  10.799   0.566  1.6113 -0.3606 -1.2485
 1014HK4    C4485173  10.522  10.611   0.590 -0.1024 -0.0734  0.0693
 1014HK4    H2485174  10.583  10.625   0.499 -0.5381  2.1077  0.0826
 1014HK4    C4585175  10.546  10.502   0.672  0.3451 -0.0418 -0.0207
 1014HK4    H2585176  10.639  10.447   0.650 -1.1797 -2.2428 -1.0952
 1015HK4    H2885177   4.445   2.927   1.489  0.2624  0.3650 -1.7229
 1015HK4    C4885178   4.350   2.975   1.466 -0.2952 -0.0515 -0.3246
 1015HK4    C4785179   4.313   3.099   1.516  0.3578  0.1728 -0.3980
 1015HK4    H2785180   4.362   3.144   1.604  2.7990 -1.2905 -0.9621
 1015HK4    C4685181   4.204   3.168   1.466  0.0202 -0.1522 -0.1165
 1015HK4    H2685182   4.177   3.270   1.497 -1.2748 -0.3697 -0.5013
 1015HK4    C4085183   4.120   3.111   1.368 -0.4356 -0.3531  0.3894
 1015HK4    C5085184   4.165   2.987   1.318  0.2879 -0.0301  0.2250
 1015HK4    H3085185   4.112   2.939   1.234 -0.9105  3.7230 -1.3015
 1015HK4    C4985186   4.271   2.914   1.369  0.1058 -0.6520 -0.2792
 1015HK4    H2985187   4.282   2.807   1.346  2.2468  0.2507 -3.9125
 1015HK4     N285188   4.004   3.166   1.313  0.0427 -0.0448 -0.3244
 1015HK4    C3085189   3.983   3.306   1.306  0.3383  0.0284  0.1991
 1015HK4    C2985190   4.078   3.402   1.274  0.1856  0.0990 -0.0434
 1015HK4    H1585191   4.183   3.371   1.278  0.2118  0.3426  1.4237
 1015HK4    C2885192   4.044   3.536   1.271 -0.0513  0.0293 -0.5451
 1015HK4    C2785193   3.908   3.569   1.285 -0.0210  0.0347 -0.2625
 1015HK4    H1485194   3.872   3.667   1.250  0.0585 -0.2444 -1.1333
 1015HK4    C3285195   3.807   3.475   1.303  0.0658  0.0377  0.2391
 1015HK4    H1685196   3.703   3.503   1.316 -0.2375 -0.7943 -0.3422
 1015HK4    C3185197   3.842   3.340   1.306  0.3558  0.1049 -0.0140
 1015HK4    C3485198   3.773   3.213   1.296  0.0255  0.2972 -0.1968
 1015HK4    C3385199   3.874   3.110   1.311 -0.0954  0.2502  0.2903
 1015HK4    C3585200   3.839   2.976   1.317  0.0323  0.1975 -0.1697
 1015HK4    H1785201   3.909   2.892   1.312 -1.8759 -1.3537 -1.9423
 1015HK4    C3685202   3.706   2.937   1.305 -0.0472  0.3411  0.2470
 1015HK4    H1885203   3.680   2.833   1.280 -1.2263  0.1424  2.2018
 1015HK4    C3785204   3.611   3.038   1.294 -0.1841  0.0891 -0.9242
 1015HK4    H1985205   3.505   3.013   1.285 -0.5689  1.6831 -1.1129
 1015HK4    C3885206   3.640   3.174   1.291  0.0724  0.0618  0.3744
 1015HK4    H2085207   3.558   3.247   1.287 -0.1623 -0.1542  1.0654
 1015HK4    C1485208   4.152   3.631   1.303 -0.3396  0.0152  0.4584
 1015HK4     C985209   4.142   3.739   1.392 -0.0181  0.1669  0.3104
 1015HK4     C885210   4.216   3.857   1.374 -0.2720  0.2949  0.0893
 1015HK4    C1185211   4.304   3.856   1.266 -0.5438 -0.0638 -0.1273
 1015HK4     H485212   4.355   3.948   1.234  1.0509 -0.1603  2.0342
 1015HK4    C1285213   4.330   3.745   1.187 -0.3448 -0.1566  0.0671
 1015HK4     H585214   4.419   3.745   1.122  0.2169  0.2360  0.8359
 1015HK4    C1385215   4.252   3.632   1.204 -0.4310 -0.0528  0.3666
 1015HK4     H685216   4.252   3.554   1.126 -0.8375  0.7034 -0.3956
 1015HK4     C785217   4.205   3.971   1.469 -0.1378  0.2000  0.2192
 1015HK4     O285218   4.258   4.077   1.437 -0.1254 -0.1922 -1.0877
 1015HK4     C485219   4.119   3.953   1.588 -0.0650 -0.1275  0.2226
 1015HK4     C385220   4.111   4.058   1.678 -0.0728  0.0436  0.0202
 1015HK4     H385221   4.178   4.146   1.677 -0.3036  0.2209 -0.0591
 1015HK4     C285222   4.013   4.055   1.776  0.3783  0.2072  0.4791
 1015HK4     H285223   4.013   4.132   1.855 -1.0299  0.5501  0.1517
 1015HK4     C185224   3.918   3.954   1.779  0.2836  0.2955  0.4492
 1015HK4     H185225   3.847   3.946   1.863 -1.6204 -0.6375 -1.2076
 1015HK4     C685226   3.927   3.844   1.691 -0.6001  0.7690 -0.2473
 1015HK4     C585227   4.033   3.841   1.601 -0.0688 -0.1047  0.3972
 1015HK4    C1085228   4.063   3.722   1.517  0.6021 -0.1331  0.6667
 1015HK4     O185229   4.042   3.609   1.561 -1.1317 -0.1132 -0.0347
 1015HK4    C1685230   3.799   3.776   1.664 -0.1331 -0.0745 -0.3426
 1015HK4    C1585231   3.685   3.854   1.635 -0.1330  0.3316  0.7214
 1015HK4     H785232   3.691   3.932   1.558 -0.6112 -0.2487  0.0894
 1015HK4    C2085233   3.559   3.815   1.679 -0.2990 -0.1762 -0.1777
 1015HK4     H985234   3.486   3.891   1.705  0.2220 -0.2355  1.5334
 1015HK4    C1985235   3.539   3.693   1.744  0.2228 -0.1957 -0.0486
 1015HK4    C1885236   3.654   3.608   1.766  0.3334  0.1086  0.5377
 1015HK4    C1785237   3.780   3.654   1.728  0.2918  0.4610  0.8222
 1015HK4     H885238   3.864   3.598   1.768 -0.1054  0.5738  1.8214
 1015HK4     N185239   3.612   3.479   1.804 -0.4404  0.1138 -0.2940
 1015HK4    C2185240   3.472   3.487   1.820 -0.4153  0.2770 -0.1474
 1015HK4    C2285241   3.421   3.617   1.779 -0.1942  0.2935 -0.3730
 1015HK4    C2685242   3.287   3.648   1.798 -0.1168  0.4837 -0.1315
 1015HK4    H1385243   3.254   3.750   1.782  1.0862  0.9823  0.5488
 1015HK4    C2585244   3.200   3.543   1.828  0.2816  0.2886  0.3468
 1015HK4    H1285245   3.104   3.566   1.874  0.9533  1.8037  1.0364
 1015HK4    C2485246   3.244   3.412   1.837  0.0064  0.1268 -0.5461
 1015HK4    H1185247   3.174   3.328   1.846 -1.1965  1.0309 -1.3240
 1015HK4    C2385248   3.381   3.386   1.847 -0.0584  0.0423  0.1807
 1015HK4    H1085249   3.401   3.281   1.867 -1.1356 -0.1202  0.4362
 1015HK4    C3985250   3.686   3.361   1.793  0.1123  0.3562  0.7591
 1015HK4    C4185251   3.672   3.250   1.879  0.1700 -0.2102  0.0383
 1015HK4    H2185252   3.622   3.263   1.976 -1.5855  1.0271 -0.9872
 1015HK4    C4285253   3.735   3.130   1.850  0.2938 -0.0604 -0.3169
 1015HK4    H2285254   3.726   3.043   1.917  0.2542  0.8005  0.8120
 1015HK4    C4385255   3.809   3.114   1.733  0.4882 -0.0409 -0.1968
 1015HK4    H2385256   3.857   3.019   1.711 -1.1996 -1.0783  0.5306
 1015HK4    C4485257   3.829   3.225   1.652  0.2463  0.3416  0.2631
 1015HK4    H2485258   3.905   3.215   1.573  0.2454 -0.0386  0.3089
 1015HK4    C4585259   3.766   3.347   1.678 -0.5902 -0.0997  0.3292
 1015HK4    H2585260   3.764   3.428   1.603  1.4030  0.3297  0.7254
 1016HK4    H2885261   2.037  10.172   9.114  2.3944  0.4079  0.3551
 1016HK4    C4885262   2.033  10.181   9.005  0.1777  0.0798  0.3836
 1016HK4    C4785263   2.130  10.130   8.919 -0.6140 -0.2786 -0.3051
 1016HK4    H2785264   2.216  10.079   8.964 -2.2558 -0.1714  3.1914
 1016HK4    C4685265   2.122  10.133   8.781  0.4228  0.6630 -0.3440
 1016HK4    H2685266   2.213  10.102   8.728  1.4636  1.8115  0.7304
 1016HK4    C4085267   2.009  10.190   8.719  0.0483  0.2792 -0.0089
 1016HK4    C5085268   1.919  10.254   8.807  0.0614  0.2135  0.0557
 1016HK4    H3085269   1.830  10.301   8.763 -0.8680  0.1297  1.8053
 1016HK4    C4985270   1.924  10.245   8.946  0.3281  0.0129  0.0287
 1016HK4    H2985271   1.836  10.269   9.007  0.9927  1.5373  0.4259
 1016HK4     N285272   1.995  10.216   8.582  0.0913  0.2170 -0.0259
 1016HK4    C3085273   2.103  10.252   8.500  0.0350  0.4100 -0.0130
 1016HK4    C2985274   2.232  10.295   8.529  0.1991 -0.0936  0.0058
 1016HK4    H1585275   2.270  10.300   8.632 -0.6590  1.6269  0.2579
 1016HK4    C2885276   2.318  10.339   8.430  0.3857 -0.4893 -0.0097
 1016HK4    C2785277   2.280  10.332   8.294  0.5683  0.1265 -0.1021
 1016HK4    H1485278   2.358  10.334   8.217  0.0621  0.6034 -0.5990
 1016HK4    C3285279   2.148  10.305   8.260  0.4939  0.0255  0.2679
 1016HK4    H1685280   2.114  10.303   8.157 -3.8286  1.4860  1.5486
 1016HK4    C3185281   2.062  10.260   8.361 -0.2482  1.0628  0.1055
 1016HK4    C3485282   1.920  10.232   8.366 -0.1378  0.5450  0.2857
 1016HK4    C3385283   1.880  10.202   8.502  0.1517 -0.8557  0.0734
 1016HK4    C3585284   1.746  10.179   8.531  0.0381 -0.3586 -0.0698
 1016HK4    H1785285   1.713  10.151   8.631 -0.9844  0.3172 -0.2018
 1016HK4    C3685286   1.651  10.184   8.429 -0.0197  0.5137  0.0262
 1016HK4    H1885287   1.545  10.187   8.458 -0.0222  0.5382  0.0128
 1016HK4    C3785288   1.690  10.216   8.299 -0.3394 -0.1175 -0.2253
 1016HK4    H1985289   1.619  10.227   8.217 -2.0516 -0.9175  1.1213
 1016HK4    C3885290   1.824  10.233   8.266 -0.2754  0.6552  0.4225
 1016HK4    H2085291   1.857  10.253   8.164 -1.2489  0.1943  0.0146
 1016HK4    C1485292   2.419  10.439   8.469 -0.0899  0.0661 -0.1895
 1016HK4     C985293   2.444  10.567   8.420  0.3675  0.1489  0.2536
 1016HK4     C885294   2.567  10.632   8.447  0.3423  0.0406  0.6290
 1016HK4    C1185295   2.659  10.574   8.533  0.5201 -0.0802  0.3561
 1016HK4     H485296   2.750  10.630   8.558 -0.2662  2.8688 -2.9134
 1016HK4    C1285297   2.634  10.448   8.587 -0.3681  0.0666  0.2960
 1016HK4     H585298   2.706  10.408   8.660  2.9270  3.2928 -1.0297
 1016HK4    C1385299   2.515  10.383   8.556 -0.3473  0.1117  0.1236
 1016HK4     H685300   2.498  10.279   8.586  1.9374 -0.1082  0.8113
 1016HK4     C785301   2.596  10.761   8.382  0.0279 -0.2294 -0.0536
 1016HK4     O285302   2.708  10.808   8.399 -0.3433  0.7193 -0.1946
 1016HK4     C485303   2.494  10.834   8.303  0.2289  0.2100  0.0931
 1016HK4     C385304   2.537  10.945   8.232 -0.1535  0.1616 -0.2096
 1016HK4     H385305   2.640  10.982   8.244  0.8531 -2.3309 -0.8588
 1016HK4     C285306   2.449  11.006   8.143 -0.0955  0.3452 -0.1422
 1016HK4     H285307   2.469  11.108   8.107  0.7315  0.8180  1.5713
 1016HK4     C185308   2.321  10.952   8.130 -0.0709  0.1822  0.2679
 1016HK4     H185309   2.242  11.019   8.094  0.0215  0.4939  0.6563
 1016HK4     C685310   2.282  10.834   8.196  0.2670 -0.0215  0.1090
 1016HK4     C585311   2.367  10.774   8.290  0.4918 -0.2770 -0.2541
 1016HK4    C1085312   2.335  10.643   8.353  0.3561 -0.1611 -0.0824
 1016HK4     O185313   2.221  10.627   8.398 -0.0968  0.6541 -0.9149
 1016HK4    C1685314   2.181  10.769   8.112  0.2183  0.0988  0.0718
 1016HK4    C1585315   2.194  10.743   7.973 -0.0714 -0.7379  0.1991
 1016HK4     H785316   2.292  10.770   7.932  0.1139 -1.4830  0.1425
 1016HK4    C2085317   2.100  10.673   7.899 -0.1147 -0.1433 -0.3077
 1016HK4     H985318   2.112  10.651   7.793 -1.1046  0.9863 -0.6668
 1016HK4    C1985319   1.987  10.622   7.961  0.0652 -0.0537  0.0881
 1016HK4    C1885320   1.961  10.655   8.100  0.1476 -0.1807  0.1341
 1016HK4    C1785321   2.061  10.726   8.166  0.1878 -0.0246 -0.0925
 1016HK4     H885322   2.044  10.764   8.267  1.6462  1.9082 -0.5376
 1016HK4     N185323   1.830  10.614   8.131 -0.1945  0.7915 -0.0075
 1016HK4    C2185324   1.782  10.535   8.025  0.1729  0.1442  0.3019
 1016HK4    C2285325   1.874  10.545   7.913  0.0913 -0.1668  0.2059
 1016HK4    C2685326   1.855  10.474   7.796  0.1483  0.3969 -0.1481
 1016HK4    H1385327   1.923  10.495   7.714  1.2302  1.9874  1.1394
 1016HK4    C2585328   1.749  10.384   7.801  0.3415  0.1792  0.1435
 1016HK4    H1285329   1.724  10.326   7.712 -0.6379 -0.8570  1.0764
 1016HK4    C2485330   1.658  10.370   7.905  0.1344  0.1405 -0.0418
 1016HK4    H1185331   1.564  10.317   7.882 -0.0835  0.9161 -1.0211
 1016HK4    C2385332   1.674  10.447   8.019  0.1723  0.1665 -0.0647
 1016HK4    H1085333   1.595  10.456   8.094 -0.3241 -1.5216 -0.3683
 1016HK4    C3985334   1.784  10.593   8.262 -0.0357 -0.4327 -0.1401
 1016HK4    C4185335   1.650  10.628   8.289  0.1918  0.2999  0.0314
 1016HK4    H2185336   1.595  10.697   8.224  1.8110  0.2214 -1.4482
 1016HK4    C4285337   1.604  10.605   8.418  0.0888 -0.4822 -0.1433
 1016HK4    H2285338   1.498  10.628   8.436  0.5284  1.3965  0.1428
 1016HK4    C4385339   1.684  10.554   8.519  0.3326 -0.5157 -0.3554
 1016HK4    H2385340   1.635  10.532   8.614 -0.8320 -0.0816 -0.8553
 1016HK4    C4485341   1.818  10.524   8.494  0.2933 -0.8945 -0.1122
 1016HK4    H2485342   1.873  10.481   8.578  0.8344 -1.0661 -0.5526
 1016HK4    C4585343   1.867  10.548   8.366  0.0161 -0.2427 -0.1027
 1016HK4    H2585344   1.971  10.524   8.340  0.0465 -0.3805  0.1425
 1017HK4    H2885345   6.413   6.630   6.718  0.9326  0.3863  2.2892
 1017HK4    C4885346   6.422   6.739   6.712  0.2005  0.3675  0.4696
 1017HK4    C4785347   6.312   6.813   6.669  0.1197  0.3067  0.5753
 1017HK4    H2785348   6.227   6.771   6.613  1.5551  1.0889 -2.2989
 1017HK4    C4685349   6.319   6.951   6.664  0.1265  0.3085  0.6203
 1017HK4    H2685350   6.230   7.003   6.623  1.1496  1.8731  0.3467
 1017HK4    C4085351   6.441   7.018   6.687  0.2810  0.0814  0.4648
 1017HK4    C5085352   6.554   6.942   6.722  0.2321 -0.0740  0.2838
 1017HK4    H3085353   6.651   6.990   6.741  3.3899 -5.3874 -1.4682
 1017HK4    C4985354   6.543   6.804   6.733  0.5621 -0.1292 -0.0452
 1017HK4    H2985355   6.638   6.749   6.738 -0.1579 -1.5849 -1.7492
 1017HK4     N285356   6.452   7.152   6.646  0.4284 -0.0681  0.0065
 1017HK4    C3085357   6.399   7.215   6.532  0.3336  0.1556  0.1753
 1017HK4    C2985358   6.337   7.158   6.421  0.6441 -0.0214  0.0924
 1017HK4    H1585359   6.355   7.052   6.409 -0.4909 -0.0127 -1.8761
 1017HK4    C2885360   6.294   7.237   6.315  0.3614 -0.2664  0.0246
 1017HK4    C2785361   6.322   7.375   6.326 -0.1185 -0.1563 -0.1217
 1017HK4    H1485362   6.289   7.443   6.246 -0.0134 -0.3201 -0.3033
 1017HK4    C3285363   6.383   7.438   6.434 -0.2229 -0.3568  0.0565
 1017HK4    H1685364   6.389   7.547   6.432  0.9709 -0.4091  0.4715
 1017HK4    C3185365   6.421   7.358   6.540  0.2089  0.1674  0.3002
 1017HK4    C3485366   6.500   7.377   6.661 -0.4768 -0.0670  0.7919
 1017HK4    C3385367   6.516   7.249   6.726  0.5007 -0.2632  0.1850
 1017HK4    C3585368   6.611   7.229   6.825 -0.0596 -0.8069  0.6177
 1017HK4    H1785369   6.615   7.144   6.893 -0.3339  0.8895  2.8482
 1017HK4    C3685370   6.695   7.334   6.861 -0.8005  0.1412 -0.3915
 1017HK4    H1885371   6.768   7.325   6.944  0.0870  0.4117 -1.1318
 1017HK4    C3785372   6.680   7.458   6.801  0.4190  0.2911 -0.4111
 1017HK4    H1985373   6.761   7.527   6.823  0.6775  0.1967 -1.0779
 1017HK4    C3885374   6.586   7.479   6.700 -0.0683 -0.0817 -0.0385
 1017HK4    H2085375   6.565   7.577   6.658  0.7930  0.1540  0.0849
 1017HK4    C1485376   6.269   7.174   6.185  0.4605 -0.2512  0.0001
 1017HK4     C985377   6.305   7.221   6.058  0.3543  0.6653  0.3069
 1017HK4     C885378   6.226   7.174   5.950  0.5655  0.0082  0.4411
 1017HK4    C1185379   6.129   7.075   5.959  0.3489  0.1719 -0.1063
 1017HK4     H485380   6.071   7.042   5.872 -0.1422  1.4230 -0.2774
 1017HK4    C1285381   6.108   7.019   6.084 -0.0037  0.0013 -0.2422
 1017HK4     H585382   6.005   6.981   6.096 -0.2529  1.3211  2.1245
 1017HK4    C1385383   6.174   7.071   6.195 -0.3968  0.5067 -0.2411
 1017HK4     H685384   6.137   7.029   6.290  1.2771 -1.4092 -0.4134
 1017HK4     C785385   6.256   7.226   5.815 -0.3772 -0.0263  0.2177
 1017HK4     O285386   6.168   7.225   5.729 -0.2230 -0.5003  0.0589
 1017HK4     C485387   6.367   7.320   5.788  0.1256 -0.7155 -0.1410
 1017HK4     C385388   6.401   7.366   5.661 -0.1502 -0.1288 -0.0030
 1017HK4     H385389   6.386   7.300   5.575  0.6659 -1.3681  0.7950
 1017HK4     C285390   6.484   7.476   5.643 -0.1362 -0.1280  0.0669
 1017HK4     H285391   6.518   7.493   5.540 -1.6760 -1.0104 -0.6096
 1017HK4     C185392   6.531   7.550   5.751  0.0443 -0.1423 -0.0018
 1017HK4     H185393   6.595   7.637   5.730  0.0658 -0.6397 -2.0569
 1017HK4     C685394   6.511   7.498   5.880 -0.0028 -0.0482  0.0305
 1017HK4     C585395   6.435   7.380   5.895  0.0745 -0.1557 -0.4226
 1017HK4    C1085396   6.417   7.314   6.027  0.2240  0.7433  0.0572
 1017HK4     O185397   6.524   7.290   6.084  0.0697 -0.7151 -0.2510
 1017HK4    C1685398   6.554   7.588   5.988 -0.1101 -0.6238  0.5609
 1017HK4    C1585399   6.509   7.721   5.977  0.6385 -0.4305 -0.2210
 1017HK4     H785400   6.428   7.745   5.906  0.3283 -2.6422 -0.6431
 1017HK4    C2085401   6.563   7.835   6.036  0.0110 -0.0650 -0.3481
 1017HK4     H985402   6.544   7.928   5.984  0.5425  1.2949  1.8167
 1017HK4    C1985403   6.670   7.805   6.120  0.2672 -0.3283 -0.7662
 1017HK4    C1885404   6.718   7.670   6.140  0.2782 -0.2360 -0.1571
 1017HK4    C1785405   6.662   7.562   6.071  0.2321 -0.4297  0.1800
 1017HK4     H885406   6.706   7.463   6.065  2.0693  0.3532  0.1354
 1017HK4     N185407   6.827   7.668   6.229  0.0041 -0.3503  0.1818
 1017HK4    C2185408   6.853   7.801   6.266  0.1571 -0.2089 -0.4185
 1017HK4    C2285409   6.753   7.887   6.206  0.3168 -0.3130 -0.8274
 1017HK4    C2685410   6.763   8.024   6.223  0.7556 -0.3712 -0.6044
 1017HK4    H1385411   6.680   8.089   6.194  2.4163  2.1227  0.0202
 1017HK4    C2585412   6.859   8.084   6.304  0.0084 -0.3752  0.2980
 1017HK4    H1285413   6.848   8.191   6.322 -2.3004  0.2181 -4.0557
 1017HK4    C2485414   6.955   8.001   6.361  0.1100 -0.2697  0.2811
 1017HK4    H1185415   7.036   8.045   6.421  0.3718 -1.0545  0.5120
 1017HK4    C2385416   6.952   7.863   6.342  0.0726 -0.1860 -0.3243
 1017HK4    H1085417   7.025   7.802   6.395  1.1557  1.1264 -0.2771
 1017HK4    C3985418   6.866   7.554   6.301  0.0140 -0.4483  0.0229
 1017HK4    C4185419   6.990   7.566   6.367 -0.1479  0.3267  0.1964
 1017HK4    H2185420   7.074   7.603   6.306  0.5242 -2.2017 -0.4681
 1017HK4    C4285421   7.021   7.500   6.485  0.5240  0.2584 -0.0136
 1017HK4    H2285422   7.109   7.539   6.538  0.8390 -2.3030  1.4497
 1017HK4    C4385423   6.921   7.417   6.536  0.1208  0.6957 -0.0912
 1017HK4    H2385424   6.925   7.357   6.627 -1.6816 -0.9788 -1.0859
 1017HK4    C4485425   6.805   7.392   6.464  0.0871 -0.1916  0.2692
 1017HK4    H2485426   6.731   7.314   6.490 -1.4050  0.4584 -1.8880
 1017HK4    C4585427   6.768   7.466   6.353 -0.0303 -0.2575  0.2625
 1017HK4    H2585428   6.666   7.473   6.312  0.4210  3.0070 -0.4898
 1018HK4    H2885429   8.597   6.161   7.977  1.1029 -0.5068 -3.2684
 1018HK4    C4885430   8.566   6.265   7.978  0.5703 -0.6579  0.2258
 1018HK4    C4785431   8.430   6.297   7.984  0.7259  0.0983 -0.3055
 1018HK4    H2785432   8.356   6.222   7.952  0.8049 -0.6592  1.2874
 1018HK4    C4685433   8.384   6.427   8.003 -0.0014 -0.1006 -0.6748
 1018HK4    H2685434   8.278   6.442   8.028  0.5015  0.3583  1.3168
 1018HK4    C4085435   8.473   6.534   8.023  0.0479 -0.2680  0.0010
 1018HK4    C5085436   8.609   6.497   8.017  0.1419 -0.0235  0.4958
 1018HK4    H3085437   8.680   6.578   8.039 -0.8977  0.6003  1.5793
 1018HK4    C4985438   8.657   6.368   7.997 -0.0863 -0.0612  0.1783
 1018HK4    H2985439   8.765   6.345   7.997 -0.1108 -0.2532 -1.2923
 1018HK4     N285440   8.432   6.650   8.091 -0.0629 -0.2177 -0.1514
 1018HK4    C3085441   8.329   6.674   8.185 -0.1380 -0.1125 -0.2572
 1018HK4    C2985442   8.246   6.582   8.248 -0.0441  0.1271  0.2208
 1018HK4    H1585443   8.296   6.488   8.268  1.1311  0.7699  0.3701
 1018HK4    C2885444   8.140   6.622   8.329 -0.0590  0.3143  0.1081
 1018HK4    C2785445   8.126   6.758   8.360 -0.2890  0.3529 -0.1530
 1018HK4    H1485446   8.048   6.795   8.429 -0.2531  1.0567 -0.4803
 1018HK4    C3285447   8.213   6.854   8.309 -0.0833 -0.0404 -0.5408
 1018HK4    H1685448   8.179   6.956   8.327 -0.2619 -0.7148  3.5592
 1018HK4    C3185449   8.309   6.814   8.217  0.0914 -0.0582 -0.3551
 1018HK4    C3485450   8.408   6.882   8.136  0.4714 -0.1677  0.0184
 1018HK4    C3385451   8.484   6.779   8.069  0.3552 -0.3357  0.1429
 1018HK4    C3585452   8.562   6.823   7.962  0.4590  0.1817  0.4325
 1018HK4    H1785453   8.607   6.744   7.903 -1.9877 -0.1680 -1.0520
 1018HK4    C3685454   8.577   6.955   7.922  0.0724  0.2880  0.6177
 1018HK4    H1885455   8.634   6.973   7.829 -1.3214 -1.0171 -0.5291
 1018HK4    C3785456   8.506   7.053   7.990 -0.1217  0.6166 -0.0590
 1018HK4    H1985457   8.514   7.159   7.965  2.9713  0.7752  1.4490
 1018HK4    C3885458   8.424   7.014   8.095  0.0099 -0.1971 -0.2540
 1018HK4    H2085459   8.362   7.093   8.138  0.6189  0.4163 -0.4949
 1018HK4    C1485460   8.034   6.522   8.351  0.1810  0.1215  0.3938
 1018HK4     C985461   7.899   6.561   8.345 -0.0834 -0.9614 -0.8097
 1018HK4     C885462   7.807   6.507   8.437  0.0499  0.0779 -0.0531
 1018HK4    C1185463   7.849   6.397   8.510 -0.3008 -0.1707 -0.2250
 1018HK4     H485464   7.780   6.359   8.587  2.3602 -0.9535  1.8514
 1018HK4    C1285465   7.975   6.339   8.499 -0.2384  0.0004 -0.3909
 1018HK4     H585466   8.001   6.256   8.566 -0.9301  0.5331  0.5510
 1018HK4    C1385467   8.071   6.410   8.427  0.2145  0.0350  0.2502
 1018HK4     H685468   8.179   6.397   8.439  0.3666 -0.5987 -1.7102
 1018HK4     C785469   7.680   6.578   8.465  0.3212  0.3223  0.5403
 1018HK4     O285470   7.600   6.530   8.544 -0.6098  0.3768 -0.3683
 1018HK4     C485471   7.651   6.710   8.405  0.1353  0.3146  0.6147
 1018HK4     C385472   7.533   6.780   8.428 -0.1958 -0.0972  0.1781
 1018HK4     H385473   7.456   6.746   8.498 -2.2527  1.4556 -1.2468
 1018HK4     C285474   7.511   6.910   8.384  0.7369  0.2405  0.7081
 1018HK4     H285475   7.416   6.960   8.406 -0.6360 -2.3832  0.9227
 1018HK4     C185476   7.612   6.976   8.315  0.4237  0.0589  0.0821
 1018HK4     H185477   7.609   7.083   8.292 -2.3267 -0.2537 -1.2163
 1018HK4     C685478   7.730   6.904   8.284  0.2878 -0.1000 -0.0719
 1018HK4     C585479   7.746   6.770   8.319 -0.2510 -0.1925 -0.1729
 1018HK4    C1085480   7.855   6.682   8.269 -0.0735 -0.2505  0.3049
 1018HK4     O185481   7.864   6.678   8.146 -0.0860  0.2233  0.2887
 1018HK4    C1685482   7.846   6.993   8.268 -0.2923  0.5628 -0.6068
 1018HK4    C1585483   7.861   7.106   8.351 -0.3776  0.3350 -0.2809
 1018HK4     H785484   7.801   7.119   8.442  0.0025  0.2484 -0.0153
 1018HK4    C2085485   7.957   7.201   8.319 -0.3615  0.1354 -0.8257
 1018HK4     H985486   7.956   7.293   8.378 -4.1743  1.5622 -2.8896
 1018HK4    C1985487   8.040   7.189   8.208  0.6544 -0.1307 -0.0469
 1018HK4    C1885488   8.016   7.078   8.118 -0.4774  0.2496 -0.2216
 1018HK4    C1785489   7.922   6.981   8.152 -0.0241 -0.2344 -0.3502
 1018HK4     H885490   7.892   6.909   8.076 -0.7209  0.2241 -0.5152
 1018HK4     N185491   8.089   7.097   7.999  0.5480 -0.4605  0.2885
 1018HK4    C2185492   8.147   7.226   8.005  0.5234 -0.4476  0.2624
 1018HK4    C2285493   8.117   7.287   8.133  0.0522  0.2497 -0.1781
 1018HK4    C2685494   8.188   7.396   8.182 -0.1259  0.2818  0.0050
 1018HK4    H1385495   8.163   7.449   8.274 -0.2984 -1.6866  1.1258
 1018HK4    C2585496   8.283   7.459   8.103  0.0983 -0.0453  0.0085
 1018HK4    H1285497   8.355   7.529   8.144  2.3363 -2.7248  0.7688
 1018HK4    C2485498   8.305   7.404   7.977 -0.0318  0.3570 -0.1911
 1018HK4    H1185499   8.386   7.449   7.918  1.0874 -1.4803 -0.0760
 1018HK4    C2385500   8.247   7.287   7.930  0.2098  0.0600  0.2555
 1018HK4    H1085501   8.290   7.230   7.848  0.8576 -0.4478  0.9463
 1018HK4    C3985502   8.106   6.999   7.901 -0.9856 -0.5013  0.0516
 1018HK4    C4185503   8.124   7.033   7.766 -0.3256 -0.3093  0.1858
 1018HK4    H2185504   8.066   7.120   7.732  0.8063  0.6901  0.7935
 1018HK4    C4285505   8.173   6.942   7.673 -0.5015 -0.3251  0.1096
 1018HK4    H2285506   8.166   6.979   7.570  0.0474 -0.0666  0.1654
 1018HK4    C4385507   8.199   6.813   7.718  0.9497  0.0511  0.3722
 1018HK4    H2385508   8.251   6.743   7.653  1.4344  0.8811 -0.1393
 1018HK4    C4485509   8.183   6.772   7.850  0.6463 -0.0928  0.2914
 1018HK4    H2485510   8.194   6.668   7.885  0.1413  0.0957  1.0193
 1018HK4    C4585511   8.135   6.866   7.940 -0.1413 -0.3094  0.0970
 1018HK4    H2585512   8.112   6.845   8.046  0.0133  1.2299  0.4486
 1019HK4    H2885513   5.221   4.258   6.586 -0.4498 -0.4197  0.0465
 1019HK4    C4885514   5.263   4.221   6.492  0.1505  0.3049  0.0297
 1019HK4    C4785515   5.186   4.177   6.385 -0.0259  0.9649 -0.1177
 1019HK4    H2785516   5.080   4.207   6.384 -0.2629  0.1349 -0.1989
 1019HK4    C4685517   5.251   4.118   6.277  0.2081  0.4788  0.2878
 1019HK4    H2685518   5.183   4.080   6.199  0.6875 -1.1914  0.6574
 1019HK4    C4085519   5.391   4.114   6.264  0.1684 -0.1938  0.0540
 1019HK4    C5085520   5.467   4.168   6.370  0.3088 -0.4217  0.0679
 1019HK4    H3085521   5.575   4.180   6.356 -0.4047  1.2961 -5.2888
 1019HK4    C4985522   5.402   4.216   6.482  0.1241  0.1458 -0.2818
 1019HK4    H2985523   5.466   4.221   6.572 -0.9332  1.1783  0.4359
 1019HK4     N285524   5.460   4.031   6.175  0.1777  0.1108 -0.2259
 1019HK4    C3085525   5.436   3.899   6.131  0.1182  0.1804 -0.4022
 1019HK4    C2985526   5.356   3.801   6.188  0.1981  0.0795 -0.4611
 1019HK4    H1585527   5.299   3.831   6.276  2.1877  2.4399  0.0628
 1019HK4    C2885528   5.342   3.676   6.129 -0.7064  0.2950 -0.7153
 1019HK4    C2785529   5.411   3.654   6.009  0.6713 -0.1715  0.1508
 1019HK4    H1485530   5.368   3.579   5.940 -0.5881 -0.2662  1.0157
 1019HK4    C3285531   5.504   3.743   5.956  0.7012 -0.1847  0.1819
 1019HK4    H1685532   5.582   3.705   5.890 -0.2682  0.4610 -1.3469
 1019HK4    C3185533   5.519   3.866   6.017  0.5209 -0.0509 -0.0443
 1019HK4    C3485534   5.606   3.981   5.998  0.4777  0.0007  0.0723
 1019HK4    C3385535   5.572   4.077   6.101  0.5498 -0.1103  0.1989
 1019HK4    C3585536   5.643   4.196   6.107 -0.1735  0.3235  0.1568
 1019HK4    H1785537   5.639   4.269   6.188  1.1003  0.5061  0.0651
 1019HK4    C3685538   5.734   4.228   6.007  0.2539 -0.4834  0.2958
 1019HK4    H1885539   5.792   4.321   6.010 -3.7649  2.0552  2.2433
 1019HK4    C3785540   5.768   4.137   5.907  0.4723  0.1704 -0.2291
 1019HK4    H1985541   5.829   4.163   5.821  0.3427 -1.6445 -0.8980
 1019HK4    C3885542   5.708   4.012   5.909 -0.0571  0.4217 -0.4067
 1019HK4    H2085543   5.740   3.934   5.839  1.8403  0.3494  0.5100
 1019HK4    C1485544   5.299   3.563   6.213 -0.4224  0.2839 -0.5863
 1019HK4     C985545   5.343   3.430   6.209 -0.0190  0.4019 -0.0980
 1019HK4     C885546   5.261   3.318   6.233  0.2699  0.1450 -0.2866
 1019HK4    C1185547   5.132   3.347   6.277  0.2807  0.2437 -0.3187
 1019HK4     H485548   5.063   3.270   6.314  2.3197 -1.6705 -0.4123
 1019HK4    C1285549   5.081   3.476   6.285  0.0008  0.1004  0.1871
 1019HK4     H585550   4.977   3.496   6.315 -0.5127  1.0078 -2.0794
 1019HK4    C1385551   5.167   3.582   6.257 -0.3228  0.2428 -0.2693
 1019HK4     H685552   5.139   3.684   6.287 -0.6124  0.0862 -0.0002
 1019HK4     C785553   5.311   3.179   6.236  0.2191  0.1292 -0.1488
 1019HK4     O285554   5.235   3.083   6.252  0.0504  0.2480 -0.2299
 1019HK4     C485555   5.455   3.158   6.212  0.3326  0.0014  0.6333
 1019HK4     C385556   5.506   3.029   6.204 -0.1146 -0.1134 -0.4591
 1019HK4     H385557   5.444   2.943   6.234 -0.0271  0.2612  0.8188
 1019HK4     C285558   5.638   2.998   6.171 -0.0080 -0.0617 -0.0904
 1019HK4     H285559   5.679   2.896   6.161 -0.5890 -0.2150 -1.0234
 1019HK4     C185560   5.718   3.105   6.135  0.2324 -0.1446  0.2035
 1019HK4     H185561   5.826   3.089   6.118  0.3194 -1.6891  1.9515
 1019HK4     C685562   5.673   3.238   6.139 -0.0777 -0.2568  0.4758
 1019HK4     C585563   5.543   3.265   6.184 -0.4442  0.2580 -0.8580
 1019HK4    C1085564   5.488   3.397   6.223 -0.2276 -0.1326  0.8009
 1019HK4     O185565   5.560   3.463   6.298  0.6434 -0.1280 -0.0274
 1019HK4    C1685566   5.738   3.330   6.044 -0.3368 -0.3554  0.1995
 1019HK4    C1585567   5.777   3.279   5.919  0.4088 -0.3336  0.4207
 1019HK4     H785568   5.729   3.185   5.890  0.8230 -0.2052 -0.7129
 1019HK4    C2085569   5.859   3.351   5.832  0.5869 -0.5184  0.4345
 1019HK4     H985570   5.902   3.296   5.748 -2.7534 -0.5140 -1.3506
 1019HK4    C1985571   5.903   3.480   5.860 -0.2997 -0.1773  0.2681
 1019HK4    C1885572   5.868   3.529   5.991 -0.0583 -0.1325  0.3175
 1019HK4    C1785573   5.794   3.452   6.080  0.4059 -0.6986  0.2103
 1019HK4     H885574   5.789   3.488   6.183 -0.0373  0.2797 -0.1463
 1019HK4     N185575   5.926   3.657   6.001  0.0157 -0.1527  0.1425
 1019HK4    C2185576   5.981   3.693   5.877 -0.0732  0.0793  0.1673
 1019HK4    C2285577   5.984   3.577   5.789 -0.5012 -0.0084  0.2704
 1019HK4    C2685578   6.033   3.589   5.660 -0.5123 -0.0304  0.2635
 1019HK4    H1385579   6.039   3.497   5.602  0.8002 -0.6435  1.3582
 1019HK4    C2585580   6.074   3.712   5.610 -0.3255 -0.0457  0.3777
 1019HK4    H1285581   6.131   3.715   5.517  0.3402  2.3166  0.8158
 1019HK4    C2485582   6.066   3.827   5.687 -0.4302  0.1014  0.1493
 1019HK4    H1185583   6.063   3.925   5.637 -2.2884  0.2943  0.6048
 1019HK4    C2385584   6.026   3.811   5.820  0.2004  0.0573  0.3377
 1019HK4    H1085585   6.002   3.903   5.873 -1.7766 -1.3449  1.9419
 1019HK4    C3985586   5.889   3.753   6.097 -0.2268 -0.1137  0.0086
 1019HK4    C4185587   5.973   3.863   6.121 -0.5851  0.1987 -0.1668
 1019HK4    H2185588   6.064   3.879   6.061  0.2466 -0.7312  0.8200
 1019HK4    C4285589   5.941   3.960   6.215 -0.3657  0.2133 -0.1061
 1019HK4    H2285590   6.007   4.046   6.236 -0.8754  0.0519  2.3201
 1019HK4    C4385591   5.831   3.938   6.298 -0.2621  0.2192  0.0319
 1019HK4    H2385592   5.820   3.999   6.388  1.9591 -1.5954  1.5801
 1019HK4    C4485593   5.744   3.832   6.276  0.1564 -0.2533  0.6448
 1019HK4    H2485594   5.657   3.823   6.343 -0.8337 -1.9927 -0.8343
 1019HK4    C4585595   5.772   3.741   6.175 -0.1557  0.1868  0.1616
 1019HK4    H2585596   5.697   3.672   6.134  0.5291  0.7699 -2.1394
 1020HK4    H2885597   4.007   0.520   9.292  0.2072 -1.2571 -2.2370
 1020HK4    C4885598   4.115   0.529   9.277  0.4483 -0.3751 -0.1823
 1020HK4    C4785599   4.179   0.425   9.211  0.3441 -0.1173 -0.6912
 1020HK4    H2785600   4.110   0.360   9.154  1.5169 -0.6465 -1.5260
 1020HK4    C4685601   4.315   0.430   9.185  0.4454  0.0936 -0.1186
 1020HK4    H2685602   4.352   0.357   9.111 -0.5841  0.3112 -0.8625
 1020HK4    C4085603   4.393   0.542   9.221 -0.0465  0.0873  0.9845
 1020HK4    C5085604   4.327   0.640   9.298 -0.0771  0.6046  0.3112
 1020HK4    H3085605   4.387   0.719   9.345  0.8919 -0.1795  0.3998
 1020HK4    C4985606   4.192   0.632   9.330 -0.2039  0.1966 -0.3276
 1020HK4    H2985607   4.146   0.683   9.416  0.2624  2.2375 -1.2733
 1020HK4     N285608   4.532   0.533   9.223 -0.0246  0.2187  0.2954
 1020HK4    C3085609   4.601   0.411   9.211  0.0279  0.1732  1.0649
 1020HK4    C2985610   4.566   0.279   9.237  0.0594 -0.0100  0.1783
 1020HK4    H1585611   4.463   0.254   9.262 -1.0233  1.4259 -2.6673
 1020HK4    C2885612   4.659   0.177   9.217  0.1065  0.1072 -0.1897
 1020HK4    C2785613   4.784   0.207   9.159  0.1585  0.0730 -0.0986
 1020HK4    H1485614   4.857   0.128   9.137  0.6400 -0.0069  1.6859
 1020HK4    C3285615   4.824   0.336   9.125 -0.1576  0.2882  0.3328
 1020HK4    H1685616   4.929   0.357   9.107  0.5938 -1.7661  2.0978
 1020HK4    C3185617   4.731   0.435   9.151 -0.6136  0.0522 -0.3771
 1020HK4    C3485618   4.747   0.578   9.133  0.0240  0.0420  0.1093
 1020HK4    C3385619   4.622   0.633   9.180 -0.0141  0.0696 -0.0258
 1020HK4    C3585620   4.616   0.772   9.189  0.0809 -0.0005  1.0732
 1020HK4    H1785621   4.521   0.824   9.201 -0.2182  0.4624 -2.7267
 1020HK4    C3685622   4.727   0.852   9.171  0.3130 -0.4950  0.3151
 1020HK4    H1885623   4.721   0.961   9.186 -0.2699  0.0551 -3.4641
 1020HK4    C3785624   4.847   0.801   9.121  0.3814  0.1419 -0.1882
 1020HK4    H1985625   4.940   0.856   9.107  0.8691 -0.7013 -0.2899
 1020HK4    C3885626   4.853   0.664   9.103 -0.0620  0.1001 -0.0306
 1020HK4    H2085627   4.947   0.619   9.069  0.2631 -1.0898  2.3775
 1020HK4    C1485628   4.647   0.047   9.285 -0.2235 -0.0982 -0.6328
 1020HK4     C985629   4.756  11.221   9.332 -0.0827  0.4926 -0.0068
 1020HK4     C885630   4.748  11.080   9.338 -0.4123  0.5292  0.5137
 1020HK4    C1185631   4.623  11.022   9.319  0.1828 -0.5334 -0.2190
 1020HK4     H485632   4.608  10.918   9.350  0.1608 -0.1349  1.1197
 1020HK4    C1285633   4.513  11.099   9.283  0.4131 -0.1339 -0.0673
 1020HK4     H585634   4.417  11.046   9.291  0.4376 -0.1607  0.0457
 1020HK4    C1385635   4.520  11.237   9.264 -0.1383 -0.2092 -0.8316
 1020HK4     H685636   4.433   0.035   9.216 -1.5829 -1.7734  0.2264
 1020HK4     C785637   4.860  10.993   9.382 -0.7259  0.1245  0.4977
 1020HK4     O285638   4.874  10.885   9.324 -0.5899  0.3169  0.1645
 1020HK4     C485639   4.976  11.060   9.444 -0.4471 -0.1480  0.2650
 1020HK4     C385640   5.077  10.984   9.502  0.2529  0.3988 -0.2278
 1020HK4     H385641   5.048  10.885   9.541  0.4304  0.3743 -0.1606
 1020HK4     C285642   5.201  11.044   9.519  0.3146  0.0220  0.6985
 1020HK4     H285643   5.286  10.996   9.568  0.6547 -1.2994 -1.1514
 1020HK4     C185644   5.222  11.175   9.475 -0.5024  0.0542  0.3911
 1020HK4     H185645   5.322  11.220   9.467  0.0619 -1.3501 -0.8525
 1020HK4     C685646   5.118   0.016   9.439 -0.3717 -0.0687 -0.2972
 1020HK4     C585647   4.994  11.199   9.435 -0.3201 -0.1831 -0.0958
 1020HK4    C1085648   4.877   0.034   9.393  0.2856  0.3992 -0.6426
 1020HK4     O185649   4.854   0.139   9.452 -0.2627 -0.0952  0.0261
 1020HK4    C1685650   5.157   0.124   9.348  0.0274  0.0504  0.0130
 1020HK4    C1585651   5.251   0.120   9.243 -0.0124  0.8122 -0.0540
 1020HK4     H785652   5.316   0.031   9.237 -0.9249  0.0686  0.9292
 1020HK4    C2085653   5.283   0.230   9.163  0.9717  0.1504 -0.5850
 1020HK4     H985654   5.365   0.217   9.093  0.4871  0.1957 -1.1637
 1020HK4    C1985655   5.227   0.354   9.190  0.1367 -0.3506  0.0263
 1020HK4    C1885656   5.140   0.370   9.305  0.2398  0.0304  0.0539
 1020HK4    C1785657   5.116   0.254   9.377 -0.4261 -0.0304 -0.2637
 1020HK4     H885658   5.069   0.272   9.474  0.5870 -3.1330  0.8916
 1020HK4     N185659   5.107   0.504   9.333  0.2944  0.0728 -0.0859
 1020HK4    C2185660   5.172   0.579   9.233 -0.2008 -0.0748 -0.5203
 1020HK4    C2285661   5.242   0.490   9.142  0.3368 -0.3336  0.1413
 1020HK4    C2685662   5.310   0.547   9.035 -0.6060  0.0741 -0.2454
 1020HK4    H1385663   5.343   0.487   8.950  0.4959 -1.4074  1.1736
 1020HK4    C2585664   5.316   0.684   9.012 -0.8558  0.0180 -0.6403
 1020HK4    H1285665   5.381   0.725   8.935  0.8656 -0.5211  0.5107
 1020HK4    C2485666   5.253   0.768   9.103  0.1768  0.0435  0.0620
 1020HK4    H1185667   5.265   0.877   9.092  1.8694  0.0147  1.5121
 1020HK4    C2385668   5.186   0.716   9.213  0.3377 -0.0335  0.1235
 1020HK4    H1085669   5.134   0.789   9.275  1.1196 -0.9077  1.8366
 1020HK4    C3985670   5.006   0.554   9.416  0.1862  0.2145 -0.3034
 1020HK4    C4185671   5.007   0.687   9.462 -0.1813 -0.0029  0.3359
 1020HK4    H2185672   5.101   0.740   9.485 -0.4906  0.3644  0.7630
 1020HK4    C4285673   4.891   0.750   9.506 -0.1438  0.3167 -0.0108
 1020HK4    H2285674   4.893   0.857   9.530  3.1490  0.5199 -0.8645
 1020HK4    C4385675   4.772   0.678   9.511 -0.0969  0.2245 -0.2480
 1020HK4    H2385676   4.679   0.725   9.541 -0.6936 -1.5911  0.8398
 1020HK4    C4485677   4.763   0.546   9.469 -0.0908  0.1135  0.0999
 1020HK4    H2485678   4.671   0.486   9.479 -0.1674  0.5125  1.9555
 1020HK4    C4585679   4.883   0.487   9.429  0.0658  0.4978  0.0081
 1020HK4    H2585680   4.877   0.381   9.400 -0.0420  0.7667 -0.9540
 1021HK4    H2885681   6.988   6.027  10.311  0.6695 -2.8224  0.9023
 1021HK4    C4885682   6.929   5.999  10.223  0.5214 -0.8400  0.3423
 1021HK4    C4785683   6.985   5.920  10.123  0.8442  0.2594 -0.3575
 1021HK4    H2785684   7.085   5.877  10.142  0.8748 -0.4979 -2.1222
 1021HK4    C4685685   6.899   5.869  10.027  0.2567  0.0012  0.3031
 1021HK4    H2685686   6.929   5.777   9.975 -3.2629 -1.4838  0.7364
 1021HK4    C4085687   6.762   5.905  10.023  0.2000 -0.2126  0.3024
 1021HK4    C5085688   6.708   5.975  10.133  0.3440  0.3395  0.0218
 1021HK4    H3085689   6.603   6.007  10.128 -1.0018 -3.7633 -0.1378
 1021HK4    C4985690   6.793   6.022  10.232  0.6112 -0.1875  0.0484
 1021HK4    H2985691   6.746   6.093  10.302 -0.2163  1.6068 -2.2514
 1021HK4     N285692   6.692   5.886   9.903  0.4452 -0.2391  0.1627
 1021HK4    C3085693   6.759   5.859   9.782 -0.2253  0.4374 -0.3641
 1021HK4    C2985694   6.882   5.912   9.743  0.2164 -0.0643  0.3476
 1021HK4    H1585695   6.930   5.985   9.808 -0.6293 -0.5668  1.5642
 1021HK4    C2885696   6.931   5.888   9.616 -0.0088 -0.4277  0.3275
 1021HK4    C2785697   6.856   5.808   9.527 -0.1654 -0.0246  0.0971
 1021HK4    H1485698   6.900   5.788   9.428 -0.3358  1.1507 -0.2282
 1021HK4    C3285699   6.729   5.765   9.560 -0.2473  0.1822  0.0446
 1021HK4    H1685700   6.661   5.723   9.486  2.2754  0.3742 -2.4261
 1021HK4    C3185701   6.672   5.798   9.683 -0.2864 -0.3424  0.1687
 1021HK4    C3485702   6.542   5.784   9.745 -0.2574 -0.1553  0.2724
 1021HK4    C3385703   6.560   5.847   9.874  0.3260  0.3071 -0.0356
 1021HK4    C3585704   6.452   5.842   9.961 -0.2167  0.8739 -0.6773
 1021HK4    H1785705   6.459   5.899  10.054  0.8233  1.1814 -0.9400
 1021HK4    C3685706   6.328   5.799   9.914 -0.1542 -0.3302  0.2500
 1021HK4    H1885707   6.243   5.810   9.982 -0.6442 -1.6100 -0.1396
 1021HK4    C3785708   6.311   5.739   9.789 -0.3755  0.0331  0.1063
 1021HK4    H1985709   6.219   5.690   9.758 -2.1902  2.8216  0.9123
 1021HK4    C3885710   6.423   5.723   9.708 -0.4664  0.4863 -0.1093
 1021HK4    H2085711   6.425   5.666   9.615 -0.7060 -1.9708  1.3387
 1021HK4    C1485712   7.045   5.968   9.568  0.2177 -0.8490  0.1583
 1021HK4     C985713   7.070   5.994   9.433 -0.1852 -0.0416  0.2343
 1021HK4     C885714   7.203   6.011   9.388 -0.1107 -0.1251  0.4239
 1021HK4    C1185715   7.305   6.014   9.482  0.2150  0.3761  0.0610
 1021HK4     H485716   7.396   6.070   9.459  0.2143  0.4478  0.2256
 1021HK4    C1285717   7.282   5.978   9.615 -0.7098  0.1560 -0.1591
 1021HK4     H585718   7.363   5.986   9.688 -1.6932 -2.8339  1.3456
 1021HK4    C1385719   7.152   5.956   9.660 -0.3457  0.2597  0.9624
 1021HK4     H685720   7.145   5.889   9.747  1.5357  1.6874  2.2635
 1021HK4     C785721   7.229   6.056   9.249 -0.3148 -0.2837  0.3342
 1021HK4     O285722   7.337   6.099   9.211 -0.4022  0.1945  0.6324
 1021HK4     C485723   7.114   6.062   9.157 -0.1440  0.0729  0.1463
 1021HK4     C385724   7.125   6.110   9.027  0.0762  0.1376  0.1852
 1021HK4     H385725   7.221   6.150   8.991 -1.1953  0.8318 -2.5720
 1021HK4     C285726   7.026   6.099   8.930  0.2282  0.4554 -0.0035
 1021HK4     H285727   7.048   6.120   8.825  2.6637  0.9007  0.5603
 1021HK4     C185728   6.910   6.029   8.963  0.4623 -0.0986 -0.3616
 1021HK4     H185729   6.839   6.002   8.883  0.5712  0.7674 -0.7544
 1021HK4     C685730   6.891   5.975   9.092  0.0529 -0.1617 -0.4438
 1021HK4     C585731   6.989   6.004   9.187 -0.2678  0.1511 -0.2082
 1021HK4    C1085732   6.961   6.011   9.333  0.1147 -0.1675 -0.1163
 1021HK4     O185733   6.861   6.076   9.367  0.3280  0.1343 -0.0620
 1021HK4    C1685734   6.810   5.853   9.100  0.8295 -0.5886  0.8587
 1021HK4    C1585735   6.815   5.753   9.001  0.1566  0.1063  0.1211
 1021HK4     H785736   6.913   5.746   8.952  0.4404  0.9251  0.5525
 1021HK4    C2085737   6.719   5.654   8.985  0.2190  0.0465  0.1286
 1021HK4     H985738   6.742   5.581   8.906 -0.7287 -1.6720  1.4033
 1021HK4    C1985739   6.607   5.649   9.067  0.2109 -0.2766  0.1015
 1021HK4    C1885740   6.596   5.759   9.160  0.0296  0.2606 -0.5491
 1021HK4    C1785741   6.694   5.856   9.176 -0.0108  0.2865 -0.4496
 1021HK4     H885742   6.695   5.919   9.265 -0.1099 -0.2009 -0.0991
 1021HK4     N185743   6.468   5.746   9.218  0.1316  0.4276 -0.2831
 1021HK4    C2185744   6.396   5.641   9.158  0.1946  0.0182  0.3523
 1021HK4    C2285745   6.479   5.583   9.054  0.0222  0.0667  0.1876
 1021HK4    C2685746   6.428   5.468   8.993 -0.1670  0.1045  0.2752
 1021HK4    H1385747   6.494   5.430   8.915 -0.6141  0.7551 -0.4455
 1021HK4    C2585748   6.314   5.402   9.037  0.1909 -0.6098  0.1381
 1021HK4    H1285749   6.314   5.295   9.017 -1.9915 -0.9846  1.9111
 1021HK4    C2485750   6.235   5.458   9.137  0.0447  0.1298 -0.3902
 1021HK4    H1185751   6.161   5.399   9.192 -0.0201  1.3277  0.8269
 1021HK4    C2385752   6.276   5.579   9.192  0.1611 -0.0986  0.0276
 1021HK4    H1085753   6.204   5.633   9.253  1.3882 -0.2441  1.6315
 1021HK4    C3985754   6.404   5.860   9.267  0.1435  0.1092  0.4739
 1021HK4    C4185755   6.426   5.994   9.229 -0.1765  0.0994  0.2527
 1021HK4    H2185756   6.462   6.007   9.126  0.3711 -0.4797  0.3679
 1021HK4    C4285757   6.395   6.100   9.314 -0.0986  0.4213 -0.1212
 1021HK4    H2285758   6.427   6.202   9.289 -0.8084  1.3047  2.4374
 1021HK4    C4385759   6.328   6.081   9.434 -0.1251  0.2303 -0.1652
 1021HK4    H2385760   6.294   6.164   9.495 -0.6020 -0.4800  0.5354
 1021HK4    C4485761   6.300   5.950   9.472 -0.0543  0.1720 -0.3087
 1021HK4    H2485762   6.254   5.930   9.570 -0.7393 -3.0980 -1.2476
 1021HK4    C4585763   6.337   5.844   9.390  0.2249 -0.3327  0.4637
 1021HK4    H2585764   6.303   5.742   9.413  0.3170 -0.8878 -1.7791
 1022HK4    H2885765   6.858   8.622  10.719 -2.9145 -0.9747 -2.5513
 1022HK4    C4885766   6.795   8.608  10.807  0.4236 -0.6228  0.0114
 1022HK4    C4785767   6.830   8.635  10.939  0.0624 -0.3830  0.0612
 1022HK4    H2785768   6.934   8.638  10.975 -0.3180 -2.8478  1.4371
 1022HK4    C4685769   6.738   8.624  11.043  0.0432 -0.3767  0.0448
 1022HK4    H2685770   6.771   8.653  11.144  0.2343  1.2306 -0.4648
 1022HK4    C4085771   6.606   8.580  11.020 -0.0793  0.0665 -0.0962
 1022HK4    C5085772   6.575   8.546  10.887  0.2101  0.1649 -0.1900
 1022HK4    H3085773   6.486   8.485  10.864  0.1438  0.8101 -1.7202
 1022HK4    C4985774   6.666   8.560  10.783  0.0589  0.4981 -0.2745
 1022HK4    H2985775   6.651   8.510  10.687  0.3170 -1.3711  0.6404
 1022HK4     N285776   6.515   8.555  11.124 -0.1537 -0.2056 -0.2305
 1022HK4    C3085777   6.547   8.518   0.008 -0.1212  0.1029 -0.1514
 1022HK4    C2985778   6.665   8.467   0.061 -0.3621  0.1651  0.4539
 1022HK4    H1585779   6.747   8.470  11.236 -0.8165 -0.4489 -0.0819
 1022HK4    C2885780   6.690   8.450   0.196 -0.2281  0.3456  0.4529
 1022HK4    C2785781   6.581   8.472   0.283 -0.1482  0.4404  0.5304
 1022HK4    H1485782   6.588   8.443   0.388  4.1973 -0.4178  0.0751
 1022HK4    C3285783   6.459   8.515   0.232 -0.3438 -0.4849  0.2057
 1022HK4    H1685784   6.380   8.557   0.295 -0.7667 -0.9033 -0.0377
 1022HK4    C3185785   6.434   8.538   0.097  0.2196  0.2969  0.2383
 1022HK4    C3485786   6.323   8.582   0.014  0.0696 -0.6164 -0.0459
 1022HK4    C3385787   6.382   8.599  11.130 -0.0915 -0.0456 -0.0430
 1022HK4    C3585788   6.299   8.615  11.020  0.2840  0.2222 -0.2865
 1022HK4    H1785789   6.335   8.642  10.921  1.6062 -0.7771 -0.0896
 1022HK4    C3685790   6.161   8.599  11.026  0.2406  0.8143  0.2889
 1022HK4    H1885791   6.091   8.619  10.943 -1.8303 -1.2491  1.4620
 1022HK4    C3785792   6.107   8.573  11.151  0.0127  0.2847  0.0837
 1022HK4    H1985793   6.011   8.524  11.145  0.6382 -1.0291  0.6524
 1022HK4    C3885794   6.185   8.568   0.018  0.0364 -0.2660  0.0409
 1022HK4    H2085795   6.146   8.561   0.120  0.3056  1.0501  0.2451
 1022HK4    C1485796   6.809   8.374   0.238 -0.3224 -0.0635 -0.0217
 1022HK4     C985797   6.798   8.301   0.357  0.6657 -0.2995 -0.0741
 1022HK4     C885798   6.890   8.323   0.462 -0.0851  0.2453  0.4717
 1022HK4    C1185799   7.004   8.392   0.423  0.4317 -0.8182  0.0690
 1022HK4     H485800   7.037   8.455   0.507 -0.7979 -1.5063  1.0976
 1022HK4    C1285801   7.029   8.444   0.297 -0.7469  0.6161  0.4108
 1022HK4     H585802   7.126   8.487   0.267 -0.0846 -0.8707  0.4280
 1022HK4    C1385803   6.930   8.434   0.200 -0.3511  0.0499  0.0652
 1022HK4     H685804   6.934   8.502   0.113 -0.0315  1.3082  1.0539
 1022HK4     C785805   6.885   8.256   0.594  0.4084 -0.2447  0.2399
 1022HK4     O285806   6.942   8.306   0.690  0.3284  0.2483  0.0297
 1022HK4     C485807   6.796   8.137   0.592 -0.0975  0.1301  0.2901
 1022HK4     C385808   6.775   8.076   0.715 -0.2023  0.5437  0.4798
 1022HK4     H385809   6.809   8.118   0.811  1.4741 -1.6020  0.8783
 1022HK4     C285810   6.696   7.962   0.720  0.3675  0.1210 -0.0782
 1022HK4     H285811   6.655   7.919   0.813  1.0685 -1.9930 -0.7048
 1022HK4     C185812   6.655   7.900   0.603 -0.5814  1.0515 -0.2395
 1022HK4     H185813   6.619   7.796   0.604  0.4696  0.6839 -0.2816
 1022HK4     C685814   6.694   7.945   0.475 -1.0170  0.5193 -0.5600
 1022HK4     C585815   6.744   8.075   0.476 -0.4421  0.2888  0.3596
 1022HK4    C1085816   6.725   8.172   0.365  0.1345  0.0029  0.0109
 1022HK4     O185817   6.627   8.163   0.290  0.3709  0.0584 -0.3071
 1022HK4    C1685818   6.716   7.844   0.370 -0.2554  0.1449 -0.0417
 1022HK4    C1585819   6.686   7.707   0.383  0.5917 -0.0340  0.0696
 1022HK4     H785820   6.644   7.666   0.476  1.5480 -0.3655  0.3653
 1022HK4    C2085821   6.733   7.615   0.290 -0.3128 -0.5669  0.1274
 1022HK4     H985822   6.691   7.514   0.286  3.2297 -2.1431  0.6827
 1022HK4    C1985823   6.813   7.661   0.186 -0.3826  0.1015  0.3633
 1022HK4    C1885824   6.836   7.802   0.164  0.0642 -0.0012  0.1668
 1022HK4    C1785825   6.787   7.890   0.259 -0.4833  0.0985 -0.2074
 1022HK4     H885826   6.835   7.988   0.260 -0.4990  0.1189 -1.2788
 1022HK4     N185827   6.904   7.834   0.045  0.2660 -0.7162  0.0853
 1022HK4    C2185828   6.917   7.710  11.228  0.4271 -0.7852  0.2493
 1022HK4    C2285829   6.876   7.602   0.069 -0.2364 -0.2380  0.6101
 1022HK4    C2685830   6.892   7.469   0.033  0.3652 -0.0016 -0.0088
 1022HK4    H1385831   6.842   7.395   0.096  0.5819  0.7135  1.0148
 1022HK4    C2585832   6.946   7.434  11.157  0.0413 -0.1501 -0.1081
 1022HK4    H1285833   6.981   7.333  11.140  1.7149  0.2623  0.8011
 1022HK4    C2485834   6.968   7.536  11.065  0.3026  0.0081  0.1299
 1022HK4    H1185835   7.002   7.511  10.963 -0.2961  0.0549 -0.0870
 1022HK4    C2385836   6.960   7.669  11.102  0.2674  0.0639 -0.0757
 1022HK4    H1085837   6.953   7.744  11.022 -0.1931 -1.4540 -1.4820
 1022HK4    C3985838   6.908   7.956  11.224 -0.7371 -0.5479  0.3222
 1022HK4    C4185839   7.005   7.973  11.122 -0.6308  0.4264  0.5740
 1022HK4    H2185840   7.076   7.889  11.115 -0.9078  0.0817  1.7019
 1022HK4    C4285841   7.006   8.086  11.042  0.0684 -0.3010 -0.4530
 1022HK4    H2285842   7.102   8.110  10.994 -0.0509  1.4467  0.1265
 1022HK4    C4385843   6.906   8.182  11.060 -0.0051 -0.4214 -0.2086
 1022HK4    H2385844   6.906   8.264  10.989 -0.8004 -0.3757 -0.1559
 1022HK4    C4485845   6.809   8.166  11.158  0.3856  0.2772  0.2993
 1022HK4    H2485846   6.734   8.246  11.155 -1.7440 -1.7175 -1.5318
 1022HK4    C4585847   6.811   8.056  11.243 -0.2966 -0.0382 -0.0923
 1022HK4    H2585848   6.740   8.047   0.079 -1.4774  0.3997 -1.0345
 1023HK4    H2885849   5.926   6.590   7.997 -0.0600  1.2846  1.2116
 1023HK4    C4885850   5.988   6.666   7.950 -0.7125  0.6736 -0.6598
 1023HK4    C4785851   6.008   6.790   8.010  0.3275 -0.0453  0.4909
 1023HK4    H2785852   5.982   6.806   8.116  1.1689 -0.9489  0.8524
 1023HK4    C4685853   6.081   6.887   7.943  0.0190 -0.3477 -0.2842
 1023HK4    H2685854   6.104   6.980   7.996 -0.1745  0.2194 -1.1908
 1023HK4    C4085855   6.132   6.865   7.813  0.5807  0.0052 -0.1208
 1023HK4    C5085856   6.118   6.734   7.763 -0.0932 -0.0470  0.2024
 1023HK4    H3085857   6.153   6.710   7.662 -2.2996 -0.3340 -0.5140
 1023HK4    C4985858   6.045   6.634   7.827 -1.1054  0.1094 -0.6988
 1023HK4    H2985859   6.037   6.534   7.783  0.3101  0.1937 -1.1906
 1023HK4     N285860   6.153   6.959   7.712 -0.0083  0.3183  0.0481
 1023HK4    C3085861   6.095   7.087   7.705  0.1440  0.3898  0.0970
 1023HK4    C2985862   5.972   7.126   7.755 -0.1071 -0.0566 -0.1698
 1023HK4    H1585863   5.916   7.060   7.822  0.4014 -0.5080 -0.1957
 1023HK4    C2885864   5.913   7.246   7.715 -0.1981 -0.0194  0.0718
 1023HK4    C2785865   5.980   7.323   7.618  0.3909  0.1474  0.6096
 1023HK4    H1485866   5.943   7.421   7.586  1.2787  0.1351 -0.5048
 1023HK4    C3285867   6.101   7.286   7.560  0.0617  0.3794 -0.2243
 1023HK4    H1685868   6.149   7.349   7.485 -0.3750  0.2154 -0.6517
 1023HK4    C3185869   6.157   7.165   7.599 -0.1365  0.3204 -0.1197
 1023HK4    C3485870   6.271   7.089   7.552  0.4689  0.7345  0.6732
 1023HK4    C3385871   6.259   6.961   7.619 -0.6960  0.0744 -0.7587
 1023HK4    C3585872   6.351   6.864   7.581  0.0917  0.3327  0.4561
 1023HK4    H1785873   6.351   6.763   7.624 -0.2711  0.2673  0.2997
 1023HK4    C3685874   6.449   6.891   7.486 -0.1940  0.0275  0.0723
 1023HK4    H1885875   6.518   6.815   7.447 -0.3365  0.1001 -0.3234
 1023HK4    C3785876   6.460   7.016   7.425  0.4463 -0.0822 -0.0359
 1023HK4    H1985877   6.540   7.044   7.357 -0.2336  3.0258  0.3796
 1023HK4    C3885878   6.371   7.117   7.459  0.4015 -0.2361  0.3010
 1023HK4    H2085879   6.387   7.215   7.414  0.8461  0.6114  2.2516
 1023HK4    C1485880   5.791   7.297   7.780 -0.1591 -0.1245  0.2265
 1023HK4     C985881   5.704   7.390   7.722  0.0816 -0.0045  0.0587
 1023HK4     C885882   5.635   7.483   7.802 -0.1455  0.0907 -0.2498
 1023HK4    C1185883   5.632   7.467   7.940 -0.0050  0.3622 -0.2144
 1023HK4     H485884   5.555   7.532   7.984  0.6224  0.4319  0.7823
 1023HK4    C1285885   5.709   7.371   8.004 -0.0722  0.5029  0.0726
 1023HK4     H585886   5.687   7.349   8.110 -0.9029  0.4190 -0.1193
 1023HK4    C1385887   5.787   7.292   7.921  0.5052  0.8411  0.2868
 1023HK4     H685888   5.845   7.214   7.973  1.1334  0.0710 -1.5123
 1023HK4     C785889   5.563   7.594   7.736  0.5570  0.7141  0.0393
 1023HK4     O285890   5.464   7.647   7.787 -0.0949  0.0735 -0.5468
 1023HK4     C485891   5.585   7.619   7.592 -0.0813 -0.2470 -0.2268
 1023HK4     C385892   5.552   7.747   7.548  0.2800 -0.1101 -0.1026
 1023HK4     H385893   5.535   7.830   7.617  0.7127 -1.5455  1.7931
 1023HK4     C285894   5.552   7.771   7.411 -0.1876  0.4813 -0.0014
 1023HK4     H285895   5.480   7.834   7.357 -1.1711 -0.2391  0.4567
 1023HK4     C185896   5.617   7.681   7.327  0.5172  0.5228  0.4909
 1023HK4     H185897   5.620   7.697   7.218 -1.0817  1.7388  0.6088
 1023HK4     C685898   5.660   7.556   7.376  0.3709  0.3091  0.0746
 1023HK4     C585899   5.632   7.517   7.507 -0.5335 -0.3808 -0.3192
 1023HK4    C1085900   5.673   7.391   7.576 -0.4017 -0.0761  0.1596
 1023HK4     O185901   5.648   7.281   7.528 -0.4681  0.2603 -0.5834
 1023HK4    C1685902   5.785   7.511   7.313 -0.0558 -0.2565 -0.3730
 1023HK4    C1585903   5.874   7.604   7.257 -0.2028 -0.2475 -0.5929
 1023HK4     H785904   5.877   7.713   7.274 -1.6722 -0.2680 -0.1168
 1023HK4    C2085905   5.980   7.561   7.178  0.0277  0.2869 -0.5769
 1023HK4     H985906   6.035   7.633   7.117  0.4525 -0.1170 -0.6771
 1023HK4    C1985907   6.002   7.425   7.162 -0.2017  0.1272  0.4151
 1023HK4    C1885908   5.912   7.327   7.220 -0.3423 -0.4385 -0.7352
 1023HK4    C1785909   5.802   7.375   7.291  0.3245 -0.3111  0.2247
 1023HK4     H885910   5.719   7.306   7.277  0.7842 -0.7330 -0.5049
 1023HK4     N185911   5.971   7.200   7.230  0.1120 -0.1576  0.2169
 1023HK4    C2185912   6.103   7.217   7.183 -0.1452  0.0856 -0.4234
 1023HK4    C2285913   6.117   7.347   7.120 -0.0552  0.4165  0.2770
 1023HK4    C2685914   6.237   7.384   7.061  0.0046 -0.5383 -0.2064
 1023HK4    H1385915   6.243   7.491   7.046 -0.0395 -0.8628 -2.7933
 1023HK4    C2585916   6.349   7.301   7.057  0.5754  0.2456 -0.4390
 1023HK4    H1285917   6.436   7.325   6.995 -0.7601  0.9362 -2.1168
 1023HK4    C2485918   6.334   7.172   7.107 -0.4212  0.2606 -0.6886
 1023HK4    H1185919   6.420   7.110   7.135  0.7518  1.2410 -2.0262
 1023HK4    C2385920   6.213   7.134   7.163  0.2013  0.2853  0.6736
 1023HK4    H1085921   6.203   7.032   7.201  0.0762  0.2147  0.4503
 1023HK4    C3985922   5.901   7.080   7.250  0.0356 -0.1711 -0.1336
 1023HK4    C4185923   5.768   7.057   7.209 -0.2300  0.1875  0.5205
 1023HK4    H2185924   5.733   7.110   7.120  0.8590 -0.6255 -0.3966
 1023HK4    C4285925   5.684   6.960   7.263 -0.1430  0.0334  0.3792
 1023HK4    H2285926   5.587   6.943   7.216  1.8126 -1.6763 -3.2829
 1023HK4    C4385927   5.733   6.873   7.361  0.3238  0.0943  0.2009
 1023HK4    H2385928   5.692   6.783   7.406  1.6426 -0.3738  0.4858
 1023HK4    C4485929   5.867   6.890   7.396  0.4376 -0.6961  0.1402
 1023HK4    H2485930   5.915   6.808   7.451 -1.2960  0.3241  3.2588
 1023HK4    C4585931   5.947   6.994   7.351 -0.3174 -0.1447  0.0526
 1023HK4    H2585932   6.034   7.022   7.413 -0.9538 -0.1387  0.9522
 1024HK4    H2885933   8.676   5.274   8.770  0.6370 -0.6423  0.8947
 1024HK4    C4885934   8.635   5.176   8.796 -0.7814 -0.2635  0.1896
 1024HK4    C4785935   8.702   5.079   8.870  0.4586  0.4297  0.0078
 1024HK4    H2785936   8.812   5.081   8.868  0.5278 -0.8166  1.6380
 1024HK4    C4685937   8.636   4.969   8.924  0.5457  0.1931 -0.3589
 1024HK4    H2685938   8.697   4.904   8.989  0.2569 -0.1343 -0.4158
 1024HK4    C4085939   8.498   4.947   8.907  0.3837  0.6061  0.3911
 1024HK4    C5085940   8.434   5.046   8.829  0.0492 -0.3822 -0.5967
 1024HK4    H3085941   8.328   5.034   8.803  0.2050 -1.0249 -0.9672
 1024HK4    C4985942   8.500   5.155   8.773 -0.8296  0.3844 -0.1410
 1024HK4    H2985943   8.438   5.222   8.712 -2.3666 -1.4936 -0.6950
 1024HK4     N285944   8.419   4.880   9.001  0.0500  0.1787 -0.1949
 1024HK4    C3085945   8.289   4.831   8.974  0.0432  0.0206  0.1186
 1024HK4    C2985946   8.249   4.765   8.858  0.2348 -0.2691  0.2161
 1024HK4    H1585947   8.321   4.742   8.780 -0.0190  1.1241 -0.4526
 1024HK4    C2885948   8.124   4.704   8.851 -0.0066  0.2290  0.0349
 1024HK4    C2785949   8.046   4.704   8.969 -0.1234 -0.1270 -0.0417
 1024HK4    H1485950   7.939   4.685   8.952 -0.1789 -0.6837  0.9029
 1024HK4    C3285951   8.083   4.765   9.089  0.1464 -0.7376  0.1879
 1024HK4    H1685952   8.006   4.797   9.159 -0.2779 -3.4907  1.0374
 1024HK4    C3185953   8.206   4.829   9.092 -0.0889 -0.2823  0.0233
 1024HK4    C3485954   8.289   4.880   9.200 -0.1406 -0.0163 -0.0581
 1024HK4    C3385955   8.417   4.909   9.139 -0.0637 -0.3846 -0.0763
 1024HK4    C3585956   8.524   4.930   9.225  0.0545 -0.3538 -0.2276
 1024HK4    H1785957   8.625   4.951   9.191  0.6905 -1.0393  1.1727
 1024HK4    C3685958   8.500   4.924   9.362  0.0979 -0.0871 -0.2082
 1024HK4    H1885959   8.586   4.930   9.430  0.5057 -0.0992 -0.7193
 1024HK4    C3785960   8.375   4.907   9.421  0.1701 -0.1221 -0.0694
 1024HK4    H1985961   8.378   4.893   9.529  0.9737 -0.7798 -0.1640
 1024HK4    C3885962   8.267   4.882   9.337  0.3292 -1.1727  0.0332
 1024HK4    H2085963   8.166   4.905   9.373  0.4467  2.4951 -1.7852
 1024HK4    C1485964   8.064   4.672   8.721  0.0812  0.0779  0.0320
 1024HK4     C985965   7.928   4.680   8.687 -0.0681 -0.3160  0.5215
 1024HK4     C885966   7.873   4.599   8.585 -0.0627  0.0158  0.2531
 1024HK4    C1185967   7.958   4.511   8.520  0.1169  0.0701  0.4137
 1024HK4     H485968   7.913   4.440   8.448 -0.3089 -0.8054  1.5311
 1024HK4    C1285969   8.094   4.510   8.547  0.1552 -0.4850  0.2188
 1024HK4     H585970   8.157   4.472   8.465  0.0617 -3.1762  1.3392
 1024HK4    C1385971   8.150   4.588   8.647 -0.1158 -0.2749  0.2091
 1024HK4     H685972   8.244   4.557   8.695  0.2475 -0.7088 -0.7685
 1024HK4     C785973   7.729   4.613   8.555 -0.1077 -0.3636  0.2908
 1024HK4     O285974   7.691   4.575   8.445 -0.0914 -0.0693  0.1848
 1024HK4     C485975   7.646   4.710   8.630  0.1614 -0.1211  0.2756
 1024HK4     C385976   7.512   4.727   8.595  0.2441  0.3918  0.1935
 1024HK4     H385977   7.476   4.651   8.524  1.4601 -2.0387  2.0853
 1024HK4     C285978   7.433   4.831   8.641 -0.5960 -0.0220 -0.3118
 1024HK4     H285979   7.328   4.848   8.612 -1.1478 -0.7017  1.2169
 1024HK4     C185980   7.484   4.919   8.736 -0.4258 -0.0748 -0.3533
 1024HK4     H185981   7.413   4.986   8.787  0.0671  0.6861 -0.6615
 1024HK4     C685982   7.614   4.893   8.782 -0.5784  0.0435  0.1488
 1024HK4     C585983   7.700   4.797   8.727 -0.2703  0.3504  0.0961
 1024HK4    C1085984   7.849   4.793   8.741 -0.3076 -0.3863  0.3157
 1024HK4     O185985   7.903   4.894   8.787  0.2030 -0.5185  0.0084
 1024HK4    C1685986   7.647   4.970   8.903 -0.1896  0.2195 -0.0632
 1024HK4    C1585987   7.580   5.087   8.945 -1.0335 -0.0854 -0.5398
 1024HK4     H785988   7.546   5.161   8.872 -2.2368 -0.2594 -0.1705
 1024HK4    C2085989   7.558   5.128   9.076  0.3273  0.0891 -0.3555
 1024HK4     H985990   7.546   5.236   9.089 -0.0334  0.2887 -2.1777
 1024HK4    C1985991   7.580   5.032   9.174 -0.1339  0.1539 -0.1883
 1024HK4    C1885992   7.645   4.910   9.132 -0.4577  0.1108 -0.5702
 1024HK4    C1785993   7.688   4.883   9.003 -0.3002 -0.2683 -0.4414
 1024HK4     H885994   7.772   4.815   8.987 -0.2361 -0.2224 -0.2993
 1024HK4     N185995   7.654   4.818   9.239 -0.4084  0.2359 -0.4674
 1024HK4    C2185996   7.599   4.887   9.349 -0.0505 -0.0636 -0.1020
 1024HK4    C2285997   7.561   5.023   9.318 -0.0033 -0.0693 -0.1847
 1024HK4    C2685998   7.480   5.088   9.410  0.0451 -0.1385 -0.0932
 1024HK4    H1385999   7.434   5.183   9.382  1.7835  0.1051 -2.2211
 1024HK4    C2586000   7.443   5.026   9.529  0.4200 -0.2040 -0.0118
 1024HK4    H1286001   7.397   5.080   9.611  0.7054 -0.6278  0.4251
 1024HK4    C2486002   7.487   4.899   9.567 -0.0439 -0.3004  0.1999
 1024HK4    H1186003   7.474   4.856   9.667  2.0394  1.3438  1.2160
 1024HK4    C2386004   7.569   4.836   9.475  0.3190  0.2748  0.1230
 1024HK4    H1086005   7.610   4.735   9.490  1.9234  0.6993 -1.2345
 1024HK4    C3986006   7.670   4.679   9.230 -0.1147  0.2167  0.3624
 1024HK4    C4186007   7.627   4.607   9.117  0.4835  0.4176  0.0007
 1024HK4    H2186008   7.537   4.641   9.063  0.4662  0.9707  0.3742
 1024HK4    C4286009   7.669   4.477   9.092  0.2140  0.2080  0.6218
 1024HK4    H2286010   7.636   4.433   8.997  0.1276 -0.8379  1.1273
 1024HK4    C4386011   7.759   4.413   9.176  0.4658 -0.4199 -0.1346
 1024HK4    H2386012   7.801   4.315   9.150  1.7699  0.0608  0.1416
 1024HK4    C4486013   7.803   4.484   9.287  0.6058 -0.1845 -0.3410
 1024HK4    H2486014   7.848   4.424   9.367  1.7778  0.3530 -0.5905
 1024HK4    C4586015   7.763   4.615   9.314 -0.0379 -0.4074 -0.2017
 1024HK4    H2586016   7.806   4.667   9.400 -1.4621  2.2611 -1.0673
 1025HK4    H2886017   0.658   0.775   7.668 -0.5704  0.0691 -3.9671
 1025HK4    C4886018   0.715   0.682   7.661  0.2330  0.1352  0.1120
 1025HK4    C4786019   0.711   0.599   7.549  0.6544  0.1493  0.0856
 1025HK4    H2786020   0.630   0.611   7.475  0.5796  0.6560  0.2464
 1025HK4    C4686021   0.809   0.502   7.532  0.2992 -0.2247  0.1705
 1025HK4    H2686022   0.807   0.458   7.431 -2.4175 -0.7508  0.4112
 1025HK4    C4086023   0.915   0.487   7.623  0.0853 -0.3117  0.4057
 1025HK4    C5086024   0.916   0.573   7.735 -0.0543  0.0896  0.1052
 1025HK4    H3086025   1.013   0.584   7.787  0.2493 -0.3906 -0.3448
 1025HK4    C4986026   0.817   0.668   7.754 -0.5795 -0.6006  0.8998
 1025HK4    H2986027   0.816   0.721   7.851  2.1585 -0.8579  1.1267
 1025HK4     N286028   1.040   0.445   7.576 -0.0331 -0.1444 -0.0629
 1025HK4    C3086029   1.093   0.461   7.446  0.4562  0.6372  0.2258
 1025HK4    C2986030   1.056   0.557   7.353  0.3414  0.2287 -0.1534
 1025HK4    H1586031   1.001   0.645   7.389 -1.5836 -0.7870 -0.5617
 1025HK4    C2886032   1.117   0.570   7.229  0.2537  1.1319 -0.1060
 1025HK4    C2786033   1.225   0.483   7.203  0.1326  0.6865  0.8597
 1025HK4    H1486034   1.288   0.507   7.116 -0.1929 -0.7702  0.2265
 1025HK4    C3286035   1.266   0.390   7.298  0.1477 -0.1154  0.0711
 1025HK4    H1686036   1.344   0.318   7.275  0.1923  0.7113 -2.4271
 1025HK4    C3186037   1.206   0.373   7.423  0.1058  0.2167  0.0990
 1025HK4    C3486038   1.216   0.285   7.537  0.0148 -0.0230 -0.0807
 1025HK4    C3386039   1.116   0.338   7.628  0.1698  0.0507  0.0483
 1025HK4    C3586040   1.083   0.261   7.738 -0.0346  0.2200  0.1052
 1025HK4    H1786041   1.002   0.295   7.803  0.5882  0.0696  0.9735
 1025HK4    C3686042   1.150   0.143   7.769 -0.6773 -0.4758 -1.1122
 1025HK4    H1886043   1.134   0.094   7.867  2.7840  0.0386 -0.2362
 1025HK4    C3786044   1.253   0.097   7.688  0.1363 -0.3712 -0.1494
 1025HK4    H1986045   1.304   0.004   7.709  0.6588  0.1710  1.0196
 1025HK4    C3886046   1.282   0.168   7.572 -0.2858 -0.2199 -0.1686
 1025HK4    H2086047   1.366   0.133   7.512  0.5997 -0.3703  1.1314
 1025HK4    C1486048   1.020   0.603   7.125 -0.2937 -0.5125 -0.1219
 1025HK4     C986049   1.015   0.535   7.002 -0.3157 -0.4244 -0.1716
 1025HK4     C886050   0.965   0.605   6.890  0.5972 -0.0550 -0.3476
 1025HK4    C1186051   0.905   0.731   6.895 -0.2697 -0.4737 -0.2515
 1025HK4     H486052   0.841   0.773   6.816 -2.7588  1.2102  2.5316
 1025HK4    C1286053   0.909   0.792   7.020 -0.2397 -0.4356 -0.2722
 1025HK4     H586054   0.869   0.894   7.026  3.3318  1.0090 -0.3891
 1025HK4    C1386055   0.965   0.733   7.133  0.0570 -0.3474 -0.3728
 1025HK4     H686056   0.976   0.786   7.228  0.4328 -2.8843  1.0320
 1025HK4     C786057   0.984   0.544   6.757  0.0501 -0.1727 -0.3684
 1025HK4     O286058   0.926   0.595   6.661  0.5431  0.1456 -0.4936
 1025HK4     C486059   1.062   0.419   6.741  0.5939  0.1233 -0.0206
 1025HK4     C386060   1.115   0.383   6.618 -0.0959  0.2970 -0.3693
 1025HK4     H386061   1.061   0.417   6.528  0.3094 -0.1557 -0.7767
 1025HK4     C286062   1.215   0.288   6.602 -0.6237 -0.2529 -0.4095
 1025HK4     H286063   1.263   0.284   6.503 -0.7005 -0.2349 -0.4489
 1025HK4     C186064   1.254   0.220   6.717 -0.1121  0.4686 -0.1529
 1025HK4     H186065   1.335   0.146   6.711 -0.9391 -0.4907  0.3291
 1025HK4     C686066   1.191   0.240   6.841  0.6873  0.3363  0.2769
 1025HK4     C586067   1.095   0.341   6.854  0.1758 -0.1067 -0.0589
 1025HK4    C1086068   1.046   0.391   6.986 -0.2348 -0.4158 -0.0905
 1025HK4     O186069   0.972   0.325   7.059  0.0123 -0.1093  0.4368
 1025HK4    C1686070   1.254   0.183   6.961  0.5290  0.1218  0.2580
 1025HK4    C1586071   1.393   0.165   6.969  0.4708 -0.4543  0.0429
 1025HK4     H786072   1.461   0.182   6.884  1.1260  0.1914  0.6787
 1025HK4    C2086073   1.452   0.102   7.078  0.5889  0.2907  0.4143
 1025HK4     H986074   1.558   0.095   7.103  0.8075  0.5347 -0.4331
 1025HK4    C1986075   1.374   0.047   7.179  0.2212 -0.4056 -0.2452
 1025HK4    C1886076   1.230   0.047   7.167  0.1760  0.6154  0.2467
 1025HK4    C1786077   1.179   0.115   7.057  0.1542 -0.1535 -0.2261
 1025HK4     H886078   1.074   0.098   7.032 -0.5824  1.1613  1.7917
 1025HK4     N186079   1.166  11.208   7.258  0.1473 -0.2066 -0.5517
 1025HK4    C2186080   1.272  11.149   7.331 -0.1965  0.0953  0.1919
 1025HK4    C2286081   1.400  11.201   7.287 -0.2009  0.5361  0.6884
 1025HK4    C2686082   1.518  11.156   7.343 -0.3523 -0.0650  0.5309
 1025HK4    H1386083   1.616  11.174   7.299 -0.2845 -0.3119  0.5771
 1025HK4    C2586084   1.514  11.065   7.449  0.3741 -0.2019  0.4488
 1025HK4    H1286085   1.606  11.013   7.474  0.0211 -0.5967  0.9280
 1025HK4    C2486086   1.392  11.031   7.506  0.2622 -0.0826  0.2812
 1025HK4    H1186087   1.393  10.962   7.592  1.1647 -0.4785 -0.0450
 1025HK4    C2386088   1.274  11.065   7.442  0.3450  0.2683  0.3122
 1025HK4    H1086089   1.185  11.030   7.494  0.5864 -1.7834 -0.6007
 1025HK4    C3986090   1.031  11.234   7.284  0.2436 -0.2756  0.0151
 1025HK4    C4186091   0.965  11.119   7.334 -0.1469 -0.3049 -0.5695
 1025HK4    H2186092   0.997  11.017   7.311  0.7809  0.2503 -1.8454
 1025HK4    C4286093   0.849  11.127   7.410  0.0648  0.2672 -0.2982
 1025HK4    H2286094   0.790  11.037   7.433  0.9026 -0.6146 -1.5146
 1025HK4    C4386095   0.799   0.004   7.443  0.6407  0.2159  0.7841
 1025HK4    H2386096   0.697   0.005   7.482  0.0372  0.3360 -0.7929
 1025HK4    C4486097   0.864   0.117   7.396  0.3994  0.0772  0.1175
 1025HK4    H2486098   0.800   0.206   7.387 -0.7179 -0.5029  2.0526
 1025HK4    C4586099   0.979   0.112   7.318  0.5490 -0.2408  0.3605
 1025HK4    H2586100   1.022   0.199   7.266  0.7877 -0.7545 -0.2960
 1026HK4    H2886101   7.895   7.734   4.005  2.6981 -2.4038  0.6731
 1026HK4    C4886102   7.824   7.667   4.052  0.0926  0.0335  0.3711
 1026HK4    C4786103   7.838   7.631   4.186  0.0389 -0.1348  0.3301
 1026HK4    H2786104   7.924   7.673   4.240  2.5918 -2.5056 -1.6662
 1026HK4    C4686105   7.744   7.558   4.256 -0.3064 -0.1067 -0.1010
 1026HK4    H2686106   7.778   7.517   4.352  2.6049  1.6379 -0.3387
 1026HK4    C4086107   7.623   7.523   4.191 -0.0161 -0.8894 -0.2206
 1026HK4    C5086108   7.607   7.561   4.056  0.1252 -0.3277 -0.0830
 1026HK4    H3086109   7.511   7.550   4.004  0.1952  2.8753 -0.9972
 1026HK4    C4986110   7.709   7.625   3.987  0.0449  0.2415  0.3216
 1026HK4    H2986111   7.694   7.635   3.878 -0.9289 -0.6962  0.3617
 1026HK4     N286112   7.506   7.491   4.260 -0.0481 -0.0169  0.1279
 1026HK4    C3086113   7.422   7.386   4.218 -0.4972  0.5104 -0.3083
 1026HK4    C2986114   7.444   7.272   4.143 -0.7984  0.0975  0.2235
 1026HK4    H1586115   7.532   7.279   4.079  0.0173  1.0356  1.4344
 1026HK4    C2886116   7.350   7.174   4.113 -0.6617  0.1106 -0.2559
 1026HK4    C2786117   7.225   7.194   4.175 -0.4945 -0.3383  0.2262
 1026HK4    H1486118   7.157   7.108   4.182 -1.1086  0.2270  1.3230
 1026HK4    C3286119   7.190   7.304   4.253 -0.3769  0.2669 -0.5722
 1026HK4    H1686120   7.097   7.307   4.310  0.1124  0.0231  0.2427
 1026HK4    C3186121   7.288   7.401   4.272 -0.2953  0.0025  0.3401
 1026HK4    C3486122   7.292   7.525   4.347  0.0272 -0.0425  0.4016
 1026HK4    C3386123   7.427   7.577   4.339 -0.0576  0.1154 -0.0242
 1026HK4    C3586124   7.461   7.689   4.415  0.3009  0.1321 -0.2112
 1026HK4    H1786125   7.567   7.710   4.428  0.3519  0.5205 -1.2029
 1026HK4    C3686126   7.364   7.751   4.493  0.2476 -0.2762  0.0528
 1026HK4    H1886127   7.385   7.852   4.533 -1.6025 -0.5501  1.7575
 1026HK4    C3786128   7.242   7.690   4.513  0.1519 -0.0195  0.2517
 1026HK4    H1986129   7.177   7.726   4.593 -2.2258  2.0536 -2.5081
 1026HK4    C3886130   7.200   7.584   4.433 -0.3154  0.7209 -0.4857
 1026HK4    H2086131   7.094   7.561   4.419  0.0057 -2.7104  2.1540
 1026HK4    C1486132   7.362   7.102   3.986 -0.2936 -0.1267 -0.0871
 1026HK4     C986133   7.255   7.064   3.903 -0.1374 -0.6139 -0.0714
 1026HK4     C886134   7.268   6.960   3.809 -0.3645 -0.9714  0.2936
 1026HK4    C1186135   7.389   6.892   3.800  0.0676 -0.1735  0.0027
 1026HK4     H486136   7.403   6.811   3.727  1.0410  0.3693 -0.4143
 1026HK4    C1286137   7.498   6.934   3.875 -0.0752  0.4658 -0.1383
 1026HK4     H586138   7.594   6.882   3.856  1.3907  2.8145  0.6799
 1026HK4    C1386139   7.485   7.035   3.968  0.0152  0.4503 -0.1085
 1026HK4     H686140   7.573   7.056   4.030  0.7171  0.5971 -1.1439
 1026HK4     C786141   7.152   6.913   3.729 -0.3248 -0.2536 -0.1951
 1026HK4     O286142   7.170   6.862   3.619  0.0781 -0.0848 -0.2071
 1026HK4     C486143   7.016   6.950   3.775 -0.2083 -0.1423  0.0625
 1026HK4     C386144   6.900   6.889   3.728  0.0330 -0.5922  0.0490
 1026HK4     H386145   6.909   6.803   3.660 -1.1022 -2.4094  2.1391
 1026HK4     C286146   6.774   6.941   3.754  0.2633  0.1679 -0.3370
 1026HK4     H286147   6.686   6.885   3.717  1.6448 -1.5830 -1.0637
 1026HK4     C186148   6.762   7.049   3.840  0.4704 -0.3399  0.3367
 1026HK4     H186149   6.665   7.077   3.884  0.7566  1.5664 -0.1808
 1026HK4     C686150   6.878   7.111   3.892  0.2799  0.4738 -0.1983
 1026HK4     C586151   7.004   7.067   3.853  0.1694 -0.1587  0.1455
 1026HK4    C1086152   7.126   7.139   3.900  0.2531  0.0567 -0.3892
 1026HK4     O186153   7.142   7.256   3.868 -0.4006  0.0832 -0.6216
 1026HK4    C1686154   6.854   7.178   4.021  0.2902  0.1959 -0.0508
 1026HK4    C1586155   6.844   7.099   4.137 -0.3194  0.2848 -0.0410
 1026HK4     H786156   6.822   6.991   4.132  2.0565 -0.1682 -1.5745
 1026HK4    C2086157   6.838   7.154   4.264  0.5489  0.4435 -0.0605
 1026HK4     H986158   6.839   7.089   4.352 -0.2512  1.2376  0.5484
 1026HK4    C1986159   6.842   7.292   4.281  0.4842  0.4567 -0.1496
 1026HK4    C1886160   6.841   7.373   4.161  0.1819  0.0377 -0.4306
 1026HK4    C1786161   6.843   7.316   4.034 -0.4177  0.1863 -0.5101
 1026HK4     H886162   6.833   7.376   3.943 -0.3654 -0.3173 -0.8499
 1026HK4     N186163   6.816   7.506   4.200 -0.1048 -0.0445 -0.3358
 1026HK4    C2186164   6.814   7.511   4.341  1.0729 -0.2061 -0.3107
 1026HK4    C2286165   6.822   7.377   4.396  0.1367 -0.0661  0.1777
 1026HK4    C2686166   6.849   7.359   4.531 -0.2217  0.1543  0.2793
 1026HK4    H1386167   6.853   7.256   4.566 -1.2769 -0.1164 -0.3812
 1026HK4    C2586168   6.877   7.469   4.612  0.0700  0.0222  0.3561
 1026HK4    H1286169   6.905   7.445   4.715  0.8146  0.3188  0.2275
 1026HK4    C2486170   6.874   7.596   4.557  0.4886 -0.4279 -0.7117
 1026HK4    H1186171   6.853   7.679   4.625 -1.3642 -1.1072 -0.4315
 1026HK4    C2386172   6.839   7.620   4.424 -0.2665  0.1831 -0.4060
 1026HK4    H1086173   6.844   7.720   4.381  2.2021 -0.8297 -2.5893
 1026HK4    C3986174   6.804   7.613   4.110 -0.4250  0.3852  0.2159
 1026HK4    C4186175   6.727   7.729   4.134  0.0836  0.7799 -0.0424
 1026HK4    H2186176   6.676   7.729   4.232  1.5447 -4.5290  0.8784
 1026HK4    C4286177   6.730   7.842   4.053 -0.0436  0.4622 -0.4979
 1026HK4    H2286178   6.659   7.923   4.076 -0.5859 -0.8477  2.6826
 1026HK4    C4386179   6.820   7.852   3.948  0.1575  0.0554 -0.3668
 1026HK4    H2386180   6.821   7.942   3.886 -0.7434  1.4014  1.5448
 1026HK4    C4486181   6.907   7.745   3.930  0.0269 -0.1471  0.2068
 1026HK4    H2486182   6.998   7.752   3.868  0.3158 -2.2489  0.3527
 1026HK4    C4586183   6.896   7.629   4.005 -0.3442 -0.1086  0.2135
 1026HK4    H2586184   6.971   7.549   3.994  0.9299  1.3014 -1.5104
 1027HK4    H2886185   4.375   4.266   4.683  0.3578  0.5057  0.7912
 1027HK4    C4886186   4.306   4.194   4.729  0.1025  0.2151 -0.0384
 1027HK4    C4786187   4.264   4.220   4.859 -0.0806  0.0670 -0.0673
 1027HK4    H2786188   4.332   4.275   4.926  0.2401  1.1778 -1.2741
 1027HK4    C4686189   4.182   4.132   4.928 -0.1204  0.2261  0.0884
 1027HK4    H2686190   4.125   4.169   5.014 -0.3381 -1.6181  0.7676
 1027HK4    C4086191   4.147   4.005   4.877 -0.1246  0.2980 -0.0864
 1027HK4    C5086192   4.187   3.983   4.743 -0.0044  0.2417 -0.0404
 1027HK4    H3086193   4.192   3.880   4.707 -1.0706  0.8307 -1.9186
 1027HK4    C4986194   4.259   4.077   4.670 -0.3617  0.4460 -0.1300
 1027HK4    H2986195   4.273   4.062   4.562  0.4578 -1.5337  0.2271
 1027HK4     N286196   4.095   3.905   4.960  0.3881 -0.0016 -0.1267
 1027HK4    C3086197   4.098   3.897   5.101 -0.3437  0.0127 -0.1089
 1027HK4    C2986198   4.184   3.966   5.185  0.5902 -0.7280 -0.4463
 1027HK4    H1586199   4.276   4.011   5.147  0.1101 -0.3710 -1.1784
 1027HK4    C2886200   4.180   3.947   5.323  0.0618  0.0380 -0.3560
 1027HK4    C2786201   4.086   3.859   5.379  0.6234 -0.4355 -0.1510
 1027HK4    H1486202   4.068   3.862   5.487 -1.0328  1.1057 -0.4577
 1027HK4    C3286203   4.001   3.785   5.297 -0.3733  0.2092  0.2923
 1027HK4    H1686204   3.924   3.724   5.345 -1.5375  0.2193 -1.5066
 1027HK4    C3186205   4.009   3.798   5.159 -0.0782  0.0047  0.2880
 1027HK4    C3486206   3.956   3.728   5.044  0.6079  0.1592 -0.1215
 1027HK4    C3386207   4.003   3.803   4.929  0.7661 -0.2763 -0.3411
 1027HK4    C3586208   3.956   3.759   4.806  0.1764  0.0255 -0.2260
 1027HK4    H1786209   3.991   3.816   4.719  1.1223  2.3828  1.6399
 1027HK4    C3686210   3.880   3.644   4.792 -0.1970  0.2659 -0.1658
 1027HK4    H1886211   3.838   3.619   4.694 -1.8527  2.5391 -0.0841
 1027HK4    C3786212   3.840   3.569   4.903 -0.0092  0.2756 -0.0909
 1027HK4    H1986213   3.781   3.478   4.897  0.5759 -0.0951 -0.2551
 1027HK4    C3886214   3.882   3.612   5.028  0.2404  0.4050 -0.2173
 1027HK4    H2086215   3.892   3.547   5.115 -0.6441  0.9926  0.3308
 1027HK4    C1486216   4.280   4.016   5.407 -0.4370  0.2317  0.0803
 1027HK4     C986217   4.331   3.973   5.530  0.0839 -0.1307 -0.2600
 1027HK4     C886218   4.365   4.067   5.630  0.0333 -0.4341  0.0425
 1027HK4    C1186219   4.355   4.202   5.599 -0.6272 -0.4850  0.0275
 1027HK4     H486220   4.369   4.280   5.675 -1.6753 -0.4762  0.2149
 1027HK4    C1286221   4.318   4.244   5.472 -0.1787  0.5545  0.2389
 1027HK4     H586222   4.332   4.352   5.452  2.1175 -0.1912 -2.5244
 1027HK4    C1386223   4.283   4.153   5.373 -0.6150  0.3579  0.5775
 1027HK4     H686224   4.271   4.181   5.268 -2.6849  2.0994  1.2413
 1027HK4     C786225   4.416   4.027   5.763  0.4759 -0.1398 -0.0374
 1027HK4     O286226   4.433   4.111   5.851 -0.3513 -0.1904  0.1758
 1027HK4     C486227   4.436   3.882   5.784  0.0979 -0.1823  0.0255
 1027HK4     C386228   4.492   3.836   5.903  0.6918  0.1494 -0.1257
 1027HK4     H386229   4.568   3.899   5.951  0.8694 -0.1152 -0.0612
 1027HK4     C286230   4.474   3.704   5.943  0.5574  0.3588  0.5115
 1027HK4     H286231   4.526   3.659   6.029  0.1281 -2.8118 -0.8212
 1027HK4     C186232   4.397   3.618   5.867  0.1114  0.8570  0.4005
 1027HK4     H186233   4.394   3.510   5.889  0.3823  0.5924 -0.8338
 1027HK4     C686234   4.335   3.660   5.747 -0.4074  0.1777  0.4237
 1027HK4     C586235   4.369   3.788   5.703 -0.1522 -0.0223  0.0447
 1027HK4    C1086236   4.339   3.828   5.562  0.1368 -0.0774 -0.0363
 1027HK4     O186237   4.362   3.749   5.471  0.1651  0.1044 -0.1877
 1027HK4    C1686238   4.223   3.573   5.709 -0.4435  0.3203  0.2031
 1027HK4    C1586239   4.137   3.531   5.812  0.3279 -0.2780  0.6028
 1027HK4     H786240   4.148   3.567   5.916  0.0606  0.7516  0.2702
 1027HK4    C2086241   4.056   3.421   5.786 -0.2098  0.3172 -0.2260
 1027HK4     H986242   3.995   3.380   5.866 -0.9375 -0.1329 -0.9983
 1027HK4    C1986243   4.064   3.349   5.668  0.0811 -0.3892  0.2239
 1027HK4    C1886244   4.147   3.399   5.560 -0.2844  0.3542  0.2806
 1027HK4    C1786245   4.227   3.510   5.584 -0.2358  0.3368  0.2014
 1027HK4     H886246   4.312   3.508   5.517  1.2846  0.9164  2.0531
 1027HK4     N186247   4.141   3.329   5.438  0.7122 -0.0748  0.4657
 1027HK4    C2186248   4.042   3.231   5.464  0.2020  0.2764 -0.1232
 1027HK4    C2286249   3.991   3.244   5.599  0.2536 -0.3341 -0.0425
 1027HK4    C2686250   3.905   3.151   5.655  0.0905 -0.4444 -0.4761
 1027HK4    H1386251   3.894   3.163   5.763  1.8214  1.7819 -0.5138
 1027HK4    C2586252   3.865   3.044   5.576 -0.2675 -0.6388 -0.0307
 1027HK4    H1286253   3.779   2.984   5.609  0.3782 -1.8023 -0.4152
 1027HK4    C2486254   3.923   3.022   5.452  0.2247  0.3131  0.0319
 1027HK4    H1186255   3.896   2.933   5.393 -0.8299  0.4579  0.2975
 1027HK4    C2386256   4.010   3.115   5.395  0.5019  0.0781  0.0671
 1027HK4    H1086257   4.040   3.101   5.291  2.3308  2.7110  0.1989
 1027HK4    C3986258   4.189   3.368   5.313  0.5308  0.2360  0.4934
 1027HK4    C4186259   4.230   3.270   5.220 -0.0052  0.2919  0.1961
 1027HK4    H2186260   4.227   3.166   5.253  0.0534  0.7155  1.5606
 1027HK4    C4286261   4.263   3.307   5.090 -0.2323  0.3000  0.1413
 1027HK4    H2286262   4.294   3.225   5.023 -1.7057 -1.4703  1.5546
 1027HK4    C4386263   4.254   3.438   5.045  0.3592  0.2208 -0.2187
 1027HK4    H2386264   4.306   3.477   4.958  1.0136 -0.0307  0.0616
 1027HK4    C4486265   4.215   3.534   5.138 -0.4308 -0.1249 -0.1882
 1027HK4    H2486266   4.205   3.640   5.108 -2.2251 -0.0428  0.6102
 1027HK4    C4586267   4.187   3.503   5.270 -0.9178 -0.0103 -0.2589
 1027HK4    H2586268   4.159   3.582   5.341  1.3836  2.1062 -1.5873
 1028HK4    H2886269   6.040   8.083   8.748  2.5864  2.2419  0.7456
 1028HK4    C4886270   6.098   8.032   8.825  0.7485 -0.0540  0.6483
 1028HK4    C4786271   6.040   7.928   8.897  0.3392 -0.3858 -0.1552
 1028HK4    H2786272   5.943   7.890   8.863  1.1282 -0.0827 -2.8245
 1028HK4    C4686273   6.107   7.864   9.001  0.1557 -0.6452 -0.1955
 1028HK4    H2686274   6.053   7.795   9.066  2.0338  0.6725  2.8691
 1028HK4    C4086275   6.240   7.905   9.027  0.0298 -0.3403 -0.0346
 1028HK4    C5086276   6.301   8.000   8.942 -0.4316 -0.0224 -0.0146
 1028HK4    H3086277   6.411   8.007   8.941 -0.4034 -0.4121  0.2298
 1028HK4    C4986278   6.232   8.065   8.841  0.7187  0.5971 -0.4156
 1028HK4    H2986279   6.262   8.162   8.799 -2.4855  1.9776  0.2354
 1028HK4     N286280   6.325   7.823   9.102  0.1072  0.1890  0.4641
 1028HK4    C3086281   6.314   7.684   9.123  1.2216  0.0011 -0.1612
 1028HK4    C2986282   6.275   7.584   9.036  0.3893  0.3602 -0.1985
 1028HK4    H1586283   6.214   7.612   8.950 -0.3149 -1.6983 -0.4072
 1028HK4    C2886284   6.293   7.449   9.064 -0.2944  0.3035  0.0054
 1028HK4    C2786285   6.340   7.419   9.193 -1.0766 -0.1127  0.1947
 1028HK4    H1486286   6.325   7.313   9.220 -0.6784 -0.6448 -1.5895
 1028HK4    C3286287   6.376   7.511   9.291  0.0427 -0.3949  0.0604
 1028HK4    H1686288   6.367   7.484   9.396  1.2221 -0.6139  0.1075
 1028HK4    C3186289   6.362   7.645   9.254 -0.4142 -0.3630  0.3457
 1028HK4    C3486290   6.416   7.768   9.310  0.3798 -0.7766  0.5030
 1028HK4    C3386291   6.395   7.873   9.213  0.7891 -0.7449  0.4571
 1028HK4    C3586292   6.434   8.002   9.248  0.4088 -0.5796  0.2729
 1028HK4    H1786293   6.389   8.086   9.195  2.5027  1.0413  1.0015
 1028HK4    C3686294   6.492   8.036   9.370  0.0818 -0.2154  0.3304
 1028HK4    H1886295   6.517   8.140   9.392 -2.5351  0.6333 -0.5066
 1028HK4    C3786296   6.507   7.934   9.463  0.8089 -0.1472  0.2834
 1028HK4    H1986297   6.557   7.954   9.558 -0.0879 -0.7207  0.8897
 1028HK4    C3886298   6.471   7.803   9.433  0.5068 -0.0529  0.2422
 1028HK4    H2086299   6.477   7.725   9.509 -0.9057 -0.8391 -0.4401
 1028HK4    C1486300   6.242   7.347   8.970 -0.1776  0.3485 -0.1060
 1028HK4     C986301   6.223   7.218   9.019  0.1484  0.4110  0.1918
 1028HK4     C886302   6.272   7.105   8.950 -0.3957  0.2344  0.0866
 1028HK4    C1186303   6.310   7.125   8.817  0.3632  0.4234  0.3268
 1028HK4     H486304   6.304   7.038   8.751 -1.8942  0.3820  0.5461
 1028HK4    C1286305   6.312   7.252   8.760 -0.0485 -0.0001 -0.6312
 1028HK4     H586306   6.378   7.264   8.674  0.5056 -0.8227 -0.3300
 1028HK4    C1386307   6.284   7.365   8.837  0.3765 -0.3097 -0.0226
 1028HK4     H686308   6.255   7.461   8.792 -2.0412 -0.6249  0.7902
 1028HK4     C786309   6.271   6.973   9.016  0.5383  0.2937  0.2277
 1028HK4     O286310   6.337   6.881   8.968  0.2994  0.3591 -0.2220
 1028HK4     C486311   6.199   6.956   9.144 -0.0078 -0.1312 -0.1343
 1028HK4     C386312   6.194   6.829   9.202 -0.4052 -0.1115 -0.1200
 1028HK4     H386313   6.269   6.754   9.174  0.5230  0.9475 -0.5056
 1028HK4     C286314   6.119   6.796   9.314  0.1664  0.1689  0.3427
 1028HK4     H286315   6.079   6.695   9.328  0.1342  0.0162 -0.8145
 1028HK4     C186316   6.066   6.907   9.378  0.1494  0.2702  0.1518
 1028HK4     H186317   6.017   6.879   9.473 -0.4288  0.6147 -0.0382
 1028HK4     C686318   6.073   7.040   9.332  0.9844  0.1784  0.0155
 1028HK4     C586319   6.129   7.062   9.205 -0.4850 -0.1164 -0.7027
 1028HK4    C1086320   6.131   7.194   9.135 -0.3216  0.1331 -0.2379
 1028HK4     O186321   6.031   7.264   9.146 -0.1288  0.2967  0.4710
 1028HK4    C1686322   6.005   7.145   9.409  0.1520 -0.3149 -0.0479
 1028HK4    C1586323   5.897   7.111   9.494  0.1601 -0.2517 -0.0126
 1028HK4     H786324   5.823   7.042   9.453  1.2357 -1.9609  0.8232
 1028HK4    C2086325   5.884   7.182   9.612  0.1231  0.0650 -0.2080
 1028HK4     H986326   5.801   7.164   9.680  0.5224 -1.2042 -0.0554
 1028HK4    C1986327   5.964   7.290   9.647 -0.1010  0.1495  0.0503
 1028HK4    C1886328   6.053   7.340   9.544  0.0756 -0.2653 -0.0021
 1028HK4    C1786329   6.073   7.264   9.430  0.1223 -0.3121  0.0396
 1028HK4     H886330   6.158   7.291   9.367 -1.1754  1.2758 -1.0625
 1028HK4     N186331   6.106   7.465   9.584 -0.0783 -0.2929  0.2859
 1028HK4    C2186332   6.072   7.475   9.721 -0.0400 -0.3421  0.3000
 1028HK4    C2286333   5.970   7.380   9.761 -0.4507  0.0360  0.1580
 1028HK4    C2686334   5.947   7.365   9.897 -0.2142 -0.5423  0.1348
 1028HK4    H1386335   5.854   7.315   9.924  1.2442 -1.5178  3.6377
 1028HK4    C2586336   6.025   7.423   9.996 -0.1709  0.4575 -0.4724
 1028HK4    H1286337   5.981   7.434  10.095  1.2306  1.8244  0.0227
 1028HK4    C2486338   6.130   7.505   9.955  0.0234  0.5272  0.1444
 1028HK4    H1186339   6.206   7.528  10.031  1.3075 -0.3396 -0.8426
 1028HK4    C2386340   6.148   7.535   9.820  0.1534 -0.1145  0.0131
 1028HK4    H1086341   6.221   7.613   9.796  1.6756 -1.5494 -0.0925
 1028HK4    C3986342   6.101   7.581   9.507  0.5280 -0.6485 -0.2987
 1028HK4    C4186343   6.161   7.705   9.538 -0.0575 -0.5296  0.3599
 1028HK4    H2186344   6.222   7.704   9.630 -0.7506 -3.2334  0.8341
 1028HK4    C4286345   6.136   7.823   9.469 -1.0125 -0.3788  0.9451
 1028HK4    H2286346   6.199   7.911   9.490 -0.2607 -0.9056  0.9505
 1028HK4    C4386347   6.048   7.822   9.362  0.4792 -0.4670 -0.2992
 1028HK4    H2386348   6.030   7.917   9.311 -0.3225 -0.5892 -0.2375
 1028HK4    C4486349   5.989   7.702   9.323 -0.4574 -0.1999  0.2881
 1028HK4    H2486350   5.917   7.698   9.241  0.0927  1.2550 -0.2775
 1028HK4    C4586351   6.020   7.585   9.391 -0.0538 -0.1925  0.1180
 1028HK4    H2586352   5.973   7.491   9.358 -0.1240  0.3418 -1.3101
 1029HK4    H2886353   7.157   4.459   4.810  1.5850  0.7520 -0.1954
 1029HK4    C4886354   7.179   4.367   4.757 -0.0923  0.2622 -0.0388
 1029HK4    C4786355   7.185   4.251   4.834  0.0322  0.3750  0.1206
 1029HK4    H2786356   7.113   4.207   4.905  0.3733  0.3394  0.4431
 1029HK4    C4686357   7.267   4.147   4.792  0.0632  0.3641  0.2073
 1029HK4    H2686358   7.281   4.065   4.864  0.9538  0.7601  0.4965
 1029HK4    C4086359   7.337   4.151   4.669 -0.1132 -0.0666  0.0936
 1029HK4    C5086360   7.321   4.265   4.588 -0.3064 -0.2637 -0.1516
 1029HK4    H3086361   7.402   4.276   4.514  0.4633 -0.4848  0.6460
 1029HK4    C4986362   7.244   4.372   4.635  0.8184  0.2999  0.4476
 1029HK4    H2986363   7.235   4.468   4.583 -0.7682 -0.3731 -0.5445
 1029HK4     N286364   7.428   4.051   4.631  0.2897  0.1699  0.4310
 1029HK4    C3086365   7.484   3.959   4.722  0.2948 -0.2161  0.0367
 1029HK4    C2986366   7.547   3.992   4.841  0.0991  0.2632  0.0077
 1029HK4    H1586367   7.508   4.081   4.892 -2.1631  0.1763 -1.5033
 1029HK4    C2886368   7.634   3.907   4.908  0.1475  0.4738  0.2138
 1029HK4    C2786369   7.649   3.777   4.856  0.3338  0.5713  0.0192
 1029HK4    H1486370   7.704   3.700   4.912  2.2579  0.2825 -2.2156
 1029HK4    C3286371   7.590   3.744   4.734 -0.0835  0.0088  0.3636
 1029HK4    H1686372   7.606   3.646   4.690  0.3655  0.2120  0.0633
 1029HK4    C3186373   7.508   3.830   4.661  0.2048 -0.1473 -0.1456
 1029HK4    C3486374   7.482   3.850   4.520 -0.6211  0.1778  0.0526
 1029HK4    C3386375   7.440   3.988   4.506  0.4677  0.5293  0.2661
 1029HK4    C3586376   7.422   4.038   4.378 -0.0909 -0.7517 -0.1681
 1029HK4    H1786377   7.386   4.140   4.364  0.7403 -0.1006  2.1971
 1029HK4    C3686378   7.451   3.955   4.270 -0.0596 -0.3527 -0.4691
 1029HK4    H1886379   7.456   3.997   4.169 -2.0487  2.3770  0.4893
 1029HK4    C3786380   7.485   3.822   4.287 -0.1792 -0.3594 -0.2739
 1029HK4    H1986381   7.483   3.758   4.198 -0.8052  0.1806 -0.6491
 1029HK4    C3886382   7.501   3.764   4.412 -0.1928  0.2981  0.0322
 1029HK4    H2086383   7.481   3.658   4.425 -1.7061  0.4667 -0.7677
 1029HK4    C1486384   7.743   3.969   4.985  0.2736  0.4285  0.0751
 1029HK4     C986385   7.876   3.928   4.991  0.1366  0.0121  0.2880
 1029HK4     C886386   7.951   3.939   5.110  0.3417  0.5989  0.1032
 1029HK4    C1186387   7.893   4.000   5.221 -0.3626 -0.5749  0.3877
 1029HK4     H486388   7.962   4.015   5.305  0.5871  0.4259 -0.5493
 1029HK4    C1286389   7.764   4.052   5.221 -0.1961 -0.1482  0.0527
 1029HK4     H586390   7.706   4.081   5.310 -0.1004  1.2765 -0.3487
 1029HK4    C1386391   7.696   4.035   5.101 -0.3085 -0.0209  0.0989
 1029HK4     H686392   7.601   4.089   5.092 -0.8456 -0.5097  2.4308
 1029HK4     C786393   8.083   3.872   5.119  0.0645  0.0354 -0.0154
 1029HK4     O286394   8.160   3.905   5.209 -0.0964 -0.1061  0.1726
 1029HK4     C486395   8.124   3.780   5.011  0.1470 -0.2783  0.2838
 1029HK4     C386396   8.237   3.705   5.040  0.4979  0.3353  0.5078
 1029HK4     H386397   8.278   3.698   5.142 -0.3324 -1.1686  0.7425
 1029HK4     C286398   8.288   3.628   4.936 -0.2349  0.4754  0.0443
 1029HK4     H286399   8.383   3.575   4.953 -0.5134  0.3016  1.1372
 1029HK4     C186400   8.218   3.621   4.816 -0.2442  0.4611  0.0503
 1029HK4     H186401   8.254   3.553   4.737 -0.3112  1.3755 -0.7649
 1029HK4     C686402   8.102   3.695   4.787 -0.2073  0.5585  0.1429
 1029HK4     C586403   8.063   3.788   4.884 -0.0553  0.3348  0.4157
 1029HK4    C1086404   7.938   3.869   4.870 -0.0661  0.2546  0.0644
 1029HK4     O186405   7.920   3.931   4.765 -0.3525 -0.5183 -0.3519
 1029HK4    C1686406   8.015   3.641   4.682 -0.3228  0.1016  0.4781
 1029HK4    C1586407   8.010   3.500   4.681  0.3401  0.0836 -0.1223
 1029HK4     H786408   8.022   3.455   4.780 -1.3870  2.0934  1.0286
 1029HK4    C2086409   8.007   3.434   4.558  0.4532 -0.3480  0.1020
 1029HK4     H986410   8.012   3.326   4.556 -1.5213 -0.4335 -1.2173
 1029HK4    C1986411   8.009   3.503   4.437 -0.0973 -0.2436  0.1501
 1029HK4    C1886412   7.990   3.647   4.441  0.2840 -0.1812 -0.1975
 1029HK4    C1786413   8.001   3.712   4.563 -0.7522 -0.5780  0.1164
 1029HK4     H886414   7.996   3.820   4.565  1.7649 -0.4441  0.7100
 1029HK4     N186415   7.996   3.701   4.311 -0.1303  0.0203 -0.1377
 1029HK4    C2186416   8.018   3.592   4.224 -0.1358  0.1554 -0.3074
 1029HK4    C2286417   8.044   3.471   4.300  0.1031  0.4300  0.0447
 1029HK4    C2686418   8.074   3.351   4.237  0.4254  0.7527 -0.4222
 1029HK4    H1386419   8.116   3.270   4.297  1.8799  1.0163 -1.0551
 1029HK4    C2586420   8.095   3.349   4.099  0.0774 -0.3559 -0.4637
 1029HK4    H1286421   8.119   3.263   4.037  0.2855 -0.3160 -0.4414
 1029HK4    C2486422   8.078   3.465   4.025  0.0678 -0.5119 -0.7053
 1029HK4    H1186423   8.100   3.466   3.917 -0.7561  2.1100 -0.8889
 1029HK4    C2386424   8.028   3.580   4.086 -0.1127 -0.8475 -0.2207
 1029HK4    H1086425   7.990   3.659   4.021  0.3094  0.4135  1.0288
 1029HK4    C3986426   7.947   3.829   4.285 -0.3202  0.0159  0.2102
 1029HK4    C4186427   7.989   3.901   4.172  0.0942  0.0145  0.3637
 1029HK4    H2186428   8.085   3.870   4.128 -0.5530 -1.4167 -0.0666
 1029HK4    C4286429   7.925   4.018   4.131 -0.1160 -0.1431  0.2424
 1029HK4    H2286430   7.976   4.073   4.051 -0.2809 -0.4777 -0.0963
 1029HK4    C4386431   7.823   4.074   4.208 -0.1647  0.3752 -0.2006
 1029HK4    H2386432   7.780   4.173   4.196  0.3807  0.8265  1.4450
 1029HK4    C4486433   7.784   4.004   4.321  0.6348  0.3352  0.0532
 1029HK4    H2486434   7.716   4.053   4.392  1.1261  0.1240  0.6754
 1029HK4    C4586435   7.839   3.883   4.360 -0.1703  0.0696  0.3891
 1029HK4    H2586436   7.777   3.825   4.430  0.6074 -0.5994  0.5461
 1030HK4    H2886437   4.470   3.306   7.119  1.1910  2.1936  1.1113
 1030HK4    C4886438   4.553   3.242   7.149 -0.2780 -0.3377 -0.1023
 1030HK4    C4786439   4.673   3.264   7.082 -0.1986 -0.3696  0.0256
 1030HK4    H2786440   4.671   3.324   6.990  1.2131 -0.1438  0.1396
 1030HK4    C4686441   4.791   3.208   7.128  0.0601 -0.1141 -0.3283
 1030HK4    H2686442   4.886   3.225   7.075  0.9594 -1.2288  0.8778
 1030HK4    C4086443   4.785   3.122   7.239 -0.0077  0.1278 -0.1437
 1030HK4    C5086444   4.665   3.099   7.309  0.0376 -0.2036 -0.1741
 1030HK4    H3086445   4.658   3.028   7.393 -1.0557 -0.7649 -0.7255
 1030HK4    C4986446   4.550   3.161   7.261  0.0266  0.0689  0.2024
 1030HK4    H2986447   4.449   3.150   7.302  0.2976  0.2146  0.9163
 1030HK4     N286448   4.895   3.037   7.257 -0.0721  0.0718 -0.0126
 1030HK4    C3086449   4.967   2.961   7.162  0.0338  0.1733 -0.0127
 1030HK4    C2986450   4.940   2.942   7.027 -0.1261 -0.3425  0.0891
 1030HK4    H1586451   4.835   2.950   7.000 -0.1356  2.0907  0.6837
 1030HK4    C2886452   5.047   2.902   6.948 -0.2358 -0.1574 -0.1554
 1030HK4    C2786453   5.171   2.872   7.008  0.0850  0.9796 -0.2399
 1030HK4    H1486454   5.249   2.824   6.946 -0.8932 -1.5562  0.4465
 1030HK4    C3286455   5.197   2.879   7.144  0.3103  0.4554 -0.2547
 1030HK4    H1686456   5.295   2.856   7.186  0.3756  2.0635  0.5286
 1030HK4    C3186457   5.091   2.922   7.224  0.0846 -0.0682 -0.2709
 1030HK4    C3486458   5.090   2.962   7.364 -0.7022 -0.9255 -0.0240
 1030HK4    C3386459   4.963   3.029   7.381 -0.1112  0.1879  0.0169
 1030HK4    C3586460   4.926   3.082   7.504 -0.6035 -0.3644  0.1080
 1030HK4    H1786461   4.829   3.124   7.528 -0.1216  0.6437  0.3321
 1030HK4    C3686462   5.011   3.064   7.612 -0.4872 -0.4214  0.0070
 1030HK4    H1886463   4.983   3.116   7.705 -0.4330 -1.5851  0.6814
 1030HK4    C3786464   5.129   2.992   7.602 -0.4051 -0.3694  0.5189
 1030HK4    H1986465   5.194   2.975   7.687  0.4706  0.8595  0.0976
 1030HK4    C3886466   5.168   2.944   7.477 -0.7295  0.2343  0.1832
 1030HK4    H2086467   5.261   2.886   7.474  0.0290  1.4139  0.2691
 1030HK4    C1486468   5.024   2.859   6.810 -0.4586 -0.1554 -0.1191
 1030HK4     C986469   5.090   2.754   6.745 -0.5709 -0.0891 -0.3403
 1030HK4     C886470   5.144   2.768   6.615 -0.2301 -0.1611 -0.2056
 1030HK4    C1186471   5.090   2.870   6.538 -0.2353  0.0618  0.0932
 1030HK4     H486472   5.124   2.876   6.434  1.4182  0.9666  0.6650
 1030HK4    C1286473   5.008   2.968   6.593 -0.4138 -0.0494  0.0227
 1030HK4     H586474   4.993   3.067   6.547 -1.4893  1.3543  3.2587
 1030HK4    C1386475   4.969   2.959   6.726 -0.3389  0.0564  0.0538
 1030HK4     H686476   4.900   3.030   6.774  1.6217  1.5289  0.7013
 1030HK4     C786477   5.234   2.666   6.557  0.2101  0.0553  0.0990
 1030HK4     O286478   5.284   2.682   6.446 -0.1959  0.3003 -0.0493
 1030HK4     C486479   5.264   2.544   6.637 -0.2743 -0.1673 -0.0614
 1030HK4     C386480   5.364   2.455   6.601  0.2454  0.2899  0.2598
 1030HK4     H386481   5.427   2.484   6.515  1.2404 -0.0216  0.8793
 1030HK4     C286482   5.372   2.330   6.659  0.4516  0.0765 -0.2196
 1030HK4     H286483   5.440   2.254   6.618  0.6951  0.2424 -0.1233
 1030HK4     C186484   5.271   2.296   6.749  0.0837  0.3234 -0.5376
 1030HK4     H186485   5.296   2.220   6.825  0.0049 -1.8783 -2.6450
 1030HK4     C686486   5.157   2.375   6.774 -0.2365 -0.3043 -0.0146
 1030HK4     C586487   5.166   2.507   6.731  0.1472 -0.2045  0.3643
 1030HK4    C1086488   5.097   2.618   6.804  0.4943  0.1688  0.1274
 1030HK4     O186489   5.066   2.597   6.921  0.2569  0.4583  0.1170
 1030HK4    C1686490   5.030   2.306   6.804 -0.1309 -0.1023  0.9084
 1030HK4    C1586491   5.018   2.167   6.827  0.3326 -0.3188 -0.1290
 1030HK4     H786492   5.113   2.113   6.840  0.6236  0.1329 -0.3743
 1030HK4    C2086493   4.898   2.097   6.837  0.2005 -0.1457 -0.4785
 1030HK4     H986494   4.893   1.993   6.870 -0.0646 -0.1316 -0.4808
 1030HK4    C1986495   4.780   2.170   6.833  0.2598 -0.0280 -0.1294
 1030HK4    C1886496   4.783   2.313   6.812 -0.0181 -0.0681 -0.4381
 1030HK4    C1786497   4.908   2.368   6.783  0.0622 -0.0149  0.0164
 1030HK4     H886498   4.910   2.466   6.736  0.2736  0.0093  0.0732
 1030HK4     N186499   4.652   2.366   6.810 -0.1362 -0.3320  0.4588
 1030HK4    C2186500   4.565   2.255   6.820  0.1230 -0.5233  0.6040
 1030HK4    C2286501   4.640   2.132   6.836  0.3719 -0.4045  0.3601
 1030HK4    C2686502   4.565   2.015   6.829 -0.4986  0.1935 -0.3626
 1030HK4    H1386503   4.618   1.921   6.843  1.0380  1.0375 -0.3686
 1030HK4    C2586504   4.427   2.013   6.812 -0.4758 -0.0583 -0.5264
 1030HK4    H1286505   4.371   1.920   6.815 -0.4465 -0.1572 -2.2321
 1030HK4    C2486506   4.358   2.133   6.803 -0.2276  0.1115 -0.1669
 1030HK4    H1186507   4.250   2.135   6.785 -0.5171  0.1336  1.5099
 1030HK4    C2386508   4.427   2.254   6.800  0.2288 -0.1501 -0.2044
 1030HK4    H1086509   4.366   2.343   6.784  0.5848 -0.2314 -2.0591
 1030HK4    C3986510   4.613   2.489   6.863 -0.0767 -0.2539  0.3183
 1030HK4    C4186511   4.505   2.566   6.815  0.3760  0.0351 -0.2395
 1030HK4    H2186512   4.442   2.527   6.734  0.1303  0.6077 -0.3237
 1030HK4    C4286513   4.481   2.696   6.857  0.5580  0.0454 -0.1636
 1030HK4    H2286514   4.389   2.750   6.830  0.1587  0.4572  1.8826
 1030HK4    C4386515   4.568   2.753   6.950  0.0642  0.6943 -0.1005
 1030HK4    H2386516   4.544   2.855   6.980  1.8530  1.3643 -0.9165
 1030HK4    C4486517   4.683   2.686   6.989 -0.1417  0.0986 -0.4997
 1030HK4    H2486518   4.767   2.731   7.045  0.1660 -3.0163  1.6457
 1030HK4    C4586519   4.705   2.555   6.948  0.7100  0.3946 -1.0193
 1030HK4    H2586520   4.783   2.495   6.996 -0.2075  1.1990  1.5477
 1031HK4    H2886521   0.090   1.904   0.997 -0.2334  1.3735  0.6022
 1031HK4    C4886522  11.233   1.894   0.970  0.0318  0.0058 -0.0073
 1031HK4    C4786523  11.193   1.765   0.940 -0.2460  0.0071  0.3543
 1031HK4    H2786524  11.241   1.680   0.991 -0.3171  0.9076  1.9556
 1031HK4    C4686525  11.076   1.743   0.868 -0.2874 -0.1140  0.4578
 1031HK4    H2686526  11.051   1.637   0.860  0.5826 -0.2788 -0.2665
 1031HK4    C4086527  11.004   1.854   0.819  0.1515 -0.0448 -0.0483
 1031HK4    C5086528  11.047   1.985   0.850 -0.3709  0.0533  0.2864
 1031HK4    H3086529  10.999   2.071   0.801  1.1770  0.3479 -0.7606
 1031HK4    C4986530  11.163   2.005   0.924 -0.3274 -0.1091  0.2626
 1031HK4    H2986531  11.207   2.104   0.946  1.5860 -1.2150  1.5085
 1031HK4     N286532  10.886   1.834   0.747  0.1450  0.3336 -0.1435
 1031HK4    C3086533  10.860   1.713   0.679 -0.1182  0.2075  0.1812
 1031HK4    C2986534  10.932   1.670   0.568 -0.3373  0.2771  0.0130
 1031HK4    H1586535  11.039   1.686   0.577 -0.5819  0.6445  2.8188
 1031HK4    C2886536  10.878   1.614   0.453  0.2588 -0.6698  0.1855
 1031HK4    C2786537  10.743   1.573   0.463 -0.0013  0.0149 -0.4451
 1031HK4    H1486538  10.692   1.528   0.377 -0.7604  2.1260 -1.1457
 1031HK4    C3286539  10.670   1.601   0.577  0.1239 -0.1108 -0.3349
 1031HK4    H1686540  10.583   1.537   0.591 -1.1453  1.8740  1.1021
 1031HK4    C3186541  10.717   1.690   0.673 -0.0329 -0.2521 -0.1271
 1031HK4    C3486542  10.655   1.804   0.738  0.0099 -0.3724  0.1232
 1031HK4    C3386543  10.762   1.895   0.775 -0.0890 -0.2345  0.0621
 1031HK4    C3586544  10.725   2.021   0.821 -0.3290 -0.2165 -0.1811
 1031HK4    H1786545  10.798   2.087   0.868 -0.5793 -1.1140  1.4958
 1031HK4    C3686546  10.589   2.051   0.819 -0.0311  1.2055 -0.1096
 1031HK4    H1886547  10.561   2.152   0.851  0.6439  2.2380 -2.6132
 1031HK4    C3786548  10.484   1.966   0.786  0.5280  0.1724  0.7432
 1031HK4    H1986549  10.384   2.010   0.777  0.0421 -0.5727  2.2385
 1031HK4    C3886550  10.521   1.838   0.747  0.1658  0.2553  0.1240
 1031HK4    H2086551  10.459   1.774   0.684 -1.0735  0.2412  1.3406
 1031HK4    C1486552  10.948   1.636   0.325 -0.0436  0.5535  0.2178
 1031HK4     C986553  10.887   1.644   0.199 -0.1879 -0.0239  0.2495
 1031HK4     C886554  10.954   1.594   0.086  0.3836  0.2418  0.4677
 1031HK4    C1186555  11.084   1.547   0.105  0.2721 -0.0240  0.5641
 1031HK4     H486556  11.141   1.535   0.012 -1.2616  0.0351 -0.4107
 1031HK4    C1286557  11.149   1.542   0.227 -0.3551 -0.8516  0.8699
 1031HK4     H586558  11.245   1.490   0.239 -0.8457 -2.3280 -1.3657
 1031HK4    C1386559  11.082   1.593   0.338 -0.1250  0.3612  0.4582
 1031HK4     H686560  11.141   1.636   0.420  0.8378  1.4921 -0.8069
 1031HK4     C786561  10.904   1.620  11.197  0.4077  0.0939  0.4303
 1031HK4     O286562  10.951   1.552  11.106 -0.2810  0.5534 -0.2770
 1031HK4     C486563  10.781   1.703  11.189  0.1488 -0.3462 -0.2099
 1031HK4     C386564  10.729   1.752  11.070  0.5562 -0.4285 -0.4247
 1031HK4     H386565  10.794   1.752  10.981 -0.9240 -0.5284 -1.5281
 1031HK4     C286566  10.602   1.806  11.052  0.5316 -0.4750 -0.4082
 1031HK4     H286567  10.562   1.839  10.955 -2.2800  2.5959  1.6717
 1031HK4     C186568  10.516   1.804  11.162  0.3720 -0.0751 -0.5257
 1031HK4     H186569  10.417   1.850  11.165 -0.1232 -1.1704  0.2288
 1031HK4     C686570  10.554   1.741   0.034  0.2433 -0.6507 -0.7834
 1031HK4     C586571  10.690   1.709   0.048  0.2992 -0.1333 -0.0940
 1031HK4    C1086572  10.753   1.707   0.183 -0.2231 -0.1223  0.1528
 1031HK4     O186573  10.724   1.802   0.254  0.3430  0.3019 -0.1785
 1031HK4    C1686574  10.450   1.666   0.106  0.2039  0.5454  0.4339
 1031HK4    C1586575  10.458   1.597   0.229 -0.0861 -0.3940 -0.0725
 1031HK4     H786576  10.538   1.625   0.299  0.6546 -2.0585 -0.2110
 1031HK4    C2086577  10.359   1.513   0.280 -0.3608  0.0183  0.0688
 1031HK4     H986578  10.378   1.455   0.370  0.0967 -2.7796 -1.7668
 1031HK4    C1986579  10.241   1.492   0.210 -0.2318 -0.3596 -0.0360
 1031HK4    C1886580  10.235   1.551   0.078  0.1072 -0.0199  0.1002
 1031HK4    C1786581  10.331   1.642   0.038  0.0365  0.3581  0.7846
 1031HK4     H886582  10.297   1.713  11.210  0.5392 -0.5761 -0.3208
 1031HK4     N186583  10.108   1.521   0.025  0.2010 -0.1777 -0.0401
 1031HK4    C2186584  10.028   1.455   0.120 -0.0573  0.1474 -0.0332
 1031HK4    C2286585  10.116   1.421   0.230 -0.5161  0.2488  0.3617
 1031HK4    C2686586  10.068   1.343   0.335 -0.4705  0.0303  0.2177
 1031HK4    H1386587  10.139   1.295   0.402 -1.0651 -1.9230 -0.5169
 1031HK4    C2586588   9.935   1.302   0.334 -0.5766  0.3718  0.3502
 1031HK4    H1286589   9.890   1.270   0.428  0.5791  1.3018  1.2463
 1031HK4    C2486590   9.855   1.340   0.227  0.0055  0.2145 -0.1365
 1031HK4    H1186591   9.759   1.287   0.214 -0.1918  0.4414  0.4062
 1031HK4    C2386592   9.896   1.410   0.114  0.0895 -0.2579 -0.4030
 1031HK4    H1086593   9.832   1.441   0.032  0.9348  0.4647 -0.8021
 1031HK4    C3986594  10.088   1.514  11.134  0.6180  0.4603 -0.1326
 1031HK4    C4186595   9.961   1.539  11.078  0.1391 -0.9493  0.3055
 1031HK4    H2186596   9.894   1.613  11.124 -0.9885 -0.8585 -1.4461
 1031HK4    C4286597   9.928   1.479  10.957 -0.2097  0.1296 -0.1453
 1031HK4    H2286598   9.828   1.481  10.911 -0.0809 -1.0744 -0.4865
 1031HK4    C4386599  10.019   1.396  10.894 -0.0854 -0.1989  0.4538
 1031HK4    H2386600   9.992   1.350  10.798  1.2494  1.8684 -0.9492
 1031HK4    C4486601  10.143   1.373  10.952  0.1221 -0.2567 -0.0072
 1031HK4    H2486602  10.227   1.322  10.901  0.4979 -0.8456  1.1908
 1031HK4    C4586603  10.183   1.431  11.071 -0.0996 -0.6841  0.2771
 1031HK4    H2586604  10.280   1.403  11.114  1.0397  2.4916 -0.0253
 1032HK4    H2886605   6.522   7.633   2.200  1.2760 -1.6943 -1.0194
 1032HK4    C4886606   6.486   7.668   2.103  0.5425  0.1881 -0.1082
 1032HK4    C4786607   6.566   7.649   1.990  0.1259  0.7336 -0.4947
 1032HK4    H2786608   6.668   7.614   2.008 -1.0205 -1.6473  1.7443
 1032HK4    C4686609   6.508   7.646   1.864 -0.0523  0.3624 -0.4039
 1032HK4    H2686610   6.568   7.610   1.779 -0.7870  0.0548 -0.7958
 1032HK4    C4086611   6.369   7.657   1.840 -0.1711  0.3651  0.2842
 1032HK4    C5086612   6.290   7.679   1.955 -0.2817 -0.7116  0.4156
 1032HK4    H3086613   6.182   7.689   1.936 -0.1233 -1.9142 -1.2627
 1032HK4    C4986614   6.350   7.678   2.080  0.5373  0.4626  0.0350
 1032HK4    H2986615   6.279   7.689   2.163 -0.1847  1.1932 -0.6667
 1032HK4     N286616   6.324   7.688   1.712  0.4799 -0.2000 -0.0830
 1032HK4    C3086617   6.390   7.758   1.608 -0.1811  0.3019 -0.1697
 1032HK4    C2986618   6.508   7.831   1.615  0.2770 -0.4524  0.0722
 1032HK4    H1586619   6.560   7.845   1.710  1.2841 -1.0947 -0.3750
 1032HK4    C2886620   6.554   7.908   1.509  0.1243  0.2299  0.4930
 1032HK4    C2786621   6.470   7.935   1.399  0.6691 -0.3617 -0.0809
 1032HK4    H1486622   6.498   8.003   1.317 -1.9500  1.4392  0.4484
 1032HK4    C3286623   6.344   7.877   1.401  0.7319 -0.4989 -0.3263
 1032HK4    H1686624   6.270   7.913   1.330 -0.7222  0.5237  1.6861
 1032HK4    C3186625   6.306   7.779   1.492 -0.6105  0.4834  0.1743
 1032HK4    C3486626   6.184   7.706   1.521 -0.1692 -0.2315  0.2507
 1032HK4    C3386627   6.205   7.643   1.650  0.2515 -0.0662  0.2624
 1032HK4    C3586628   6.111   7.554   1.701  0.0274 -0.3760 -0.6796
 1032HK4    H1786629   6.142   7.492   1.785 -1.3710 -0.6431 -0.3561
 1032HK4    C3686630   5.992   7.533   1.632 -0.2384  0.1609 -0.3889
 1032HK4    H1886631   5.925   7.450   1.657 -0.4770 -0.1348 -1.9698
 1032HK4    C3786632   5.969   7.600   1.512 -0.1594 -0.3229 -0.6764
 1032HK4    H1986633   5.866   7.604   1.479  0.4785 -0.1347 -2.7407
 1032HK4    C3886634   6.064   7.684   1.454 -0.0336 -0.0282 -0.0591
 1032HK4    H2086635   6.051   7.736   1.359  2.0089  3.4337  1.4675
 1032HK4    C1486636   6.690   7.963   1.519  0.3476 -0.2482  0.1177
 1032HK4     C986637   6.739   8.080   1.461 -0.2650 -0.1369 -0.1852
 1032HK4     C886638   6.877   8.097   1.433 -0.3872 -0.0315 -0.7234
 1032HK4    C1186639   6.962   7.992   1.466 -0.7229 -0.0380  0.1479
 1032HK4     H486640   7.066   8.000   1.430 -0.6339 -0.4907  0.3065
 1032HK4    C1286641   6.923   7.882   1.540  0.3075 -0.3682  0.2112
 1032HK4     H586642   6.994   7.813   1.589  2.4896  0.8327 -1.1804
 1032HK4    C1386643   6.786   7.870   1.563  0.3534  0.0309  0.6970
 1032HK4     H686644   6.761   7.785   1.628  0.7932 -0.6286  0.0029
 1032HK4     C786645   6.925   8.234   1.403  0.1551 -0.1532 -0.4368
 1032HK4     O286646   7.045   8.251   1.388  0.1386  0.3002 -0.0408
 1032HK4     C486647   6.836   8.348   1.373 -0.0261 -0.2521 -0.2755
 1032HK4     C386648   6.884   8.476   1.349 -0.0046 -0.2512 -0.2231
 1032HK4     H386649   6.989   8.497   1.374  0.1625 -1.2481 -0.0817
 1032HK4     C286650   6.799   8.582   1.318  0.3400 -0.0692 -0.5625
 1032HK4     H286651   6.851   8.666   1.271 -2.9150  2.6465  0.4925
 1032HK4     C186652   6.662   8.562   1.326  0.3632 -0.1395 -0.3742
 1032HK4     H186653   6.599   8.647   1.358  0.1368 -0.6197  0.4986
 1032HK4     C686654   6.613   8.432   1.350  0.0344 -0.0251 -0.4115
 1032HK4     C586655   6.697   8.326   1.386 -0.0199  0.3533  0.8366
 1032HK4    C1086656   6.651   8.199   1.448 -0.2509 -0.1416 -0.3267
 1032HK4     O186657   6.578   8.215   1.547  0.0217 -0.2891 -0.1008
 1032HK4    C1686658   6.466   8.429   1.363  0.0872 -0.3619  0.1485
 1032HK4    C1586659   6.404   8.316   1.305 -0.0626 -0.0041 -0.3908
 1032HK4     H786660   6.457   8.258   1.227  0.0079 -0.0156 -0.3341
 1032HK4    C2086661   6.271   8.289   1.335 -0.0336 -0.0981 -0.3443
 1032HK4     H986662   6.236   8.188   1.313 -0.5039 -0.4734  1.9989
 1032HK4    C1986663   6.201   8.362   1.429  0.0088  0.1954 -0.5410
 1032HK4    C1886664   6.274   8.461   1.507 -0.1641  0.0457 -0.1949
 1032HK4    C1786665   6.401   8.497   1.465 -0.4644  0.4786 -0.7501
 1032HK4     H886666   6.444   8.591   1.501  0.3778 -0.4836  0.8230
 1032HK4     N186667   6.189   8.502   1.612  0.0112 -0.1238  0.0139
 1032HK4    C2186668   6.061   8.447   1.588  0.0253 -0.2488  0.2134
 1032HK4    C2286669   6.060   8.374   1.462  0.1252  0.2018 -0.0504
 1032HK4    C2686670   5.942   8.324   1.408 -0.0028 -0.3026  0.6873
 1032HK4    H1386671   5.938   8.279   1.309  0.9026  0.1540  0.4361
 1032HK4    C2586672   5.822   8.352   1.472 -0.0207 -0.1563  0.5877
 1032HK4    H1286673   5.733   8.323   1.416  0.7725 -1.6438  0.0849
 1032HK4    C2486674   5.823   8.411   1.598 -0.0618  0.3790  0.3432
 1032HK4    H1186675   5.730   8.404   1.657 -2.3337  1.4731 -2.9783
 1032HK4    C2386676   5.940   8.461   1.654  0.0879  0.1505  0.2413
 1032HK4    H1086677   5.935   8.522   1.744  1.2490 -1.1394  1.1956
 1032HK4    C3986678   6.236   8.538   1.738 -0.3199 -0.1976  0.1592
 1032HK4    C4186679   6.158   8.614   1.828  0.3020  0.1325  0.4255
 1032HK4    H2186680   6.086   8.689   1.792 -0.1202 -0.9329 -1.0049
 1032HK4    C4286681   6.170   8.617   1.966  0.2658  1.3229  0.4015
 1032HK4    H2286682   6.104   8.676   2.032  1.5516  1.4506  1.5829
 1032HK4    C4386683   6.269   8.542   2.027 -0.3114 -0.0840 -0.3598
 1032HK4    H2386684   6.290   8.574   2.129 -3.6519  1.0042  0.0535
 1032HK4    C4486685   6.350   8.465   1.944  0.0919  0.1103 -0.1497
 1032HK4    H2486686   6.421   8.393   1.987  0.0334 -0.4713 -1.0101
 1032HK4    C4586687   6.334   8.462   1.806  0.3212  0.3216 -0.1807
 1032HK4    H2586688   6.406   8.398   1.752  0.7779  0.8334 -0.1921
 1033HK4    H2886689   2.011   1.131   4.739  0.4219  0.0821  1.8908
 1033HK4    C4886690   1.940   1.079   4.803 -0.6952 -0.1435  0.4988
 1033HK4    C4786691   1.897   0.953   4.764  0.1257 -0.0839 -0.6199
 1033HK4    H2786692   1.910   0.913   4.662 -0.3837  0.1424 -0.7775
 1033HK4    C4686693   1.825   0.877   4.856 -0.2219  0.9912  0.0077
 1033HK4    H2686694   1.789   0.776   4.831  0.4238  0.1986  2.1795
 1033HK4    C4086695   1.799   0.911   4.990  0.3024  0.3167  0.2813
 1033HK4    C5086696   1.845   1.040   5.025  0.0409  0.3969  0.3313
 1033HK4    H3086697   1.814   1.089   5.118  0.9214 -1.1767  1.4718
 1033HK4    C4986698   1.913   1.120   4.933 -0.2355  0.6529  0.3491
 1033HK4    H2986699   1.925   1.224   4.967  0.2272  0.2192  1.5461
 1033HK4     N286700   1.705   0.844   5.069  0.0457  0.0707 -0.2295
 1033HK4    C3086701   1.607   0.753   5.025 -0.1089  0.0235  0.2107
 1033HK4    C2986702   1.547   0.735   4.901 -0.0479  0.8178  0.0631
 1033HK4    H1586703   1.541   0.826   4.842 -1.1164 -0.4804 -1.8880
 1033HK4    C2886704   1.447   0.641   4.881  0.3091  0.4101  0.1926
 1033HK4    C2786705   1.404   0.565   4.992  0.4013 -0.0411 -0.0796
 1033HK4    H1486706   1.332   0.483   4.975 -0.2969 -0.0064  2.5596
 1033HK4    C3286707   1.458   0.582   5.119 -0.2405 -0.3060  0.2305
 1033HK4    H1686708   1.410   0.541   5.208  1.2684 -3.8946 -0.5257
 1033HK4    C3186709   1.567   0.667   5.135 -0.2959 -0.1868 -0.0219
 1033HK4    C3486710   1.647   0.707   5.249  0.5346  0.2905 -0.7672
 1033HK4    C3386711   1.726   0.820   5.207  0.8225  0.2582 -0.3157
 1033HK4    C3586712   1.822   0.864   5.297  0.4762  0.3499  0.0070
 1033HK4    H1786713   1.892   0.943   5.267  1.8747  0.1639  2.5921
 1033HK4    C3686714   1.843   0.799   5.418 -0.2833 -0.0003 -0.0487
 1033HK4    H1886715   1.924   0.836   5.483  0.9412  0.2013 -1.6471
 1033HK4    C3786716   1.770   0.686   5.453 -0.2619 -0.1851 -0.5882
 1033HK4    H1986717   1.793   0.628   5.542 -0.5189 -0.0962 -0.4633
 1033HK4    C3886718   1.667   0.642   5.370 -0.3754  0.1996 -0.6559
 1033HK4    H2086719   1.618   0.550   5.402  2.1557 -1.0460 -0.1995
 1033HK4    C1486720   1.376   0.631   4.752  0.0374  0.2886  0.3500
 1033HK4     C986721   1.251   0.572   4.730 -0.1584  0.9375 -0.2750
 1033HK4     C886722   1.230   0.499   4.610 -0.2939 -0.2565  0.4666
 1033HK4    C1186723   1.323   0.504   4.507 -0.3284  0.0991  0.4525
 1033HK4     H486724   1.296   0.470   4.406  2.4625  0.3521 -0.4282
 1033HK4    C1286725   1.443   0.571   4.526 -0.3214  0.3449 -0.4152
 1033HK4     H586726   1.522   0.575   4.450 -0.5070  0.4552 -0.6017
 1033HK4    C1386727   1.469   0.638   4.646 -0.2919 -0.4340  0.0127
 1033HK4     H686728   1.558   0.701   4.655  0.0268 -0.5044 -2.2815
 1033HK4     C786729   1.135   0.386   4.614 -0.1890 -0.3477  0.3547
 1033HK4     O286730   1.084   0.356   4.506  0.2024 -0.1533  0.1156
 1033HK4     C486731   1.076   0.351   4.745 -0.2472 -0.3974  0.3158
 1033HK4     C386732   1.032   0.222   4.770 -0.1566 -0.6112 -0.6144
 1033HK4     H386733   1.056   0.144   4.696 -1.4968 -0.9180 -0.7301
 1033HK4     C286734   0.959   0.184   4.882 -0.2790  0.2398 -0.4000
 1033HK4     H286735   0.931   0.081   4.911 -1.5490  0.3733 -1.1507
 1033HK4     C186736   0.935   0.288   4.970 -0.0548 -0.1463  0.1196
 1033HK4     H186737   0.899   0.254   5.068 -3.3746 -4.2123 -2.3846
 1033HK4     C686738   0.967   0.424   4.949  0.6094 -0.2710  0.3087
 1033HK4     C586739   1.046   0.454   4.837  0.1750 -0.0435  0.0611
 1033HK4    C1086740   1.140   0.569   4.829 -0.1996  0.2354 -0.3341
 1033HK4     O186741   1.094   0.679   4.862  0.1326  0.2155  0.2120
 1033HK4    C1686742   0.904   0.520   5.040 -0.3072 -0.2270 -0.3625
 1033HK4    C1586743   0.890   0.497   5.178  0.3553  0.0385 -0.2443
 1033HK4     H786744   0.959   0.428   5.228  0.0911  0.4054  0.6438
 1033HK4    C2086745   0.809   0.574   5.262  0.2399  0.2071 -0.5085
 1033HK4     H986746   0.826   0.571   5.370 -0.6513 -0.7240 -0.3932
 1033HK4    C1986747   0.738   0.678   5.205  0.1596  0.3397 -0.1692
 1033HK4    C1886748   0.749   0.705   5.063 -0.3651  0.1835 -0.2405
 1033HK4    C1786749   0.835   0.628   4.985  0.0961  0.3002  0.1517
 1033HK4     H886750   0.852   0.665   4.884 -1.1362 -2.7237 -1.2230
 1033HK4     N186751   0.666   0.810   5.018  0.1096  0.4911 -0.4022
 1033HK4    C2186752   0.590   0.844   5.132  0.2809  0.1675 -0.1908
 1033HK4    C2286753   0.639   0.774   5.250 -0.1161  0.0275 -0.1090
 1033HK4    C2686754   0.559   0.783   5.363  0.1034  0.5145  0.0101
 1033HK4    H1386755   0.587   0.731   5.454  0.4499 -1.5720 -1.2624
 1033HK4    C2586756   0.438   0.852   5.357 -0.2496 -0.0950  0.1263
 1033HK4    H1286757   0.371   0.847   5.442  1.5737  0.6324  1.6256
 1033HK4    C2486758   0.393   0.919   5.243 -0.1340 -0.0275  0.1203
 1033HK4    H1186759   0.306   0.983   5.261  1.3945  1.6551  1.7321
 1033HK4    C2386760   0.471   0.916   5.128  0.2809  0.2041  0.3963
 1033HK4    H1086761   0.441   0.970   5.038 -0.5892 -0.6352  0.1814
 1033HK4    C3986762   0.705   0.904   4.922  0.1145  0.2898 -0.5950
 1033HK4    C4186763   0.607   0.967   4.842 -0.2296 -0.1077 -0.4899
 1033HK4    H2186764   0.512   0.918   4.818  0.1925 -0.4511 -1.4884
 1033HK4    C4286765   0.631   1.085   4.773 -0.0074  0.1940  0.0965
 1033HK4    H2286766   0.554   1.134   4.711  0.8547 -0.3639 -1.4330
 1033HK4    C4386767   0.756   1.145   4.778 -0.1521  0.5156 -0.1130
 1033HK4    H2386768   0.778   1.245   4.740  1.7780  0.8435  1.7502
 1033HK4    C4486769   0.860   1.079   4.842 -0.3036  0.3691 -0.0163
 1033HK4    H2486770   0.962   1.106   4.811 -0.8648  1.1199 -1.2661
 1033HK4    C4586771   0.830   0.969   4.922  0.2617  0.0090 -0.2935
 1033HK4    H2586772   0.893   0.968   5.012 -1.0611 -0.7085  0.6433
 1034HK4    H2886773  10.485   9.213   5.967 -1.1508  0.8900  1.4835
 1034HK4    C4886774  10.463   9.112   6.001  0.1613 -0.0558 -0.3879
 1034HK4    C4786775  10.364   9.044   5.932  0.1731  0.3979 -0.8502
 1034HK4    H2786776  10.320   9.087   5.840 -0.3520  0.1517 -0.7189
 1034HK4    C4686777  10.311   8.927   5.986  0.1877  0.6579 -0.2747
 1034HK4    H2686778  10.223   8.882   5.938  0.1783  1.8468 -1.3966
 1034HK4    C4086779  10.355   8.873   6.109 -0.6871  0.3004 -0.1141
 1034HK4    C5086780  10.462   8.939   6.173 -0.6411  0.3379 -0.2302
 1034HK4    H3086781  10.493   8.911   6.275  2.3001  0.3407 -1.0849
 1034HK4    C4986782  10.513   9.055   6.118 -0.4491  0.4164  0.1104
 1034HK4    H2986783  10.602   9.106   6.160  1.3917 -1.7165 -1.1212
 1034HK4     N286784  10.278   8.786   6.187 -0.1621  0.1599  0.2524
 1034HK4    C3086785  10.139   8.767   6.171 -0.0316 -0.3606 -0.2995
 1034HK4    C2986786  10.045   8.866   6.145  0.0915 -0.1837 -0.0818
 1034HK4    H1586787  10.076   8.966   6.114  0.0968 -0.2873 -0.4061
 1034HK4    C2886788   9.910   8.850   6.173  0.1213  0.0344  0.1948
 1034HK4    C2786789   9.867   8.730   6.233  0.1375 -0.1245 -0.1135
 1034HK4    H1486790   9.759   8.722   6.252 -0.0033  1.6629 -0.0764
 1034HK4    C3286791   9.960   8.629   6.256 -0.3205 -0.5127  0.0382
 1034HK4    H1686792   9.922   8.534   6.292 -0.2826  0.2486  2.1780
 1034HK4    C3186793  10.096   8.644   6.235 -0.3193  0.1668  0.5158
 1034HK4    C3486794  10.217   8.587   6.292  0.2063  0.2746 -0.4832
 1034HK4    C3386795  10.326   8.679   6.265  0.3770  0.2094 -0.0035
 1034HK4    C3586796  10.456   8.638   6.290  0.4216  0.3515  0.0041
 1034HK4    H1786797  10.538   8.708   6.307  0.9205 -0.5512  1.3850
 1034HK4    C3686798  10.465   8.505   6.329  0.1586  0.2920 -0.1380
 1034HK4    H1886799  10.564   8.459   6.318  0.2703  0.5510 -0.2459
 1034HK4    C3786800  10.363   8.417   6.362  0.0439  0.6878  0.5806
 1034HK4    H1986801  10.382   8.326   6.420 -0.8456  1.1713  1.6597
 1034HK4    C3886802  10.232   8.457   6.339  0.0850  0.3149 -0.3358
 1034HK4    H2086803  10.145   8.393   6.356  1.4479 -1.1078  1.3425
 1034HK4    C1486804   9.813   8.951   6.128  0.1296 -0.1951 -0.3417
 1034HK4     C986805   9.695   8.979   6.198  0.3711  0.1688 -0.0826
 1034HK4     C886806   9.590   9.043   6.128  0.1816  0.1813  0.2130
 1034HK4    C1186807   9.607   9.083   5.996  0.0987 -0.0911  0.1194
 1034HK4     H486808   9.529   9.138   5.942  0.1728 -0.0362  0.0718
 1034HK4    C1286809   9.728   9.071   5.929  0.2429  0.0775  0.3441
 1034HK4     H586810   9.743   9.106   5.826  0.8671  1.4172  0.8754
 1034HK4    C1386811   9.828   9.004   5.998  0.5739  0.0006 -0.2086
 1034HK4     H686812   9.929   9.018   5.957  0.3457 -0.0998 -0.8081
 1034HK4     C786813   9.463   9.074   6.197  0.1929  0.2308  0.2138
 1034HK4     O286814   9.376   9.135   6.134 -0.0594 -0.1453  0.2004
 1034HK4     C486815   9.437   9.040   6.339  0.0861 -0.3778  0.0490
 1034HK4     C386816   9.320   9.076   6.404  0.5462  0.2833  0.5296
 1034HK4     H386817   9.252   9.148   6.357 -0.0376 -0.1269  0.7243
 1034HK4     C286818   9.283   9.013   6.522 -0.5406  0.2897  0.1962
 1034HK4     H286819   9.189   9.045   6.571  0.2635  1.2248  1.1538
 1034HK4     C186820   9.368   8.915   6.572  0.0807  0.5064 -0.4400
 1034HK4     H186821   9.325   8.863   6.659 -1.2844  1.2261 -0.6688
 1034HK4     C686822   9.490   8.879   6.512  0.0765 -0.1339 -0.0804
 1034HK4     C586823   9.527   8.947   6.395  0.2619 -0.3101 -0.1234
 1034HK4    C1086824   9.664   8.939   6.338  0.2737  0.0357 -0.1445
 1034HK4     O186825   9.757   8.948   6.418 -0.0352  0.0950  0.2096
 1034HK4    C1686826   9.547   8.752   6.560 -0.6477 -0.1636  0.6955
 1034HK4    C1586827   9.464   8.640   6.580 -0.5861 -0.4571 -0.6121
 1034HK4     H786828   9.358   8.646   6.551 -0.6739  0.8490 -0.0460
 1034HK4    C2086829   9.503   8.535   6.663 -0.1504  0.0518 -0.1718
 1034HK4     H986830   9.439   8.448   6.670 -1.4202  0.8960 -1.0892
 1034HK4    C1986831   9.627   8.537   6.726 -0.1696 -0.4756 -0.1162
 1034HK4    C1886832   9.704   8.660   6.718 -0.5233 -0.2296  0.1990
 1034HK4    C1786833   9.663   8.764   6.635 -0.5663  0.0249  0.5386
 1034HK4     H886834   9.727   8.852   6.633  1.1097 -1.1792 -0.8963
 1034HK4     N186835   9.828   8.648   6.784 -0.2452 -0.0692 -0.2901
 1034HK4    C2186836   9.824   8.523   6.849  0.3514  0.3445  0.5426
 1034HK4    C2286837   9.702   8.452   6.816  0.6971  0.1139 -0.2754
 1034HK4    C2686838   9.680   8.323   6.864 -0.2588  0.3799  0.0165
 1034HK4    H1386839   9.581   8.282   6.841 -0.3059 -0.7699  2.1765
 1034HK4    C2586840   9.785   8.250   6.918 -0.1871  0.4344 -0.0543
 1034HK4    H1286841   9.771   8.148   6.954  1.0967 -0.3467 -1.7145
 1034HK4    C2486842   9.908   8.312   6.939  0.0587  0.0458 -0.3344
 1034HK4    H1186843   9.995   8.255   6.976  1.7314  0.4367 -3.4756
 1034HK4    C2386844   9.922   8.447   6.913  0.4463  0.0882  0.0930
 1034HK4    H1086845  10.001   8.503   6.963 -0.0131 -0.1449  1.0953
 1034HK4    C3986846   9.942   8.718   6.744 -0.1356  0.2567  0.5944
 1034HK4    C4186847  10.049   8.715   6.837 -0.0606  0.1312  0.5045
 1034HK4    H2186848  10.029   8.708   6.945  0.3173 -0.3265  0.5440
 1034HK4    C4286849  10.182   8.719   6.797 -0.0659 -0.3948  0.4386
 1034HK4    H2286850  10.263   8.707   6.871  1.0954 -0.5984 -0.8451
 1034HK4    C4386851  10.213   8.728   6.662 -0.7852  0.5743  0.3354
 1034HK4    H2386852  10.318   8.722   6.633 -0.8010 -3.0759  0.9272
 1034HK4    C4486853  10.113   8.734   6.566 -0.2712 -0.3659 -0.2676
 1034HK4    H2486854  10.147   8.762   6.466  0.4395  1.1601  0.3848
 1034HK4    C4586855   9.980   8.728   6.609 -0.0064 -0.0626  0.6051
 1034HK4    H2586856   9.903   8.748   6.533  0.9579  0.4623 -0.2434
 1035HK4    H2886857   0.493   5.157  10.555  2.1416  3.5050  0.5274
 1035HK4    C4886858   0.400   5.210  10.531  0.3191  0.2286  0.1150
 1035HK4    C4786859   0.375   5.334  10.588  0.2554  0.3926 -0.2693
 1035HK4    H2786860   0.447   5.409  10.624  0.3967 -1.0298  2.5537
 1035HK4    C4686861   0.249   5.391  10.573  0.0533  0.2161  0.7299
 1035HK4    H2686862   0.235   5.495  10.605 -1.1419  0.1673  0.3875
 1035HK4    C4086863   0.141   5.330  10.506  0.3271  0.2281  0.2797
 1035HK4    C5086864   0.172   5.208  10.443  0.3301  0.7112 -0.6678
 1035HK4    H3086865   0.098   5.165  10.375 -0.8397  2.9160 -0.8392
 1035HK4    C4986866   0.298   5.150  10.459  0.1652  0.5490  0.0678
 1035HK4    H2986867   0.311   5.049  10.418  1.1592  1.4690 -1.9675
 1035HK4     N286868   0.009   5.356  10.546 -0.0472 -0.4709 -0.4726
 1035HK4    C3086869  11.221   5.420  10.667  0.4074 -0.2857 -0.4355
 1035HK4    C2986870   0.029   5.415  10.794  0.3861  0.7667 -0.3746
 1035HK4    H1586871   0.102   5.339  10.820  0.2822  0.2028 -1.7112
 1035HK4    C2886872  11.231   5.496  10.897 -0.1764 -0.0328  0.0017
 1035HK4    C2786873  11.124   5.584  10.873 -0.4190 -0.2190  0.3806
 1035HK4    H1486874  11.099   5.669  10.938  0.6981  0.6299 -0.2790
 1035HK4    C3286875  11.056   5.585  10.751  0.2059  0.0288  0.0300
 1035HK4    H1686876  10.966   5.645  10.739  0.3132  0.5903  1.8407
 1035HK4    C3186877  11.105   5.505  10.649  0.4476 -0.0821  0.2321
 1035HK4    C3486878  11.074   5.491  10.508 -0.1409  0.2322  0.3275
 1035HK4    C3386879  11.157   5.386  10.452 -0.1638  0.4276 -0.0730
 1035HK4    C3586880  11.119   5.331  10.330  0.0425 -0.0101  0.0537
 1035HK4    H1786881  11.169   5.241  10.293 -2.6831 -1.3240 -0.5214
 1035HK4    C3686882  11.012   5.376  10.253 -0.1125 -0.3102  0.0978
 1035HK4    H1886883  11.002   5.338  10.151  1.1971  2.4276 -1.1165
 1035HK4    C3786884  10.943   5.484  10.308  0.8165  0.5611 -0.4278
 1035HK4    H1986885  10.862   5.532  10.253  0.5825 -0.7999 -1.3134
 1035HK4    C3886886  10.968   5.540  10.432 -0.2474 -0.2426  0.1629
 1035HK4    H2086887  10.895   5.611  10.471  0.0624 -0.7151  1.6320
 1035HK4    C1486888   0.019   5.468  11.037  0.0018  0.2034  0.0005
 1035HK4     C986889  11.198   5.523  11.145 -0.4812  0.0062 -0.2076
 1035HK4     C886890   0.019   5.572   0.010 -0.3710 -0.0620 -0.2464
 1035HK4    C1186891   0.157   5.562   0.019 -0.4455 -0.3139  0.6139
 1035HK4     H486892   0.220   5.639   0.066 -0.2472 -0.2268  0.2069
 1035HK4    C1286893   0.225   5.485  11.172 -0.1430  0.2648  0.3576
 1035HK4     H586894   0.331   5.463  11.191  0.4058 -0.5080 -3.2998
 1035HK4    C1386895   0.155   5.441  11.061  0.0015  0.3911  0.2180
 1035HK4     H686896   0.214   5.388  10.984 -2.8641 -0.8880 -1.1717
 1035HK4     C786897  11.190   5.640   0.116  0.3671 -0.3729  0.4879
 1035HK4     O286898   0.002   5.717   0.192  0.7707 -0.2657  0.0640
 1035HK4     C486899  11.043   5.632   0.112  0.3837 -0.4056 -0.0745
 1035HK4     C386900  10.965   5.690   0.212 -0.0097 -0.5183 -0.3144
 1035HK4     H386901  11.008   5.706   0.312  0.4738  1.9726 -0.9008
 1035HK4     C286902  10.836   5.736   0.189  0.0004 -0.3579 -0.0584
 1035HK4     H286903  10.779   5.792   0.264 -0.0443 -1.7727  0.9617
 1035HK4     C186904  10.769   5.703   0.071 -0.1978 -0.6084  0.1268
 1035HK4     H186905  10.662   5.727   0.063  0.2881  0.5903 -3.3172
 1035HK4     C686906  10.841   5.639  11.216 -0.2564  0.2064 -0.4170
 1035HK4     C586907  10.972   5.599  11.242 -0.1622  0.7267 -0.0698
 1035HK4    C1086908  11.049   5.514  11.147 -0.4754 -0.0415  0.3576
 1035HK4     O186909  11.001   5.404  11.122 -0.2404  0.0759 -0.6528
 1035HK4    C1686910  10.789   5.657  11.079 -0.6180  0.6308 -0.2297
 1035HK4    C1586911  10.765   5.787  11.031 -0.3690  0.6972 -0.1832
 1035HK4     H786912  10.784   5.875  11.095 -2.8568  0.5204  0.8692
 1035HK4    C2086913  10.718   5.821  10.905  0.2835  0.2265 -0.5483
 1035HK4     H986914  10.695   5.922  10.871 -1.1057 -0.4076 -1.5211
 1035HK4    C1986915  10.694   5.712  10.822  0.0248 -0.3103  0.2287
 1035HK4    C1886916  10.716   5.575  10.865 -0.1155 -0.3285  0.2386
 1035HK4    C1786917  10.765   5.551  10.993  0.0095  0.0782  0.2710
 1035HK4     H886918  10.784   5.449  11.028 -0.4646  0.7273  2.5005
 1035HK4     N186919  10.686   5.483  10.763 -0.0215 -0.0135 -0.0725
 1035HK4    C2186920  10.662   5.561  10.648 -0.0588 -0.0887 -0.1157
 1035HK4    C2286921  10.663   5.702  10.681  1.0518 -0.1136 -0.0200
 1035HK4    C2686922  10.656   5.801  10.583  0.6198  0.2328  0.3592
 1035HK4    H1386923  10.643   5.906  10.610 -0.5449  0.1297  0.2126
 1035HK4    C2586924  10.649   5.756  10.452  0.5274  0.2458  0.3596
 1035HK4    H1286925  10.630   5.827  10.371  2.5429  0.7337  0.2901
 1035HK4    C2486926  10.640   5.622  10.419 -0.1767  0.4695 -0.3792
 1035HK4    H1186927  10.646   5.586  10.315 -0.4325  0.3241 -0.3467
 1035HK4    C2386928  10.644   5.521  10.516  0.4076  0.5109 -0.3592
 1035HK4    H1086929  10.643   5.417  10.484 -1.7872  0.9381 -1.7869
 1035HK4    C3986930  10.727   5.349  10.766 -0.2884 -0.0868  0.2215
 1035HK4    C4186931  10.660   5.257  10.683  0.0307 -0.1596  0.0483
 1035HK4    H2186932  10.553   5.268  10.662  0.0632  0.0607 -0.0029
 1035HK4    C4286933  10.717   5.135  10.649  0.2034 -0.2723  0.7234
 1035HK4    H2286934  10.660   5.061  10.589 -0.8206  0.5887  0.6227
 1035HK4    C4386935  10.849   5.108  10.681  0.4204  0.1631  0.2010
 1035HK4    H2386936  10.912   5.034  10.631  2.8539  2.8429 -0.8726
 1035HK4    C4486937  10.920   5.196  10.762  0.3072  0.5822 -0.1583
 1035HK4    H2486938  11.022   5.165  10.791 -0.5319 -0.6756  1.5179
 1035HK4    C4586939  10.857   5.311  10.806  0.0309  0.4693 -0.2604
 1035HK4    H2586940  10.928   5.381  10.853  0.3728  1.0784 -1.6864
 1036HK4    H2886941   6.817   3.724  10.619 -1.4460 -0.4683 -0.7493
 1036HK4    C4886942   6.830   3.827  10.585  0.3029 -0.3784  0.1119
 1036HK4    C4786943   6.892   3.852  10.463 -0.1983 -0.2368 -0.1182
 1036HK4    H2786944   6.904   3.770  10.390 -1.6017 -0.3583 -0.2299
 1036HK4    C4686945   6.904   3.981  10.412  0.6953 -0.0860  0.4605
 1036HK4    H2686946   6.974   3.984  10.327 -0.7916 -2.1937 -0.9072
 1036HK4    C4086947   6.849   4.091  10.480 -0.5665 -0.4090 -0.0089
 1036HK4    C5086948   6.779   4.059  10.598 -0.2408 -0.2236  0.2407
 1036HK4    H3086949   6.705   4.129  10.641  0.0099 -1.4185  2.7034
 1036HK4    C4986950   6.769   3.932  10.653 -0.2605 -0.4473 -0.2839
 1036HK4    H2986951   6.700   3.913  10.737  1.1845  1.4149  1.3623
 1036HK4     N286952   6.829   4.216  10.421  0.3684 -0.1803  0.1409
 1036HK4    C3086953   6.816   4.234  10.281  0.3844 -0.2365  0.1307
 1036HK4    C2986954   6.748   4.150  10.194  0.4115  0.2043 -0.3171
 1036HK4    H1586955   6.711   4.054  10.233  1.0087 -0.0224 -0.3178
 1036HK4    C2886956   6.711   4.194  10.068 -0.3449  0.1944 -0.1040
 1036HK4    C2786957   6.754   4.324  10.036  0.1410  0.1478  0.3661
 1036HK4    H1486958   6.716   4.375   9.946 -0.7774  0.0079  0.6685
 1036HK4    C3286959   6.834   4.408  10.113  0.2854  0.4389 -0.1018
 1036HK4    H1686960   6.861   4.508  10.078  0.5892  0.6546  0.7318
 1036HK4    C3186961   6.858   4.367  10.244  0.2073 -0.3063 -0.3172
 1036HK4    C3486962   6.908   4.431  10.364 -0.3004 -0.2857 -0.1137
 1036HK4    C3386963   6.875   4.340  10.471 -0.2375  0.0341  0.1762
 1036HK4    C3586964   6.902   4.384  10.600  0.2902  0.4766 -0.0844
 1036HK4    H1786965   6.907   4.304  10.674 -0.0069 -0.2104 -0.8023
 1036HK4    C3686966   6.952   4.511  10.627  1.0844  0.0768  0.3597
 1036HK4    H1886967   6.963   4.538  10.733 -0.2366  2.4716 -0.0927
 1036HK4    C3786968   6.986   4.596  10.523 -0.3125  0.0151 -0.1639
 1036HK4    H1986969   7.030   4.694  10.543 -0.2091  0.2484 -1.4729
 1036HK4    C3886970   6.967   4.554  10.392 -0.4785 -0.2104 -0.0673
 1036HK4    H2086971   7.013   4.602  10.306  0.3418  0.7408  0.8792
 1036HK4    C1486972   6.656   4.105   9.964  0.4178 -0.2208 -0.1530
 1036HK4     C986973   6.658   4.119   9.825 -0.1105 -0.1845 -0.1600
 1036HK4     C886974   6.544   4.087   9.748 -0.1641 -0.0923 -0.1160
 1036HK4    C1186975   6.440   4.015   9.806 -0.1892  0.2137  0.2296
 1036HK4     H486976   6.348   3.995   9.748 -0.6747  1.1446  0.6857
 1036HK4    C1286977   6.447   3.977   9.939  0.1500  0.2976  0.2345
 1036HK4     H586978   6.388   3.891   9.975  0.0189  0.4766  0.4512
 1036HK4    C1386979   6.552   4.025  10.017  0.1797  0.3094  0.1875
 1036HK4     H686980   6.558   4.009  10.125 -0.6179 -1.4443 -0.0051
 1036HK4     C786981   6.531   4.112   9.603 -0.1376 -0.0725 -0.1148
 1036HK4     O286982   6.420   4.116   9.549 -0.0382  0.1644 -0.3031
 1036HK4     C486983   6.658   4.143   9.535  0.0234  0.3848  0.3968
 1036HK4     C386984   6.653   4.164   9.398 -0.4997  0.2174  0.3881
 1036HK4     H386985   6.560   4.163   9.338 -1.0126 -0.3771  1.1753
 1036HK4     C286986   6.767   4.190   9.324 -0.3436  0.8293  0.8504
 1036HK4     H286987   6.750   4.170   9.217  0.4803 -0.0525  0.8797
 1036HK4     C186988   6.895   4.183   9.378  0.1717  0.1169 -0.4203
 1036HK4     H186989   6.984   4.218   9.325  1.0509 -0.8960  0.3558
 1036HK4     C686990   6.898   4.147   9.515 -0.0550 -0.1441 -0.4798
 1036HK4     C586991   6.785   4.139   9.597  0.2398 -0.1913 -0.0781
 1036HK4    C1086992   6.782   4.139   9.746  0.0339 -0.7790 -0.0823
 1036HK4     O186993   6.878   4.193   9.800 -0.2135 -0.5432  0.1172
 1036HK4    C1686994   7.029   4.104   9.567 -0.0668 -0.0173 -0.3477
 1036HK4    C1586995   7.154   4.147   9.519 -0.1616  0.3667 -0.2459
 1036HK4     H786996   7.159   4.227   9.443 -2.5314  1.5560  0.7588
 1036HK4    C2086997   7.280   4.110   9.564 -0.3860 -0.4020 -0.2429
 1036HK4     H986998   7.358   4.183   9.545  0.5365 -1.7577 -1.7359
 1036HK4    C1986999   7.288   4.012   9.662  0.0591 -0.2717 -0.1507
 1036HK4    C1887000   7.165   3.962   9.720  0.0607 -0.4130 -0.2736
 1036HK4    C1787001   7.045   4.005   9.664  0.2474  0.1136 -0.2683
 1036HK4     H887002   6.973   3.924   9.660  2.4759 -1.9090 -0.1595
 1036HK4     N187003   7.189   3.858   9.811  0.1106  0.1162  0.3206
 1036HK4    C2187004   7.330   3.842   9.812  0.0850 -0.1138  0.3501
 1036HK4    C2287005   7.395   3.930   9.717 -0.0449 -0.1595  0.2195
 1036HK4    C2687006   7.533   3.947   9.718 -0.1082  0.3920  0.2007
 1036HK4    H1387007   7.580   4.020   9.652  1.1286 -0.4843  0.0983
 1036HK4    C2587008   7.611   3.875   9.808 -0.4355 -0.5483 -0.2600
 1036HK4    H1287009   7.714   3.858   9.778 -0.1332  0.1698  0.3457
 1036HK4    C2487010   7.550   3.796   9.905  0.2238  0.1055  0.7078
 1036HK4    H1187011   7.601   3.713   9.955 -0.7522 -0.7956  0.2301
 1036HK4    C2387012   7.411   3.783   9.907  0.1781  0.5675  0.7011
 1036HK4    H1087013   7.377   3.699   9.967 -0.8362  0.1812 -0.4004
 1036HK4    C3987014   7.096   3.798   9.897 -0.1398 -0.2513 -0.2068
 1036HK4    C4187015   7.108   3.668   9.951 -0.0823  0.1074  0.6392
 1036HK4    H2187016   7.171   3.595   9.899 -0.8839  1.1457 -1.8803
 1036HK4    C4287017   7.036   3.629  10.064 -0.1602 -0.8454  0.2677
 1036HK4    H2287018   7.064   3.537  10.118  0.0404 -1.8404 -1.4963
 1036HK4    C4387019   6.938   3.712  10.118 -0.6311 -0.6628 -0.8418
 1036HK4    H2387020   6.868   3.680  10.196 -1.2219  1.4529 -0.4915
 1036HK4    C4487021   6.920   3.839  10.065  0.8039 -0.2039 -0.2551
 1036HK4    H2487022   6.832   3.901  10.085  1.1812  0.0683  0.5869
 1036HK4    C4587023   7.000   3.880   9.959 -0.6931 -0.0414 -1.3352
 1036HK4    H2587024   6.978   3.980   9.919  0.1022 -0.9003 -4.0101
 1037HK4    H2887025  10.502   0.054   8.149  0.2225 -0.6510  3.7300
 1037HK4    C4887026  10.503   0.162   8.163  0.4503 -0.1019 -0.0198
 1037HK4    C4787027  10.577   0.240   8.075 -0.7996  0.5377 -0.5166
 1037HK4    H2787028  10.631   0.190   7.993 -2.0318 -2.0008  0.1738
 1037HK4    C4687029  10.579   0.378   8.086  1.1445  0.4534  0.3379
 1037HK4    H2687030  10.600   0.437   7.996 -0.8019  0.7386  0.0544
 1037HK4    C4087031  10.523   0.438   8.201 -0.0863 -0.0038 -0.0155
 1037HK4    C5087032  10.465   0.354   8.298  0.5323 -0.4217 -0.0040
 1037HK4    H3087033  10.429   0.405   8.389  1.7068  0.7942 -0.2014
 1037HK4    C4987034  10.450   0.218   8.278  0.2430 -0.3952  0.0245
 1037HK4    H2987035  10.409   0.154   8.359 -1.7781  2.2214  1.1372
 1037HK4     N287036  10.548   0.573   8.228  0.2026  0.1282 -0.9176
 1037HK4    C3087037  10.462   0.681   8.259  0.0258 -0.2728 -0.0038
 1037HK4    C2987038  10.324   0.689   8.241  0.0063  0.2600  0.3730
 1037HK4    H1587039  10.268   0.607   8.197 -0.5358 -0.1286  1.7506
 1037HK4    C2887040  10.253   0.805   8.268 -0.0195  0.3349 -0.0224
 1037HK4    C2787041  10.328   0.918   8.306  0.3884  0.0376  0.0557
 1037HK4    H1487042  10.282   0.986   8.379  1.3572  0.8455 -0.0734
 1037HK4    C3287043  10.467   0.917   8.309  0.3803 -0.4017  0.3044
 1037HK4    H1687044  10.519   1.010   8.331 -1.4983  0.6961  0.1870
 1037HK4    C3187045  10.539   0.798   8.296  0.2046 -0.5181  0.4067
 1037HK4    C3487046  10.677   0.760   8.277  0.0753 -0.6375 -0.3239
 1037HK4    C3387047  10.681   0.620   8.239  0.4303 -0.7151 -0.0088
 1037HK4    C3587048  10.801   0.550   8.236  0.7928 -0.0661 -0.5429
 1037HK4    H1787049  10.800   0.445   8.210 -2.1688 -0.3374  0.4765
 1037HK4    C3687050  10.924   0.611   8.260  0.5768  0.1469  0.0401
 1037HK4    H1887051  11.014   0.551   8.244 -0.1289 -0.3727 -2.1906
 1037HK4    C3787052  10.925   0.747   8.291  0.5362  0.2597 -0.4493
 1037HK4    H1987053  11.016   0.802   8.315  0.1440  0.7871 -0.1695
 1037HK4    C3887054  10.803   0.812   8.304  0.0864 -0.5403 -0.5744
 1037HK4    H2087055  10.806   0.916   8.338 -0.3150 -1.1174  1.3090
 1037HK4    C1487056  10.114   0.813   8.220 -0.2080  0.1117  0.4745
 1037HK4     C987057  10.057   0.927   8.163 -0.2238 -0.0438  0.1748
 1037HK4     C887058   9.925   0.968   8.193 -0.2094  0.0128  0.1530
 1037HK4    C1187059   9.849   0.893   8.282 -0.3237  0.3714  0.3539
 1037HK4     H487060   9.760   0.938   8.330 -0.8967  1.4085 -1.6232
 1037HK4    C1287061   9.901   0.778   8.338 -0.3849  0.1170 -0.1151
 1037HK4     H587062   9.829   0.711   8.387 -2.0566  1.1694 -1.1334
 1037HK4    C1387063  10.030   0.737   8.304 -0.3489 -0.0377  0.1984
 1037HK4     H687064  10.063   0.635   8.325  2.5052  0.6614 -0.7090
 1037HK4     C787065   9.855   1.071   8.113  0.5852  0.4328 -0.0079
 1037HK4     O287066   9.732   1.069   8.107  0.5948 -0.2535 -0.0515
 1037HK4     C487067   9.938   1.142   8.013  0.4015  0.5839 -0.0535
 1037HK4     C387068   9.872   1.253   7.961  0.1050  0.3972 -0.0797
 1037HK4     H387069   9.785   1.288   8.017  0.5631  0.2417  0.7281
 1037HK4     C287070   9.936   1.337   7.871 -0.0880  0.5113 -0.1102
 1037HK4     H287071   9.889   1.420   7.814 -1.8978  0.7854  1.7165
 1037HK4     C187072  10.061   1.296   7.827  0.0389  0.3234  0.4245
 1037HK4     H187073  10.103   1.366   7.753 -0.6548 -0.3615 -0.6280
 1037HK4     C687074  10.134   1.186   7.875  0.0885  0.2902  0.2725
 1037HK4     C587075  10.066   1.106   7.967  0.1594 -0.2055 -0.1004
 1037HK4    C1087076  10.118   0.988   8.042 -0.0939 -0.1322  0.1946
 1037HK4     O187077  10.183   0.907   7.976 -0.2174 -0.5599  0.6006
 1037HK4    C1687078  10.281   1.196   7.872  0.0967 -0.0654 -1.0465
 1037HK4    C1587079  10.341   1.324   7.868  0.0385 -0.0085 -0.1765
 1037HK4     H787080  10.308   1.397   7.943 -1.8989 -1.1346  0.0850
 1037HK4    C2087081  10.465   1.352   7.812  0.2560 -0.2852  0.1628
 1037HK4     H987082  10.511   1.451   7.821  0.9690 -0.4205 -1.7077
 1037HK4    C1987083  10.530   1.248   7.746  0.5043 -0.2422  0.3341
 1037HK4    C1887084  10.477   1.114   7.757  0.3322 -0.1895  0.1723
 1037HK4    C1787085  10.357   1.091   7.822 -0.0051 -0.3892 -0.5170
 1037HK4     H887086  10.325   0.987   7.818  0.7472 -0.7493  2.0710
 1037HK4     N187087  10.558   1.019   7.691 -0.3109 -0.3750 -0.3513
 1037HK4    C2187088  10.665   1.092   7.637 -0.0229 -0.4786  0.0832
 1037HK4    C2287089  10.656   1.231   7.677  0.3499 -0.4592  0.1065
 1037HK4    C2687090  10.754   1.320   7.633  0.0024 -0.2571 -0.2646
 1037HK4    H1387091  10.739   1.423   7.665  2.8788  0.3996 -0.8577
 1037HK4    C2587092  10.869   1.281   7.565  0.0281  0.1309 -0.4480
 1037HK4    H1287093  10.941   1.358   7.536  2.5849 -1.4946  1.4286
 1037HK4    C2487094  10.886   1.146   7.538  0.1368  0.0443  0.0417
 1037HK4    H1187095  10.985   1.108   7.508 -0.4256 -0.8729 -0.6745
 1037HK4    C2387096  10.784   1.059   7.574 -0.2975  0.1997 -0.7980
 1037HK4    H1087097  10.802   0.956   7.542  2.2013 -0.2968  1.9773
 1037HK4    C3987098  10.564   0.883   7.724 -0.0857 -0.4361 -0.6438
 1037HK4    C4187099  10.605   0.792   7.625 -0.5416 -0.4642 -0.8072
 1037HK4    H2187100  10.571   0.801   7.521 -0.3103 -0.0239 -0.8481
 1037HK4    C4287101  10.687   0.682   7.650 -0.0691  0.1370  0.2950
 1037HK4    H2287102  10.720   0.606   7.578  1.5571  1.6910 -0.6296
 1037HK4    C4387103  10.723   0.660   7.783 -0.0640  0.0155  0.2740
 1037HK4    H2387104  10.811   0.596   7.792  0.0036  0.3253  2.0648
 1037HK4    C4487105  10.676   0.742   7.885  0.2588  0.3258  0.1777
 1037HK4    H2487106  10.715   0.726   7.986  2.0889 -0.9823 -0.7112
 1037HK4    C4587107  10.599   0.854   7.858  0.1853  0.0908 -0.6008
 1037HK4    H2587108  10.557   0.907   7.945  1.6716  0.3405 -0.0308
 1038HK4    H2887109   0.349   0.642   7.465  1.0683  0.1320 -1.9536
 1038HK4    C4887110   0.330   0.749   7.464 -0.1522 -0.0477 -0.2241
 1038HK4    C4787111   0.323   0.813   7.588 -0.3489  0.2862 -0.4084
 1038HK4    H2787112   0.376   0.777   7.677 -0.9340 -0.7704 -0.4764
 1038HK4    C4687113   0.256   0.934   7.590 -0.2362  0.3433 -0.0734
 1038HK4    H2687114   0.247   0.985   7.687  1.2227 -0.0565  0.2821
 1038HK4    C4087115   0.194   0.992   7.477  0.3222  0.4254 -0.3379
 1038HK4    C5087116   0.206   0.922   7.355  1.0834  0.1145 -0.0923
 1038HK4    H3087117   0.181   0.968   7.257  0.4710  1.5538  0.7246
 1038HK4    C4987118   0.275   0.802   7.348  0.0159 -0.4845 -0.5046
 1038HK4    H2987119   0.307   0.768   7.249  2.0113 -3.3946  1.0509
 1038HK4     N287120   0.158   1.127   7.480  0.1230  0.3728 -0.3496
 1038HK4    C3087121   0.057   1.195   7.408 -0.5642 -0.2980 -0.0202
 1038HK4    C2987122  11.207   1.148   7.322 -0.5060 -0.1565 -0.1624
 1038HK4    H1587123  11.223   1.042   7.302  1.7064  0.2647 -0.7750
 1038HK4    C2887124  11.105   1.226   7.268 -0.5164  0.3475  0.5899
 1038HK4    C2787125  11.099   1.360   7.311 -0.0144  0.6828 -0.3803
 1038HK4    H1487126  11.000   1.406   7.319 -0.5554 -0.2932 -1.2878
 1038HK4    C3287127  11.201   1.414   7.389  0.2304 -0.3025 -0.0104
 1038HK4    H1687128  11.202   1.522   7.401  0.1977 -0.4531  1.4865
 1038HK4    C3187129   0.057   1.336   7.439  0.0650 -0.3563  0.2544
 1038HK4    C3487130   0.174   1.360   7.521  0.3796  0.1572 -0.3350
 1038HK4    C3387131   0.224   1.228   7.553 -0.2679  0.0854  0.4069
 1038HK4    C3587132   0.336   1.230   7.635 -0.3600  0.2346  0.5288
 1038HK4    H1787133   0.384   1.133   7.650 -2.2240 -0.9552 -0.8555
 1038HK4    C3687134   0.402   1.344   7.680 -0.5575  0.4813  0.1949
 1038HK4    H1887135   0.491   1.328   7.743  0.2445  1.5805 -0.6439
 1038HK4    C3787136   0.346   1.466   7.646  0.2041  0.7613 -0.0425
 1038HK4    H1987137   0.405   1.558   7.654  0.7798  0.3290  0.7814
 1038HK4    C3887138   0.230   1.478   7.570  0.2245  0.1626 -0.1676
 1038HK4    H2087139   0.187   1.576   7.548 -0.7741 -0.0513  0.8088
 1038HK4    C1487140  11.032   1.176   7.151  0.3894  0.4896 -0.0368
 1038HK4     C987141  10.962   1.257   7.061 -0.1241  0.1104  0.0192
 1038HK4     C887142  10.839   1.218   7.004 -0.1690 -0.0498  0.2228
 1038HK4    C1187143  10.801   1.086   7.026 -0.4806 -0.0916 -0.5708
 1038HK4     H487144  10.717   1.044   6.969 -1.5461 -1.7366  2.1276
 1038HK4    C1287145  10.866   0.998   7.111 -0.3440  0.7316  0.1849
 1038HK4     H587146  10.832   0.894   7.123  0.3864  0.4070 -0.5263
 1038HK4    C1387147  10.986   1.044   7.165  0.0495  0.5547 -0.5366
 1038HK4     H687148  11.029   0.974   7.238  0.7883  0.2669 -1.2394
 1038HK4     C787149  10.762   1.313   6.920  0.2622  0.2183  0.1275
 1038HK4     O287150  10.701   1.261   6.827  0.3467 -0.0733  0.2351
 1038HK4     C487151  10.802   1.455   6.915 -0.0644  0.2983 -0.1773
 1038HK4     C387152  10.718   1.545   6.850  0.0257  0.1188 -0.5453
 1038HK4     H387153  10.614   1.517   6.826  0.1163 -0.2220 -0.5354
 1038HK4     C287154  10.763   1.673   6.819  0.3542  0.0998 -0.1424
 1038HK4     H287155  10.696   1.727   6.751 -2.0597 -0.5647  1.6505
 1038HK4     C187156  10.889   1.710   6.864  0.2267  0.2819  0.0670
 1038HK4     H187157  10.914   1.817   6.852 -2.0619  0.7921 -0.4542
 1038HK4     C687158  10.972   1.625   6.939 -0.4221  0.1863  0.6836
 1038HK4     C587159  10.930   1.493   6.959 -0.0599 -0.0226  0.0805
 1038HK4    C1087160  11.017   1.390   7.023 -0.0694  0.2182  0.4795
 1038HK4     O187161  11.134   1.393   6.984 -0.0302 -0.1792  0.5629
 1038HK4    C1687162  11.095   1.691   6.984  0.4145 -0.7236 -0.2351
 1038HK4    C1587163  11.144   1.668   7.114  0.5120 -0.1421 -0.1677
 1038HK4     H787164  11.075   1.619   7.184  0.7678 -0.5104 -0.1750
 1038HK4    C2087165   0.011   1.733   7.158  0.5695 -0.2045 -0.2179
 1038HK4     H987166   0.017   1.747   7.266 -2.3090  0.6392 -0.1265
 1038HK4    C1987167   0.092   1.803   7.070  0.4438  0.1182 -0.0741
 1038HK4    C1887168   0.060   1.792   6.929 -0.2729  0.3611  0.0689
 1038HK4    C1787169  11.180   1.754   6.893  0.1384 -0.5866 -0.3977
 1038HK4     H887170  11.148   1.756   6.789  0.1619  0.3039 -0.3899
 1038HK4     N187171   0.155   1.855   6.846 -0.4813  0.4641 -0.0918
 1038HK4    C2187172   0.248   1.911   6.936  0.0634  0.0158 -0.3710
 1038HK4    C2287173   0.210   1.887   7.074  0.5594 -0.0354 -0.2436
 1038HK4    C2687174   0.279   1.944   7.181 -0.1196 -0.2802  0.3221
 1038HK4    H1387175   0.241   1.922   7.281  1.6405 -0.3428  0.9939
 1038HK4    C2587176   0.397   2.014   7.166 -0.3251  0.0049  0.0488
 1038HK4    H1287177   0.449   2.057   7.252 -0.6998 -1.7321  1.1554
 1038HK4    C2487178   0.437   2.032   7.034  0.0123  0.7154  0.2430
 1038HK4    H1187179   0.538   2.073   7.019  1.1683 -1.9533  0.4850
 1038HK4    C2387180   0.371   1.974   6.926 -0.0776  0.4255  0.4561
 1038HK4    H1087181   0.430   1.961   6.835 -0.5599  0.4390  0.1363
 1038HK4    C3987182   0.193   1.821   6.715  0.2168  0.4147  0.1206
 1038HK4    C4187183   0.261   1.914   6.634  0.1577  0.2145 -0.1585
 1038HK4    H2187184   0.296   2.009   6.677 -1.3026  0.8133 -0.2590
 1038HK4    C4287185   0.305   1.893   6.504 -0.4611  0.1748 -0.3637
 1038HK4    H2287186   0.384   1.957   6.461  0.4915 -0.7922 -0.0914
 1038HK4    C4387187   0.259   1.776   6.445 -0.3415 -0.0851  0.0540
 1038HK4    H2387188   0.257   1.768   6.336  0.1058 -0.6209  0.0850
 1038HK4    C4487189   0.189   1.681   6.519 -0.0956 -0.2874  0.0251
 1038HK4    H2487190   0.144   1.596   6.465  0.3579 -0.2131 -0.4733
 1038HK4    C4587191   0.159   1.699   6.653  0.6523  0.2951  0.1176
 1038HK4    H2587192   0.119   1.609   6.703  1.5669  0.3378  0.9567
 1039HK4    H2887193   8.420   7.341   2.747  1.1294  0.3061  0.8650
 1039HK4    C4887194   8.369   7.431   2.784 -0.2893 -0.0253 -0.2155
 1039HK4    C4787195   8.336   7.538   2.703  0.1065  0.2547 -0.0061
 1039HK4    H2787196   8.350   7.529   2.594 -2.2247 -1.2145 -0.2209
 1039HK4    C4687197   8.281   7.654   2.758  0.0985  0.2169  0.0684
 1039HK4    H2687198   8.245   7.736   2.695  1.2571  0.6623 -0.0216
 1039HK4    C4087199   8.254   7.661   2.896  0.4988 -0.0693  0.1629
 1039HK4    C5087200   8.285   7.552   2.980  0.0924 -0.3127 -0.0013
 1039HK4    H3087201   8.283   7.567   3.089 -1.1692 -1.8511  0.2035
 1039HK4    C4987202   8.335   7.438   2.918  0.3538 -0.1777 -0.0402
 1039HK4    H2987203   8.335   7.346   2.979 -0.4180  0.1313  0.4455
 1039HK4     N287204   8.238   7.785   2.960 -0.2694 -0.1286  0.0914
 1039HK4    C3087205   8.292   7.907   2.914 -0.7597 -0.0419 -0.2525
 1039HK4    C2987206   8.386   7.934   2.816 -0.2878  0.1453  0.2506
 1039HK4    H1587207   8.436   7.853   2.763 -1.8157 -1.5411  1.3243
 1039HK4    C2887208   8.405   8.063   2.769 -0.2707  0.1720  0.3325
 1039HK4    C2787209   8.342   8.168   2.838 -0.5478  0.4902 -0.4008
 1039HK4    H1487210   8.346   8.270   2.796 -1.3694  1.4460  1.7126
 1039HK4    C3287211   8.272   8.152   2.958 -0.7607  0.0372 -0.5872
 1039HK4    H1687212   8.269   8.234   3.029  1.0512  1.1354 -1.7368
 1039HK4    C3187213   8.246   8.020   2.993 -0.5057  0.0709 -0.2685
 1039HK4    C3487214   8.166   7.963   3.099  0.3955 -0.2515  0.2422
 1039HK4    C3387215   8.164   7.820   3.074 -0.6241 -0.1742 -0.1244
 1039HK4    C3587216   8.071   7.738   3.137 -0.4841 -0.1106  0.1677
 1039HK4    H1787217   8.065   7.632   3.111  0.8536 -1.0345  3.3049
 1039HK4    C3687218   7.981   7.794   3.227 -0.3715 -0.1065  0.2771
 1039HK4    H1887219   7.918   7.725   3.285  1.2615 -2.5321 -0.7267
 1039HK4    C3787220   7.989   7.929   3.258 -0.0179 -0.1017  0.1747
 1039HK4    H1987221   7.934   7.976   3.340 -0.2663  0.7497 -0.4733
 1039HK4    C3887222   8.079   8.014   3.196  0.0390 -0.3185 -0.0414
 1039HK4    H2087223   8.102   8.116   3.227  0.0350 -0.5878  0.8550
 1039HK4    C1487224   8.528   8.090   2.693 -0.5216  0.4821  0.0344
 1039HK4     C987225   8.617   8.194   2.723 -0.6156  0.4765  0.3343
 1039HK4     C887226   8.684   8.262   2.619 -0.1982 -0.1824  0.1654
 1039HK4    C1187227   8.678   8.214   2.489 -0.1421 -0.3249  0.2147
 1039HK4     H487228   8.736   8.266   2.411  0.5435 -0.4218  0.6535
 1039HK4    C1287229   8.604   8.100   2.461  0.6078 -0.9239  0.6340
 1039HK4     H587230   8.585   8.067   2.358  0.8769 -2.2410  1.0072
 1039HK4    C1387231   8.530   8.039   2.562 -0.7215 -0.0210  0.2257
 1039HK4     H687232   8.461   7.955   2.542  1.0466 -1.8816  1.7450
 1039HK4     C787233   8.785   8.364   2.655 -0.3929  0.0532  0.0512
 1039HK4     O287234   8.823   8.446   2.571 -0.1878  0.2209  0.3073
 1039HK4     C487235   8.820   8.387   2.797  0.0400 -0.9137  0.1064
 1039HK4     C387236   8.934   8.461   2.829 -0.1858 -0.3892 -0.2719
 1039HK4     H387237   8.996   8.505   2.750  1.3802 -1.6528  0.2137
 1039HK4     C287238   8.954   8.498   2.961 -0.0704  0.2190 -0.4640
 1039HK4     H287239   9.038   8.567   2.983 -1.6382  1.8931  0.3986
 1039HK4     C187240   8.861   8.466   3.058  0.0184  0.0537 -0.4356
 1039HK4     H187241   8.898   8.476   3.161  1.6378  0.6743 -1.0712
 1039HK4     C687242   8.736   8.408   3.028  0.0050 -0.2671  0.2144
 1039HK4     C587243   8.727   8.356   2.898 -0.0086 -0.3265  0.2402
 1039HK4    C1087244   8.644   8.237   2.863 -0.2963 -0.2060  0.4854
 1039HK4     O187245   8.648   8.149   2.948 -0.5781 -1.1300 -0.4507
 1039HK4    C1687246   8.630   8.436   3.125 -0.0542  0.4334 -0.0529
 1039HK4    C1587247   8.505   8.375   3.101  0.1163  0.1272 -0.1462
 1039HK4     H787248   8.478   8.358   2.996  0.3018  0.2444 -0.2138
 1039HK4    C2087249   8.402   8.384   3.194  0.1353  0.0681 -0.1183
 1039HK4     H987250   8.305   8.342   3.169  0.6206  0.7674 -3.3543
 1039HK4    C1987251   8.415   8.457   3.312 -0.0759 -0.4429  0.2202
 1039HK4    C1887252   8.544   8.517   3.340  0.0423 -0.6893  0.2040
 1039HK4    C1787253   8.641   8.513   3.241 -0.0421  0.2339  0.0802
 1039HK4     H887254   8.726   8.581   3.248 -0.3557  0.6937 -0.5204
 1039HK4     N187255   8.542   8.576   3.468  0.1152  0.2662 -0.2311
 1039HK4    C2187256   8.412   8.556   3.522  0.2453 -0.0564 -0.0263
 1039HK4    C2287257   8.328   8.492   3.423  0.0884 -0.4135  0.3384
 1039HK4    C2687258   8.210   8.434   3.467 -0.1920  0.0609  0.2206
 1039HK4    H1387259   8.157   8.366   3.400 -1.9474  0.4970  1.1243
 1039HK4    C2587260   8.173   8.434   3.601  0.4057  0.0261  0.3852
 1039HK4    H1287261   8.098   8.364   3.634 -0.0721  2.0046  3.7351
 1039HK4    C2487262   8.251   8.502   3.695  0.0298  0.2506  0.5352
 1039HK4    H1187263   8.219   8.506   3.800 -1.5158  1.3016  0.0492
 1039HK4    C2387264   8.365   8.567   3.652 -0.1560  0.1080 -0.1846
 1039HK4    H1087265   8.382   8.661   3.706 -0.3020  0.9430 -1.5507
 1039HK4    C3987266   8.637   8.666   3.516 -0.1330  0.3428  0.1248
 1039HK4    C4187267   8.655   8.691   3.654  0.6884 -0.0736  0.0968
 1039HK4    H2187268   8.627   8.613   3.726  1.9748 -0.0931  0.5934
 1039HK4    C4287269   8.730   8.794   3.709  0.4859 -0.1508  0.5211
 1039HK4    H2287270   8.733   8.803   3.818  0.5743 -0.3074  0.5313
 1039HK4    C4387271   8.808   8.872   3.624  0.6881 -0.4415  0.4370
 1039HK4    H2387272   8.900   8.912   3.666 -0.2625  0.9968  1.2088
 1039HK4    C4487273   8.787   8.861   3.487  0.1386  0.5221  0.4361
 1039HK4    H2487274   8.838   8.930   3.418 -0.8244 -0.4701 -1.2935
 1039HK4    C4587275   8.708   8.759   3.436  0.2781  0.3748  0.5200
 1039HK4    H2587276   8.689   8.771   3.329 -0.5850 -0.9500  0.5008
 1040HK4    H2887277   9.001   2.890   5.636  1.4991 -0.2125  0.4725
 1040HK4    C4887278   8.958   2.799   5.594  0.0757  0.3021  0.8194
 1040HK4    C4787279   8.821   2.795   5.572  0.1495 -0.0754  0.4211
 1040HK4    H2787280   8.759   2.880   5.603 -0.2284 -0.6142  1.1701
 1040HK4    C4687281   8.765   2.688   5.502  0.1218 -0.1264  0.5209
 1040HK4    H2687282   8.656   2.675   5.497 -0.0200  1.5793 -1.7755
 1040HK4    C4087283   8.841   2.578   5.456  0.0099 -0.1002  0.2773
 1040HK4    C5087284   8.978   2.588   5.489  0.0853  0.4606 -0.1917
 1040HK4    H3087285   9.046   2.505   5.466  0.0414  0.5362 -0.5957
 1040HK4    C4987286   9.039   2.694   5.554 -0.1525  0.3551  0.2080
 1040HK4    H2987287   9.146   2.698   5.580 -0.0977  2.2549 -0.2818
 1040HK4     N287288   8.789   2.453   5.422 -0.1754  0.0395  0.0429
 1040HK4    C3087289   8.665   2.403   5.466  0.1304 -0.5997  0.1882
 1040HK4    C2987290   8.611   2.414   5.594  0.0998 -0.9783  0.2076
 1040HK4    H1587291   8.651   2.491   5.660 -1.0720  0.6924 -0.9847
 1040HK4    C2887292   8.509   2.333   5.642 -0.4866 -0.4468 -0.1358
 1040HK4    C2787293   8.465   2.227   5.559  0.0719 -0.4388 -0.4488
 1040HK4    H1487294   8.369   2.177   5.578 -0.0202 -0.4213 -0.8707
 1040HK4    C3287295   8.529   2.201   5.439 -0.0921 -0.1042 -0.6093
 1040HK4    H1687296   8.480   2.125   5.378 -0.4048  0.8923 -1.6233
 1040HK4    C3187297   8.630   2.284   5.391  0.2028 -0.2935 -0.3287
 1040HK4    C3487298   8.734   2.266   5.292  0.2483 -0.4759 -0.2438
 1040HK4    C3387299   8.832   2.370   5.316 -0.2217 -0.1256  0.1527
 1040HK4    C3587300   8.935   2.388   5.225 -0.0403 -0.6886  0.2470
 1040HK4    H1787301   9.015   2.461   5.240  0.6647 -1.4166  0.0269
 1040HK4    C3687302   8.942   2.315   5.108  0.5405  0.5224 -0.4914
 1040HK4    H1887303   9.019   2.340   5.034 -0.3517 -0.4797 -1.7912
 1040HK4    C3787304   8.846   2.215   5.088  0.2832  0.6308  0.1968
 1040HK4    H1987305   8.849   2.150   5.001  1.7178  0.6760  0.2008
 1040HK4    C3887306   8.742   2.189   5.176  0.2973 -0.6113 -0.1508
 1040HK4    H2087307   8.673   2.107   5.156 -0.8028  0.0934  0.6281
 1040HK4    C1487308   8.490   2.325   5.788  0.2365  0.0018 -0.0170
 1040HK4     C987309   8.470   2.207   5.860  0.4739  0.0953  0.2068
 1040HK4     C887310   8.397   2.200   5.980 -0.5682  0.0535 -0.4227
 1040HK4    C1187311   8.357   2.321   6.036  0.7487 -0.0269  0.7038
 1040HK4     H487312   8.306   2.322   6.133  0.6013  1.4637  0.6305
 1040HK4    C1287313   8.380   2.442   5.972 -0.2097 -0.2937 -0.1573
 1040HK4     H587314   8.335   2.534   6.013 -0.7187  0.2251 -1.8266
 1040HK4    C1387315   8.442   2.443   5.847  0.4054 -0.0107  0.1453
 1040HK4     H687316   8.471   2.536   5.796 -1.4454  2.1091  2.8290
 1040HK4     C787317   8.349   2.068   6.027 -0.7911  0.0902 -0.5434
 1040HK4     O287318   8.277   2.068   6.127  0.2468  0.1240  0.2144
 1040HK4     C487319   8.398   1.945   5.962  0.0058  0.2237 -0.2078
 1040HK4     C387320   8.330   1.827   5.988  0.0951  0.2674  0.2297
 1040HK4     H387321   8.246   1.813   6.058  0.8902 -0.6238  1.0190
 1040HK4     C287322   8.361   1.716   5.910 -0.4450  0.2660  0.0141
 1040HK4     H287323   8.342   1.618   5.957 -0.3431  0.2224 -0.0373
 1040HK4     C187324   8.439   1.722   5.795 -0.1100 -0.0052  0.2244
 1040HK4     H187325   8.451   1.632   5.734 -1.2068 -1.0669  1.5352
 1040HK4     C687326   8.505   1.842   5.762  0.1256 -0.1480  0.1750
 1040HK4     C587327   8.486   1.948   5.852  0.5650 -0.1120  0.2245
 1040HK4    C1087328   8.537   2.083   5.812 -0.2009 -0.0192 -0.4544
 1040HK4     O187329   8.656   2.097   5.782 -0.2432  0.3221 -0.4632
 1040HK4    C1687330   8.551   1.847   5.623 -0.4304 -0.0080 -0.0074
 1040HK4    C1587331   8.465   1.823   5.514 -0.0190  0.4825 -0.4497
 1040HK4     H787332   8.361   1.794   5.535  0.3735 -0.0591  0.8014
 1040HK4    C2087333   8.510   1.806   5.384  0.1044 -0.3936 -0.2963
 1040HK4     H987334   8.439   1.772   5.308 -1.7219  0.4789  0.9841
 1040HK4    C1987335   8.646   1.818   5.357  0.1720  0.4093  0.3655
 1040HK4    C1887336   8.739   1.848   5.464  0.4394 -0.3829  0.3635
 1040HK4    C1787337   8.685   1.868   5.591 -0.4504  0.0292 -0.0782
 1040HK4     H887338   8.755   1.878   5.674 -0.7468 -1.5710  0.3794
 1040HK4     N187339   8.869   1.877   5.418 -0.0001  0.1237 -0.5827
 1040HK4    C2187340   8.861   1.853   5.280 -0.1190  0.4774 -0.6383
 1040HK4    C2287341   8.726   1.823   5.237 -0.1836 -0.3133  0.0939
 1040HK4    C2687342   8.702   1.788   5.104 -0.5467 -0.1653  0.1181
 1040HK4    H1387343   8.606   1.754   5.066  0.9154 -1.5549 -2.4481
 1040HK4    C2587344   8.807   1.788   5.013 -0.6457 -0.4927  0.0030
 1040HK4    H1287345   8.793   1.776   4.906 -0.6705 -0.7091  0.0304
 1040HK4    C2487346   8.936   1.821   5.052 -0.8134  0.3423 -0.1374
 1040HK4    H1187347   9.019   1.819   4.979 -0.6072  2.7429  0.0100
 1040HK4    C2387348   8.962   1.854   5.185  0.1487  0.4658 -0.3544
 1040HK4    H1087349   9.066   1.872   5.213 -0.4118  0.3467  1.8181
 1040HK4    C3987350   8.942   1.978   5.483 -0.3728  0.4058 -0.6019
 1040HK4    C4187351   9.081   1.979   5.462 -0.3429  0.2598 -0.4388
 1040HK4    H2187352   9.132   1.886   5.433  0.7917 -0.1324  2.6746
 1040HK4    C4287353   9.163   2.087   5.492 -0.2574 -0.0011  0.2540
 1040HK4    H2287354   9.271   2.079   5.471  0.0569 -0.2055  1.8501
 1040HK4    C4387355   9.107   2.203   5.546  0.0570  0.0535  0.4671
 1040HK4    H2387356   9.167   2.292   5.561 -2.3871  1.4338  2.3905
 1040HK4    C4487357   8.970   2.206   5.571 -0.1235  0.9419 -0.5589
 1040HK4    H2487358   8.925   2.297   5.612 -2.0912 -0.5461  0.6716
 1040HK4    C4587359   8.891   2.096   5.539  0.3910  0.2772  0.3842
 1040HK4    H2587360   8.783   2.101   5.560 -0.0004  0.2500 -1.5564
 1041HK4    H2887361   7.634  10.337   4.049 -2.2465  0.5023  0.3922
 1041HK4    C4887362   7.638  10.409   3.967  0.2615 -0.1776 -0.1171
 1041HK4    C4787363   7.566  10.386   3.850 -0.5481 -0.1630  0.3717
 1041HK4    H2787364   7.498  10.299   3.849 -1.5746  0.6194  1.4307
 1041HK4    C4687365   7.563  10.481   3.749  0.1101 -0.3130  0.2057
 1041HK4    H2687366   7.499  10.460   3.663 -0.0231  0.7455  0.0377
 1041HK4    C4087367   7.632  10.604   3.750  0.0059 -0.2535 -0.0650
 1041HK4    C5087368   7.709  10.618   3.868  0.3143  0.2645 -0.3256
 1041HK4    H3087369   7.746  10.718   3.896  0.8077 -1.1925  4.6024
 1041HK4    C4987370   7.715  10.525   3.970 -0.4201  0.2842 -0.2644
 1041HK4    H2987371   7.775  10.546   4.060  3.0437  1.2175 -2.7043
 1041HK4     N287372   7.606  10.716   3.670  0.0551 -0.0721  0.1698
 1041HK4    C3087373   7.712  10.800   3.629 -0.0430 -0.0012  0.0654
 1041HK4    C2987374   7.850  10.789   3.638  0.0205  0.8524  0.2177
 1041HK4    H1587375   7.896  10.716   3.704  2.2331  1.3361 -0.7112
 1041HK4    C2887376   7.936  10.889   3.595  0.3098  0.5856  0.1779
 1041HK4    C2787377   7.877  11.008   3.546 -0.0612  0.0632 -0.6521
 1041HK4    H1487378   7.936  11.085   3.494  0.6099  1.7288  2.4740
 1041HK4    C3287379   7.740  11.018   3.527 -0.1493 -0.2018 -0.1752
 1041HK4    H1687380   7.695  11.112   3.493  2.9292  1.6622  0.6837
 1041HK4    C3187381   7.653  10.918   3.569 -0.1449 -0.3469 -0.5102
 1041HK4    C3487382   7.509  10.901   3.573 -0.1506 -0.0948  0.3927
 1041HK4    C3387383   7.483  10.769   3.628  0.0451 -0.3909 -0.2159
 1041HK4    C3587384   7.354  10.736   3.669 -0.0590 -0.1451 -0.3446
 1041HK4    H1787385   7.330  10.650   3.731  0.4105 -2.0918 -2.7867
 1041HK4    C3687386   7.250  10.823   3.638 -0.2411 -0.3360 -0.2702
 1041HK4    H1887387   7.146  10.804   3.667 -0.2595  1.2347  0.7472
 1041HK4    C3787388   7.279  10.947   3.582  0.1476 -0.6396 -0.7521
 1041HK4    H1987389   7.192  10.997   3.539  0.3601 -1.2535 -1.9270
 1041HK4    C3887390   7.406  10.992   3.551  0.0584 -0.0084 -0.1969
 1041HK4    H2087391   7.423  11.093   3.513  0.1068  0.9121  2.2355
 1041HK4    C1487392   8.080  10.880   3.626  0.1567 -0.5485  0.5569
 1041HK4     C987393   8.171  10.985   3.642 -0.0401 -0.3593  0.4081
 1041HK4     C887394   8.297  10.977   3.581 -0.0211  0.2219  0.3561
 1041HK4    C1187395   8.341  10.855   3.530 -0.1805  0.2349  0.1901
 1041HK4     H487396   8.415  10.857   3.448  1.1932 -0.1507  1.4018
 1041HK4    C1287397   8.262  10.741   3.536  0.0406  0.0367 -0.5684
 1041HK4     H587398   8.302  10.649   3.492  1.1562  0.7011 -0.9509
 1041HK4    C1387399   8.131  10.756   3.582  0.2309 -0.3621  0.1098
 1041HK4     H687400   8.065  10.669   3.568  0.5427 -0.3718 -1.3849
 1041HK4     C787401   8.392  11.090   3.593  0.4211 -0.1517  0.3360
 1041HK4     O287402   8.481  11.098   3.508 -0.3102  0.4903 -0.3679
 1041HK4     C487403   8.358  11.208   3.675  0.2539  0.0161  0.0220
 1041HK4     C387404   8.444   0.069   3.673  0.1276  0.1118 -0.1806
 1041HK4     H387405   8.473   0.102   3.572  3.4791  2.7834  1.5402
 1041HK4     C287406   8.444   0.158   3.780  0.2177  0.0365 -0.1184
 1041HK4     H287407   8.530   0.225   3.798  0.6081 -0.4488 -0.1512
 1041HK4     C187408   8.345   0.146   3.877  0.3171 -0.0885 -0.0313
 1041HK4     H187409   8.338   0.221   3.958  0.3623 -0.2519  0.1229
 1041HK4     C687410   8.260   0.034   3.881 -0.4333  0.4573 -0.4972
 1041HK4     C587411   8.262  11.189   3.776  0.0639  0.0722 -0.1435
 1041HK4    C1087412   8.155  11.089   3.748  0.1404 -0.1006  0.1802
 1041HK4     O187413   8.041  11.108   3.789  0.0002 -0.1591 -0.1757
 1041HK4    C1687414   8.174   0.020   3.999 -0.2590 -0.1751 -0.4412
 1041HK4    C1587415   8.127   0.133   4.070 -0.0530 -0.0377 -0.5254
 1041HK4     H787416   8.100   0.220   4.009  1.3894  1.3047  0.6840
 1041HK4    C2087417   8.100   0.131   4.206  0.3910 -0.2229 -0.4360
 1041HK4     H987418   8.098   0.225   4.261 -0.5001  1.4596 -3.2618
 1041HK4    C1987419   8.103   0.012   4.277 -0.3215 -0.0793 -0.1573
 1041HK4    C1887420   8.135  11.139   4.203  0.5751  0.2502 -0.3111
 1041HK4    C1787421   8.179  11.150   4.072  0.6063 -0.0704 -0.3264
 1041HK4     H887422   8.256  11.079   4.043  1.0672 -0.0243  0.7479
 1041HK4     N187423   8.115  11.022   4.279  0.5066  0.2864 -0.2751
 1041HK4    C2187424   8.078  11.066   4.408 -0.4121 -0.0051 -0.4325
 1041HK4    C2287425   8.080  11.211   4.412 -0.0422 -0.0226 -0.0906
 1041HK4    C2687426   8.091   0.029   4.534  0.5463 -0.3892  0.0588
 1041HK4    H1387427   8.108   0.136   4.525 -2.5855  0.1441  0.0403
 1041HK4    C2587428   8.107  11.201   4.650  0.2412 -0.2690  0.1778
 1041HK4    H1287429   8.152   0.008   4.733  1.6667 -0.3962 -0.5015
 1041HK4    C2487430   8.099  11.063   4.649 -0.7855 -0.2144  0.3755
 1041HK4    H1187431   8.087  11.012   4.747 -0.7879 -0.5453  0.2044
 1041HK4    C2387432   8.084  10.997   4.528  0.4057  0.5146 -0.1685
 1041HK4    H1087433   8.071  10.889   4.535  0.5178  0.5378  0.4235
 1041HK4    C3987434   8.118  10.888   4.239 -0.0981  0.2221 -0.1170
 1041HK4    C4187435   8.162  10.792   4.333  0.0632  0.0352 -0.3848
 1041HK4    H2187436   8.238  10.816   4.408 -0.5877  0.2155  0.2266
 1041HK4    C4287437   8.123  10.659   4.320  0.1496 -0.0047 -0.2286
 1041HK4    H2287438   8.128  10.588   4.404 -0.6410 -1.4857 -1.4046
 1041HK4    C4387439   8.055  10.618   4.206 -0.1354 -0.1476 -0.0097
 1041HK4    H2387440   7.996  10.527   4.198  0.7006 -0.7062  0.0741
 1041HK4    C4487441   8.031  10.709   4.104 -0.4809  0.0274  0.2244
 1041HK4    H2487442   7.968  10.672   4.022 -2.1491 -1.0595  1.9569
 1041HK4    C4587443   8.064  10.843   4.117 -0.4375  0.0283  0.1012
 1041HK4    H2587444   8.073  10.909   4.029  1.3375 -2.1020 -1.3799
 1042HK4    H2887445   7.577  10.264   9.997  0.2062  1.4857 -0.4923
 1042HK4    C4887446   7.534  10.228   9.904  0.1414 -0.2056  0.1726
 1042HK4    C4787447   7.575  10.294   9.788 -0.0656 -0.2545  0.0755
 1042HK4    H2787448   7.655  10.370   9.793 -0.3063  0.0670 -0.9396
 1042HK4    C4687449   7.523  10.255   9.665 -0.5013  0.3923  0.0553
 1042HK4    H2687450   7.580  10.281   9.575  1.3938  1.3002  1.4851
 1042HK4    C4087451   7.428  10.152   9.656 -0.5578  0.4296  0.2153
 1042HK4    C5087452   7.386  10.089   9.775 -0.2951 -0.2797 -0.0667
 1042HK4    H3087453   7.305  10.014   9.775 -1.7190  1.2288  0.0283
 1042HK4    C4987454   7.441  10.125   9.897 -0.0947  0.0308 -0.2507
 1042HK4    H2987455   7.414  10.063   9.984  0.4887  1.3683  0.9053
 1042HK4     N287456   7.359  10.127   9.536  0.4410 -0.0221 -0.2740
 1042HK4    C3087457   7.326  10.219   9.435  0.4116  0.1020 -0.1491
 1042HK4    C2987458   7.328  10.358   9.436 -0.5893  0.1193 -0.1549
 1042HK4    H1587459   7.328  10.396   9.538 -1.1972 -2.1477  0.7209
 1042HK4    C2887460   7.281  10.438   9.333 -0.1313 -0.1542 -0.5689
 1042HK4    C2787461   7.226  10.370   9.222  0.0276 -0.6118 -0.3725
 1042HK4    H1487462   7.202  10.431   9.133 -3.1055 -0.6809  0.3490
 1042HK4    C3287463   7.201  10.233   9.225  0.2555 -0.6489 -0.3100
 1042HK4    H1687464   7.159  10.168   9.149  0.9604 -1.4857  0.0044
 1042HK4    C3187465   7.253  10.155   9.328  0.1636 -0.1135  0.1501
 1042HK4    C3487466   7.246  10.014   9.364 -0.7456 -0.1578 -0.1603
 1042HK4    C3387467   7.319  10.001   9.489  0.0166  0.2215 -0.5599
 1042HK4    C3587468   7.337   9.871   9.536  0.4471  0.4231 -0.1688
 1042HK4    H1787469   7.366   9.858   9.641  0.8430  0.0848 -0.3181
 1042HK4    C3687470   7.302   9.758   9.464  1.0840  0.0652  0.0812
 1042HK4    H1887471   7.335   9.656   9.492  0.2644 -0.4878 -0.9315
 1042HK4    C3787472   7.235   9.774   9.344 -0.0664  0.3769  0.7593
 1042HK4    H1987473   7.230   9.689   9.277  1.0304  1.5634 -0.8684
 1042HK4    C3887474   7.200   9.901   9.299 -0.1759 -0.1333 -0.6054
 1042HK4    H2087475   7.123   9.918   9.223 -0.7474  0.0833  0.0115
 1042HK4    C1487476   7.269  10.582   9.361 -0.2740 -0.3084  0.1762
 1042HK4     C987477   7.170  10.672   9.319 -0.2436 -0.1332  0.4796
 1042HK4     C887478   7.211  10.806   9.303  0.5545 -0.4865 -0.5243
 1042HK4    C1187479   7.329  10.855   9.357  0.1559 -0.0767 -0.0270
 1042HK4     H487480   7.341  10.962   9.380  0.7058 -0.1700  0.1229
 1042HK4    C1287481   7.422  10.769   9.412 -0.3249 -0.3894  0.2966
 1042HK4     H587482   7.518  10.807   9.451  1.3577 -2.8305 -1.3350
 1042HK4    C1387483   7.387  10.634   9.417 -0.3224 -0.3891  0.3522
 1042HK4     H687484   7.455  10.568   9.472  1.1761  0.0089 -1.0087
 1042HK4     C787485   7.138  10.899   9.214  0.5174  0.0815  0.1046
 1042HK4     O287486   7.138  11.019   9.242  0.7300  0.0769  0.1208
 1042HK4     C487487   7.035  10.836   9.129  0.2698  0.1462  0.3489
 1042HK4     C387488   6.996  10.905   9.015 -0.3074 -0.3826  0.2268
 1042HK4     H387489   7.058  10.991   8.983 -1.7663  0.8864  0.7528
 1042HK4     C287490   6.883  10.865   8.944 -0.0884 -0.3400 -0.1530
 1042HK4     H287491   6.845  10.931   8.865 -2.3993 -1.3054  0.1015
 1042HK4     C187492   6.809  10.756   8.987 -0.0556 -0.1362  0.4302
 1042HK4     H187493   6.703  10.747   8.958 -0.0242  0.3323  0.1662
 1042HK4     C687494   6.853  10.683   9.099 -0.3035  0.0255  0.6357
 1042HK4     C587495   6.969  10.718   9.168  0.2222 -0.0191 -0.2193
 1042HK4    C1087496   7.036  10.630   9.268 -0.1407  0.0368  0.0762
 1042HK4     O187497   6.976  10.538   9.324  0.0507 -0.5683 -0.7013
 1042HK4    C1687498   6.774  10.559   9.109 -0.5254  0.1287  0.1737
 1042HK4    C1587499   6.731  10.485   8.997 -0.2520 -0.3096  0.3588
 1042HK4     H787500   6.761  10.518   8.896 -2.1740 -1.8090 -0.7338
 1042HK4    C2087501   6.628  10.392   9.000 -0.6969  0.1693  0.0374
 1042HK4     H987502   6.603  10.340   8.907 -0.2369  1.6330 -0.9262
 1042HK4    C1987503   6.553  10.375   9.115 -0.4201 -0.1318  0.1737
 1042HK4    C1887504   6.584  10.457   9.230 -0.7961  0.4226 -0.1208
 1042HK4    C1787505   6.695  10.541   9.222 -0.3449 -0.1307  0.2592
 1042HK4     H887506   6.734  10.593   9.309 -0.3939  0.3930 -0.0270
 1042HK4     N187507   6.505  10.413   9.338 -0.4020  0.0936  0.0383
 1042HK4    C2187508   6.415  10.314   9.293 -0.3433  0.0418  0.0358
 1042HK4    C2287509   6.447  10.284   9.155 -0.4812 -0.1189  0.0398
 1042HK4    C2687510   6.353  10.207   9.085 -0.1160 -0.2483 -0.3109
 1042HK4    H1387511   6.364  10.197   8.977  1.0587 -0.8471 -0.1495
 1042HK4    C2587512   6.233  10.162   9.138 -0.2759  0.2916 -0.2083
 1042HK4    H1287513   6.172  10.094   9.078  0.4020 -0.1948 -0.3521
 1042HK4    C2487514   6.207  10.194   9.270  0.3373 -0.6364  0.1490
 1042HK4    H1187515   6.102  10.177   9.299 -0.2479  1.2581 -0.7320
 1042HK4    C2387516   6.297  10.265   9.349 -0.1321 -0.1802  0.2856
 1042HK4    H1087517   6.295  10.248   9.456 -0.6608 -0.1671  0.2779
 1042HK4    C3987518   6.535  10.439   9.472  0.2419 -0.7989  0.0659
 1042HK4    C4187519   6.430  10.453   9.564  0.3871  0.4412  0.0437
 1042HK4    H2187520   6.333  10.491   9.527 -0.6286 -0.3745  1.7744
 1042HK4    C4287521   6.451  10.451   9.701 -0.0964 -0.5682  0.1072
 1042HK4    H2287522   6.370  10.455   9.776 -0.0684 -1.2810  0.1790
 1042HK4    C4387523   6.579  10.429   9.751 -0.0621  0.4014  0.4474
 1042HK4    H2387524   6.600  10.432   9.858  2.4240 -0.2540  0.0124
 1042HK4    C4487525   6.688  10.425   9.665 -0.3420 -0.0115  0.1109
 1042HK4    H2487526   6.786  10.412   9.714 -0.0151  3.3551  0.4544
 1042HK4    C4587527   6.664  10.430   9.528  0.3015 -0.4886 -0.0245
 1042HK4    H2587528   6.746  10.433   9.455 -0.2974  3.3981 -0.6243
 1043HK4    H2887529   6.699   9.320   2.910 -0.6318  0.5332  2.2682
 1043HK4    C4887530   6.699   9.427   2.888  0.5164  0.1025  0.0411
 1043HK4    C4787531   6.748   9.467   2.764  1.0638 -0.0758  0.1988
 1043HK4    H2787532   6.727   9.395   2.683 -1.3921  1.3967 -0.5399
 1043HK4    C4687533   6.801   9.593   2.742 -0.6199  0.5297 -0.4266
 1043HK4    H2687534   6.864   9.608   2.653 -0.8938  1.9728 -0.3888
 1043HK4    C4087535   6.804   9.683   2.850  0.8357 -0.0155 -0.0034
 1043HK4    C5087536   6.755   9.639   2.975 -0.2218 -0.5406 -0.6000
 1043HK4    H3087537   6.755   9.715   3.054 -0.2446 -0.7929 -0.3596
 1043HK4    C4987538   6.697   9.514   2.996  0.3349 -0.5993  0.6029
 1043HK4    H2987539   6.641   9.497   3.089  0.3053 -2.1885  0.2975
 1043HK4     N287540   6.835   9.817   2.825 -0.2200  0.1528 -0.4400
 1043HK4    C3087541   6.908   9.897   2.915  0.4187 -0.2362 -0.6073
 1043HK4    C2987542   6.998   9.863   3.015 -0.3161  0.2364  0.2230
 1043HK4    H1587543   6.999   9.757   3.042  1.4516 -0.1868 -1.4182
 1043HK4    C2887544   7.072   9.965   3.073  0.2735  0.1592 -0.4032
 1043HK4    C2787545   7.053  10.097   3.026  0.1980  0.4094  0.3242
 1043HK4    H1487546   7.111  10.181   3.066  1.2073 -0.4901  0.7695
 1043HK4    C3287547   6.972  10.133   2.919  0.1637 -0.0953  0.1745
 1043HK4    H1687548   6.974  10.228   2.865  1.8429 -0.5104 -0.5184
 1043HK4    C3187549   6.890  10.033   2.867  0.3426 -0.0800 -0.1382
 1043HK4    C3487550   6.799  10.039   2.755 -0.2093  0.2337  0.3258
 1043HK4    C3387551   6.759   9.900   2.739 -0.3448  0.3262 -0.1614
 1043HK4    C3587552   6.635   9.871   2.685 -0.3447 -0.3816  0.2173
 1043HK4    H1787553   6.603   9.767   2.696  0.1158 -0.5741 -0.2791
 1043HK4    C3687554   6.555   9.973   2.634  0.1523 -0.0604  0.0731
 1043HK4    H1887555   6.460   9.953   2.581 -0.0186  4.3537 -1.4566
 1043HK4    C3787556   6.593  10.106   2.645  0.0593 -0.0158 -0.1268
 1043HK4    H1987557   6.538  10.185   2.594  0.7720 -0.0799 -1.0060
 1043HK4    C3887558   6.713  10.137   2.708  0.0251  0.1985 -0.1725
 1043HK4    H2087559   6.744  10.240   2.724  0.1822 -0.2214  2.5031
 1043HK4    C1487560   7.113   9.939   3.211 -0.1071  0.3424 -0.2550
 1043HK4     C987561   7.113  10.032   3.316 -0.3582 -0.0718  0.1142
 1043HK4     C887562   7.219  10.033   3.409 -0.3456 -0.1376  0.1010
 1043HK4    C1187563   7.310   9.928   3.413 -0.0471  0.1066 -0.2022
 1043HK4     H487564   7.402   9.930   3.473 -0.2566 -1.8494  0.2340
 1043HK4    C1287565   7.299   9.824   3.321  0.2081 -0.0641 -0.0384
 1043HK4     H587566   7.360   9.733   3.335  0.6695  0.2322 -0.0981
 1043HK4    C1387567   7.205   9.832   3.218 -0.5463  0.0180  0.6465
 1043HK4     H687568   7.200   9.749   3.147 -0.7754 -1.3083  2.1679
 1043HK4     C787569   7.233  10.154   3.493 -0.2084  0.0107 -0.1368
 1043HK4     O287570   7.318  10.152   3.583 -0.3580  0.3545  0.0119
 1043HK4     C487571   7.146  10.271   3.468 -0.0543  0.0444 -0.5238
 1043HK4     C387572   7.167  10.391   3.535 -0.1392 -0.3986  0.2981
 1043HK4     H387573   7.249  10.393   3.608 -1.4616  0.2000  1.7994
 1043HK4     C287574   7.076  10.496   3.543 -0.2475 -0.5135  0.6028
 1043HK4     H287575   7.096  10.582   3.609 -2.7079 -0.6238  1.5452
 1043HK4     C187576   6.972  10.493   3.451 -0.0751 -0.4794  0.4035
 1043HK4     H187577   6.921  10.589   3.435 -1.5104 -1.1435  0.8833
 1043HK4     C687578   6.955  10.383   3.364  0.2629  0.1615 -0.4763
 1043HK4     C587579   7.034  10.268   3.383 -0.3059 -0.1863 -0.1817
 1043HK4    C1087580   7.005  10.134   3.326 -0.5573 -0.2869  0.1743
 1043HK4     O187581   6.888  10.096   3.330 -0.5158 -0.3625  0.6071
 1043HK4    C1687582   6.884  10.416   3.240  0.2218  0.0396 -0.4842
 1043HK4    C1587583   6.910  10.543   3.183  0.4963  0.1460 -0.1262
 1043HK4     H787584   6.997  10.603   3.214  0.0780  1.3999 -1.3508
 1043HK4    C2087585   6.845  10.594   3.071 -0.1996 -0.0828  0.1707
 1043HK4     H987586   6.856  10.699   3.047 -0.2487 -0.3073 -0.8595
 1043HK4    C1987587   6.744  10.518   3.014  0.3670 -0.3779 -0.4481
 1043HK4    C1887588   6.702  10.395   3.080  0.2349 -0.1933 -0.1896
 1043HK4    C1787589   6.776  10.347   3.187  0.3323 -0.2803 -0.2962
 1043HK4     H887590   6.731  10.272   3.251  3.6551  1.1328  3.9079
 1043HK4     N187591   6.587  10.340   3.020  0.1808 -0.0642 -0.2072
 1043HK4    C2187592   6.559  10.433   2.917  0.1915 -0.0497 -0.1970
 1043HK4    C2287593   6.652  10.544   2.905  0.5801 -0.4168 -0.6365
 1043HK4    C2687594   6.640  10.646   2.811 -0.3122  0.1086  0.0385
 1043HK4    H1387595   6.698  10.738   2.815 -0.7572  0.4218 -0.6141
 1043HK4    C2587596   6.542  10.623   2.715 -0.1109  0.0719 -0.1594
 1043HK4    H1287597   6.520  10.704   2.646  2.2537 -1.4915 -2.8454
 1043HK4    C2487598   6.465  10.508   2.707  0.3120 -0.2606  0.5311
 1043HK4    H1187599   6.427  10.472   2.610  3.8104  1.3371 -1.5437
 1043HK4    C2387600   6.467  10.419   2.814 -0.3516 -0.4988  0.3477
 1043HK4    H1087601   6.421  10.321   2.800  0.0910 -0.7739  0.8364
 1043HK4    C3987602   6.490  10.267   3.090 -0.0820  0.3706 -0.1133
 1043HK4    C4187603   6.415  10.182   3.005  0.3653 -0.1035 -0.0399
 1043HK4    H2187604   6.471  10.113   2.940 -3.2835 -1.6770 -1.5931
 1043HK4    C4287605   6.280  10.162   3.029  0.4556 -0.5727  0.0736
 1043HK4    H2287606   6.223  10.105   2.954  0.6513  1.5788 -1.7466
 1043HK4    C4387607   6.221  10.228   3.137  0.0925  0.6562 -0.8645
 1043HK4    H2387608   6.112  10.231   3.144  0.0364  0.6459 -1.6572
 1043HK4    C4487609   6.293  10.305   3.227  0.0339 -0.3925  0.0875
 1043HK4    H2487610   6.244  10.359   3.309  0.5595  0.0638  0.1027
 1043HK4    C4587611   6.430  10.319   3.206 -0.0084  0.0213  0.0800
 1043HK4    H2587612   6.505  10.352   3.280  0.5833 -0.1568 -0.4320
 1044HK4    H2887613   5.956   9.320   3.552 -0.7412 -0.0599 -1.2798
 1044HK4    C4887614   6.005   9.376   3.473 -0.3111  0.4827 -0.6326
 1044HK4    C4787615   6.063   9.498   3.508  0.1580  0.0245  0.2178
 1044HK4    H2787616   6.031   9.545   3.602  0.0127 -0.6207  0.4906
 1044HK4    C4687617   6.137   9.574   3.419 -0.4415  0.5034  0.1233
 1044HK4    H2687618   6.209   9.644   3.464 -0.5796  0.7472 -0.0344
 1044HK4    C4087619   6.152   9.531   3.285  0.5941  0.3082  0.2975
 1044HK4    C5087620   6.085   9.413   3.245  0.0620  0.8464 -0.3860
 1044HK4    H3087621   6.086   9.368   3.145 -0.9553 -0.8087  0.3314
 1044HK4    C4987622   6.017   9.338   3.340  0.6762  0.1905 -0.4664
 1044HK4    H2987623   5.962   9.248   3.309  0.2933  0.4941 -0.6699
 1044HK4     N287624   6.242   9.591   3.196  0.5845  0.1879  0.2057
 1044HK4    C3087625   6.363   9.646   3.240  0.7285  0.1110 -0.0988
 1044HK4    C2987626   6.446   9.612   3.346 -0.0368 -0.4048  0.3315
 1044HK4    H1587627   6.455   9.504   3.359  0.3898 -0.7371 -2.4379
 1044HK4    C2887628   6.550   9.693   3.388 -0.5223  0.1101  0.5437
 1044HK4    C2787629   6.577   9.806   3.308 -0.1473 -0.4364 -0.0982
 1044HK4    H1487630   6.664   9.868   3.333  0.0790  0.1255 -2.1649
 1044HK4    C3287631   6.505   9.837   3.194 -0.1360 -0.3948 -0.0939
 1044HK4    H1687632   6.529   9.926   3.135 -2.1504  1.1046  1.2682
 1044HK4    C3187633   6.398   9.757   3.153 -0.1850 -0.0404 -0.6663
 1044HK4    C3487634   6.311   9.751   3.037 -1.1258  0.4956  0.0066
 1044HK4    C3387635   6.209   9.654   3.074 -0.7878  0.3908  0.6667
 1044HK4    C3587636   6.116   9.613   2.980  0.1245 -0.4663  0.1382
 1044HK4    H1787637   6.032   9.554   3.016  0.2306 -0.3192  0.6372
 1044HK4    C3687638   6.121   9.658   2.849 -0.5082  0.1721  0.3338
 1044HK4    H1887639   6.034   9.652   2.781 -0.5623  0.4265  0.3808
 1044HK4    C3787640   6.218   9.751   2.815 -0.2163  0.0233  0.7662
 1044HK4    H1987641   6.230   9.772   2.709 -3.1170  0.6622  0.5306
 1044HK4    C3887642   6.314   9.795   2.906  0.7809 -0.1579 -0.1860
 1044HK4    H2087643   6.404   9.853   2.882  1.6180 -0.9064  1.1288
 1044HK4    C1487644   6.614   9.679   3.520  0.2469  0.3420  0.2025
 1044HK4     C987645   6.665   9.790   3.588 -0.4188  0.3689  0.6759
 1044HK4     C887646   6.797   9.778   3.637 -0.2775  0.0653  0.2246
 1044HK4    C1187647   6.858   9.653   3.638 -0.0953  0.1513 -0.0462
 1044HK4     H487648   6.948   9.638   3.700 -0.7384  0.1354  0.8915
 1044HK4    C1287649   6.805   9.538   3.582 -0.1326  0.0867  0.1256
 1044HK4     H587650   6.866   9.449   3.559 -1.7687 -1.1177  0.3163
 1044HK4    C1387651   6.678   9.554   3.528  0.1500  0.2468 -0.4988
 1044HK4     H687652   6.617   9.468   3.495  0.2156 -0.0419  0.1279
 1044HK4     C787653   6.875   9.901   3.664  0.3538 -0.3047  0.0944
 1044HK4     O287654   6.993   9.884   3.696  0.3195 -0.5184  0.1043
 1044HK4     C487655   6.801  10.029   3.663  0.0716 -0.4680 -0.1019
 1044HK4     C387656   6.881  10.141   3.689 -0.1418 -0.4915  0.6646
 1044HK4     H387657   6.990  10.133   3.694 -0.2289 -1.8138  0.6761
 1044HK4     C287658   6.819  10.261   3.720  0.1216 -0.2913  0.4208
 1044HK4     H287659   6.878  10.352   3.738 -1.6260  1.4033 -2.0365
 1044HK4     C187660   6.680  10.260   3.725  0.0559  0.0467 -1.2345
 1044HK4     H187661   6.623  10.350   3.754  0.4470 -0.0823 -0.0570
 1044HK4     C687662   6.593  10.152   3.703 -0.1684 -0.2308  0.9269
 1044HK4     C587663   6.660  10.034   3.669  0.1155  0.0163  0.6334
 1044HK4    C1087664   6.590   9.916   3.611 -0.3475  0.4917  0.2237
 1044HK4     O187665   6.474   9.929   3.571 -0.4634  0.0719  0.4183
 1044HK4    C1687666   6.447  10.170   3.717 -0.3242 -0.1994 -0.6402
 1044HK4    C1587667   6.394  10.299   3.694  0.2532  0.1500 -0.0471
 1044HK4     H787668   6.430  10.358   3.608  1.0653 -1.7120 -1.0283
 1044HK4    C2087669   6.270  10.339   3.741  0.1195  0.1631 -0.4057
 1044HK4     H987670   6.231  10.421   3.680  1.7187  0.3966 -1.1277
 1044HK4    C1987671   6.191  10.251   3.814 -0.1990  0.0315 -0.9110
 1044HK4    C1887672   6.239  10.115   3.835 -0.4002  0.0256 -0.4915
 1044HK4    C1787673   6.364  10.082   3.784 -0.2124  0.1157 -0.0840
 1044HK4     H887674   6.415  10.002   3.839 -0.7205 -0.6566 -0.7285
 1044HK4     N187675   6.146  10.031   3.900  0.1665 -0.0768  0.1780
 1044HK4    C2187676   6.038  10.117   3.929  0.0376 -0.0663 -0.3417
 1044HK4    C2287677   6.062  10.252   3.880  0.1414 -0.0495 -0.2466
 1044HK4    C2687678   5.972  10.355   3.904  0.2875 -0.0769  0.4224
 1044HK4    H1387679   6.004  10.456   3.878  1.3580 -0.6670 -0.6009
 1044HK4    C2587680   5.864  10.331   3.988  0.3911 -0.0737  0.5575
 1044HK4    H1287681   5.792  10.409   4.014 -0.6766 -0.1819 -1.9574
 1044HK4    C2487682   5.839  10.204   4.039 -0.0242 -0.1485  0.1769
 1044HK4    H1187683   5.747  10.188   4.097 -0.0847  1.8939  0.6990
 1044HK4    C2387684   5.925  10.100   4.007  0.2426  0.1241  0.0046
 1044HK4    H1087685   5.874  10.003   4.017 -1.3003  1.0297  1.1601
 1044HK4    C3987686   6.140   9.892   3.896  0.1995 -0.0858  0.3336
 1044HK4    C4187687   6.057   9.824   3.988 -0.1536  0.1628  0.1963
 1044HK4    H2187688   6.042   9.869   4.087 -1.3585 -1.9085  0.9696
 1044HK4    C4287689   6.011   9.695   3.966 -0.4630  0.2884  0.1068
 1044HK4    H2287690   5.943   9.646   4.037  1.2578 -0.8029  1.0101
 1044HK4    C4387691   6.055   9.624   3.855  0.1828 -0.2140  0.6884
 1044HK4    H2387692   6.047   9.515   3.848 -1.0620 -0.0490 -0.4657
 1044HK4    C4487693   6.140   9.688   3.766 -0.0443  0.2205  0.7880
 1044HK4    H2487694   6.197   9.629   3.693  1.3906  1.8783  0.5146
 1044HK4    C4587695   6.184   9.819   3.783  0.5294  0.0909  0.3470
 1044HK4    H2587696   6.253   9.869   3.714 -1.2829 -0.6793 -2.1062
 1045HK4    H2887697   5.272   0.935   8.294  1.3438  0.6195 -0.7213
 1045HK4    C4887698   5.364   0.906   8.344  0.6288 -0.3606  0.0513
 1045HK4    C4787699   5.413   0.776   8.354  0.4691 -0.4579 -0.4503
 1045HK4    H2787700   5.341   0.696   8.334 -0.2582 -0.1079  0.7562
 1045HK4    C4687701   5.535   0.759   8.418  0.1428 -0.3891  0.1904
 1045HK4    H2687702   5.579   0.658   8.425  1.2044 -0.0045 -0.7824
 1045HK4    C4087703   5.621   0.861   8.465  0.3631 -0.2686 -0.4749
 1045HK4    C5087704   5.567   0.991   8.450  0.3798 -0.2262 -0.1665
 1045HK4    H3087705   5.603   1.073   8.513 -0.1218 -0.0938 -0.0521
 1045HK4    C4987706   5.443   1.011   8.392  0.2964 -0.1112  0.0495
 1045HK4    H2987707   5.419   1.116   8.372 -1.0003 -0.2927  0.5861
 1045HK4     N287708   5.725   0.835   8.554 -0.0881 -0.0589  0.1108
 1045HK4    C3087709   5.752   0.726   8.641  0.3179 -0.0958 -0.0582
 1045HK4    C2987710   5.672   0.623   8.687  0.3542 -0.0190  0.1731
 1045HK4    H1587711   5.564   0.638   8.687  0.3785  0.1576 -0.1337
 1045HK4    C2887712   5.722   0.523   8.770  0.0327 -0.0892  0.2875
 1045HK4    C2787713   5.862   0.521   8.789  0.0401 -0.4700  0.2063
 1045HK4    H1487714   5.904   0.437   8.845  1.3274  0.7218  1.0673
 1045HK4    C3287715   5.946   0.623   8.746 -0.1392 -0.7361 -0.7958
 1045HK4    H1687716   6.055   0.617   8.758 -0.1533 -2.0098 -1.2631
 1045HK4    C3187717   5.892   0.731   8.677  0.0615  0.4612  0.8897
 1045HK4    C3487718   5.951   0.853   8.626 -0.3013  0.2967  0.0632
 1045HK4    C3387719   5.843   0.912   8.549 -0.3077  0.2769  0.0620
 1045HK4    C3587720   5.879   1.026   8.479  0.0299  0.2188  0.1372
 1045HK4    H1787721   5.814   1.056   8.396 -0.6918 -2.1786 -0.1982
 1045HK4    C3687722   5.999   1.090   8.509  0.0788 -0.0983  0.6249
 1045HK4    H1887723   5.999   1.197   8.485  1.8643  0.1990  1.8728
 1045HK4    C3787724   6.097   1.034   8.589  0.0808 -0.3904  0.4221
 1045HK4    H1987725   6.185   1.094   8.614  0.7494 -2.1416  2.4329
 1045HK4    C3887726   6.078   0.906   8.640 -0.0181 -0.4344  0.2729
 1045HK4    H2087727   6.154   0.859   8.704  0.9381  0.3395 -0.2748
 1045HK4    C1487728   5.635   0.433   8.847 -0.5488  0.0265 -0.2300
 1045HK4     C987729   5.677   0.364   8.962  0.2948  0.1651 -0.4495
 1045HK4     C887730   5.641   0.231   8.989  0.7275  0.1120 -0.1284
 1045HK4    C1187731   5.558   0.169   8.896  0.3126 -0.4913  0.6302
 1045HK4     H487732   5.504   0.076   8.916 -0.4454 -0.2339 -0.1418
 1045HK4    C1287733   5.504   0.238   8.787  0.5071 -0.6414  0.4371
 1045HK4     H587734   5.439   0.187   8.715 -0.0074 -1.1413  1.2443
 1045HK4    C1387735   5.535   0.372   8.769 -0.6945 -0.3784  0.2709
 1045HK4     H687736   5.496   0.417   8.676 -2.6072 -1.0203  0.7436
 1045HK4     C787737   5.699   0.149   9.097  0.2641 -0.5429 -0.3707
 1045HK4     O287738   5.639   0.056   9.152 -0.2517 -0.1423 -0.2574
 1045HK4     C487739   5.818   0.204   9.167 -0.1606 -0.0178 -0.0579
 1045HK4     C387740   5.899   0.121   9.243 -0.0466  0.0445 -0.1134
 1045HK4     H387741   5.876   0.014   9.249  0.4314 -0.0033  1.1484
 1045HK4     C287742   6.013   0.171   9.306 -0.4627  0.6673  0.1498
 1045HK4     H287743   6.083   0.116   9.371  0.6988  1.4529 -0.4389
 1045HK4     C187744   6.045   0.305   9.286 -0.1072  0.6088  0.3293
 1045HK4     H187745   6.125   0.340   9.353 -1.0438 -0.8271  2.2476
 1045HK4     C687746   5.968   0.391   9.206 -0.1197  0.4509  0.1700
 1045HK4     C587747   5.848   0.341   9.154 -0.0022 -0.0144  0.3512
 1045HK4    C1087748   5.761   0.426   9.068  0.1124 -0.2912 -0.0396
 1045HK4     O187749   5.721   0.534   9.111  0.5069 -0.1244 -0.0908
 1045HK4    C1687750   6.050   0.490   9.135  0.1811 -0.1929 -0.3825
 1045HK4    C1587751   6.177   0.450   9.086  0.4065  0.1636 -0.0923
 1045HK4     H787752   6.201   0.345   9.063  0.7252  0.3962 -0.8056
 1045HK4    C2087753   6.266   0.548   9.045  0.4607  0.2149  0.1359
 1045HK4     H987754   6.360   0.519   8.997  0.8795  3.1582 -0.8946
 1045HK4    C1987755   6.236   0.684   9.042  0.2390  0.1724  0.4218
 1045HK4    C1887756   6.102   0.726   9.077 -0.0307 -0.5318  0.2481
 1045HK4    C1787757   6.020   0.626   9.128 -0.1004 -0.1934  0.8002
 1045HK4     H887758   5.925   0.664   9.164 -0.9971 -1.8849  0.2842
 1045HK4     N187759   6.077   0.860   9.041  0.3031 -0.5129  0.0900
 1045HK4    C2187760   6.197   0.905   8.981 -0.3465 -0.3912 -1.1306
 1045HK4    C2287761   6.298   0.802   8.985 -0.0248 -0.0469 -0.3324
 1045HK4    C2687762   6.427   0.829   8.939  0.3280 -0.1755  0.5581
 1045HK4    H1387763   6.514   0.765   8.952 -1.1931 -2.2946  0.5187
 1045HK4    C2587764   6.455   0.956   8.891 -0.1230 -0.3837 -0.2682
 1045HK4    H1287765   6.541   0.968   8.825 -1.2964  1.0980 -1.5623
 1045HK4    C2487766   6.365   1.062   8.893  0.0470 -0.2401 -0.2154
 1045HK4    H1187767   6.393   1.155   8.841  0.9803 -2.7409 -4.3952
 1045HK4    C2387768   6.237   1.030   8.937 -0.0796 -0.2909 -0.6140
 1045HK4    H1087769   6.163   1.104   8.904 -0.9485 -0.6882  0.4154
 1045HK4    C3987770   5.956   0.926   9.020  0.4357 -0.2515  0.1467
 1045HK4    C4187771   5.947   1.065   8.997 -0.2549 -0.2953  0.1252
 1045HK4    H2187772   6.029   1.132   9.026 -2.1315  0.8204  3.1349
 1045HK4    C4287773   5.826   1.125   8.966 -0.0623  0.5526  0.9710
 1045HK4    H2287774   5.818   1.232   8.944  0.3916  0.4265  0.1796
 1045HK4    C4387775   5.708   1.051   8.966 -0.1730  0.7292  0.2679
 1045HK4    H2387776   5.620   1.110   8.991  0.3587  1.1394  1.1904
 1045HK4    C4487777   5.708   0.913   8.982  0.1753  0.6609 -0.2794
 1045HK4    H2487778   5.617   0.851   8.983 -0.0223  0.9518 -0.2700
 1045HK4    C4587779   5.832   0.858   9.011  0.1543  0.3725 -0.7295
 1045HK4    H2587780   5.833   0.753   8.980 -1.9404 -0.1912  1.0178
 1046HK4    H2887781  10.943   0.676   9.913  0.5486  2.9289  0.0986
 1046HK4    C4887782  10.953   0.665   9.805 -0.5014 -0.2754  0.2893
 1046HK4    C4787783  11.066   0.609   9.747 -0.7649  0.0779 -0.5659
 1046HK4    H2787784  11.136   0.544   9.801 -0.3604 -0.3820 -1.6114
 1046HK4    C4687785  11.101   0.624   9.613  0.5164  0.4212 -0.2039
 1046HK4    H2687786  11.198   0.589   9.575  1.0541 -0.5317  1.9747
 1046HK4    C4087787  11.014   0.687   9.522 -0.0002 -0.6826 -0.4843
 1046HK4    C5087788  10.896   0.736   9.582  0.1965 -0.3026 -0.4037
 1046HK4    H3087789  10.827   0.801   9.527 -1.1573 -0.0595  1.5359
 1046HK4    C4987790  10.864   0.726   9.717  0.5044  0.3877 -0.2783
 1046HK4    H2987791  10.780   0.791   9.746  0.8042 -0.0460  1.6623
 1046HK4     N287792  11.051   0.732   9.394  0.5139 -0.4862 -0.2674
 1046HK4    C3087793  11.176   0.772   9.343  0.3460  0.3375 -0.0431
 1046HK4    C2987794   0.048   0.795   9.409  0.1378 -0.2151  0.5299
 1046HK4    H1587795   0.068   0.757   9.509 -2.3789 -2.0746  0.3723
 1046HK4    C2887796   0.159   0.849   9.345 -0.5900  0.6130 -0.0388
 1046HK4    C2787797   0.144   0.879   9.208  0.1955 -0.1278 -0.3019
 1046HK4    H1487798   0.234   0.879   9.146  0.0503  0.1539 -0.5110
 1046HK4    C3287799   0.024   0.866   9.138  0.4335 -0.1943 -0.6996
 1046HK4    H1687800   0.017   0.884   9.031 -1.8456 -1.7399 -0.8432
 1046HK4    C3187801  11.165   0.804   9.202  0.7927 -0.3413 -0.2356
 1046HK4    C3487802  11.030   0.772   9.161  0.4931  0.5088  0.0911
 1046HK4    C3387803  10.962   0.738   9.285  0.3495  0.0733 -0.1084
 1046HK4    C3587804  10.835   0.682   9.279  0.2993  0.2065 -0.3446
 1046HK4    H1787805  10.776   0.681   9.371  0.4272  0.3178 -0.2632
 1046HK4    C3687806  10.775   0.663   9.155 -0.0805 -0.1015 -0.1147
 1046HK4    H1887807  10.667   0.642   9.147 -0.4764  1.6776  0.3720
 1046HK4    C3787808  10.836   0.706   9.038  0.1007 -0.0592 -0.0066
 1046HK4    H1987809  10.791   0.708   8.939  1.9284 -0.1763 -0.8532
 1046HK4    C3887810  10.963   0.763   9.040  0.4122 -0.7626  0.2289
 1046HK4    H2087811  11.006   0.811   8.953 -0.0837  0.6812  0.7693
 1046HK4    C1487812   0.271   0.895   9.429 -0.0251 -0.2279 -0.3243
 1046HK4     C987813   0.346   1.012   9.416 -0.1296 -0.1053  0.1775
 1046HK4     C887814   0.486   1.008   9.434 -0.1004 -0.1241 -0.0476
 1046HK4    C1187815   0.544   0.893   9.488 -0.4719 -0.2355  0.1200
 1046HK4     H487816   0.650   0.900   9.516 -0.4176 -1.8620  0.3614
 1046HK4    C1287817   0.465   0.784   9.523 -0.3313 -0.3772 -0.0034
 1046HK4     H587818   0.513   0.698   9.571 -1.3379 -1.6654 -1.2812
 1046HK4    C1387819   0.332   0.780   9.484 -0.2154 -0.3682 -0.4052
 1046HK4     H687820   0.274   0.688   9.498  1.5092 -1.4122  0.0626
 1046HK4     C787821   0.571   1.128   9.421  0.0412 -0.1999  0.1622
 1046HK4     O287822   0.693   1.124   9.413  0.0919  0.5604  0.4944
 1046HK4     C487823   0.501   1.258   9.414  0.1701 -0.1231  0.2998
 1046HK4     C387824   0.576   1.372   9.389 -0.1516 -0.0348 -0.2797
 1046HK4     H387825   0.676   1.374   9.342 -0.8823  0.6892 -1.8475
 1046HK4     C287826   0.516   1.496   9.413 -0.0173 -0.1318  0.5502
 1046HK4     H287827   0.570   1.589   9.391 -0.6669  0.2002  0.3747
 1046HK4     C187828   0.388   1.503   9.467 -0.2163 -0.1600  0.0749
 1046HK4     H187829   0.349   1.604   9.487 -2.0457 -0.3175 -2.4506
 1046HK4     C687830   0.303   1.393   9.490 -0.3405 -0.1105 -0.1380
 1046HK4     C587831   0.367   1.273   9.455  0.0404  0.1071 -0.2002
 1046HK4    C1087832   0.288   1.149   9.430  0.1455  0.0598 -0.2945
 1046HK4     O187833   0.168   1.162   9.410  0.0513  0.0923  0.2835
 1046HK4    C1687834   0.175   1.416   9.558 -0.5861 -0.2484 -0.5587
 1046HK4    C1587835   0.108   1.539   9.538 -0.6489 -0.1834  0.0532
 1046HK4     H787836   0.129   1.593   9.445 -0.8909 -0.0418  0.0799
 1046HK4    C2087837   0.003   1.582   9.618  0.2152  0.8032  0.6556
 1046HK4     H987838  11.216   1.684   9.603 -1.8205  0.0351 -0.0174
 1046HK4    C1987839  11.213   1.498   9.722  0.1378 -0.1136 -0.1108
 1046HK4    C1887840   0.029   1.369   9.744  0.6003  0.2268  0.5514
 1046HK4    C1787841   0.136   1.334   9.663 -0.0814 -0.0625 -0.2240
 1046HK4     H887842   0.176   1.233   9.667 -1.9568 -0.7953  0.4965
 1046HK4     N187843  11.236   1.305   9.863 -0.1688 -0.3075  0.0019
 1046HK4    C2187844  11.137   1.389   9.917 -0.2304 -0.1645 -0.3381
 1046HK4    C2287845  11.119   1.505   9.831  0.0823  0.0139 -0.1640
 1046HK4    C2687846  11.029   1.603   9.870  0.1844 -0.1047  0.3749
 1046HK4    H1387847  11.009   1.689   9.805 -4.1094 -0.6867  0.7461
 1046HK4    C2587848  10.968   1.600   9.995 -0.2005  0.1385  0.1981
 1046HK4    H1287849  10.905   1.682  10.028 -0.2161 -0.9155  2.9327
 1046HK4    C2487850  10.990   1.492  10.081  0.3433  0.1208  0.0393
 1046HK4    H1187851  10.940   1.486  10.178 -0.7394  0.5202 -0.4800
 1046HK4    C2387852  11.070   1.387  10.039 -0.0607 -0.0781 -0.2445
 1046HK4    H1087853  11.073   1.299  10.103  1.7491  1.7389  2.2595
 1046HK4    C3987854  11.243   1.166   9.881 -0.2989 -0.2885  0.2002
 1046HK4    C4187855   0.019   1.115  10.010  0.0750 -0.0311  0.2328
 1046HK4    H2187856   0.071   1.172  10.089 -0.3493  1.1241 -0.3146
 1046HK4    C4287857  11.234   0.982  10.035 -0.3298  0.1489  0.6599
 1046HK4    H2287858   0.017   0.942  10.133  2.1227  0.7002  0.1330
 1046HK4    C4387859  11.192   0.896   9.934 -0.1709  0.1457  0.5930
 1046HK4    H2387860  11.145   0.801   9.957  2.2434 -0.7224  2.1576
 1046HK4    C4487861  11.189   0.940   9.802 -0.0780 -0.2722  0.4525
 1046HK4    H2487862  11.204   0.868   9.720 -4.1558  0.7904 -1.3110
 1046HK4    C4587863  11.206   1.076   9.779 -0.0981 -0.3205  0.1524
 1046HK4    H2587864  11.200   1.112   9.675  2.1062  0.1595  0.1831
 1047HK4    H2887865   2.286   9.687   4.340 -1.0839  1.3086  1.8459
 1047HK4    C4887866   2.207   9.611   4.343 -0.0030  0.0684 -0.0029
 1047HK4    C4787867   2.120   9.611   4.452 -0.5526 -0.3915 -0.4401
 1047HK4    H2787868   2.098   9.702   4.509 -1.1384 -0.5062 -0.4929
 1047HK4    C4687869   2.047   9.499   4.491 -0.6510 -0.0978  0.2278
 1047HK4    H2687870   1.977   9.499   4.576 -1.1664  1.3481 -0.1692
 1047HK4    C4087871   2.061   9.385   4.410  0.1543 -0.0125  0.2442
 1047HK4    C5087872   2.132   9.392   4.288  0.3959 -0.0350  0.3843
 1047HK4    H3087873   2.164   9.301   4.236 -0.6645  0.8992 -1.9664
 1047HK4    C4987874   2.204   9.505   4.254 -0.0328  0.1106 -0.0490
 1047HK4    H2987875   2.256   9.507   4.157 -0.9082  2.1710 -0.5120
 1047HK4     N287876   2.027   9.256   4.455  0.1127  0.1797  0.7674
 1047HK4    C3087877   2.015   9.222   4.591  0.4082 -0.3247  0.6655
 1047HK4    C2987878   2.076   9.266   4.708  0.3636 -0.2332  0.6556
 1047HK4    H1587879   2.155   9.339   4.688 -1.5189  1.6776  0.0597
 1047HK4    C2887880   2.043   9.226   4.836 -0.0462 -0.2663  0.5382
 1047HK4    C2787881   1.945   9.125   4.850 -0.0060 -0.2879  0.6605
 1047HK4    H1487882   1.913   9.093   4.950  0.2424 -0.2076  0.7666
 1047HK4    C3287883   1.890   9.066   4.737  0.6459  0.3799 -0.0225
 1047HK4    H1687884   1.815   8.986   4.743 -0.7811  1.6410 -0.5776
 1047HK4    C3187885   1.920   9.114   4.610 -0.1982  0.0200 -0.3665
 1047HK4    C3487886   1.877   9.081   4.476  0.7326 -0.4737 -0.5447
 1047HK4    C3387887   1.949   9.164   4.382  0.8989  0.0686  0.0612
 1047HK4    C3587888   1.920   9.136   4.249 -0.2600 -0.0184  0.3224
 1047HK4    H1787889   1.961   9.200   4.171 -0.6536 -1.0092 -0.7082
 1047HK4    C3687890   1.835   9.033   4.210  0.4844 -0.4268 -0.2379
 1047HK4    H1887891   1.803   9.019   4.105  0.6965  1.0424 -0.5144
 1047HK4    C3787892   1.774   8.951   4.303  0.3492 -0.1974 -0.1254
 1047HK4    H1987893   1.737   8.854   4.269 -0.2565 -0.0067 -0.0088
 1047HK4    C3887894   1.793   8.977   4.438  0.3099 -0.2941 -0.1010
 1047HK4    H2087895   1.737   8.941   4.525  1.2939  4.5093  2.7220
 1047HK4    C1487896   2.090   9.301   4.954 -0.0239  0.4723  0.0572
 1047HK4     C987897   2.053   9.276   5.086  0.1995 -0.0845  0.0153
 1047HK4     C887898   2.010   9.381   5.170 -0.0673 -0.0027 -0.2256
 1047HK4    C1187899   2.019   9.513   5.126  0.0579  0.0909  0.0744
 1047HK4     H487900   1.992   9.593   5.196  0.8311 -0.0508  0.5461
 1047HK4    C1287901   2.091   9.539   5.010 -0.0480  0.4664  0.0932
 1047HK4     H587902   2.127   9.642   4.997  0.4427  0.3747  0.6830
 1047HK4    C1387903   2.130   9.434   4.927  0.5480  0.3855  0.4724
 1047HK4     H687904   2.200   9.455   4.845  2.1598 -0.2915  1.6452
 1047HK4     C787905   1.968   9.360   5.310  0.8779  0.0577  0.0707
 1047HK4     O287906   1.902   9.443   5.372  0.4980 -0.4774  0.3932
 1047HK4     C487907   1.994   9.227   5.370  0.4834  0.1266  0.3872
 1047HK4     C387908   1.963   9.211   5.505  1.2129  0.2562  0.5702
 1047HK4     H387909   1.911   9.293   5.557 -2.3447 -1.0632 -0.7723
 1047HK4     C287910   1.989   9.090   5.567  1.0385 -0.0387  0.0665
 1047HK4     H287911   1.993   9.089   5.677  2.6806 -0.9686  0.0142
 1047HK4     C187912   2.037   8.983   5.493  0.1023 -0.4098 -0.0119
 1047HK4     H187913   2.019   8.883   5.536 -2.2357  0.7283  1.8012
 1047HK4     C687914   2.065   8.995   5.356 -0.3098  0.1162 -0.0514
 1047HK4     C587915   2.054   9.122   5.298  0.7250  0.3519  0.2584
 1047HK4    C1087916   2.101   9.156   5.161 -0.0519 -0.3048 -0.1746
 1047HK4     O187917   2.209   9.108   5.127  0.0141 -0.2327 -0.0704
 1047HK4    C1687918   2.109   8.872   5.287  0.0816  0.3110 -0.1418
 1047HK4    C1587919   2.195   8.781   5.351 -0.0349  0.0062 -0.4177
 1047HK4     H787920   2.245   8.806   5.446  0.2789  1.5507 -0.9689
 1047HK4    C2087921   2.210   8.648   5.314 -0.3421 -0.1015 -0.1716
 1047HK4     H987922   2.252   8.574   5.382  2.6355  0.3779 -1.4193
 1047HK4    C1987923   2.141   8.610   5.199  0.0062 -0.0119 -0.4120
 1047HK4    C1887924   2.071   8.709   5.119  0.1127  0.5781  0.2231
 1047HK4    C1787925   2.051   8.839   5.165 -0.8277  0.4251  0.2528
 1047HK4     H887926   1.999   8.911   5.102 -0.3054 -0.8162 -1.6000
 1047HK4     N187927   2.020   8.652   5.001  0.1665  0.2110  0.3804
 1047HK4    C2187928   2.047   8.514   5.010 -0.3863  0.0547 -0.3339
 1047HK4    C2287929   2.121   8.484   5.131  0.3218  0.1159 -0.7439
 1047HK4    C2687930   2.157   8.354   5.166  0.4052  0.1596 -0.6570
 1047HK4    H1387931   2.185   8.326   5.267  0.5007 -3.2093 -1.5406
 1047HK4    C2587932   2.128   8.251   5.077  0.4244 -0.1263 -0.3310
 1047HK4    H1287933   2.162   8.151   5.101  0.1748 -0.4664 -1.3657
 1047HK4    C2487934   2.060   8.279   4.958 -0.2675 -0.0327  0.0839
 1047HK4    H1187935   2.035   8.196   4.891 -0.9594  0.6245 -0.4704
 1047HK4    C2387936   2.012   8.406   4.930 -0.6917 -0.1862  0.1276
 1047HK4    H1087937   1.928   8.419   4.862  0.1126  1.8264 -0.4929
 1047HK4    C3987938   2.010   8.720   4.880  0.5149 -0.1527  0.1444
 1047HK4    C4187939   1.930   8.668   4.776  0.2435  0.3200  0.1181
 1047HK4    H2187940   1.846   8.602   4.803 -0.7942  2.3400  2.0295
 1047HK4    C4287941   1.944   8.703   4.643  0.0581 -0.1590 -0.0304
 1047HK4    H2287942   1.893   8.644   4.565  0.8855 -0.5771 -0.2598
 1047HK4    C4387943   2.047   8.788   4.604  0.0738 -0.4382 -0.6062
 1047HK4    H2387944   2.055   8.817   4.499  0.1833  1.5765 -0.0654
 1047HK4    C4487945   2.124   8.845   4.705 -0.7242  0.1130 -0.3039
 1047HK4    H2487946   2.215   8.896   4.671 -1.5295  2.7450  1.3246
 1047HK4    C4587947   2.107   8.815   4.840 -0.3203  0.5890 -0.1444
 1047HK4    H2587948   2.163   8.884   4.905 -0.1322  0.4144 -0.1214
 1048HK4    H2887949  10.870   9.434   6.376 -0.7520 -1.2790 -2.0091
 1048HK4    C4887950  10.799   9.378   6.437 -0.0766 -0.0627 -0.0624
 1048HK4    C4787951  10.731   9.272   6.379  0.1332 -0.2381  0.0129
 1048HK4    H2787952  10.740   9.264   6.269 -1.0455 -0.1686 -0.0955
 1048HK4    C4687953  10.642   9.195   6.452  0.2297 -0.3240  0.0412
 1048HK4    H2687954  10.588   9.107   6.413  1.4599 -1.8945  1.7826
 1048HK4    C4087955  10.615   9.234   6.585 -0.0472  0.5525 -0.2693
 1048HK4    C5087956  10.682   9.343   6.643  0.0554  0.1910  0.2907
 1048HK4    H3087957  10.665   9.378   6.746  0.5757 -1.4661  0.9598
 1048HK4    C4987958  10.780   9.411   6.571  0.2285 -0.3116  0.0464
 1048HK4    H2987959  10.843   9.491   6.611 -0.5359 -0.3208  1.3018
 1048HK4     N287960  10.496   9.194   6.648  0.3503  0.1858  0.2470
 1048HK4    C3087961  10.378   9.155   6.582  0.4354  0.2899  0.0330
 1048HK4    C2987962  10.329   9.176   6.454  0.2431 -0.0745  0.0457
 1048HK4    H1587963  10.393   9.217   6.375 -1.4584 -0.2761 -1.4831
 1048HK4    C2887964  10.199   9.142   6.420  0.1501  0.1743  0.1529
 1048HK4    C2787965  10.121   9.070   6.514 -0.0509  0.2129  0.0140
 1048HK4    H1487966  10.038   9.006   6.481  0.8029 -1.7787  1.6209
 1048HK4    C3287967  10.161   9.044   6.644  0.4553 -0.2840 -0.2359
 1048HK4    H1687968  10.096   9.003   6.722 -0.8622 -0.9655 -1.6558
 1048HK4    C3187969  10.287   9.093   6.676 -0.1030  1.0226  0.0057
 1048HK4    C3487970  10.357   9.076   6.802 -0.7843  0.8991  0.3729
 1048HK4    C3387971  10.483   9.145   6.780 -0.6164  0.5746  0.2961
 1048HK4    C3587972  10.576   9.152   6.882 -0.0192  0.4739 -0.2412
 1048HK4    H1787973  10.654   9.228   6.876  1.6190 -0.9900  1.7255
 1048HK4    C3687974  10.552   9.084   7.001  0.3232 -0.1120 -0.5016
 1048HK4    H1887975  10.631   9.075   7.078 -1.4618  1.5080  1.6016
 1048HK4    C3787976  10.437   9.009   7.020  0.3775  0.1277  0.8775
 1048HK4    H1987977  10.422   8.959   7.115  0.8108  1.7275  1.8018
 1048HK4    C3887978  10.335   9.015   6.925  0.8977  0.1485  0.3181
 1048HK4    H2087979  10.241   8.962   6.937  0.6413  0.4509 -0.3387
 1048HK4    C1487980  10.125   9.223   6.322  0.5759  0.0801 -0.2454
 1048HK4     C987981   9.991   9.263   6.329  0.7090  0.4754  0.0331
 1048HK4     C887982   9.925   9.299   6.210  0.1772 -0.2441  0.1107
 1048HK4    C1187983   9.989   9.300   6.087  0.2365  0.3847  0.1447
 1048HK4     H487984   9.962   9.383   6.020  0.5693  0.6384  0.3247
 1048HK4    C1287985  10.119   9.249   6.080 -0.0688 -0.3414 -0.3747
 1048HK4     H587986  10.169   9.243   5.982  1.4565 -2.4154  0.5081
 1048HK4    C1387987  10.186   9.211   6.195 -0.0045 -0.5191 -0.4732
 1048HK4     H687988  10.294   9.189   6.196 -0.0315 -0.6540  0.7187
 1048HK4     C787989   9.784   9.343   6.211 -0.0061 -0.8179 -0.1197
 1048HK4     O287990   9.738   9.396   6.109  1.0186  0.4114  0.0464
 1048HK4     C487991   9.706   9.331   6.336 -0.3627 -0.6891 -0.3280
 1048HK4     C387992   9.575   9.377   6.335 -0.3010 -0.4804  0.4813
 1048HK4     H387993   9.520   9.403   6.243  0.0033  0.4519  0.5592
 1048HK4     C287994   9.498   9.383   6.451 -0.5393 -0.5529  0.3265
 1048HK4     H287995   9.396   9.425   6.446 -0.3092 -0.2489 -4.5200
 1048HK4     C187996   9.558   9.343   6.570  0.3053  0.3590  0.2133
 1048HK4     H187997   9.497   9.335   6.661  2.1990  0.3456  1.5195
 1048HK4     C687998   9.688   9.288   6.573  0.2396  0.1743 -0.3254
 1048HK4     C587999   9.767   9.295   6.458  0.2156  0.2213 -0.3422
 1048HK4    C1088000   9.916   9.283   6.456  0.2161  0.2135 -0.2187
 1048HK4     O188001   9.971   9.359   6.535  0.0010  0.1176  0.0223
 1048HK4    C1688002   9.724   9.239   6.707  0.1083 -0.2929 -0.4634
 1048HK4    C1588003   9.799   9.119   6.709 -0.5415 -0.6958 -0.0101
 1048HK4     H788004   9.821   9.060   6.619 -2.1931 -0.3540 -0.6589
 1048HK4    C2088005   9.849   9.072   6.830 -0.8472 -0.2235  0.3017
 1048HK4     H988006   9.921   8.991   6.832 -1.4630 -0.7608  0.8002
 1048HK4    C1988007   9.836   9.143   6.949  0.3422  0.2287  0.1677
 1048HK4    C1888008   9.770   9.272   6.939 -0.1644 -0.0434 -0.0441
 1048HK4    C1788009   9.707   9.314   6.822  0.5791 -0.1512 -0.4890
 1048HK4     H888010   9.640   9.400   6.820 -0.0604 -0.6141  0.5962
 1048HK4     N188011   9.787   9.342   7.060 -0.2157 -0.2232  0.0671
 1048HK4    C2188012   9.864   9.262   7.147 -1.0834 -0.2936  0.7736
 1048HK4    C2288013   9.897   9.138   7.080  0.4009  0.4169  0.1477
 1048HK4    C2688014   9.993   9.052   7.133 -0.0740 -0.2551 -0.0780
 1048HK4    H1388015  10.020   8.965   7.072  1.4658  0.1904 -0.0480
 1048HK4    C2588016  10.061   9.084   7.250 -0.0933 -0.0146 -0.1327
 1048HK4    H1288017  10.127   9.018   7.306 -0.0247 -0.3469 -0.5997
 1048HK4    C2488018  10.029   9.205   7.309 -0.5086 -0.2757  0.1842
 1048HK4    H1188019  10.081   9.222   7.404 -2.0994  1.7990  0.7419
 1048HK4    C2388020   9.932   9.295   7.264  0.1869  0.3313 -0.1225
 1048HK4    H1088021   9.950   9.401   7.279  0.8675 -0.0972  2.3670
 1048HK4    C3988022   9.777   9.481   7.076 -0.1927 -0.2348  0.1933
 1048HK4    C4188023   9.775   9.569   6.965 -0.6031 -0.6803 -0.1532
 1048HK4    H2188024   9.812   9.538   6.866 -2.5539  2.8748 -2.0782
 1048HK4    C4288025   9.739   9.702   6.975  0.3407 -0.3967 -0.4298
 1048HK4    H2288026   9.748   9.771   6.890 -2.6818  2.2532  1.2847
 1048HK4    C4388027   9.699   9.759   7.096  0.0329 -0.1669 -0.6411
 1048HK4    H2388028   9.676   9.865   7.104 -2.8501 -0.7905 -0.1818
 1048HK4    C4488029   9.690   9.670   7.202 -0.0181  0.4514 -0.1259
 1048HK4    H2488030   9.647   9.706   7.297 -0.8216  2.2048 -1.1308
 1048HK4    C4588031   9.723   9.535   7.194 -0.8350  0.2580 -0.3183
 1048HK4    H2588032   9.713   9.471   7.283 -1.9618 -0.0946 -0.6895
 1049HK4    H2888033   1.455   3.996   3.141 -2.2551 -0.3111 -0.9789
 1049HK4    C4888034   1.405   3.998   3.238 -0.4068  0.3534 -0.0209
 1049HK4    C4788035   1.471   4.064   3.341  0.4316 -0.3563 -0.0964
 1049HK4    H2788036   1.577   4.094   3.331  0.7485 -1.3066  0.2947
 1049HK4    C4688037   1.398   4.094   3.455 -0.0073 -0.6653 -0.2960
 1049HK4    H2688038   1.451   4.141   3.539  0.3432 -0.2526 -0.7489
 1049HK4    C4088039   1.260   4.064   3.461 -0.2048  0.2835  0.0521
 1049HK4    C5088040   1.198   3.999   3.353  0.0715  0.5081 -0.2409
 1049HK4    H3088041   1.089   3.997   3.343  0.0853  0.4347 -0.3850
 1049HK4    C4988042   1.272   3.959   3.242 -0.2004 -0.3859 -0.1082
 1049HK4    H2988043   1.216   3.914   3.158  0.8379  1.4165 -1.8173
 1049HK4     N288044   1.184   4.099   3.573 -0.1902  0.0251  0.1440
 1049HK4    C3088045   1.217   4.211   3.652  0.4725  0.0258 -0.1338
 1049HK4    C2988046   1.284   4.329   3.620 -0.7018  0.6010 -0.5435
 1049HK4    H1588047   1.304   4.339   3.514 -1.9944  1.3406 -0.7292
 1049HK4    C2888048   1.325   4.420   3.718  0.3681 -0.3927 -0.0445
 1049HK4    C2788049   1.290   4.392   3.851  0.1258 -0.0605 -0.0377
 1049HK4    H1488050   1.293   4.482   3.914 -1.8409 -0.3820  0.5323
 1049HK4    C3288051   1.217   4.279   3.884 -0.3707  0.2076 -0.2177
 1049HK4    H1688052   1.211   4.245   3.988 -1.0528 -2.6287 -1.1301
 1049HK4    C3188053   1.169   4.191   3.787 -0.0275  0.1073 -0.2969
 1049HK4    C3488054   1.106   4.061   3.790  0.7802 -0.2782  0.3175
 1049HK4    C3388055   1.118   4.006   3.656  0.3457 -0.2475  0.2640
 1049HK4    C3588056   1.057   3.883   3.632 -0.1748 -0.0013  0.3255
 1049HK4    H1788057   1.030   3.857   3.530 -2.2951  0.5755  0.7045
 1049HK4    C3688058   0.985   3.821   3.733 -0.4114  0.1617  0.2588
 1049HK4    H1888059   0.975   3.711   3.731 -0.8885  0.2047  0.1711
 1049HK4    C3788060   0.978   3.872   3.863  0.5925 -0.0204  0.3853
 1049HK4    H1988061   0.919   3.823   3.940  0.0153 -0.7079 -0.4894
 1049HK4    C3888062   1.043   3.991   3.892  0.3230  0.1418  0.3252
 1049HK4    H2088063   1.047   4.030   3.994  2.6150 -1.0092  0.7110
 1049HK4    C1488064   1.445   4.499   3.688  0.1324 -0.3446 -0.9005
 1049HK4     C988065   1.545   4.526   3.783 -0.5587  0.0400 -0.2676
 1049HK4     C888066   1.600   4.652   3.812  0.4404 -0.3182 -0.5703
 1049HK4    C1188067   1.554   4.756   3.732  0.1754 -0.1479 -0.1961
 1049HK4     H488068   1.594   4.857   3.750 -1.7826  0.3867  1.3481
 1049HK4    C1288069   1.475   4.728   3.621 -0.3652  0.0365  0.1434
 1049HK4     H588070   1.421   4.803   3.561 -1.9573 -3.0522 -2.4580
 1049HK4    C1388071   1.417   4.604   3.598 -0.1206  0.0225 -0.3987
 1049HK4     H688072   1.355   4.570   3.514  0.3799 -1.2156 -0.2759
 1049HK4     C788073   1.712   4.673   3.906  0.1657 -0.5218 -0.2009
 1049HK4     O288074   1.758   4.786   3.916  0.4634 -0.6385 -0.2356
 1049HK4     C488075   1.771   4.554   3.972  0.2444 -0.4302 -0.1069
 1049HK4     C388076   1.885   4.567   4.050  0.0443  0.0810  0.1022
 1049HK4     H388077   1.964   4.637   4.018 -0.6125 -0.2448 -2.3909
 1049HK4     C288078   1.921   4.478   4.150 -0.1640  0.5765  0.6184
 1049HK4     H288079   2.007   4.497   4.216 -1.0921  0.6910  1.8024
 1049HK4     C188080   1.842   4.364   4.161 -0.6867  0.8692 -0.0769
 1049HK4     H188081   1.860   4.291   4.241 -0.8205 -0.3501 -1.1576
 1049HK4     C688082   1.726   4.346   4.082 -0.5096 -0.4033 -0.0555
 1049HK4     C588083   1.695   4.435   3.978  0.2543 -0.4495 -0.3312
 1049HK4    C1088084   1.604   4.414   3.862 -0.0265  0.3323 -0.2509
 1049HK4     O188085   1.586   4.299   3.825  0.6652  0.1640 -0.0655
 1049HK4    C1688086   1.647   4.227   4.115 -0.3611 -0.4250  0.2238
 1049HK4    C1588087   1.507   4.238   4.108 -0.2924  0.1690 -0.2395
 1049HK4     H788088   1.460   4.338   4.106 -1.5668 -0.4294 -2.1726
 1049HK4    C2088089   1.431   4.122   4.115  0.0910 -0.1328 -0.9725
 1049HK4     H988090   1.323   4.136   4.115  0.3734  2.1973 -1.5614
 1049HK4    C1988091   1.489   3.996   4.111  0.4293 -0.0167  0.0691
 1049HK4    C1888092   1.633   3.990   4.100  0.4657  0.0389  0.5128
 1049HK4    C1788093   1.712   4.104   4.107  0.5047  0.0304  0.2200
 1049HK4     H888094   1.821   4.099   4.099  0.3478 -1.2908 -1.2892
 1049HK4     N188095   1.677   3.857   4.113 -0.2726 -0.2518  0.0648
 1049HK4    C2188096   1.561   3.781   4.139 -0.4018 -0.0122  0.1981
 1049HK4    C2288097   1.441   3.860   4.128 -0.2364  0.1552 -0.4342
 1049HK4    C2688098   1.322   3.801   4.170 -0.2721  0.4687 -0.0887
 1049HK4    H1388099   1.233   3.854   4.138  0.9352  2.9121  0.5381
 1049HK4    C2588100   1.314   3.674   4.226  0.5025  0.3932 -0.1403
 1049HK4    H1288101   1.226   3.633   4.275  0.4742  0.8411  0.1783
 1049HK4    C2488102   1.429   3.595   4.230  0.0263 -0.2552  1.0155
 1049HK4    H1188103   1.439   3.497   4.279  0.9612 -0.6853 -0.0119
 1049HK4    C2388104   1.548   3.649   4.183 -0.4642 -0.0934 -0.0584
 1049HK4    H1088105   1.636   3.585   4.184 -0.5603 -0.2878 -1.9716
 1049HK4    C3988106   1.794   3.805   4.056 -0.2727  0.1506 -0.2978
 1049HK4    C4188107   1.864   3.702   4.122  0.4236  0.8140  0.0180
 1049HK4    H2188108   1.852   3.686   4.230  1.8406 -1.6838 -0.1661
 1049HK4    C4288109   1.962   3.631   4.054  0.0201  0.1668  0.1090
 1049HK4    H2288110   2.008   3.542   4.101 -0.2490  0.1824  0.4031
 1049HK4    C4388111   2.005   3.668   3.928  0.1786  0.6492  0.3031
 1049HK4    H2388112   2.073   3.603   3.872 -0.4076  0.3759 -0.1046
 1049HK4    C4488113   1.950   3.780   3.868 -0.3066  0.0190 -0.4417
 1049HK4    H2488114   1.963   3.784   3.758  0.6719 -0.4211 -0.3488
 1049HK4    C4588115   1.855   3.854   3.939  0.3027  0.3150  0.0687
 1049HK4    H2588116   1.855   3.963   3.924  0.6111  0.6902  2.7062
 1050HK4    H2888117   2.551   8.452   8.555 -0.5418  0.9450  1.5564
 1050HK4    C4888118   2.475   8.462   8.478  0.8751  0.4688  0.0782
 1050HK4    C4788119   2.346   8.502   8.508  0.2753 -1.3322 -0.0363
 1050HK4    H2788120   2.333   8.534   8.613 -0.6584 -1.2486 -0.1735
 1050HK4    C4688121   2.247   8.486   8.412  0.4457 -1.2443 -0.2257
 1050HK4    H2688122   2.142   8.510   8.437 -0.2539 -2.5454 -1.8013
 1050HK4    C4088123   2.270   8.422   8.288  0.2824 -1.2949 -0.2302
 1050HK4    C5088124   2.400   8.372   8.266  0.7848 -0.0782 -0.1013
 1050HK4    H3088125   2.420   8.326   8.168 -0.4693 -1.1343  0.1258
 1050HK4    C4988126   2.503   8.403   8.355  0.5550  0.7404 -0.1227
 1050HK4    H2988127   2.605   8.363   8.348  0.2436 -0.4722  2.0245
 1050HK4     N288128   2.177   8.431   8.184 -0.2303 -0.0251  0.3236
 1050HK4    C3088129   2.082   8.533   8.164  0.2173  0.2877 -0.2479
 1050HK4    C2988130   2.094   8.667   8.201  0.8281  0.4616 -1.0777
 1050HK4    H1588131   2.168   8.699   8.275 -0.0604 -1.1122  0.5271
 1050HK4    C2888132   2.018   8.764   8.138  0.2959  0.7747  0.0357
 1050HK4    C2788133   1.941   8.723   8.027  0.4679 -0.6703  0.4352
 1050HK4    H1488134   1.879   8.791   7.967  0.0392 -0.1540  1.4536
 1050HK4    C3288135   1.926   8.591   7.986  0.4197 -0.5514  0.0639
 1050HK4    H1688136   1.842   8.566   7.921  0.1192 -0.0977  0.2741
 1050HK4    C3188137   1.995   8.492   8.055  0.2552 -0.6582  0.0740
 1050HK4    C3488138   2.032   8.356   8.023  0.4472 -0.5804 -0.0456
 1050HK4    C3388139   2.145   8.319   8.105  0.4849 -0.0904  0.1198
 1050HK4    C3588140   2.191   8.187   8.102  0.7860  0.0331 -0.7310
 1050HK4    H1788141   2.279   8.155   8.157  0.6914 -0.7255 -1.0234
 1050HK4    C3688142   2.133   8.100   8.010 -0.6082 -0.1600  0.3245
 1050HK4    H1888143   2.179   8.000   8.004  0.7063  0.3941  0.9667
 1050HK4    C3788144   2.020   8.135   7.937 -0.4225 -0.2780 -0.0167
 1050HK4    H1988145   1.977   8.060   7.870  1.9542 -2.1882  0.5022
 1050HK4    C3888146   1.970   8.264   7.939  0.2870  0.0112 -0.5755
 1050HK4    H2088147   1.899   8.297   7.863 -0.4898 -0.2024  0.0493
 1050HK4    C1488148   1.973   8.885   8.209 -0.0443  0.2725  0.6841
 1050HK4     C988149   1.844   8.936   8.194 -0.0454  0.1773  0.3658
 1050HK4     C888150   1.833   9.076   8.182 -0.0189  0.1382 -0.1638
 1050HK4    C1188151   1.946   9.157   8.178 -0.1117  0.2960  0.3523
 1050HK4     H488152   1.938   9.258   8.135 -1.5084  0.5513  1.1733
 1050HK4    C1288153   2.071   9.109   8.215 -0.1246 -0.0227 -0.0060
 1050HK4     H588154   2.150   9.183   8.236  0.6043 -0.4691 -1.1318
 1050HK4    C1388155   2.081   8.972   8.233  0.2081  0.0484  0.3638
 1050HK4     H688156   2.163   8.923   8.289 -0.7383 -1.7230  0.2283
 1050HK4     C788157   1.697   9.135   8.192  0.1153  0.2848  0.7603
 1050HK4     O288158   1.676   9.249   8.149  0.2456  0.0743  0.1400
 1050HK4     C488159   1.580   9.060   8.241 -0.0094 -0.1209 -0.1556
 1050HK4     C388160   1.458   9.120   8.269  0.2902  0.3003  0.2477
 1050HK4     H388161   1.435   9.224   8.243 -1.6663 -0.5065 -1.4206
 1050HK4     C288162   1.351   9.047   8.321 -0.1199  0.1818 -0.7541
 1050HK4     H288163   1.267   9.105   8.363  0.6149  0.4972  0.3089
 1050HK4     C188164   1.372   8.917   8.363  0.2211  0.3454 -0.4147
 1050HK4     H188165   1.286   8.865   8.408  1.5428 -2.3681 -0.8825
 1050HK4     C688166   1.496   8.852   8.341 -0.2599 -0.5147 -0.6237
 1050HK4     C588167   1.596   8.923   8.273 -0.0512 -0.0514  0.1562
 1050HK4    C1088168   1.721   8.858   8.225  0.0471  0.0162  0.3193
 1050HK4     O188169   1.700   8.750   8.171  0.5924 -0.0909  0.3199
 1050HK4    C1688170   1.511   8.722   8.407  0.5904  0.0215  0.2600
 1050HK4    C1588171   1.401   8.637   8.430  0.5194 -0.0388 -0.2929
 1050HK4     H788172   1.311   8.639   8.366 -0.1899  1.8516  0.7444
 1050HK4    C2088173   1.403   8.546   8.536 -0.2255  0.3281  0.0432
 1050HK4     H988174   1.311   8.489   8.547  0.9329 -1.4176  0.7143
 1050HK4    C1988175   1.508   8.538   8.627  0.1728 -0.0072 -0.4451
 1050HK4    C1888176   1.618   8.631   8.607  0.1927  0.0847  0.0960
 1050HK4    C1788177   1.619   8.711   8.494  0.4177  0.7504  0.5681
 1050HK4     H888178   1.687   8.796   8.503 -1.3017  2.1136  1.0745
 1050HK4     N188179   1.700   8.643   8.720  0.4047 -0.1260 -0.0353
 1050HK4    C2188180   1.636   8.567   8.820  0.5664 -0.6426 -0.3296
 1050HK4    C2288181   1.522   8.497   8.765  0.2941 -0.0815 -0.4757
 1050HK4    C2688182   1.438   8.417   8.842  0.5744  0.2168  0.1451
 1050HK4    H1388183   1.351   8.366   8.799 -0.2802  0.4223  1.6283
 1050HK4    C2588184   1.449   8.426   8.980  0.4158  0.3457  0.1454
 1050HK4    H1288185   1.368   8.388   9.043  0.5625 -0.8159 -0.3468
 1050HK4    C2488186   1.549   8.505   9.035  0.7673  0.1739 -0.2494
 1050HK4    H1188187   1.531   8.544   9.136 -1.1230  0.7200 -0.7870
 1050HK4    C2388188   1.644   8.572   8.959  0.2768  0.7546 -0.3570
 1050HK4    H1088189   1.735   8.606   9.008 -0.7084  1.0297  1.3073
 1050HK4    C3988190   1.835   8.682   8.725  0.3281  0.1477 -0.0833
 1050HK4    C4188191   1.903   8.736   8.835  0.0967  0.0785  0.0946
 1050HK4    H2188192   1.841   8.764   8.922  1.3090  0.8612  0.7252
 1050HK4    C4288193   2.036   8.779   8.835  0.1210  0.0022  0.0178
 1050HK4    H2288194   2.078   8.832   8.921 -0.9726 -1.8671  1.7656
 1050HK4    C4388195   2.109   8.754   8.720  0.2108  0.0313  0.0706
 1050HK4    H2388196   2.218   8.748   8.724  0.2761  1.2198  0.4108
 1050HK4    C4488197   2.052   8.700   8.606 -0.4021  0.4084  0.2003
 1050HK4    H2488198   2.114   8.690   8.516 -1.6387  2.3749 -0.9116
 1050HK4    C4588199   1.918   8.661   8.613 -0.3231 -0.0126 -0.5437
 1050HK4    H2588200   1.879   8.595   8.535  1.1037 -1.1231 -0.3438
 1051HK4    H2888201   0.773   9.722   1.136  0.3590 -0.2031 -0.7073
 1051HK4    C4888202   0.714   9.642   1.181  0.5587  0.1468  0.1934
 1051HK4    C4788203   0.584   9.667   1.223  0.3945 -0.3615 -0.0067
 1051HK4    H2788204   0.543   9.768   1.210  0.6395 -0.0088  1.7839
 1051HK4    C4688205   0.516   9.572   1.299  0.2328 -0.5418 -0.3719
 1051HK4    H2688206   0.420   9.598   1.346 -0.8733 -1.6669 -1.9840
 1051HK4    C4088207   0.565   9.442   1.319  0.6059 -0.2186  0.8963
 1051HK4    C5088208   0.694   9.415   1.269  0.3177  0.0754 -0.0102
 1051HK4    H3088209   0.748   9.331   1.315  0.6131  1.0866  1.5325
 1051HK4    C4988210   0.766   9.516   1.206  0.2498 -0.0884 -0.3513
 1051HK4    H2988211   0.871   9.515   1.239  0.4482  2.6092 -0.7968
 1051HK4     N288212   0.510   9.349   1.407  0.1255 -0.1605  0.6538
 1051HK4    C3088213   0.424   9.381   1.515 -0.3543 -0.2189  0.2943
 1051HK4    C2988214   0.417   9.494   1.595 -0.6000  0.2684 -0.4162
 1051HK4    H1588215   0.467   9.588   1.571 -1.0835  0.6160 -0.0826
 1051HK4    C2888216   0.349   9.493   1.716  0.7628 -0.0386  0.3631
 1051HK4    C2788217   0.285   9.375   1.760  0.2672  0.0025 -0.2284
 1051HK4    H1488218   0.227   9.376   1.853  0.7048  1.5150  0.0469
 1051HK4    C3288219   0.290   9.261   1.682 -0.1050 -0.1001 -0.1036
 1051HK4    H1688220   0.258   9.171   1.735  0.0215  0.8982  1.7024
 1051HK4    C3188221   0.356   9.261   1.559 -0.3759 -0.4091 -0.2503
 1051HK4    C3488222   0.405   9.151   1.479 -0.2341 -0.6716  0.1994
 1051HK4    C3388223   0.498   9.210   1.384 -0.3396 -0.0914  0.4613
 1051HK4    C3588224   0.564   9.126   1.296 -0.0169  0.3392  0.2881
 1051HK4    H1788225   0.624   9.170   1.217  2.9657 -1.4163  1.5018
 1051HK4    C3688226   0.543   8.989   1.310 -0.1117  0.3076 -0.1426
 1051HK4    H1888227   0.609   8.925   1.250 -2.3694 -0.1735 -2.1830
 1051HK4    C3788228   0.454   8.934   1.402 -0.1690 -0.5721 -0.7228
 1051HK4    H1988229   0.465   8.831   1.436  1.2620  0.1005  0.9405
 1051HK4    C3888230   0.380   9.014   1.488  0.1254 -0.7743 -0.2802
 1051HK4    H2088231   0.312   8.978   1.565 -0.8849  0.7067 -0.4471
 1051HK4    C1488232   0.379   9.595   1.818  0.2875  0.1253  0.3429
 1051HK4     C988233   0.399   9.567   1.953  0.3510  0.0267  0.3128
 1051HK4     C888234   0.362   9.664   2.048  0.0538 -0.0226  0.2462
 1051HK4    C1188235   0.309   9.786   2.007 -0.4286 -0.3456 -0.0841
 1051HK4     H488236   0.263   9.857   2.076 -1.0503  0.1367 -0.9811
 1051HK4    C1288237   0.284   9.814   1.873 -0.5281  0.1270  0.0328
 1051HK4     H588238   0.229   9.904   1.844  1.6298  1.6939  0.6542
 1051HK4    C1388239   0.331   9.722   1.779 -0.4295 -0.1426  0.3453
 1051HK4     H688240   0.331   9.753   1.674 -1.8628  1.6862  0.8579
 1051HK4     C788241   0.377   9.637   2.193  0.1459 -0.1415  0.2146
 1051HK4     O288242   0.360   9.725   2.277  0.4834  0.1316 -0.0030
 1051HK4     C488243   0.434   9.507   2.236 -0.1058 -0.2094  0.3461
 1051HK4     C388244   0.451   9.474   2.369 -0.6580  0.0938  0.4937
 1051HK4     H388245   0.450   9.556   2.442 -2.2823  0.0435  0.5509
 1051HK4     C288246   0.474   9.346   2.418  0.2890  0.1140  0.1092
 1051HK4     H288247   0.485   9.309   2.521  0.5203 -1.0594 -0.3191
 1051HK4     C188248   0.481   9.245   2.322  0.5606  0.2661 -0.0298
 1051HK4     H188249   0.524   9.148   2.351  1.7882  0.4336 -1.2139
 1051HK4     C688250   0.479   9.270   2.183 -0.1395 -0.0063 -0.0686
 1051HK4     C588251   0.466   9.404   2.145 -0.0266  0.0469  0.0800
 1051HK4    C1088252   0.466   9.443   2.002  0.1214 -0.2187  0.0084
 1051HK4     O188253   0.561   9.410   1.931  0.2857 -0.1853  0.2150
 1051HK4    C1688254   0.433   9.154   2.106  0.2153 -0.2078  0.0186
 1051HK4    C1588255   0.337   9.059   2.147  0.7241 -0.5241  0.4878
 1051HK4     H788256   0.270   9.089   2.230 -2.1187 -0.4055 -1.7612
 1051HK4    C2088257   0.317   8.941   2.077  0.2295  0.1073 -0.4410
 1051HK4     H988258   0.236   8.877   2.111 -2.1340  1.9864 -2.3093
 1051HK4    C1988259   0.396   8.910   1.967  0.4016  0.2825 -0.3670
 1051HK4    C1888260   0.505   8.997   1.927  0.2723  0.5966 -0.0446
 1051HK4    C1788261   0.515   9.114   2.001  0.3723  0.6887 -0.2037
 1051HK4     H888262   0.592   9.185   1.972  0.4334  0.3337 -0.9141
 1051HK4     N188263   0.582   8.934   1.827 -0.4187 -0.0751 -0.1559
 1051HK4    C2188264   0.521   8.811   1.793 -0.5370 -0.0332 -0.1047
 1051HK4    C2288265   0.406   8.795   1.880 -0.2468 -0.2382  0.2428
 1051HK4    C2688266   0.335   8.675   1.876  0.0250 -0.3957  0.0453
 1051HK4    H1388267   0.261   8.646   1.950 -1.3881  0.8968 -0.8276
 1051HK4    C2588268   0.366   8.576   1.784  0.0164 -0.5035  0.1590
 1051HK4    H1288269   0.314   8.481   1.798  1.0825 -1.2669 -0.9524
 1051HK4    C2488270   0.469   8.599   1.693 -0.4204 -0.0610 -0.2324
 1051HK4    H1188271   0.496   8.518   1.623 -1.3561  0.5306 -1.2836
 1051HK4    C2388272   0.548   8.713   1.698 -0.2086 -0.2260  0.1864
 1051HK4    H1088273   0.626   8.730   1.624  0.1581 -2.2223  0.0879
 1051HK4    C3988274   0.676   8.995   1.743 -0.3098 -0.3968 -0.2673
 1051HK4    C4188275   0.785   8.919   1.693  0.1610 -0.1860  0.4259
 1051HK4    H2188276   0.803   8.815   1.723 -0.3823  0.9799  5.2698
 1051HK4    C4288277   0.882   8.986   1.620 -0.0136  0.7681  1.0663
 1051HK4    H2288278   0.963   8.928   1.574 -1.6570  0.2868 -1.3501
 1051HK4    C4388279   0.869   9.121   1.588 -0.4231  0.4044 -0.3678
 1051HK4    H2388280   0.917   9.145   1.493 -0.2832  0.7987 -0.1999
 1051HK4    C4488281   0.760   9.195   1.634 -0.2041  0.5317 -0.0469
 1051HK4    H2488282   0.732   9.296   1.600  0.0620  0.6338  0.0356
 1051HK4    C4588283   0.666   9.132   1.713  0.6130 -0.1801  0.3717
 1051HK4    H2588284   0.573   9.190   1.730  0.8666  0.2676  0.2256
 1052HK4    H2888285   3.230   5.179   2.854  0.4503 -1.6178  1.0112
 1052HK4    C4888286   3.303   5.137   2.784  0.2715  0.1666 -0.3074
 1052HK4    C4788287   3.384   5.220   2.709 -0.1370  0.5666 -0.3091
 1052HK4    H2788288   3.366   5.328   2.717 -1.8674  0.1320  2.1943
 1052HK4    C4688289   3.483   5.164   2.630  0.0790  0.0194  0.3426
 1052HK4    H2688290   3.559   5.235   2.592 -2.8038  0.9899 -3.9879
 1052HK4    C4088291   3.504   5.025   2.619 -0.4906 -0.0240 -0.2330
 1052HK4    C5088292   3.424   4.945   2.702 -0.3583 -0.1377 -0.2156
 1052HK4    H3088293   3.429   4.835   2.690 -0.7249 -0.2692  0.7703
 1052HK4    C4988294   3.330   5.000   2.788 -0.2262  0.0695 -0.2043
 1052HK4    H2988295   3.282   4.931   2.859  2.3777 -2.4713 -0.8600
 1052HK4     N288296   3.594   4.971   2.525 -0.1236  0.1682  0.0096
 1052HK4    C3088297   3.641   5.035   2.409  0.0810 -0.1249 -0.0681
 1052HK4    C2988298   3.583   5.137   2.335 -0.2973 -0.6597 -0.5136
 1052HK4    H1588299   3.513   5.207   2.381  2.4206  1.4961  0.5040
 1052HK4    C2888300   3.643   5.182   2.217  0.0808  0.4646  0.0993
 1052HK4    C2788301   3.758   5.119   2.167 -0.1509  0.1028  0.0233
 1052HK4    H1488302   3.794   5.145   2.067  0.7665 -2.1953 -0.2808
 1052HK4    C3288303   3.819   5.017   2.240 -0.6800 -0.3548 -0.1740
 1052HK4    H1688304   3.916   4.972   2.219 -1.3414 -2.0566  0.3174
 1052HK4    C3188305   3.760   4.971   2.357  0.4678  0.0678  0.5756
 1052HK4    C3488306   3.779   4.855   2.443 -0.4223 -0.8019 -0.3874
 1052HK4    C3388307   3.684   4.866   2.552  0.0461  0.2880 -0.0865
 1052HK4    C3588308   3.689   4.779   2.660  0.2588  0.2730 -0.1060
 1052HK4    H1788309   3.629   4.795   2.750 -0.0353  2.2854 -0.6161
 1052HK4    C3688310   3.779   4.674   2.657 -0.4012 -0.2849 -0.5432
 1052HK4    H1888311   3.766   4.588   2.724 -0.0565  0.0434 -0.0536
 1052HK4    C3788312   3.866   4.658   2.550  0.3389 -0.1515  0.0339
 1052HK4    H1988313   3.910   4.558   2.537  1.5013 -0.2383  3.9608
 1052HK4    C3888314   3.870   4.751   2.447  0.0935 -0.3448 -0.1491
 1052HK4    H2088315   3.934   4.727   2.361  0.2878  0.3201 -0.1949
 1052HK4    C1488316   3.560   5.258   2.123 -0.4425 -0.1882  0.0309
 1052HK4     C988317   3.561   5.246   1.983 -0.7238 -0.3850  0.0440
 1052HK4     C888318   3.546   5.356   1.898 -0.4049 -0.4560 -0.1073
 1052HK4    C1188319   3.516   5.479   1.956 -0.4504 -0.7145  0.4156
 1052HK4     H488320   3.479   5.558   1.889 -0.0301 -0.2149  0.7712
 1052HK4    C1288321   3.511   5.492   2.094  0.0864 -0.2685  0.3905
 1052HK4     H588322   3.473   5.590   2.126 -0.3424 -0.0371 -0.8077
 1052HK4    C1388323   3.524   5.383   2.178 -0.2285 -0.2936  0.4062
 1052HK4     H688324   3.501   5.397   2.285  0.0120 -2.3292  0.7422
 1052HK4     C788325   3.579   5.353   1.753 -0.1347 -0.1334 -0.0529
 1052HK4     O288326   3.522   5.429   1.676 -0.6182  0.0799  0.5066
 1052HK4     C488327   3.655   5.233   1.709  0.4794  0.1363  0.2561
 1052HK4     C388328   3.723   5.245   1.589  0.2272 -0.4923  0.0461
 1052HK4     H388329   3.734   5.339   1.533  0.7819 -0.4700  0.1869
 1052HK4     C288330   3.784   5.133   1.533  0.7445 -0.2221  0.0627
 1052HK4     H288331   3.835   5.142   1.436  0.9961 -0.1196  0.2040
 1052HK4     C188332   3.777   5.016   1.608  0.9976 -0.1610  0.1827
 1052HK4     H188333   3.803   4.933   1.541 -0.9672  1.2203 -2.4006
 1052HK4     C688334   3.728   5.001   1.739 -0.3527 -0.1531 -0.3128
 1052HK4     C588335   3.654   5.112   1.781 -0.1842 -0.1009 -0.1496
 1052HK4    C1088336   3.595   5.116   1.918 -0.0465 -0.1477 -0.0889
 1052HK4     O188337   3.514   5.029   1.951  0.1374 -0.4133 -0.3314
 1052HK4    C1688338   3.805   4.913   1.828  0.0388  0.1609 -0.3452
 1052HK4    C1588339   3.945   4.895   1.814 -0.0277 -0.5038 -0.1964
 1052HK4     H788340   3.999   4.952   1.737  1.1221  1.0734  1.7281
 1052HK4    C2088341   4.023   4.804   1.884 -0.0925  0.1376  0.7113
 1052HK4     H988342   4.129   4.796   1.860 -0.4017 -0.0344 -0.6404
 1052HK4    C1988343   3.953   4.729   1.977 -0.4905 -0.3493  0.0239
 1052HK4    C1888344   3.809   4.737   1.996 -0.4799  0.5264 -0.2495
 1052HK4    C1788345   3.741   4.828   1.917 -0.3959  0.5773 -0.2635
 1052HK4     H888346   3.636   4.804   1.896  0.0409 -1.6957  0.0933
 1052HK4     N188347   3.756   4.639   2.082  0.0993  0.4733  0.0519
 1052HK4    C2188348   3.870   4.565   2.120 -0.2725  0.0671  0.3799
 1052HK4    C2288349   3.992   4.622   2.067 -0.2423  0.3553  0.7605
 1052HK4    C2688350   4.119   4.586   2.112 -0.0451  0.2813  0.1492
 1052HK4    H1388351   4.208   4.620   2.059  1.9009 -0.6487  2.7130
 1052HK4    C2588352   4.126   4.495   2.217  0.3733  0.2147  0.0642
 1052HK4    H1288353   4.226   4.458   2.241 -0.2292 -1.2968  0.3086
 1052HK4    C2488354   4.013   4.436   2.271  0.5443 -0.1804 -0.0091
 1052HK4    H1188355   4.013   4.363   2.354  2.6329 -0.6954 -0.4477
 1052HK4    C2388356   3.888   4.470   2.220  0.5192 -0.0334  0.1518
 1052HK4    H1088357   3.802   4.417   2.261 -0.2134 -0.1546 -1.5325
 1052HK4    C3988358   3.633   4.648   2.148  0.2913 -0.0325  0.4854
 1052HK4    C4188359   3.573   4.535   2.207 -0.5202 -0.2404 -0.7199
 1052HK4    H2188360   3.616   4.436   2.186 -0.5177 -0.4980  0.4675
 1052HK4    C4288361   3.453   4.539   2.277  0.0978 -0.5743  0.3851
 1052HK4    H2288362   3.383   4.457   2.296  0.3385 -0.9957 -0.4933
 1052HK4    C4388363   3.401   4.663   2.312  0.2887 -0.3433 -0.1400
 1052HK4    H2388364   3.339   4.662   2.401  0.9612  2.2019  0.3827
 1052HK4    C4488365   3.461   4.776   2.257  0.0636  0.1263  0.5761
 1052HK4    H2488366   3.419   4.875   2.279 -1.2175 -0.5461  1.2845
 1052HK4    C4588367   3.572   4.772   2.174 -0.3669 -0.2537  0.0064
 1052HK4    H2588368   3.610   4.870   2.140  0.4339 -0.3096  0.7287
 1053HK4    H2888369   5.661   4.822   1.452 -1.2535  2.0085 -1.6756
 1053HK4    C4888370   5.656   4.765   1.359 -0.0920 -0.6075 -0.2154
 1053HK4    C4788371   5.535   4.703   1.330 -0.2581 -0.2925 -0.1965
 1053HK4    H2788372   5.462   4.683   1.410 -1.6637  2.4864 -0.7235
 1053HK4    C4688373   5.517   4.655   1.201  0.1455  0.2271 -0.4480
 1053HK4    H2688374   5.414   4.635   1.170 -0.7052  1.7962  1.3068
 1053HK4    C4088375   5.617   4.661   1.101 -0.1828  0.1575 -0.7817
 1053HK4    C5088376   5.741   4.717   1.138 -0.2549 -0.1431 -0.0831
 1053HK4    H3088377   5.828   4.714   1.070  1.6862 -1.6647  2.3717
 1053HK4    C4988378   5.759   4.768   1.266 -0.1691  0.2992 -0.2732
 1053HK4    H2988379   5.851   4.824   1.291  0.4265 -1.5556  1.8157
 1053HK4     N288380   5.605   4.574   0.992  0.0919 -0.3415 -0.4178
 1053HK4    C3088381   5.510   4.470   0.983 -0.1550 -0.1906  0.4112
 1053HK4    C2988382   5.466   4.375   1.073  0.6876 -0.9931 -0.0131
 1053HK4    H1588383   5.537   4.378   1.156  0.4586  0.5929  0.1411
 1053HK4    C2888384   5.370   4.278   1.045 -0.4245  0.0199  0.2190
 1053HK4    C2788385   5.329   4.273   0.911  0.1497 -0.1839  0.0498
 1053HK4    H1488386   5.259   4.194   0.879 -0.6128  0.1837  0.7876
 1053HK4    C3288387   5.379   4.359   0.814 -0.1987  0.1582  0.1775
 1053HK4    H1688388   5.358   4.338   0.710  0.8590  0.1994 -0.0518
 1053HK4    C3188389   5.464   4.465   0.846  0.0627 -0.0950  0.3336
 1053HK4    C3488390   5.528   4.570   0.769  0.0937 -0.3188  0.0527
 1053HK4    C3388391   5.629   4.620   0.861  0.3496 -0.1679 -0.3108
 1053HK4    C3588392   5.715   4.716   0.809  0.4003 -0.2762 -0.4271
 1053HK4    H1788393   5.814   4.734   0.852 -0.2456  2.9794 -0.1316
 1053HK4    C3688394   5.704   4.772   0.683 -0.4367 -0.2104 -0.3297
 1053HK4    H1888395   5.749   4.869   0.655  3.9559 -2.2620 -0.8687
 1053HK4    C3788396   5.606   4.716   0.601 -0.5992  0.5297 -0.6526
 1053HK4    H1988397   5.589   4.768   0.507  0.2467 -1.6554 -2.0597
 1053HK4    C3888398   5.516   4.617   0.639  0.1058  0.2249  0.2483
 1053HK4    H2088399   5.459   4.566   0.561 -1.9185  0.3376  1.6211
 1053HK4    C1488400   5.331   4.180   1.148 -0.3871 -0.1124  0.1082
 1053HK4     C988401   5.270   4.056   1.123  0.1218 -0.3386 -0.0105
 1053HK4     C888402   5.185   3.998   1.219 -0.0640  0.0099  0.0377
 1053HK4    C1188403   5.160   4.065   1.338 -0.1785  0.7631 -0.4062
 1053HK4     H488404   5.118   4.008   1.423  1.6064  0.4187  0.2711
 1053HK4    C1288405   5.221   4.187   1.364 -0.2228  0.6999  0.0021
 1053HK4     H588406   5.212   4.236   1.462  0.6629 -0.6036  0.7572
 1053HK4    C1388407   5.312   4.241   1.274  0.0326  0.2593 -0.0081
 1053HK4     H688408   5.358   4.338   1.299  1.6506 -0.2176 -1.1024
 1053HK4     C788409   5.121   3.866   1.198  0.2580 -0.0738 -0.4066
 1053HK4     O288410   5.044   3.825   1.285  0.1778  0.2318 -0.3328
 1053HK4     C488411   5.153   3.785   1.078  0.0476 -0.5587 -0.1362
 1053HK4     C388412   5.089   3.664   1.057 -0.2849 -0.4401  0.1823
 1053HK4     H388413   5.026   3.618   1.135  1.0888 -1.4190  0.7339
 1053HK4     C288414   5.095   3.606   0.931 -0.3057 -0.0176 -0.0129
 1053HK4     H288415   5.048   3.507   0.919 -1.3948  0.5940 -0.9241
 1053HK4     C188416   5.165   3.666   0.827  0.3272 -0.0375  0.3998
 1053HK4     H188417   5.179   3.603   0.738 -1.2686  1.9143 -1.3075
 1053HK4     C688418   5.223   3.794   0.844  0.0184  0.1575 -0.0024
 1053HK4     C588419   5.226   3.846   0.974 -0.3567  0.1670  0.0021
 1053HK4    C1088420   5.304   3.967   1.009  0.4535 -0.3864  0.1244
 1053HK4     O188421   5.421   3.969   0.970  0.1256  0.2341 -0.8462
 1053HK4    C1688422   5.233   3.878   0.724 -0.3731 -0.4486 -0.4632
 1053HK4    C1588423   5.128   3.873   0.630 -0.6983 -0.3782 -0.1062
 1053HK4     H788424   5.031   3.873   0.682  0.3473 -2.1091  1.9029
 1053HK4    C2088425   5.148   3.883   0.492  0.0360  0.0075  0.0279
 1053HK4     H988426   5.062   3.876   0.426 -0.3627  3.1077  0.1022
 1053HK4    C1988427   5.276   3.911   0.447  0.0448  0.0814  0.0975
 1053HK4    C1888428   5.386   3.928   0.540  0.2457  0.4226 -0.2016
 1053HK4    C1788429   5.361   3.899   0.673 -0.4478  0.2588 -0.3654
 1053HK4     H888430   5.449   3.865   0.727 -1.8602  0.2470  2.0152
 1053HK4     N188431   5.509   3.932   0.471  0.4148 -0.3260  0.0619
 1053HK4    C2188432   5.479   3.904   0.336 -0.2942 -0.3879  0.2269
 1053HK4    C2288433   5.336   3.907   0.315 -0.2504 -0.1147 -0.0318
 1053HK4    C2688434   5.287   3.898   0.185  0.2559 -0.6972 -0.1847
 1053HK4    H1388435   5.179   3.886   0.170  0.1159 -1.1552  1.1013
 1053HK4    C2588436   5.370   3.872   0.077  0.7062 -0.0093 -0.0030
 1053HK4    H1288437   5.337   3.848  11.224 -0.7787  0.6767  0.3042
 1053HK4    C2488438   5.507   3.870   0.102  0.6424  0.4697  0.3987
 1053HK4    H1188439   5.571   3.865   0.012 -0.2680 -0.2899 -0.2206
 1053HK4    C2388440   5.564   3.888   0.227  0.3054  0.7100  0.5193
 1053HK4    H1088441   5.672   3.878   0.235  0.2953 -1.5241 -1.5466
 1053HK4    C3988442   5.618   4.010   0.512 -0.3757  0.7065  0.2358
 1053HK4    C4188443   5.749   3.996   0.461 -0.3730 -0.5651  0.5605
 1053HK4    H2188444   5.762   3.902   0.406  0.6239 -0.8493  1.2800
 1053HK4    C4288445   5.851   4.087   0.482 -0.6417  0.0400 -0.7176
 1053HK4    H2288446   5.943   4.082   0.421 -0.4012  1.2196 -0.4715
 1053HK4    C4388447   5.823   4.199   0.560  0.2046 -0.3391  0.1369
 1053HK4    H2388448   5.902   4.270   0.583  0.0288 -0.1273  0.0812
 1053HK4    C4488449   5.695   4.221   0.610  0.4155 -0.4966  0.7511
 1053HK4    H2488450   5.674   4.323   0.648  1.8946  0.3883 -0.7171
 1053HK4    C4588451   5.598   4.124   0.592 -0.5603  0.5133  0.4663
 1053HK4    H2588452   5.502   4.136   0.643 -0.0973 -1.5834  1.9136
 1054HK4    H2888453   2.439   0.284   0.629  1.6268  1.2813  0.4783
 1054HK4    C4888454   2.474   0.212   0.702  0.3916  0.2319  0.0437
 1054HK4    C4788455   2.586   0.236   0.781  0.6732 -0.0831 -0.2587
 1054HK4    H2788456   2.654   0.317   0.753  1.2804 -1.3434 -2.5665
 1054HK4    C4688457   2.621   0.145   0.881 -0.1002  0.0308  0.1225
 1054HK4    H2688458   2.727   0.146   0.911  0.5804  0.6826 -2.1570
 1054HK4    C4088459   2.552   0.024   0.902 -0.1925  0.0294 -0.1917
 1054HK4    C5088460   2.435   0.009   0.824 -0.5864  0.2387  0.3517
 1054HK4    H3088461   2.384  11.159   0.826 -0.3420  0.0408 -1.6478
 1054HK4    C4988462   2.396   0.099   0.725  0.4450  0.1566 -0.1437
 1054HK4    H2988463   2.291   0.104   0.691  0.5446  3.7741 -0.0771
 1054HK4     N288464   2.582  11.173   0.996 -0.5364  0.3393  0.2468
 1054HK4    C3088465   2.643  11.196   1.121  0.2786  0.2625 -0.1337
 1054HK4    C2988466   2.676   0.070   1.179  0.2232  0.1984  0.0322
 1054HK4    H1588467   2.635   0.164   1.142  2.0134  0.5176 -1.1938
 1054HK4    C2888468   2.746   0.076   1.299 -0.1219 -0.1430  0.2502
 1054HK4    C2788469   2.774  11.202   1.364 -0.3535 -0.0485  0.5286
 1054HK4    H1488470   2.838  11.200   1.454  2.8741  0.8706 -1.6573
 1054HK4    C3288471   2.744  11.077   1.310  0.3724  0.1797 -0.4248
 1054HK4    H1688472   2.756  10.984   1.365  1.8757  0.9877  0.6770
 1054HK4    C3188473   2.683  11.073   1.186 -0.0577  0.1107 -0.2118
 1054HK4    C3488474   2.663  10.973   1.083  0.6363  0.0621 -0.3026
 1054HK4    C3388475   2.605  11.038   0.966  0.3938  0.5316  0.0744
 1054HK4    C3588476   2.597  10.960   0.851 -0.5805  0.4098  0.2255
 1054HK4    H1788477   2.542  10.996   0.764 -2.2105  0.7538  1.3773
 1054HK4    C3688478   2.644  10.829   0.850  0.1391  0.6656  0.2974
 1054HK4    H1888479   2.636  10.771   0.756 -0.9736 -0.0293  0.8123
 1054HK4    C3788480   2.703  10.770   0.961  0.5771  0.1503 -0.2002
 1054HK4    H1988481   2.745  10.670   0.960  0.8266  0.2165  1.4105
 1054HK4    C3888482   2.704  10.840   1.081  0.2586 -0.0590 -0.0759
 1054HK4    H2088483   2.745  10.790   1.169 -0.0199 -2.0283 -1.0478
 1054HK4    C1488484   2.836   0.191   1.313 -0.1498 -0.1516  0.5052
 1054HK4     C988485   2.970   0.181   1.354 -0.0386  0.0713  0.1951
 1054HK4     C888486   3.026   0.290   1.424  0.3267  0.1831 -0.2650
 1054HK4    C1188487   2.948   0.397   1.466  0.4152  0.1052  0.0986
 1054HK4     H488488   2.988   0.465   1.543  1.6941  0.1444 -0.5789
 1054HK4    C1288489   2.817   0.412   1.421  0.3731 -0.1537  0.1322
 1054HK4     H588490   2.764   0.503   1.453 -0.8775 -0.4525 -1.0395
 1054HK4    C1388491   2.766   0.310   1.342  0.0192  0.0500  0.0966
 1054HK4     H688492   2.680   0.335   1.279  1.3528 -1.1795 -2.2792
 1054HK4     C788493   3.170   0.285   1.455  0.2441  0.2602  0.1357
 1054HK4     O288494   3.218   0.370   1.530  0.1846  0.4600 -0.0536
 1054HK4     C488495   3.251   0.169   1.412 -0.1863  0.1438 -0.3667
 1054HK4     C388496   3.389   0.168   1.434 -0.2330 -0.2246 -0.0624
 1054HK4     H388497   3.437   0.267   1.441 -2.5231  0.9178  0.1948
 1054HK4     C288498   3.459   0.048   1.431 -0.3343 -0.2703 -0.6974
 1054HK4     H288499   3.558   0.058   1.478 -0.5025  0.8003 -0.5532
 1054HK4     C188500   3.393  11.179   1.396 -0.2367 -0.8219  0.9223
 1054HK4     H188501   3.456  11.090   1.412  1.4851  0.3502  0.6781
 1054HK4     C688502   3.254  11.172   1.372 -0.0817  0.1554 -0.3134
 1054HK4     C588503   3.188   0.047   1.379 -0.0769  0.1767 -0.6908
 1054HK4    C1088504   3.053   0.063   1.317 -0.4055 -0.1132 -0.0467
 1054HK4     O188505   3.045   0.019   1.203  0.6521 -0.2486 -0.0713
 1054HK4    C1688506   3.204  11.035   1.359  0.0561  0.1271 -0.5436
 1054HK4    C1588507   3.090  10.992   1.430  0.1756  0.3977 -0.1904
 1054HK4     H788508   3.054  11.054   1.513 -3.4512 -1.2449 -0.4344
 1054HK4    C2088509   3.031  10.867   1.413 -0.0137  0.4680 -0.0670
 1054HK4     H988510   2.939  10.836   1.463  0.9118 -2.1345  0.1232
 1054HK4    C1988511   3.094  10.773   1.332  0.1183  0.1761  0.3733
 1054HK4    C1888512   3.214  10.813   1.263  0.2042 -0.3749  0.1998
 1054HK4    C1788513   3.265  10.942   1.275  0.4634 -0.4985  0.4413
 1054HK4     H888514   3.350  10.971   1.214 -1.2446  2.9695 -0.4113
 1054HK4     N188515   3.237  10.713   1.166  0.3289 -0.4507  0.3075
 1054HK4    C2188516   3.131  10.620   1.165  0.2860 -0.4027  0.3619
 1054HK4    C2288517   3.039  10.652   1.272  0.1114  0.3727 -0.0188
 1054HK4    C2688518   2.924  10.579   1.297  0.3223 -0.0528 -0.2865
 1054HK4    H1388519   2.847  10.623   1.360  1.6893  1.7430  0.1804
 1054HK4    C2588520   2.897  10.468   1.218 -0.4063 -0.2602  0.2454
 1054HK4    H1288521   2.800  10.419   1.223  0.9854 -3.0137  1.5207
 1054HK4    C2488522   2.984  10.429   1.116  0.5099 -0.1131  0.9625
 1054HK4    H1188523   2.952  10.338   1.063 -0.2849  0.3922  0.5618
 1054HK4    C2388524   3.100  10.503   1.096  0.3569 -0.1502 -0.0965
 1054HK4    H1088525   3.179  10.457   1.036  1.4107 -0.1674  1.2680
 1054HK4    C3988526   3.367  10.681   1.126  0.1936 -0.0985 -0.4148
 1054HK4    C4188527   3.389  10.597   1.015  0.0995  0.7791 -1.1064
 1054HK4    H2188528   3.323  10.610   0.928  0.3624  1.7124 -1.1680
 1054HK4    C4288529   3.485  10.497   1.012 -0.2314  0.3967  0.6214
 1054HK4    H2288530   3.490  10.430   0.925  2.8188  0.9773  0.2845
 1054HK4    C4388531   3.571  10.481   1.120  0.7050  0.2810 -0.1363
 1054HK4    H2388532   3.629  10.390   1.131 -0.8431 -0.7004  0.0577
 1054HK4    C4488533   3.561  10.573   1.224  0.1349  0.2123 -0.1320
 1054HK4    H2488534   3.642  10.576   1.299 -0.1514  0.0031  0.1843
 1054HK4    C4588535   3.463  10.671   1.229 -0.3417 -0.2713  0.0697
 1054HK4    H2588536   3.462  10.757   1.297 -3.0834 -0.3629  0.2036
 1055HK4    H2888537   2.671   2.111   9.638 -1.6345  0.0906 -0.7372
 1055HK4    C4888538   2.672   2.045   9.724 -0.3509  0.4010 -0.5027
 1055HK4    C4788539   2.608   2.083   9.841  0.9092  0.6182  0.1304
 1055HK4    H2788540   2.571   2.185   9.858 -2.0154 -0.5216  0.9460
 1055HK4    C4688541   2.603   1.992   9.946  0.4445  0.0791 -0.3496
 1055HK4    H2688542   2.557   2.030  10.038  2.2130 -0.4994  0.8073
 1055HK4    C4088543   2.663   1.865   9.933 -0.4525 -0.3373 -0.4103
 1055HK4    C5088544   2.731   1.836   9.813 -0.1863 -0.0284 -0.3347
 1055HK4    H3088545   2.776   1.736   9.799  2.2247  0.6267  2.3421
 1055HK4    C4988546   2.740   1.925   9.707 -0.0506  0.4854  0.1063
 1055HK4    H2988547   2.779   1.886   9.612  2.4248 -2.1027  2.0647
 1055HK4     N288548   2.645   1.760  10.024  0.1456 -0.0102  0.0876
 1055HK4    C3088549   2.539   1.760  10.118 -0.0562  0.0972 -0.1388
 1055HK4    C2988550   2.408   1.802  10.101 -0.0456  0.1562 -0.0761
 1055HK4    H1588551   2.387   1.868  10.017 -0.5527 -0.3413 -0.3439
 1055HK4    C2888552   2.305   1.763  10.185 -0.1015 -0.3940 -0.3979
 1055HK4    C2788553   2.346   1.683  10.295 -0.2303 -0.1065 -0.1397
 1055HK4    H1488554   2.272   1.628  10.354  1.0873 -0.1212  1.5218
 1055HK4    C3288555   2.478   1.652  10.325 -0.1285 -0.1950 -0.6797
 1055HK4    H1688556   2.497   1.574  10.399  2.4713  0.7168 -0.3302
 1055HK4    C3188557   2.578   1.681  10.233  0.0778 -0.3802 -0.5084
 1055HK4    C3488558   2.710   1.626  10.208  0.0887 -0.4553 -0.2863
 1055HK4    C3388559   2.750   1.687  10.082  0.2789  0.1646  0.0674
 1055HK4    C3588560   2.885   1.683  10.049  0.1842 -0.1385 -0.2855
 1055HK4    H1788561   2.916   1.738   9.961  2.5187 -0.2726  0.4219
 1055HK4    C3688562   2.978   1.609  10.121  0.2423  0.5531  0.3612
 1055HK4    H1888563   3.088   1.613  10.109  0.0270  0.9942 -1.7457
 1055HK4    C3788564   2.933   1.543  10.234  0.0917  0.3886  0.2066
 1055HK4    H1988565   2.999   1.479  10.292 -0.3670  0.6219  1.0053
 1055HK4    C3888566   2.803   1.553  10.282  0.2726  0.6909  0.6367
 1055HK4    H2088567   2.773   1.490  10.366  0.1633  0.2387  0.2588
 1055HK4    C1488568   2.170   1.821  10.190  0.2758  0.4255  0.4351
 1055HK4     C988569   2.089   1.833  10.303 -0.3341 -0.5248  0.1074
 1055HK4     C888570   1.949   1.831  10.289 -0.3048 -0.1312 -0.2495
 1055HK4    C1188571   1.897   1.824  10.161 -0.0447  0.0332 -0.3641
 1055HK4     H488572   1.790   1.806  10.141 -0.8634  2.9219  1.1907
 1055HK4    C1288573   1.976   1.829  10.047 -0.0041  0.0122 -0.3346
 1055HK4     H588574   1.937   1.843   9.945 -0.3212  4.9676  0.3728
 1055HK4    C1388575   2.114   1.827  10.060 -0.0915 -0.3970  0.5515
 1055HK4     H688576   2.177   1.802   9.973 -0.8495  0.0691 -0.1357
 1055HK4     C788577   1.859   1.829  10.406  0.1384  0.5313  0.1063
 1055HK4     O288578   1.748   1.882  10.401 -0.1878 -0.1429  0.2051
 1055HK4     C488579   1.924   1.803  10.537  0.4540 -0.0419 -0.1645
 1055HK4     C388580   1.844   1.760  10.641  0.0715 -0.1645 -0.5085
 1055HK4     H388581   1.736   1.739  10.630 -0.5904  2.3400  0.9481
 1055HK4     C288582   1.900   1.731  10.765  0.5408  0.4369 -0.5776
 1055HK4     H288583   1.836   1.702  10.850  3.6157 -0.5862  1.4369
 1055HK4     C188584   2.038   1.739  10.779  0.4792 -0.0928  0.3931
 1055HK4     H188585   2.082   1.706  10.874 -0.2406 -1.5123  0.2464
 1055HK4     C688586   2.123   1.780  10.675  0.2382 -0.7418 -0.0594
 1055HK4     C588587   2.063   1.822  10.556  0.4076  0.0157  0.1183
 1055HK4    C1088588   2.148   1.856  10.438 -0.0438  0.2472 -0.1425
 1055HK4     O188589   2.225   1.950  10.449  0.0122  0.2147 -0.2618
 1055HK4    C1688590   2.257   1.720  10.679  0.4061 -0.3475  0.2541
 1055HK4    C1588591   2.273   1.589  10.727 -0.2829 -0.5697 -0.1167
 1055HK4     H788592   2.181   1.531  10.745 -1.5462  0.8988 -1.7654
 1055HK4    C2088593   2.400   1.534  10.742  0.0021  0.2224  0.3712
 1055HK4     H988594   2.412   1.431  10.775 -2.5540  0.0178  0.7262
 1055HK4    C1988595   2.513   1.604  10.699 -0.1058 -0.3596 -0.8992
 1055HK4    C1888596   2.498   1.744  10.663  0.1837 -0.1216 -0.1167
 1055HK4    C1788597   2.370   1.798  10.654  0.1602 -0.2583 -0.5987
 1055HK4     H888598   2.366   1.906  10.662 -3.4802 -0.1905 -2.3729
 1055HK4     N188599   2.626   1.798  10.639  0.2344 -0.0450  0.3267
 1055HK4    C2188600   2.723   1.698  10.659  0.2455  0.0929  0.9964
 1055HK4    C2288601   2.654   1.574  10.687 -0.0705 -0.1911 -0.9098
 1055HK4    C2688602   2.725   1.455  10.678  0.3852  0.0123 -0.0996
 1055HK4    H1388603   2.656   1.370  10.671  0.2877 -0.1038  1.8146
 1055HK4    C2588604   2.860   1.449  10.649  0.3710 -0.1689 -0.1284
 1055HK4    H1288605   2.919   1.357  10.656  1.1786  0.1625 -2.1344
 1055HK4    C2488606   2.925   1.566  10.611  0.2914 -0.0537  0.0898
 1055HK4    H1188607   3.021   1.563  10.556 -0.8513  1.2891 -2.0652
 1055HK4    C2388608   2.857   1.686  10.621 -0.2024 -0.2756 -0.5265
 1055HK4    H1088609   2.906   1.772  10.576 -0.3658  0.8693  1.4120
 1055HK4    C3988610   2.646   1.925  10.585  0.1168 -0.1156  0.1154
 1055HK4    C4188611   2.765   1.992  10.622  0.3027 -0.1727 -0.3751
 1055HK4    H2188612   2.815   1.980  10.719  0.1558 -0.2218 -0.3044
 1055HK4    C4288613   2.807   2.110  10.563  0.3894 -0.3070 -0.5813
 1055HK4    H2288614   2.900   2.160  10.593  0.4878 -0.9070  0.1298
 1055HK4    C4388615   2.724   2.164  10.465 -0.1526  0.0402  0.0659
 1055HK4    H2388616   2.745   2.260  10.418 -0.5339 -0.0817 -0.3580
 1055HK4    C4488617   2.611   2.098  10.418 -0.2503  0.2315  0.0342
 1055HK4    H2488618   2.540   2.142  10.347  1.7131  1.6105 -1.1236
 1055HK4    C4588619   2.570   1.981  10.481  0.3749 -0.0226 -0.0262
 1055HK4    H2588620   2.468   1.940  10.474 -0.0304  0.3882  2.9824
 1056HK4    H2888621   5.078   9.991   7.424 -0.7506  0.3772 -1.0326
 1056HK4    C4888622   5.003   9.913   7.432 -0.1552 -0.1043 -0.0947
 1056HK4    C4788623   4.900   9.923   7.526  0.0510  0.3313  0.0868
 1056HK4    H2788624   4.872  10.022   7.563 -0.6129  1.7273 -3.9530
 1056HK4    C4688625   4.807   9.822   7.545 -0.2623  0.4624 -0.7548
 1056HK4    H2688626   4.743   9.828   7.634  1.0290  1.2984  0.1310
 1056HK4    C4088627   4.819   9.703   7.469 -0.3787  0.0733 -0.1621
 1056HK4    C5088628   4.924   9.694   7.376  0.1608  0.2773  0.4222
 1056HK4    H3088629   4.937   9.597   7.325 -1.3647  0.5540 -0.4930
 1056HK4    C4988630   5.019   9.794   7.362  0.3862 -0.0089 -0.1313
 1056HK4    H2988631   5.123   9.767   7.339  0.7658  1.5138 -0.3096
 1056HK4     N288632   4.766   9.582   7.517  0.3760 -0.2368 -0.1044
 1056HK4    C3088633   4.740   9.545   7.650 -0.2193 -0.7685 -0.3694
 1056HK4    C2988634   4.794   9.587   7.771 -0.8464 -0.0477 -0.3298
 1056HK4    H1588635   4.897   9.623   7.771  0.3166 -3.1463  1.7852
 1056HK4    C2888636   4.758   9.524   7.890  0.3834 -0.0635  0.0417
 1056HK4    C2788637   4.660   9.423   7.887  0.8627 -0.5341  0.0521
 1056HK4    H1488638   4.648   9.363   7.979 -0.4756 -0.1954  0.1162
 1056HK4    C3288639   4.604   9.374   7.770 -0.3137 -0.1895  0.4671
 1056HK4    H1688640   4.536   9.289   7.767 -0.2937 -0.2199  0.9784
 1056HK4    C3188641   4.644   9.436   7.652 -1.2004  0.0931  0.3065
 1056HK4    C3488642   4.626   9.387   7.517  0.0587  0.3769  0.0280
 1056HK4    C3388643   4.697   9.487   7.439 -0.1711  0.2966 -0.2823
 1056HK4    C3588644   4.690   9.472   7.301 -0.2476  0.0114 -0.2493
 1056HK4    H1788645   4.743   9.542   7.236  0.2772 -1.6345 -1.6372
 1056HK4    C3688646   4.637   9.357   7.244  0.6392 -0.6014  0.1381
 1056HK4    H1888647   4.643   9.342   7.136 -1.9523 -0.4591 -0.0566
 1056HK4    C3788648   4.574   9.259   7.320  0.1085 -0.2993  0.0937
 1056HK4    H1988649   4.540   9.169   7.268  1.4049 -1.3512  1.0359
 1056HK4    C3888650   4.568   9.276   7.458  1.0431 -0.1993  0.1285
 1056HK4    H2088651   4.524   9.199   7.521 -0.3875  0.2295 -0.3328
 1056HK4    C1488652   4.836   9.538   8.014  0.2720  0.2598  0.0756
 1056HK4     C988653   4.844   9.444   8.117 -0.8788 -0.5651 -0.5682
 1056HK4     C888654   4.828   9.488   8.250  1.0329 -0.5349 -0.3430
 1056HK4    C1188655   4.818   9.624   8.275 -0.8699 -0.6478 -0.4732
 1056HK4     H488656   4.824   9.662   8.378 -0.7880 -1.2914 -0.2402
 1056HK4    C1288657   4.835   9.719   8.176 -0.3298 -0.2406  0.0044
 1056HK4     H588658   4.842   9.825   8.206 -1.5616  0.2873 -1.4577
 1056HK4    C1388659   4.832   9.675   8.044  0.3715  0.3240 -0.2050
 1056HK4     H688660   4.830   9.752   7.965  2.8787  1.4451  0.7636
 1056HK4     C788661   4.858   9.393   8.360 -0.3327 -0.6283 -0.0549
 1056HK4     O288662   4.791   9.404   8.462 -0.2445  0.0555 -0.0689
 1056HK4     C488663   4.932   9.268   8.335 -0.1189 -0.4152 -0.4928
 1056HK4     C388664   4.937   9.169   8.433 -0.2264  0.0430 -0.0249
 1056HK4     H388665   4.869   9.174   8.519 -0.7878 -0.5178 -0.4354
 1056HK4     C288666   5.018   9.057   8.417  0.3029  0.4149  0.0133
 1056HK4     H288667   5.052   8.998   8.503  0.3226  1.5482  0.7824
 1056HK4     C188668   5.080   9.045   8.293  0.4091 -0.1790  0.1207
 1056HK4     H188669   5.147   8.958   8.277  1.9328  0.6267  1.8797
 1056HK4     C688670   5.067   9.132   8.183  0.3472  0.0539  0.3166
 1056HK4     C588671   4.985   9.243   8.206  0.2439  0.1411 -0.4518
 1056HK4    C1088672   4.923   9.319   8.094  0.6611  0.3865 -0.5193
 1056HK4     O188673   4.911   9.260   7.987  0.5029 -0.6087  0.0454
 1056HK4    C1688674   5.138   9.094   8.061 -0.4785  0.3804 -0.2671
 1056HK4    C1588675   5.175   8.960   8.038  0.0647  0.4894 -0.0221
 1056HK4     H788676   5.121   8.872   8.076 -1.3507  1.2237 -0.2717
 1056HK4    C2088677   5.274   8.923   7.947 -0.2690  0.0069 -0.1920
 1056HK4     H988678   5.303   8.819   7.930 -1.2417 -0.3252  0.1425
 1056HK4    C1988679   5.330   9.023   7.869  0.3399  0.0866  0.3416
 1056HK4    C1888680   5.285   9.160   7.885 -0.0448  0.0180 -0.1287
 1056HK4    C1788681   5.197   9.196   7.986  0.1805  0.2063  0.0038
 1056HK4     H888682   5.196   9.303   8.005  0.7851  0.2536 -0.2237
 1056HK4     N188683   5.353   9.247   7.797 -0.3969  0.1085 -0.3115
 1056HK4    C2188684   5.440   9.168   7.718 -0.2377  0.0736 -0.1004
 1056HK4    C2288685   5.438   9.033   7.774 -0.2848 -0.0464 -0.3866
 1056HK4    C2688686   5.529   8.943   7.720  0.0150 -0.0709  0.1630
 1056HK4    H1388687   5.541   8.841   7.757  2.9630 -0.4034 -1.4829
 1056HK4    C2588688   5.617   8.982   7.619 -0.5569  0.2398 -0.2175
 1056HK4    H1288689   5.694   8.909   7.594 -1.7500 -1.5062  1.0370
 1056HK4    C2488690   5.608   9.106   7.559  0.6350  0.5665  0.2831
 1056HK4    H1188691   5.684   9.138   7.485  1.7264 -0.4386  0.9480
 1056HK4    C2388692   5.524   9.202   7.614  0.6084  0.3253  0.6600
 1056HK4    H1088693   5.549   9.305   7.586 -0.7019  0.4291 -0.1954
 1056HK4    C3988694   5.320   9.380   7.769 -0.1184  0.3664  0.5664
 1056HK4    C4188695   5.413   9.475   7.723 -0.1590  0.0336 -0.2166
 1056HK4    H2188696   5.516   9.470   7.764 -0.5656  0.6736  0.8919
 1056HK4    C4288697   5.392   9.594   7.654 -0.0908 -0.0601 -0.4008
 1056HK4    H2288698   5.471   9.655   7.609  2.3324 -2.6346  0.1795
 1056HK4    C4388699   5.258   9.625   7.638  0.0569  0.5358 -0.4910
 1056HK4    H2388700   5.219   9.715   7.590 -0.7206  1.4886  1.8660
 1056HK4    C4488701   5.160   9.540   7.688  0.6833  0.2904  0.3392
 1056HK4    H2488702   5.056   9.565   7.661 -0.2304 -1.6429  2.0026
 1056HK4    C4588703   5.185   9.417   7.746 -0.1504  0.1014  0.3094
 1056HK4    H2588704   5.108   9.350   7.786  0.7202 -1.4626 -0.5921
 1057HK4    H2888705   0.102   0.632   3.310 -0.9538  3.0330  0.5872
 1057HK4    C4888706   0.077   0.657   3.207 -0.3279  0.4644 -0.2187
 1057HK4    C4788707   0.095   0.793   3.183  0.3419  0.3686 -0.2648
 1057HK4    H2788708   0.141   0.855   3.261  1.4265  0.7476 -1.1993
 1057HK4    C4688709   0.060   0.842   3.058  0.0187  0.8266  0.0058
 1057HK4    H2688710   0.089   0.946   3.037  0.5950  1.0280  1.7164
 1057HK4    C4088711   0.011   0.756   2.957 -0.4532  0.7903  0.2636
 1057HK4    C5088712   0.004   0.618   2.985 -0.4663  0.7613  0.1141
 1057HK4    H3088713  11.227   0.543   2.908  2.0377  1.5476 -1.5453
 1057HK4    C4988714   0.037   0.566   3.109  0.5027  0.2353 -0.3484
 1057HK4    H2988715   0.044   0.457   3.118 -1.0738  0.0559 -1.0502
 1057HK4     N288716  11.231   0.801   2.828  0.0755 -0.2819 -0.2339
 1057HK4    C3088717  11.139   0.731   2.747  0.0669 -0.2175 -0.2783
 1057HK4    C2988718  11.014   0.676   2.775  0.2988 -0.5424  0.1305
 1057HK4    H1588719  10.993   0.638   2.875 -0.2041  0.8453  0.5511
 1057HK4    C2888720  10.918   0.643   2.680  0.2074  0.4596 -0.1223
 1057HK4    C2788721  10.958   0.648   2.545 -0.0376  0.3209 -0.1996
 1057HK4    H1488722  10.915   0.564   2.488 -0.1240 -0.6220  1.2289
 1057HK4    C3288723  11.078   0.709   2.512 -0.0848  0.4308 -0.1709
 1057HK4    H1688724  11.114   0.716   2.409 -0.1884 -2.1047 -0.4150
 1057HK4    C3188725  11.168   0.756   2.607  0.0144  0.2980 -0.1990
 1057HK4    C3488726   0.031   0.849   2.606  0.7235 -0.5391 -0.2290
 1057HK4    C3388727   0.066   0.877   2.743  0.1154 -0.2192 -0.1371
 1057HK4    C3588728   0.181   0.950   2.773  0.0430 -0.2262  0.1657
 1057HK4    H1788729   0.225   0.952   2.872 -0.2194 -0.1771  0.2811
 1057HK4    C3688730   0.260   0.998   2.669 -0.6071  0.3446 -0.0692
 1057HK4    H1888731   0.355   1.051   2.686 -0.0942 -0.3775 -0.6685
 1057HK4    C3788732   0.226   0.971   2.537  0.1603 -0.3231 -0.1411
 1057HK4    H1988733   0.307   0.985   2.466 -0.0620  0.7097 -0.2102
 1057HK4    C3888734   0.107   0.906   2.505  0.1612 -0.1719 -0.4494
 1057HK4    H2088735   0.074   0.888   2.402 -0.9500  1.4822 -0.3983
 1057HK4    C1488736  10.777   0.662   2.719  0.1368 -0.1851 -0.0570
 1057HK4     C988737  10.677   0.726   2.645 -0.4720 -1.3549 -0.2459
 1057HK4     C888738  10.561   0.770   2.712  0.3127  0.0933  0.1722
 1057HK4    C1188739  10.544   0.745   2.848 -0.2852 -0.3138  0.0217
 1057HK4     H488740  10.452   0.778   2.900 -1.5424  0.2706 -2.4820
 1057HK4    C1288741  10.633   0.670   2.923 -0.3774 -0.1537  0.2915
 1057HK4     H588742  10.614   0.629   3.024  2.0261  0.9612  1.2464
 1057HK4    C1388743  10.749   0.635   2.854 -0.7895 -0.3792 -0.2901
 1057HK4     H688744  10.809   0.557   2.903 -0.1332 -0.2955 -0.9602
 1057HK4     C788745  10.476   0.874   2.652 -0.0472 -0.4441 -0.2574
 1057HK4     O288746  10.362   0.891   2.695  0.4621  0.4020  0.8123
 1057HK4     C488747  10.522   0.939   2.527  0.3028  0.2015  0.1985
 1057HK4     C388748  10.471   1.062   2.488 -0.0784 -0.0967 -0.2460
 1057HK4     H388749  10.417   1.124   2.561  1.2931  0.1593  0.5611
 1057HK4     C288750  10.521   1.130   2.378  0.9925  0.6348  0.6925
 1057HK4     H288751  10.479   1.229   2.353 -0.9528 -0.5710 -0.9737
 1057HK4     C188752  10.624   1.066   2.310 -0.0793  0.2874 -0.6263
 1057HK4     H188753  10.679   1.130   2.238  0.1334  2.4539  1.3960
 1057HK4     C688754  10.668   0.934   2.332 -0.0376  0.3777 -0.1745
 1057HK4     C588755  10.618   0.873   2.448  0.2849  0.4264 -0.0100
 1057HK4    C1088756  10.689   0.752   2.499  0.2323  0.4514  0.1237
 1057HK4     O188757  10.684   0.647   2.436 -0.5953  0.3321  0.3831
 1057HK4    C1688758  10.728   0.871   2.214  0.2034  0.1105  0.0881
 1057HK4    C1588759  10.702   0.913   2.082  0.4497  0.0937  0.0329
 1057HK4     H788760  10.599   0.950   2.068  0.4382 -0.0280 -0.2078
 1057HK4    C2088761  10.776   0.887   1.967  0.0627  0.2734 -0.2598
 1057HK4     H988762  10.751   0.921   1.867  0.5560 -0.9706 -0.8126
 1057HK4    C1988763  10.886   0.804   1.981 -0.1906 -0.0566 -0.2029
 1057HK4    C1888764  10.920   0.754   2.113  0.4514  0.9145  0.0103
 1057HK4    C1788765  10.844   0.794   2.222  0.4982  0.5655  0.1734
 1057HK4     H888766  10.899   0.777   2.314  1.8015 -0.1577 -0.7225
 1057HK4     N188767  11.032   0.668   2.107 -0.1387  0.1056  0.4807
 1057HK4    C2188768  11.064   0.663   1.970  0.1763  0.0793  0.5544
 1057HK4    C2288769  10.978   0.745   1.886  0.2762 -0.1058  0.2740
 1057HK4    C2688770  11.019   0.779   1.757 -0.2410 -0.1692  0.0932
 1057HK4    H1388771  10.943   0.819   1.690 -1.3302 -1.7406  0.3627
 1057HK4    C2588772  11.145   0.749   1.708 -0.0292  1.0012 -0.0913
 1057HK4    H1288773  11.185   0.792   1.616 -0.7765 -0.0891 -0.9414
 1057HK4    C2488774  11.223   0.664   1.786 -0.7036 -0.0281 -0.5266
 1057HK4    H1188775   0.071   0.623   1.751  0.7829  0.2637  3.0018
 1057HK4    C2388776  11.179   0.616   1.909 -0.0239  0.4306 -0.0975
 1057HK4    H1088777  11.234   0.534   1.955 -2.8734 -2.0121 -0.9352
 1057HK4    C3988778  11.061   0.565   2.198  0.0733 -0.2099  0.0536
 1057HK4    C4188779  11.187   0.504   2.206  0.1007 -0.0381  0.9264
 1057HK4    H2188780   0.024   0.560   2.165 -0.1320 -1.2991 -1.3166
 1057HK4    C4288781  11.211   0.382   2.269 -0.4148 -0.3420  0.5372
 1057HK4    H2288782   0.055   0.324   2.255  2.3428  3.2931  2.5512
 1057HK4    C4388783  11.107   0.318   2.335 -0.5497 -1.1228 -0.4248
 1057HK4    H2388784  11.129   0.238   2.406  1.5299  1.0394  1.4574
 1057HK4    C4488785  10.979   0.371   2.330  0.0047  0.2748 -0.0219
 1057HK4    H2488786  10.894   0.312   2.368  1.0256 -1.1516  0.0397
 1057HK4    C4588787  10.958   0.487   2.255 -0.3288 -0.1092 -0.5239
 1057HK4    H2588788  10.857   0.524   2.236  0.0396 -0.1055 -2.5853
 1058HK4    H2888789   5.592  11.072   7.564 -0.1580 -1.2837  0.2915
 1058HK4    C4888790   5.577  11.139   7.649  0.6680 -1.1573  0.3450
 1058HK4    C4788791   5.444  11.155   7.686  0.6852  0.6139 -0.2886
 1058HK4    H2788792   5.356  11.103   7.644 -1.7404  2.7681  1.9384
 1058HK4    C4688793   5.397  11.246   7.780  0.4119 -0.2543  0.4156
 1058HK4    H2688794   5.288   0.011   7.779  0.3619 -0.7198 -0.3899
 1058HK4    C4088795   5.491   0.086   7.836  0.0768  0.5266 -0.2454
 1058HK4    C5088796   5.626   0.070   7.799 -0.0136  0.7973 -0.6974
 1058HK4    H3088797   5.696   0.152   7.823 -0.6505  1.2861 -0.4969
 1058HK4    C4988798   5.671  11.219   7.712 -0.1448 -0.1219  0.2610
 1058HK4    H2988799   5.776  11.212   7.680  0.8757  0.0130  3.4349
 1058HK4     N288800   5.455   0.172   7.941 -0.0990  0.1713 -0.0118
 1058HK4    C3088801   5.347   0.149   8.027  0.2012  0.4316  0.4370
 1058HK4    C2988802   5.316   0.047   8.117  0.2567  0.2703  0.2726
 1058HK4    H1588803   5.396  11.222   8.133  1.8740  1.6724 -1.0877
 1058HK4    C2888804   5.203   0.047   8.197  0.1260 -0.1596  0.0900
 1058HK4    C2788805   5.125   0.165   8.195 -0.1396 -0.3334  0.1538
 1058HK4    H1488806   5.024   0.163   8.237  0.3313 -1.0768  1.2682
 1058HK4    C3288807   5.153   0.281   8.124 -0.3787 -0.1862  0.2972
 1058HK4    H1688808   5.117   0.381   8.146 -1.1735 -0.7718  1.6738
 1058HK4    C3188809   5.264   0.267   8.040 -0.1039  0.2012  0.5930
 1058HK4    C3488810   5.331   0.366   7.958 -0.1565 -0.1410  0.1386
 1058HK4    C3388811   5.454   0.309   7.906 -0.2193  0.1022 -0.2816
 1058HK4    C3588812   5.547   0.391   7.842 -0.2292  0.2153 -0.1500
 1058HK4    H1788813   5.643   0.347   7.815 -0.1885  0.0684  0.2332
 1058HK4    C3688814   5.526   0.526   7.816 -0.6808  0.1344 -0.2190
 1058HK4    H1888815   5.602   0.583   7.761 -0.9268  0.0872 -0.6106
 1058HK4    C3788816   5.403   0.577   7.858 -0.1467  0.6484  0.7469
 1058HK4    H1988817   5.364   0.663   7.805 -0.7599  0.2114  0.4861
 1058HK4    C3888818   5.310   0.499   7.926  0.1021 -0.0685  0.2796
 1058HK4    H2088819   5.208   0.536   7.939 -0.1327 -1.2869  2.1470
 1058HK4    C1488820   5.165  11.181   8.282  0.0530 -0.6037 -0.5388
 1058HK4     C988821   5.035  11.149   8.324  0.1887 -0.2566  0.1412
 1058HK4     C888822   4.996  11.122   8.457  0.1628 -0.7955  0.0251
 1058HK4    C1188823   5.099  11.126   8.549  0.1199 -0.8922  0.0782
 1058HK4     H488824   5.068  11.128   8.655 -1.2003 -0.4122 -0.3164
 1058HK4    C1288825   5.233  11.134   8.513 -0.0619 -0.1718 -0.4402
 1058HK4     H588826   5.309  11.128   8.593 -0.6153 -2.1611 -0.0533
 1058HK4    C1388827   5.264  11.165   8.381 -0.0045  0.1140 -0.3609
 1058HK4     H688828   5.371  11.153   8.359  0.4581 -0.4565  2.0411
 1058HK4     C788829   4.855  11.091   8.490  0.1428 -0.2992  0.4088
 1058HK4     O288830   4.822  11.075   8.608  0.4400  0.0041  0.5344
 1058HK4     C488831   4.758  11.081   8.379  0.1791  0.5342  0.2987
 1058HK4     C388832   4.621  11.075   8.402 -0.0579  0.2781 -1.0949
 1058HK4     H388833   4.579  11.122   8.492 -1.7536 -1.1984 -1.0973
 1058HK4     C288834   4.537  11.018   8.308 -0.6738 -0.4612 -0.0977
 1058HK4     H288835   4.427  11.016   8.317 -0.6097 -0.9706  0.5938
 1058HK4     C188836   4.594  10.972   8.190  0.4043  0.1807  0.1627
 1058HK4     H188837   4.522  10.946   8.110 -0.2755 -0.5995  1.0199
 1058HK4     C688838   4.732  10.968   8.163  0.4656 -0.8392  0.6124
 1058HK4     C588839   4.810  11.040   8.254 -0.0778  0.1083  0.3293
 1058HK4    C1088840   4.941  11.102   8.219 -0.0693  0.0437  0.2371
 1058HK4     O188841   4.957  11.140   8.103 -0.0743  0.4218  0.3625
 1058HK4    C1688842   4.771  10.859   8.072  0.1570  0.4659 -1.1206
 1058HK4    C1588843   4.682  10.797   7.981 -0.6808 -0.3695  0.2424
 1058HK4     H788844   4.573  10.812   7.979 -0.7862 -0.6731  2.3027
 1058HK4    C2088845   4.720  10.682   7.914 -0.1484 -0.2312  0.3042
 1058HK4     H988846   4.650  10.629   7.849 -2.2284  1.3449  1.2281
 1058HK4    C1988847   4.847  10.629   7.933  0.2169  0.2407 -0.8194
 1058HK4    C1888848   4.941  10.698   8.019 -0.5910  0.2859  0.0302
 1058HK4    C1788849   4.899  10.809   8.092 -0.3105 -0.0608  0.7277
 1058HK4     H888850   4.949  10.837   8.184 -0.0690 -0.3202  0.6759
 1058HK4     N188851   5.072  10.647   8.002 -0.2869  1.1283 -0.1884
 1058HK4    C2188852   5.066  10.551   7.900  0.5557  0.2132  0.6106
 1058HK4    C2288853   4.928  10.534   7.859  0.6417 -0.5246  0.6119
 1058HK4    C2688854   4.893  10.436   7.766 -0.0591  0.0853  0.2262
 1058HK4    H1388855   4.787  10.427   7.745 -0.5075  0.6633  2.1549
 1058HK4    C2588856   4.989  10.355   7.707  0.1539  0.3821  0.1667
 1058HK4    H1288857   4.968  10.268   7.646  1.0215  0.3960 -0.1670
 1058HK4    C2488858   5.120  10.362   7.752  0.4438  0.2360 -0.6391
 1058HK4    H1188859   5.180  10.272   7.735 -1.6278 -0.8045 -2.6600
 1058HK4    C2388860   5.155  10.459   7.846 -0.2659 -0.4144  0.3100
 1058HK4    H1088861   5.258  10.450   7.883 -0.1837  1.0000  0.4340
 1058HK4    C3988862   5.188  10.709   8.049  0.2926  0.1533 -0.3205
 1058HK4    C4188863   5.312  10.643   8.062  0.0158 -0.3352 -0.1806
 1058HK4    H2188864   5.318  10.535   8.080  3.0878 -0.4120 -1.4790
 1058HK4    C4288865   5.433  10.712   8.066  0.0219 -0.3264 -0.4728
 1058HK4    H2288866   5.527  10.657   8.077  0.3018  0.6627  2.6945
 1058HK4    C4388867   5.441  10.850   8.066 -0.0721 -0.3096  0.7242
 1058HK4    H2388868   5.530  10.900   8.104  0.2301 -1.6116  1.7514
 1058HK4    C4488869   5.321  10.919   8.051  0.1521 -0.1193 -0.2384
 1058HK4    H2488870   5.318  11.028   8.034  2.5513  0.0785  0.3929
 1058HK4    C4588871   5.201  10.850   8.052 -0.0308  0.1887 -0.5927
 1058HK4    H2588872   5.110  10.911   8.066 -0.3391 -0.7818  1.8475
 1059HK4    H2888873   2.431   7.070  10.277 -0.4686 -0.5750  1.4412
 1059HK4    C4888874   2.326   7.085  10.251  0.0469  0.8632  0.1044
 1059HK4    C4788875   2.290   7.108  10.119 -0.1657 -0.4251 -0.0610
 1059HK4    H2788876   2.366   7.118  10.041 -0.3782  0.9940 -0.0961
 1059HK4    C4688877   2.159   7.123  10.073 -0.0628 -0.4288 -0.3584
 1059HK4    H2688878   2.130   7.110   9.968 -0.4035  1.2400 -0.4907
 1059HK4    C4088879   2.059   7.128  10.172 -0.0873  0.3484 -0.4173
 1059HK4    C5088880   2.090   7.098  10.307 -0.2270 -0.6136 -0.5985
 1059HK4    H3088881   2.013   7.098  10.384  0.3927 -0.4606  0.0276
 1059HK4    C4988882   2.223   7.077  10.343 -0.2708 -0.4779 -0.3600
 1059HK4    H2988883   2.246   7.056  10.449 -0.1903 -0.3413 -0.3530
 1059HK4     N288884   1.955   7.220  10.153 -0.1784  0.3911  0.2647
 1059HK4    C3088885   1.961   7.326  10.060  0.1759  0.5094  0.4184
 1059HK4    C2988886   2.070   7.400  10.015  0.0379  0.2058 -0.4183
 1059HK4    H1588887   2.163   7.389  10.070 -0.0089  5.3312  0.8989
 1059HK4    C2888888   2.065   7.509   9.929  0.2545  0.3000 -0.3113
 1059HK4    C2788889   1.935   7.538   9.882 -0.2182  0.0182  0.8017
 1059HK4    H1488890   1.924   7.620   9.810  0.0189 -0.9515 -0.3548
 1059HK4    C3288891   1.820   7.477   9.930 -0.4318 -0.2758 -0.0716
 1059HK4    H1688892   1.725   7.523   9.903 -0.3189  1.2907  2.0939
 1059HK4    C3188893   1.829   7.375  10.024  0.0616  0.1627  0.3626
 1059HK4    C3488894   1.731   7.295  10.094 -0.0388  0.3362  0.4173
 1059HK4    C3388895   1.816   7.199  10.162 -0.1427  0.1765  0.3250
 1059HK4    C3588896   1.745   7.092  10.216 -0.0387  0.1645  0.4425
 1059HK4    H1788897   1.799   7.000  10.233  1.4307  1.2876  2.0216
 1059HK4    C3688898   1.606   7.086  10.217 -0.0214 -0.3124 -0.0083
 1059HK4    H1888899   1.554   7.002  10.265  1.2897 -0.3715  1.3436
 1059HK4    C3788900   1.532   7.177  10.142  0.0365 -0.1967  0.0752
 1059HK4    H1988901   1.429   7.165  10.110 -0.5176  1.5788  1.1269
 1059HK4    C3888902   1.594   7.280  10.072  0.0490 -0.1303  0.1865
 1059HK4    H2088903   1.531   7.362  10.041  0.6219 -0.3018 -1.4633
 1059HK4    C1488904   2.183   7.583   9.882  0.0967  0.8186  0.1025
 1059HK4     C988905   2.176   7.706   9.817 -0.2762  0.7325 -0.0190
 1059HK4     C888906   2.279   7.747   9.730  0.2327 -0.1386  0.1698
 1059HK4    C1188907   2.399   7.677   9.723  0.3566  0.0397  0.4994
 1059HK4     H488908   2.483   7.706   9.659  0.7702 -1.4235  0.3499
 1059HK4    C1288909   2.408   7.556   9.791  0.0020 -0.1523  0.2050
 1059HK4     H588910   2.498   7.492   9.786 -0.5626 -0.9207 -0.3139
 1059HK4    C1388911   2.299   7.505   9.860 -0.0999  0.4181  0.4644
 1059HK4     H688912   2.299   7.401   9.895  2.5151  0.1051 -0.4041
 1059HK4     C788913   2.267   7.875   9.655  0.2088 -0.2220  0.0255
 1059HK4     O288914   2.346   7.896   9.564 -0.0056 -0.2449 -0.1649
 1059HK4     C488915   2.157   7.968   9.687  0.1929 -0.4025  0.5041
 1059HK4     C388916   2.149   8.090   9.621  0.1884 -0.5736  0.1883
 1059HK4     H388917   2.240   8.128   9.573  0.0456 -1.3900 -0.7459
 1059HK4     C288918   2.024   8.152   9.611  0.5520  0.2091  0.4591
 1059HK4     H288919   2.014   8.250   9.563 -2.2344  0.0370  0.6275
 1059HK4     C188920   1.914   8.096   9.674  0.0798  0.6223 -0.0028
 1059HK4     H188921   1.817   8.138   9.643 -0.1016  0.3525  0.1960
 1059HK4     C688922   1.921   7.979   9.752  0.3820  0.4251 -0.3229
 1059HK4     C588923   2.048   7.922   9.764 -0.0046 -0.3241  0.2758
 1059HK4    C1088924   2.067   7.802   9.851 -1.0555 -0.3333  0.4991
 1059HK4     O188925   2.055   7.827   9.970 -0.0281  0.5170  0.4319
 1059HK4    C1688926   1.794   7.909   9.779  0.4291  0.3582 -0.2749
 1059HK4    C1588927   1.690   7.914   9.684  0.1594  0.4168  0.0188
 1059HK4     H788928   1.713   7.918   9.577  0.9152  1.3789  0.2127
 1059HK4    C2088929   1.559   7.883   9.718  0.3432 -0.2753  0.0982
 1059HK4     H988930   1.482   7.894   9.641  0.0197  0.5318  0.5375
 1059HK4    C1988931   1.528   7.840   9.846  0.1418 -0.4453 -0.0063
 1059HK4    C1888932   1.631   7.845   9.949  0.0712 -0.2067  0.0526
 1059HK4    C1788933   1.760   7.881   9.911 -0.1120 -0.1468 -0.5251
 1059HK4     H888934   1.830   7.907   9.990 -0.7906  2.1309 -0.6536
 1059HK4     N188935   1.582   7.801  10.073  0.1392 -0.5458 -0.0390
 1059HK4    C2188936   1.446   7.768  10.053  0.1437 -0.6500  0.1027
 1059HK4    C2288937   1.409   7.795   9.915  0.1030  0.0302  0.2398
 1059HK4    C2688938   1.275   7.787   9.878  0.2187  0.1808 -0.1972
 1059HK4    H1388939   1.241   7.823   9.781 -1.9615  3.9231  1.8326
 1059HK4    C2588940   1.181   7.740   9.968  0.3158  0.6812  0.1640
 1059HK4    H1288941   1.076   7.727   9.943  0.2230 -1.9609  1.7570
 1059HK4    C2488942   1.213   7.719  10.102 -0.0422  0.1180  0.1609
 1059HK4    H1188943   1.138   7.701  10.180  0.2897 -2.7534 -0.1396
 1059HK4    C2388944   1.345   7.735  10.143 -0.0847  0.3393  0.2117
 1059HK4    H1088945   1.362   7.745  10.250  0.2716 -0.5134  0.2410
 1059HK4    C3988946   1.634   7.830  10.200 -0.0345 -0.0703 -0.0714
 1059HK4    C4188947   1.606   7.747  10.310 -0.0967 -0.0417 -0.0678
 1059HK4    H2188948   1.547   7.654  10.305 -0.4267  0.1781 -0.2830
 1059HK4    C4288949   1.644   7.782  10.439  0.4005 -0.5635 -0.0664
 1059HK4    H2288950   1.621   7.715  10.523  0.0228 -0.3773 -0.0207
 1059HK4    C4388951   1.699   7.907  10.465  0.2382 -0.5501  0.2179
 1059HK4    H2388952   1.712   7.942  10.567 -2.4529  0.7278  0.1828
 1059HK4    C4488953   1.718   7.996  10.359 -0.3939 -0.2407  0.3582
 1059HK4    H2488954   1.742   8.101  10.381 -1.3204  0.3210 -1.2720
 1059HK4    C4588955   1.698   7.952  10.229  0.6485 -0.5046  0.2766
 1059HK4    H2588956   1.724   8.024  10.149  2.0127  0.1351  1.2748
 1060HK4    H2888957   9.704   8.832   2.249  2.0654  1.9059  1.0825
 1060HK4    C4888958   9.780   8.814   2.173  0.1793 -0.3829 -0.3462
 1060HK4    C4788959   9.834   8.929   2.117 -0.9763  0.0974 -0.4940
 1060HK4    H2788960   9.803   9.034   2.133  1.2176  0.5592  0.9913
 1060HK4    C4688961   9.941   8.914   2.030 -0.4404 -0.1428  0.1954
 1060HK4    H2688962  10.002   9.001   2.002  0.6200 -1.0795 -0.4672
 1060HK4    C4088963   9.994   8.787   2.003 -0.3548  0.0560 -0.5973
 1060HK4    C5088964   9.930   8.672   2.054 -0.3477  0.2178 -0.2224
 1060HK4    H3088965   9.941   8.568   2.020 -0.6705 -1.3171  4.0865
 1060HK4    C4988966   9.826   8.686   2.146 -0.5536 -0.6548 -0.3170
 1060HK4    H2988967   9.789   8.599   2.202 -0.3036 -0.8555 -0.4603
 1060HK4     N288968  10.067   8.759   1.887 -0.3174 -0.6707 -0.3993
 1060HK4    C3088969  10.074   8.841   1.773 -0.0715 -0.5016 -0.2619
 1060HK4    C2988970   9.983   8.933   1.723  0.5476  0.3435  0.1501
 1060HK4    H1588971   9.890   8.946   1.779  0.6066 -0.5607  0.4708
 1060HK4    C2888972   9.992   8.985   1.595  0.4447  0.1828  0.0771
 1060HK4    C2788973  10.106   8.945   1.522  0.2439  0.3242 -0.3188
 1060HK4    H1488974  10.118   8.998   1.427 -0.1750 -0.8859 -1.0574
 1060HK4    C3288975  10.205   8.863   1.574 -0.1293 -0.1022 -0.2759
 1060HK4    H1688976  10.307   8.874   1.537 -0.0409  0.4293  0.1096
 1060HK4    C3188977  10.192   8.801   1.698  0.2425  0.1436 -0.1143
 1060HK4    C3488978  10.244   8.680   1.757  0.2791  0.0558 -0.3233
 1060HK4    C3388979  10.176   8.668   1.885  0.0867 -0.1895 -0.4465
 1060HK4    C3588980  10.222   8.576   1.977  0.0126  0.3353  0.1125
 1060HK4    H1788981  10.163   8.537   2.060 -2.9510  1.3431 -1.4870
 1060HK4    C3688982  10.334   8.501   1.941 -0.0232  0.4149 -0.1786
 1060HK4    H1888983  10.357   8.415   2.005 -0.7416 -0.1945 -0.7374
 1060HK4    C3788984  10.405   8.516   1.822 -0.3256  0.3892 -0.3622
 1060HK4    H1988985  10.491   8.451   1.808 -0.4177  0.0644  0.4981
 1060HK4    C3888986  10.356   8.604   1.727  0.4519  0.4635 -0.6947
 1060HK4    H2088987  10.399   8.606   1.626  0.2729 -0.4090 -0.7860
 1060HK4    C1488988   9.877   9.051   1.531 -0.0708 -0.3591  0.4361
 1060HK4     C988989   9.870   9.084   1.395 -0.0449  0.2067  0.5730
 1060HK4     C888990   9.814   9.208   1.357 -0.1454  0.0974  0.3541
 1060HK4    C1188991   9.750   9.293   1.446  0.0768  0.3221  0.2990
 1060HK4     H488992   9.684   9.375   1.413 -0.5703 -0.3615 -0.1176
 1060HK4    C1288993   9.733   9.249   1.577 -0.4092 -0.0749  0.1030
 1060HK4     H588994   9.674   9.303   1.653 -4.0814 -2.2821 -1.0685
 1060HK4    C1388995   9.800   9.134   1.615 -0.3719 -0.1121 -0.0748
 1060HK4     H688996   9.777   9.095   1.716 -0.0441  0.4197  0.2088
 1060HK4     C788997   9.829   9.253   1.217  0.0752 -0.1130  0.3105
 1060HK4     O288998   9.776   9.357   1.179 -0.0811 -0.3773 -0.1998
 1060HK4     C488999   9.889   9.162   1.117 -0.2152 -0.1782  0.1945
 1060HK4     C389000   9.936   9.203   0.992 -0.0983 -0.4884  0.1386
 1060HK4     H389001   9.993   9.296   0.977 -1.4727  0.2153 -0.8328
 1060HK4     C289002   9.950   9.110   0.889  0.2817 -0.4595  0.1618
 1060HK4     H289003   9.959   9.139   0.783  0.2371 -3.1151 -0.6007
 1060HK4     C189004   9.912   8.978   0.913 -0.3780 -0.2940  0.0571
 1060HK4     H189005   9.904   8.914   0.824  1.2494 -0.0935 -0.2526
 1060HK4     C689006   9.870   8.934   1.040  0.6913 -0.0276  0.5047
 1060HK4     C589007   9.873   9.025   1.147  0.3098 -0.1514  0.6193
 1060HK4    C1089008   9.889   8.982   1.288 -0.6392 -0.0865  0.7496
 1060HK4     O189009   9.925   8.869   1.322 -0.1907 -0.1531  0.0685
 1060HK4    C1689010   9.821   8.797   1.051 -0.3031  0.2876 -0.0305
 1060HK4    C1589011   9.829   8.701   0.947  0.2752  0.0418  0.2387
 1060HK4     H789012   9.919   8.698   0.884 -0.9935  3.6121 -1.8931
 1060HK4    C2089013   9.746   8.590   0.938 -0.2289  0.4749 -0.4969
 1060HK4     H989014   9.762   8.513   0.863  1.0616 -0.4255  0.6851
 1060HK4    C1989015   9.649   8.566   1.035  0.4485  0.0470  0.0811
 1060HK4    C1889016   9.638   8.659   1.146 -0.3743  0.4904 -0.3687
 1060HK4    C1789017   9.722   8.770   1.145 -0.6137  0.6733 -0.2434
 1060HK4     H889018   9.676   8.857   1.192 -0.9412 -0.6315  1.9203
 1060HK4     N189019   9.541   8.614   1.238 -0.1149  0.3515 -0.1656
 1060HK4    C2189020   9.490   8.493   1.186  0.1246  0.2253 -0.1126
 1060HK4    C2289021   9.561   8.455   1.065  0.4244  0.0725  0.1098
 1060HK4    C2689022   9.531   8.331   1.010 -0.5064  0.3929 -0.1155
 1060HK4    H1389023   9.591   8.304   0.923  0.5032 -0.9031  0.9757
 1060HK4    C2589024   9.428   8.248   1.053 -0.0119 -0.0508  0.2140
 1060HK4    H1289025   9.377   8.184   0.982 -0.9113 -0.8159  1.5265
 1060HK4    C2489026   9.359   8.293   1.165  0.0133  0.0163  0.2018
 1060HK4    H1189027   9.256   8.253   1.173 -0.1819  0.7150  1.3865
 1060HK4    C2389028   9.392   8.408   1.236 -0.1426  0.3984 -0.3415
 1060HK4    H1089029   9.344   8.424   1.332  1.5752  0.1996  0.5823
 1060HK4    C3989030   9.517   8.668   1.364 -0.3712 -0.5814  0.1887
 1060HK4    C4189031   9.397   8.666   1.439 -0.3822 -0.2422  0.1773
 1060HK4    H2189032   9.319   8.590   1.426 -1.3378  0.7014  0.3516
 1060HK4    C4289033   9.387   8.746   1.552 -0.2531 -0.3599  0.2708
 1060HK4    H2289034   9.305   8.723   1.623 -1.1494 -1.8484 -1.2160
 1060HK4    C4389035   9.488   8.830   1.596 -0.3960  0.0010 -0.0942
 1060HK4    H2389036   9.468   8.880   1.691 -0.9398  0.7216 -0.5861
 1060HK4    C4489037   9.611   8.823   1.530  0.0195 -0.4656  0.7138
 1060HK4    H2489038   9.686   8.893   1.568  1.2800 -0.9715 -0.8266
 1060HK4    C4589039   9.626   8.734   1.425 -0.7519  0.1927  0.0395
 1060HK4    H2589040   9.727   8.700   1.397 -0.8352 -1.8307  2.1032
 1061HK4    H2889041   4.212   2.062  10.466  0.1573 -1.1752  0.5453
 1061HK4    C4889042   4.277   2.036  10.382 -0.3454  0.3434 -0.3509
 1061HK4    C4789043   4.237   1.943  10.287 -0.3607  0.1536 -0.1581
 1061HK4    H2789044   4.130   1.923  10.269  0.2623 -2.1267 -1.5233
 1061HK4    C4689045   4.327   1.884  10.199 -0.0550  0.0569  0.2188
 1061HK4    H2689046   4.295   1.811  10.124 -0.2585 -0.6042  0.9396
 1061HK4    C4089047   4.462   1.925  10.203  0.0685 -0.3453  0.1685
 1061HK4    C5089048   4.498   2.026  10.294 -0.3568  0.4432 -0.5348
 1061HK4    H3089049   4.602   2.060  10.307 -0.0883 -0.7295  0.4770
 1061HK4    C4989050   4.411   2.074  10.391 -0.1855 -0.2934 -0.0198
 1061HK4    H2989051   4.447   2.145  10.467  1.9024 -0.2784 -0.9980
 1061HK4     N289052   4.556   1.894  10.103 -0.1861 -0.4002 -0.0507
 1061HK4    C3089053   4.518   1.889   9.967 -0.4980  0.1456  0.0161
 1061HK4    C2989054   4.414   1.946   9.895 -0.2563  0.8153  0.1856
 1061HK4    H1589055   4.335   2.002   9.946 -1.4934 -1.0494  0.3881
 1061HK4    C2889056   4.409   1.940   9.756 -0.2508  0.1380  0.2126
 1061HK4    C2789057   4.509   1.868   9.687 -0.3155  0.2654 -0.0153
 1061HK4    H1489058   4.516   1.861   9.578  0.1253  2.4668 -0.1578
 1061HK4    C3289059   4.615   1.814   9.759 -0.7801 -0.5673  0.0458
 1061HK4    H1689060   4.677   1.739   9.709 -2.5540 -0.4400 -2.4857
 1061HK4    C3189061   4.628   1.827   9.897 -0.3585  0.5099 -0.0956
 1061HK4    C3489062   4.724   1.781   9.995  0.0413  0.3456 -0.5625
 1061HK4    C3389063   4.672   1.817  10.125  0.2269  0.1109 -0.4233
 1061HK4    C3589064   4.732   1.773  10.242 -0.1386  0.1811 -0.2103
 1061HK4    H1789065   4.684   1.786  10.340 -1.7787  0.9129 -1.0862
 1061HK4    C3689066   4.848   1.698  10.230 -0.4779 -0.3647 -0.0843
 1061HK4    H1889067   4.894   1.666  10.325 -1.6792 -1.8999 -0.0137
 1061HK4    C3789068   4.901   1.669  10.105 -0.1734  0.2990 -0.1125
 1061HK4    H1989069   4.994   1.615  10.091  0.9370  1.5409  2.2021
 1061HK4    C3889070   4.836   1.699   9.986  0.0345  0.2973 -0.2269
 1061HK4    H2089071   4.881   1.665   9.892  0.6166  1.5362 -0.4052
 1061HK4    C1489072   4.311   2.019   9.680 -0.2561  0.2650  0.3489
 1061HK4     C989073   4.280   1.995   9.546  0.1309  0.1116  0.2900
 1061HK4     C889074   4.269   2.103   9.455 -0.3709 -0.1187  0.0746
 1061HK4    C1189075   4.278   2.235   9.499  0.5011 -0.1391 -0.0428
 1061HK4     H489076   4.281   2.314   9.423 -0.3272  1.3782  1.4870
 1061HK4    C1289077   4.286   2.256   9.636 -0.6395 -0.3414  0.0559
 1061HK4     H589078   4.285   2.362   9.664 -1.0527 -0.3811  0.1975
 1061HK4    C1389079   4.298   2.151   9.727 -0.0709  0.1950  0.6015
 1061HK4     H689080   4.279   2.168   9.834  2.6072  0.3260  1.0727
 1061HK4     C789081   4.262   2.074   9.311  0.6775 -0.5209  0.0974
 1061HK4     O289082   4.335   2.145   9.243  0.0221 -0.1104 -0.1821
 1061HK4     C489083   4.224   1.938   9.263 -0.1970 -0.0136 -0.6682
 1061HK4     C389084   4.201   1.926   9.127 -0.6181  0.6794 -0.6640
 1061HK4     H389085   4.228   2.013   9.066 -1.5567  1.8399  0.5563
 1061HK4     C289086   4.184   1.799   9.073  0.7944  0.2141 -0.0453
 1061HK4     H289087   4.163   1.795   8.965  2.1099 -0.8476 -0.2785
 1061HK4     C189088   4.194   1.688   9.156  0.1970  0.2275  0.0523
 1061HK4     H189089   4.164   1.591   9.112  1.3972  0.4835 -1.3673
 1061HK4     C689090   4.233   1.699   9.291  0.1602  0.6392  0.0257
 1061HK4     C589091   4.242   1.827   9.348  0.4490  0.6159  0.0345
 1061HK4    C1089092   4.248   1.859   9.493 -0.1271  0.2280  0.1484
 1061HK4     O189093   4.163   1.802   9.560  0.1411 -0.4426 -0.0778
 1061HK4    C1689094   4.226   1.572   9.364  0.6119  0.2681 -0.5730
 1061HK4    C1589095   4.165   1.455   9.316  0.7935  0.0786 -0.3446
 1061HK4     H789096   4.073   1.459   9.254 -0.4784 -0.2765  1.4874
 1061HK4    C2089097   4.202   1.329   9.362  0.1245 -0.0967 -0.2728
 1061HK4     H989098   4.150   1.245   9.316 -0.1724  0.0571 -0.2153
 1061HK4    C1989099   4.286   1.312   9.471 -0.0162 -0.3279 -0.2011
 1061HK4    C1889100   4.338   1.434   9.531 -1.0168 -0.1919  0.4028
 1061HK4    C1789101   4.315   1.556   9.469  0.3004 -0.3403 -0.3954
 1061HK4     H889102   4.385   1.637   9.491  0.7911 -1.0065  0.5500
 1061HK4     N189103   4.408   1.403   9.649 -0.0161 -0.1373 -0.1713
 1061HK4    C2189104   4.403   1.263   9.664 -0.0820 -0.1442 -0.2623
 1061HK4    C2289105   4.333   1.202   9.553 -0.4251 -0.3157  0.0522
 1061HK4    C2689106   4.347   1.065   9.532  0.1381 -0.1685 -0.5192
 1061HK4    H1389107   4.302   1.028   9.439  0.9440 -2.0988 -0.1715
 1061HK4    C2589108   4.435   0.994   9.613 -0.4292 -0.1604  0.1027
 1061HK4    H1289109   4.444   0.888   9.588 -1.4916 -0.4489  0.8989
 1061HK4    C2489110   4.505   1.053   9.717 -0.2177  0.1379 -0.2040
 1061HK4    H1189111   4.536   0.990   9.802 -2.4573  0.5341  0.9410
 1061HK4    C2389112   4.488   1.188   9.745 -0.2337  0.0744  0.0990
 1061HK4    H1089113   4.528   1.228   9.838  2.0105 -1.1745 -0.2790
 1061HK4    C3989114   4.400   1.483   9.764  0.3701  0.6912 -0.7144
 1061HK4    C4189115   4.505   1.481   9.859 -0.2970 -0.0469  0.0206
 1061HK4    H2189116   4.602   1.438   9.833 -1.2461 -1.6930 -0.9099
 1061HK4    C4289117   4.485   1.525   9.989 -0.1629 -0.0885  0.0531
 1061HK4    H2289118   4.575   1.533  10.052 -0.1693 -0.5729  0.1254
 1061HK4    C4389119   4.361   1.564  10.037 -0.0108  0.0326  0.3575
 1061HK4    H2389120   4.341   1.558  10.144  2.4563  0.5981  0.8726
 1061HK4    C4489121   4.258   1.571   9.943  0.3924  0.3082 -0.0610
 1061HK4    H2489122   4.162   1.617   9.971  2.0721  3.0833  1.4887
 1061HK4    C4589123   4.276   1.532   9.811  0.2705 -0.3035  0.0987
 1061HK4    H2589124   4.191   1.540   9.742 -0.7702 -0.2680  1.3678
 1062HK4    H2889125   9.301  10.741   1.836  0.5092 -0.5829  1.4938
 1062HK4    C4889126   9.369  10.824   1.854 -0.2709  0.4333 -0.1872
 1062HK4    C4789127   9.370  10.893   1.974  0.2078 -0.0558  0.0919
 1062HK4    H2789128   9.284  10.880   2.041  0.9361 -0.1385  1.0283
 1062HK4    C4689129   9.467  10.986   2.009  0.1183 -0.0219  0.2520
 1062HK4    H2689130   9.452  11.053   2.095 -0.0057  0.7030 -0.3268
 1062HK4    C4089131   9.582  11.009   1.930 -0.2058  0.0553 -0.1970
 1062HK4    C5089132   9.584  10.933   1.811 -0.0976 -0.3483  0.0622
 1062HK4    H3089133   9.666  10.949   1.739  1.0255 -0.8709  1.2028
 1062HK4    C4989134   9.483  10.844   1.777 -0.2602 -0.0260 -0.2922
 1062HK4    H2989135   9.487  10.797   1.678 -0.3806  2.6924 -1.6315
 1062HK4     N289136   9.662  11.122   1.951 -0.0879 -0.1030  0.2154
 1062HK4    C3089137   9.627  11.245   2.009  0.1145  0.0037  0.1108
 1062HK4    C2989138   9.505   0.057   2.039  0.0981  0.0634 -0.0747
 1062HK4    H1589139   9.417   0.010   1.995 -1.3061  2.3383  0.2302
 1062HK4    C2889140   9.495   0.179   2.103 -0.0176 -0.0440  0.1136
 1062HK4    C2789141   9.613   0.244   2.146 -0.1980  0.3101  0.0802
 1062HK4    H1489142   9.608   0.337   2.204  2.2671 -0.4444  1.5523
 1062HK4    C3289143   9.737   0.193   2.110 -0.3008 -0.1826  0.4440
 1062HK4    H1689144   9.823   0.234   2.161 -1.1955 -0.4140  2.1927
 1062HK4    C3189145   9.747   0.072   2.042  0.0763  0.1543 -0.0950
 1062HK4    C3489146   9.859  11.247   1.986  0.3886  0.2927  0.3455
 1062HK4    C3389147   9.802  11.124   1.934 -0.0326  0.3245  0.7384
 1062HK4    C3589148   9.888  11.040   1.864  0.2269  0.7467  0.5440
 1062HK4    H1789149   9.848  10.947   1.824 -1.6230  1.0273  1.6678
 1062HK4    C3689150  10.020  11.073   1.837  0.3851  0.4298  0.9198
 1062HK4    H1889151  10.089  11.006   1.783 -2.8113 -0.7810 -1.8281
 1062HK4    C3789152  10.064  11.199   1.877  0.7513  0.4826  0.3514
 1062HK4    H1989153  10.150  11.240   1.825 -0.0478  1.7864  0.0592
 1062HK4    C3889154   9.990   0.036   1.958  0.2899  0.4001  0.0199
 1062HK4    H2089155  10.034   0.130   1.993  1.7428  0.1045 -0.9639
 1062HK4    C1489156   9.376   0.259   2.071  0.0704 -0.1028 -0.3555
 1062HK4     C989157   9.375   0.396   2.040  0.2401  0.1897  0.8987
 1062HK4     C889158   9.273   0.483   2.082 -0.0746  0.3244 -0.1312
 1062HK4    C1189159   9.159   0.425   2.135  0.1883  0.1852  0.2889
 1062HK4     H489160   9.080   0.496   2.166 -0.4231  0.1681 -1.2100
 1062HK4    C1289161   9.148   0.288   2.154  0.0776  0.1459 -0.0711
 1062HK4     H589162   9.056   0.241   2.191  0.6191 -0.8730  0.0117
 1062HK4    C1389163   9.258   0.207   2.129  0.0748  0.1584 -0.1081
 1062HK4     H689164   9.265   0.099   2.150  1.4385 -0.1547 -1.9425
 1062HK4     C789165   9.298   0.629   2.094 -0.1061  0.3811 -0.7416
 1062HK4     O289166   9.211   0.710   2.122 -0.0785  0.1685 -0.0480
 1062HK4     C489167   9.432   0.676   2.050 -0.0878  0.4179 -0.6544
 1062HK4     C389168   9.465   0.809   2.073  0.1528  0.2724 -0.1650
 1062HK4     H389169   9.388   0.877   2.113 -0.6482 -0.6753 -0.0588
 1062HK4     C289170   9.588   0.858   2.033  0.3489  0.3834  0.5563
 1062HK4     H289171   9.594   0.968   2.026 -2.5443  0.4879 -1.2580
 1062HK4     C189172   9.676   0.775   1.963 -0.5921  0.1394 -0.3568
 1062HK4     H189173   9.763   0.825   1.919 -2.2465  1.2936 -2.4556
 1062HK4     C689174   9.648   0.639   1.940  0.0015 -0.1576  0.6343
 1062HK4     C589175   9.521   0.594   1.977 -0.0857 -0.3076  0.1589
 1062HK4    C1089176   9.480   0.453   1.951  0.1386 -0.4129  0.3826
 1062HK4     O189177   9.484   0.405   1.838 -0.4740  0.3068  0.0522
 1062HK4    C1689178   9.759   0.544   1.939  0.3789  0.2807 -0.6912
 1062HK4    C1589179   9.867   0.556   2.029 -0.1914 -0.1523  0.0558
 1062HK4     H789180   9.855   0.618   2.119  0.2456  1.0360 -0.6908
 1062HK4    C2089181   9.990   0.497   2.004 -0.4455 -0.9972  0.7521
 1062HK4     H989182  10.063   0.510   2.084 -0.9485  0.1584  1.0313
 1062HK4    C1989183  10.011   0.421   1.889 -0.0262 -0.0497  0.1933
 1062HK4    C1889184   9.897   0.403   1.803 -0.2079 -0.1801  0.4583
 1062HK4    C1789185   9.774   0.465   1.825 -0.2989  0.0383 -0.6161
 1062HK4     H889186   9.690   0.456   1.756 -1.0016 -2.9392  0.5486
 1062HK4     N189187   9.932   0.326   1.690 -0.1386  0.1138  0.2785
 1062HK4    C2189188  10.070   0.303   1.706 -0.0922  0.2269  0.0619
 1062HK4    C2289189  10.127   0.359   1.827 -0.0185  0.0595  0.1041
 1062HK4    C2689190  10.264   0.363   1.848  0.0159  0.0257 -0.0938
 1062HK4    H1389191  10.303   0.427   1.928 -2.2939  1.2581  0.0768
 1062HK4    C2589192  10.348   0.313   1.750  0.1372  0.0910 -0.0217
 1062HK4    H1289193  10.453   0.340   1.749  0.6676 -1.8848 -0.4503
 1062HK4    C2489194  10.297   0.262   1.631  0.4402  0.2579 -0.2236
 1062HK4    H1189195  10.356   0.207   1.557 -0.8697  0.2159 -1.2505
 1062HK4    C2389196  10.159   0.257   1.610  0.3378  0.3273  0.4131
 1062HK4    H1089197  10.130   0.239   1.506  0.6847 -1.7219  0.6459
 1062HK4    C3989198   9.846   0.245   1.614  0.3278  0.0619 -0.1973
 1062HK4    C4189199   9.885   0.208   1.484  0.0586 -0.0592 -0.2423
 1062HK4    H2189200   9.924   0.280   1.411  0.7949 -0.3977 -0.1857
 1062HK4    C4289201   9.819   0.100   1.426  0.4927 -0.5415  0.1666
 1062HK4    H2289202   9.840   0.077   1.321 -0.4063 -0.7879  0.0335
 1062HK4    C4389203   9.726   0.021   1.494  0.0677  0.0222  0.2404
 1062HK4    H2389204   9.714  11.165   1.467 -0.1681  0.0814  0.1135
 1062HK4    C4489205   9.694   0.056   1.625  0.0466  0.5307  0.1004
 1062HK4    H2489206   9.643  11.230   1.689  0.6318  2.4600  2.8793
 1062HK4    C4589207   9.745   0.173   1.680 -0.0984  0.7106 -0.1424
 1062HK4    H2589208   9.723   0.187   1.787 -0.6411 -2.1857  0.1761
 1063HK4    H2889209   7.877   9.384   4.000  0.6017 -0.3492 -0.9796
 1063HK4    C4889210   7.973   9.346   4.034  0.6122  0.1734 -0.4168
 1063HK4    C4789211   8.003   9.374   4.167  0.0638  0.1718 -0.2886
 1063HK4    H2789212   7.932   9.429   4.230  0.5574 -0.6057  0.9562
 1063HK4    C4689213   8.127   9.334   4.217  0.2097  0.9261 -0.0518
 1063HK4    H2689214   8.129   9.315   4.325 -0.5457 -0.0707 -0.2080
 1063HK4    C4089215   8.221   9.275   4.131 -0.4049 -0.2241  0.0595
 1063HK4    C5089216   8.191   9.252   3.995  0.6443  0.4383 -0.2865
 1063HK4    H3089217   8.259   9.201   3.926  0.3638 -0.8318  0.3557
 1063HK4    C4989218   8.065   9.286   3.949  0.5310 -0.0560 -0.3406
 1063HK4    H2989219   8.040   9.253   3.847 -2.2377 -1.8384  0.8483
 1063HK4     N289220   8.356   9.284   4.169 -0.3672 -0.3296 -0.0468
 1063HK4    C3089221   8.407   9.375   4.264 -0.0317 -0.3381 -0.2201
 1063HK4    C2989222   8.353   9.481   4.335  0.4849 -0.4996  0.4269
 1063HK4    H1589223   8.273   9.531   4.280  1.4013 -0.2716 -0.7012
 1063HK4    C2889224   8.397   9.542   4.452  0.2851  0.0919  0.1936
 1063HK4    C2789225   8.524   9.495   4.488  0.1934 -0.0758  0.3038
 1063HK4    H1489226   8.572   9.537   4.578  3.1240  0.2736 -1.3451
 1063HK4    C3289227   8.592   9.398   4.415  0.2547  0.1750  0.0263
 1063HK4    H1689228   8.697   9.375   4.432  0.3362 -0.4777 -1.2845
 1063HK4    C3189229   8.538   9.328   4.308  0.0718  0.2278  0.0851
 1063HK4    C3489230   8.567   9.207   4.232 -0.3017 -0.2053  0.6310
 1063HK4    C3389231   8.451   9.182   4.149 -0.1654 -0.2344  0.4485
 1063HK4    C3589232   8.451   9.062   4.079 -0.0210  0.0944 -0.1204
 1063HK4    H1789233   8.354   9.033   4.038 -0.5936  0.0271  1.2633
 1063HK4    C3689234   8.560   8.975   4.074 -0.0078  0.1217 -0.2581
 1063HK4    H1889235   8.550   8.888   4.008 -0.7746  1.2343 -1.6489
 1063HK4    C3789236   8.669   9.008   4.153 -0.1018  0.0704 -0.1063
 1063HK4    H1989237   8.743   8.930   4.166 -1.8882 -1.6275  0.0319
 1063HK4    C3889238   8.675   9.120   4.236 -0.0272  0.0986 -0.1478
 1063HK4    H2089239   8.732   9.120   4.329  1.0061 -1.4642 -0.7525
 1063HK4    C1489240   8.302   9.624   4.528  0.1253 -0.0483  0.1453
 1063HK4     C989241   8.355   9.699   4.634  0.1234 -0.3494  0.3582
 1063HK4     C889242   8.288   9.690   4.758 -0.1382 -0.5496  0.2020
 1063HK4    C1189243   8.166   9.624   4.768 -0.3391 -0.2607 -0.3057
 1063HK4     H489244   8.118   9.626   4.867  1.2668  1.7715  0.4767
 1063HK4    C1289245   8.107   9.563   4.659 -0.5619  0.7012 -0.7317
 1063HK4     H589246   8.017   9.501   4.667 -1.4377  2.1656  1.1671
 1063HK4    C1389247   8.174   9.565   4.537  0.3089 -0.5107 -0.2788
 1063HK4     H689248   8.110   9.558   4.448  1.7306 -0.4325 -1.3229
 1063HK4     C789249   8.333   9.771   4.873  0.0433  0.0918 -0.3165
 1063HK4     O289250   8.281   9.754   4.983  0.4397  0.1348 -0.1237
 1063HK4     C489251   8.449   9.862   4.862  0.5159 -0.4424  0.2018
 1063HK4     C389252   8.467   9.956   4.964 -0.1701  0.0922 -0.1611
 1063HK4     H389253   8.402   9.958   5.052  0.9626  1.1240  0.6653
 1063HK4     C289254   8.574  10.044   4.953 -0.4400  0.4131 -0.2132
 1063HK4     H289255   8.581  10.129   5.022  0.6755 -0.0231  0.2364
 1063HK4     C189256   8.663  10.025   4.848 -0.2689  0.2175 -0.0344
 1063HK4     H189257   8.760  10.077   4.851  1.2528 -2.4013 -1.6407
 1063HK4     C689258   8.653   9.922   4.752  0.1265 -0.2139  0.3841
 1063HK4     C589259   8.533   9.850   4.750 -0.1618  0.2817 -0.3916
 1063HK4    C1089260   8.475   9.787   4.627  0.1027 -0.3614 -0.1886
 1063HK4     O189261   8.501   9.844   4.521  0.6693  0.1502  0.2174
 1063HK4    C1689262   8.783   9.856   4.731  0.3176  0.2761  0.0198
 1063HK4    C1589263   8.888   9.868   4.824 -0.0070 -0.2669  0.4586
 1063HK4     H789264   8.853   9.897   4.924 -2.6061 -1.3052 -0.1047
 1063HK4    C2089265   9.012   9.811   4.799 -0.1288 -0.5645  0.5204
 1063HK4     H989266   9.094   9.821   4.870  0.7026 -1.4420 -0.2950
 1063HK4    C1989267   9.041   9.742   4.682  0.0891  0.3371  0.0429
 1063HK4    C1889268   8.932   9.714   4.590 -0.0054  0.2624  0.1818
 1063HK4    C1789269   8.812   9.778   4.620 -0.0999  0.1895 -0.0295
 1063HK4     H889270   8.735   9.767   4.544 -0.7201  0.1974  0.5910
 1063HK4     N189271   8.981   9.641   4.480 -0.0237  0.6984 -0.1128
 1063HK4    C2189272   9.119   9.620   4.500 -0.1317  0.0423 -0.0555
 1063HK4    C2289273   9.161   9.685   4.623  0.1037  1.1207 -0.6982
 1063HK4    C2689274   9.297   9.703   4.646  0.0452  0.4374  0.2062
 1063HK4    H1389275   9.333   9.725   4.746  0.0785 -0.0622  0.3087
 1063HK4    C2589276   9.386   9.664   4.547  0.0286  0.3197  0.2364
 1063HK4    H1289277   9.487   9.703   4.556 -0.2384  0.6385  1.8276
 1063HK4    C2489278   9.349   9.602   4.428 -0.4939 -0.0591  0.5963
 1063HK4    H1189279   9.428   9.545   4.376 -0.9536  0.1194 -0.3046
 1063HK4    C2389280   9.214   9.579   4.407 -0.3579 -0.1511 -0.2047
 1063HK4    H1089281   9.181   9.540   4.311  0.6153 -0.4270 -0.4320
 1063HK4    C3989282   8.909   9.642   4.360 -0.8137 -0.0508  0.3522
 1063HK4    C4189283   8.931   9.526   4.283 -0.0925  0.2006  0.1706
 1063HK4    H2189284   8.993   9.445   4.324  0.7970  1.0963  0.6039
 1063HK4    C4289285   8.904   9.527   4.147  0.0259 -0.3485  0.1407
 1063HK4    H2289286   8.933   9.448   4.076  1.2316 -1.1286  1.4791
 1063HK4    C4389287   8.850   9.641   4.088  0.3037 -0.1866  0.1887
 1063HK4    H2389288   8.849   9.652   3.980  1.6087 -1.6318  0.0131
 1063HK4    C4489289   8.835   9.758   4.163  0.4535  0.0234 -0.1135
 1063HK4    H2489290   8.810   9.852   4.111  1.2943 -0.7113 -1.8993
 1063HK4    C4589291   8.861   9.759   4.299  0.1550  0.1417 -0.0585
 1063HK4    H2589292   8.854   9.854   4.354  1.3453  1.6209 -2.3930
 1064HK4    H2889293   7.164  10.218   2.077  0.9016 -1.2268  1.6030
 1064HK4    C4889294   7.249  10.271   2.037 -0.4318 -0.0952  0.2188
 1064HK4    C4789295   7.265  10.409   2.045  0.5699 -0.2186  0.3672
 1064HK4    H2789296   7.179  10.473   2.068 -0.1701 -1.0183 -0.2017
 1064HK4    C4689297   7.390  10.466   2.019  0.1489  0.4426 -0.2150
 1064HK4    H2689298   7.401  10.571   2.051  0.9958  0.7612 -1.5563
 1064HK4    C4089299   7.495  10.389   1.967 -0.4796 -0.1345 -0.6485
 1064HK4    C5089300   7.480  10.250   1.952  0.2006 -0.2014 -0.7466
 1064HK4    H3089301   7.562  10.177   1.953  0.3005 -0.0850  0.2816
 1064HK4    C4989302   7.361  10.197   2.000 -0.1602  0.7070 -0.6188
 1064HK4    H2989303   7.348  10.090   2.022  1.7418  1.0847  2.7526
 1064HK4     N289304   7.602  10.448   1.899 -0.1074 -0.1189 -0.0564
 1064HK4    C3089305   7.598  10.572   1.832  0.2202  0.1333  0.3842
 1064HK4    C2989306   7.491  10.645   1.782  0.2420  0.1779  0.4029
 1064HK4    H1589307   7.390  10.607   1.792  0.2844 -0.2097 -0.6139
 1064HK4    C2889308   7.510  10.766   1.716  0.0439 -0.1028 -0.1662
 1064HK4    C2789309   7.641  10.807   1.682  0.0429 -0.1022 -0.1706
 1064HK4    H1489310   7.662  10.897   1.622  2.2084 -1.6410 -1.7691
 1064HK4    C3289311   7.749  10.734   1.728  0.0331  0.2032  0.3433
 1064HK4    H1689312   7.849  10.765   1.698 -0.0203  0.9714  0.9700
 1064HK4    C3189313   7.733  10.620   1.807  0.1960  0.1730  0.3357
 1064HK4    C3489314   7.819  10.523   1.872  0.0300 -0.4002 -0.2968
 1064HK4    C3389315   7.737  10.419   1.929 -0.1349 -0.0067  0.1786
 1064HK4    C3589316   7.807  10.314   1.988 -0.0361  0.2292  0.4854
 1064HK4    H1789317   7.750  10.246   2.051 -0.8154 -0.6273 -1.0948
 1064HK4    C3689318   7.946  10.302   1.988 -0.0778 -0.2932 -0.2185
 1064HK4    H1889319   7.985  10.245   2.073 -1.2585 -1.1276 -0.2130
 1064HK4    C3789320   8.022  10.397   1.922 -0.4418 -0.1113 -0.3799
 1064HK4    H1989321   8.129  10.380   1.911 -0.7111  0.2153 -4.1240
 1064HK4    C3889322   7.957  10.507   1.866  0.1047  0.2323 -0.3461
 1064HK4    H2089323   8.023  10.586   1.831  0.8347 -0.6531 -1.0022
 1064HK4    C1489324   7.390  10.841   1.675 -0.0696 -0.0928  0.1825
 1064HK4     C989325   7.372  10.926   1.565  0.0444 -0.5522 -0.1920
 1064HK4     C889326   7.279  11.032   1.570  0.0642 -0.5427  0.0151
 1064HK4    C1189327   7.184  11.045   1.672 -0.4669 -0.5511 -0.4761
 1064HK4     H489328   7.113  11.128   1.686  0.5610  0.8310 -2.9828
 1064HK4    C1289329   7.179  10.943   1.765 -0.1167 -0.1609 -0.0281
 1064HK4     H589330   7.091  10.931   1.829  1.3129 -1.7648  1.7220
 1064HK4    C1389331   7.287  10.855   1.770  0.0107  0.0111  0.2557
 1064HK4     H689332   7.298  10.783   1.852  1.3095 -2.8731 -2.3569
 1064HK4     C789333   7.271  11.127   1.457  0.0582  0.0726  0.5336
 1064HK4     O289334   7.254  11.247   1.478 -0.2080  0.1739 -0.2370
 1064HK4     C489335   7.319  11.084   1.324 -0.2798 -0.0861  0.4619
 1064HK4     C389336   7.272  11.156   1.216  0.1210  0.2935  0.5346
 1064HK4     H389337   7.222   0.004   1.232 -1.3254  0.0513 -2.2014
 1064HK4     C289338   7.307  11.112   1.089  0.2299 -0.4352  0.8138
 1064HK4     H289339   7.248  11.141   1.000  0.7764  0.8459  0.8620
 1064HK4     C189340   7.390  11.001   1.073  1.0436  0.3088 -0.2051
 1064HK4     H189341   7.417  10.986   0.967  0.1283  1.3285 -0.5985
 1064HK4     C689342   7.452  10.937   1.182  0.0006 -0.1881  0.1006
 1064HK4     C589343   7.408  10.975   1.309  0.1223  0.3013  0.0010
 1064HK4    C1089344   7.432  10.894   1.433  0.2618 -0.0076 -0.2273
 1064HK4     O189345   7.500  10.792   1.424  0.3623  0.0187  0.2401
 1064HK4    C1689346   7.558  10.842   1.144  0.1165  0.0678 -0.2224
 1064HK4    C1589347   7.550  10.767   1.025 -0.0602  0.4381 -0.4472
 1064HK4     H789348   7.450  10.737   0.990 -0.2873  0.1323  0.4358
 1064HK4    C2089349   7.663  10.715   0.963  0.0306 -0.4135  0.4207
 1064HK4     H989350   7.647  10.662   0.869 -0.9587 -2.6021  1.7942
 1064HK4    C1989351   7.790  10.754   1.005  0.0717  0.2833 -0.3321
 1064HK4    C1889352   7.803  10.834   1.125  0.0803  0.6057 -0.5474
 1064HK4    C1789353   7.686  10.876   1.187  0.0953 -0.1190 -0.0153
 1064HK4     H889354   7.705  10.911   1.288  2.2749 -1.1989 -0.0248
 1064HK4     N189355   7.937  10.855   1.165 -0.2097  0.5394  0.4923
 1064HK4    C2189356   8.010  10.812   1.052 -0.4820  0.1245  0.4764
 1064HK4    C2289357   7.926  10.740   0.958  0.2001 -0.3276  0.2160
 1064HK4    C2689358   7.971  10.692   0.835 -0.0858  0.2045 -0.0945
 1064HK4    H1389359   7.889  10.674   0.765  1.5535 -0.2322 -1.9335
 1064HK4    C2589360   8.108  10.698   0.813 -0.1305  0.1610 -0.3930
 1064HK4    H1289361   8.141  10.660   0.716  0.8205  0.7923 -0.3156
 1064HK4    C2489362   8.196  10.761   0.900 -0.7028  0.0136  0.2969
 1064HK4    H1189363   8.299  10.774   0.862 -0.1333 -1.9320  1.0696
 1064HK4    C2389364   8.144  10.818   1.015 -0.6085  0.5423  0.0748
 1064HK4    H1089365   8.214  10.857   1.089 -0.8403  0.5703  0.2792
 1064HK4    C3989366   7.985  10.864   1.296 -0.2526  0.0960  0.5370
 1064HK4    C4189367   8.113  10.915   1.321 -0.0492 -0.1213 -0.0786
 1064HK4    H2189368   8.134  11.019   1.290 -2.1217  0.5656  0.7418
 1064HK4    C4289369   8.199  10.859   1.415 -0.2320  0.2930  0.3384
 1064HK4    H2289370   8.307  10.878   1.418  0.1273 -1.8822  2.1400
 1064HK4    C4389371   8.155  10.753   1.493  0.3402 -0.4321 -0.3227
 1064HK4    H2389372   8.214  10.727   1.581 -1.4017 -0.9102  0.7192
 1064HK4    C4489373   8.028  10.701   1.471  0.5205 -0.6121 -0.9437
 1064HK4    H2489374   7.995  10.630   1.549  3.2921 -0.4959  0.4029
 1064HK4    C4589375   7.942  10.757   1.377 -0.2355 -0.4433 -0.1545
 1064HK4    H2589376   7.836  10.730   1.378 -0.3083 -0.4201 -3.1932
 1065HK4    H2889377   6.013   8.306   5.933 -0.7618 -1.6846 -1.1539
 1065HK4    C4889378   5.933   8.266   5.995 -0.1177  0.1513  0.9183
 1065HK4    C4789379   5.807   8.311   5.957  0.0023 -0.1310  0.1755
 1065HK4    H2789380   5.801   8.406   5.902  0.8730  0.1515  0.5508
 1065HK4    C4689381   5.702   8.219   5.965 -0.0496 -0.0761  0.0962
 1065HK4    H2689382   5.616   8.245   5.902 -0.0074 -0.6614 -0.2006
 1065HK4    C4089383   5.709   8.094   6.029  0.3207 -0.0385  0.1351
 1065HK4    C5089384   5.832   8.061   6.089  0.1978 -0.3686  0.2092
 1065HK4    H3089385   5.862   7.981   6.159 -2.0769 -0.9323  0.5932
 1065HK4    C4989386   5.938   8.148   6.068  0.2334 -0.4944 -0.1383
 1065HK4    H2989387   6.039   8.121   6.102  0.0467 -1.1990 -0.1434
 1065HK4     N289388   5.593   8.016   6.047  0.1587  0.2163  0.1753
 1065HK4    C3089389   5.585   7.878   6.070  0.2641  0.1414 -0.2061
 1065HK4    C2989390   5.663   7.769   6.034  0.0209  0.0036 -0.3141
 1065HK4    H1589391   5.747   7.785   5.967  0.6197 -0.3069  0.3670
 1065HK4    C2889392   5.627   7.638   6.067 -0.1891  0.1111 -0.1146
 1065HK4    C2789393   5.505   7.614   6.134 -0.1297  0.1822  0.0188
 1065HK4    H1489394   5.483   7.509   6.159 -1.8094  0.9422  1.7820
 1065HK4    C3289395   5.430   7.722   6.179 -0.4522  0.0544 -0.2095
 1065HK4    H1689396   5.331   7.704   6.221 -0.4402 -2.9098 -1.3390
 1065HK4    C3189397   5.468   7.853   6.153  0.2686 -0.1677 -0.2931
 1065HK4    C3489398   5.397   7.978   6.165  0.1656 -0.2168 -0.3913
 1065HK4    C3389399   5.480   8.079   6.102 -0.1319  0.0945 -0.2839
 1065HK4    C3589400   5.435   8.210   6.104  0.0874  0.1590  0.3185
 1065HK4    H1789401   5.496   8.293   6.069 -0.8549  0.9444  0.5067
 1065HK4    C3689402   5.313   8.241   6.164 -0.1895  0.5262 -0.4342
 1065HK4    H1889403   5.276   8.344   6.154 -0.3996  0.3391 -1.7249
 1065HK4    C3789404   5.229   8.143   6.216  0.2989  0.1904 -0.2822
 1065HK4    H1989405   5.122   8.160   6.226  0.6086  1.8497  0.3947
 1065HK4    C3889406   5.277   8.013   6.226  0.3966  0.2338 -0.1865
 1065HK4    H2089407   5.227   7.946   6.296 -4.1750  1.5250 -1.9990
 1065HK4    C1489408   5.694   7.532   5.990 -0.1029 -0.0270  0.1501
 1065HK4     C989409   5.618   7.434   5.925 -0.2473 -0.1500  0.5028
 1065HK4     C889410   5.665   7.301   5.923  0.0787 -0.0299 -0.0935
 1065HK4    C1189411   5.795   7.276   5.967  0.2608  0.2004 -0.4929
 1065HK4     H489412   5.847   7.181   5.947  0.4162 -0.1015  1.2410
 1065HK4    C1289413   5.873   7.376   6.023 -0.2287  0.2519  0.0991
 1065HK4     H589414   5.960   7.344   6.082  1.1551  2.6870 -0.5674
 1065HK4    C1389415   5.826   7.506   6.032 -0.2371  0.2086  0.7266
 1065HK4     H689416   5.892   7.582   6.076 -0.8000  1.0229  0.1973
 1065HK4     C789417   5.568   7.196   5.885 -0.0190  0.2133 -0.5137
 1065HK4     O289418   5.611   7.089   5.844 -0.0179  0.1066 -0.2364
 1065HK4     C489419   5.424   7.230   5.875 -0.1765 -0.1561  0.4308
 1065HK4     C389420   5.332   7.125   5.877 -0.3366 -0.0456 -0.7992
 1065HK4     H389421   5.369   7.023   5.860  2.3434  1.3272 -3.7665
 1065HK4     C289422   5.195   7.144   5.878 -0.3411 -0.1216 -0.2494
 1065HK4     H289423   5.122   7.063   5.891 -2.3214  1.8816  1.5990
 1065HK4     C189424   5.157   7.278   5.883  0.4834  0.1008  0.1948
 1065HK4     H189425   5.050   7.302   5.871 -0.0064 -1.3745  1.4611
 1065HK4     C689426   5.244   7.388   5.890  0.2076  0.3732 -0.5731
 1065HK4     C589427   5.380   7.363   5.866  0.2525 -0.0368  0.0783
 1065HK4    C1089428   5.486   7.468   5.866  0.1630  0.0534 -0.3119
 1065HK4     O189429   5.489   7.565   5.790  0.0137  0.2044 -0.1253
 1065HK4    C1689430   5.194   7.511   5.954 -0.3982 -0.2817  0.2228
 1065HK4    C1589431   5.103   7.509   6.062 -0.5985 -0.3585  0.0546
 1065HK4     H789432   5.124   7.421   6.124  0.1433 -1.6715 -1.9950
 1065HK4    C2089433   5.037   7.621   6.112 -0.7632 -0.1664 -0.5890
 1065HK4     H989434   4.974   7.613   6.201 -0.5604  0.6580 -0.3667
 1065HK4    C1989435   5.057   7.740   6.043  0.3432  0.1248  0.2223
 1065HK4    C1889436   5.146   7.745   5.929 -0.1088 -0.1492 -0.1422
 1065HK4    C1789437   5.214   7.631   5.888 -0.3479 -0.3738  0.0751
 1065HK4     H889438   5.248   7.624   5.784 -1.0833 -0.0851 -0.1873
 1065HK4     N189439   5.163   7.876   5.879  0.3662 -0.1954 -0.1040
 1065HK4    C2189440   5.080   7.955   5.961 -0.0409 -0.0318 -0.6719
 1065HK4    C2289441   5.024   7.879   6.071 -0.0091  0.1839 -0.5063
 1065HK4    C2689442   4.923   7.929   6.152  0.3164  0.6302 -0.3784
 1065HK4    H1389443   4.849   7.872   6.208 -0.5983 -0.8322 -2.9930
 1065HK4    C2589444   4.880   8.060   6.130  0.2506  0.6742  0.0099
 1065HK4    H1289445   4.820   8.110   6.206  0.2634  1.2932 -0.3900
 1065HK4    C2489446   4.925   8.132   6.020  0.1344 -0.1453 -0.5745
 1065HK4    H1189447   4.883   8.233   6.012 -0.8879 -0.3032  2.1928
 1065HK4    C2389448   5.022   8.079   5.935  0.2302  0.1056 -0.6221
 1065HK4    H1089449   5.039   8.126   5.838  3.5360  0.4580  0.0727
 1065HK4    C3989450   5.230   7.916   5.763  0.1154  0.2157 -0.1072
 1065HK4    C4189451   5.280   8.047   5.741 -0.3712  0.4412  0.1169
 1065HK4    H2189452   5.266   8.122   5.820 -1.6916  1.9416 -1.5013
 1065HK4    C4289453   5.335   8.083   5.619  0.0116 -0.4563  0.0209
 1065HK4    H2289454   5.352   8.190   5.601 -1.1753 -0.4639 -1.2299
 1065HK4    C4389455   5.333   7.985   5.520  0.3025 -0.1566 -0.2811
 1065HK4    H2389456   5.405   7.997   5.440  0.7300  0.7637  0.2401
 1065HK4    C4489457   5.271   7.861   5.532  0.0048  0.0080 -0.1049
 1065HK4    H2489458   5.244   7.808   5.440  0.8307 -0.5973 -0.0144
 1065HK4    C4589459   5.217   7.826   5.656  0.3969 -0.0238  0.0576
 1065HK4    H2589460   5.144   7.745   5.659 -0.8578  1.0127 -1.6483
 1066HK4    H2889461   9.844   5.970   4.983  0.0845 -0.2563  0.8867
 1066HK4    C4889462   9.795   6.016   4.897  0.8664 -0.4787  0.3139
 1066HK4    C4789463   9.762   6.151   4.898 -0.3589 -0.7718 -0.4136
 1066HK4    H2789464   9.742   6.202   4.993  0.9440 -3.7237  1.5063
 1066HK4    C4689465   9.730   6.210   4.776  0.5890  0.8012  0.0847
 1066HK4    H2689466   9.698   6.314   4.769  0.9532  1.0648  2.1752
 1066HK4    C4089467   9.708   6.137   4.657  0.5096  0.9560  0.0051
 1066HK4    C5089468   9.735   5.999   4.665  0.2653  0.9390  0.6057
 1066HK4    H3089469   9.755   5.935   4.577  1.9439 -0.2309  1.8046
 1066HK4    C4989470   9.779   5.939   4.782  0.3124 -0.0403  0.0968
 1066HK4    H2989471   9.822   5.840   4.761 -0.2573  0.0220 -1.4230
 1066HK4     N289472   9.613   6.177   4.562  0.0578  0.2307  0.1501
 1066HK4    C3089473   9.502   6.263   4.579 -0.2141 -0.0491 -0.1744
 1066HK4    C2989474   9.427   6.307   4.687 -0.0948 -0.3018  0.0113
 1066HK4    H1589475   9.473   6.295   4.785 -0.8254  1.2095  0.5660
 1066HK4    C2889476   9.314   6.388   4.676  0.1611  0.0337 -0.1934
 1066HK4    C2789477   9.282   6.441   4.550 -0.4644 -0.2748 -0.1694
 1066HK4    H1489478   9.215   6.527   4.537 -0.6812 -0.1169  1.9278
 1066HK4    C3289479   9.357   6.398   4.440 -0.6563 -0.4036 -0.2508
 1066HK4    H1689480   9.302   6.402   4.346  0.4899  0.8791 -0.8740
 1066HK4    C3189481   9.461   6.306   4.447 -0.3768 -0.0823 -0.1334
 1066HK4    C3489482   9.548   6.242   4.351 -0.3746 -0.2074 -0.0457
 1066HK4    C3389483   9.641   6.159   4.425  0.5220  0.9534  0.1470
 1066HK4    C3589484   9.729   6.080   4.353 -0.1143  0.1625  0.2272
 1066HK4    H1789485   9.823   6.048   4.398  0.4706  2.5330  0.7424
 1066HK4    C3689486   9.720   6.076   4.214 -0.1588  0.0516  0.2332
 1066HK4    H1889487   9.769   5.996   4.156  0.6721  2.6729 -2.7487
 1066HK4    C3789488   9.629   6.152   4.143 -0.4760 -0.4862  0.0592
 1066HK4    H1989489   9.632   6.132   4.036  2.2545  1.2261 -0.2305
 1066HK4    C3889490   9.545   6.240   4.212  0.1408  0.2046 -0.0671
 1066HK4    H2089491   9.497   6.317   4.151 -1.0715 -1.3725 -1.1490
 1066HK4    C1489492   9.204   6.360   4.770 -0.2282 -0.2284 -0.7290
 1066HK4     C989493   9.074   6.356   4.718 -0.5452 -0.1914  0.0627
 1066HK4     C889494   8.973   6.425   4.790 -0.3551  0.1317  0.0160
 1066HK4    C1189495   9.007   6.485   4.911  0.4786 -0.5067  0.1006
 1066HK4     H489496   8.935   6.551   4.961 -0.5181 -1.9307  0.5890
 1066HK4    C1289497   9.134   6.481   4.966  0.5063  0.4520  0.1053
 1066HK4     H589498   9.146   6.534   5.062  3.8048 -2.9262  1.7103
 1066HK4    C1389499   9.235   6.418   4.894 -0.5078 -0.4092 -0.5742
 1066HK4     H689500   9.336   6.410   4.937 -0.6816 -2.3148 -0.4633
 1066HK4     C789501   8.832   6.424   4.745 -0.3715  0.3090  0.0611
 1066HK4     O289502   8.749   6.420   4.836 -0.3985 -0.2211  0.0129
 1066HK4     C489503   8.802   6.366   4.612 -0.2521 -0.6811  0.4633
 1066HK4     C389504   8.671   6.375   4.567  0.0905  0.3147 -0.3380
 1066HK4     H389505   8.592   6.421   4.627 -0.6129 -1.3021  0.0141
 1066HK4     C289506   8.628   6.322   4.445  0.1102  0.0038 -0.2119
 1066HK4     H289507   8.524   6.341   4.418  0.0431  1.3238  0.8976
 1066HK4     C189508   8.730   6.260   4.374  0.1883  0.6814 -0.6958
 1066HK4     H189509   8.691   6.185   4.303 -2.6281 -0.7262  2.2285
 1066HK4     C689510   8.865   6.251   4.415 -0.2027 -0.3638  0.3944
 1066HK4     C589511   8.903   6.299   4.540  0.2111  0.6093 -0.0989
 1066HK4    C1089512   9.040   6.278   4.596  0.1825  0.0020 -0.2653
 1066HK4     O189513   9.096   6.171   4.576 -1.0158 -0.6218 -0.3471
 1066HK4    C1689514   8.953   6.267   4.298 -1.0571 -0.0814 -0.2149
 1066HK4    C1589515   8.928   6.355   4.190  0.6536  0.6188 -0.0604
 1066HK4     H789516   8.828   6.402   4.187 -0.1241 -0.8279  1.7635
 1066HK4    C2089517   8.995   6.361   4.069 -0.2177  0.3886 -0.5651
 1066HK4     H989518   8.970   6.436   3.994  1.4317  1.0233 -0.5106
 1066HK4    C1989519   9.087   6.259   4.044  0.2903  0.7060 -0.0172
 1066HK4    C1889520   9.130   6.174   4.153 -0.0148 -0.0384 -0.4732
 1066HK4    C1789521   9.056   6.178   4.271 -0.4224  0.8171 -0.7531
 1066HK4     H889522   9.079   6.101   4.345 -2.0306 -0.9280 -2.0441
 1066HK4     N189523   9.236   6.090   4.113 -0.0497 -0.4544  0.3016
 1066HK4    C2189524   9.275   6.128   3.983  0.2609  0.0433  0.5349
 1066HK4    C2289525   9.178   6.225   3.936  0.3348 -0.0208  0.2472
 1066HK4    C2689526   9.194   6.286   3.812 -0.1006 -0.1751  0.1158
 1066HK4    H1389527   9.132   6.368   3.776  0.2857  0.6634  1.3174
 1066HK4    C2589528   9.305   6.251   3.736 -0.0419 -0.0686  0.1518
 1066HK4    H1289529   9.307   6.282   3.632  1.1670 -0.4293  0.0602
 1066HK4    C2489530   9.401   6.163   3.784 -0.1485 -0.0367  0.4330
 1066HK4    H1189531   9.479   6.144   3.708  0.2880  1.2122  0.5519
 1066HK4    C2389532   9.388   6.101   3.908  0.2116 -0.0117  0.4824
 1066HK4    H1089533   9.455   6.023   3.945  0.2438  0.3581  1.2178
 1066HK4    C3989534   9.290   5.980   4.181  0.4187 -0.6828 -0.4471
 1066HK4    C4189535   9.332   5.864   4.112 -0.5742 -1.0629 -0.4143
 1066HK4    H2189536   9.295   5.850   4.010  0.1164 -0.6473 -0.7239
 1066HK4    C4289537   9.411   5.770   4.178  0.4066  0.2146  0.2535
 1066HK4    H2289538   9.437   5.679   4.121  0.4159  0.8461 -0.7671
 1066HK4    C4389539   9.465   5.787   4.305  0.5742  0.0701  0.2027
 1066HK4    H2389540   9.530   5.716   4.354  0.7336  0.9477  1.2778
 1066HK4    C4489541   9.429   5.905   4.369 -0.2889 -0.1873  0.1945
 1066HK4    H2489542   9.455   5.915   4.476 -1.0910 -1.5693  0.5337
 1066HK4    C4589543   9.344   5.998   4.310 -0.3286 -0.4554 -0.1685
 1066HK4    H2589544   9.314   6.088   4.366 -1.1023 -0.7558 -0.0954
 1067HK4    H2889545   8.345  10.723   2.634  0.9784 -0.3834  1.5677
 1067HK4    C4889546   8.291  10.630   2.655  0.0230 -0.2657 -0.2288
 1067HK4    C4789547   8.364  10.516   2.685  0.5803 -0.0706 -0.8262
 1067HK4    H2789548   8.466  10.505   2.647  1.5758 -0.1432  1.7383
 1067HK4    C4689549   8.294  10.400   2.720 -0.0679  0.3928 -0.5750
 1067HK4    H2689550   8.348  10.305   2.725 -0.5365  0.2296  3.1172
 1067HK4    C4089551   8.154  10.397   2.736 -0.0180  0.0402 -0.1755
 1067HK4    C5089552   8.088  10.518   2.707 -0.0152  0.0067 -0.3089
 1067HK4    H3089553   7.984  10.533   2.740  0.2621 -0.3667  0.7532
 1067HK4    C4989554   8.153  10.636   2.673 -0.0365 -0.1042 -0.7424
 1067HK4    H2989555   8.103  10.732   2.654  0.5250  0.2646 -0.3858
 1067HK4     N289556   8.091  10.291   2.803 -0.1438 -0.0417 -0.4241
 1067HK4    C3089557   7.956  10.258   2.779 -0.1817 -0.1954 -0.0030
 1067HK4    C2989558   7.885  10.292   2.665  0.3875 -0.4893 -0.4465
 1067HK4    H1589559   7.939  10.319   2.573  0.6835 -2.3337 -0.8266
 1067HK4    C2889560   7.747  10.287   2.655  0.3571 -0.2390 -0.1468
 1067HK4    C2789561   7.681  10.240   2.770  0.3599 -0.5367 -0.2646
 1067HK4    H1489562   7.574  10.217   2.757  0.4386 -1.4223  0.6021
 1067HK4    C3289563   7.748  10.207   2.887 -0.1927  0.8052  0.4403
 1067HK4    H1689564   7.690  10.190   2.978  0.2821  0.5254  0.6954
 1067HK4    C3189565   7.887  10.212   2.898 -0.1198 -0.2480  0.0131
 1067HK4    C3489566   7.990  10.208   2.999  0.3061 -0.5693 -0.4286
 1067HK4    C3389567   8.113  10.248   2.935  0.0757  0.2277 -0.3729
 1067HK4    C3589568   8.223  10.229   3.018 -0.0681 -0.1170 -0.2635
 1067HK4    H1789569   8.323  10.260   2.986 -0.4579  0.6811 -0.7179
 1067HK4    C3689570   8.219  10.176   3.147  0.6386  0.6774  0.0894
 1067HK4    H1889571   8.313  10.143   3.195  0.2758  1.2546  1.2054
 1067HK4    C3789572   8.100  10.143   3.210  0.4737 -0.1113 -0.6214
 1067HK4    H1989573   8.098  10.120   3.316  0.1353  0.8971 -0.3999
 1067HK4    C3889574   7.988  10.160   3.130  0.1376  0.5566 -0.0119
 1067HK4    H2089575   7.896  10.134   3.184  1.4634  2.0139  3.0517
 1067HK4    C1489576   7.672  10.355   2.548  0.0770 -0.2162  0.0611
 1067HK4     C989577   7.551  10.422   2.569  0.2434  0.1223 -0.0477
 1067HK4     C889578   7.449  10.439   2.473  0.2798  0.2245 -0.0684
 1067HK4    C1189579   7.474  10.388   2.346 -0.5758  0.1752 -0.2157
 1067HK4     H489580   7.384  10.368   2.285  0.3588 -0.9971 -1.2476
 1067HK4    C1289581   7.591  10.322   2.311 -0.3100  0.5116  0.0332
 1067HK4     H589582   7.615  10.279   2.212  0.4488 -0.2811  0.5552
 1067HK4    C1389583   7.680  10.305   2.416 -0.4136 -0.1763  0.0150
 1067HK4     H689584   7.775  10.258   2.383 -0.4539 -2.4748  3.0090
 1067HK4     C789585   7.316  10.493   2.507  0.3432  0.3694 -0.0534
 1067HK4     O289586   7.248  10.523   2.410  0.8094  0.0966 -0.4658
 1067HK4     C489587   7.283  10.521   2.649  0.0449 -1.1387  0.1821
 1067HK4     C389588   7.148  10.543   2.674  0.1699 -0.2193  0.0803
 1067HK4     H389589   7.087  10.581   2.591 -0.1239  0.0093  0.3985
 1067HK4     C289590   7.095  10.503   2.796  0.0901  0.0136  0.1232
 1067HK4     H289591   6.987  10.510   2.815 -0.1396 -1.1490 -0.7128
 1067HK4     C189592   7.189  10.471   2.894 -0.0428 -0.4421  0.1009
 1067HK4     H189593   7.148  10.449   2.994 -1.2456 -1.4893 -0.6128
 1067HK4     C689594   7.329  10.470   2.877 -0.0399 -0.2628  0.0927
 1067HK4     C589595   7.379  10.501   2.750  0.2084  0.1241  0.2868
 1067HK4    C1089596   7.518  10.471   2.705  0.0964  0.1911 -0.1082
 1067HK4     O189597   7.606  10.534   2.763  0.0812  0.2347 -0.1365
 1067HK4    C1689598   7.404  10.380   2.967  0.7433  0.0281 -0.2694
 1067HK4    C1589599   7.356  10.255   3.010 -0.3413  0.6474  0.3329
 1067HK4     H789600   7.271  10.218   2.951  0.4966 -1.2202  0.2514
 1067HK4    C2089601   7.406  10.184   3.119  0.2211  0.7347  0.1353
 1067HK4     H989602   7.375  10.080   3.129  0.5829  0.5590 -0.5128
 1067HK4    C1989603   7.510  10.239   3.193  0.0282  0.5562  0.5401
 1067HK4    C1889604   7.556  10.371   3.156  0.1173  0.2925 -0.3206
 1067HK4    C1789605   7.504  10.436   3.045  0.4055  0.6269 -0.2605
 1067HK4     H889606   7.547  10.530   3.010  0.9873  0.2662 -0.5249
 1067HK4     N189607   7.671  10.405   3.231 -0.0971  0.2758  0.0163
 1067HK4    C2189608   7.687  10.304   3.329 -0.1749 -0.1025 -0.3572
 1067HK4    C2289609   7.597  10.195   3.300 -0.3440 -0.1986  0.5350
 1067HK4    C2689610   7.622  10.067   3.350  0.3421 -0.3878 -0.2876
 1067HK4    H1389611   7.583   9.987   3.286  0.6644 -1.3237  0.6848
 1067HK4    C2589612   7.724  10.042   3.440  0.1005 -0.7236 -0.1063
 1067HK4    H1289613   7.734   9.941   3.481 -0.2118 -0.7435 -0.0823
 1067HK4    C2489614   7.810  10.146   3.472 -0.1083 -0.4445 -0.4433
 1067HK4    H1189615   7.907  10.127   3.520  0.5206  2.2832 -0.5245
 1067HK4    C2389616   7.795  10.269   3.409 -0.2252 -0.4572 -0.4452
 1067HK4    H1089617   7.876  10.340   3.424  0.9756 -1.5701 -1.5652
 1067HK4    C3989618   7.770  10.499   3.202  0.2598 -0.0971  0.0243
 1067HK4    C4189619   7.823  10.579   3.306  0.1567 -0.0525  0.0428
 1067HK4    H2189620   7.780  10.578   3.407 -1.2567  2.5049 -0.4691
 1067HK4    C4289621   7.909  10.685   3.280  0.3252 -0.1380  0.2511
 1067HK4    H2289622   7.934  10.759   3.358 -0.7495  1.3766 -0.8208
 1067HK4    C4389623   7.950  10.708   3.150 -0.5528 -0.0719 -0.0159
 1067HK4    H2389624   8.007  10.797   3.123  2.0625 -1.5920  0.2921
 1067HK4    C4489625   7.899  10.633   3.044 -0.4372  0.1409 -0.2251
 1067HK4    H2489626   7.917  10.663   2.940 -0.9311 -1.6553 -0.8476
 1067HK4    C4589627   7.816  10.525   3.072  0.4559 -0.4838  0.0148
 1067HK4    H2589628   7.779  10.457   2.993 -1.1878  1.3417 -0.8481
 1068HK4    H2889629   5.488   9.993   9.307 -0.2198 -0.7976 -0.7362
 1068HK4    C4889630   5.461  10.009   9.202  0.0768  1.0218 -0.5378
 1068HK4    C4789631   5.547  10.042   9.099  0.6509  0.5490 -0.2091
 1068HK4    H2789632   5.652  10.070   9.116  0.6187  1.2316 -1.0733
 1068HK4    C4689633   5.497  10.048   8.969 -0.2406  0.6097  0.1347
 1068HK4    H2689634   5.559  10.087   8.886  0.2330 -0.9754 -0.2790
 1068HK4    C4089635   5.367  10.009   8.931  0.0242 -0.1702  0.0057
 1068HK4    C5089636   5.282   9.974   9.037 -0.5260  0.3485 -0.2614
 1068HK4    H3089637   5.180   9.944   9.011 -0.1249 -0.6337 -0.7053
 1068HK4    C4989638   5.330   9.978   9.168  0.3387 -0.0422 -0.5637
 1068HK4    H2989639   5.269   9.943   9.253  2.9682  0.7824  1.7381
 1068HK4     N289640   5.314  10.085   8.826 -0.2213  0.3841  0.5318
 1068HK4    C3089641   5.218  10.030   8.738  0.0222  0.2937  0.3200
 1068HK4    C2989642   5.220   9.905   8.678 -0.4806  0.5082 -0.1531
 1068HK4    H1589643   5.274   9.823   8.727 -1.3516  0.2411  0.3797
 1068HK4    C2889644   5.141   9.877   8.567 -0.4323 -0.1923 -0.0142
 1068HK4    C2789645   5.056   9.980   8.522  0.0524  0.4752  0.5799
 1068HK4    H1489646   4.996   9.959   8.432  1.2419 -3.8375  0.6552
 1068HK4    C3289647   5.055  10.107   8.579 -0.2168  0.7624 -0.0612
 1068HK4    H1689648   4.977  10.178   8.553  0.6909  2.7224  2.4473
 1068HK4    C3189649   5.142  10.140   8.682  0.1307  0.1369 -0.1459
 1068HK4    C3489650   5.208  10.264   8.718 -0.1523  0.2743 -0.1032
 1068HK4    C3389651   5.314  10.225   8.809 -0.4608  0.3555  0.2906
 1068HK4    C3589652   5.404  10.324   8.847 -0.1270 -0.0079  0.4424
 1068HK4    H1789653   5.466  10.312   8.936  0.6269  0.8183  0.0461
 1068HK4    C3689654   5.399  10.452   8.794  0.1510 -0.1882 -0.0215
 1068HK4    H1889655   5.476  10.528   8.813 -1.0873  1.5930 -1.8506
 1068HK4    C3789656   5.292  10.488   8.713 -0.2528 -0.2049  0.4995
 1068HK4    H1989657   5.265  10.593   8.706 -2.3446 -0.7590 -0.3752
 1068HK4    C3889658   5.196  10.395   8.674 -0.6735  0.3409  0.2334
 1068HK4    H2089659   5.108  10.424   8.616 -0.0406  0.3146 -0.7506
 1068HK4    C1489660   5.175   9.767   8.477 -0.1974 -0.0710 -0.0740
 1068HK4     C989661   5.197   9.776   8.339  0.1896  0.3558  0.0168
 1068HK4     C889662   5.195   9.660   8.259  0.2182  0.1355  0.3437
 1068HK4    C1189663   5.192   9.536   8.323 -0.4145  0.0681  0.1892
 1068HK4     H489664   5.194   9.441   8.268 -0.8002  0.2059 -0.0718
 1068HK4    C1289665   5.176   9.523   8.460 -0.1001 -0.2277  0.1999
 1068HK4     H589666   5.203   9.430   8.512  0.8049  1.2890  2.5304
 1068HK4    C1389667   5.164   9.639   8.536  0.0444 -0.0675 -0.0213
 1068HK4     H689668   5.138   9.630   8.643  2.5279 -0.7629  0.5580
 1068HK4     C789669   5.188   9.672   8.112  0.4729 -0.4297  0.2824
 1068HK4     O289670   5.215   9.569   8.051 -0.1697 -0.2064 -0.3818
 1068HK4     C489671   5.180   9.807   8.051 -0.3359 -0.4797  0.2676
 1068HK4     C389672   5.151   9.811   7.915  0.1552  0.4953  0.1841
 1068HK4     H389673   5.186   9.724   7.857  0.0958  0.3180  0.4156
 1068HK4     C289674   5.112   9.929   7.854  0.1738  0.4000 -0.0177
 1068HK4     H289675   5.069   9.923   7.753 -1.1566  2.0579  0.4288
 1068HK4     C189676   5.108  10.043   7.934  0.0528  0.0937  0.4135
 1068HK4     H189677   5.075  10.139   7.892 -0.4986  1.3241  3.4826
 1068HK4     C689678   5.155  10.044   8.068 -0.3370  0.2294  0.5474
 1068HK4     C589679   5.194   9.924   8.128  0.1341 -0.0977 -0.3899
 1068HK4    C1089680   5.225   9.907   8.273 -0.4239  0.3741 -0.2134
 1068HK4     O189681   5.320   9.973   8.316 -0.1622 -0.0707 -0.1019
 1068HK4    C1689682   5.112  10.157   8.151 -0.2800  0.5452  0.1530
 1068HK4    C1589683   4.987  10.219   8.132 -0.6015 -0.1128  0.0699
 1068HK4     H789684   4.913  10.163   8.073 -0.0498  1.0653 -1.7931
 1068HK4    C2089685   4.958  10.340   8.195 -0.1334  0.2188 -0.3449
 1068HK4     H989686   4.865  10.384   8.160  0.4162  1.6652 -0.0040
 1068HK4    C1989687   5.057  10.406   8.268 -0.1152  0.2399 -0.3910
 1068HK4    C1889688   5.191  10.351   8.278 -0.2476 -0.0189 -0.0464
 1068HK4    C1789689   5.212  10.230   8.212  0.1544 -0.0726  0.1848
 1068HK4     H889690   5.316  10.197   8.215  0.1168 -0.0816  1.4588
 1068HK4     N189691   5.278  10.437   8.346 -0.2044 -0.0064 -0.1143
 1068HK4    C2189692   5.202  10.551   8.378 -0.1772  0.0553 -0.2776
 1068HK4    C2289693   5.064  10.533   8.337 -0.1561  0.2762 -0.4447
 1068HK4    C2689694   4.965  10.624   8.372  0.1610  0.5064 -0.1477
 1068HK4    H1389695   4.869  10.620   8.320 -0.2185 -0.3751  0.6140
 1068HK4    C2589696   5.000  10.742   8.438  0.2537  0.4616 -0.1212
 1068HK4    H1289697   4.920  10.801   8.481  0.1272 -0.4195  0.8646
 1068HK4    C2489698   5.134  10.764   8.468  0.1332  0.1777  0.6325
 1068HK4    H1189699   5.162  10.861   8.511 -1.3524  1.1151 -0.4579
 1068HK4    C2389700   5.234  10.671   8.440 -0.2204  0.0707 -0.2806
 1068HK4    H1089701   5.328  10.684   8.493 -0.4939 -0.7340  0.4136
 1068HK4    C3989702   5.391  10.399   8.421 -0.0679  0.1398 -0.2440
 1068HK4    C4189703   5.498  10.485   8.452  0.3745 -0.2948 -0.5672
 1068HK4    H2189704   5.500  10.588   8.413 -0.8525  0.2556  0.7820
 1068HK4    C4289705   5.601  10.437   8.532 -0.0554 -0.1222  0.0920
 1068HK4    H2289706   5.690  10.497   8.558  0.4759 -0.7240 -0.3403
 1068HK4    C4389707   5.610  10.308   8.582  0.0494 -0.0829  0.1660
 1068HK4    H2389708   5.677  10.286   8.666  2.4900  1.5663 -1.2921
 1068HK4    C4489709   5.511  10.218   8.545  0.1954 -0.0492 -0.3147
 1068HK4    H2489710   5.522  10.110   8.564  0.9943  0.3539  1.6608
 1068HK4    C4589711   5.403  10.269   8.473  0.2682  0.1588 -0.2736
 1068HK4    H2589712   5.313  10.205   8.474 -0.2923  0.9452 -0.2365
 1069HK4    H2889713   6.036   6.468   4.379 -1.1500 -2.0565 -0.4321
 1069HK4    C4889714   5.949   6.534   4.374  0.3924  0.1452  0.8944
 1069HK4    C4789715   5.960   6.666   4.333 -0.1614 -0.2096 -0.4177
 1069HK4    H2789716   6.034   6.686   4.254 -0.9776 -0.1665 -1.1793
 1069HK4    C4689717   5.862   6.762   4.357 -0.3777 -0.4281 -0.4413
 1069HK4    H2689718   5.869   6.863   4.315  0.1138 -0.0155  0.6325
 1069HK4    C4089719   5.751   6.724   4.436  0.0947 -0.0191  0.4251
 1069HK4    C5089720   5.741   6.592   4.484  0.0748 -0.2226 -0.1317
 1069HK4    H3089721   5.663   6.566   4.557  0.8017 -0.8656  0.4432
 1069HK4    C4989722   5.836   6.497   4.446 -0.1214 -0.3985 -0.1809
 1069HK4    H2989723   5.829   6.390   4.472  0.8248 -0.1221  1.2903
 1069HK4     N289724   5.671   6.821   4.497  0.1275  0.2190  0.0880
 1069HK4    C3089725   5.701   6.954   4.533  0.1473  0.0764  0.6042
 1069HK4    C2989726   5.827   7.010   4.551  0.2250 -0.0973  0.5957
 1069HK4    H1589727   5.913   6.944   4.541 -0.5102 -0.9264 -0.3954
 1069HK4    C2889728   5.846   7.127   4.623 -0.1421  0.1317  0.3225
 1069HK4    C2789729   5.728   7.196   4.659 -0.0062  0.4203  0.2142
 1069HK4    H1489730   5.728   7.303   4.681 -1.5314  0.6550 -0.8028
 1069HK4    C3289731   5.598   7.146   4.646  0.2275 -0.0899 -0.2137
 1069HK4    H1689732   5.515   7.211   4.672 -0.6348 -0.5887 -1.6719
 1069HK4    C3189733   5.584   7.022   4.586 -0.3044  0.0174 -0.3101
 1069HK4    C3489734   5.473   6.928   4.578 -0.4409  0.1726 -0.2602
 1069HK4    C3389735   5.531   6.816   4.506  0.1559  0.0051  0.4637
 1069HK4    C3589736   5.445   6.718   4.456  0.3095  0.0530  0.1057
 1069HK4    H1789737   5.479   6.649   4.379 -0.6669  0.1225 -0.3861
 1069HK4    C3689738   5.309   6.723   4.481  0.3460  0.7948  0.1630
 1069HK4    H1889739   5.241   6.648   4.438  1.4079  1.3765 -2.5612
 1069HK4    C3789740   5.257   6.831   4.551 -0.7651  0.2102  0.2478
 1069HK4    H1989741   5.149   6.835   4.566 -1.0859  3.9653 -2.1958
 1069HK4    C3889742   5.337   6.933   4.602 -0.4458  0.2351 -0.3054
 1069HK4    H2089743   5.299   7.010   4.670  0.2987 -0.6907  1.1783
 1069HK4    C1489744   5.974   7.160   4.685  0.2301  0.0938 -0.4199
 1069HK4     C989745   5.993   7.234   4.803  0.3023 -0.0011 -0.3700
 1069HK4     C889746   6.103   7.321   4.816 -0.1011  0.4493  0.0764
 1069HK4    C1189747   6.206   7.313   4.722 -0.5227  0.1664 -0.3674
 1069HK4     H489748   6.300   7.362   4.752  1.3782 -1.8310 -2.9159
 1069HK4    C1289749   6.203   7.222   4.618  0.1143 -0.2768 -0.0051
 1069HK4     H589750   6.283   7.235   4.543  0.9391  0.2609  0.9633
 1069HK4    C1389751   6.086   7.150   4.599  0.0316  0.0247 -0.6685
 1069HK4     H689752   6.068   7.080   4.516 -2.7403  1.0448 -0.9756
 1069HK4     C789753   6.091   7.432   4.912  0.0645  1.0935 -0.6350
 1069HK4     O289754   6.193   7.491   4.948  0.2831  0.5508 -0.3524
 1069HK4     C489755   5.967   7.450   4.991  0.1965 -0.2284 -0.1137
 1069HK4     C389756   5.955   7.568   5.064  0.3314 -0.4252  0.2275
 1069HK4     H389757   6.017   7.654   5.037 -0.2735  0.3485  1.2928
 1069HK4     C289758   5.834   7.596   5.126  0.0538 -0.3636 -0.3388
 1069HK4     H289759   5.827   7.693   5.178  0.4250  0.9355 -2.6498
 1069HK4     C189760   5.735   7.499   5.120  0.0113 -0.3669  0.4060
 1069HK4     H189761   5.641   7.517   5.174 -0.4276  0.1537 -0.5330
 1069HK4     C689762   5.742   7.373   5.056  0.4643 -0.1202 -0.0282
 1069HK4     C589763   5.865   7.352   4.992  0.2382 -0.2740 -0.4158
 1069HK4    C1089764   5.893   7.229   4.913  0.4972 -0.3439 -0.2119
 1069HK4     O189765   5.867   7.114   4.950  0.2506 -0.3148 -0.3010
 1069HK4    C1689766   5.611   7.315   5.025  0.2501  0.0634  0.5317
 1069HK4    C1589767   5.498   7.398   5.011  0.2566 -0.0616 -0.3034
 1069HK4     H789768   5.503   7.500   4.972 -4.6780 -0.0574 -1.1852
 1069HK4    C2089769   5.369   7.348   5.029  0.3696 -0.4761 -0.6224
 1069HK4     H989770   5.285   7.413   5.006  0.1554 -0.7556 -0.6175
 1069HK4    C1989771   5.352   7.215   5.065  0.0730 -0.4663 -0.7273
 1069HK4    C1889772   5.464   7.123   5.066  0.2896 -0.2000  0.0676
 1069HK4    C1789773   5.590   7.180   5.054  0.2130  0.0075  0.2597
 1069HK4     H889774   5.673   7.114   5.079 -0.9860 -1.2794  0.8857
 1069HK4     N189775   5.418   6.992   5.090 -0.0266 -0.0549  0.2503
 1069HK4    C2189776   5.286   7.008   5.138 -0.0007 -0.3905  0.4374
 1069HK4    C2289777   5.234   7.138   5.100  0.3004 -0.2095  0.6381
 1069HK4    C2689778   5.103   7.169   5.134  0.2308  0.7056 -0.4120
 1069HK4    H1389779   5.051   7.257   5.096 -1.4527 -0.4722 -0.9292
 1069HK4    C2589780   5.038   7.086   5.225  0.2866  0.5537 -0.5075
 1069HK4    H1289781   4.945   7.120   5.270  1.0305  0.5757  1.0308
 1069HK4    C2489782   5.100   6.974   5.278 -0.3223  0.4680  0.0299
 1069HK4    H1189783   5.040   6.918   5.352  1.7673 -1.9441 -0.0366
 1069HK4    C2389784   5.222   6.927   5.231 -0.4473 -0.1638  0.3282
 1069HK4    H1089785   5.286   6.867   5.296  0.9853  0.4427 -0.4920
 1069HK4    C3989786   5.474   6.886   5.018 -0.1926  0.2818 -0.3858
 1069HK4    C4189787   5.449   6.753   5.058  0.3833  0.1426 -0.4790
 1069HK4    H2189788   5.361   6.731   5.121  1.9675 -0.7580  1.4716
 1069HK4    C4289789   5.523   6.651   5.000  0.9432 -0.0770  0.6019
 1069HK4    H2289790   5.500   6.550   5.035  0.7340  0.0154  0.7324
 1069HK4    C4389791   5.616   6.672   4.898 -0.7012  0.4335 -0.8107
 1069HK4    H2389792   5.669   6.587   4.856 -0.4277  0.4295 -0.4607
 1069HK4    C4489793   5.637   6.803   4.855  0.1973  0.5323 -0.0791
 1069HK4    H2489794   5.735   6.815   4.806  0.2208 -0.2223 -0.2228
 1069HK4    C4589795   5.567   6.907   4.914 -0.1148  0.4402 -0.2843
 1069HK4    H2589796   5.553   7.005   4.866  0.7726  1.8574  2.2343
 1070HK4    H2889797   8.548   2.633   0.301  0.6415 -2.0098 -0.6698
 1070HK4    C4889798   8.641   2.676   0.266 -0.3498  0.5728 -0.2081
 1070HK4    C4789799   8.669   2.670   0.130 -0.5987  0.6349 -0.2629
 1070HK4    H2789800   8.607   2.614   0.058  0.7279 -2.4638  0.9064
 1070HK4    C4689801   8.792   2.719   0.085 -0.1677 -0.0806  0.1233
 1070HK4    H2689802   8.804   2.702  11.225  0.8534  3.4555 -0.3522
 1070HK4    C4089803   8.890   2.774   0.169  0.0521 -0.2864  0.0029
 1070HK4    C5089804   8.856   2.780   0.306  0.3764 -0.7794  0.1045
 1070HK4    H3089805   8.917   2.846   0.369 -0.7134  0.3201  0.0131
 1070HK4    C4989806   8.731   2.739   0.352  0.3993 -0.8826  0.0819
 1070HK4    H2989807   8.692   2.751   0.454  0.7265  3.7420 -0.2471
 1070HK4     N289808   9.023   2.793   0.129  0.0740 -0.4567 -0.0070
 1070HK4    C3089809   9.094   2.717   0.034 -0.0170 -0.5152 -0.0295
 1070HK4    C2989810   9.075   2.584  11.245 -0.3924 -0.4037 -0.2448
 1070HK4    H1589811   8.982   2.533   0.020 -0.4190 -0.3484 -0.2291
 1070HK4    C2889812   9.181   2.511  11.193 -0.0893  0.0606 -0.2872
 1070HK4    C2789813   9.303   2.576  11.167 -0.0005 -0.3309 -0.8718
 1070HK4    H1489814   9.384   2.524  11.114 -1.8928 -1.4066 -2.7357
 1070HK4    C3289815   9.325   2.708  11.206 -1.1367 -0.2975 -0.3315
 1070HK4    H1689816   9.421   2.753  11.179 -0.3197 -1.6939  0.2181
 1070HK4    C3189817   9.222   2.782   0.016 -0.3319  0.2395  0.4206
 1070HK4    C3489818   9.226   2.904   0.093  0.1553  0.4468  0.0715
 1070HK4    C3389819   9.099   2.906   0.163 -0.0498 -0.2908 -0.2811
 1070HK4    C3589820   9.068   3.023   0.232  0.4499 -0.3970  0.1222
 1070HK4    H1789821   8.968   3.025   0.275 -0.0030 -0.3014 -0.9093
 1070HK4    C3689822   9.158   3.129   0.223  0.4662 -0.3829  0.4682
 1070HK4    H1889823   9.123   3.224   0.267  0.7564  0.3748 -0.9164
 1070HK4    C3789824   9.286   3.124   0.168  0.2246  0.7411 -0.2122
 1070HK4    H1989825   9.367   3.190   0.198  1.1804 -0.5640  0.0921
 1070HK4    C3889826   9.315   3.011   0.094  0.0343  0.5493  0.0012
 1070HK4    H2089827   9.409   2.987   0.045 -1.5299 -3.5164 -1.1757
 1070HK4    C1489828   9.169   2.367  11.164  0.3515  0.0173 -0.2698
 1070HK4     C989829   9.277   2.280  11.149  0.7498  0.5000 -0.2089
 1070HK4     C889830   9.272   2.174  11.056  0.1626  0.2180  0.1389
 1070HK4    C1189831   9.152   2.151  10.990  0.2389 -0.4182  0.2203
 1070HK4     H489832   9.140   2.069  10.917  2.2212  0.5673 -1.2668
 1070HK4    C1289833   9.037   2.227  11.013  0.2036 -0.4322  0.0841
 1070HK4     H589834   8.941   2.204  10.963 -0.7239  2.2628  0.5633
 1070HK4    C1389835   9.047   2.334  11.101  0.2143 -0.6409  0.3391
 1070HK4     H689836   8.953   2.384  11.130  0.4156  0.0378 -0.1566
 1070HK4     C789837   9.379   2.073  11.053  0.0400  0.0956 -0.1394
 1070HK4     O289838   9.394   2.009  10.949 -0.1331  0.1199 -0.1801
 1070HK4     C489839   9.482   2.075  11.159  0.4132  0.4203 -0.5054
 1070HK4     C389840   9.586   1.983  11.155  0.1706  0.1273 -0.1251
 1070HK4     H389841   9.606   1.941  11.056 -2.1720  1.1371 -1.0594
 1070HK4     C289842   9.667   1.952   0.016  0.4381 -0.3125 -0.4521
 1070HK4     H289843   9.750   1.880   0.010 -0.5382 -1.4299 -0.6742
 1070HK4     C189844   9.631   2.015   0.134  0.1795  0.1275 -0.7644
 1070HK4     H189845   9.696   1.987   0.219  0.5908  0.0664 -1.0972
 1070HK4     C689846   9.521   2.102   0.148  0.3122  0.2258 -0.3455
 1070HK4     C589847   9.451   2.140   0.033  0.1913  0.0162 -0.3438
 1070HK4    C1089848   9.367   2.262   0.019 -0.0724 -0.0865  0.3330
 1070HK4     O189849   9.397   2.364   0.079 -0.4274  0.3006 -0.1415
 1070HK4    C1689850   9.465   2.116   0.284  0.1021 -0.4538 -0.3595
 1070HK4    C1589851   9.536   2.092   0.403 -0.0229  0.3222 -0.1315
 1070HK4     H789852   9.645   2.091   0.392 -0.2042 -1.9525 -1.9646
 1070HK4    C2089853   9.475   2.070   0.526 -0.1122  0.3464 -0.1725
 1070HK4     H989854   9.539   2.065   0.614 -1.4938  0.3152  0.8482
 1070HK4    C1989855   9.338   2.087   0.542 -0.3148 -1.0368 -0.3762
 1070HK4    C1889856   9.266   2.116   0.420 -0.3893 -0.6248 -0.2326
 1070HK4    C1789857   9.327   2.125   0.295  0.1378 -0.4023  0.0390
 1070HK4     H889858   9.266   2.135   0.205  1.2710 -0.5505 -0.7430
 1070HK4     N189859   9.128   2.133   0.446 -0.3108 -0.3918  0.0332
 1070HK4    C2189860   9.110   2.102   0.582 -0.1614 -0.7080 -0.0186
 1070HK4    C2289861   9.239   2.086   0.648 -0.0063  0.2676 -0.0772
 1070HK4    C2689862   9.250   2.043   0.780  0.1154  0.6666  0.0436
 1070HK4    H1389863   9.345   2.038   0.833 -1.3389  2.7266  3.0035
 1070HK4    C2589864   9.131   2.028   0.850  0.2069 -0.2154  0.0051
 1070HK4    H1289865   9.135   1.995   0.954 -0.5111 -2.2532 -0.5902
 1070HK4    C2489866   9.008   2.060   0.793 -0.0111 -0.0943  0.5364
 1070HK4    H1189867   8.919   2.070   0.857 -0.4974  0.0537 -0.1686
 1070HK4    C2389868   8.997   2.107   0.663  0.2112 -0.1994  0.4797
 1070HK4    H1089869   8.906   2.155   0.629  0.2740 -1.0428 -0.9416
 1070HK4    C3989870   9.045   2.204   0.359  0.0204 -0.2569 -0.1713
 1070HK4    C4189871   8.910   2.166   0.373  0.1728 -0.7369  0.0478
 1070HK4    H2189872   8.888   2.062   0.400  1.5583 -1.0638 -0.0747
 1070HK4    C4289873   8.809   2.254   0.335  0.6559 -0.1594  0.1023
 1070HK4    H2289874   8.710   2.255   0.382  1.3385  0.0847  1.5628
 1070HK4    C4389875   8.831   2.376   0.271 -0.1819  0.0924  0.2883
 1070HK4    H2389876   8.748   2.439   0.240  0.5298  1.4024  0.9689
 1070HK4    C4489877   8.965   2.411   0.260 -0.1498 -0.0891  0.0932
 1070HK4    H2489878   8.995   2.507   0.215  2.1975 -1.7047 -1.9263
 1070HK4    C4589879   9.071   2.332   0.304 -0.1329 -0.2804 -0.2977
 1070HK4    H2589880   9.174   2.368   0.307 -0.7721  1.6413 -0.7836
 1071HK4    H2889881   8.729   8.663   6.274 -2.0921  0.9623 -1.9954
 1071HK4    C4889882   8.745   8.570   6.218 -0.4800  0.1970 -0.3398
 1071HK4    C4789883   8.689   8.448   6.254  0.4228 -0.0624  0.1931
 1071HK4    H2789884   8.626   8.446   6.345 -1.7262 -0.3040 -1.2713
 1071HK4    C4689885   8.682   8.337   6.171 -0.0518  0.1114  0.0029
 1071HK4    H2689886   8.612   8.255   6.194  1.1992 -0.8559  0.4218
 1071HK4    C4089887   8.734   8.349   6.040 -0.7355  0.0949 -0.2698
 1071HK4    C5089888   8.794   8.470   6.000  0.0219 -0.1128  0.2410
 1071HK4    H3089889   8.833   8.485   5.898  0.5113 -0.1043  0.4244
 1071HK4    C4989890   8.804   8.574   6.092  0.3417  0.0358  0.0371
 1071HK4    H2989891   8.846   8.669   6.055 -0.4693  0.0869 -0.7623
 1071HK4     N289892   8.759   8.240   5.957 -0.2279  0.2822 -0.3570
 1071HK4    C3089893   8.786   8.111   6.007  0.3996  0.6600  0.2864
 1071HK4    C2989894   8.865   8.076   6.116 -0.4265  0.0944  0.7055
 1071HK4    H1589895   8.896   8.145   6.193  2.1383 -0.6007  0.3378
 1071HK4    C2889896   8.916   7.947   6.130  0.2207  0.2105 -0.5188
 1071HK4    C2789897   8.877   7.851   6.034 -0.5505 -0.0643  0.0678
 1071HK4    H1489898   8.923   7.753   6.052 -1.1434 -0.0435  1.8265
 1071HK4    C3289899   8.793   7.879   5.927 -0.6690  0.0178  0.1819
 1071HK4    H1689900   8.771   7.800   5.855  0.8480  1.6654 -2.1681
 1071HK4    C3189901   8.752   8.010   5.908  0.4658  0.4189  0.5106
 1071HK4    C3489902   8.692   8.084   5.798  0.0983 -0.2793  0.2422
 1071HK4    C3389903   8.707   8.225   5.826 -0.3898 -0.1240 -0.2481
 1071HK4    C3589904   8.676   8.314   5.724  0.0412 -0.0751 -0.3347
 1071HK4    H1789905   8.725   8.411   5.717  0.2782 -0.2239 -0.7855
 1071HK4    C3689906   8.615   8.272   5.606  0.7245 -0.1532 -0.6622
 1071HK4    H1889907   8.578   8.350   5.539 -0.0575  1.3630  1.4935
 1071HK4    C3789908   8.600   8.135   5.586 -0.2209 -0.0997 -0.3286
 1071HK4    H1989909   8.549   8.094   5.499  0.4950 -0.6438 -0.4918
 1071HK4    C3889910   8.640   8.038   5.678 -0.1093  0.3469  0.0957
 1071HK4    H2089911   8.654   7.933   5.654  2.2082  0.6309  0.1443
 1071HK4    C1489912   9.009   7.916   6.239 -0.1747  0.2360 -0.1754
 1071HK4     C989913   9.104   7.813   6.236 -0.2215  0.1781  0.2386
 1071HK4     C889914   9.132   7.735   6.350 -0.6736 -0.0355  0.2041
 1071HK4    C1189915   9.077   7.777   6.471 -0.0619  0.1085  0.4331
 1071HK4     H489916   9.099   7.723   6.564 -0.2107 -1.8944 -0.6607
 1071HK4    C1289917   8.997   7.890   6.482 -0.2999 -0.0320  0.1571
 1071HK4     H589918   8.951   7.921   6.577 -0.2756  0.7445 -0.0858
 1071HK4    C1389919   8.965   7.959   6.366  0.0027 -0.1358  0.0127
 1071HK4     H689920   8.954   8.069   6.369  2.1514  0.1015 -0.0503
 1071HK4     C789921   9.223   7.619   6.342 -0.5650  0.0380  0.3387
 1071HK4     O289922   9.306   7.602   6.431  0.3404 -0.1613 -0.5404
 1071HK4     C489923   9.243   7.560   6.208  0.2066  0.5219  0.2382
 1071HK4     C389924   9.295   7.432   6.192  0.1509  0.5824 -0.4704
 1071HK4     H389925   9.252   7.356   6.259 -0.4790  3.2832  2.3164
 1071HK4     C289926   9.346   7.386   6.072 -0.7334 -0.2750 -0.5255
 1071HK4     H289927   9.401   7.291   6.062  1.7506  1.2510 -1.9345
 1071HK4     C189928   9.330   7.470   5.962  0.0555 -0.0505 -0.4763
 1071HK4     H189929   9.373   7.430   5.869 -0.0924  0.6871 -0.8657
 1071HK4     C689930   9.259   7.591   5.969 -0.3687 -0.3362  0.2813
 1071HK4     C589931   9.232   7.644   6.095  0.3328  0.3929  0.1288
 1071HK4    C1089932   9.177   7.782   6.110  0.0018  0.2365  0.3521
 1071HK4     O189933   9.232   7.877   6.055 -0.0775  0.0139 -0.1166
 1071HK4    C1689934   9.156   7.607   5.865 -0.1014  0.1305  0.0858
 1071HK4    C1589935   9.098   7.491   5.811  0.6961 -0.3771  0.3234
 1071HK4     H789936   9.043   7.428   5.882 -0.5211 -1.3504 -1.4413
 1071HK4    C2089937   9.075   7.468   5.676 -0.5153 -0.1924  0.5000
 1071HK4     H989938   9.028   7.378   5.636  0.9641 -0.3414 -0.9268
 1071HK4    C1989939   9.094   7.576   5.591 -0.0193 -0.2397  0.5534
 1071HK4    C1889940   9.134   7.705   5.644 -0.4133  0.1831 -0.1703
 1071HK4    C1789941   9.172   7.715   5.778 -0.5623  0.0345 -0.1172
 1071HK4     H889942   9.217   7.810   5.804 -0.3635 -0.7802  2.6211
 1071HK4     N189943   9.146   7.797   5.538  0.4603  0.1566 -0.0971
 1071HK4    C2189944   9.104   7.727   5.424 -0.0726 -0.1772  0.3017
 1071HK4    C2289945   9.076   7.587   5.448 -0.1924 -0.1039  0.5869
 1071HK4    C2689946   9.058   7.499   5.342 -0.0334  0.1824  0.3229
 1071HK4    H1389947   9.026   7.396   5.350 -1.4773  0.5067 -1.0129
 1071HK4    C2589948   9.076   7.541   5.210 -0.0385  0.0710  0.2876
 1071HK4    H1289949   9.069   7.474   5.124  1.8745  1.2269 -0.8054
 1071HK4    C2489950   9.096   7.676   5.184  0.1676  0.1757  0.9781
 1071HK4    H1189951   9.078   7.719   5.084  0.3856 -2.0032 -0.0354
 1071HK4    C2389952   9.108   7.765   5.290  0.1463  0.6924  0.5480
 1071HK4    H1089953   9.104   7.871   5.265 -0.7764  0.2209 -1.3829
 1071HK4    C3989954   9.153   7.936   5.555 -0.2184  0.2025 -0.1676
 1071HK4    C4189955   9.197   8.023   5.453  0.1273 -0.1742 -0.3421
 1071HK4    H2189956   9.259   7.974   5.376  3.7113  2.9985  0.3505
 1071HK4    C4289957   9.161   8.157   5.447 -0.0466 -0.2186 -0.2278
 1071HK4    H2289958   9.176   8.222   5.360 -3.3768  0.0100 -0.7073
 1071HK4    C4389959   9.085   8.213   5.549 -0.0153 -0.0668 -0.2847
 1071HK4    H2389960   9.048   8.315   5.537 -1.2522 -0.4143  0.4365
 1071HK4    C4489961   9.042   8.130   5.652  0.5638 -0.1180 -0.0885
 1071HK4    H2489962   9.003   8.172   5.746  2.2556  0.1302  0.5252
 1071HK4    C4589963   9.075   7.995   5.656  0.0023 -0.2438  0.2655
 1071HK4    H2589964   9.023   7.939   5.735  0.9335 -2.5945 -0.7602
 1072HK4    H2889965   6.893   4.886  11.063 -1.5269 -0.5791  1.4730
 1072HK4    C4889966   6.929   4.783  11.064  0.0850 -0.0519  0.6454
 1072HK4    C4789967   6.830   4.685  11.069  0.2679 -0.2330  0.7188
 1072HK4    H2789968   6.726   4.719  11.080  0.7821  1.4341  0.7223
 1072HK4    C4689969   6.863   4.551  11.055 -0.8070 -0.4005 -0.1987
 1072HK4    H2689970   6.784   4.494  11.003 -2.5290  1.2895  0.5016
 1072HK4    C4089971   6.996   4.507  11.044 -0.5833  0.1783  0.1657
 1072HK4    C5089972   7.095   4.608  11.042 -0.5202  0.1252  0.6551
 1072HK4    H3089973   7.201   4.587  11.060  0.0061  1.8203 -0.3767
 1072HK4    C4989974   7.061   4.742  11.047  0.1557  0.3115  0.3117
 1072HK4    H2989975   7.147   4.811  11.046  1.4457 -1.2739  0.8533
 1072HK4     N289976   7.040   4.375  11.031 -0.1502  0.3486 -0.1148
 1072HK4    C3089977   6.953   4.267  11.059  0.3150  0.1612  0.6189
 1072HK4    C2989978   6.895   4.242  11.183  0.2747  0.0527  0.5813
 1072HK4    H1589979   6.905   4.306   0.022  0.1447  0.5517  0.2307
 1072HK4    C2889980   6.827   4.123  11.204 -0.2099  0.2262 -0.0062
 1072HK4    C2789981   6.818   4.028  11.100 -0.3250  0.0940  0.1264
 1072HK4    H1489982   6.750   3.942  11.111 -0.2427 -0.3664 -2.6286
 1072HK4    C3289983   6.887   4.049  10.981  0.4573 -0.1061  0.5356
 1072HK4    H1689984   6.871   3.979  10.899  0.0407  1.9978 -1.2421
 1072HK4    C3189985   6.961   4.164  10.957 -0.1651  0.2811  0.4647
 1072HK4    C3489986   7.074   4.204  10.875 -0.2366 -0.1692  0.1438
 1072HK4    C3389987   7.120   4.333  10.923 -0.2393 -0.1131 -0.0013
 1072HK4    C3589988   7.215   4.397  10.845 -0.1060  0.0969  0.3304
 1072HK4    H1789989   7.279   4.476  10.882  0.2985 -1.6441  3.4944
 1072HK4    C3689990   7.256   4.343  10.723 -0.3589  0.4528  0.0851
 1072HK4    H1889991   7.319   4.407  10.659  0.2007 -0.2668 -0.0857
 1072HK4    C3789992   7.212   4.221  10.675 -0.9663  0.7962 -0.2312
 1072HK4    H1989993   7.239   4.189  10.574 -0.2175 -0.9054  0.4838
 1072HK4    C3889994   7.125   4.151  10.757  0.5066 -0.2185  0.4900
 1072HK4    H2089995   7.132   4.043  10.742  1.8661 -0.4379  2.5001
 1072HK4    C1489996   6.798   4.080   0.094  0.2842 -0.0469  0.0132
 1072HK4     C989997   6.806   3.952   0.150  0.2107 -0.0922 -0.0771
 1072HK4     C889998   6.721   3.918   0.257  0.3348  0.0839  0.0792
 1072HK4    C1189999   6.627   4.005   0.310  0.1551  0.3990 -0.7474
 1072HK4     H490000   6.579   3.981   0.406  1.9250 -0.4813 -0.0535
 1072HK4    C1290001   6.623   4.133   0.255 -0.4568  0.5586 -0.3441
 1072HK4     H590002   6.556   4.201   0.308  0.8121  0.2324  1.7483
 1072HK4    C1390003   6.710   4.172   0.154 -0.3180 -0.2490 -0.5454
 1072HK4     H690004   6.712   4.275   0.116 -0.8826 -0.4670 -1.1578
 1072HK4     C790005   6.734   3.786   0.323 -0.1171 -0.0176 -0.0320
 1072HK4     O290006   6.671   3.756   0.424 -0.3071 -0.1088 -0.1770
 1072HK4     C490007   6.822   3.685   0.260  0.1466  0.1791  0.0195
 1072HK4     C390008   6.839   3.562   0.323 -0.0495  0.0431 -0.1915
 1072HK4     H390009   6.780   3.524   0.408 -0.6003  1.3402  0.0206
 1072HK4     C290010   6.931   3.468   0.278  0.1199 -0.0124  0.2661
 1072HK4     H290011   6.960   3.391   0.351 -1.5216 -2.4864 -1.6050
 1072HK4     C190012   6.994   3.491   0.156  0.2656 -0.6048  0.2275
 1072HK4     H190013   7.094   3.447   0.152  0.3620 -0.3013 -1.0962
 1072HK4     C690014   6.957   3.603   0.079  0.3880 -0.4169  0.4412
 1072HK4     C590015   6.885   3.708   0.137  0.0137 -0.3455 -0.1510
 1072HK4    C1090016   6.899   3.850   0.093 -0.3398 -0.3967 -0.4338
 1072HK4     O190017   7.012   3.889   0.065 -0.3424 -0.1441 -0.0955
 1072HK4    C1690018   7.001   3.593  11.187  0.0514  0.4311  0.2689
 1072HK4    C1590019   6.933   3.666  11.088 -0.3152 -0.3800 -0.0840
 1072HK4     H790020   6.830   3.698  11.110  0.5210  1.9786  0.5543
 1072HK4    C2090021   6.981   3.672  10.958  0.2798  0.6392  0.1706
 1072HK4     H990022   6.919   3.724  10.885  1.1833  0.1913 -0.9326
 1072HK4    C1990023   7.098   3.605  10.922 -0.1909  0.0418 -0.2662
 1072HK4    C1890024   7.170   3.533  11.025 -0.3631 -0.8500 -0.7654
 1072HK4    C1790025   7.113   3.519  11.150 -0.5443  0.0211 -0.7449
 1072HK4     H890026   7.136   3.424  11.199 -1.7426  0.0491 -0.1088
 1072HK4     N190027   7.291   3.478  10.978  0.5766  0.3967  0.1434
 1072HK4    C2190028   7.299   3.516  10.842  0.2044  0.0137  0.0133
 1072HK4    C2290029   7.174   3.578  10.801  0.0350 -0.3570 -0.0340
 1072HK4    C2690030   7.168   3.626  10.671  0.2005  0.0154  0.0953
 1072HK4    H1390031   7.074   3.670  10.637  1.2418  0.7531 -1.9185
 1072HK4    C2590032   7.272   3.615  10.580  0.1520 -0.1912  0.0647
 1072HK4    H1290033   7.258   3.638  10.474 -2.8210  1.7215  0.7904
 1072HK4    C2490034   7.388   3.548  10.616 -0.1452 -1.0832 -0.6141
 1072HK4    H1190035   7.468   3.526  10.543 -1.9505 -1.6906 -2.4613
 1072HK4    C2390036   7.396   3.497  10.745  0.1631  0.2849 -0.0839
 1072HK4    H1090037   7.484   3.437  10.771  0.1264 -0.3791 -1.4450
 1072HK4    C3990038   7.399   3.441  11.059  0.2303 -0.0351  0.4106
 1072HK4    C4190039   7.488   3.344  11.010  0.0685 -0.1360  0.3144
 1072HK4    H2190040   7.461   3.277  10.927  0.4865 -0.1099  0.1582
 1072HK4    C4290041   7.611   3.324  11.072  0.2206  0.2320  0.1264
 1072HK4    H2290042   7.687   3.264  11.020 -2.1586 -0.0906 -3.1513
 1072HK4    C4390043   7.651   3.399  11.181  0.6439  0.3993 -0.1390
 1072HK4    H2390044   7.744   3.382  11.236  1.2385  1.2042 -0.8834
 1072HK4    C4490045   7.564   3.494  11.234  0.4557  0.1783 -0.0527
 1072HK4    H2490046   7.594   3.550   0.076 -1.2719 -0.7449  1.1302
 1072HK4    C4590047   7.437   3.507  11.178  0.3705  0.3102  0.1722
 1072HK4    H2590048   7.383   3.597  11.212  0.8512  0.5804  0.2376
 1073HK4    H2890049   9.579  11.072   5.188  0.8023 -1.5740  0.2384
 1073HK4    C4890050   9.653  11.104   5.261 -0.0448  0.1293  0.3769
 1073HK4    C4790051   9.785  11.063   5.249 -0.0611  0.2709 -0.3124
 1073HK4    H2790052   9.811  10.980   5.182  2.3481 -0.2853  1.2207
 1073HK4    C4690053   9.881  11.122   5.330  0.0735 -0.1816 -0.1413
 1073HK4    H2690054   9.989  11.103   5.315  0.2045 -0.1257  0.6547
 1073HK4    C4090055   9.848  11.210   5.436 -0.5054 -0.1765 -0.3271
 1073HK4    C5090056   9.713   0.002   5.444 -0.5035 -0.3501  0.6128
 1073HK4    H3090057   9.674   0.073   5.517  1.8669  2.1086 -0.4510
 1073HK4    C4990058   9.616  11.194   5.360 -0.4205  0.3028  0.0784
 1073HK4    H2990059   9.514  11.210   5.399 -0.5999  0.2346 -0.3698
 1073HK4     N290060   9.918  11.219   5.557 -0.3063 -0.0567 -0.4488
 1073HK4    C3090061  10.008  11.120   5.601 -0.4004  0.0244 -0.0770
 1073HK4    C2990062  10.006  10.984   5.571  0.4945  0.1385 -0.6771
 1073HK4    H1590063   9.924  10.943   5.512  0.6379  0.1408 -0.8772
 1073HK4    C2890064  10.088  10.890   5.632 -0.0158 -0.0230 -0.2401
 1073HK4    C2790065  10.177  10.952   5.723 -0.9194  0.1053  0.5670
 1073HK4    H1490066  10.260  10.890   5.760 -0.9985 -0.3748 -0.0417
 1073HK4    C3290067  10.182  11.085   5.761 -0.1119  0.2919 -0.1798
 1073HK4    H1690068  10.264  11.122   5.823  0.5264 -0.6144 -0.4684
 1073HK4    C3190069  10.090  11.175   5.707 -0.5262 -0.0041  0.0335
 1073HK4    C3490070  10.047   0.064   5.725 -0.5056  0.0412 -0.2495
 1073HK4    C3390071   9.936   0.087   5.634 -0.2330  0.0251 -0.5888
 1073HK4    C3590072   9.871   0.210   5.639 -1.0331 -0.4384  0.5943
 1073HK4    H1790073   9.796   0.234   5.563 -1.8235 -2.5280  0.6808
 1073HK4    C3690074   9.908   0.305   5.733 -0.4945 -0.1492  0.0865
 1073HK4    H1890075   9.882   0.412   5.735 -1.4264 -0.4073  2.6899
 1073HK4    C3790076  10.015   0.281   5.819 -0.1907  0.0450 -0.2272
 1073HK4    H1990077  10.054   0.366   5.876  0.9051  0.5560 -1.7168
 1073HK4    C3890078  10.085   0.161   5.816 -0.6850 -0.2548  0.1428
 1073HK4    H2090079  10.160   0.130   5.890  0.3901  1.1320 -0.3407
 1073HK4    C1490080  10.038  10.753   5.647  0.1235 -0.0908 -0.3684
 1073HK4     C990081  10.049  10.676   5.764 -0.8737  0.1267 -0.1293
 1073HK4     C890082  10.074  10.538   5.753 -0.3022  0.2233 -0.0325
 1073HK4    C1190083  10.064  10.477   5.629 -0.2570 -0.2458  0.1906
 1073HK4     H490084  10.080  10.369   5.617 -0.0979 -0.1484 -0.4811
 1073HK4    C1290085  10.050  10.552   5.513  0.1057 -0.0545  0.2679
 1073HK4     H590086  10.046  10.502   5.414 -1.2433 -0.0202  0.3019
 1073HK4    C1390087  10.030  10.689   5.521  0.4830  0.0485 -0.4618
 1073HK4     H690088  10.014  10.747   5.429  3.1530 -1.0827 -1.6975
 1073HK4     C790089  10.113  10.459   5.872  0.7533  0.1273 -0.4317
 1073HK4     O290090  10.081  10.340   5.876 -0.0594  0.3439 -0.3400
 1073HK4     C490091  10.147  10.530   5.997 -0.1884 -0.0065 -0.0985
 1073HK4     C390092  10.204  10.462   6.104 -0.0813  0.4786  0.1567
 1073HK4     H390093  10.206  10.352   6.096  1.6072  0.3856  1.6211
 1073HK4     C290094  10.222  10.513   6.232 -0.5558  0.0674  0.3894
 1073HK4     H290095  10.257  10.449   6.314 -1.0170 -2.2122 -1.1701
 1073HK4     C190096  10.190  10.647   6.248  0.2058  0.2796  0.1882
 1073HK4     H190097  10.174  10.675   6.354  1.1976  2.3300 -0.1867
 1073HK4     C690098  10.141  10.724   6.140 -0.6540  0.1035  0.4472
 1073HK4     C590099  10.113  10.666   6.016  0.3722  0.0895  0.2213
 1073HK4    C1090100  10.048  10.734   5.901 -0.2306 -0.5673  0.1745
 1073HK4     O190101   9.946  10.799   5.923  0.6734  1.0678 -0.4023
 1073HK4    C1690102  10.176  10.866   6.153  0.1738 -0.0268 -0.3162
 1073HK4    C1590103  10.305  10.911   6.189  0.2016 -0.6232  0.3441
 1073HK4     H790104  10.385  10.835   6.195  0.2050 -0.4666  2.8704
 1073HK4    C2090105  10.330  11.039   6.235 -0.0351 -0.3517 -0.2906
 1073HK4     H990106  10.432  11.069   6.261 -0.6479  2.4519 -0.9385
 1073HK4    C1990107  10.228  11.132   6.252  0.5410  0.2959 -0.3195
 1073HK4    C1890108  10.094  11.085   6.220  0.7001 -0.4019  0.0168
 1073HK4    C1790109  10.073  10.958   6.170 -0.0193 -0.3299  0.1345
 1073HK4     H890110   9.972  10.935   6.135  0.3380  1.7105 -2.4270
 1073HK4     N190111  10.001  11.184   6.256  0.6262 -0.1516 -0.8558
 1073HK4    C2190112  10.072   0.041   6.318 -0.3354  0.0521 -0.0872
 1073HK4    C2290113  10.214   0.013   6.316 -0.3074  0.2071 -0.3223
 1073HK4    C2690114  10.305   0.090   6.389 -0.5792  0.2353 -0.0110
 1073HK4    H1390115  10.412   0.071   6.391 -0.7329 -0.9445 -1.8373
 1073HK4    C2590116  10.261   0.201   6.459 -0.3358  0.5092 -0.2931
 1073HK4    H1290117  10.328   0.261   6.521 -1.9465  1.0796  0.9482
 1073HK4    C2490118  10.124   0.225   6.466 -0.3334  0.5932 -0.5185
 1073HK4    H1190119  10.089   0.295   6.543 -0.8481 -0.6720  0.4315
 1073HK4    C2390120  10.031   0.149   6.396 -0.1956  0.4013 -0.4939
 1073HK4    H1090121   9.927   0.165   6.423  0.0349  1.2782 -0.1060
 1073HK4    C3990122   9.879  11.204   6.190  0.3405  0.4786 -0.1480
 1073HK4    C4190123   9.778   0.031   6.253 -0.6109 -0.4850 -0.4997
 1073HK4    H2190124   9.765   0.043   6.362 -3.5277 -4.0216 -0.3683
 1073HK4    C4290125   9.684   0.095   6.173 -0.6882  0.0469  0.0118
 1073HK4    H2290126   9.593   0.139   6.217 -4.4777 -1.9082 -5.3255
 1073HK4    C4390127   9.683   0.069   6.037  0.2570  0.2822 -0.0418
 1073HK4    H2390128   9.605   0.122   5.980  0.4513 -2.2471 -2.7657
 1073HK4    C4490129   9.773  11.234   5.971 -0.0072 -0.5181  0.6151
 1073HK4    H2490130   9.769  11.220   5.862  0.9041 -0.4084  0.5653
 1073HK4    C4590131   9.871  11.177   6.051  0.5824 -0.3618 -0.0019
 1073HK4    H2590132   9.957  11.134   5.999  0.9577  0.1319  0.1924
 1074HK4    H2890133   7.960   5.824   7.226  1.4017 -1.6533 -1.1589
 1074HK4    C4890134   8.045   5.882   7.262 -0.0806 -0.1880  0.0882
 1074HK4    C4790135   8.024   6.012   7.304  0.3561 -0.0571 -0.0930
 1074HK4    H2790136   7.927   6.060   7.284 -0.9908 -2.3659  0.7753
 1074HK4    C4690137   8.121   6.075   7.382 -0.0379  0.4190  0.0167
 1074HK4    H2690138   8.095   6.178   7.411  2.3141  1.1693 -0.4245
 1074HK4    C4090139   8.244   6.016   7.415  0.2267  0.4303 -0.9529
 1074HK4    C5090140   8.261   5.886   7.361  0.2114  0.1958 -0.3978
 1074HK4    H3090141   8.362   5.843   7.363 -0.4731 -1.3810  0.8788
 1074HK4    C4990142   8.165   5.817   7.288 -0.0240 -0.0549  0.1496
 1074HK4    H2990143   8.194   5.732   7.223  0.9874  0.7439 -0.4632
 1074HK4     N290144   8.346   6.088   7.479  0.1460 -0.0891 -0.2384
 1074HK4    C3090145   8.378   6.225   7.479 -0.3530  0.0309  0.4084
 1074HK4    C2990146   8.322   6.334   7.414  0.6765  0.2237 -0.1736
 1074HK4    H1590147   8.282   6.312   7.314  1.1983 -0.9796 -0.1293
 1074HK4    C2890148   8.334   6.465   7.458 -0.6195  0.2208  0.2051
 1074HK4    C2790149   8.428   6.486   7.560 -0.6199 -0.6003  0.3800
 1074HK4    H1490150   8.434   6.589   7.600 -3.6119  0.0007 -0.5691
 1074HK4    C3290151   8.493   6.382   7.625  0.8573 -0.0521 -0.1931
 1074HK4    H1690152   8.543   6.405   7.719 -0.7492  0.5638  0.5229
 1074HK4    C3190153   8.476   6.250   7.583 -0.1515 -0.0622  0.2442
 1074HK4    C3490154   8.514   6.119   7.633 -0.2970 -0.3680 -0.4434
 1074HK4    C3390155   8.419   6.023   7.581 -0.5023 -0.4162  0.0238
 1074HK4    C3590156   8.429   5.891   7.622 -0.4209 -0.4059  0.0400
 1074HK4    H1790157   8.358   5.816   7.587  1.4714 -1.9263 -0.6586
 1074HK4    C3690158   8.533   5.845   7.703 -0.2153  0.1079  0.0681
 1074HK4    H1890159   8.534   5.737   7.723 -3.1515  0.0578  0.1718
 1074HK4    C3790160   8.622   5.940   7.752 -0.1819  0.2754 -0.3154
 1074HK4    H1990161   8.715   5.907   7.798 -1.0406 -2.2350 -0.2877
 1074HK4    C3890162   8.609   6.076   7.725 -0.5820  0.3348  0.1870
 1074HK4    H2090163   8.682   6.145   7.767 -0.1508  0.7418 -1.2233
 1074HK4    C1490164   8.274   6.574   7.380 -0.3025  0.5827  0.4695
 1074HK4     C990165   8.325   6.703   7.358 -0.0819  0.3312 -0.5499
 1074HK4     C890166   8.242   6.804   7.305 -0.7366  0.2327  0.2660
 1074HK4    C1190167   8.109   6.779   7.274 -0.6304  0.1212 -0.1025
 1074HK4     H490168   8.051   6.858   7.226 -2.1932 -0.7809  0.2772
 1074HK4    C1290169   8.054   6.653   7.298  0.3604 -0.4043 -0.5612
 1074HK4     H590170   7.949   6.628   7.279 -0.2659  0.6117  1.4192
 1074HK4    C1390171   8.139   6.554   7.347 -0.0979 -0.4128  0.2242
 1074HK4     H690172   8.088   6.459   7.368 -0.3922  0.1763  2.3345
 1074HK4     C790173   8.290   6.942   7.277  0.4052 -0.1649  0.2231
 1074HK4     O290174   8.208   7.032   7.261  0.0803 -0.4645  0.2035
 1074HK4     C490175   8.434   6.972   7.278  0.3284  0.2186  0.0323
 1074HK4     C390176   8.485   7.089   7.222 -0.5183  0.4623 -0.2406
 1074HK4     H390177   8.419   7.154   7.163 -1.2710  1.8436  2.0455
 1074HK4     C290178   8.620   7.123   7.221 -0.4616  0.2468 -0.2545
 1074HK4     H290179   8.657   7.216   7.176 -0.3228 -0.2897 -1.2583
 1074HK4     C190180   8.707   7.035   7.285 -0.5410  0.3070 -0.0629
 1074HK4     H190181   8.816   7.050   7.283 -0.7914  2.2063 -0.6320
 1074HK4     C690182   8.656   6.923   7.354 -0.0193  0.3053  0.3138
 1074HK4     C590183   8.523   6.883   7.343  0.1616 -0.1651 -0.2616
 1074HK4    C1090184   8.467   6.748   7.370 -0.1340  0.1656  0.7806
 1074HK4     O190185   8.548   6.658   7.351 -0.2217  0.4482 -0.9732
 1074HK4    C1690186   8.752   6.862   7.448  0.1618 -0.2466 -0.2333
 1074HK4    C1590187   8.720   6.844   7.584 -0.0206  0.4137 -0.1866
 1074HK4     H790188   8.613   6.830   7.606 -0.1006 -2.4194 -2.0664
 1074HK4    C2090189   8.822   6.811   7.672 -0.0824  0.4485 -0.1020
 1074HK4     H990190   8.800   6.818   7.779 -3.0272 -2.7703 -0.4037
 1074HK4    C1990191   8.950   6.780   7.627 -0.1936 -0.5317  0.2592
 1074HK4    C1890192   8.979   6.777   7.485  0.1785 -0.1896  0.3261
 1074HK4    C1790193   8.879   6.825   7.402  0.4409  0.1544  0.2106
 1074HK4     H890194   8.901   6.833   7.296 -0.8042  0.0633 -0.0635
 1074HK4     N190195   9.118   6.762   7.464  0.1646 -0.5968  0.5260
 1074HK4    C2190196   9.178   6.766   7.592 -0.1433 -0.1459  0.6588
 1074HK4    C2290197   9.077   6.775   7.696 -0.2853  0.2238  0.4864
 1074HK4    C2690198   9.114   6.821   7.822  0.6698 -0.0297  0.3085
 1074HK4    H1390199   9.038   6.839   7.898  1.6243 -2.6446  1.9350
 1074HK4    C2590200   9.244   6.864   7.846  0.5894  0.0825  0.5374
 1074HK4    H1290201   9.264   6.894   7.948  0.1440 -0.6893  0.8530
 1074HK4    C2490202   9.338   6.858   7.744  0.0604 -0.2758  0.0671
 1074HK4    H1190203   9.440   6.891   7.767 -1.0264  1.2728  2.7833
 1074HK4    C2390204   9.307   6.810   7.617 -0.1570  0.3496 -0.1211
 1074HK4    H1090205   9.382   6.781   7.543  1.0563 -2.2613  2.0195
 1074HK4    C3990206   9.171   6.694   7.354 -0.2888  0.2355 -0.2117
 1074HK4    C4190207   9.302   6.727   7.311  0.0257  0.2601  0.7520
 1074HK4    H2190208   9.323   6.834   7.293 -0.5504  0.3877  0.8139
 1074HK4    C4290209   9.391   6.631   7.266  0.0378  0.5449  0.1681
 1074HK4    H2290210   9.491   6.661   7.230 -0.2307  3.0146  1.3164
 1074HK4    C4390211   9.357   6.497   7.250  0.0749  0.6127 -0.4790
 1074HK4    H2390212   9.416   6.425   7.195 -1.7029  0.6853 -2.5395
 1074HK4    C4490213   9.229   6.462   7.292  0.1103  0.2947 -0.6260
 1074HK4    H2490214   9.188   6.363   7.269  1.4350 -0.1390 -1.1968
 1074HK4    C4590215   9.140   6.558   7.339  0.3083  0.0437  0.2642
 1074HK4    H2590216   9.034   6.528   7.349  0.2898  0.2383  0.6605
 1075HK4    H2890217   3.180   1.754   5.096  0.2102 -0.5823 -2.0288
 1075HK4    C4890218   3.075   1.782   5.091  0.2836  0.0924 -0.2557
 1075HK4    C4790219   3.043   1.915   5.068  0.1459  0.0731 -0.1765
 1075HK4    H2790220   3.120   1.976   5.018  1.2120 -1.6999 -0.7276
 1075HK4    C4690221   2.910   1.958   5.071  0.1081 -0.0710  0.2238
 1075HK4    H2690222   2.875   2.056   5.038  0.5169 -0.7753 -2.4344
 1075HK4    C4090223   2.804   1.872   5.105  0.0931 -0.0687  0.1840
 1075HK4    C5090224   2.840   1.739   5.135 -0.3514 -0.1105  0.5508
 1075HK4    H3090225   2.764   1.676   5.183 -0.9196  0.7995  0.8496
 1075HK4    C4990226   2.972   1.695   5.126 -0.0315  0.8254  0.6539
 1075HK4    H2990227   2.989   1.587   5.128  1.4718  1.0497  0.5474
 1075HK4     N290228   2.685   1.921   5.160  0.0598 -0.2394  0.2650
 1075HK4    C3090229   2.660   2.040   5.233  0.2055 -0.1964  0.2457
 1075HK4    C2990230   2.748   2.138   5.275  0.3377  0.0064 -0.5042
 1075HK4    H1590231   2.854   2.117   5.288  0.4352  0.7381 -0.0323
 1075HK4    C2890232   2.696   2.263   5.307  0.3381 -0.1546  0.1336
 1075HK4    C2790233   2.558   2.289   5.290  0.3213 -0.0976  0.3584
 1075HK4    H1490234   2.534   2.395   5.274 -1.4781 -0.7337 -1.2483
 1075HK4    C3290235   2.464   2.192   5.261  0.3653 -0.1586  0.4188
 1075HK4    H1690236   2.363   2.222   5.235 -0.3959 -1.8846  1.3231
 1075HK4    C3190237   2.517   2.065   5.236  0.2014 -0.2459  0.5115
 1075HK4    C3490238   2.454   1.949   5.176 -0.0778  0.2417 -0.1408
 1075HK4    C3390239   2.561   1.860   5.135 -0.0796 -0.0800  0.5603
 1075HK4    C3590240   2.530   1.732   5.089  0.2864  0.0833 -0.1478
 1075HK4    H1790241   2.603   1.661   5.050 -0.0402 -0.4655  0.2323
 1075HK4    C3690242   2.397   1.692   5.084  0.2968  0.1523 -1.0332
 1075HK4    H1890243   2.382   1.591   5.044  1.7587 -0.6146  0.2709
 1075HK4    C3790244   2.296   1.779   5.124  0.0976 -0.2584 -0.6326
 1075HK4    H1990245   2.194   1.742   5.131  0.9258 -2.4716 -0.0708
 1075HK4    C3890246   2.322   1.907   5.172  0.1492 -0.4806 -0.0651
 1075HK4    H2090247   2.246   1.983   5.186 -0.3387 -1.2070  1.3139
 1075HK4    C1490248   2.782   2.371   5.358  0.1040 -0.0072  0.2187
 1075HK4     C990249   2.730   2.491   5.407  0.3180  0.1302  0.1130
 1075HK4     C890250   2.770   2.615   5.352  0.2724  0.3526  0.5731
 1075HK4    C1190251   2.877   2.608   5.263 -0.4462  0.4115 -0.2976
 1075HK4     H490252   2.887   2.703   5.207 -0.5512  0.5664 -0.0540
 1075HK4    C1290253   2.955   2.495   5.245 -0.8560  0.0423  0.2202
 1075HK4     H590254   3.055   2.502   5.199 -1.0538 -1.9817 -0.5878
 1075HK4    C1390255   2.905   2.373   5.289  0.2159 -0.3345  0.4109
 1075HK4     H690256   2.969   2.284   5.300 -1.4484 -1.7834 -1.3760
 1075HK4     C790257   2.698   2.739   5.386 -0.2397  0.3232 -0.3899
 1075HK4     O290258   2.757   2.841   5.350 -0.1295  0.2851 -0.3177
 1075HK4     C490259   2.582   2.729   5.476  0.1514 -0.1767  0.0597
 1075HK4     C390260   2.493   2.836   5.482 -0.0724 -0.3365 -0.4230
 1075HK4     H390261   2.510   2.924   5.419  0.1773  0.3079  0.5397
 1075HK4     C290262   2.371   2.827   5.549 -0.1469 -0.2591 -0.5468
 1075HK4     H290263   2.310   2.918   5.551  2.1488  1.3176  0.7753
 1075HK4     C190264   2.354   2.712   5.626 -0.1682  0.2481  0.2140
 1075HK4     H190265   2.256   2.707   5.676 -1.2970  0.7491 -1.9017
 1075HK4     C690266   2.441   2.601   5.626 -0.0807  0.3161  0.3713
 1075HK4     C590267   2.561   2.614   5.556 -0.2270 -0.1285  0.0345
 1075HK4    C1090268   2.651   2.497   5.533  0.1048  0.1352 -0.0229
 1075HK4     O190269   2.687   2.427   5.627 -0.1812 -0.0026 -0.0124
 1075HK4    C1690270   2.397   2.492   5.715  0.0307 -0.0800 -0.0561
 1075HK4    C1590271   2.316   2.522   5.827 -0.2177  0.0954 -0.2804
 1075HK4     H790272   2.358   2.598   5.894 -0.5372  0.0305 -0.0091
 1075HK4    C2090273   2.223   2.434   5.881 -0.2997  0.4600  0.1704
 1075HK4     H990274   2.169   2.464   5.971  0.7474 -0.3782  1.0996
 1075HK4    C1990275   2.215   2.305   5.829 -0.1601  0.2783  0.6014
 1075HK4    C1890276   2.297   2.267   5.715 -0.2284  0.3658  0.5242
 1075HK4    C1790277   2.380   2.365   5.662  0.0642 -0.1338  0.0621
 1075HK4     H890278   2.440   2.337   5.575  1.0762  1.1139  0.3500
 1075HK4     N190279   2.263   2.138   5.670  0.1365  0.3444  0.3085
 1075HK4    C2190280   2.157   2.100   5.755  0.1166 -0.1672  0.0584
 1075HK4    C2290281   2.115   2.202   5.850 -0.0570  0.0125 -0.2105
 1075HK4    C2690282   2.005   2.185   5.932  0.4573 -0.7335  0.3259
 1075HK4    H1390283   1.990   2.262   6.008 -0.6044 -0.0950 -0.5345
 1075HK4    C2590284   1.927   2.070   5.919  0.2056 -0.5173 -0.0641
 1075HK4    H1290285   1.832   2.064   5.971  1.4396 -2.4077  1.9949
 1075HK4    C2490286   1.968   1.965   5.837 -0.3482 -0.2482 -0.6913
 1075HK4    H1190287   1.932   1.864   5.859  1.3483 -0.6233  0.4491
 1075HK4    C2390288   2.083   1.983   5.761 -0.1940  0.0037 -0.4018
 1075HK4    H1090289   2.103   1.908   5.685 -1.4444  1.3187 -2.0761
 1075HK4    C3990290   2.364   2.050   5.629 -0.1338  0.0641  0.2408
 1075HK4    C4190291   2.323   1.934   5.560  0.3810 -0.0825  0.1848
 1075HK4    H2190292   2.228   1.948   5.507 -0.0480  0.9848  1.2139
 1075HK4    C4290293   2.408   1.826   5.540  0.5808  0.1585 -0.3076
 1075HK4    H2290294   2.373   1.746   5.474 -0.2785  0.7988 -0.6323
 1075HK4    C4390295   2.538   1.829   5.589  0.4133  0.1678  0.1427
 1075HK4    H2390296   2.614   1.753   5.570 -0.1785  0.0901 -2.0002
 1075HK4    C4490297   2.582   1.942   5.657  0.3234  0.1382  0.2495
 1075HK4    H2490298   2.688   1.949   5.685  0.3336  0.8299  0.0431
 1075HK4    C4590299   2.494   2.045   5.684 -0.0400 -0.1060 -0.0010
 1075HK4    H2590300   2.511   2.111   5.770 -1.5926  1.5146 -0.8756
 1076HK4    H2890301   8.934   5.511   2.701  1.7171 -0.6432  0.4764
 1076HK4    C4890302   8.947   5.609   2.746 -0.1153 -0.0196 -0.3251
 1076HK4    C4790303   9.070   5.673   2.738  0.2504 -0.6302  0.3156
 1076HK4    H2790304   9.138   5.647   2.656  0.7957  2.3556 -0.2609
 1076HK4    C4690305   9.097   5.783   2.818 -0.1400 -0.1576 -0.1953
 1076HK4    H2690306   9.192   5.838   2.809 -0.4720  0.7096  1.3970
 1076HK4    C4090307   9.003   5.828   2.914 -0.5151 -0.1247 -0.5816
 1076HK4    C5090308   8.879   5.763   2.918 -0.3350 -0.3859  0.8448
 1076HK4    H3090309   8.813   5.775   3.005 -0.8398 -3.6767  1.0043
 1076HK4    C4990310   8.847   5.661   2.829  0.2481  0.1913 -0.0181
 1076HK4    H2990311   8.755   5.603   2.841  1.5722 -1.6313  1.6568
 1076HK4     N290312   9.005   5.958   2.967 -0.5091 -0.3432 -0.0529
 1076HK4    C3090313   8.934   5.989   3.085 -0.8292  0.0338 -0.3464
 1076HK4    C2990314   8.915   5.928   3.208  0.3839  0.0827 -0.1274
 1076HK4    H1590315   8.957   5.828   3.221  2.7030  1.2549  1.7554
 1076HK4    C2890316   8.844   5.982   3.315 -0.4708 -0.7022 -0.2985
 1076HK4    C2790317   8.799   6.114   3.299  0.3206 -0.4290 -0.2797
 1076HK4    H1490318   8.751   6.174   3.378  0.7473 -0.0639 -0.2947
 1076HK4    C3290319   8.821   6.184   3.181 -0.0971  0.2571  0.0414
 1076HK4    H1690320   8.787   6.287   3.171  1.5408  0.8018 -0.1017
 1076HK4    C3190321   8.890   6.127   3.074 -0.1713  0.2753 -0.0164
 1076HK4    C3490322   8.956   6.184   2.959  0.2248  0.0164  0.0828
 1076HK4    C3390323   9.027   6.076   2.893 -0.0546 -0.2507  0.2238
 1076HK4    C3590324   9.105   6.106   2.782  0.5014 -0.4652  0.5509
 1076HK4    H1790325   9.157   6.022   2.736  2.5009  0.0943  1.7326
 1076HK4    C3690326   9.122   6.237   2.740 -0.1366 -0.6006 -0.1388
 1076HK4    H1890327   9.188   6.255   2.654 -1.6427  0.1544 -1.1573
 1076HK4    C3790328   9.055   6.341   2.803  0.9136 -0.3416  0.5583
 1076HK4    H1990329   9.064   6.446   2.773 -0.5952 -0.7018 -1.2596
 1076HK4    C3890330   8.974   6.314   2.913  0.1916  0.0359  0.1224
 1076HK4    H2090331   8.928   6.394   2.972  2.7714  0.7870  1.1575
 1076HK4    C1490332   8.784   5.889   3.412 -0.2645 -0.4212  0.0953
 1076HK4     C990333   8.650   5.906   3.451 -0.2254  0.4313 -0.1197
 1076HK4     C890334   8.610   5.922   3.586 -0.1121 -0.3682  0.0081
 1076HK4    C1190335   8.708   5.903   3.682  0.2886  0.2480 -0.2741
 1076HK4     H490336   8.697   5.930   3.788 -0.8359 -1.2509  0.0085
 1076HK4    C1290337   8.832   5.853   3.644  0.2410 -0.2093  0.1586
 1076HK4     H590338   8.891   5.803   3.722  2.3895 -0.6146 -1.6704
 1076HK4    C1390339   8.872   5.840   3.511  0.1216  0.2413  0.0795
 1076HK4     H690340   8.955   5.773   3.485  0.3550  1.0339 -1.2510
 1076HK4     C790341   8.472   5.957   3.627 -0.0572 -0.1874  0.0412
 1076HK4     O290342   8.458   5.998   3.742  0.3733  0.2873 -0.0717
 1076HK4     C490343   8.371   5.976   3.521 -0.1812  0.3258  0.2523
 1076HK4     C390344   8.239   6.005   3.552 -0.3115 -0.0034  0.0277
 1076HK4     H390345   8.212   6.024   3.657 -0.9653  1.8716 -0.4436
 1076HK4     C290346   8.144   6.022   3.452  0.2031 -0.2774 -0.5017
 1076HK4     H290347   8.038   6.020   3.481  0.9206 -0.8586  2.2386
 1076HK4     C190348   8.190   6.035   3.321  0.1180  0.0902 -0.4922
 1076HK4     H190349   8.133   6.091   3.245 -0.4460 -0.3224 -0.3737
 1076HK4     C690350   8.323   6.006   3.285  0.0499 -0.7021 -0.1283
 1076HK4     C590351   8.410   5.965   3.386 -0.3787 -0.6333  0.2686
 1076HK4    C1090352   8.542   5.904   3.349 -0.3631 -0.4602  0.0382
 1076HK4     O190353   8.541   5.811   3.270  0.0331 -0.6896  0.3011
 1076HK4    C1690354   8.358   6.038   3.145  0.4750 -0.3774  0.0493
 1076HK4    C1590355   8.486   6.086   3.110  0.8240 -0.7756  0.7590
 1076HK4     H790356   8.531   6.163   3.173  0.6896  0.4666 -0.6520
 1076HK4    C2090357   8.548   6.050   2.991  0.1646 -0.0460  0.1879
 1076HK4     H990358   8.657   6.053   2.985  0.3177 -1.3816  1.7591
 1076HK4    C1990359   8.482   5.977   2.893  0.8470 -0.7095  0.2150
 1076HK4    C1890360   8.346   5.935   2.922  0.3123  0.6592 -0.2480
 1076HK4    C1790361   8.294   5.961   3.048  0.3017 -0.0347 -0.1069
 1076HK4     H890362   8.187   5.947   3.063 -0.1448  3.0634 -0.0279
 1076HK4     N190363   8.281   5.884   2.808 -0.1899  0.1083  0.2819
 1076HK4    C2190364   8.370   5.905   2.700 -0.0213 -0.5802  0.2871
 1076HK4    C2290365   8.492   5.968   2.749 -0.1813 -0.1248  0.1007
 1076HK4    C2690366   8.584   6.003   2.651 -0.0291 -0.1861  0.2228
 1076HK4    H1390367   8.668   6.062   2.688 -0.2712 -0.1004  0.6394
 1076HK4    C2590368   8.561   5.989   2.515 -0.3115  0.1782  0.2314
 1076HK4    H1290369   8.621   6.034   2.436 -0.5302 -1.4139 -0.8620
 1076HK4    C2490370   8.441   5.933   2.474  0.2213 -0.8230  0.0319
 1076HK4    H1190371   8.425   5.952   2.367  1.1767 -0.8276 -0.1179
 1076HK4    C2390372   8.348   5.885   2.565  0.1596 -0.3504  0.2233
 1076HK4    H1090373   8.266   5.823   2.527 -1.2823  0.4030  2.0583
 1076HK4    C3990374   8.166   5.804   2.810 -0.3494  0.3408  0.4555
 1076HK4    C4190375   8.086   5.776   2.698  0.2973 -0.2256  0.1386
 1076HK4    H2190376   8.087   5.838   2.607 -1.4013  0.0331  0.2757
 1076HK4    C4290377   7.992   5.673   2.691 -0.3374  0.3907 -0.4774
 1076HK4    H2290378   7.930   5.656   2.601  0.4188 -0.1299 -0.9050
 1076HK4    C4390379   7.969   5.600   2.807  0.2436  0.4042 -0.3535
 1076HK4    H2390380   7.890   5.525   2.809  0.9754 -0.3496  1.0708
 1076HK4    C4490381   8.043   5.626   2.921 -0.1320  0.2914 -0.0836
 1076HK4    H2490382   8.002   5.599   3.020 -0.4369 -0.9879 -0.5491
 1076HK4    C4590383   8.145   5.721   2.922  0.2579 -0.1227  0.2264
 1076HK4    H2590384   8.215   5.723   3.006 -1.4783  1.3719  1.6960
 1077HK4    H2890385   5.561   3.575   0.225 -1.3910  0.6574 -0.0879
 1077HK4    C4890386   5.466   3.543   0.266 -0.6969 -0.6446  0.5491
 1077HK4    C4790387   5.372   3.492   0.177 -0.4907  0.5694 -0.3585
 1077HK4    H2790388   5.391   3.495   0.068  0.2801 -2.1037 -0.3211
 1077HK4    C4690389   5.247   3.457   0.226 -0.2280 -0.4702 -0.4139
 1077HK4    H2690390   5.181   3.400   0.159 -1.6452  0.7852 -0.1142
 1077HK4    C4090391   5.216   3.473   0.363 -0.1373 -0.0254 -0.4421
 1077HK4    C5090392   5.315   3.523   0.450 -0.3434  0.5074 -0.5146
 1077HK4    H3090393   5.279   3.558   0.548 -0.7066  1.5119 -0.9993
 1077HK4    C4990394   5.441   3.558   0.402  0.2470 -0.0092  0.6587
 1077HK4    H2990395   5.512   3.607   0.470  1.9061  0.5131 -1.4169
 1077HK4     N290396   5.081   3.477   0.399 -0.0510 -0.1174 -0.1058
 1077HK4    C3090397   4.983   3.527   0.310 -0.0037 -0.1440 -0.1701
 1077HK4    C2990398   4.994   3.628   0.216 -0.3103  0.1024  0.0573
 1077HK4    H1590399   5.089   3.681   0.221 -1.8042  2.7838  0.8316
 1077HK4    C2890400   4.886   3.675   0.143 -0.2556 -0.4173 -0.3645
 1077HK4    C2790401   4.761   3.616   0.174 -0.0727 -0.1900  0.8342
 1077HK4    H1490402   4.682   3.663   0.114  0.4627  0.7600  0.8657
 1077HK4    C3290403   4.740   3.520   0.271 -0.6424 -0.6218  0.2841
 1077HK4    H1690404   4.640   3.481   0.292  0.5196 -3.5651  0.7486
 1077HK4    C3190405   4.850   3.484   0.349 -0.0813  0.0754 -0.1897
 1077HK4    C3490406   4.871   3.393   0.460 -0.4161  0.0679 -0.1305
 1077HK4    C3390407   5.012   3.398   0.493 -0.4912  0.5404  0.1348
 1077HK4    C3590408   5.062   3.329   0.603 -0.0378 -0.3819 -0.6395
 1077HK4    H1790409   5.164   3.348   0.638  0.4047 -0.1023 -2.0244
 1077HK4    C3690410   4.972   3.253   0.677 -0.4575  0.3383 -0.4049
 1077HK4    H1890411   5.004   3.202   0.769 -0.9054 -0.7042 -0.8168
 1077HK4    C3790412   4.837   3.248   0.643 -0.7102 -0.4031  0.7176
 1077HK4    H1990413   4.766   3.203   0.713 -0.9633 -0.1385  0.6298
 1077HK4    C3890414   4.783   3.320   0.538  0.2830 -0.5074  0.1224
 1077HK4    H2090415   4.676   3.303   0.525 -0.0088  0.8924  0.5799
 1077HK4    C1490416   4.901   3.797   0.062 -0.8815 -0.6245 -0.8005
 1077HK4     C990417   4.808   3.901   0.047 -0.0598  0.2526  0.0289
 1077HK4     C890418   4.797   3.977  11.177 -0.3009 -0.1344 -0.2028
 1077HK4    C1190419   4.892   3.958  11.077 -0.0904 -0.3199  0.0337
 1077HK4     H490420   4.890   4.015  10.983 -1.1714  0.3521  0.4572
 1077HK4    C1290421   4.997   3.870  11.100  0.2965  0.2529  0.5035
 1077HK4     H590422   5.058   3.843  11.012  0.5516  1.0820  0.4240
 1077HK4    C1390423   5.003   3.790  11.213  0.1944 -0.0746  0.2783
 1077HK4     H690424   5.095   3.732  11.227  3.2011  3.9339 -1.7651
 1077HK4     C790425   4.702   4.091  11.181  0.0549  0.1576  0.0081
 1077HK4     O290426   4.698   4.159  11.079  0.0251  0.2685  0.0804
 1077HK4     C490427   4.608   4.106   0.046 -0.1350 -0.0574 -0.1235
 1077HK4     C390428   4.519   4.212   0.045  0.1796  0.2063 -0.3660
 1077HK4     H390429   4.550   4.307  11.247 -0.6444  1.1874  1.0445
 1077HK4     C290430   4.393   4.202   0.103  0.5608 -0.1251  0.4118
 1077HK4     H290431   4.311   4.275   0.101  1.5224  1.0335  2.2445
 1077HK4     C190432   4.370   4.089   0.181  0.3567 -0.4233 -0.0778
 1077HK4     H190433   4.271   4.068   0.226  1.0337 -0.6626  1.3335
 1077HK4     C690434   4.465   3.987   0.203  0.2240 -0.6270 -0.4427
 1077HK4     C590435   4.589   4.001   0.138  0.3764 -0.0764 -0.0368
 1077HK4    C1090436   4.710   3.917   0.158 -0.2502 -0.9733  0.0525
 1077HK4     O190437   4.763   3.936   0.268 -0.2233  0.5334 -0.2069
 1077HK4    C1690438   4.420   3.851   0.236 -0.2690 -0.1874  0.7184
 1077HK4    C1590439   4.306   3.789   0.181  0.0085 -0.2595  0.2211
 1077HK4     H790440   4.233   3.848   0.124 -0.6004  1.4070  2.6651
 1077HK4    C2090441   4.258   3.666   0.225 -0.1578  0.0686  0.9668
 1077HK4     H990442   4.173   3.626   0.169 -1.3354  1.4361  1.7480
 1077HK4    C1990443   4.318   3.602   0.332  0.3585 -0.4109  0.3935
 1077HK4    C1890444   4.421   3.673   0.404  0.4126 -0.0923  0.0052
 1077HK4    C1790445   4.470   3.792   0.351  0.2815  0.2851  0.7250
 1077HK4     H890446   4.547   3.842   0.409  0.0796 -0.2540  1.4685
 1077HK4     N190447   4.429   3.634   0.540  0.2745 -0.1156  0.0065
 1077HK4    C2190448   4.329   3.536   0.551 -0.1208  0.3030  0.1503
 1077HK4    C2290449   4.258   3.510   0.427  0.2989 -0.6638  0.1125
 1077HK4    C2690450   4.153   3.419   0.420  0.1041 -0.4658  0.4067
 1077HK4    H1390451   4.109   3.394   0.323 -2.1931  3.5446  0.2896
 1077HK4    C2590452   4.109   3.357   0.536 -0.0860 -0.5376  0.2956
 1077HK4    H1290453   4.032   3.281   0.532 -0.7496  0.0779  1.1199
 1077HK4    C2490454   4.174   3.385   0.655  0.3878  0.2503 -0.1403
 1077HK4    H1190455   4.128   3.358   0.751  2.3888 -1.4365  0.3935
 1077HK4    C2390456   4.288   3.465   0.663  0.7090 -0.2279  0.1225
 1077HK4    H1090457   4.354   3.454   0.749 -1.2501  0.6454  1.7774
 1077HK4    C3990458   4.534   3.664   0.627 -0.1919  0.0644  0.5088
 1077HK4    C4190459   4.513   3.668   0.766 -0.6455  0.3967  0.4300
 1077HK4    H2190460   4.412   3.698   0.798 -1.1103 -0.7347  0.0340
 1077HK4    C4290461   4.611   3.670   0.865 -0.0408 -0.3584 -0.1591
 1077HK4    H2290462   4.583   3.719   0.959 -1.2080 -0.3629 -0.5004
 1077HK4    C4390463   4.742   3.656   0.821  0.0144 -0.3971  0.0116
 1077HK4    H2390464   4.818   3.696   0.889 -1.5075  1.6564  0.5688
 1077HK4    C4490465   4.769   3.643   0.685 -0.0719  0.4371 -0.0888
 1077HK4    H2490466   4.872   3.625   0.649 -0.3911 -0.5839 -0.4919
 1077HK4    C4590467   4.670   3.660   0.589 -0.3431 -0.4862  0.0256
 1077HK4    H2590468   4.710   3.678   0.488  1.0759 -0.4180  0.5903
 1078HK4    H2890469  10.159   5.401   9.842 -0.7844 -1.8945  0.2386
 1078HK4    C4890470  10.099   5.436   9.926  0.1336  0.0111  0.1098
 1078HK4    C4790471  10.114   5.568   9.966 -0.4247  0.0353  0.2380
 1078HK4    H2790472  10.201   5.625   9.931 -1.7546  1.3297 -1.0375
 1078HK4    C4690473  10.027   5.621  10.061 -0.3035  0.8982 -0.1266
 1078HK4    H2690474  10.041   5.726  10.089  0.2745  0.8884 -0.3747
 1078HK4    C4090475   9.922   5.545  10.117 -0.1210  0.4067 -0.4493
 1078HK4    C5090476   9.917   5.409  10.081  0.3383  0.3023 -0.1200
 1078HK4    H3090477   9.831   5.344  10.104 -1.2920  1.4640 -2.7558
 1078HK4    C4990478  10.011   5.354   9.994  0.5348 -0.1844  0.3966
 1078HK4    H2990479  10.016   5.244   9.998 -1.0940 -0.3330 -1.0358
 1078HK4     N290480   9.830   5.613  10.197  0.3942  0.0909  0.4120
 1078HK4    C3090481   9.755   5.555  10.302 -0.2521  0.0077 -0.0856
 1078HK4    C2990482   9.802   5.452  10.384  0.0360  0.2483  0.0552
 1078HK4    H1590483   9.892   5.399  10.353 -0.5029 -0.5186 -0.1942
 1078HK4    C2890484   9.730   5.421  10.499  0.0119  0.0709 -0.0062
 1078HK4    C2790485   9.610   5.489  10.525  0.0579  0.3510 -0.5277
 1078HK4    H1490486   9.555   5.471  10.618  0.3265  1.3887 -0.1609
 1078HK4    C3290487   9.560   5.587  10.440 -0.3062  0.5815 -0.0430
 1078HK4    H1690488   9.460   5.626  10.463 -0.3428  0.8812 -0.7129
 1078HK4    C3190489   9.629   5.623  10.325 -0.0556  0.3358  0.0294
 1078HK4    C3490490   9.643   5.739  10.240  0.5056  0.3662  0.1586
 1078HK4    C3390491   9.756   5.724  10.150  0.1943 -0.2692 -0.1292
 1078HK4    C3590492   9.789   5.815  10.051 -0.0048 -0.5671 -0.4705
 1078HK4    H1790493   9.842   5.781   9.962 -0.3427 -0.3608 -0.7556
 1078HK4    C3690494   9.711   5.929  10.036  0.2534 -0.3173  0.0983
 1078HK4    H1890495   9.727   5.995   9.950 -1.1616  1.2185  0.9804
 1078HK4    C3790496   9.607   5.952  10.125 -0.0000  0.4657 -0.3961
 1078HK4    H1990497   9.550   6.045  10.121 -0.1784  0.3661 -0.1255
 1078HK4    C3890498   9.570   5.855  10.218  0.3356  0.1140 -0.6282
 1078HK4    H2090499   9.476   5.866  10.272  1.2348  1.1349  0.7824
 1078HK4    C1490500   9.780   5.318  10.592  0.0404  0.0721 -0.0187
 1078HK4     C990501   9.697   5.261  10.689  0.1047 -0.0908 -0.0633
 1078HK4     C890502   9.744   5.227  10.817 -0.3311  0.1799  0.1692
 1078HK4    C1190503   9.883   5.223  10.831 -0.3037 -0.1222 -0.1723
 1078HK4     H490504   9.925   5.173  10.919  0.0534  1.5352  0.6192
 1078HK4    C1290505   9.973   5.252  10.729  0.3988 -0.0823  0.4545
 1078HK4     H590506  10.082   5.255  10.745  0.6737 -1.4276 -1.0693
 1078HK4    C1390507   9.919   5.302  10.611 -0.1041 -0.5611  0.4789
 1078HK4     H690508   9.988   5.325  10.529 -0.7724 -0.1750  0.0186
 1078HK4     C790509   9.656   5.204  10.934 -0.2099  0.3255  0.2886
 1078HK4     O290510   9.705   5.183  11.045  0.0570  0.2068  0.1522
 1078HK4     C490511   9.511   5.210  10.908 -0.1548  0.3368 -0.0133
 1078HK4     C390512   9.421   5.220  11.014  0.0349  0.0354  0.1803
 1078HK4     H390513   9.464   5.248  11.111  2.1653 -2.4966  0.0178
 1078HK4     C290514   9.283   5.203  11.005  0.0160  0.2656 -0.0040
 1078HK4     H290515   9.222   5.177  11.093  0.8064 -0.7303  0.2653
 1078HK4     C190516   9.240   5.185  10.874 -0.1758  0.2226  0.0660
 1078HK4     H190517   9.137   5.219  10.853 -0.1032  0.4617  0.0978
 1078HK4     C690518   9.324   5.182  10.762 -0.2015 -0.3526  0.0644
 1078HK4     C590519   9.463   5.193  10.776 -0.2664  0.5704 -0.0047
 1078HK4    C1090520   9.558   5.214  10.663  0.0645 -0.0987  0.1470
 1078HK4     O190521   9.544   5.160  10.553 -0.2937 -0.3357  0.3041
 1078HK4    C1690522   9.256   5.218  10.637  0.1414  0.2402  0.0455
 1078HK4    C1590523   9.157   5.319  10.634 -0.2634 -0.1534  0.1292
 1078HK4     H790524   9.187   5.402  10.699  0.6927 -2.2761  2.4630
 1078HK4    C2090525   9.040   5.315  10.559 -0.1034 -0.0871 -0.1274
 1078HK4     H990526   8.957   5.382  10.581  0.4865  1.1658 -1.6680
 1078HK4    C1990527   9.024   5.203  10.479 -0.0579 -0.1619 -0.0302
 1078HK4    C1890528   9.119   5.093  10.483  0.0195 -0.0822  0.2539
 1078HK4    C1790529   9.236   5.106  10.557  0.4127  0.5563 -0.4711
 1078HK4     H890530   9.284   5.011  10.582 -0.6023  0.4760  1.3068
 1078HK4     N190531   9.063   4.979  10.422 -0.0947  0.1404 -0.0527
 1078HK4    C2190532   8.934   5.017  10.379  0.0134 -0.0483 -0.5593
 1078HK4    C2290533   8.905   5.156  10.412 -0.1309 -0.2412  0.1508
 1078HK4    C2690534   8.780   5.214  10.398  0.0135  0.1528  0.5145
 1078HK4    H1390535   8.764   5.322  10.406  0.1424  0.1140  1.3337
 1078HK4    C2590536   8.683   5.131  10.342 -0.4082  0.4369  0.8193
 1078HK4    H1290537   8.599   5.186  10.302 -0.3811  0.5016  0.8509
 1078HK4    C2490538   8.709   4.998  10.310  0.1172  0.8345 -0.4408
 1078HK4    H1190539   8.632   4.932  10.267  1.4984 -0.0286 -1.6451
 1078HK4    C2390540   8.832   4.938  10.328 -0.5300 -0.1678  0.6909
 1078HK4    H1090541   8.840   4.834  10.297  2.0275  0.1209  0.2831
 1078HK4    C3990542   9.140   4.881  10.358  0.1301  0.2479  0.0523
 1078HK4    C4190543   9.083   4.756  10.327  0.0838  0.4253 -0.5655
 1078HK4    H2190544   9.013   4.710  10.397 -1.4511  1.4384 -1.4083
 1078HK4    C4290545   9.146   4.659  10.250 -0.0268  0.0097 -0.1295
 1078HK4    H2290546   9.091   4.565  10.229 -1.8739  1.1332 -0.4962
 1078HK4    C4390547   9.277   4.681  10.211  0.1443 -0.2998  0.2557
 1078HK4    H2390548   9.337   4.610  10.153  1.0451  0.3677  0.3605
 1078HK4    C4490549   9.343   4.800  10.242 -0.0933  0.0035 -0.3890
 1078HK4    H2490550   9.427   4.827  10.177  0.0114 -3.3508 -1.7607
 1078HK4    C4590551   9.273   4.897  10.313  0.1093 -0.0551 -0.1105
 1078HK4    H2590552   9.322   4.994  10.324  1.2786 -0.8187  1.5377
 1079HK4    H2890553   2.491   1.268   8.188 -0.4388  0.4155 -0.2575
 1079HK4    C4890554   2.464   1.162   8.198 -0.1067  0.3395 -0.1756
 1079HK4    C4790555   2.479   1.074   8.091 -0.0107  0.4292 -0.2353
 1079HK4    H2790556   2.516   1.103   7.992 -1.6477 -0.5694 -1.1584
 1079HK4    C4690557   2.446   0.940   8.111 -0.1677  0.5847  0.5657
 1079HK4    H2690558   2.426   0.876   8.025  0.3800 -1.3035  1.8131
 1079HK4    C4090559   2.406   0.887   8.236 -1.0587 -0.0557  0.0083
 1079HK4    C5090560   2.391   0.978   8.343 -0.1103 -0.0180  0.1169
 1079HK4    H3090561   2.338   0.948   8.435  0.8374 -2.3413 -0.0496
 1079HK4    C4990562   2.415   1.112   8.318 -0.0320 -0.1129 -0.3322
 1079HK4    H2990563   2.392   1.193   8.389  1.8287 -0.2510  0.4598
 1079HK4     N290564   2.435   0.756   8.277  0.1850  0.0439 -0.5152
 1079HK4    C3090565   2.526   0.670   8.212 -0.0292 -0.1053 -0.6181
 1079HK4    C2990566   2.650   0.699   8.156 -0.0166 -0.2316 -0.6536
 1079HK4    H1590567   2.671   0.804   8.136 -0.9555  0.3842  1.4061
 1079HK4    C2890568   2.738   0.601   8.112 -0.0499 -0.5781  0.0435
 1079HK4    C2790569   2.701   0.466   8.128 -0.6535 -0.5291 -0.9378
 1079HK4    H1490570   2.752   0.387   8.072  1.5371  0.0501  0.2022
 1079HK4    C3290571   2.592   0.437   8.210 -0.1580  0.3126  0.0285
 1079HK4    H1690572   2.552   0.336   8.217 -2.0118  1.1416  1.9127
 1079HK4    C3190573   2.505   0.534   8.258 -0.4774  0.1164 -0.1571
 1079HK4    C3490574   2.407   0.542   8.364 -0.6306 -0.3901 -0.2575
 1079HK4    C3390575   2.364   0.680   8.372  0.1417 -0.1206 -0.6780
 1079HK4    C3590576   2.263   0.711   8.463  0.4107 -0.3786 -0.2905
 1079HK4    H1790577   2.203   0.800   8.444  2.6467  0.9383 -1.3941
 1079HK4    C3690578   2.207   0.612   8.543  0.5243 -0.0847  0.1499
 1079HK4    H1890579   2.133   0.636   8.620  1.0308 -1.5757  1.1255
 1079HK4    C3790580   2.245   0.479   8.536 -1.0213 -0.4933 -0.7229
 1079HK4    H1990581   2.192   0.406   8.598 -0.7758 -1.4175 -1.5807
 1079HK4    C3890582   2.346   0.448   8.446  0.0509 -0.2862  0.3781
 1079HK4    H2090583   2.373   0.342   8.437 -0.7744 -0.7179  2.8008
 1079HK4    C1490584   2.857   0.640   8.034 -0.4496  0.5608 -0.0056
 1079HK4     C990585   2.922   0.571   7.931 -0.0636  0.4439  0.3150
 1079HK4     C890586   3.060   0.585   7.908 -0.1044  0.4818  0.0850
 1079HK4    C1190587   3.132   0.687   7.971  0.3000  0.5691 -0.5142
 1079HK4     H490588   3.225   0.733   7.935  1.3028  0.9172  2.4412
 1079HK4    C1290589   3.062   0.767   8.060 -0.3605 -0.4162 -0.1348
 1079HK4     H590590   3.108   0.851   8.114 -1.8097  0.0011  0.4625
 1079HK4    C1390591   2.931   0.742   8.097 -0.1541 -0.1459  0.7980
 1079HK4     H690592   2.889   0.795   8.184 -0.1147  1.3512 -0.0757
 1079HK4     C790593   3.131   0.487   7.823 -0.3689  0.1732  0.2184
 1079HK4     O290594   3.249   0.509   7.793 -0.4646  0.1651 -0.1686
 1079HK4     C490595   3.052   0.382   7.756  0.1829 -0.1541  0.0802
 1079HK4     C390596   3.129   0.281   7.697  0.3450 -0.2596  0.4725
 1079HK4     H390597   3.239   0.288   7.688  0.3529  0.4269  1.0305
 1079HK4     C290598   3.066   0.160   7.672 -0.0713 -0.0567  0.5296
 1079HK4     H290599   3.130   0.071   7.661  1.0696  0.7798  0.2252
 1079HK4     C190600   2.931   0.146   7.702 -0.2175  0.0232 -0.0813
 1079HK4     H190601   2.890   0.045   7.688  0.0487 -0.2330  0.9226
 1079HK4     C690602   2.848   0.247   7.754  0.3151  0.1577  0.5252
 1079HK4     C590603   2.913   0.369   7.775  0.1002  0.3902 -0.1594
 1079HK4    C1090604   2.842   0.482   7.842  0.3971  0.6802 -0.3342
 1079HK4     O190605   2.748   0.536   7.785 -0.2692  0.4320  0.5244
 1079HK4    C1690606   2.736   0.200   7.838 -0.0257  0.0266  0.0022
 1079HK4    C1590607   2.757   0.088   7.921 -0.3037 -0.0248  0.0025
 1079HK4     H790608   2.858   0.049   7.941 -0.1656  0.2574 -0.1371
 1079HK4    C2090609   2.654   0.046   8.004 -0.0334 -0.1039  0.2989
 1079HK4     H990610   2.664  11.205   8.066 -1.6176 -1.3128 -1.1505
 1079HK4    C1990611   2.534   0.116   8.009 -0.0334 -0.0359 -0.5587
 1079HK4    C1890612   2.505   0.219   7.912 -0.5147  0.1072 -0.2638
 1079HK4    C1790613   2.610   0.257   7.830 -0.1029 -0.1198  0.1566
 1079HK4     H890614   2.594   0.313   7.737  0.7029 -0.0267  0.0672
 1079HK4     N190615   2.381   0.285   7.928 -0.5979 -0.0300 -0.3366
 1079HK4    C2190616   2.325   0.218   8.038  0.1395  0.0667  0.1014
 1079HK4    C2290617   2.418   0.123   8.096  0.3238  0.1286 -0.0940
 1079HK4    C2690618   2.402   0.076   8.226  0.5132  0.0546 -0.0956
 1079HK4    H1390619   2.477   0.016   8.276 -0.1924  1.0572  2.2290
 1079HK4    C2590620   2.290   0.118   8.297  0.4252  0.1857 -0.3124
 1079HK4    H1290621   2.276   0.061   8.389  1.1455 -0.0503 -0.3480
 1079HK4    C2490622   2.199   0.208   8.242 -0.3189 -0.2137  0.2684
 1079HK4    H1190623   2.120   0.240   8.312  2.2349 -0.2455  3.2735
 1079HK4    C2390624   2.216   0.259   8.114  0.3219 -0.0407  0.4216
 1079HK4    H1090625   2.148   0.330   8.068  1.6946  0.9364 -0.1342
 1079HK4    C3990626   2.355   0.418   7.892 -0.3969  0.1170  0.0554
 1079HK4    C4190627   2.219   0.446   7.868 -0.5826 -0.3820  0.5189
 1079HK4    H2190628   2.158   0.363   7.829  1.5011 -1.4489 -0.5727
 1079HK4    C4290629   2.167   0.571   7.837  0.0814 -0.2155  0.0716
 1079HK4    H2290630   2.059   0.582   7.824 -0.1757 -2.6620 -0.1426
 1079HK4    C4390631   2.252   0.681   7.831  0.1686 -0.2868 -0.0245
 1079HK4    H2390632   2.221   0.782   7.801  1.6189  0.3326  0.5199
 1079HK4    C4490633   2.386   0.654   7.850  0.2193  0.1689  0.2691
 1079HK4    H2490634   2.450   0.744   7.851 -0.7641  0.9212  3.7226
 1079HK4    C4590635   2.439   0.531   7.888 -0.1714 -0.0477  0.1092
 1079HK4    H2590636   2.544   0.530   7.921 -0.0548 -0.0167 -0.2578
 1080HK4    H2890637   5.476   9.735   5.329  1.4048 -0.2620 -1.5823
 1080HK4    C4890638   5.544   9.779   5.402 -0.1288 -0.2493 -0.1389
 1080HK4    C4790639   5.592   9.698   5.505 -0.3830 -0.0760  0.1126
 1080HK4    H2790640   5.561   9.593   5.511  0.5225 -0.3226  0.5453
 1080HK4    C4690641   5.696   9.739   5.587  0.0939 -0.3907 -0.3349
 1080HK4    H2690642   5.734   9.674   5.667  1.9574  2.0851  0.8297
 1080HK4    C4090643   5.747   9.869   5.571  0.1011 -0.3652 -0.1255
 1080HK4    C5090644   5.697   9.947   5.464  0.2089 -0.1545 -0.0216
 1080HK4    H3090645   5.738  10.048   5.448  1.8078 -0.6509  0.8384
 1080HK4    C4990646   5.599   9.903   5.375 -0.5086  0.0906  0.6393
 1080HK4    H2990647   5.576   9.959   5.283  1.2798  1.3346  0.9212
 1080HK4     N290648   5.822   9.933   5.670 -0.2235 -0.6095  0.2787
 1080HK4    C3090649   5.929  10.023   5.648  0.1160 -1.0686  0.0282
 1080HK4    C2990650   6.010  10.031   5.536 -0.3969  0.6011 -0.2427
 1080HK4    H1590651   5.951  10.020   5.444  2.0987  0.6775 -1.9129
 1080HK4    C2890652   6.138  10.083   5.535 -0.1949  0.1139 -0.1573
 1080HK4    C2790653   6.181  10.138   5.658 -0.0132 -0.4352  0.0249
 1080HK4    H1490654   6.250  10.223   5.644  2.5161 -2.4797 -0.2080
 1080HK4    C3290655   6.114  10.127   5.779  0.0224 -0.2231  0.0620
 1080HK4    H1690656   6.158  10.148   5.877  0.2158  0.0733 -0.0876
 1080HK4    C3190657   5.989  10.067   5.773 -0.0975  0.0560 -0.2628
 1080HK4    C3490658   5.908  10.003   5.874  0.0665  0.2037 -0.0413
 1080HK4    C3390659   5.810   9.918   5.809 -0.1842  0.1767  0.3694
 1080HK4    C3590660   5.722   9.841   5.884 -0.5203  0.4227  0.2310
 1080HK4    H1790661   5.647   9.778   5.835 -1.8520  2.1683 -0.0017
 1080HK4    C3690662   5.736   9.841   6.022  0.3041  0.2339  0.1473
 1080HK4    H1890663   5.672   9.770   6.077  0.6609  1.4088  2.1449
 1080HK4    C3790664   5.827   9.924   6.087  1.0337 -0.3214 -0.1504
 1080HK4    H1990665   5.808   9.940   6.193  0.6827 -1.4006 -0.0461
 1080HK4    C3890666   5.914  10.004   6.013  0.6355  0.1944 -0.0625
 1080HK4    H2090667   5.966  10.089   6.058  0.2012  0.1407  0.5580
 1080HK4    C1490668   6.229  10.052   5.424  0.0251  0.0698  0.0349
 1080HK4     C990669   6.369  10.045   5.428  0.0324  0.0961 -0.1582
 1080HK4     C890670   6.450  10.079   5.318  0.2269 -0.2705 -0.1250
 1080HK4    C1190671   6.385  10.116   5.200  0.4812  0.0768 -0.1579
 1080HK4     H490672   6.439  10.112   5.104 -0.9861  1.4440 -1.0612
 1080HK4    C1290673   6.247  10.126   5.189  0.4289 -0.4594 -0.0025
 1080HK4     H590674   6.211  10.183   5.102  1.0289 -0.6931 -0.4120
 1080HK4    C1390675   6.173  10.086   5.299  0.0856  0.4593  0.1107
 1080HK4     H690676   6.065  10.073   5.281  0.2464 -0.5345 -0.1922
 1080HK4     C790677   6.594  10.044   5.312  0.3511  0.1766  0.2592
 1080HK4     O290678   6.648  10.022   5.204 -0.0332 -0.3613  0.1727
 1080HK4     C490679   6.655   9.977   5.429  0.0994 -0.1264  0.2201
 1080HK4     C390680   6.782   9.919   5.434  0.2505  0.2142  0.3215
 1080HK4     H390681   6.828   9.924   5.334  0.0823  1.9134  0.3033
 1080HK4     C290682   6.854   9.901   5.551  0.3254  0.2735  0.2845
 1080HK4     H290683   6.960   9.872   5.556  0.1483 -0.2055  1.6495
 1080HK4     C190684   6.793   9.945   5.669  0.2518  0.6890  0.0932
 1080HK4     H190685   6.862   9.950   5.754  3.0618 -2.0687 -1.8870
 1080HK4     C690686   6.662   9.996   5.675  0.0051  0.0774 -0.0328
 1080HK4     C590687   6.593   9.998   5.554 -0.0820  0.5095  0.0242
 1080HK4    C1090688   6.444   9.996   5.546 -0.0721  0.0805 -0.0999
 1080HK4     O190689   6.388   9.919   5.625  0.1298  0.4069  0.3642
 1080HK4    C1690690   6.614  10.065   5.796  0.1493  0.0081  0.0648
 1080HK4    C1590691   6.507  10.156   5.785  0.0848 -0.0621  0.0890
 1080HK4     H790692   6.481  10.196   5.686  1.4866 -3.1822 -1.6132
 1080HK4    C2090693   6.446  10.207   5.899  0.5298  0.0721  0.2657
 1080HK4     H990694   6.372  10.285   5.880 -1.8135 -2.1085  0.1046
 1080HK4    C1990695   6.487  10.166   6.025  0.0898  0.0780  0.4125
 1080HK4    C1890696   6.591  10.065   6.040  0.3080  0.2435  0.0364
 1080HK4    C1790697   6.648  10.019   5.922 -0.3497 -0.5122  0.0140
 1080HK4     H890698   6.716   9.934   5.921  0.3305 -0.0048 -3.8972
 1080HK4     N190699   6.625  10.060   6.177  0.5213 -0.2693 -0.0355
 1080HK4    C2190700   6.557  10.163   6.245  0.4989 -0.0812 -0.3475
 1080HK4    C2290701   6.454  10.215   6.157  0.2701  0.5369  0.2879
 1080HK4    C2690702   6.346  10.288   6.207  0.0966  0.3006  0.2656
 1080HK4    H1390703   6.252  10.296   6.152  0.8262 -2.5000 -1.5159
 1080HK4    C2590704   6.345  10.331   6.339 -0.0421  0.2102  0.2946
 1080HK4    H1290705   6.264  10.386   6.387  1.6324  1.7574  1.4514
 1080HK4    C2490706   6.455  10.291   6.415  0.3948  1.0372  0.1088
 1080HK4    H1190707   6.456  10.330   6.518 -2.5400 -0.4317  0.7735
 1080HK4    C2390708   6.557  10.205   6.377 -0.4646  0.2611 -0.4531
 1080HK4    H1090709   6.644  10.184   6.438 -0.0780  0.9222 -0.7712
 1080HK4    C3990710   6.660   9.938   6.238 -0.7518 -0.1904  0.8693
 1080HK4    C4190711   6.743   9.948   6.351  0.2667  0.2662  0.0884
 1080HK4    H2190712   6.788  10.046   6.375 -1.8621  1.4747 -0.7274
 1080HK4    C4290713   6.739   9.847   6.447  0.1219  0.0319 -0.1654
 1080HK4    H2290714   6.803   9.854   6.536  1.0900 -0.9658 -0.7840
 1080HK4    C4390715   6.656   9.737   6.430  0.2823 -0.0174 -0.6367
 1080HK4    H2390716   6.649   9.667   6.512 -0.8336 -0.6328 -1.2391
 1080HK4    C4490717   6.570   9.724   6.321 -0.0097 -0.4548 -0.3509
 1080HK4    H2490718   6.493   9.645   6.329  1.6723 -1.9378  1.9312
 1080HK4    C4590719   6.571   9.829   6.231 -1.1784  0.1861  0.3782
 1080HK4    H2590720   6.502   9.819   6.146 -0.3354  0.8402 -0.3925
 1081HK4    H2890721   8.389   9.907   7.022 -0.1763 -0.8300 -2.3548
 1081HK4    C4890722   8.483   9.853   7.035 -0.0945 -0.2201 -0.2139
 1081HK4    C4790723   8.579   9.850   6.935 -0.3640  0.8629 -0.5095
 1081HK4    H2790724   8.569   9.893   6.834  1.0683  1.3922 -0.4466
 1081HK4    C4690725   8.695   9.774   6.946 -1.0126 -0.0767 -0.0749
 1081HK4    H2690726   8.783   9.796   6.884 -0.7409  0.9354  0.6445
 1081HK4    C4090727   8.717   9.696   7.061 -0.0125  0.1389 -0.1102
 1081HK4    C5090728   8.618   9.695   7.161  0.0569 -0.1345 -0.0444
 1081HK4    H3090729   8.634   9.642   7.257  0.4550  1.5303  0.8206
 1081HK4    C4990730   8.506   9.776   7.149  0.1421 -0.0339 -0.1324
 1081HK4    H2990731   8.420   9.763   7.217 -0.6485  1.5528 -0.7992
 1081HK4     N290732   8.803   9.586   7.049  0.1086  0.2673 -0.4485
 1081HK4    C3090733   8.867   9.533   7.163 -0.3068 -0.0121 -0.3430
 1081HK4    C2990734   8.862   9.571   7.297 -0.9786 -0.6471 -0.1899
 1081HK4    H1590735   8.826   9.670   7.324 -1.8661 -1.1431  0.5033
 1081HK4    C2890736   8.935   9.504   7.394  0.0596 -0.0611 -0.5671
 1081HK4    C2790737   9.019   9.397   7.356  0.1739 -0.0967 -0.2280
 1081HK4    H1490738   9.070   9.354   7.444 -1.2914  0.9152  1.1468
 1081HK4    C3290739   9.022   9.355   7.224 -0.4109 -0.4378 -0.1304
 1081HK4    H1690740   9.086   9.269   7.203  2.0911  1.6123 -1.1111
 1081HK4    C3190741   8.948   9.419   7.125 -0.5947 -0.3515  0.0601
 1081HK4    C3490742   8.920   9.398   6.984  0.1843  0.0018 -0.1509
 1081HK4    C3390743   8.840   9.509   6.937 -0.1103 -0.2253 -0.1809
 1081HK4    C3590744   8.789   9.495   6.808 -0.5559 -0.2166 -0.0077
 1081HK4    H1790745   8.730   9.578   6.769  0.7949  0.7281 -0.0739
 1081HK4    C3690746   8.819   9.389   6.723 -0.1412  0.1278 -0.2910
 1081HK4    H1890747   8.797   9.396   6.616 -3.7605 -0.1607  0.3763
 1081HK4    C3790748   8.900   9.285   6.768 -0.0131  0.1883 -0.3795
 1081HK4    H1990749   8.927   9.199   6.707 -2.9079 -0.8720 -0.2526
 1081HK4    C3890750   8.943   9.290   6.900  0.2226  0.2489 -0.4590
 1081HK4    H2090751   9.006   9.211   6.941 -0.7154 -0.3908 -0.2234
 1081HK4    C1490752   8.969   9.579   7.516  0.2171  0.1218 -0.7266
 1081HK4     C990753   9.090   9.577   7.586 -0.0075 -0.1790 -0.3417
 1081HK4     C890754   9.093   9.594   7.725  0.0825 -0.3348 -0.3242
 1081HK4    C1190755   8.977   9.605   7.802  0.2354 -0.9842 -0.0005
 1081HK4     H490756   8.981   9.667   7.892  0.1852  1.7979 -1.8385
 1081HK4    C1290757   8.855   9.595   7.737  0.2637  0.1095 -0.2393
 1081HK4     H590758   8.761   9.604   7.794  0.8707  0.1498  0.7561
 1081HK4    C1390759   8.855   9.591   7.598  0.5434 -0.1723 -0.2314
 1081HK4     H690760   8.759   9.612   7.549  0.4973 -1.0109 -0.5035
 1081HK4     C790761   9.222   9.606   7.797 -0.0493  0.6111 -0.2318
 1081HK4     O290762   9.228   9.606   7.920  0.5206  0.2568 -0.2577
 1081HK4     C490763   9.349   9.609   7.720  0.2592 -0.6339  0.2237
 1081HK4     C390764   9.466   9.635   7.790  0.1449 -0.7858  0.4816
 1081HK4     H390765   9.459   9.681   7.889 -1.0485  1.6224 -0.6750
 1081HK4     C290766   9.589   9.614   7.727  0.1991  0.5981  0.1115
 1081HK4     H290767   9.679   9.611   7.789 -1.0399  2.8982  2.1149
 1081HK4     C190768   9.589   9.568   7.596 -0.1688  0.0585  0.2951
 1081HK4     H190769   9.676   9.548   7.531 -0.7431 -0.1004 -0.4284
 1081HK4     C690770   9.470   9.532   7.529 -0.1376  0.1883  0.1705
 1081HK4     C590771   9.348   9.571   7.585 -0.1478  0.5552 -0.1102
 1081HK4    C1090772   9.219   9.574   7.510  0.0030  0.6947 -0.3625
 1081HK4     O190773   9.223   9.629   7.400  0.3219  0.2953 -0.5517
 1081HK4    C1690774   9.483   9.407   7.452  0.0744 -0.0369  0.5706
 1081HK4    C1590775   9.575   9.307   7.488  0.4480  0.1337  0.0749
 1081HK4     H790776   9.630   9.299   7.583  0.7959  2.0061  0.0397
 1081HK4    C2090777   9.602   9.202   7.400 -0.2559  0.0490 -0.0407
 1081HK4     H990778   9.684   9.137   7.430  0.3767  1.0066  0.3241
 1081HK4    C1990779   9.537   9.183   7.279  0.0615  0.1520 -0.2278
 1081HK4    C1890780   9.450   9.291   7.239  0.5535  0.5705 -0.1747
 1081HK4    C1790781   9.428   9.399   7.325  0.1478 -0.0754  0.5428
 1081HK4     H890782   9.376   9.481   7.276 -2.0817 -0.9359  1.4230
 1081HK4     N190783   9.411   9.270   7.105 -0.1841  0.3249  0.0749
 1081HK4    C2190784   9.474   9.151   7.061 -0.0388  0.4799 -0.1456
 1081HK4    C2290785   9.546   9.087   7.169  0.1196  0.3050 -0.3550
 1081HK4    C2690786   9.616   8.969   7.149  0.6197  0.5424 -0.0241
 1081HK4    H1390787   9.675   8.920   7.226  1.6505  1.6680 -0.0886
 1081HK4    C2590788   9.619   8.912   7.023 -0.2558  0.4576 -0.0088
 1081HK4    H1290789   9.684   8.826   7.007 -0.0689  0.9811 -2.2338
 1081HK4    C2490790   9.548   8.970   6.919  0.1755  0.0789 -0.5217
 1081HK4    H1190791   9.563   8.937   6.815  0.0542 -2.8457  0.3657
 1081HK4    C2390792   9.470   9.084   6.940 -0.0182 -0.1844  0.2215
 1081HK4    H1090793   9.440   9.137   6.849 -1.9027 -1.8869 -0.1788
 1081HK4    C3990794   9.355   9.365   7.020 -0.1241  0.4935  0.2266
 1081HK4    C4190795   9.280   9.320   6.910  0.4650 -0.2532  0.1296
 1081HK4    H2190796   9.261   9.213   6.896  0.3348 -0.2399  0.1992
 1081HK4    C4290797   9.247   9.407   6.807 -0.5356 -0.9591 -0.1578
 1081HK4    H2290798   9.191   9.368   6.721  0.6489 -0.0505 -1.3737
 1081HK4    C4390799   9.281   9.542   6.808  0.1166 -1.1214 -0.0660
 1081HK4    H2390800   9.262   9.611   6.725  2.5149  1.6282  1.5671
 1081HK4    C4490801   9.349   9.586   6.921 -0.1806 -0.4783 -0.1358
 1081HK4    H2490802   9.361   9.694   6.910  0.8282 -0.7228 -1.5108
 1081HK4    C4590803   9.392   9.502   7.023 -0.2219  0.5127  0.7085
 1081HK4    H2590804   9.464   9.545   7.093  2.4513 -1.3729 -0.7865
 1082HK4    H2890805   2.583   5.638   3.547 -0.3866  0.8698 -0.8849
 1082HK4    C4890806   2.633   5.731   3.573  0.0695  0.3489  0.1439
 1082HK4    C4790807   2.658   5.770   3.704 -0.1512 -0.1590  0.3356
 1082HK4    H2790808   2.639   5.693   3.780  1.8084 -2.5263 -1.4911
 1082HK4    C4690809   2.706   5.896   3.739 -0.1930 -0.1430  0.3367
 1082HK4    H2690810   2.692   5.927   3.844  0.5989  1.2943  0.0201
 1082HK4    C4090811   2.733   5.996   3.644 -0.2025 -0.4054  0.0588
 1082HK4    C5090812   2.704   5.954   3.512  0.8274 -0.1907 -0.2374
 1082HK4    H3090813   2.718   6.024   3.429  1.4517  0.9139  0.7902
 1082HK4    C4990814   2.662   5.826   3.475 -0.2379  0.1321 -0.1580
 1082HK4    H2990815   2.663   5.806   3.367  1.8815 -0.7851 -0.0030
 1082HK4     N290816   2.831   6.094   3.665 -0.7164  0.0982  0.1258
 1082HK4    C3090817   2.935   6.093   3.760 -0.3057  0.4285 -0.3144
 1082HK4    C2990818   2.972   6.003   3.860 -0.5082  0.5164 -0.1601
 1082HK4    H1590819   2.914   5.912   3.872  0.4529 -0.0932 -0.1562
 1082HK4    C2890820   3.084   6.021   3.941 -0.2385 -0.2048 -0.3718
 1082HK4    C2790821   3.146   6.148   3.937 -0.5949 -0.0218 -0.1514
 1082HK4    H1490822   3.236   6.172   3.997  0.3757 -1.9095 -0.7924
 1082HK4    C3290823   3.107   6.244   3.845 -0.1697  0.4900  0.1958
 1082HK4    H1690824   3.163   6.337   3.839 -0.1576  0.3937 -1.3780
 1082HK4    C3190825   3.001   6.221   3.758  0.0772  0.2372 -0.0425
 1082HK4    C3490826   2.941   6.302   3.653  0.3294 -0.1348 -0.4750
 1082HK4    C3390827   2.839   6.216   3.596  0.2444 -0.1778 -0.2625
 1082HK4    C3590828   2.766   6.269   3.490 -0.3025 -0.8287 -0.2111
 1082HK4    H1790829   2.668   6.227   3.466 -1.0647  0.9299 -0.2289
 1082HK4    C3690830   2.801   6.390   3.432 -0.3870 -0.4833  0.4590
 1082HK4    H1890831   2.752   6.425   3.340  1.5414 -0.0608 -0.4480
 1082HK4    C3790832   2.903   6.468   3.486 -0.5620  0.0762 -0.0244
 1082HK4    H1990833   2.933   6.563   3.442 -1.4944  0.1307 -0.5533
 1082HK4    C3890834   2.973   6.425   3.597 -0.3851  0.2400 -0.0708
 1082HK4    H2090835   3.025   6.492   3.666 -2.5285 -0.4224  2.2709
 1082HK4    C1490836   3.139   5.919   4.030 -0.5561  0.3735  0.4980
 1082HK4     C990837   3.238   5.948   4.124 -0.1371 -0.4433  0.3214
 1082HK4     C890838   3.354   5.869   4.133 -0.2599 -0.6853 -0.2418
 1082HK4    C1190839   3.361   5.756   4.052  0.2968 -0.4697 -0.4968
 1082HK4     H490840   3.447   5.689   4.060 -0.0460 -1.0595 -1.5871
 1082HK4    C1290841   3.250   5.709   3.981  0.0064  0.0067 -0.3604
 1082HK4     H590842   3.237   5.604   3.954  1.3042  0.0931 -1.3970
 1082HK4    C1390843   3.136   5.788   3.976 -0.0270  0.0771  1.1780
 1082HK4     H690844   3.044   5.745   3.936  0.8595 -1.2509  0.5430
 1082HK4     C790845   3.462   5.910   4.226 -0.1721  0.2995 -0.7716
 1082HK4     O290846   3.578   5.886   4.195  0.0530  0.6940 -0.2501
 1082HK4     C490847   3.427   6.010   4.329 -0.0953 -0.2082 -0.2476
 1082HK4     C390848   3.525   6.023   4.427 -0.6463  0.0606  0.2706
 1082HK4     H390849   3.610   5.954   4.438  0.5319  1.6118  1.1179
 1082HK4     C290850   3.531   6.130   4.516 -0.2032  0.2226  0.0495
 1082HK4     H290851   3.572   6.121   4.618 -1.6257  0.5955  0.6686
 1082HK4     C190852   3.427   6.221   4.497  0.0625  0.4547 -0.2810
 1082HK4     H190853   3.430   6.318   4.549  2.3634 -0.0561  0.6435
 1082HK4     C690854   3.319   6.210   4.408  0.2167  0.1147 -0.4302
 1082HK4     C590855   3.317   6.098   4.324  0.0439 -0.0339 -0.2284
 1082HK4    C1090856   3.214   6.054   4.226 -0.2372 -0.3592  0.2114
 1082HK4     O190857   3.098   6.083   4.256 -0.0854  0.1025  0.3521
 1082HK4    C1690858   3.205   6.300   4.434  0.4987  0.2341  0.4060
 1082HK4    C1590859   3.182   6.349   4.564 -0.5385  0.0459  0.2943
 1082HK4     H790860   3.243   6.310   4.647  0.7413  1.3085 -0.0206
 1082HK4    C2090861   3.100   6.458   4.591 -0.3279  0.2000  0.3146
 1082HK4     H990862   3.039   6.453   4.681 -0.1175 -0.7365  0.4077
 1082HK4    C1990863   3.041   6.528   4.486  0.0283 -0.1923 -0.1494
 1082HK4    C1890864   3.053   6.471   4.353 -0.0974 -0.1952 -0.1587
 1082HK4    C1790865   3.135   6.361   4.331  0.0985 -0.1702  0.4323
 1082HK4     H890866   3.145   6.322   4.229  0.6452  0.3799  0.2675
 1082HK4     N190867   2.977   6.539   4.255 -0.1929  0.0028  0.0515
 1082HK4    C2190868   2.914   6.643   4.327  0.0049 -0.0527  0.3032
 1082HK4    C2290869   2.955   6.643   4.466 -0.1492 -0.2382  0.3502
 1082HK4    C2690870   2.930   6.755   4.545  0.4733  0.1901 -0.0488
 1082HK4    H1390871   2.953   6.754   4.652  1.8688  0.1442 -0.3482
 1082HK4    C2590872   2.863   6.865   4.494  0.5965  0.1028 -0.3978
 1082HK4    H1290873   2.860   6.953   4.558  3.1704 -0.8767  1.1333
 1082HK4    C2490874   2.834   6.872   4.358  0.2725 -0.2166 -0.3473
 1082HK4    H1190875   2.787   6.960   4.312  1.1449 -0.0316 -0.8797
 1082HK4    C2390876   2.855   6.759   4.280 -0.0244 -0.3107 -0.2956
 1082HK4    H1090877   2.833   6.771   4.174 -2.3273  1.1385  0.3165
 1082HK4    C3990878   2.927   6.481   4.138 -0.0699 -0.4519  0.2223
 1082HK4    C4190879   2.900   6.562   4.026 -0.1910 -0.2857  0.3737
 1082HK4    H2190880   2.951   6.659   4.013  3.2705 -1.9775  0.8386
 1082HK4    C4290881   2.822   6.517   3.920 -0.4169  0.3147  0.2839
 1082HK4    H2290882   2.812   6.586   3.834  1.2267  1.9092  1.3218
 1082HK4    C4390883   2.764   6.391   3.924  0.2763 -0.0584 -1.0302
 1082HK4    H2390884   2.706   6.345   3.844 -0.2299  1.4941 -1.5854
 1082HK4    C4490885   2.791   6.307   4.032 -0.5633  0.5337 -0.3539
 1082HK4    H2490886   2.752   6.204   4.024  0.9481 -0.0409 -0.4225
 1082HK4    C4590887   2.876   6.349   4.133 -0.2271 -0.3729 -0.2543
 1082HK4    H2590888   2.930   6.268   4.183 -0.4060 -1.2185 -1.4240
 1083HK4    H2890889   7.177   4.184   2.602  1.5568  0.0922 -1.1478
 1083HK4    C4890890   7.140   4.160   2.503 -1.1513 -0.7767  0.0089
 1083HK4    C4790891   7.152   4.026   2.466  0.5342 -0.6968  0.1909
 1083HK4    H2790892   7.184   3.950   2.538 -3.5132 -1.7278  1.0543
 1083HK4    C4690893   7.115   3.990   2.336  0.6056 -0.0835 -0.0008
 1083HK4    H2690894   7.158   3.898   2.295  0.7068  0.1375 -0.3919
 1083HK4    C4090895   7.055   4.081   2.247 -0.3497 -0.2368  0.4803
 1083HK4    C5090896   7.049   4.214   2.293  0.1192  0.1620 -0.5942
 1083HK4    H3090897   6.997   4.286   2.229  0.5412  0.5769 -0.4814
 1083HK4    C4990898   7.091   4.259   2.418  0.3517 -0.4243 -0.4632
 1083HK4    H2990899   7.112   4.366   2.425 -1.4922 -0.0971  0.2018
 1083HK4     N290900   6.982   4.021   2.144  0.3594 -0.3004  0.0168
 1083HK4    C3090901   6.954   4.104   2.033 -0.0948 -0.0796  0.2975
 1083HK4    C2990902   7.039   4.182   1.955 -0.7504  0.2804 -0.0552
 1083HK4    H1590903   7.122   4.228   2.008 -0.9273  0.1456  0.3365
 1083HK4    C2890904   6.999   4.229   1.830 -0.1943  0.4386 -0.1714
 1083HK4    C2790905   6.865   4.211   1.793 -0.2029 -0.0561  0.0971
 1083HK4    H1490906   6.835   4.250   1.695  0.3301 -0.1530 -0.1019
 1083HK4    C3290907   6.773   4.142   1.872 -0.2588 -0.4495 -0.3124
 1083HK4    H1690908   6.668   4.145   1.841  0.0442 -0.9357 -1.4234
 1083HK4    C3190909   6.817   4.085   1.990  0.2336 -0.5591 -0.5501
 1083HK4    C3490910   6.762   3.979   2.072 -0.2716 -0.0354 -0.2067
 1083HK4    C3390911   6.865   3.948   2.170 -0.0188  0.1515 -0.4122
 1083HK4    C3590912   6.832   3.855   2.268 -0.2055  0.7569  0.1000
 1083HK4    H1790913   6.915   3.808   2.320  0.1528 -0.5152 -1.5602
 1083HK4    C3690914   6.707   3.793   2.267 -0.0465  0.4313  0.2996
 1083HK4    H1890915   6.699   3.699   2.324  0.6720  1.4264  2.1052
 1083HK4    C3790916   6.608   3.829   2.177  0.0041 -0.2358 -0.0179
 1083HK4    H1990917   6.505   3.798   2.194  0.4908 -1.9037 -0.0333
 1083HK4    C3890918   6.636   3.921   2.076 -0.0396 -0.5452 -0.3157
 1083HK4    H2090919   6.578   3.936   1.986  1.3271  1.0535 -0.9532
 1083HK4    C1490920   7.097   4.299   1.745  0.2412  0.0741  0.0263
 1083HK4     C990921   7.068   4.391   1.644  0.1049 -0.1082 -0.1022
 1083HK4     C890922   7.142   4.396   1.523  0.3331  0.6881  0.0675
 1083HK4    C1190923   7.247   4.307   1.507 -0.1611  0.1152  0.0094
 1083HK4     H490924   7.290   4.290   1.407 -2.7421 -2.4933 -0.7122
 1083HK4    C1290925   7.294   4.233   1.615 -0.2568 -0.2201 -0.1803
 1083HK4     H590926   7.394   4.187   1.620 -0.6325 -1.0934 -0.4017
 1083HK4    C1390927   7.216   4.226   1.730  0.1124 -0.1460  0.0706
 1083HK4     H690928   7.256   4.163   1.811 -1.0438 -0.3914  0.4478
 1083HK4     C790929   7.100   4.482   1.410  0.1726 -0.1792 -0.5402
 1083HK4     O290930   7.184   4.517   1.328  0.4001 -0.2194 -0.3237
 1083HK4     C490931   6.972   4.554   1.428  0.3642 -0.0503  0.3445
 1083HK4     C390932   6.920   4.611   1.313  0.2974 -0.1761  0.3121
 1083HK4     H390933   6.977   4.594   1.221 -0.3709 -0.8691  0.0143
 1083HK4     C290934   6.788   4.657   1.315  0.3056 -0.1560  0.4300
 1083HK4     H290935   6.750   4.701   1.222  0.5353  1.1727  0.9521
 1083HK4     C190936   6.718   4.652   1.435  0.0529  0.0294  0.2879
 1083HK4     H190937   6.612   4.682   1.426 -1.1057 -3.7265  0.5319
 1083HK4     C690938   6.775   4.614   1.558  0.3238 -0.2684  0.0696
 1083HK4     C590939   6.905   4.561   1.552  0.4032 -0.1083  0.3692
 1083HK4    C1090940   6.970   4.500   1.671  0.4763  0.0975  0.4353
 1083HK4     O190941   6.955   4.545   1.785 -0.0177 -0.0434  0.4291
 1083HK4    C1690942   6.691   4.647   1.674  0.0840 -0.0651 -0.1614
 1083HK4    C1590943   6.599   4.754   1.674 -0.2754 -0.3674  0.3464
 1083HK4     H790944   6.630   4.835   1.607  0.6303 -1.0540 -0.0875
 1083HK4    C2090945   6.475   4.749   1.736 -0.3877  0.1186  0.1664
 1083HK4     H990946   6.401   4.828   1.729 -2.4317 -1.6794  0.7490
 1083HK4    C1990947   6.450   4.645   1.825  0.2664 -0.0501  0.1596
 1083HK4    C1890948   6.546   4.536   1.833  0.2587 -0.0756 -0.1046
 1083HK4    C1790949   6.658   4.535   1.750  0.2152 -0.1056 -0.1641
 1083HK4     H890950   6.727   4.452   1.764  1.4533  0.3731 -3.1500
 1083HK4     N190951   6.510   4.443   1.932  0.2750  0.0513  0.0234
 1083HK4    C2190952   6.381   4.476   1.978 -0.1177 -0.1190 -0.9350
 1083HK4    C2290953   6.343   4.599   1.912 -0.4235 -0.0872 -0.7054
 1083HK4    C2690954   6.216   4.650   1.939 -0.0623  0.4354  0.0418
 1083HK4    H1390955   6.199   4.751   1.901  1.2519  0.0950 -1.5367
 1083HK4    C2590956   6.126   4.582   2.020 -0.2054 -0.2675 -0.6927
 1083HK4    H1290957   6.025   4.621   2.013 -0.8266 -1.5663  0.6571
 1083HK4    C2490958   6.160   4.459   2.077  0.1787  0.4332  0.6187
 1083HK4    H1190959   6.100   4.411   2.155  0.9504 -1.5174  0.0312
 1083HK4    C2390960   6.290   4.412   2.061  0.2638  0.7974  0.1971
 1083HK4    H1090961   6.316   4.330   2.128 -0.7055  0.9086  0.7285
 1083HK4    C3990962   6.603   4.389   2.022  0.2220 -0.2024 -0.0744
 1083HK4    C4190963   6.567   4.270   2.088 -0.4242  0.0536  0.0358
 1083HK4    H2190964   6.500   4.197   2.040  0.9944 -1.5185  0.4209
 1083HK4    C4290965   6.603   4.247   2.220 -0.2779  0.1689  0.0151
 1083HK4    H2290966   6.574   4.153   2.270 -0.2067 -0.7975 -1.6961
 1083HK4    C4390967   6.692   4.330   2.287 -0.4206 -0.0897  0.5260
 1083HK4    H2390968   6.728   4.310   2.388  2.2226 -0.7475 -0.5170
 1083HK4    C4490969   6.743   4.439   2.217 -0.8883  0.0980  0.4736
 1083HK4    H2490970   6.807   4.507   2.276 -1.6058  1.3447 -0.1724
 1083HK4    C4590971   6.699   4.468   2.089  0.1098 -0.1848  0.0661
 1083HK4    H2590972   6.747   4.552   2.036  2.4526 -1.9973 -0.8076
 1084HK4    H2890973  10.456   2.748   0.518  0.9595  0.3427  1.4288
 1084HK4    C4890974  10.541   2.682   0.500  0.2478 -0.1888 -0.1422
 1084HK4    C4790975  10.550   2.558   0.562 -0.4505 -0.3620 -0.3920
 1084HK4    H2790976  10.472   2.518   0.629 -0.6563 -2.3598 -1.7819
 1084HK4    C4690977  10.654   2.473   0.525  0.2986  0.2194  0.3703
 1084HK4    H2690978  10.643   2.371   0.564 -0.4809  0.5140  0.9330
 1084HK4    C4090979  10.751   2.513   0.432  0.1431  0.5547  0.3516
 1084HK4    C5090980  10.737   2.636   0.363  0.0156  0.0933 -0.4499
 1084HK4    H3090981  10.801   2.679   0.285 -0.8236  1.0073 -0.6415
 1084HK4    C4990982  10.631   2.718   0.400  0.0265  0.0245 -0.2619
 1084HK4    H2990983  10.619   2.814   0.347 -2.7671 -0.2995 -0.2948
 1084HK4     N290984  10.883   2.466   0.435 -0.0838 -0.1359 -0.1852
 1084HK4    C3090985  10.942   2.405   0.548  0.7686  1.1432  0.0790
 1084HK4    C2990986  10.917   2.411   0.684  0.1021  0.0173  0.0122
 1084HK4    H1590987  10.853   2.492   0.717  2.7588  1.6615  1.3277
 1084HK4    C2890988  11.002   2.356   0.780 -0.3725 -0.7616 -0.0079
 1084HK4    C2790989  11.120   2.295   0.734 -0.0376  0.0004 -0.1614
 1084HK4    H1490990  11.186   2.253   0.811 -0.5463 -0.3996  0.0558
 1084HK4    C3290991  11.145   2.271   0.599 -0.1281 -0.1766 -0.1463
 1084HK4    H1690992  11.226   2.209   0.561  1.4986 -0.5782  3.6431
 1084HK4    C3190993  11.054   2.321   0.508 -0.0576  0.0974 -0.0661
 1084HK4    C3490994  11.068   2.339   0.365  0.5309  0.0349 -0.0175
 1084HK4    C3390995  10.966   2.435   0.326  0.1487 -0.3437  0.0497
 1084HK4    C3590996  10.958   2.466   0.191  0.7749  0.8274  0.2779
 1084HK4    H1790997  10.891   2.544   0.153 -1.1363 -1.4562 -1.1799
 1084HK4    C3690998  11.042   2.405   0.098  0.2885  0.2206  0.2375
 1084HK4    H1890999  11.049   2.450  11.246  0.4010 -0.5392 -0.0965
 1084HK4    C3791000  11.130   2.304   0.136 -0.2880 -0.2959  0.2135
 1084HK4    H1991001  11.179   2.247   0.057 -1.0217  0.4130 -0.7756
 1084HK4    C3891002  11.150   2.278   0.271  0.6974  0.0298  0.1300
 1084HK4    H2091003  11.223   2.203   0.302  0.8411  0.1078 -0.0143
 1084HK4    C1491004  11.002   2.440   0.901 -0.2985  0.4302 -0.8289
 1084HK4     C991005  11.118   2.499   0.953 -0.8021  0.8950 -0.2243
 1084HK4     C891006  11.140   2.489   1.092  0.1878  0.7611 -0.3904
 1084HK4    C1191007  11.049   2.424   1.174 -0.1393  0.2635 -1.1482
 1084HK4     H491008  11.059   2.419   1.283  1.5889 -0.1850 -1.3122
 1084HK4    C1291009  10.927   2.376   1.128 -0.6368  0.5578 -0.1400
 1084HK4     H591010  10.866   2.311   1.193 -0.1103 -1.0387 -1.2188
 1084HK4    C1391011  10.906   2.390   0.991  0.4520 -0.2351 -0.3928
 1084HK4     H691012  10.802   2.408   0.959  1.1568  1.2701 -1.9202
 1084HK4     C791013   0.003   2.564   1.156 -0.2482  0.8148  0.3125
 1084HK4     O291014   0.036   2.528   1.268  0.5450  0.0740 -0.1561
 1084HK4     C491015   0.058   2.680   1.082 -0.3581  0.7395  0.1110
 1084HK4     C391016   0.164   2.754   1.132  0.0199  0.0228  0.3642
 1084HK4     H391017   0.191   2.744   1.238 -1.0028  0.9521  0.7193
 1084HK4     C291018   0.241   2.844   1.059  0.0956 -0.2433  0.1166
 1084HK4     H291019   0.336   2.875   1.105 -0.1489  1.7507 -0.6809
 1084HK4     C191020   0.204   2.868   0.927 -0.2581  0.5018  0.3537
 1084HK4     H191021   0.277   2.911   0.858  0.0078 -0.6749 -0.1040
 1084HK4     C691022   0.083   2.813   0.880  0.1755 -0.0135 -0.1582
 1084HK4     C591023   0.019   2.709   0.950  0.1943 -0.0772 -0.2351
 1084HK4    C1091024  11.189   2.605   0.877 -0.0486  0.2439 -0.4349
 1084HK4     O191025  11.218   2.581   0.760  0.2239 -0.0911 -0.2985
 1084HK4    C1691026   0.033   2.882   0.761 -0.1055  0.0442 -0.0073
 1084HK4    C1591027   0.109   2.944   0.660 -0.2035  0.0778 -0.0607
 1084HK4     H791028   0.209   2.900   0.647 -0.0375  0.1805  0.8337
 1084HK4    C2091029   0.065   3.025   0.556 -0.1020 -0.0527 -0.2062
 1084HK4     H991030   0.129   3.089   0.494 -0.3428  0.2064 -0.1892
 1084HK4    C1991031  11.175   3.036   0.552 -0.1260 -0.2421  0.0188
 1084HK4    C1891032  11.086   2.967   0.644 -0.3077  0.0285  0.0425
 1084HK4    C1791033  11.143   2.901   0.751 -0.0833  0.2545  0.0594
 1084HK4     H891034  11.091   2.884   0.845  0.9024 -1.2684  0.3387
 1084HK4     N191035  10.951   2.993   0.610 -0.3656  0.1728  0.3756
 1084HK4    C2191036  10.955   3.056   0.484 -0.5393 -0.3995  0.0823
 1084HK4    C2291037  11.091   3.097   0.451 -0.4538 -0.7664 -0.0238
 1084HK4    C2691038  11.110   3.174   0.337  0.0131 -0.7741  0.0490
 1084HK4    H1391039  11.212   3.195   0.306  0.1244 -1.1676  0.1473
 1084HK4    C2591040  11.003   3.204   0.253  0.1161 -0.2842  0.0941
 1084HK4    H1291041  11.018   3.258   0.160 -0.7051 -1.9971 -1.0768
 1084HK4    C2491042  10.875   3.153   0.274 -0.0856  0.0677 -0.2700
 1084HK4    H1191043  10.793   3.193   0.211  0.6428 -0.8946 -1.8526
 1084HK4    C2391044  10.854   3.084   0.393 -0.1003  0.0984 -0.2552
 1084HK4    H1091045  10.758   3.033   0.394 -0.4241  0.7201  0.7762
 1084HK4    C3991046  10.837   2.945   0.675 -0.3644 -0.1620  0.1237
 1084HK4    C4191047  10.716   3.016   0.675 -0.3258 -0.0944  0.4086
 1084HK4    H2191048  10.715   3.118   0.634  0.4573  0.1543  0.9990
 1084HK4    C4291049  10.603   2.969   0.741 -0.3903 -0.2085  0.2116
 1084HK4    H2291050  10.520   3.041   0.752  0.3678  0.2725  3.0231
 1084HK4    C4391051  10.604   2.843   0.801  0.1166 -0.1617  0.2979
 1084HK4    H2391052  10.515   2.790   0.835  0.3865 -0.7220  0.1331
 1084HK4    C4491053  10.721   2.768   0.790 -0.0390 -0.3909  0.1759
 1084HK4    H2491054  10.705   2.661   0.805 -0.3589 -0.1966  1.2594
 1084HK4    C4591055  10.837   2.815   0.730 -0.0866 -0.0757  0.3277
 1084HK4    H2591056  10.923   2.747   0.736 -1.3071 -1.8405 -1.4567
 1085HK4    H2891057   9.795   5.581   5.890 -1.2062  0.1543 -0.2989
 1085HK4    C4891058   9.873   5.639   5.839 -0.2546  0.3927  1.4192
 1085HK4    C4791059   9.992   5.569   5.821 -0.3689  0.6156 -0.2777
 1085HK4    H2791060   9.980   5.460   5.814  0.1858  0.2193  3.6626
 1085HK4    C4691061  10.105   5.641   5.785 -0.0721  0.3782  0.1636
 1085HK4    H2691062  10.201   5.588   5.774  0.0577  0.9317 -1.5769
 1085HK4    C4091063  10.110   5.781   5.769 -0.4792  0.3431 -0.3134
 1085HK4    C5091064   9.984   5.841   5.785 -0.5564  0.0457  0.2137
 1085HK4    H3091065   9.964   5.931   5.724  0.4360 -1.2419 -2.0349
 1085HK4    C4991066   9.865   5.775   5.816 -0.5968  0.2035  0.4021
 1085HK4    H2991067   9.767   5.825   5.824 -0.7957 -0.1639  0.2628
 1085HK4     N291068  10.217   5.861   5.726  0.0450  0.0784  0.4772
 1085HK4    C3091069  10.331   5.808   5.662  0.2675  0.2839  0.7054
 1085HK4    C2991070  10.341   5.724   5.552  0.2114  0.0912  0.8479
 1085HK4    H1591071  10.250   5.695   5.499  0.1966  2.6329 -0.5979
 1085HK4    C2891072  10.466   5.695   5.500  0.0329  0.3927  0.2342
 1085HK4    C2791073  10.584   5.730   5.570  0.5919  0.0068 -0.5148
 1085HK4    H1491074  10.681   5.692   5.535  1.0687 -0.5537  1.3473
 1085HK4    C3291075  10.576   5.825   5.670  0.1827 -0.8599  0.2833
 1085HK4    H1691076  10.661   5.883   5.705  0.6385 -1.3118 -0.0808
 1085HK4    C3191077  10.451   5.877   5.704  0.5572 -0.0379  0.4059
 1085HK4    C3491078  10.410   5.981   5.797 -0.0728  0.3936 -0.3474
 1085HK4    C3391079  10.266   5.973   5.796 -0.0852  0.5410 -0.1682
 1085HK4    C3591080  10.191   6.065   5.869 -0.3226  0.4823 -0.3364
 1085HK4    H1791081  10.086   6.041   5.884 -0.0603  0.3287  1.4419
 1085HK4    C3691082  10.253   6.168   5.940  0.0094  0.3081 -0.3759
 1085HK4    H1891083  10.191   6.245   5.988 -1.0844 -0.3453 -0.7163
 1085HK4    C3791084  10.392   6.170   5.941  0.0124  0.1295  0.0220
 1085HK4    H1991085  10.438   6.221   6.025 -0.9647  0.8516  0.1219
 1085HK4    C3891086  10.473   6.081   5.870  0.0174 -0.4579  0.7567
 1085HK4    H2091087  10.581   6.093   5.877 -0.0497 -0.2737  1.6146
 1085HK4    C1491088  10.473   5.615   5.377  0.3388  0.0222  0.4877
 1085HK4     C991089  10.581   5.530   5.348  0.0124 -0.1739 -0.1824
 1085HK4     C891090  10.629   5.515   5.217 -0.2655 -0.5032 -0.2461
 1085HK4    C1191091  10.561   5.584   5.117 -0.3119  0.4073  0.4180
 1085HK4     H491092  10.601   5.576   5.015 -1.9616 -2.5397 -0.0522
 1085HK4    C1291093  10.450   5.664   5.141 -0.7194 -0.0085 -0.0888
 1085HK4     H591094  10.395   5.700   5.053  0.2850  3.0259  0.4664
 1085HK4    C1391095  10.404   5.678   5.271  0.0337 -0.6884  0.2575
 1085HK4     H691096  10.311   5.733   5.293  0.3006 -0.3206  0.4648
 1085HK4     C791097  10.747   5.433   5.178  0.2830  0.0082  0.3430
 1085HK4     O291098  10.827   5.485   5.101  0.4748 -0.2409  0.3763
 1085HK4     C491099  10.790   5.340   5.284 -0.3749 -0.5076  0.1584
 1085HK4     C391100  10.891   5.251   5.248 -0.0851 -0.0507 -0.1630
 1085HK4     H391101  10.925   5.229   5.146  2.8112  0.1641  0.6995
 1085HK4     C291102  10.957   5.179   5.347  0.0538  0.7002  0.2962
 1085HK4     H291103  11.051   5.124   5.327 -0.7130 -0.0324 -1.3735
 1085HK4     C191104  10.918   5.198   5.479 -0.4635 -0.7794  0.3588
 1085HK4     H191105  10.985   5.149   5.551  0.4284  0.1392  0.1503
 1085HK4     C691106  10.821   5.287   5.528 -0.3414 -0.6327  0.3382
 1085HK4     C591107  10.756   5.350   5.420  0.5624  0.2956  0.3351
 1085HK4    C1091108  10.642   5.441   5.450  0.2601  0.0717 -0.1185
 1085HK4     O191109  10.557   5.392   5.524  0.3763  0.1299  0.0529
 1085HK4    C1691110  10.799   5.287   5.673  0.1085  0.5575  0.4161
 1085HK4    C1591111  10.820   5.169   5.748 -0.5365  0.2578  0.1324
 1085HK4     H791112  10.828   5.072   5.699  1.5942  1.0019 -1.0718
 1085HK4    C2091113  10.830   5.164   5.887 -0.1033 -0.0896  0.0877
 1085HK4     H991114  10.846   5.070   5.940  2.8293  0.9525  1.1581
 1085HK4    C1991115  10.806   5.277   5.964  0.1791 -0.0595  0.1332
 1085HK4    C1891116  10.777   5.397   5.887  0.0812 -0.0655  0.1612
 1085HK4    C1791117  10.784   5.403   5.748  0.2033  0.7095  0.1986
 1085HK4     H891118  10.738   5.492   5.706  0.4600  0.4634 -0.6049
 1085HK4     N191119  10.777   5.505   5.978  0.8024  0.2674 -0.2294
 1085HK4    C2191120  10.804   5.453   6.107 -0.8512  0.1553  0.0770
 1085HK4    C2291121  10.818   5.309   6.105 -0.1706  0.2183  0.1008
 1085HK4    C2691122  10.869   5.241   6.215  0.3458  0.6038  0.0988
 1085HK4    H1391123  10.880   5.133   6.208 -1.8072  0.2441  1.8268
 1085HK4    C2591124  10.887   5.312   6.333 -0.2919  0.1414  0.4777
 1085HK4    H1291125  10.931   5.262   6.420  0.2867 -1.8095 -0.8992
 1085HK4    C2491126  10.866   5.449   6.333 -0.3825  0.1285  0.2793
 1085HK4    H1191127  10.890   5.504   6.425 -0.7775  1.3007 -0.3039
 1085HK4    C2391128  10.829   5.525   6.223  0.2411 -0.0266 -0.0391
 1085HK4    H1091129  10.807   5.632   6.229 -2.4364 -0.4934 -0.5710
 1085HK4    C3991130  10.702   5.620   5.952 -0.0936 -0.1563  0.4534
 1085HK4    C4191131  10.748   5.740   6.011  0.6505 -0.2911  0.1455
 1085HK4    H2191132  10.853   5.774   6.006 -0.6835  3.7091 -1.8539
 1085HK4    C4291133  10.659   5.830   6.067  0.2493 -0.2210 -0.6025
 1085HK4    H2291134  10.689   5.919   6.125  1.4479 -2.1313  1.7926
 1085HK4    C4391135  10.524   5.801   6.055  0.0684  0.2676  0.1484
 1085HK4    H2391136  10.455   5.868   6.105  1.3053  2.6181 -1.2201
 1085HK4    C4491137  10.476   5.695   5.979  0.1442 -0.1388  0.6654
 1085HK4    H2491138  10.371   5.678   5.952  0.7842 -0.2051 -1.9302
 1085HK4    C4591139  10.566   5.605   5.922 -0.0496 -0.0114  0.1576
 1085HK4    H2591140  10.524   5.508   5.892 -0.0461  0.0820 -0.1463
 1086HK4    H2891141   6.469   7.952   9.938 -0.5374  3.6443  2.3846
 1086HK4    C4891142   6.365   7.929   9.959 -0.3444  0.1134 -0.0934
 1086HK4    C4791143   6.316   7.935  10.089  0.1819  0.0164  0.1124
 1086HK4    H2791144   6.382   7.972  10.168 -0.0278 -0.7195  0.6328
 1086HK4    C4691145   6.180   7.921  10.113  0.1892 -0.0989  0.0859
 1086HK4    H2691146   6.145   7.926  10.218  0.7012  2.8326  0.1433
 1086HK4    C4091147   6.093   7.886  10.008 -0.3136  0.4201  0.3330
 1086HK4    C5091148   6.146   7.861   9.880 -0.1063  0.8143  0.3371
 1086HK4    H3091149   6.095   7.807   9.800  1.3303 -2.6045  1.6120
 1086HK4    C4991150   6.281   7.885   9.857  0.0334 -0.4318 -0.1726
 1086HK4    H2991151   6.319   7.886   9.753 -0.0663  0.5648 -0.2063
 1086HK4     N291152   5.961   7.847  10.037 -0.2259 -0.1159  0.0036
 1086HK4    C3091153   5.916   7.797  10.161 -0.0225 -0.1373  0.0675
 1086HK4    C2991154   5.972   7.690  10.230  0.5519 -0.2640 -0.5783
 1086HK4    H1591155   6.076   7.660  10.219  0.4488 -0.6310 -0.5572
 1086HK4    C2891156   5.890   7.624  10.322  0.4066  0.0123 -0.5105
 1086HK4    C2791157   5.756   7.664  10.342  0.3681 -0.3575 -0.0166
 1086HK4    H1491158   5.687   7.629  10.420 -2.8248  0.0008 -2.6047
 1086HK4    C3291159   5.697   7.761  10.262  0.1969 -0.4854 -0.0460
 1086HK4    H1691160   5.590   7.780  10.261  0.2043 -0.4500 -1.7167
 1086HK4    C3191161   5.774   7.823  10.164 -0.0548 -0.2952 -0.1247
 1086HK4    C3491162   5.737   7.899  10.046  0.0517  0.1861  0.1472
 1086HK4    C3391163   5.854   7.897   9.961 -0.2369 -0.5144 -0.2428
 1086HK4    C3591164   5.848   7.941   9.829  0.7582  0.5938  0.0746
 1086HK4    H1791165   5.937   7.961   9.769  0.0409  0.2451 -1.1266
 1086HK4    C3691166   5.732   8.003   9.783  0.3818  0.0493  0.2783
 1086HK4    H1891167   5.736   8.057   9.687  0.2205  2.5399  1.6282
 1086HK4    C3791168   5.621   8.008   9.866  0.0484 -0.3542 -0.1384
 1086HK4    H1991169   5.536   8.071   9.840 -0.0295 -1.4400 -2.7438
 1086HK4    C3891170   5.618   7.942   9.988  0.0284 -0.0253  0.0405
 1086HK4    H2091171   5.523   7.899  10.020 -0.3856  1.3427  0.6857
 1086HK4    C1491172   5.918   7.481  10.340 -0.1909  0.0552  0.7802
 1086HK4     C991173   5.820   7.382  10.352 -0.1973 -0.0757 -0.3703
 1086HK4     C891174   5.845   7.275  10.439  0.4087  0.2515 -0.1433
 1086HK4    C1191175   5.969   7.249  10.497  0.2912  0.0169  0.0032
 1086HK4     H491176   5.994   7.166  10.564  1.5265 -0.2873 -0.7973
 1086HK4    C1291177   6.071   7.337  10.463 -0.0423  0.3804 -0.0657
 1086HK4     H591178   6.174   7.320  10.499 -0.3653  0.4777  0.9060
 1086HK4    C1391179   6.048   7.450  10.385  0.3181  0.0186 -0.7031
 1086HK4     H691180   6.134   7.491  10.330  1.3259 -0.5679  0.4090
 1086HK4     C791181   5.725   7.202  10.486  0.5043 -0.0666 -0.3905
 1086HK4     O291182   5.735   7.130  10.585 -0.4081 -0.0396 -0.2711
 1086HK4     C491183   5.591   7.229  10.428  0.4770 -0.4334 -0.4979
 1086HK4     C391184   5.482   7.160  10.480  0.3333  0.5545  0.5142
 1086HK4     H391185   5.489   7.104  10.575 -1.7906  1.7838  1.4353
 1086HK4     C291186   5.355   7.181  10.430  0.3694  0.6936  0.4791
 1086HK4     H291187   5.266   7.143  10.482 -2.8970  2.3005 -3.5946
 1086HK4     C191188   5.337   7.268  10.322 -0.3016 -0.3323 -0.2560
 1086HK4     H191189   5.238   7.291  10.281  0.4330  1.6707 -0.9797
 1086HK4     C691190   5.447   7.339  10.270 -0.1919  0.0197  0.4430
 1086HK4     C591191   5.577   7.308  10.312 -0.0002  0.3190  0.0708
 1086HK4    C1091192   5.701   7.374  10.262 -0.0216 -0.1510 -0.5981
 1086HK4     O191193   5.717   7.357  10.141  0.3708 -0.6763 -0.4719
 1086HK4    C1691194   5.418   7.472  10.215  0.5754 -0.0163 -0.0646
 1086HK4    C1591195   5.343   7.564  10.292  0.1441 -0.2317 -0.2286
 1086HK4     H791196   5.314   7.549  10.397  0.7788 -1.1202 -0.1783
 1086HK4    C2091197   5.283   7.675  10.233  0.4383  0.2944  0.4696
 1086HK4     H991198   5.218   7.745  10.286 -1.7476  0.0496 -1.8014
 1086HK4    C1991199   5.304   7.698  10.098 -0.0974 -0.3219  0.2737
 1086HK4    C1891200   5.380   7.602  10.020 -0.2884 -0.2692  0.0255
 1086HK4    C1791201   5.435   7.489  10.079 -0.4288 -0.4817 -0.2540
 1086HK4     H891202   5.496   7.416  10.025  1.4489  1.5839 -1.0212
 1086HK4     N191203   5.388   7.643   9.886  0.4730  0.0237  0.1599
 1086HK4    C2191204   5.313   7.762   9.877  0.4190 -0.0248 -0.0298
 1086HK4    C2291205   5.259   7.801  10.006  0.9120  0.0261  0.1626
 1086HK4    C2691206   5.201   7.926  10.019 -0.4675 -0.5255 -0.5623
 1086HK4    H1391207   5.171   7.947  10.121 -0.5907 -2.1299 -0.2602
 1086HK4    C2591208   5.190   8.019   9.916 -0.2654  0.1245 -0.0022
 1086HK4    H1291209   5.144   8.117   9.920  0.3931  0.3991  1.0317
 1086HK4    C2491210   5.238   7.979   9.792 -0.1355 -0.1794  0.1450
 1086HK4    H1191211   5.187   8.025   9.706 -1.5350  0.9370  1.5677
 1086HK4    C2391212   5.303   7.857   9.775  0.1641 -0.0040  0.0143
 1086HK4    H1091213   5.342   7.830   9.677  1.1267  2.1813 -0.2351
 1086HK4    C3991214   5.491   7.607   9.798  0.2054 -0.2097 -0.0593
 1086HK4    C4191215   5.477   7.595   9.658  0.2641  0.5106 -0.1322
 1086HK4    H2191216   5.376   7.602   9.614 -1.0174 -0.0935  2.6389
 1086HK4    C4291217   5.588   7.594   9.575  0.4865 -0.3383  0.1693
 1086HK4    H2291218   5.586   7.627   9.470  2.9796  0.9001  0.4773
 1086HK4    C4391219   5.716   7.588   9.628  0.5928 -0.5942 -0.1144
 1086HK4    H2391220   5.802   7.599   9.561 -0.1331 -0.4581 -1.0296
 1086HK4    C4491221   5.735   7.591   9.766  0.5826  0.2650 -0.1299
 1086HK4    H2491222   5.837   7.616   9.798 -0.5064  0.5828  3.3233
 1086HK4    C4591223   5.623   7.598   9.848  0.3533 -0.0415 -0.4191
 1086HK4    H2591224   5.636   7.611   9.956 -2.7703 -3.0052  0.4221
 1087HK4    H2891225   0.221   2.497   6.827  1.2047 -1.0124 -0.4026
 1087HK4    C4891226   0.277   2.499   6.921  0.9052 -0.0094 -0.2380
 1087HK4    C4791227   0.281   2.614   6.998  0.4377 -0.0805 -0.1049
 1087HK4    H2791228   0.212   2.694   6.967  0.4445 -0.2115 -0.4511
 1087HK4    C4691229   0.342   2.618   7.123 -0.0355 -0.5118  0.1396
 1087HK4    H2691230   0.347   2.707   7.187 -0.8714 -0.8587  0.6981
 1087HK4    C4091231   0.401   2.504   7.182 -0.0700 -0.1741  0.8377
 1087HK4    C5091232   0.399   2.391   7.097  0.4796  0.4876 -0.0693
 1087HK4    H3091233   0.454   2.299   7.120  1.1956  0.4595 -1.8239
 1087HK4    C4991234   0.339   2.386   6.972 -0.3781 -0.4482  0.3755
 1087HK4    H2991235   0.324   2.291   6.918  1.9579 -1.0871  0.8105
 1087HK4     N291236   0.511   2.520   7.267  0.5336 -0.4206  0.1137
 1087HK4    C3091237   0.588   2.637   7.274 -0.1493  0.0572 -0.3652
 1087HK4    C2991238   0.626   2.728   7.176  0.4930  0.0430 -0.1292
 1087HK4    H1591239   0.565   2.724   7.086  0.1350  1.2055  0.0532
 1087HK4    C2891240   0.715   2.833   7.198 -0.1535  0.5898 -0.1180
 1087HK4    C2791241   0.760   2.854   7.330 -0.1128  0.1475 -0.0586
 1087HK4    H1491242   0.831   2.936   7.347  0.2461 -0.4201  1.2343
 1087HK4    C3291243   0.720   2.770   7.433 -0.2755 -0.0447 -0.2813
 1087HK4    H1691244   0.765   2.796   7.528 -2.2041  0.5067  0.5008
 1087HK4    C3191245   0.634   2.663   7.409 -0.3520  0.0184 -0.2889
 1087HK4    C3491246   0.604   2.541   7.481 -0.1847  0.0788 -0.1154
 1087HK4    C3391247   0.524   2.458   7.393 -0.2823 -0.2515  0.2805
 1087HK4    C3591248   0.457   2.349   7.449 -0.5932  0.1493  0.7001
 1087HK4    H1791249   0.395   2.292   7.380  0.8616 -0.3353 -0.2511
 1087HK4    C3691250   0.476   2.321   7.584 -0.1011  0.3308  0.6722
 1087HK4    H1891251   0.431   2.229   7.625  1.5598 -0.7440  0.1472
 1087HK4    C3791252   0.536   2.411   7.671 -0.1968  0.6983  0.3568
 1087HK4    H1991253   0.538   2.391   7.778  0.3181  1.0652  0.4200
 1087HK4    C3891254   0.602   2.522   7.619  0.1487  0.2846 -0.0849
 1087HK4    H2091255   0.674   2.577   7.679  0.6456 -0.3624 -0.0775
 1087HK4    C1491256   0.786   2.884   7.080  0.0206  0.1310 -0.2144
 1087HK4     C991257   0.923   2.911   7.094 -0.0228  0.1431  0.2173
 1087HK4     C891258   0.974   3.032   7.042 -0.0426 -0.0510 -0.2645
 1087HK4    C1191259   0.891   3.110   6.962 -0.1781 -0.0426 -0.1159
 1087HK4     H491260   0.930   3.192   6.901  0.8533 -1.3820 -1.2866
 1087HK4    C1291261   0.758   3.074   6.942 -0.2224  0.1047 -0.0815
 1087HK4     H591262   0.700   3.143   6.879 -0.2259 -1.1699 -1.5064
 1087HK4    C1391263   0.701   2.961   6.998 -0.1044 -0.0352 -0.2392
 1087HK4     H691264   0.596   2.929   6.987 -0.3315  0.3868  0.6118
 1087HK4     C791265   1.113   3.076   7.070  0.1450 -0.5725 -0.3630
 1087HK4     O291266   1.169   3.154   6.993  0.2787  0.0885  0.4003
 1087HK4     C491267   1.194   2.993   7.162  0.1271 -0.3977 -0.1894
 1087HK4     C391268   1.308   3.052   7.215 -0.0639 -0.2033  0.0096
 1087HK4     H391269   1.355   3.137   7.163 -0.1684 -1.3965 -2.1295
 1087HK4     C291270   1.378   2.995   7.320 -0.3971  0.2282  0.4632
 1087HK4     H291271   1.454   3.049   7.378 -0.2836 -0.4245  0.9370
 1087HK4     C191272   1.322   2.881   7.377 -0.4663  0.2843  0.5088
 1087HK4     H191273   1.371   2.836   7.464 -0.7709  0.9485  1.0249
 1087HK4     C691274   1.210   2.812   7.324 -0.0222 -0.2004  0.1926
 1087HK4     C591275   1.149   2.868   7.211 -0.7136  0.2783  0.7965
 1087HK4    C1091276   1.022   2.816   7.153  0.1726 -0.2525 -0.7230
 1087HK4     O191277   1.038   2.709   7.095  0.6403 -0.3120 -0.4868
 1087HK4    C1691278   1.135   2.724   7.414 -0.3257  0.3359  0.4626
 1087HK4    C1591279   1.118   2.765   7.548  0.3067  0.3498  0.5398
 1087HK4     H791280   1.137   2.868   7.581 -0.8641  0.1121  2.0339
 1087HK4    C2091281   1.060   2.680   7.642 -0.5209  0.1715 -0.1236
 1087HK4     H991282   1.052   2.715   7.745  1.9413  1.8102 -0.4402
 1087HK4    C1991283   1.018   2.554   7.603  0.4820 -0.3241  0.3791
 1087HK4    C1891284   1.035   2.509   7.467  0.0932  0.2015  0.1518
 1087HK4    C1791285   1.098   2.595   7.378 -0.1225  0.3616  0.1577
 1087HK4     H891286   1.133   2.559   7.281 -0.1097 -0.1548  0.3543
 1087HK4     N191287   0.982   2.379   7.447 -0.3687  0.3962  0.1005
 1087HK4    C2191288   0.935   2.337   7.573  0.1780  0.2053  0.2436
 1087HK4    C2291289   0.951   2.443   7.670 -0.4504  0.2104  0.3461
 1087HK4    C2691290   0.914   2.421   7.802  0.1749  0.3239  0.5487
 1087HK4    H1391291   0.922   2.497   7.879  1.5823  0.1483  0.5832
 1087HK4    C2591292   0.880   2.292   7.843 -0.0766  0.1770 -0.1127
 1087HK4    H1291293   0.876   2.274   7.950 -2.7568  0.7556 -0.0780
 1087HK4    C2491294   0.886   2.187   7.752  0.1801  0.3626 -0.3115
 1087HK4    H1191295   0.827   2.100   7.784  0.3239  0.1840 -0.5305
 1087HK4    C2391296   0.902   2.209   7.616 -0.5800  0.1629 -0.4393
 1087HK4    H1091297   0.902   2.122   7.550  0.5267  0.9121 -1.4574
 1087HK4    C3991298   0.942   2.333   7.321 -0.2043 -0.0033  0.1934
 1087HK4    C4191299   0.909   2.197   7.300 -0.2007 -0.0024  0.1806
 1087HK4    H2191300   0.953   2.115   7.358  3.0195  0.6698 -1.1721
 1087HK4    C4291301   0.826   2.158   7.195 -0.3130  0.4053  0.1163
 1087HK4    H2291302   0.791   2.055   7.183 -0.8832  0.8563 -2.3642
 1087HK4    C4391303   0.775   2.248   7.102 -0.4062 -0.1043 -0.3216
 1087HK4    H2391304   0.718   2.204   7.020 -0.8014 -0.4398  0.1317
 1087HK4    C4491305   0.811   2.381   7.114 -0.3766 -0.1202 -0.2386
 1087HK4    H2491306   0.754   2.456   7.057 -2.4559 -1.1081  0.5253
 1087HK4    C4591307   0.891   2.419   7.221 -0.4439 -0.4517 -0.0726
 1087HK4    H2591308   0.903   2.528   7.219  2.0495 -0.6808 -0.1840
 1088HK4    H2891309   1.002  10.037  10.981  0.4836 -0.2831 -0.6733
 1088HK4    C4891310   1.029  10.099  11.066 -0.4733 -0.2047 -0.4227
 1088HK4    C4791311   1.134  10.187  11.043 -0.3907 -0.1131  0.2701
 1088HK4    H2791312   1.186  10.201  10.947  2.5635  1.4879  2.0592
 1088HK4    C4691313   1.179  10.273  11.142 -0.3182 -0.0655  0.1958
 1088HK4    H2691314   1.250  10.354  11.120  0.5786 -0.7549  0.5122
 1088HK4    C4091315   1.134  10.264   0.027 -0.1077 -0.3311  0.2516
 1088HK4    C5091316   1.031  10.170   0.049 -0.5138 -0.0444 -0.3904
 1088HK4    H3091317   1.001  10.149   0.153  2.7317 -1.2552  0.3559
 1088HK4    C4991318   0.983  10.087  11.197 -0.3484 -0.1545 -0.3745
 1088HK4    H2991319   0.897  10.020  11.213  0.6314 -1.1058  1.1195
 1088HK4     N291320   1.199  10.340   0.125  0.1203 -0.2878  0.0648
 1088HK4    C3091321   1.334  10.379   0.128 -0.0084  0.1794 -0.1208
 1088HK4    C2991322   1.451  10.317   0.085  0.0474 -0.0252  0.3291
 1088HK4    H1591323   1.447  10.210   0.065 -0.9162 -0.0444  0.5920
 1088HK4    C2891324   1.577  10.375   0.091  0.1180 -0.1449  0.0102
 1088HK4    C2791325   1.591  10.502   0.151  0.3110  0.3373 -1.0571
 1088HK4    H1491326   1.683  10.559   0.131  1.3881 -1.0487 -0.1491
 1088HK4    C3291327   1.478  10.569   0.197  0.2694 -0.4150 -0.0634
 1088HK4    H1691328   1.484  10.668   0.241 -0.4372 -0.1351 -0.5839
 1088HK4    C3191329   1.352  10.510   0.186  0.0599 -0.0465  0.3697
 1088HK4    C3491330   1.220  10.549   0.233 -0.0424 -0.2668  0.2646
 1088HK4    C3391331   1.132  10.439   0.201  0.0596 -0.2695 -0.0114
 1088HK4    C3591332   0.997  10.456   0.230  0.1286 -0.0063  0.1533
 1088HK4    H1791333   0.919  10.386   0.200  0.5431 -1.4480  2.3223
 1088HK4    C3691334   0.949  10.576   0.282  0.0201 -0.1344  0.3486
 1088HK4    H1891335   0.839  10.587   0.288  0.0226 -0.6771  1.3637
 1088HK4    C3791336   1.029  10.682   0.322 -0.0636 -0.1417  0.5281
 1088HK4    H1991337   0.990  10.769   0.376  0.1020  1.2214 -1.5079
 1088HK4    C3891338   1.163  10.660   0.295 -0.1672 -0.2319  0.0885
 1088HK4    H2091339   1.234  10.735   0.329 -0.7809  0.0715  0.7292
 1088HK4    C1491340   1.694  10.291   0.064  0.3674  0.1264  0.2482
 1088HK4     C991341   1.823  10.315   0.113  0.2984  0.6662  0.1600
 1088HK4     C891342   1.938  10.273   0.043  0.0941 -0.1738  0.3267
 1088HK4    C1191343   1.918  10.186  11.185 -0.4131  0.6501 -0.2593
 1088HK4     H491344   2.009  10.163  11.129 -0.6110 -0.5402 -0.1210
 1088HK4    C1291345   1.790  10.148  11.144 -0.3451 -0.3704  0.4533
 1088HK4     H591346   1.775  10.070  11.068  0.2490  0.0664 -0.1121
 1088HK4    C1391347   1.677  10.204  11.202 -0.1483  0.3746  0.1257
 1088HK4     H691348   1.577  10.193  11.159 -0.9495 -0.1194  2.0383
 1088HK4     C791349   2.066  10.343   0.069  0.0412  0.0762 -0.0724
 1088HK4     O291350   2.166  10.315   0.003  0.2780 -0.4364  0.4914
 1088HK4     C491351   2.069  10.453   0.167  0.5884  0.1767 -0.1997
 1088HK4     C391352   2.181  10.536   0.174  0.3233  0.5037  0.2355
 1088HK4     H391353   2.245  10.550   0.086 -0.1822  1.5317  0.0289
 1088HK4     C291354   2.203  10.612   0.288  0.3007 -0.0064  0.5827
 1088HK4     H291355   2.299  10.665   0.301  0.2504  0.1550  0.2887
 1088HK4     C191356   2.108  10.609   0.390  0.0460 -0.1959  0.3391
 1088HK4     H191357   2.147  10.655   0.482  0.7229 -2.1682  1.0784
 1088HK4     C691358   1.985  10.542   0.379  0.2232 -0.4647 -0.0368
 1088HK4     C591359   1.970  10.459   0.268  0.1707  0.3165 -0.6178
 1088HK4    C1091360   1.848  10.376   0.247 -0.0842  0.4513  0.3285
 1088HK4     O191361   1.797  10.314   0.341  0.3227  0.5052  0.5847
 1088HK4    C1691362   1.908  10.544   0.505  0.3932 -0.2465  0.0628
 1088HK4    C1591363   1.974  10.569   0.627  0.1157 -0.2862  0.2194
 1088HK4     H791364   2.077  10.534   0.637  0.6578  0.6881 -1.7677
 1088HK4    C2091365   1.911  10.621   0.740  0.0920 -0.1419  0.1404
 1088HK4     H991366   1.965  10.622   0.835 -0.5326 -2.5878  0.5614
 1088HK4    C1991367   1.773  10.637   0.738  0.0916 -0.1624 -0.0200
 1088HK4    C1891368   1.696  10.593   0.624 -0.1610  0.7608 -0.2113
 1088HK4    C1791369   1.771  10.561   0.512  0.4174 -0.1940  0.4432
 1088HK4     H891370   1.713  10.534   0.423 -1.0665  1.1152  1.0028
 1088HK4     N191371   1.558  10.584   0.654 -0.2383  0.9159 -0.5152
 1088HK4    C2191372   1.540  10.640   0.782 -0.1072  0.7396 -0.4194
 1088HK4    C2291373   1.671  10.669   0.836 -0.0132 -0.2559 -0.0980
 1088HK4    C2691374   1.681  10.739   0.956 -0.0203 -0.1347 -0.1680
 1088HK4    H1391375   1.775  10.788   0.981 -1.4527  3.2192 -1.0291
 1088HK4    C2591376   1.569  10.763   1.035  0.1430  0.0063  0.0244
 1088HK4    H1291377   1.571  10.807   1.134 -0.8889  0.2816 -0.0637
 1088HK4    C2491378   1.443  10.724   0.988  0.0388  0.2917  0.0668
 1088HK4    H1191379   1.359  10.756   1.052 -0.7484 -0.2091 -0.7182
 1088HK4    C2391380   1.430  10.665   0.863  0.1710 -0.0191  0.1976
 1088HK4    H1091381   1.335  10.616   0.842 -0.3048  2.2485 -3.2749
 1088HK4    C3991382   1.470  10.506   0.578  0.0597 -0.0402  0.1021
 1088HK4    C4191383   1.331  10.531   0.584 -0.0063 -0.4331  0.1931
 1088HK4    H2191384   1.288  10.630   0.607 -0.3728 -0.3204 -0.9476
 1088HK4    C4291385   1.238  10.431   0.556 -0.6902  0.3778 -0.4309
 1088HK4    H2291386   1.135  10.450   0.591 -0.7715  0.6731 -0.8219
 1088HK4    C4391387   1.283  10.311   0.503  0.1656  0.1640  0.7567
 1088HK4    H2391388   1.208  10.240   0.470  0.3581 -0.0694  0.8252
 1088HK4    C4491389   1.419  10.284   0.492  0.0256 -0.3076  0.1763
 1088HK4    H2491390   1.456  10.187   0.454 -2.2546 -1.0238 -0.2806
 1088HK4    C4591391   1.511  10.379   0.534 -0.0979  0.1295 -0.5351
 1088HK4    H2591392   1.619  10.359   0.524  0.1077  0.0097  1.8195
 1089HK4    H2891393  10.450   5.819   3.736 -2.5770  0.4258  2.0299
 1089HK4    C4891394  10.410   5.887   3.660  0.0487  0.1400  0.3220
 1089HK4    C4791395  10.349   6.002   3.707  0.0132  0.0395  0.5219
 1089HK4    H2791396  10.345   6.022   3.815  2.2605  1.7615  0.3244
 1089HK4    C4691397  10.302   6.104   3.624  0.5547 -0.1424 -0.0120
 1089HK4    H2691398  10.273   6.198   3.674  1.9028  0.5271 -0.4796
 1089HK4    C4091399  10.305   6.082   3.485 -0.0396 -0.5142  0.0311
 1089HK4    C5091400  10.358   5.959   3.440  0.1181 -0.3884 -0.1282
 1089HK4    H3091401  10.368   5.945   3.331 -1.7061 -0.0129 -0.3615
 1089HK4    C4991402  10.417   5.865   3.523 -0.5855 -0.3829  0.3735
 1089HK4    H2991403  10.479   5.792   3.469  0.5833  0.6459  0.3166
 1089HK4     N291404  10.242   6.170   3.397  0.4229  0.4006  0.6038
 1089HK4    C3091405  10.143   6.263   3.436 -0.1237  0.3582 -0.6510
 1089HK4    C2991406  10.046   6.250   3.534  0.9455  0.3910  0.4153
 1089HK4    H1591407  10.021   6.152   3.575  2.6806  0.1164  0.8763
 1089HK4    C2891408   9.967   6.360   3.567  0.0215 -0.1921  0.1636
 1089HK4    C2791409   9.982   6.482   3.498 -0.6970 -0.6018 -0.7306
 1089HK4    H1491410   9.932   6.574   3.532  1.4496 -0.3226  1.7920
 1089HK4    C3291411  10.071   6.498   3.393  0.1732  0.4952  0.1536
 1089HK4    H1691412  10.078   6.590   3.335 -1.0178 -0.4275 -1.5022
 1089HK4    C3191413  10.143   6.384   3.356  0.0043  0.5539 -0.3562
 1089HK4    C3491414  10.249   6.359   3.260  0.2128  0.0009  0.0196
 1089HK4    C3391415  10.301   6.226   3.282 -0.2041 -0.1701 -0.0068
 1089HK4    C3591416  10.390   6.174   3.188 -0.0044  0.0889  0.0402
 1089HK4    H1791417  10.446   6.081   3.205  0.8353  0.7828  1.1625
 1089HK4    C3691418  10.420   6.249   3.075 -0.6498 -0.0273 -0.2115
 1089HK4    H1891419  10.443   6.195   2.982  0.4291 -2.5024  1.4446
 1089HK4    C3791420  10.383   6.382   3.059  0.3153  0.2089 -0.5415
 1089HK4    H1991421  10.424   6.435   2.973  1.1805  0.7727  0.2123
 1089HK4    C3891422  10.294   6.434   3.153  0.4994 -0.3096 -0.0766
 1089HK4    H2091423  10.240   6.524   3.124 -0.9196 -0.6912  1.3528
 1089HK4    C1491424   9.855   6.333   3.657 -0.2688 -0.1777 -0.1898
 1089HK4     C991425   9.738   6.410   3.657 -0.0710  0.1250 -0.1936
 1089HK4     C891426   9.680   6.445   3.781  0.0076 -0.2232 -0.0581
 1089HK4    C1191427   9.729   6.386   3.896 -0.1638 -0.6508 -0.2041
 1089HK4     H491428   9.662   6.385   3.984 -1.9663 -1.1933 -1.5519
 1089HK4    C1291429   9.828   6.288   3.895  0.1824 -0.3230  0.7357
 1089HK4     H591430   9.843   6.237   3.991 -1.7903 -0.0803  1.1960
 1089HK4    C1391431   9.893   6.264   3.774 -1.0807 -0.2544  0.0308
 1089HK4     H691432   9.959   6.177   3.762  1.5637  1.8422 -1.0247
 1089HK4     C791433   9.549   6.514   3.784 -0.0341 -0.3133  0.1641
 1089HK4     O291434   9.523   6.582   3.883 -0.4479 -0.2338  0.0041
 1089HK4     C491435   9.480   6.544   3.656  0.1801  0.3632  0.2065
 1089HK4     C391436   9.352   6.596   3.670 -0.2129 -0.5018 -0.1527
 1089HK4     H391437   9.293   6.577   3.762 -3.8396 -3.8535 -3.0123
 1089HK4     C291438   9.279   6.650   3.565  0.2654  0.0615 -0.1948
 1089HK4     H291439   9.170   6.658   3.572  0.1748 -2.2326  1.4020
 1089HK4     C191440   9.341   6.634   3.441  0.3405  0.1022 -0.1603
 1089HK4     H191441   9.292   6.680   3.355 -1.7148 -0.5558  0.6429
 1089HK4     C691442   9.467   6.573   3.422  0.2297 -0.1536 -0.0834
 1089HK4     C591443   9.541   6.524   3.531 -0.0705 -0.0810  0.1547
 1089HK4    C1091444   9.666   6.443   3.531  0.2981  0.4869 -0.3116
 1089HK4     O191445   9.688   6.382   3.427  0.2785 -0.1069  0.0339
 1089HK4    C1691446   9.528   6.622   3.298  0.7578  0.1606  0.2965
 1089HK4    C1591447   9.517   6.753   3.246 -0.4012 -0.1211 -0.1985
 1089HK4     H791448   9.487   6.834   3.314 -0.6795  0.2663 -0.7844
 1089HK4    C2091449   9.528   6.780   3.110 -0.0163  0.2057 -0.1048
 1089HK4     H991450   9.530   6.880   3.068 -1.3515 -1.4023 -4.2791
 1089HK4    C1991451   9.544   6.679   3.016 -0.0005  0.3871 -0.2987
 1089HK4    C1891452   9.570   6.545   3.067 -0.3031  0.3577 -0.2190
 1089HK4    C1791453   9.563   6.525   3.204 -0.1749  0.3161 -0.2167
 1089HK4     H891454   9.572   6.420   3.232  1.9721  0.2863 -0.9114
 1089HK4     N191455   9.592   6.457   2.958  0.6297  0.2488  0.0502
 1089HK4    C2191456   9.582   6.540   2.845  0.4363 -0.0498 -0.1505
 1089HK4    C2291457   9.546   6.678   2.871  0.2574 -0.0680 -0.2948
 1089HK4    C2691458   9.546   6.776   2.772 -0.2198 -0.2566 -0.4796
 1089HK4    H1391459   9.524   6.879   2.799  0.9567 -0.4239  1.2252
 1089HK4    C2591460   9.573   6.740   2.641 -0.4520  0.2495 -0.6681
 1089HK4    H1291461   9.570   6.810   2.557  0.3702  1.1264  0.0267
 1089HK4    C2491462   9.594   6.605   2.613  0.2870  0.1757  0.2194
 1089HK4    H1191463   9.574   6.574   2.509 -0.8246  2.5902 -0.3271
 1089HK4    C2391464   9.598   6.506   2.711  0.1087 -0.2024 -0.1527
 1089HK4    H1091465   9.616   6.403   2.682  2.5363  0.0924  0.2333
 1089HK4    C3991466   9.667   6.339   2.955 -0.5630 -0.5327  0.5562
 1089HK4    C4191467   9.640   6.231   2.868 -0.0602  0.1577 -0.4641
 1089HK4    H2191468   9.540   6.219   2.824 -0.0041 -1.6798 -0.1056
 1089HK4    C4291469   9.734   6.130   2.853 -0.1904 -0.1362  0.6792
 1089HK4    H2291470   9.704   6.051   2.783 -1.4972  2.1686 -1.4502
 1089HK4    C4391471   9.855   6.131   2.921  0.2874 -0.1104 -0.1549
 1089HK4    H2391472   9.924   6.047   2.927  0.8861  0.4750  1.6220
 1089HK4    C4491473   9.872   6.239   3.008 -0.7595 -0.4634  0.5005
 1089HK4    H2491474   9.971   6.245   3.055  0.3848  2.1470 -2.0622
 1089HK4    C4591475   9.784   6.343   3.032 -0.2828  0.0347  0.1071
 1089HK4    H2591476   9.793   6.382   3.135  1.5787  3.0355 -1.1233
 1090HK4    H2891477   4.359   0.260   2.727  1.8560 -0.2243  1.7867
 1090HK4    C4891478   4.330   0.156   2.745  0.4433 -0.1345  0.0920
 1090HK4    C4791479   4.194   0.130   2.732  0.3398  0.2483  0.4159
 1090HK4    H2791480   4.130   0.208   2.689 -1.7058 -0.6441  1.7706
 1090HK4    C4691481   4.157  11.244   2.738 -0.1592  0.3550 -0.2723
 1090HK4    H2691482   4.051  11.217   2.728  0.2590 -0.5187 -2.5653
 1090HK4    C4091483   4.250  11.139   2.752 -0.0695  0.4140 -0.4192
 1090HK4    C5091484   4.386  11.175   2.763  0.0727 -0.2460  0.0119
 1090HK4    H3091485   4.464  11.097   2.768  3.4903  2.9235 -1.4803
 1090HK4    C4991486   4.429   0.059   2.758  0.2903 -0.3194 -0.1168
 1090HK4    H2991487   4.533   0.090   2.777  1.4878 -2.9291 -2.0564
 1090HK4     N291488   4.200  11.012   2.783  0.2556  0.3070 -0.3239
 1090HK4    C3091489   4.081  10.982   2.853  0.7143 -0.3032  0.1960
 1090HK4    C2991490   4.016  11.067   2.941  0.0731  0.0136 -0.5682
 1090HK4    H1591491   4.074  11.145   2.991  1.3750 -1.6863  0.6715
 1090HK4    C2891492   3.893  11.029   2.993  0.1541  0.3573 -0.1146
 1090HK4    C2791493   3.835  10.906   2.954  0.0952  0.5471 -0.6371
 1090HK4    H1491494   3.735  10.882   2.993 -0.5892  1.6204 -1.6997
 1090HK4    C3291495   3.902  10.816   2.873  0.3450 -0.1332  0.3164
 1090HK4    H1691496   3.874  10.711   2.872  2.7270 -0.8624  3.0615
 1090HK4    C3191497   4.026  10.852   2.820  0.0110  0.1176 -0.3034
 1090HK4    C3491498   4.129  10.792   2.738  0.1380  0.2549 -0.2422
 1090HK4    C3391499   4.235  10.890   2.722  0.3442  0.0940  0.1501
 1090HK4    C3591500   4.353  10.848   2.663  0.1212 -0.5029  0.1272
 1090HK4    H1791501   4.436  10.917   2.646 -2.2954  2.7834  1.2026
 1090HK4    C3691502   4.364  10.721   2.608  0.2391 -0.5193  0.1835
 1090HK4    H1891503   4.449  10.700   2.541 -0.4031  0.7625 -1.0613
 1090HK4    C3791504   4.260  10.631   2.626  0.3602 -0.6668  0.1383
 1090HK4    H1991505   4.270  10.530   2.587  3.3176 -0.1704 -0.5338
 1090HK4    C3891506   4.138  10.664   2.685  0.4070  0.2966 -0.2971
 1090HK4    H2091507   4.045  10.615   2.658 -0.7074  2.7391 -1.0278
 1090HK4    C1491508   3.847  11.076   3.124  0.0364  0.4217 -0.1804
 1090HK4     C991509   3.765  10.999   3.207  0.1802  0.1327 -0.3085
 1090HK4     C891510   3.661  11.063   3.278  0.2573 -0.3414  0.2344
 1090HK4    C1191511   3.649  11.201   3.274 -0.1119 -0.3779 -0.0177
 1090HK4     H491512   3.570   0.004   3.332 -1.1376 -0.9533 -0.8887
 1090HK4    C1291513   3.734   0.030   3.195  0.0644 -0.1621  0.3821
 1090HK4     H591514   3.719   0.138   3.183  1.2606 -0.2263 -1.9978
 1090HK4    C1391515   3.836  11.217   3.123  0.3512  0.4537  0.2672
 1090HK4     H691516   3.904   0.030   3.062 -1.2375  0.4258 -1.5847
 1090HK4     C791517   3.550  10.980   3.332 -0.1510 -0.0986 -0.2286
 1090HK4     O291518   3.473  11.032   3.412 -0.5807 -0.0673 -0.6563
 1090HK4     C491519   3.556  10.833   3.314  0.1976 -0.0995 -0.0929
 1090HK4     C391520   3.441  10.760   3.339  0.3069 -0.1010  0.4175
 1090HK4     H391521   3.351  10.822   3.357 -1.1039 -1.9087 -0.2251
 1090HK4     C291522   3.436  10.627   3.299  0.3173  0.1096 -0.2816
 1090HK4     H291523   3.332  10.593   3.291 -0.3526  1.5151  1.9956
 1090HK4     C191524   3.544  10.568   3.235  0.1034 -0.7060  0.1071
 1090HK4     H191525   3.531  10.467   3.194  3.2213 -0.3118 -2.0476
 1090HK4     C691526   3.667  10.634   3.217 -0.2037 -0.0292  0.4876
 1090HK4     C591527   3.669  10.767   3.262  0.3804  0.1350  0.0014
 1090HK4    C1091528   3.786  10.853   3.231  0.3026  0.1682 -0.1970
 1090HK4     O191529   3.897  10.840   3.282 -0.2508 -0.8476  0.7879
 1090HK4    C1691530   3.759  10.579   3.116 -0.0519 -0.7467  1.0126
 1090HK4    C1591531   3.701  10.513   3.007  0.3299 -0.1598  0.4493
 1090HK4     H791532   3.593  10.496   3.001  0.4219 -1.6057  2.5919
 1090HK4    C2091533   3.781  10.452   2.910 -0.0323 -0.0581  0.0809
 1090HK4     H991534   3.721  10.404   2.833 -3.5997 -2.4269  4.0854
 1090HK4    C1991535   3.919  10.444   2.923  0.0012  0.2102 -0.0953
 1090HK4    C1891536   3.983  10.510   3.036 -0.0757 -0.2545  0.2211
 1090HK4    C1791537   3.898  10.580   3.121  0.0207  0.7834 -0.5212
 1090HK4     H891538   3.944  10.609   3.216  2.1827 -2.2386 -0.5649
 1090HK4     N191539   4.123  10.499   3.025 -0.0677 -0.1234  0.1847
 1090HK4    C2191540   4.154  10.418   2.914  0.2488  0.7504 -0.3649
 1090HK4    C2291541   4.031  10.401   2.841  0.1218  0.5460 -0.1052
 1090HK4    C2691542   4.019  10.325   2.725 -0.6391 -0.1815  0.4454
 1090HK4    H1391543   3.916  10.311   2.691 -1.2458  3.6254  0.4152
 1090HK4    C2591544   4.134  10.270   2.672 -0.7189 -0.4217  0.5257
 1090HK4    H1291545   4.128  10.208   2.582 -2.2037 -0.0137  0.3373
 1090HK4    C2491546   4.256  10.290   2.736 -0.3809  0.0994 -0.2836
 1090HK4    H1191547   4.330  10.215   2.705 -1.1119  0.2073 -2.3827
 1090HK4    C2391548   4.266  10.358   2.857 -0.2330 -0.5731  0.0843
 1090HK4    H1091549   4.355  10.363   2.919 -0.4162  1.4661  0.1902
 1090HK4    C3991550   4.215  10.588   3.081 -0.0288  0.1656 -0.3348
 1090HK4    C4191551   4.175  10.719   3.114 -0.4631  0.0684 -0.4891
 1090HK4    H2191552   4.098  10.769   3.053 -0.4403 -1.0957 -1.5121
 1090HK4    C4291553   4.243  10.793   3.209 -0.0356 -0.4327 -0.3994
 1090HK4    H2291554   4.195  10.886   3.244  3.0977  1.4078 -0.7796
 1090HK4    C4391555   4.356  10.748   3.276  0.0348 -0.0307 -0.2440
 1090HK4    H2391556   4.403  10.818   3.345 -1.2352 -0.1615  0.7664
 1090HK4    C4491557   4.392  10.616   3.249  0.0937 -0.0161 -0.2479
 1090HK4    H2491558   4.470  10.567   3.308  0.3771  1.1526  0.3566
 1090HK4    C4591559   4.322  10.537   3.159  0.4322  0.3506 -0.8413
 1090HK4    H2591560   4.345  10.430   3.156 -1.2340 -0.0221 -0.9336
 1091HK4    H2891561   2.305   7.050   6.669 -0.0326  1.0765  2.0997
 1091HK4    C4891562   2.303   7.146   6.618 -0.2974 -0.0412 -0.0657
 1091HK4    C4791563   2.286   7.258   6.698 -0.0125 -0.3115  0.3755
 1091HK4    H2791564   2.269   7.261   6.807  0.0952  2.2780  0.3633
 1091HK4    C4691565   2.304   7.381   6.635  1.1892 -0.4645  0.4095
 1091HK4    H2691566   2.284   7.470   6.696 -0.1168 -0.7824  0.4626
 1091HK4    C4091567   2.341   7.405   6.501 -0.1395  0.2588  0.1690
 1091HK4    C5091568   2.365   7.286   6.430  0.4346  0.2889  0.3142
 1091HK4    H3091569   2.409   7.285   6.329 -0.5708 -0.1291 -0.1271
 1091HK4    C4991570   2.343   7.160   6.486 -0.5852  0.2720 -0.1209
 1091HK4    H2991571   2.331   7.070   6.424 -0.7390 -0.3875  0.8610
 1091HK4     N291572   2.387   7.527   6.449 -0.4765  0.2643 -0.1226
 1091HK4    C3091573   2.430   7.638   6.525 -0.2879  0.1187 -0.0159
 1091HK4    C2991574   2.514   7.643   6.635  0.3072  0.1080 -0.4686
 1091HK4    H1591575   2.517   7.554   6.698 -1.5833  1.3779  1.4929
 1091HK4    C2891576   2.557   7.763   6.691  0.6892 -0.1448 -0.2162
 1091HK4    C2791577   2.513   7.885   6.636 -0.0440 -0.2227  0.1881
 1091HK4    H1491578   2.574   7.974   6.656  1.0727 -0.5691 -1.5774
 1091HK4    C3291579   2.435   7.882   6.521  0.0706  0.1243  0.0982
 1091HK4    H1691580   2.370   7.967   6.500  0.8549  0.5536 -0.5997
 1091HK4    C3191581   2.392   7.763   6.463  0.0107  0.2058 -0.0240
 1091HK4    C3491582   2.330   7.726   6.337  0.0578  0.4454 -0.1191
 1091HK4    C3391583   2.343   7.581   6.327  0.3128  0.4780 -0.3189
 1091HK4    C3591584   2.320   7.528   6.201 -0.2022 -0.0191 -0.0189
 1091HK4    H1791585   2.333   7.421   6.182 -0.8576 -0.0680 -0.1828
 1091HK4    C3691586   2.286   7.599   6.087 -0.0335  0.3155  0.1382
 1091HK4    H1891587   2.250   7.546   5.997 -0.0517  1.9520 -0.8405
 1091HK4    C3791588   2.273   7.737   6.100 -0.0105  0.4086 -0.7767
 1091HK4    H1991589   2.260   7.796   6.009  0.0920  0.6263 -0.6469
 1091HK4    C3891590   2.299   7.797   6.222 -0.7635 -0.2081 -0.3070
 1091HK4    H2091591   2.261   7.898   6.238 -1.5133 -0.3551 -1.1085
 1091HK4    C1491592   2.627   7.767   6.820  0.2707 -0.1711  0.0122
 1091HK4     C991593   2.645   7.881   6.900  0.2542  0.0015 -0.2290
 1091HK4     C891594   2.765   7.906   6.969  0.0823  0.0884  0.0408
 1091HK4    C1191595   2.860   7.804   6.968 -0.0423 -0.0239 -0.0563
 1091HK4     H491596   2.946   7.811   7.036  0.1564 -0.7562 -0.2259
 1091HK4    C1291597   2.842   7.680   6.906  0.1157  0.0031 -0.1607
 1091HK4     H591598   2.921   7.604   6.897  0.1113  0.0791 -0.8665
 1091HK4    C1391599   2.720   7.663   6.842 -0.2309 -0.4983  0.6192
 1091HK4     H691600   2.695   7.563   6.804  0.3205  0.5343 -2.6189
 1091HK4     C791601   2.793   8.037   7.032 -0.4475  0.1051  0.2403
 1091HK4     O291602   2.864   8.050   7.131 -0.2115  0.0168  0.0812
 1091HK4     C491603   2.693   8.144   7.011 -0.1789  0.2934 -0.0545
 1091HK4     C391604   2.727   8.277   7.036  0.4567  0.0601  0.3428
 1091HK4     H391605   2.822   8.305   7.085  0.0339 -0.1342  1.2674
 1091HK4     C291606   2.639   8.380   7.006  0.0832 -0.4905 -0.4494
 1091HK4     H291607   2.668   8.483   7.030 -0.4843 -0.5555  0.5669
 1091HK4     C191608   2.514   8.350   6.952 -0.0339 -0.4662 -0.1889
 1091HK4     H191609   2.466   8.434   6.899  1.4093 -0.7403 -1.9679
 1091HK4     C691610   2.468   8.218   6.935  0.0266 -0.4328 -0.6262
 1091HK4     C591611   2.563   8.119   6.964  0.2287 -0.3139 -0.8784
 1091HK4    C1091612   2.535   7.979   6.921 -0.1576 -0.4833 -0.1033
 1091HK4     O191613   2.437   7.924   6.971 -0.0214 -0.3355  0.3271
 1091HK4    C1691614   2.323   8.197   6.940  0.0594 -0.4614  0.4223
 1091HK4    C1591615   2.249   8.280   7.026  0.1459  0.3300 -0.2700
 1091HK4     H791616   2.303   8.331   7.107  2.8428  0.5395 -2.1454
 1091HK4    C2091617   2.114   8.306   7.004  0.1331  0.2161 -0.3223
 1091HK4     H991618   2.056   8.360   7.079  1.2598 -1.0325  1.4972
 1091HK4    C1991619   2.053   8.252   6.891  0.3869  0.2099 -0.4584
 1091HK4    C1891620   2.123   8.157   6.806 -0.2734 -0.6088 -0.0912
 1091HK4    C1791621   2.258   8.138   6.832 -0.3164 -0.1584  0.4808
 1091HK4     H891622   2.314   8.072   6.766  0.2228 -2.0876  2.8218
 1091HK4     N191623   2.042   8.111   6.700 -0.1197  0.0122 -0.4791
 1091HK4    C2191624   1.919   8.178   6.716  0.1090  0.3261 -0.0125
 1091HK4    C2291625   1.921   8.264   6.832  0.2814  0.5123 -0.1549
 1091HK4    C2691626   1.820   8.359   6.844  0.0891  0.3282 -0.3072
 1091HK4    H1391627   1.818   8.418   6.936 -1.3953 -0.7480  0.3804
 1091HK4    C2591628   1.722   8.385   6.748  0.0598  0.0313 -0.3568
 1091HK4    H1291629   1.658   8.472   6.761 -0.2548 -0.0067 -1.6631
 1091HK4    C2491630   1.725   8.301   6.637 -0.2403 -0.2507 -0.1525
 1091HK4    H1191631   1.644   8.312   6.564 -0.4134 -3.6161 -0.5359
 1091HK4    C2391632   1.823   8.205   6.619 -0.2700 -0.3458  0.1729
 1091HK4    H1091633   1.825   8.160   6.519 -0.2422  0.4421 -0.1845
 1091HK4    C3991634   2.072   7.993   6.631  0.2791 -0.0420 -0.2176
 1091HK4    C4191635   2.025   7.988   6.498 -0.0416  0.0149 -0.1054
 1091HK4    H2191636   1.999   8.080   6.445 -1.3283 -1.5365 -2.2637
 1091HK4    C4291637   2.033   7.863   6.436 -0.4541 -0.2618  0.3880
 1091HK4    H2291638   2.000   7.861   6.332  0.8091  1.5029 -0.0657
 1091HK4    C4391639   2.070   7.749   6.506  0.3023 -0.6884 -0.7095
 1091HK4    H2391640   2.079   7.654   6.452 -0.4288 -1.0671 -0.1752
 1091HK4    C4491641   2.115   7.749   6.637 -0.4062 -0.2473 -0.4648
 1091HK4    H2491642   2.154   7.658   6.685 -2.5687 -1.7240 -1.4422
 1091HK4    C4591643   2.112   7.875   6.696 -0.3079 -0.3067 -0.3310
 1091HK4    H2591644   2.143   7.878   6.802 -0.5773 -1.3455 -0.2218
 1092HK4    H2891645   4.394   7.025   8.701 -1.8498 -0.7508  0.7676
 1092HK4    C4891646   4.420   6.919   8.705  1.0526 -0.0920  0.2883
 1092HK4    C4791647   4.431   6.856   8.828 -0.0444  0.0419  0.4561
 1092HK4    H2791648   4.478   6.922   8.903  1.8422  2.3846 -2.6440
 1092HK4    C4691649   4.440   6.719   8.846 -0.0285  0.0655  0.6329
 1092HK4    H2691650   4.451   6.676   8.946 -1.7945 -1.6893  0.1319
 1092HK4    C4091651   4.446   6.636   8.731 -0.0999 -0.2581  0.8645
 1092HK4    C5091652   4.446   6.700   8.606 -0.4992 -0.3359  0.8229
 1092HK4    H3091653   4.479   6.632   8.526  2.5241 -0.5446  2.2140
 1092HK4    C4991654   4.431   6.838   8.592 -0.3466 -0.3647  0.3387
 1092HK4    H2991655   4.461   6.887   8.499 -0.7454 -1.7578 -0.5393
 1092HK4     N291656   4.505   6.510   8.747  0.3869 -0.1904 -0.3642
 1092HK4    C3091657   4.614   6.492   8.835  0.5364 -0.2066 -0.5499
 1092HK4    C2991658   4.719   6.578   8.863  0.0131  0.2023  0.1956
 1092HK4    H1591659   4.721   6.680   8.823  0.9761  0.8445  1.8416
 1092HK4    C2891660   4.833   6.533   8.930  0.1868 -0.1156 -0.3115
 1092HK4    C2791661   4.837   6.402   8.981 -0.4089 -0.1726 -0.3991
 1092HK4    H1491662   4.924   6.369   9.040 -1.4894 -1.0527  0.7101
 1092HK4    C3291663   4.730   6.318   8.954 -0.0367 -0.7285 -0.1567
 1092HK4    H1691664   4.753   6.212   8.949 -0.2770 -0.9133  2.1029
 1092HK4    C3191665   4.614   6.357   8.888 -0.2302  0.2942  0.7665
 1092HK4    C3491666   4.500   6.289   8.830  0.5345 -0.0995 -0.3100
 1092HK4    C3391667   4.441   6.385   8.738  0.2736 -0.1449 -0.1913
 1092HK4    C3591668   4.343   6.335   8.653 -0.3538  0.2500  0.2941
 1092HK4    H1791669   4.279   6.403   8.596 -0.4976 -1.2076 -1.3193
 1092HK4    C3691670   4.315   6.199   8.651  0.3036  0.1155  0.0241
 1092HK4    H1891671   4.228   6.170   8.590 -1.3490  0.4999  2.1221
 1092HK4    C3791672   4.362   6.107   8.743 -0.1272 -0.3503 -0.2208
 1092HK4    H1991673   4.311   6.015   8.772 -1.1650  0.4725  0.6190
 1092HK4    C3891674   4.459   6.156   8.830  0.1211  0.0257 -0.7121
 1092HK4    H2091675   4.499   6.090   8.907 -1.4664 -0.9929 -0.7541
 1092HK4    C1491676   4.959   6.607   8.917  0.0156  0.3310  0.5866
 1092HK4     C991677   5.083   6.549   8.887 -0.3059  0.0169 -0.1245
 1092HK4     C891678   5.198   6.578   8.962 -0.5888 -0.6984  0.5857
 1092HK4    C1191679   5.193   6.684   9.052  0.5263  0.5323 -0.7730
 1092HK4     H491680   5.263   6.710   9.133 -2.3203  1.4331  1.4721
 1092HK4    C1291681   5.077   6.760   9.058  0.1128 -0.1795  0.3431
 1092HK4     H591682   5.072   6.842   9.131  2.3652  0.4702 -0.2025
 1092HK4    C1391683   4.958   6.725   8.995 -0.1253  0.4089  0.4635
 1092HK4     H691684   4.864   6.773   9.027  0.0944  0.7951  0.5361
 1092HK4     C791685   5.310   6.482   8.960 -0.0952 -0.1269  0.2859
 1092HK4     O291686   5.410   6.507   9.027 -0.1522  0.1432  0.2689
 1092HK4     C491687   5.303   6.363   8.873  0.5420  0.2049 -0.2197
 1092HK4     C391688   5.414   6.279   8.869  0.3632 -0.0396 -0.0534
 1092HK4     H391689   5.491   6.272   8.947  0.4808  0.4339 -0.1257
 1092HK4     C291690   5.417   6.175   8.777 -0.2041 -0.0327 -0.0829
 1092HK4     H291691   5.497   6.100   8.788  0.3333  0.2716 -1.7062
 1092HK4     C191692   5.311   6.161   8.689 -0.3048 -0.1967  0.0634
 1092HK4     H191693   5.326   6.113   8.591 -1.7923 -0.4829 -0.0381
 1092HK4     C691694   5.190   6.234   8.697 -0.2788 -0.2182  0.6643
 1092HK4     C591695   5.199   6.347   8.779  0.5193  0.3737 -0.2259
 1092HK4    C1091696   5.092   6.451   8.775  0.1577  0.0056 -0.0776
 1092HK4     O191697   5.045   6.485   8.667  0.2764 -0.4589 -0.2785
 1092HK4    C1691698   5.077   6.177   8.623  0.0644 -0.3678  0.2555
 1092HK4    C1591699   4.947   6.188   8.677 -0.2878 -0.5259 -0.5476
 1092HK4     H791700   4.934   6.219   8.782 -0.6205  0.0423 -0.7516
 1092HK4    C2091701   4.833   6.138   8.615 -0.9458 -0.0618  0.2811
 1092HK4     H991702   4.733   6.154   8.656 -0.1940  1.2413  1.6584
 1092HK4    C1991703   4.851   6.064   8.499 -0.1887  0.2642  0.1859
 1092HK4    C1891704   4.982   6.056   8.437 -0.4241  0.4748 -0.3380
 1092HK4    C1791705   5.091   6.116   8.498 -0.4664  0.3900 -0.1788
 1092HK4     H891706   5.190   6.117   8.453 -0.4410 -0.8877 -0.1641
 1092HK4     N191707   4.980   5.997   8.309 -0.1010  0.5838 -0.3972
 1092HK4    C2191708   4.844   5.967   8.285  0.1161 -0.6432 -0.1407
 1092HK4    C2291709   4.766   5.994   8.405  0.3687 -0.0054 -0.1189
 1092HK4    C2691710   4.635   5.947   8.412  0.0533  0.8405 -0.2341
 1092HK4    H1391711   4.578   5.957   8.504 -1.5091 -1.7996 -0.8629
 1092HK4    C2591712   4.573   5.882   8.305 -0.1779  0.8092 -0.0820
 1092HK4    H1291713   4.465   5.872   8.302  0.0335 -1.8817  0.2939
 1092HK4    C2491714   4.647   5.863   8.189 -0.2926 -0.4042  0.0460
 1092HK4    H1191715   4.590   5.846   8.097  2.6716 -1.2124 -1.7258
 1092HK4    C2391716   4.781   5.901   8.181 -0.4131 -0.0387 -0.2049
 1092HK4    H1091717   4.838   5.880   8.091 -1.7814  0.0005 -1.1045
 1092HK4    C3991718   5.090   5.929   8.256 -0.1191  0.0392  0.2520
 1092HK4    C4191719   5.098   5.891   8.121  0.1716  0.4177  0.1657
 1092HK4    H2191720   5.028   5.938   8.051  0.1454 -0.7239 -0.5930
 1092HK4    C4291721   5.196   5.806   8.071 -0.2057 -0.2635  0.5822
 1092HK4    H2291722   5.214   5.793   7.963  1.2980  0.9798  0.6823
 1092HK4    C4391723   5.300   5.759   8.150  0.4685 -0.4186 -0.3804
 1092HK4    H2391724   5.352   5.668   8.120 -0.9576 -0.7626 -1.8806
 1092HK4    C4491725   5.299   5.795   8.284 -0.1148 -0.1653 -0.4530
 1092HK4    H2491726   5.386   5.778   8.349 -0.8097  0.0318  0.5503
 1092HK4    C4591727   5.192   5.871   8.333  0.4361  0.4397 -0.1830
 1092HK4    H2591728   5.197   5.901   8.439  0.2004 -1.5906  0.4301
 1093HK4    H2891729   1.587   7.012   8.413  0.2716  2.4183  1.1006
 1093HK4    C4891730   1.646   6.980   8.498 -0.0814  0.1135  0.4935
 1093HK4    C4791731   1.590   6.880   8.578 -0.1918 -0.0073  0.2628
 1093HK4    H2791732   1.492   6.837   8.552 -2.4300  2.1701  4.5718
 1093HK4    C4691733   1.650   6.837   8.695  0.1597  0.5089  0.2786
 1093HK4    H2691734   1.591   6.769   8.759  1.1928 -0.6394  0.0191
 1093HK4    C4091735   1.775   6.891   8.731  0.0852  0.4551  0.6227
 1093HK4    C5091736   1.832   6.995   8.655 -0.3827 -0.0985 -0.5028
 1093HK4    H3091737   1.938   7.023   8.668 -0.4470  0.2326 -0.6994
 1093HK4    C4991738   1.767   7.036   8.540  0.2459  0.3139 -0.7132
 1093HK4    H2991739   1.812   7.114   8.477 -2.5678  0.0716 -3.1718
 1093HK4     N291740   1.830   6.844   8.851  0.8281 -0.1607  0.0388
 1093HK4    C3091741   1.888   6.924   8.951 -0.6880  0.6036  0.3190
 1093HK4    C2991742   1.889   7.063   8.959  0.6140  0.6499 -0.4079
 1093HK4    H1591743   1.848   7.129   8.883  0.4610  1.0477  0.0190
 1093HK4    C2891744   1.949   7.119   9.071 -0.1496 -0.0998  0.3899
 1093HK4    C2791745   2.007   7.036   9.169  0.5249  0.1139  0.1739
 1093HK4    H1491746   2.026   7.087   9.265  0.4564  0.5865 -0.0618
 1093HK4    C3291747   2.011   6.898   9.164  0.0151  0.1096 -0.0843
 1093HK4    H1691748   2.054   6.828   9.236 -0.7566 -0.3625 -0.0754
 1093HK4    C3191749   1.948   6.840   9.053  0.1772  0.4150 -0.3375
 1093HK4    C3491750   1.927   6.703   9.012  0.8254  0.1051  0.3544
 1093HK4    C3391751   1.859   6.710   8.885 -0.0649 -0.1638  0.8098
 1093HK4    C3591752   1.801   6.592   8.839  0.2021  0.1450 -0.3466
 1093HK4    H1791753   1.771   6.584   8.735 -0.1457  1.0236 -0.3133
 1093HK4    C3691754   1.805   6.472   8.910  0.0379  0.3128 -0.0563
 1093HK4    H1891755   1.749   6.384   8.876 -0.0997  0.7841 -1.0849
 1093HK4    C3791756   1.882   6.464   9.025 -0.5863 -0.3975  0.3195
 1093HK4    H1991757   1.905   6.370   9.074 -1.1538 -1.8753 -2.1805
 1093HK4    C3891758   1.941   6.580   9.075 -0.4705 -0.2764 -0.0882
 1093HK4    H2091759   1.994   6.577   9.170  1.2210  0.7409 -0.9756
 1093HK4    C1491760   1.992   7.260   9.080 -0.0714 -0.0968 -0.0361
 1093HK4     C991761   2.102   7.301   9.157  0.0966 -0.0888 -0.2785
 1093HK4     C891762   2.096   7.418   9.235  0.1613  0.5128 -1.1705
 1093HK4    C1191763   1.983   7.498   9.224  0.2011  0.6625 -0.5237
 1093HK4     H491764   1.973   7.589   9.284 -0.5507 -0.2546  0.7685
 1093HK4    C1291765   1.875   7.466   9.142 -0.0412 -0.1050  0.0894
 1093HK4     H591766   1.784   7.526   9.154 -0.0173 -0.1330  0.4102
 1093HK4    C1391767   1.885   7.350   9.065  0.0202  0.0067 -0.0734
 1093HK4     H691768   1.805   7.330   8.993  0.2727  4.0964 -1.6578
 1093HK4     C791769   2.200   7.446   9.337 -0.5677 -0.7702 -0.0475
 1093HK4     O291770   2.194   7.548   9.406  0.1993 -0.3148 -0.6436
 1093HK4     C491771   2.304   7.343   9.355 -0.1385 -0.2818  0.2735
 1093HK4     C391772   2.382   7.353   9.469  0.3772  0.0235 -0.1005
 1093HK4     H391773   2.374   7.431   9.547  2.3833  0.8607 -0.6843
 1093HK4     C291774   2.463   7.245   9.502  0.3738  0.0792  0.0955
 1093HK4     H291775   2.529   7.250   9.590  0.3970  0.9180  0.0265
 1093HK4     C191776   2.475   7.131   9.423 -0.5846 -0.2468  0.4121
 1093HK4     H191777   2.560   7.068   9.450 -0.5016  1.3147  4.1876
 1093HK4     C691778   2.404   7.119   9.301  0.3838  0.3229 -0.2063
 1093HK4     C591779   2.321   7.228   9.274 -0.1617 -0.0557 -0.0535
 1093HK4    C1091780   2.227   7.220   9.159  0.1571  0.0029 -0.3201
 1093HK4     O191781   2.271   7.194   9.047  0.9015  0.3499 -0.1124
 1093HK4    C1691782   2.356   6.983   9.275 -0.2867  0.4862  0.1665
 1093HK4    C1591783   2.313   6.896   9.377 -0.1408 -0.0733 -0.2495
 1093HK4     H791784   2.285   6.934   9.476  2.0538  0.0558  0.3442
 1093HK4    C2091785   2.289   6.761   9.354  0.2235 -0.2189  0.2118
 1093HK4     H991786   2.262   6.705   9.444 -0.5906  1.0531  0.7618
 1093HK4    C1991787   2.305   6.697   9.231 -0.6238  0.4465 -0.2454
 1093HK4    C1891788   2.344   6.788   9.125  0.0730  0.4811  0.0402
 1093HK4    C1791789   2.375   6.921   9.153  1.1073  0.1367  0.5556
 1093HK4     H891790   2.426   6.984   9.079 -1.5032  1.9174  0.2264
 1093HK4     N191791   2.346   6.725   8.999 -0.0573  0.0975  0.2285
 1093HK4    C2191792   2.317   6.590   9.030  0.5445 -0.0287  0.2419
 1093HK4    C2291793   2.290   6.567   9.170  0.5961  0.0574  0.2658
 1093HK4    C2691794   2.255   6.439   9.210 -0.3576  0.1772 -0.1600
 1093HK4    H1391795   2.233   6.420   9.315 -2.7364  2.7784 -0.1378
 1093HK4    C2591796   2.250   6.332   9.121 -0.4783 -0.1639  0.2550
 1093HK4    H1291797   2.229   6.230   9.154 -0.3167 -0.1028  0.5430
 1093HK4    C2491798   2.278   6.351   8.986 -0.1882  0.3097  0.3783
 1093HK4    H1191799   2.268   6.273   8.909  0.7225  0.2637  0.2985
 1093HK4    C2391800   2.311   6.480   8.946  1.1294 -0.0673  0.2475
 1093HK4    H1091801   2.314   6.498   8.839 -1.7364  0.4234  0.2329
 1093HK4    C3991802   2.330   6.795   8.878  0.1739  0.3589  0.3483
 1093HK4    C4191803   2.387   6.741   8.761 -0.3035  0.3114  0.1421
 1093HK4    H2191804   2.470   6.669   8.766 -2.8946 -2.8222 -0.1737
 1093HK4    C4291805   2.357   6.793   8.636  0.3199  0.1919 -0.0561
 1093HK4    H2291806   2.397   6.741   8.547 -0.4866 -0.9027  0.2151
 1093HK4    C4391807   2.280   6.909   8.630  0.1014  0.0261 -0.4973
 1093HK4    H2391808   2.262   6.957   8.534  0.3205 -1.6107 -1.3848
 1093HK4    C4491809   2.225   6.963   8.745  0.3294 -0.5851 -0.0908
 1093HK4    H2491810   2.166   7.056   8.745 -0.9797 -1.3724  1.9026
 1093HK4    C4591811   2.248   6.909   8.871  0.1988  0.3774  0.3544
 1093HK4    H2591812   2.191   6.941   8.960  0.0674  1.5186 -0.1282
 1094HK4    H2891813   9.694   6.333   7.107 -2.6863  0.7598  0.7480
 1094HK4    C4891814   9.727   6.405   7.181  0.0769  0.0827  0.1979
 1094HK4    C4791815   9.829   6.491   7.142 -0.1910  0.4152  0.2279
 1094HK4    H2791816   9.845   6.514   7.036  0.2623 -0.1406  0.1765
 1094HK4    C4691817   9.873   6.591   7.229  0.6391 -0.1476  0.4615
 1094HK4    H2691818   9.962   6.652   7.208 -0.8457  2.0662  0.4422
 1094HK4    C4091819   9.815   6.608   7.356 -0.1988  0.5010 -0.0079
 1094HK4    C5091820   9.716   6.515   7.395 -0.3269  0.4089 -0.5388
 1094HK4    H3091821   9.678   6.497   7.497 -0.0944  0.0128 -0.5238
 1094HK4    C4991822   9.672   6.416   7.308 -0.2593 -0.1558  0.0705
 1094HK4    H2991823   9.594   6.344   7.339  0.6540 -1.1701  0.0438
 1094HK4     N291824   9.875   6.678   7.461  0.1323 -0.7066  0.6221
 1094HK4    C3091825  10.015   6.691   7.478  0.1414  1.0331 -0.6140
 1094HK4    C2991826  10.117   6.606   7.436  0.2140  0.8456 -0.0463
 1094HK4    H1591827  10.094   6.523   7.369 -2.2334  1.2417  0.2236
 1094HK4    C2891828  10.250   6.627   7.467  0.2722  0.2323  0.1394
 1094HK4    C2791829  10.290   6.747   7.530  0.2924  0.3411 -0.0836
 1094HK4    H1491830  10.395   6.777   7.543 -0.1756  1.4508  1.3273
 1094HK4    C3291831  10.187   6.831   7.572  0.0423  0.0584 -0.1359
 1094HK4    H1691832  10.212   6.910   7.643  1.4696 -0.3864 -0.1244
 1094HK4    C3191833  10.051   6.804   7.561 -0.0386  0.0379  0.8390
 1094HK4    C3491834   9.926   6.874   7.586 -0.3083 -0.0986 -0.1231
 1094HK4    C3391835   9.823   6.792   7.526 -0.0695 -0.2198 -0.3784
 1094HK4    C3591836   9.688   6.825   7.536  0.0218  0.1703 -0.4581
 1094HK4    H1791837   9.609   6.751   7.526 -0.9036  1.1666 -0.5606
 1094HK4    C3691838   9.660   6.941   7.608  0.1865  0.1500 -0.3580
 1094HK4    H1891839   9.558   6.982   7.596 -0.3561 -1.0747 -0.0540
 1094HK4    C3791840   9.758   7.021   7.665 -0.0676 -0.1404  0.4954
 1094HK4    H1991841   9.729   7.109   7.722 -1.8975 -1.6978  2.0575
 1094HK4    C3891842   9.893   6.990   7.655 -0.0482  0.2606 -0.5969
 1094HK4    H2091843   9.970   7.045   7.708  1.3088 -0.4998 -1.7194
 1094HK4    C1491844  10.329   6.504   7.476 -0.3841 -0.1946  0.0251
 1094HK4     C991845  10.419   6.486   7.582  0.0824  0.2273 -0.3007
 1094HK4     C891846  10.552   6.446   7.558 -0.2207 -0.7607 -0.3250
 1094HK4    C1191847  10.579   6.393   7.433  0.2738 -0.5649 -0.3070
 1094HK4     H491848  10.682   6.373   7.400  0.8338  1.6717  0.0057
 1094HK4    C1291849  10.483   6.382   7.333  0.0075 -0.0923 -0.0988
 1094HK4     H591850  10.510   6.337   7.236 -0.6105 -1.5760  0.4106
 1094HK4    C1391851  10.359   6.443   7.352  0.3578  0.6798 -0.2324
 1094HK4     H691852  10.278   6.420   7.281  1.1978 -2.8379 -0.1656
 1094HK4     C791853  10.655   6.452   7.665 -0.4229 -0.2323 -0.1533
 1094HK4     O291854  10.774   6.436   7.639 -0.1981  0.5095  0.4201
 1094HK4     C491855  10.610   6.484   7.802 -0.2174  0.0429 -0.1516
 1094HK4     C391856  10.698   6.464   7.909 -0.6438  0.0204  0.1932
 1094HK4     H391857  10.805   6.450   7.888 -0.6185  2.8589 -1.9679
 1094HK4     C291858  10.661   6.489   8.041  0.3795  0.1857  0.4521
 1094HK4     H291859  10.729   6.476   8.127  0.6113  3.7859  0.8714
 1094HK4     C191860  10.539   6.551   8.063  0.1441  0.0126 -0.3297
 1094HK4     H191861  10.497   6.535   8.163  0.9336 -0.5877 -0.0879
 1094HK4     C691862  10.453   6.587   7.957 -0.2826 -0.0683 -0.0096
 1094HK4     C591863  10.484   6.540   7.829 -0.0280  0.4772 -0.1501
 1094HK4    C1091864  10.383   6.528   7.720  0.1862  0.4605 -0.3466
 1094HK4     O191865  10.269   6.502   7.760  0.3091  0.0990 -0.2263
 1094HK4    C1691866  10.349   6.687   7.984  0.2513  0.4387  0.1967
 1094HK4    C1591867  10.326   6.796   7.897  0.1647 -0.1614 -0.5351
 1094HK4     H791868  10.389   6.794   7.807 -0.4449 -1.9086 -0.9453
 1094HK4    C2091869  10.218   6.881   7.914  0.2576 -0.1037 -0.2227
 1094HK4     H991870  10.207   6.968   7.850  0.1827  0.1924  0.1912
 1094HK4    C1991871  10.124   6.852   8.013  0.4357  0.0148 -0.0167
 1094HK4    C1891872  10.139   6.738   8.102 -0.3786 -0.5045 -0.5351
 1094HK4    C1791873  10.248   6.656   8.075  0.1330  0.0221 -0.0785
 1094HK4     H891874  10.255   6.564   8.133  1.2325  0.0079 -0.2122
 1094HK4     N191875  10.042   6.743   8.204  0.0890  0.0569 -0.1168
 1094HK4    C2191876   9.969   6.863   8.187  0.2494  0.2012  0.2252
 1094HK4    C2291877  10.017   6.931   8.069 -0.1099 -0.5043 -0.3269
 1094HK4    C2691878   9.963   7.056   8.036 -0.2253 -0.5797 -0.4327
 1094HK4    H1391879  10.015   7.123   7.968  1.8901 -2.7058 -0.9976
 1094HK4    C2591880   9.865   7.111   8.118  0.4189  0.0116 -0.0479
 1094HK4    H1291881   9.805   7.194   8.081  0.4808  0.8789  1.7607
 1094HK4    C2491882   9.822   7.052   8.236 -0.5177  0.2664 -0.2540
 1094HK4    H1191883   9.752   7.082   8.315  0.4564 -1.0393  1.1381
 1094HK4    C2391884   9.883   6.932   8.271 -0.3754  0.2729 -0.4718
 1094HK4    H1091885   9.876   6.896   8.374  1.3064  3.9160  0.9604
 1094HK4    C3991886  10.023   6.646   8.303 -0.0843  0.1716 -0.0354
 1094HK4    C4191887  10.126   6.562   8.350  0.2209  0.4074 -0.2790
 1094HK4    H2191888  10.229   6.597   8.333  0.3851 -1.0134 -2.3495
 1094HK4    C4291889  10.100   6.452   8.431 -0.0557 -0.4104 -1.4619
 1094HK4    H2291890  10.184   6.382   8.437 -0.3053 -0.6844 -1.1493
 1094HK4    C4391891   9.971   6.414   8.467  0.1279  0.3758  0.0830
 1094HK4    H2391892   9.951   6.332   8.537 -0.7066  1.3926  1.0474
 1094HK4    C4491893   9.872   6.496   8.414 -0.2838 -0.0478  0.1976
 1094HK4    H2491894   9.766   6.466   8.424  0.1751 -2.0193 -0.5208
 1094HK4    C4591895   9.891   6.608   8.334  0.0570 -0.0270  0.3080
 1094HK4    H2591896   9.815   6.656   8.271  2.9319  1.4977 -2.0941
 1095HK4    H2891897   1.412  10.260   4.494  1.1323  2.6960 -0.3042
 1095HK4    C4891898   1.461  10.227   4.402 -0.1174 -0.0127 -0.0414
 1095HK4    C4791899   1.587  10.275   4.367  0.1935 -0.6024  0.2488
 1095HK4    H2791900   1.635  10.352   4.428  2.3468 -1.4723 -0.3086
 1095HK4    C4691901   1.652  10.223   4.256  0.3400  0.1763 -0.0340
 1095HK4    H2691902   1.747  10.270   4.226  0.4578 -0.5588 -0.8428
 1095HK4    C4091903   1.588  10.126   4.175  0.1657  0.0756  0.2221
 1095HK4    C5091904   1.463  10.076   4.216  0.4065 -0.5719  0.1659
 1095HK4    H3091905   1.418   9.987   4.169 -1.0820  1.5740 -2.5787
 1095HK4    C4991906   1.402  10.123   4.332  0.3257 -0.3063  0.0162
 1095HK4    H2991907   1.309  10.076   4.370  0.4701 -0.3798  0.2763
 1095HK4     N291908   1.633  10.105   4.044 -0.3766 -0.1211  0.0668
 1095HK4    C3091909   1.706  10.201   3.971 -0.4279 -0.1347 -0.0024
 1095HK4    C2991910   1.694  10.339   3.966 -0.3741 -0.1279  0.0742
 1095HK4    H1591911   1.616  10.376   4.033  0.5825  3.2153 -0.5715
 1095HK4    C2891912   1.744  10.423   3.867 -0.4290 -0.3456 -0.1374
 1095HK4    C2791913   1.832  10.361   3.775 -0.3190  0.1848 -0.3875
 1095HK4    H1491914   1.866  10.418   3.687 -1.8192  0.8917 -0.5263
 1095HK4    C3291915   1.848  10.223   3.778 -0.2204  0.2134  0.8760
 1095HK4    H1691916   1.895  10.180   3.689  1.2841 -0.0336  1.7739
 1095HK4    C3191917   1.791  10.138   3.871 -0.0923 -0.3672  0.4280
 1095HK4    C3491918   1.762   9.997   3.885  0.3149 -0.4649  0.3136
 1095HK4    C3391919   1.664   9.978   3.991 -0.1166 -0.0286 -0.0068
 1095HK4    C3591920   1.605   9.854   4.011  0.3878 -0.2576  0.0614
 1095HK4    H1791921   1.535   9.831   4.092 -0.5731  1.2085 -0.3322
 1095HK4    C3691922   1.638   9.747   3.929 -1.0339 -0.3545 -0.3919
 1095HK4    H1891923   1.634   9.646   3.974  0.8957  0.9067  2.7771
 1095HK4    C3791924   1.726   9.765   3.823 -0.0750 -0.0661  0.4454
 1095HK4    H1991925   1.738   9.690   3.745  2.0307 -1.6400  2.2309
 1095HK4    C3891926   1.789   9.888   3.803  0.1777 -0.2642 -0.0011
 1095HK4    H2091927   1.865   9.892   3.725  0.3292 -0.5786  0.1280
 1095HK4    C1491928   1.683  10.554   3.843  0.3011  0.0261  0.0405
 1095HK4     C991929   1.652  10.607   3.717 -0.1773  0.2567  0.2543
 1095HK4     C891930   1.643  10.746   3.693  0.7625  0.3101  0.1748
 1095HK4    C1191931   1.667  10.832   3.799  0.4127  0.0886  0.4325
 1095HK4     H491932   1.648  10.937   3.773  0.5094  0.1197  0.4795
 1095HK4    C1291933   1.703  10.783   3.925  0.2862 -0.3825  0.2840
 1095HK4     H591934   1.722  10.848   4.011 -1.3701  2.4530 -1.3861
 1095HK4    C1391935   1.697  10.646   3.949 -0.1846 -0.3387  0.4180
 1095HK4     H691936   1.684  10.616   4.054  1.5919 -1.8007  0.2401
 1095HK4     C791937   1.633  10.797   3.555  0.5619 -0.3727 -0.0654
 1095HK4     O291938   1.587  10.909   3.532 -0.1371 -0.6425  0.0173
 1095HK4     C491939   1.648  10.701   3.443 -0.6322 -0.4181 -0.1866
 1095HK4     C391940   1.679  10.764   3.323 -0.1762 -0.0236  0.1392
 1095HK4     H391941   1.683  10.873   3.307  1.5944  0.0147  0.6602
 1095HK4     C291942   1.725  10.681   3.222  0.4472  0.2173  0.2238
 1095HK4     H291943   1.735  10.727   3.122  2.1692  0.9822  0.7295
 1095HK4     C191944   1.738  10.544   3.240  0.4022  0.2307  0.3459
 1095HK4     H191945   1.745  10.489   3.145  0.6595  1.2454 -0.2357
 1095HK4     C691946   1.697  10.477   3.356  0.2725 -0.0484  0.1398
 1095HK4     C591947   1.649  10.561   3.458  0.1410 -0.3566  0.3355
 1095HK4    C1091948   1.626  10.520   3.599 -0.2183  0.0736  0.4001
 1095HK4     O191949   1.566  10.414   3.614 -0.2699  0.0718  0.1783
 1095HK4    C1691950   1.759  10.345   3.376  0.0502 -0.1564  0.1194
 1095HK4    C1591951   1.891  10.312   3.338 -0.2481 -0.7142 -0.4492
 1095HK4     H791952   1.948  10.396   3.296 -0.1546 -0.5733 -0.0400
 1095HK4    C2091953   1.956  10.190   3.345  0.2200 -0.4308  0.2897
 1095HK4     H991954   2.063  10.186   3.322  0.4508  0.3031  1.2139
 1095HK4    C1991955   1.879  10.084   3.391 -0.2308 -0.2431 -0.0345
 1095HK4    C1891956   1.739  10.106   3.421 -0.1544 -0.2755  0.3428
 1095HK4    C1791957   1.684  10.233   3.412  0.3484  0.0083  1.2530
 1095HK4     H891958   1.576  10.242   3.411  0.3690  0.5250 -1.9417
 1095HK4     N191959   1.672   9.985   3.451 -0.3121 -0.3238 -0.1998
 1095HK4    C2191960   1.768   9.884   3.429 -0.4759 -0.4342 -0.3959
 1095HK4    C2291961   1.898   9.940   3.399 -0.4549 -0.2726 -0.0114
 1095HK4    C2691962   2.005   9.853   3.385 -0.3362 -0.1590  0.1892
 1095HK4    H1391963   2.102   9.896   3.360 -0.7012 -0.2670 -1.4781
 1095HK4    C2591964   1.992   9.714   3.389 -0.1217 -0.1997 -0.4795
 1095HK4    H1291965   2.076   9.647   3.402 -0.7232 -1.3076 -2.1573
 1095HK4    C2491966   1.862   9.667   3.404 -0.0444 -0.4193 -0.5008
 1095HK4    H1191967   1.836   9.561   3.414 -0.6223 -0.1830  0.5486
 1095HK4    C2391968   1.750   9.746   3.430 -0.0058 -0.4949 -0.1168
 1095HK4    H1091969   1.655   9.708   3.466  0.0711 -1.0157 -0.4651
 1095HK4    C3991970   1.555   9.987   3.527 -0.1917  0.4416 -0.0296
 1095HK4    C4191971   1.460   9.885   3.509  0.1875 -0.0386  0.6598
 1095HK4    H2191972   1.455   9.832   3.413  0.0883  1.9831 -0.4692
 1095HK4    C4291973   1.347   9.870   3.589 -0.0808 -0.8482  0.1340
 1095HK4    H2291974   1.274   9.791   3.563  0.0348 -0.4511 -1.4581
 1095HK4    C4391975   1.322   9.960   3.691  0.1975 -0.4523 -0.1465
 1095HK4    H2391976   1.237   9.934   3.754  1.5211 -1.5891  1.1753
 1095HK4    C4491977   1.412  10.063   3.715 -0.1616 -0.0895 -0.3379
 1095HK4    H2491978   1.392  10.149   3.780  0.2272  1.0347 -1.6704
 1095HK4    C4591979   1.526  10.073   3.635  0.0813  0.4103  0.0680
 1095HK4    H2591980   1.603  10.149   3.656  1.0649 -0.5018 -0.2342
 1096HK4    H2891981   0.965   9.743   3.629 -0.1894  0.1380  2.9812
 1096HK4    C4891982   0.897   9.658   3.632 -0.6374  0.3048 -0.4485
 1096HK4    C4791983   0.768   9.677   3.679 -0.2894  0.2962  0.5244
 1096HK4    H2791984   0.745   9.765   3.741  1.5847  0.0329  1.6366
 1096HK4    C4691985   0.689   9.562   3.677  0.0480  0.0700 -0.1233
 1096HK4    H2691986   0.588   9.569   3.721 -0.8574  0.4894 -2.2099
 1096HK4    C4091987   0.723   9.434   3.630  0.1308 -0.1381  0.5000
 1096HK4    C5091988   0.858   9.419   3.591  0.0741  0.5077  0.0448
 1096HK4    H3091989   0.910   9.325   3.572 -1.8250 -1.0463  2.1450
 1096HK4    C4991990   0.940   9.531   3.595  0.1558  0.4466 -0.0263
 1096HK4    H2991991   1.047   9.514   3.579  0.2254 -0.0293  0.9119
 1096HK4     N291992   0.632   9.355   3.559 -0.1833  0.2609  0.4552
 1096HK4    C3091993   0.512   9.402   3.504 -0.1641  0.0039  0.1909
 1096HK4    C2991994   0.488   9.522   3.437 -0.3185 -0.1356 -0.0101
 1096HK4    H1591995   0.569   9.594   3.424 -0.9686  0.7260  0.5835
 1096HK4    C2891996   0.359   9.556   3.397 -0.2261 -0.2359 -0.3930
 1096HK4    C2791997   0.252   9.468   3.422 -0.8318  0.6358  0.1149
 1096HK4    H1491998   0.146   9.496   3.409 -1.6094 -1.0197  2.4969
 1096HK4    C3291999   0.277   9.342   3.475 -0.0716  0.5240 -0.5088
 1096HK4    H1692000   0.197   9.280   3.515 -0.1278  0.7064 -0.3423
 1096HK4    C3192001   0.407   9.302   3.505 -0.2714  0.1151 -0.1805
 1096HK4    C3492002   0.475   9.185   3.556 -0.0232 -0.0681 -0.9123
 1096HK4    C3392003   0.611   9.220   3.594 -0.0588 -0.0860 -0.7668
 1096HK4    C3592004   0.680   9.132   3.677 -0.3364 -0.1073 -0.5612
 1096HK4    H1792005   0.768   9.172   3.728  0.2294 -1.0192 -0.8036
 1096HK4    C3692006   0.621   9.010   3.710  0.4466 -0.1881  0.5506
 1096HK4    H1892007   0.674   8.942   3.779  1.7759 -0.3683 -0.6304
 1096HK4    C3792008   0.493   8.972   3.672  0.5519  0.0960 -0.0896
 1096HK4    H1992009   0.449   8.881   3.711  2.7063 -0.9383 -0.0044
 1096HK4    C3892010   0.421   9.064   3.596  0.3141  0.1345  0.1834
 1096HK4    H2092011   0.314   9.044   3.586  0.1731  0.8404  0.2797
 1096HK4    C1492012   0.334   9.700   3.380  0.0710 -0.0951  0.3560
 1096HK4     C992013   0.221   9.762   3.434 -0.1543 -0.3612  0.1842
 1096HK4     C892014   0.161   9.873   3.369  0.1011 -0.6466 -0.5507
 1096HK4    C1192015   0.222   9.930   3.258 -0.4967 -0.1402 -0.6205
 1096HK4     H492016   0.183  10.026   3.223 -2.2008 -0.8872 -0.8182
 1096HK4    C1292017   0.324   9.861   3.192  0.5618  0.3185  0.5180
 1096HK4     H592018   0.372   9.911   3.108  0.0206 -0.9593 -0.5707
 1096HK4    C1392019   0.373   9.746   3.253 -0.0677 -0.0525  0.3293
 1096HK4     H692020   0.450   9.688   3.200 -0.2669 -0.6410  0.6815
 1096HK4     C792021   0.032   9.926   3.418  0.2179 -0.4028 -0.5065
 1096HK4     O292022   0.015  10.048   3.418  0.5793 -0.3484  0.1352
 1096HK4     C492023  11.199   9.837   3.503  0.2174  0.0924  0.0102
 1096HK4     C392024  11.065   9.876   3.509  0.3254  0.5289 -0.3230
 1096HK4     H392025  11.029   9.968   3.463 -0.9399  0.9388  1.4343
 1096HK4     C292026  10.981   9.786   3.574  0.3365  0.4242 -0.4534
 1096HK4     H292027  10.873   9.809   3.574  0.2400 -0.0173  0.0843
 1096HK4     C192028  11.038   9.674   3.633 -0.3245 -0.1201 -0.8374
 1096HK4     H192029  10.977   9.616   3.704 -1.0708  0.5380 -0.9406
 1096HK4     C692030  11.174   9.636   3.632 -0.2756 -0.0082  0.0564
 1096HK4     C592031   0.011   9.726   3.566 -0.2052 -0.2262 -0.1467
 1096HK4    C1092032   0.158   9.708   3.557 -0.1055  0.2515  0.4816
 1096HK4     O192033   0.222   9.700   3.662 -0.0654 -0.2260  0.4248
 1096HK4    C1692034  11.194   9.491   3.632 -0.0305  0.0244  0.1377
 1096HK4    C1592035  11.103   9.396   3.579  0.3512 -0.3404  0.1393
 1096HK4     H792036  11.046   9.422   3.490  0.3486 -1.9525 -0.3379
 1096HK4    C2092037  11.104   9.267   3.630 -0.2637 -0.3568  0.1154
 1096HK4     H992038  11.027   9.198   3.594 -1.5072  2.0833 -1.9945
 1096HK4    C1992039  11.198   9.222   3.723 -0.2997 -0.1287  0.2638
 1096HK4    C1892040   0.056   9.313   3.761 -0.3221 -0.1607  0.3931
 1096HK4    C1792041   0.040   9.447   3.725 -0.0228 -0.2235  0.0115
 1096HK4     H892042   0.097   9.515   3.788  1.7485 -2.4912  0.9274
 1096HK4     N192043   0.158   9.249   3.834  0.3080 -0.1080 -0.4374
 1096HK4    C2192044   0.111   9.117   3.844  0.3988 -0.0788  0.3791
 1096HK4    C2292045  11.237   9.091   3.771  0.6591  0.0187 -0.0958
 1096HK4    C2692046  11.207   8.962   3.729  0.0871 -0.0167  0.4241
 1096HK4    H1392047  11.111   8.927   3.690  0.3474  1.5011 -1.6561
 1096HK4    C2592048   0.047   8.858   3.758 -0.4031 -0.5681 -0.0476
 1096HK4    H1292049   0.022   8.757   3.726  0.5435 -0.6283 -0.5972
 1096HK4    C2492050   0.161   8.878   3.836 -0.4561 -0.5498  0.0251
 1096HK4    H1192051   0.215   8.794   3.881  0.5064  1.7130  3.2558
 1096HK4    C2392052   0.191   9.008   3.876  0.1776 -0.5197 -0.5384
 1096HK4    H1092053   0.265   9.031   3.953 -0.6805 -0.7675  0.3756
 1096HK4    C3992054   0.249   9.305   3.924 -0.2289 -0.0291  0.0582
 1096HK4    C4192055   0.210   9.419   3.997  0.8918  0.3071  0.1458
 1096HK4    H2192056   0.104   9.439   4.016  1.4000  3.6770 -0.2699
 1096HK4    C4292057   0.305   9.499   4.059  0.5021  0.2719  0.8001
 1096HK4    H2292058   0.269   9.576   4.128  1.0742  0.7009  0.6276
 1096HK4    C4392059   0.439   9.463   4.046  0.2242 -0.5789  0.2570
 1096HK4    H2392060   0.515   9.537   4.070 -0.3642  0.3617 -0.7437
 1096HK4    C4492061   0.485   9.357   3.969  0.5144 -0.5266  0.3581
 1096HK4    H2492062   0.591   9.329   3.963  0.9144  0.6808  1.4778
 1096HK4    C4592063   0.387   9.277   3.911 -0.1281  0.4618  0.0655
 1096HK4    H2592064   0.411   9.179   3.868  0.6162 -0.0819  1.6585
 1097HK4    H2892065   5.529   1.284   6.274 -0.2063  1.4577  2.6810
 1097HK4    C4892066   5.433   1.245   6.308 -0.6847  0.6495  0.4882
 1097HK4    C4792067   5.351   1.162   6.233  0.1106 -0.3556  0.7136
 1097HK4    H2792068   5.376   1.150   6.126  2.2983 -0.7053  1.2480
 1097HK4    C4692069   5.237   1.105   6.288 -0.6569  0.4115 -0.0805
 1097HK4    H2692070   5.190   1.029   6.224 -0.4966  0.4588 -0.2545
 1097HK4    C4092071   5.194   1.135   6.419 -0.3062 -0.3554  0.2048
 1097HK4    C5092072   5.279   1.221   6.491  0.5469 -0.7094 -0.3638
 1097HK4    H3092073   5.249   1.257   6.591 -1.5426  1.4168 -1.7295
 1097HK4    C4992074   5.400   1.269   6.441  0.7231  0.2198  0.9260
 1097HK4    H2992075   5.452   1.354   6.487  1.1986  0.4040  0.0501
 1097HK4     N292076   5.083   1.065   6.468 -0.4735  0.1157  0.5002
 1097HK4    C3092077   5.046   0.932   6.438  0.2486 -0.0335  0.2585
 1097HK4    C2992078   5.128   0.821   6.422 -0.2762 -0.3388 -0.2917
 1097HK4    H1592079   5.234   0.830   6.399 -0.1647 -0.1195  0.3155
 1097HK4    C2892080   5.076   0.695   6.392 -0.2013 -0.2610 -0.7601
 1097HK4    C2792081   4.936   0.682   6.380 -0.2447 -0.0983 -0.4561
 1097HK4    H1492082   4.893   0.581   6.391  2.0640 -1.0632 -0.0417
 1097HK4    C3292083   4.848   0.788   6.398  0.0056  0.0408 -0.0531
 1097HK4    H1692084   4.746   0.769   6.365 -0.0437 -1.2541  0.8128
 1097HK4    C3192085   4.903   0.909   6.440  0.2135  0.1064 -0.5111
 1097HK4    C3492086   4.848   1.039   6.475 -0.2868 -0.3346  0.3525
 1097HK4    C3392087   4.960   1.131   6.486 -0.5974  0.1308 -0.3891
 1097HK4    C3592088   4.940   1.254   6.548 -0.3951 -0.0656  0.0671
 1097HK4    H1792089   5.028   1.314   6.567  0.0167 -1.6933  3.9033
 1097HK4    C3692090   4.816   1.283   6.605 -0.5005  0.4674 -0.4246
 1097HK4    H1892091   4.816   1.354   6.689 -3.0640  0.5916 -0.5100
 1097HK4    C3792092   4.705   1.206   6.572 -0.0763 -0.3178 -0.0520
 1097HK4    H1992093   4.603   1.229   6.600 -0.8264 -0.5664 -2.4547
 1097HK4    C3892094   4.721   1.082   6.512 -0.4498 -0.2299 -0.3359
 1097HK4    H2092095   4.639   1.013   6.494 -0.1781 -0.7421  0.3765
 1097HK4    C1492096   5.163   0.585   6.351  0.2476 -0.1081 -0.2207
 1097HK4     C992097   5.121   0.479   6.269 -0.3680 -0.1290  0.1205
 1097HK4     C892098   5.163   0.346   6.288 -0.2170 -0.0502  0.3425
 1097HK4    C1192099   5.270   0.329   6.376  0.1498  0.2914 -0.0337
 1097HK4     H492100   5.323   0.233   6.377 -2.1921 -1.0996 -2.2050
 1097HK4    C1292101   5.330   0.435   6.443  0.2969  0.1949 -0.0140
 1097HK4     H592102   5.413   0.415   6.513 -0.3410 -1.2220  0.3586
 1097HK4    C1392103   5.276   0.562   6.432 -0.2468  0.0129  0.5064
 1097HK4     H692104   5.324   0.636   6.498  1.0037 -0.8993  0.6474
 1097HK4     C792105   5.074   0.237   6.240 -0.2404 -0.1407  0.5945
 1097HK4     O292106   5.118   0.125   6.264  0.4580 -0.0313 -0.1382
 1097HK4     C492107   4.963   0.277   6.151  0.4824 -0.0747 -0.2908
 1097HK4     C392108   4.856   0.187   6.148  0.0209  0.4538  0.1700
 1097HK4     H392109   4.855   0.107   6.222  1.2214  1.7467  1.6309
 1097HK4     C292110   4.744   0.236   6.081  0.2589  0.7646 -0.0025
 1097HK4     H292111   4.652   0.176   6.089  0.9915 -0.0183  3.9056
 1097HK4     C192112   4.749   0.346   5.997  0.0848  0.7223 -0.0684
 1097HK4     H192113   4.665   0.364   5.928  0.2351  3.0643  0.3019
 1097HK4     C692114   4.866   0.422   5.977  0.2374  0.5872  0.3251
 1097HK4     C592115   4.962   0.396   6.076  0.4861  0.0775 -0.0499
 1097HK4    C1092116   5.044   0.500   6.143  0.1950  0.3653 -0.1427
 1097HK4     O192117   5.060   0.608   6.085  0.7674  0.1284 -0.4264
 1097HK4    C1692118   4.884   0.493   5.850  0.1750  0.8618  0.4679
 1097HK4    C1592119   4.767   0.537   5.784  0.1512  0.2023  0.0613
 1097HK4     H792120   4.695   0.582   5.853  1.1607  0.4257  0.9857
 1097HK4    C2092121   4.757   0.545   5.645  0.0111 -0.2718  0.0440
 1097HK4     H992122   4.661   0.552   5.594  0.2098 -2.8698 -0.7391
 1097HK4    C1992123   4.868   0.511   5.568 -0.2351 -0.4648 -0.2262
 1097HK4    C1892124   4.991   0.467   5.631 -0.3389 -0.0671  0.2660
 1097HK4    C1792125   4.994   0.465   5.770 -0.2200 -0.1260  0.2621
 1097HK4     H892126   5.096   0.467   5.809  0.2316  0.0090 -0.8897
 1097HK4     N192127   5.069   0.404   5.532 -0.2365 -0.3377  0.5204
 1097HK4    C2192128   4.996   0.404   5.411  0.4147  0.0679  0.1251
 1097HK4    C2292129   4.871   0.475   5.428  0.1303 -0.3364 -0.2492
 1097HK4    C2692130   4.781   0.475   5.322  0.0068 -0.0725 -0.1456
 1097HK4    H1392131   4.693   0.539   5.321 -0.8239 -1.2241 -1.3357
 1097HK4    C2592132   4.802   0.406   5.203  0.4936  0.3840 -0.3251
 1097HK4    H1292133   4.721   0.397   5.130  2.1353 -2.8358 -1.8270
 1097HK4    C2492134   4.926   0.347   5.182 -0.0897 -0.8582 -0.3298
 1097HK4    H1192135   4.949   0.300   5.085  1.6600 -0.3397 -0.1917
 1097HK4    C2392136   5.016   0.344   5.287 -0.4862 -0.0583  0.0373
 1097HK4    H1092137   5.114   0.302   5.264  0.1839  1.8193 -0.5887
 1097HK4    C3992138   5.204   0.371   5.550  0.0095  0.1743 -0.3219
 1097HK4    C4192139   5.259   0.271   5.467  0.6417  0.6507 -0.4734
 1097HK4    H2192140   5.190   0.201   5.418  2.3881 -1.3931 -0.0778
 1097HK4    C4292141   5.396   0.247   5.460  0.4675 -0.3128 -0.5325
 1097HK4    H2292142   5.438   0.159   5.408 -3.9191 -2.1523 -1.1822
 1097HK4    C4392143   5.479   0.333   5.530 -0.3757  0.4710 -0.4896
 1097HK4    H2392144   5.586   0.329   5.507 -0.7557 -2.0917 -1.9597
 1097HK4    C4492145   5.428   0.435   5.610 -0.2972 -0.5009  0.8333
 1097HK4    H2492146   5.491   0.519   5.644  1.7546 -1.3828 -0.6188
 1097HK4    C4592147   5.291   0.453   5.624 -0.3003  0.2360 -0.0244
 1097HK4    H2592148   5.253   0.507   5.713 -2.9182 -2.5617  0.6211
 1098HK4    H2892149  10.178   4.452  10.138  0.3593 -0.6450 -3.2851
 1098HK4    C4892150  10.266   4.517  10.143 -0.0492 -0.2187  0.2396
 1098HK4    C4792151  10.263   4.656  10.139  0.5033 -0.2270 -0.6273
 1098HK4    H2792152  10.169   4.711  10.146 -0.1112 -1.5061  1.9796
 1098HK4    C4692153  10.378   4.734  10.136  0.0466  0.4970  0.3194
 1098HK4    H2692154  10.370   4.843  10.129  2.9903  0.8904  2.0921
 1098HK4    C4092155  10.506   4.675  10.130 -0.0753  0.2725 -0.1440
 1098HK4    C5092156  10.509   4.535  10.145  0.0487  0.2195 -0.6715
 1098HK4    H3092157  10.605   4.484  10.162 -0.7865 -1.0240  0.4596
 1098HK4    C4992158  10.392   4.459  10.153  0.1632 -0.0033 -1.0671
 1098HK4    H2992159  10.404   4.351  10.164  3.9724  0.3194 -1.4131
 1098HK4     N292160  10.621   4.753  10.145  0.2588 -0.2992  0.2982
 1098HK4    C3092161  10.636   4.885  10.193  0.1232 -0.3677  0.5292
 1098HK4    C2992162  10.547   4.962  10.268 -0.2503 -0.0561 -0.2236
 1098HK4    H1592163  10.470   4.917  10.331 -0.2020  1.1499  0.7042
 1098HK4    C2892164  10.564   5.099  10.285  0.5176 -0.2782  0.8404
 1098HK4    C2792165  10.678   5.155  10.225 -0.2211  0.2589 -0.0687
 1098HK4    H1492166  10.692   5.264  10.229 -0.1784  0.2758 -0.5877
 1098HK4    C3292167  10.772   5.084  10.152 -0.5564 -0.0139 -0.2427
 1098HK4    H1692168  10.874   5.122  10.142 -0.9280  1.1117  0.2135
 1098HK4    C3192169  10.756   4.946  10.141 -0.2653 -0.0698 -0.0169
 1098HK4    C3492170  10.819   4.850  10.052  0.3033 -0.3268  0.6625
 1098HK4    C3392171  10.729   4.736  10.056  0.1906 -0.2572  0.2114
 1098HK4    C3592172  10.729   4.646   9.950  0.2412 -0.2374  0.1920
 1098HK4    H1792173  10.665   4.558   9.948 -3.3008  2.2579 -2.7824
 1098HK4    C3692174  10.810   4.676   9.841 -0.5894  0.4103 -0.2445
 1098HK4    H1892175  10.802   4.617   9.749 -1.5861 -0.0470  0.1235
 1098HK4    C3792176  10.900   4.781   9.840  0.2402 -0.2912  0.2417
 1098HK4    H1992177  10.973   4.803   9.763 -1.0534 -3.8383 -2.0989
 1098HK4    C3892178  10.893   4.880   9.938 -0.0124 -0.4829  0.4167
 1098HK4    H2092179  10.928   4.980   9.915 -1.3292 -0.5074 -1.8897
 1098HK4    C1492180  10.450   5.183  10.326  0.7523  0.2313  0.4471
 1098HK4     C992181  10.422   5.308  10.270 -0.1295 -0.3458 -0.4222
 1098HK4     C892182  10.353   5.404  10.346 -0.1421 -0.2635 -0.5322
 1098HK4    C1192183  10.309   5.369  10.473  0.1636  0.3735 -0.2481
 1098HK4     H492184  10.260   5.446  10.535 -0.5424 -0.4694  0.2496
 1098HK4    C1292185  10.327   5.243  10.530 -0.1484  0.3719 -0.1509
 1098HK4     H592186  10.269   5.215  10.618 -0.2360  0.2533 -0.2449
 1098HK4    C1392187  10.397   5.151  10.453  0.4239  0.3869  0.3505
 1098HK4     H692188  10.428   5.054  10.496  1.1802  0.1999 -0.5806
 1098HK4     C792189  10.325   5.542  10.298 -0.0274 -0.2148 -0.4597
 1098HK4     O292190  10.259   5.621  10.364  0.2083 -0.1478 -0.3001
 1098HK4     C492191  10.383   5.585  10.169  0.1385 -0.1116 -0.3487
 1098HK4     C392192  10.382   5.720  10.134 -0.3007 -0.0308 -0.0327
 1098HK4     H392193  10.325   5.794  10.191  3.2694  1.0179  2.3056
 1098HK4     C292194  10.470   5.763  10.035  0.1408 -0.2729  0.2552
 1098HK4     H292195  10.483   5.870  10.015 -0.9929 -0.3733 -1.1047
 1098HK4     C192196  10.559   5.677   9.971 -0.0337 -0.2039 -0.0806
 1098HK4     H192197  10.632   5.712   9.897 -1.7672  2.3634 -0.6319
 1098HK4     C692198  10.557   5.539  10.001  0.0115 -0.2969 -0.5062
 1098HK4     C592199  10.464   5.496  10.096 -0.0326 -0.1571 -0.4857
 1098HK4    C1092200  10.456   5.351  10.132 -0.2545 -0.1208 -0.3832
 1098HK4     O192201  10.429   5.273  10.041  0.2370 -0.3018 -0.3745
 1098HK4    C1692202  10.681   5.467   9.966  0.4746  0.4656 -0.4318
 1098HK4    C1592203  10.803   5.536   9.980  0.6787  0.0396 -0.0910
 1098HK4     H792204  10.822   5.609  10.060 -1.4997  0.7722 -0.2239
 1098HK4    C2092205  10.910   5.498   9.899  0.6785 -0.3628  0.1002
 1098HK4     H992206  11.004   5.551   9.920  1.4825 -1.1541 -1.4358
 1098HK4    C1992207  10.904   5.395   9.807  0.0813 -0.4597  0.2513
 1098HK4    C1892208  10.780   5.319   9.799 -0.1001 -0.1132 -0.2872
 1098HK4    C1792209  10.672   5.363   9.874  0.1803  0.1329 -0.0248
 1098HK4     H892210  10.575   5.329   9.838 -0.2002  1.4713 -0.2752
 1098HK4     N192211  10.792   5.211   9.710  0.5998 -0.1652 -0.1385
 1098HK4    C2192212  10.922   5.223   9.657  0.5784 -0.3905 -0.2503
 1098HK4    C2292213  10.995   5.335   9.711 -0.0616 -0.0124 -0.1653
 1098HK4    C2692214  11.129   5.352   9.678  0.1760 -0.6484  0.4343
 1098HK4    H1392215  11.190   5.409   9.748  0.5032 -1.5666  0.8938
 1098HK4    C2592216  11.182   5.281   9.571 -0.1849 -0.2109 -0.0380
 1098HK4    H1292217   0.014   5.325   9.511 -0.4723  1.2873  0.6489
 1098HK4    C2492218  11.108   5.180   9.512  0.0761 -0.1421 -0.4883
 1098HK4    H1192219  11.151   5.123   9.429 -0.4108 -1.9473  0.4707
 1098HK4    C2392220  10.981   5.145   9.558  0.3761 -0.7321 -0.1068
 1098HK4    H1092221  10.950   5.042   9.543 -0.4830 -0.7218  1.4800
 1098HK4    C3992222  10.704   5.103   9.692  0.0523  0.2752 -0.1083
 1098HK4    C4192223  10.693   5.028   9.573  0.8127 -0.0580  0.0299
 1098HK4    H2192224  10.739   5.062   9.480 -0.1599 -1.8455 -1.1479
 1098HK4    C4292225  10.620   4.909   9.568  0.3522  0.2171  0.1322
 1098HK4    H2292226  10.607   4.865   9.468  1.1480 -3.6537  1.6544
 1098HK4    C4392227  10.557   4.862   9.682  0.3123  0.4622  0.2097
 1098HK4    H2392228  10.488   4.779   9.672  0.6754  0.1188  0.5463
 1098HK4    C4492229  10.563   4.937   9.799 -0.6417  0.4621  0.2586
 1098HK4    H2492230  10.524   4.889   9.890  0.4668  0.2551  0.6359
 1098HK4    C4592231  10.630   5.059   9.804 -0.0994  0.1828 -0.2435
 1098HK4    H2592232  10.626   5.113   9.899  0.1774  0.8879 -0.6313
 1099HK4    H2892233  11.018   4.946   5.960  0.3661  0.3005  0.3701
 1099HK4    C4892234  11.055   4.863   5.899  0.0592  0.4002  0.0477
 1099HK4    C4792235  10.986   4.827   5.784 -0.1261 -0.5192  0.4436
 1099HK4    H2792236  10.929   4.902   5.727 -1.1351  0.2156  2.3925
 1099HK4    C4692237  11.000   4.696   5.738  0.1366 -0.2168 -0.3436
 1099HK4    H2692238  10.970   4.680   5.634  0.1623 -1.6573 -0.1311
 1099HK4    C4092239  11.100   4.608   5.784  0.3579 -0.0535 -0.5157
 1099HK4    C5092240  11.175   4.658   5.893 -0.0909 -0.1224 -0.1737
 1099HK4    H3092241   0.003   4.588   5.931 -0.1661 -1.5959 -2.5907
 1099HK4    C4992242  11.153   4.781   5.953 -0.6256 -0.3669  0.1432
 1099HK4    H2992243  11.222   4.823   6.028 -1.6640  0.5758  0.5891
 1099HK4     N292244  11.087   4.472   5.755  0.2873 -0.2769  0.5313
 1099HK4    C3092245  10.967   4.401   5.738  0.1213  0.1703 -0.1735
 1099HK4    C2992246  10.841   4.423   5.792  0.0537  0.2494 -0.3596
 1099HK4    H1592247  10.836   4.501   5.868  1.3919  1.9335 -1.9724
 1099HK4    C2892248  10.735   4.335   5.775  0.2269 -0.2401  1.0548
 1099HK4    C2792249  10.768   4.224   5.694  0.2963  0.5841 -0.0465
 1099HK4    H1492250  10.687   4.155   5.663 -0.1022  1.4610 -0.9866
 1099HK4    C3292251  10.890   4.195   5.634  0.1928 -0.3774  0.2070
 1099HK4    H1692252  10.901   4.108   5.569 -1.1455  0.4606 -1.1524
 1099HK4    C3192253  10.994   4.283   5.657 -0.0174 -0.1325  0.2132
 1099HK4    C3492254  11.137   4.280   5.629 -0.1466  0.3552 -0.5449
 1099HK4    C3392255  11.191   4.398   5.694  0.2264 -0.4370  0.6172
 1099HK4    C3592256   0.081   4.415   5.695  0.1502  0.2727 -0.1848
 1099HK4    H1792257   0.123   4.501   5.748  0.5214 -1.2903  2.1252
 1099HK4    C3692258   0.163   4.326   5.627 -0.0969 -0.1877  0.1159
 1099HK4    H1892259   0.261   4.367   5.598  0.0656 -0.8690 -0.3120
 1099HK4    C3792260   0.107   4.219   5.558 -0.1095  0.0785 -0.2904
 1099HK4    H1992261   0.177   4.160   5.498  2.4455  1.2752  1.4153
 1099HK4    C3892262  11.219   4.194   5.557 -0.1783  0.4480 -0.6865
 1099HK4    H2092263  11.179   4.107   5.505  2.7695 -2.4392  1.6549
 1099HK4    C1492264  10.605   4.346   5.843 -0.7006 -0.3368 -0.6666
 1099HK4     C992265  10.511   4.242   5.841 -0.6910 -0.3674  0.2612
 1099HK4     C892266  10.375   4.276   5.835 -0.5489  0.1499 -0.1021
 1099HK4    C1192267  10.328   4.406   5.850  0.3763  0.4090  0.6305
 1099HK4     H492268  10.223   4.436   5.831  0.7246  1.3203  0.0674
 1099HK4    C1292269  10.417   4.512   5.865  0.4666  0.5665 -0.9315
 1099HK4     H592270  10.389   4.616   5.846  0.9524  0.9711  0.5328
 1099HK4    C1392271  10.551   4.475   5.863  0.3217 -0.0388  0.2178
 1099HK4     H692272  10.627   4.549   5.894 -0.3091 -0.1530  2.1210
 1099HK4     C792273  10.279   4.167   5.808  0.4004 -0.7263  0.0565
 1099HK4     O292274  10.159   4.173   5.836  0.4122  0.0335 -0.0392
 1099HK4     C492275  10.328   4.035   5.761  0.1815 -0.9615  0.4819
 1099HK4     C392276  10.242   3.944   5.703  0.0990 -0.5592 -0.0334
 1099HK4     H392277  10.140   3.970   5.670 -0.6648 -2.1815  0.9343
 1099HK4     C292278  10.289   3.818   5.667 -0.0651 -0.4134 -0.7750
 1099HK4     H292279  10.227   3.734   5.634  1.8966 -1.0531 -2.9669
 1099HK4     C192280  10.421   3.783   5.696 -0.1487  0.2260  0.4401
 1099HK4     H192281  10.446   3.676   5.699  2.2992  0.7914  1.5045
 1099HK4     C692282  10.518   3.872   5.748  0.3439 -0.2061  0.2611
 1099HK4     C592283  10.462   3.995   5.783  0.5174 -0.0802  0.0979
 1099HK4    C1092284  10.545   4.098   5.851  0.4880 -0.1009  0.1674
 1099HK4     O192285  10.608   4.067   5.952 -0.2026 -0.2465  0.5490
 1099HK4    C1692286  10.656   3.863   5.698  0.1484 -0.9088 -0.1758
 1099HK4    C1592287  10.682   3.820   5.567 -0.1888 -0.6316 -0.3338
 1099HK4     H792288  10.603   3.787   5.497 -1.4864  1.5217  0.0580
 1099HK4    C2092289  10.810   3.784   5.525  0.0379  0.0590 -0.2376
 1099HK4     H992290  10.826   3.740   5.427  0.9480 -1.6062  0.6419
 1099HK4    C1992291  10.916   3.799   5.613 -0.1017  0.3771 -0.1227
 1099HK4    C1892292  10.897   3.845   5.749 -0.3146  0.6412 -0.2399
 1099HK4    C1792293  10.765   3.870   5.784 -0.1835  0.8373  0.1256
 1099HK4     H892294  10.750   3.881   5.891  0.6351 -0.5516  0.3848
 1099HK4     N192295  11.016   3.866   5.822 -0.1951 -0.3717 -0.1353
 1099HK4    C2192296  11.116   3.841   5.726 -0.2126 -0.3115 -0.1701
 1099HK4    C2292297  11.061   3.794   5.600 -0.1313  0.1466 -0.3783
 1099HK4    C2692298  11.141   3.741   5.501 -0.2978 -0.3677 -0.2396
 1099HK4    H1392299  11.095   3.711   5.407 -0.4665 -2.3990  0.4538
 1099HK4    C2592300   0.030   3.729   5.524 -0.3748  0.0813  0.4651
 1099HK4    H1292301   0.080   3.665   5.451 -1.9149  0.3826 -0.8831
 1099HK4    C2492302   0.084   3.773   5.644 -0.1951 -0.1427  0.4678
 1099HK4    H1192303   0.182   3.730   5.669 -0.2972  0.4673  1.9801
 1099HK4    C2392304   0.006   3.834   5.742 -0.1986  0.4734  0.0842
 1099HK4    H1092305   0.058   3.903   5.808  0.9597 -0.7893  0.5271
 1099HK4    C3992306  11.020   3.940   5.941 -0.4992 -0.3269 -0.1526
 1099HK4    C4192307  11.134   3.924   6.022 -0.1644  0.5519 -0.4456
 1099HK4    H2192308  11.194   3.831   6.023 -0.9770  0.0261 -0.7468
 1099HK4    C4292309  11.171   4.022   6.114  0.0419  0.2002 -0.1516
 1099HK4    H2292310   0.019   4.011   6.165  0.3144 -1.1553 -0.9172
 1099HK4    C4392311  11.090   4.132   6.141 -0.8331 -0.3694 -0.4162
 1099HK4    H2392312  11.113   4.201   6.222 -2.2155 -2.0363  1.4318
 1099HK4    C4492313  10.979   4.151   6.060 -0.7369  0.2663 -0.4025
 1099HK4    H2492314  10.920   4.241   6.079 -1.2575  0.0801 -1.1148
 1099HK4    C4592315  10.942   4.054   5.967  0.1571  0.2681 -0.7665
 1099HK4    H2592316  10.859   4.071   5.897 -1.1688 -4.7443 -0.6117
 1100HK4    H2892317   2.894   6.755   5.710  0.4135  1.3125 -1.9813
 1100HK4    C4892318   2.845   6.844   5.749 -0.4668  0.0105 -0.0073
 1100HK4    C4792319   2.710   6.864   5.723 -0.5805 -0.3380  0.3242
 1100HK4    H2792320   2.656   6.797   5.655 -0.9264 -1.0800  1.3161
 1100HK4    C4692321   2.647   6.965   5.795  0.1697  0.4673 -0.1336
 1100HK4    H2692322   2.538   6.963   5.784  0.2948  1.7589 -1.6814
 1100HK4    C4092323   2.709   7.042   5.895 -0.1371  0.0269  0.3995
 1100HK4    C5092324   2.846   7.017   5.917 -0.0628  0.1157  0.0318
 1100HK4    H3092325   2.898   7.088   5.983 -0.2211  0.2628 -0.0040
 1100HK4    C4992326   2.913   6.920   5.843 -0.3286  0.0703 -0.1555
 1100HK4    H2992327   3.022   6.907   5.857 -0.0075  0.7387 -1.9096
 1100HK4     N292328   2.649   7.161   5.939 -1.3466 -0.5328  0.2836
 1100HK4    C3092329   2.559   7.242   5.868 -0.3199  0.5320  0.1776
 1100HK4    C2992330   2.511   7.237   5.738  0.2177 -0.4850  0.0127
 1100HK4    H1592331   2.486   7.141   5.692  0.0427 -0.3001 -0.2844
 1100HK4    C2892332   2.469   7.352   5.671  0.1250 -0.5058  0.0346
 1100HK4    C2792333   2.469   7.474   5.741  0.7745 -0.4701 -0.0250
 1100HK4    H1492334   2.419   7.558   5.690 -0.8711 -1.0350  0.6427
 1100HK4    C3292335   2.505   7.477   5.875  0.7323  0.3886 -0.0246
 1100HK4    H1692336   2.483   7.566   5.933  0.9661  0.2539  0.2748
 1100HK4    C3192337   2.549   7.365   5.945  0.0857  0.4099  0.4248
 1100HK4    C3492338   2.623   7.355   6.069  0.8097  0.2847 -0.0123
 1100HK4    C3392339   2.671   7.218   6.066 -0.2745 -0.1041 -0.0907
 1100HK4    C3592340   2.720   7.161   6.183  0.3938  0.0923 -0.2719
 1100HK4    H1792341   2.752   7.057   6.184  0.3260  0.0632 -1.1985
 1100HK4    C3692342   2.734   7.236   6.299  0.2817  0.2670 -0.3692
 1100HK4    H1892343   2.776   7.199   6.394  0.2938 -0.7395 -0.7536
 1100HK4    C3792344   2.693   7.369   6.297 -0.3446  0.0859  0.0787
 1100HK4    H1992345   2.712   7.440   6.377 -0.9441  0.2066  0.1159
 1100HK4    C3892346   2.626   7.425   6.189 -0.1189  0.2635  0.0311
 1100HK4    H2092347   2.590   7.528   6.195 -2.2718 -0.4870  0.1867
 1100HK4    C1492348   2.485   7.349   5.525  0.2157  0.1918  0.0296
 1100HK4     C992349   2.551   7.452   5.457  0.0618  0.1737 -0.1461
 1100HK4     C892350   2.515   7.481   5.324 -0.1293  0.4335 -0.0387
 1100HK4    C1192351   2.420   7.407   5.255  0.6645 -0.1101 -0.5616
 1100HK4     H492352   2.390   7.417   5.149  0.1454 -1.3040 -0.5416
 1100HK4    C1292353   2.354   7.304   5.320  0.3143  0.3168 -0.2338
 1100HK4     H592354   2.291   7.235   5.262  1.6916 -2.9862  2.0464
 1100HK4    C1392355   2.390   7.276   5.451  0.5449  0.1296 -0.3359
 1100HK4     H692356   2.336   7.203   5.513  2.4839 -1.8439 -0.8885
 1100HK4     C792357   2.567   7.603   5.257  0.2854  0.2541 -0.0474
 1100HK4     O292358   2.544   7.624   5.138  0.3998 -0.0121 -0.1166
 1100HK4     C492359   2.655   7.695   5.332  0.0863  0.1211  0.3528
 1100HK4     C392360   2.694   7.815   5.273 -0.4926 -0.0269 -0.3406
 1100HK4     H392361   2.674   7.829   5.166  0.3510  0.3927 -0.4462
 1100HK4     C292362   2.767   7.908   5.345 -0.7499 -0.4260  0.4512
 1100HK4     H292363   2.792   8.006   5.300 -1.4631 -1.4057 -2.1935
 1100HK4     C192364   2.798   7.884   5.478  0.4220  0.3036  0.3211
 1100HK4     H192365   2.858   7.963   5.526  1.7688 -0.7640  0.4447
 1100HK4     C692366   2.758   7.765   5.541 -1.1268  0.6057 -0.0561
 1100HK4     C592367   2.698   7.666   5.463 -0.4097 -0.2320  0.4363
 1100HK4    C1092368   2.662   7.531   5.516  0.4069 -0.5525  0.1786
 1100HK4     O192369   2.757   7.470   5.565  0.6139 -0.4900 -0.1464
 1100HK4    C1692370   2.742   7.770   5.687 -0.5217 -0.0990  0.0416
 1100HK4    C1592371   2.672   7.868   5.760 -0.0475  0.4789 -0.2747
 1100HK4     H792372   2.653   7.967   5.714  3.1851  0.4618 -1.7597
 1100HK4    C2092373   2.660   7.864   5.899  0.3484 -0.1756 -0.2593
 1100HK4     H992374   2.588   7.929   5.949  1.6942  1.2388 -0.1237
 1100HK4    C1992375   2.731   7.772   5.975  0.0009 -0.0594  0.2075
 1100HK4    C1892376   2.812   7.677   5.901  0.4510  0.3057  0.2314
 1100HK4    C1792377   2.815   7.679   5.762 -0.6665 -0.0888  0.1973
 1100HK4     H892378   2.896   7.628   5.710  1.4240  2.0502  1.2409
 1100HK4     N192379   2.906   7.619   5.989  0.0050  0.0725  0.5566
 1100HK4    C2192380   2.876   7.661   6.120 -0.6655 -0.5179  0.5939
 1100HK4    C2292381   2.766   7.755   6.114  0.0598  0.3130  0.2398
 1100HK4    C2692382   2.703   7.797   6.231 -0.2506 -0.0578  0.2050
 1100HK4    H1392383   2.609   7.852   6.233  0.2671  0.8348  0.2866
 1100HK4    C2592384   2.756   7.762   6.354 -0.1064 -0.0065  0.1558
 1100HK4    H1292385   2.692   7.785   6.439 -0.6528  0.2834 -0.3296
 1100HK4    C2492386   2.865   7.676   6.358  0.1776  0.3530  0.2360
 1100HK4    H1192387   2.920   7.667   6.453 -1.8595 -1.5621  1.2704
 1100HK4    C2392388   2.922   7.618   6.244 -0.1954 -0.4427  0.4482
 1100HK4    H1092389   2.989   7.533   6.251  0.9610  0.3583 -0.7138
 1100HK4    C3992390   2.991   7.510   5.963 -0.4389 -0.2413  0.4105
 1100HK4    C4192391   3.118   7.504   6.025 -0.3033 -0.3644  0.1223
 1100HK4    H2192392   3.151   7.591   6.083  3.0604 -1.6715  0.2460
 1100HK4    C4292393   3.197   7.394   5.997 -0.1400 -0.2877  0.2778
 1100HK4    H2292394   3.297   7.383   6.043 -1.2389  0.0831  2.8235
 1100HK4    C4392395   3.156   7.289   5.915 -0.3716  0.3975 -0.4895
 1100HK4    H2392396   3.200   7.190   5.926 -1.9839 -0.5061 -1.8873
 1100HK4    C4492397   3.028   7.296   5.861 -0.5306 -0.1105 -0.1824
 1100HK4    H2492398   2.987   7.213   5.802 -1.0276 -0.5504  0.7717
 1100HK4    C4592399   2.943   7.403   5.885 -0.1985  0.1891 -0.3342
 1100HK4    H2592400   2.837   7.388   5.862 -0.7037  0.1158  1.9361
 1101HK4    H2892401   5.924   5.872   6.775  0.7074 -1.8875 -1.0985
 1101HK4    C4892402   5.950   5.833   6.873 -0.2195  0.0768 -0.0369
 1101HK4    C4792403   5.966   5.695   6.884 -0.3363  0.0752  0.1203
 1101HK4    H2792404   5.970   5.631   6.795  1.0599  3.0328 -2.0483
 1101HK4    C4692405   5.979   5.637   7.010  1.0358  0.1302  0.0082
 1101HK4    H2692406   5.985   5.528   7.019  0.4395  0.0813 -0.1831
 1101HK4    C4092407   5.974   5.711   7.130  0.0407  0.3445 -0.1600
 1101HK4    C5092408   5.939   5.846   7.110  0.3581  0.4748  0.1522
 1101HK4    H3092409   5.883   5.891   7.193 -3.0639 -2.3151 -0.5196
 1101HK4    C4992410   5.938   5.911   6.987  0.0979  0.1224 -0.0349
 1101HK4    H2992411   5.955   6.018   6.966  0.4429 -0.2330 -1.6440
 1101HK4     N292412   6.047   5.677   7.245 -0.0265  0.0723 -0.1975
 1101HK4    C3092413   6.169   5.607   7.252  0.1283  0.3940  0.3460
 1101HK4    C2992414   6.270   5.582   7.160  0.1478  0.5295  0.3329
 1101HK4    H1592415   6.252   5.603   7.054  2.5513  1.3963  0.0720
 1101HK4    C2892416   6.393   5.526   7.193  0.0842  0.3132  0.2042
 1101HK4    C2792417   6.415   5.495   7.329 -0.3258 -0.0172  0.1963
 1101HK4    H1492418   6.516   5.477   7.367  0.7080  4.7056  0.0014
 1101HK4    C3292419   6.317   5.516   7.425  0.1128 -0.1850  0.6824
 1101HK4    H1692420   6.339   5.499   7.530  0.5808 -2.4719  0.2298
 1101HK4    C3192421   6.192   5.566   7.390  0.3881  0.1993  0.2458
 1101HK4    C3492422   6.077   5.606   7.468 -0.1922 -0.5533 -0.2101
 1101HK4    C3392423   5.993   5.680   7.375 -0.1481 -0.5311 -0.2322
 1101HK4    C3592424   5.872   5.731   7.420  0.2931  0.1805  0.1537
 1101HK4    H1792425   5.798   5.768   7.349  0.0325 -0.7012 -0.0377
 1101HK4    C3692426   5.830   5.711   7.551  0.8264  0.2269  0.3349
 1101HK4    H1892427   5.737   5.763   7.578  2.4126  1.6817  3.0867
 1101HK4    C3792428   5.908   5.633   7.635  0.2567 -0.9039 -0.1638
 1101HK4    H1992429   5.876   5.622   7.738 -1.6671  1.7426 -0.4469
 1101HK4    C3892430   6.031   5.579   7.596  0.4942 -0.5200  0.0454
 1101HK4    H2092431   6.096   5.527   7.667  1.7258 -0.7572 -1.2454
 1101HK4    C1492432   6.468   5.458   7.087  0.1743  0.2811  0.2894
 1101HK4     C992433   6.545   5.345   7.118 -0.2790 -0.1521 -0.1573
 1101HK4     C892434   6.668   5.323   7.052 -0.4275 -0.1841 -0.4248
 1101HK4    C1192435   6.702   5.402   6.942 -0.1205  0.1241 -0.1112
 1101HK4     H492436   6.798   5.389   6.890 -0.6561 -0.3002 -0.9906
 1101HK4    C1292437   6.623   5.509   6.903 -0.2654 -0.2149 -0.7505
 1101HK4     H592438   6.641   5.575   6.817  1.3710  0.4920  0.1215
 1101HK4    C1392439   6.508   5.535   6.976 -0.1408 -0.5665 -0.4226
 1101HK4     H692440   6.458   5.632   6.963 -1.1837 -1.0413 -0.0586
 1101HK4     C792441   6.765   5.227   7.110 -0.3335  0.1295 -0.0597
 1101HK4     O292442   6.865   5.191   7.048 -0.2109  0.3422  0.0109
 1101HK4     C492443   6.738   5.178   7.247 -0.2196  0.5605  0.1194
 1101HK4     C392444   6.851   5.129   7.311 -0.5060  0.0480  0.2323
 1101HK4     H392445   6.952   5.137   7.268 -0.8670  0.5543 -0.5350
 1101HK4     C292446   6.842   5.093   7.445 -0.0338 -0.1930  0.2007
 1101HK4     H292447   6.906   5.014   7.489  2.5583  2.0303  0.5219
 1101HK4     C192448   6.726   5.125   7.514  0.2465  0.0034  0.5836
 1101HK4     H192449   6.727   5.118   7.624 -0.5545  0.4111  0.6200
 1101HK4     C692450   6.608   5.168   7.450  0.0463 -0.6016  0.5487
 1101HK4     C592451   6.613   5.188   7.311  0.0439  0.3051  0.6750
 1101HK4    C1092452   6.507   5.251   7.227  0.2841 -0.3290 -0.1126
 1101HK4     O192453   6.404   5.186   7.213  0.1270 -0.1573  0.2365
 1101HK4    C1692454   6.523   5.245   7.542  0.0282  0.5026 -0.3811
 1101HK4    C1592455   6.588   5.320   7.642  0.1482  0.1544 -0.1940
 1101HK4     H792456   6.690   5.363   7.638  0.6248 -0.7303  1.9330
 1101HK4    C2092457   6.519   5.367   7.753  0.1845 -0.5413  0.1217
 1101HK4     H992458   6.571   5.427   7.828  0.6335  1.0671 -1.4439
 1101HK4    C1992459   6.386   5.330   7.771 -0.1758  0.2500 -0.9157
 1101HK4    C1892460   6.321   5.245   7.674  0.1390 -1.2528  0.1727
 1101HK4    C1792461   6.392   5.205   7.561 -0.0152  0.5471 -0.5815
 1101HK4     H892462   6.351   5.127   7.496 -0.4582 -0.2067  0.5864
 1101HK4     N192463   6.182   5.235   7.697  0.0865 -0.0313  0.3726
 1101HK4    C2192464   6.158   5.317   7.810  0.5076 -0.0720  0.4932
 1101HK4    C2292465   6.281   5.378   7.858  0.5840  0.1022  0.0861
 1101HK4    C2692466   6.293   5.460   7.970  0.2240  0.7507 -0.3501
 1101HK4    H1392467   6.392   5.487   8.007  0.1600 -3.2579  3.1546
 1101HK4    C2592468   6.177   5.500   8.034  0.1248  0.0368 -0.0821
 1101HK4    H1292469   6.173   5.571   8.117 -0.4952  0.2460 -0.2825
 1101HK4    C2492470   6.058   5.438   7.996  0.2630  0.1329 -0.6807
 1101HK4    H1192471   5.966   5.451   8.054  0.1682 -0.7200 -0.6327
 1101HK4    C2392472   6.048   5.353   7.886 -0.1489 -0.1940 -0.3908
 1101HK4    H1092473   5.955   5.314   7.845  0.9758 -1.3751 -1.8475
 1101HK4    C3992474   6.104   5.124   7.665 -0.2771  0.1416  0.6495
 1101HK4    C4192475   5.963   5.129   7.653 -0.2568 -1.0450 -0.1157
 1101HK4    H2192476   5.932   5.230   7.626  1.5077 -0.4413  0.0210
 1101HK4    C4292477   5.872   5.025   7.669 -0.3008 -1.0320 -0.2952
 1101HK4    H2292478   5.762   5.031   7.664 -0.2998 -0.0714  0.6721
 1101HK4    C4392479   5.920   4.899   7.701  0.2979 -0.8657 -0.5259
 1101HK4    H2392480   5.861   4.812   7.732 -0.8871  0.0438 -0.1787
 1101HK4    C4492481   6.058   4.887   7.704  0.3473 -0.0927  0.7139
 1101HK4    H2492482   6.101   4.785   7.706 -1.0655 -0.7466 -1.0788
 1101HK4    C4592483   6.147   4.993   7.695  0.0461  0.1029  0.0106
 1101HK4    H2592484   6.255   4.981   7.710  0.9150  3.8423 -2.5122
 1102HK4    H2892485   4.172   8.496   1.357 -1.1217 -1.6320  0.4352
 1102HK4    C4892486   4.070   8.501   1.319 -0.5215  0.9473 -0.9711
 1102HK4    C4792487   3.969   8.563   1.391  0.0561  0.3912  0.3399
 1102HK4    H2792488   3.988   8.594   1.495  0.9383 -0.4315  0.4272
 1102HK4    C4692489   3.843   8.575   1.332  0.1647  0.1484  0.0576
 1102HK4    H2692490   3.770   8.633   1.389 -0.3409 -1.6186  1.2276
 1102HK4    C4092491   3.813   8.522   1.205 -0.4542  0.1357  0.2103
 1102HK4    C5092492   3.915   8.452   1.138 -0.0559  0.1439  0.8056
 1102HK4    H3092493   3.897   8.428   1.033  1.2681  1.3503  0.2817
 1102HK4    C4992494   4.040   8.440   1.198  0.5888 -0.3101 -0.6194
 1102HK4    H2992495   4.122   8.384   1.150  1.5100  0.1769  0.3675
 1102HK4     N292496   3.686   8.540   1.150 -0.1686  0.2802 -0.3998
 1102HK4    C3092497   3.602   8.650   1.179 -0.0275  0.0732  0.7843
 1102HK4    C2992498   3.632   8.781   1.215 -0.1231  0.2771  0.1415
 1102HK4    H1592499   3.734   8.817   1.220  0.1571 -0.5340  0.2890
 1102HK4    C2892500   3.537   8.883   1.221 -0.4771  0.0027 -0.7087
 1102HK4    C2792501   3.403   8.845   1.203 -0.5362 -0.1055 -0.0600
 1102HK4    H1492502   3.327   8.919   1.231  0.2132  0.6791 -0.0746
 1102HK4    C3292503   3.372   8.716   1.161 -0.2560 -0.2156  0.0713
 1102HK4    H1692504   3.266   8.692   1.157 -0.0807 -0.8077 -1.2081
 1102HK4    C3192505   3.467   8.617   1.140  0.2093  0.2924 -0.2351
 1102HK4    C3492506   3.464   8.480   1.094 -0.0352  0.0710  0.4264
 1102HK4    C3392507   3.603   8.441   1.093  0.0207  0.2716 -0.6620
 1102HK4    C3592508   3.630   8.306   1.074  0.3238  0.2207  0.0970
 1102HK4    H1792509   3.733   8.268   1.075  0.0839 -0.5282 -1.6998
 1102HK4    C3692510   3.530   8.211   1.056  0.4868  0.2263 -0.8658
 1102HK4    H1892511   3.547   8.105   1.032 -0.1651  0.0542 -0.5834
 1102HK4    C3792512   3.398   8.254   1.045  0.4708  0.3873 -0.0526
 1102HK4    H1992513   3.317   8.182   1.057  0.8503 -0.0336 -0.0286
 1102HK4    C3892514   3.366   8.389   1.054 -0.0569  0.2570  0.0544
 1102HK4    H2092515   3.266   8.425   1.029  0.3131  2.2959  1.4156
 1102HK4    C1492516   3.583   9.019   1.189  0.4613 -0.1964 -0.2398
 1102HK4     C992517   3.701   9.082   1.231 -0.0172  0.2932  0.3833
 1102HK4     C892518   3.761   9.177   1.145 -0.1271  0.3438  0.3634
 1102HK4    C1192519   3.698   9.223   1.030  0.4911  0.7044  0.1694
 1102HK4     H492520   3.744   9.297   0.963  0.3810 -1.1188 -1.9793
 1102HK4    C1292521   3.570   9.177   1.003  0.5841  0.1682  0.6347
 1102HK4     H592522   3.496   9.241   0.952 -1.2149 -1.1437  1.5109
 1102HK4    C1392523   3.514   9.073   1.078  0.1444 -0.0321  0.0360
 1102HK4     H692524   3.408   9.056   1.060  0.0011  0.8949 -0.0522
 1102HK4     C792525   3.874   9.258   1.193  0.5337 -0.2773 -0.1399
 1102HK4     O292526   3.940   9.326   1.115  0.6265 -0.3989 -0.1676
 1102HK4     C492527   3.914   9.256   1.336  1.1907 -0.4642 -0.3218
 1102HK4     C392528   3.983   9.366   1.383 -0.0889  0.3272 -0.2598
 1102HK4     H392529   4.045   9.436   1.324 -1.0490  2.4335  1.1721
 1102HK4     C292530   4.009   9.376   1.520 -0.2824  0.9017 -0.2617
 1102HK4     H292531   4.068   9.457   1.565 -1.2562  0.7382  1.3172
 1102HK4     C192532   3.965   9.278   1.607  0.4575  0.5410 -0.2819
 1102HK4     H192533   3.969   9.297   1.716 -2.4009  0.9772 -0.1947
 1102HK4     C692534   3.890   9.168   1.558  0.6143  0.3713 -0.1423
 1102HK4     C592535   3.857   9.160   1.423  0.6410  0.0325 -0.1278
 1102HK4    C1092536   3.738   9.083   1.375  0.7409 -0.3208  0.1957
 1102HK4     O192537   3.673   9.017   1.455  0.5021  0.0184  0.2827
 1102HK4    C1692538   3.862   9.065   1.659 -0.1301  0.3611 -0.3547
 1102HK4    C1592539   3.835   9.109   1.790 -0.0108 -0.2631 -0.1173
 1102HK4     H792540   3.768   9.196   1.803  1.2286  0.6307  0.3521
 1102HK4    C2092541   3.873   9.036   1.901 -0.2615 -0.0995  0.0781
 1102HK4     H992542   3.841   9.071   1.999 -0.0059 -2.0838  0.8989
 1102HK4    C1992543   3.942   8.916   1.882  0.2502  0.3061 -0.6303
 1102HK4    C1892544   3.970   8.868   1.748  0.0622 -0.2994 -0.4546
 1102HK4    C1792545   3.926   8.943   1.640  0.4149  0.5847  0.0063
 1102HK4     H892546   3.908   8.892   1.546 -0.2460  1.6569 -0.4638
 1102HK4     N192547   4.044   8.748   1.746  0.4017 -0.1063  0.1306
 1102HK4    C2192548   4.055   8.721   1.884  0.0162  0.3727  0.2586
 1102HK4    C2292549   3.994   8.817   1.974 -0.1356  0.5957 -0.0866
 1102HK4    C2692550   3.982   8.793   2.110 -0.2812 -0.5057 -0.2907
 1102HK4    H1392551   3.975   8.883   2.172 -0.1010  1.4964 -3.0922
 1102HK4    C2592552   4.032   8.678   2.169  0.2633  0.0643  0.3689
 1102HK4    H1292553   4.029   8.650   2.275  1.5097 -1.8580 -0.0683
 1102HK4    C2492554   4.086   8.584   2.083 -0.2448 -0.4286  0.5860
 1102HK4    H1192555   4.099   8.482   2.123  0.7128  0.1715  1.8129
 1102HK4    C2392556   4.103   8.605   1.946 -0.5917  0.3429  0.6667
 1102HK4    H1092557   4.187   8.561   1.893  1.0523  3.9749  0.0934
 1102HK4    C3992558   4.151   8.734   1.657  0.1897  0.1490 -0.1629
 1102HK4    C4192559   4.208   8.607   1.638 -0.2190 -0.1086  0.3211
 1102HK4    H2192560   4.148   8.518   1.662 -1.3975 -0.1415 -2.5732
 1102HK4    C4292561   4.335   8.591   1.584 -0.4329 -0.0229 -0.2096
 1102HK4    H2292562   4.378   8.490   1.573  0.1890  0.2305 -0.0866
 1102HK4    C4392563   4.407   8.704   1.548 -0.3149  0.1250  0.4900
 1102HK4    H2392564   4.501   8.697   1.492  0.1693  1.2315  1.1418
 1102HK4    C4492565   4.355   8.829   1.576 -0.1732  0.1348  0.7078
 1102HK4    H2492566   4.414   8.920   1.562  0.1451 -0.5947 -3.0970
 1102HK4    C4592567   4.222   8.848   1.615 -0.3056  0.5485  0.0629
 1102HK4    H2592568   4.175   8.947   1.617  0.2269  0.7985  0.3787
 1103HK4    H2892569   2.443   1.550   5.825 -0.8791 -0.0156  1.7735
 1103HK4    C4892570   2.530   1.542   5.891  0.1932  0.1230  0.4008
 1103HK4    C4792571   2.643   1.482   5.837  0.3074  0.7509 -0.0683
 1103HK4    H2792572   2.663   1.463   5.731  0.3633 -1.9197  0.3977
 1103HK4    C4692573   2.736   1.435   5.929 -0.0340 -0.0031 -0.1038
 1103HK4    H2692574   2.813   1.371   5.884 -1.2553 -2.2491  0.8993
 1103HK4    C4092575   2.726   1.448   6.069  0.3288  0.5238 -0.1205
 1103HK4    C5092576   2.612   1.515   6.118 -0.4030 -0.8968  0.1630
 1103HK4    H3092577   2.594   1.530   6.226 -2.4670  3.4001 -0.6435
 1103HK4    C4992578   2.515   1.557   6.028  0.0999  0.6855  0.3324
 1103HK4    H2992579   2.416   1.597   6.052 -0.7077  0.8806 -3.0533
 1103HK4     N292580   2.796   1.363   6.156 -0.0874 -0.0595 -0.3521
 1103HK4    C3092581   2.836   1.234   6.115 -0.3588 -0.1870 -0.2169
 1103HK4    C2992582   2.787   1.159   6.009  0.0075 -0.1649 -0.4047
 1103HK4    H1592583   2.686   1.172   5.969 -0.8726 -1.0841  1.4537
 1103HK4    C2892584   2.867   1.062   5.950  0.0167 -0.4166  0.0236
 1103HK4    C2792585   3.002   1.047   5.989 -0.0031 -0.0975  0.2205
 1103HK4    H1492586   3.076   0.989   5.932 -1.5713 -3.4226  1.4096
 1103HK4    C3292587   3.050   1.108   6.104  0.2157 -0.0067  0.0790
 1103HK4    H1692588   3.125   1.054   6.161 -1.0898 -1.5502  0.3515
 1103HK4    C3192589   2.968   1.203   6.165 -0.3103 -0.1842 -0.3417
 1103HK4    C3492590   3.002   1.316   6.249  0.3664 -0.6182 -0.0239
 1103HK4    C3392591   2.891   1.410   6.249  0.1672 -0.8557 -0.2088
 1103HK4    C3592592   2.894   1.526   6.325  0.1157 -1.0544  0.0990
 1103HK4    H1792593   2.814   1.599   6.320 -0.3160 -1.5516 -0.3701
 1103HK4    C3692594   3.010   1.546   6.399 -0.2185  0.1503  0.3154
 1103HK4    H1892595   3.012   1.641   6.454  1.7184 -0.2436  0.9654
 1103HK4    C3792596   3.121   1.462   6.397 -0.1147  0.2972 -0.1360
 1103HK4    H1992597   3.210   1.488   6.454 -0.6814  0.8150  0.5244
 1103HK4    C3892598   3.116   1.344   6.324  0.5264  0.6273 -0.7173
 1103HK4    H2092599   3.205   1.284   6.304  0.8085  1.0790 -0.8256
 1103HK4    C1492600   2.809   0.967   5.855  0.0770 -0.0809 -0.3498
 1103HK4     C992601   2.873   0.846   5.824  0.5877 -0.0817  0.6960
 1103HK4     C892602   2.866   0.798   5.691 -0.1472  0.0504  0.6843
 1103HK4    C1192603   2.789   0.864   5.596  0.7616  0.0179 -0.0821
 1103HK4     H492604   2.797   0.836   5.490 -2.0153  1.0870 -0.6068
 1103HK4    C1292605   2.712   0.975   5.627  0.3332 -0.4002  0.3598
 1103HK4     H592606   2.644   1.031   5.560 -0.5856 -1.7763  0.1075
 1103HK4    C1392607   2.726   1.025   5.756  0.0113  0.5107  0.0510
 1103HK4     H692608   2.652   1.101   5.783 -0.8687 -0.1620 -0.4510
 1103HK4     C792609   2.947   0.683   5.645  0.0621  0.2412  0.5753
 1103HK4     O292610   2.961   0.659   5.525 -0.1272 -0.1364  0.6294
 1103HK4     C492611   3.022   0.610   5.748  0.2879 -0.4714 -0.0883
 1103HK4     C392612   3.091   0.493   5.718 -0.0421 -0.5492 -0.5369
 1103HK4     H392613   3.113   0.481   5.611  1.2472  2.3337 -0.6285
 1103HK4     C292614   3.157   0.417   5.814 -0.0828 -0.2232 -0.2499
 1103HK4     H292615   3.192   0.320   5.777 -0.9763 -0.6282 -0.0309
 1103HK4     C192616   3.177   0.474   5.939 -0.1143 -0.3460 -0.1904
 1103HK4     H192617   3.228   0.412   6.015 -0.0211 -0.7599 -0.5922
 1103HK4     C692618   3.113   0.594   5.974  0.2849 -0.0393 -0.5180
 1103HK4     C592619   3.025   0.654   5.882  0.1264  0.1070 -0.2709
 1103HK4    C1092620   2.932   0.760   5.930  0.3501 -0.1557  0.7666
 1103HK4     O192621   2.848   0.724   6.013 -0.3359  0.2502  0.2551
 1103HK4    C1692622   3.188   0.678   6.069 -0.1538  0.2125 -0.3867
 1103HK4    C1592623   3.328   0.668   6.081 -0.2098  0.0597  0.1338
 1103HK4     H792624   3.384   0.615   6.002  0.6652 -0.0302  0.8035
 1103HK4    C2092625   3.398   0.726   6.187 -0.3053 -0.7095  0.6283
 1103HK4     H992626   3.505   0.708   6.190 -0.2282 -0.5864 -0.8375
 1103HK4    C1992627   3.337   0.796   6.290  0.2687  0.1677  0.3825
 1103HK4    C1892628   3.192   0.790   6.290  0.2338  0.8306 -0.6218
 1103HK4    C1792629   3.128   0.733   6.181  0.1193  0.3863 -0.3250
 1103HK4     H892630   3.020   0.719   6.189  0.0767  0.9002  0.0515
 1103HK4     N192631   3.138   0.888   6.377  0.0258  0.4127 -0.2776
 1103HK4    C2192632   3.249   0.954   6.433 -0.1104  0.5443 -0.1644
 1103HK4    C2292633   3.374   0.901   6.383 -0.0029  0.1259  0.5400
 1103HK4    C2692634   3.499   0.943   6.428  0.3063 -0.0621 -0.1198
 1103HK4    H1392635   3.589   0.893   6.394  0.6891  1.4493 -1.3778
 1103HK4    C2592636   3.504   1.037   6.531  0.5436  0.2125 -0.3823
 1103HK4    H1292637   3.602   1.074   6.557  0.5116  2.0569 -2.6923
 1103HK4    C2492638   3.384   1.085   6.583  0.6083 -0.2368  0.1776
 1103HK4    H1192639   3.384   1.141   6.678 -1.5312  0.4056 -0.1836
 1103HK4    C2392640   3.260   1.052   6.531  0.5057  0.1172  0.1994
 1103HK4    H1092641   3.187   1.134   6.533  2.8151  2.2699 -1.0277
 1103HK4    C3992642   3.025   0.878   6.459 -0.2199  0.2915 -0.6332
 1103HK4    C4192643   2.965   0.750   6.465  0.0880  0.2095  0.6838
 1103HK4    H2192644   3.036   0.667   6.475  0.3566  0.4588  0.8824
 1103HK4    C4292645   2.830   0.718   6.477 -0.0044  0.6160  0.7357
 1103HK4    H2292646   2.786   0.618   6.486 -1.0359  1.2567  3.6874
 1103HK4    C4392647   2.745   0.828   6.485 -0.4470  0.3020  0.3146
 1103HK4    H2392648   2.638   0.809   6.499 -1.0341 -0.2405 -4.1648
 1103HK4    C4492649   2.794   0.957   6.476  0.1985  0.0135 -0.3216
 1103HK4    H2492650   2.727   1.042   6.456  0.3878  0.9662  2.8581
 1103HK4    C4592651   2.930   0.982   6.470  0.1239  0.5261  0.0847
 1103HK4    H2592652   2.956   1.079   6.426  1.0518 -0.2537 -1.1332
 1104HK4    H2892653   1.888   8.562   5.409 -1.3085 -0.4630  1.6965
 1104HK4    C4892654   1.808   8.560   5.335 -0.2612  0.3056  0.5094
 1104HK4    C4792655   1.736   8.674   5.301  0.0417  0.4589  0.3769
 1104HK4    H2792656   1.773   8.774   5.325  2.3127 -0.0831 -0.7848
 1104HK4    C4692657   1.613   8.668   5.235  0.0374 -0.0159  0.4275
 1104HK4    H2692658   1.574   8.761   5.192  0.5571 -0.4209 -0.9397
 1104HK4    C4092659   1.563   8.542   5.197  0.2831  0.1975 -0.6155
 1104HK4    C5092660   1.639   8.428   5.229  0.3565  0.2523 -0.6011
 1104HK4    H3092661   1.597   8.327   5.243  1.5296 -0.3492 -1.3011
 1104HK4    C4992662   1.763   8.437   5.290 -0.0376  0.3417  0.1909
 1104HK4    H2992663   1.845   8.364   5.277  1.7469  2.6136 -1.9111
 1104HK4     N292664   1.425   8.523   5.179  0.2154  0.4019 -0.3074
 1104HK4    C3092665   1.323   8.601   5.237  0.3852  0.1475  0.3335
 1104HK4    C2992666   1.323   8.686   5.347 -0.1414  0.1223  0.3557
 1104HK4    H1592667   1.414   8.702   5.405 -0.1294 -2.0489  0.9514
 1104HK4    C2892668   1.210   8.758   5.384 -0.4408 -0.3791  0.4036
 1104HK4    C2792669   1.096   8.745   5.302 -0.2994  0.3575  0.0875
 1104HK4    H1492670   1.014   8.809   5.335 -0.7692 -0.2656  0.1445
 1104HK4    C3292671   1.086   8.657   5.194  0.2971  0.1601  0.1925
 1104HK4    H1692672   0.993   8.652   5.138  1.2893  1.0722 -1.5874
 1104HK4    C3192673   1.199   8.581   5.165  0.5351  0.6047 -0.0492
 1104HK4    C3492674   1.229   8.487   5.059  0.4558 -0.4621  0.8652
 1104HK4    C3392675   1.369   8.450   5.073  0.5406 -0.4415  0.0963
 1104HK4    C3592676   1.423   8.349   4.993 -0.1139 -0.6684 -0.0635
 1104HK4    H1792677   1.531   8.342   4.989 -0.0104 -0.0374  1.5323
 1104HK4    C3692678   1.343   8.286   4.898  0.1061 -0.2895 -0.4997
 1104HK4    H1892679   1.397   8.227   4.823  2.9780  1.5028  0.0739
 1104HK4    C3792680   1.212   8.329   4.875  0.2837  0.7791  0.4239
 1104HK4    H1992681   1.155   8.280   4.797 -0.2191  0.7760  0.7952
 1104HK4    C3892682   1.155   8.421   4.962  0.0029  0.4860  0.5516
 1104HK4    H2092683   1.048   8.440   4.963 -0.4026 -1.5501 -0.6247
 1104HK4    C1492684   1.200   8.805   5.523 -0.0987  0.4334  0.1508
 1104HK4     C992685   1.079   8.812   5.593  0.0687 -0.5203  0.5359
 1104HK4     C892686   1.058   8.926   5.673  0.0730 -0.3970  0.3634
 1104HK4    C1192687   1.158   9.021   5.692 -0.2532  0.1470 -0.6069
 1104HK4     H492688   1.141   9.120   5.736  0.6881  0.7688 -1.6024
 1104HK4    C1292689   1.283   9.008   5.633  0.1842 -0.1762  0.3833
 1104HK4     H592690   1.361   9.086   5.628 -2.2760  2.2576 -1.1875
 1104HK4    C1392691   1.301   8.901   5.546 -0.0413  0.5388 -0.5428
 1104HK4     H692692   1.392   8.898   5.484  0.7099  1.6818  0.4739
 1104HK4     C792693   0.920   8.953   5.718  0.2953 -0.2018  0.9273
 1104HK4     O292694   0.895   9.052   5.787 -0.4661  0.3981 -0.1922
 1104HK4     C492695   0.809   8.861   5.684  0.4836 -0.1166  0.0980
 1104HK4     C392696   0.678   8.891   5.718  0.3797 -0.1964 -0.2303
 1104HK4     H392697   0.652   8.943   5.811  1.3555 -1.5797  0.8367
 1104HK4     C292698   0.574   8.838   5.642 -0.3408  1.0675 -0.1352
 1104HK4     H292699   0.476   8.887   5.654  0.6091  2.4609  2.2351
 1104HK4     C192700   0.604   8.751   5.538 -0.1708  1.0110 -0.0398
 1104HK4     H192701   0.523   8.705   5.478  2.0426  0.4934 -2.6966
 1104HK4     C692702   0.733   8.699   5.519 -0.5543  0.0956 -0.1621
 1104HK4     C592703   0.836   8.753   5.597 -0.4358 -0.1573 -0.1419
 1104HK4    C1092704   0.976   8.708   5.572 -0.3314 -0.0692  0.2764
 1104HK4     O192705   1.014   8.596   5.607 -0.2178 -0.0071  0.3450
 1104HK4    C1692706   0.756   8.640   5.386 -0.6453  0.1087 -0.1841
 1104HK4    C1592707   0.688   8.683   5.271  0.3998  0.7262 -0.5775
 1104HK4     H792708   0.650   8.786   5.263 -0.8718  0.4896  2.2164
 1104HK4    C2092709   0.659   8.604   5.160  0.1186 -0.4130  0.2928
 1104HK4     H992710   0.605   8.647   5.075  0.4352 -0.9122 -0.1666
 1104HK4    C1992711   0.703   8.472   5.160 -0.0906 -0.4797  0.1884
 1104HK4    C1892712   0.768   8.419   5.278 -0.0797 -0.1935  0.3111
 1104HK4    C1792713   0.795   8.506   5.383  0.7376  0.5034 -0.4616
 1104HK4     H892714   0.831   8.461   5.475 -0.0257 -1.0797 -0.9227
 1104HK4     N192715   0.773   8.279   5.264 -0.2242 -0.1384 -0.2969
 1104HK4    C2192716   0.716   8.244   5.139  0.3517 -0.5231 -0.4494
 1104HK4    C2292717   0.663   8.362   5.075 -0.0823 -0.4197  0.1044
 1104HK4    C2692718   0.586   8.350   4.960  0.1449  0.1405 -0.1101
 1104HK4    H1392719   0.534   8.432   4.910  1.1317 -0.2011 -1.7369
 1104HK4    C2592720   0.560   8.222   4.911  0.3391  0.1415 -0.2175
 1104HK4    H1292721   0.502   8.208   4.820  0.5623  2.3133 -0.7274
 1104HK4    C2492722   0.608   8.108   4.974 -0.0043 -0.1133 -0.4203
 1104HK4    H1192723   0.580   8.014   4.925  2.5075 -0.8022 -0.6409
 1104HK4    C2392724   0.679   8.118   5.093 -0.3162 -0.4149 -0.2122
 1104HK4    H1092725   0.727   8.029   5.135  1.3361 -0.4329 -2.1162
 1104HK4    C3992726   0.844   8.196   5.351 -0.1764 -0.0468 -0.2497
 1104HK4    C4192727   0.805   8.061   5.363 -0.1182 -0.0071  0.3760
 1104HK4    H2192728   0.697   8.038   5.371 -0.0616 -1.5821 -2.6585
 1104HK4    C4292729   0.899   7.965   5.398  0.2739 -0.0195 -0.6935
 1104HK4    H2292730   0.851   7.875   5.440 -0.8202  0.6492 -0.4835
 1104HK4    C4392731   1.032   7.988   5.429 -0.0079  0.0427  0.4952
 1104HK4    H2392732   1.102   7.906   5.441  1.6836  1.4234  0.2639
 1104HK4    C4492733   1.068   8.121   5.412  0.2499  0.0336  0.9598
 1104HK4    H2492734   1.176   8.142   5.417  0.3696 -0.2375 -0.4287
 1104HK4    C4592735   0.979   8.223   5.378 -0.1283 -0.5932  0.0621
 1104HK4    H2592736   1.004   8.329   5.392 -2.3994 -0.0979  0.4866
 1105HK4    H2892737   2.586   9.909  10.811  0.8931 -0.8218 -0.5275
 1105HK4    C4892738   2.607   9.991  10.742 -0.3426  0.1409  0.2320
 1105HK4    C4792739   2.645   9.958  10.613 -0.2531  0.0122  0.2896
 1105HK4    H2792740   2.658   9.858  10.569  0.8109  1.0657 -1.8593
 1105HK4    C4692741   2.656  10.063  10.522 -0.8644 -0.1022  0.0831
 1105HK4    H2692742   2.692  10.042  10.420  0.6327  1.5636  0.2523
 1105HK4    C4092743   2.636  10.197  10.558 -0.2723  0.0747 -0.2515
 1105HK4    C5092744   2.613  10.229  10.693  0.0251  0.0722 -0.2010
 1105HK4    H3092745   2.606  10.333  10.728 -2.0521  0.5377 -1.9421
 1105HK4    C4992746   2.598  10.124  10.783  0.0250  0.2393 -0.0101
 1105HK4    H2992747   2.625  10.141  10.888 -2.8519  1.3540  0.6065
 1105HK4     N292748   2.656  10.301  10.465  0.1360  0.5755  0.3913
 1105HK4    C3092749   2.734  10.295  10.348 -0.0360 -0.2798  0.3148
 1105HK4    C2992750   2.850  10.226  10.317 -0.3826 -0.5091 -0.5063
 1105HK4    H1592751   2.899  10.188  10.407 -2.5900  0.8629  1.3412
 1105HK4    C2892752   2.912  10.227  10.193 -0.1566 -0.1008 -0.3901
 1105HK4    C2792753   2.866  10.322  10.099  0.0767  0.3917 -0.0104
 1105HK4    H1492754   2.898  10.329   9.994 -0.4575 -2.4442 -0.4103
 1105HK4    C3292755   2.758  10.404  10.127 -1.0148 -0.9053 -0.3388
 1105HK4    H1692756   2.741  10.489  10.060  0.0926 -0.4410 -0.0328
 1105HK4    C3192757   2.688  10.389  10.247  0.1577 -0.0069  0.4748
 1105HK4    C3492758   2.561  10.435  10.299 -0.0122  0.1733 -0.0864
 1105HK4    C3392759   2.555  10.395  10.439 -0.0544  0.2454 -0.0693
 1105HK4    C3592760   2.442  10.435  10.510  0.2887  0.7518  0.1967
 1105HK4    H1792761   2.450  10.446  10.618 -1.4253 -0.0947  0.4314
 1105HK4    C3692762   2.336  10.491  10.440 -0.1471 -0.0958  0.1739
 1105HK4    H1892763   2.238  10.481  10.489 -0.5503 -0.2757 -0.6635
 1105HK4    C3792764   2.338  10.528  10.307 -0.4554 -0.4179  0.0762
 1105HK4    H1992765   2.265  10.597  10.265 -0.4058 -1.4963 -1.8358
 1105HK4    C3892766   2.455  10.499  10.237 -0.2916 -0.0199  0.1845
 1105HK4    H2092767   2.467  10.515  10.130  1.8523 -1.6214  0.1629
 1105HK4    C1492768   3.023  10.136  10.163 -0.3216 -0.2952 -0.4064
 1105HK4     C992769   3.096  10.141  10.044  0.7516 -0.3597  0.2320
 1105HK4     C892770   3.127  10.021   9.977  0.2569  0.1289 -0.8887
 1105HK4    C1192771   3.105   9.900  10.041 -0.5813  0.5673 -0.3325
 1105HK4     H492772   3.137   9.806   9.993  0.3531 -0.0128  1.3567
 1105HK4    C1292773   3.036   9.892  10.162  0.0890  0.3800  0.0449
 1105HK4     H592774   2.989   9.794  10.177  1.4713 -0.5168 -1.3728
 1105HK4    C1392775   3.011  10.012  10.229 -0.1041  0.1221  0.4328
 1105HK4     H692776   2.978  10.009  10.334 -1.1749 -2.0264  0.0773
 1105HK4     C792777   3.174  10.022   9.836  0.2707 -0.1611 -0.8867
 1105HK4     O292778   3.138   9.933   9.759  0.1178 -0.8305 -0.0508
 1105HK4     C492779   3.229  10.149   9.783  0.2444  0.1208 -0.2342
 1105HK4     C392780   3.302  10.138   9.666  0.2359 -0.2567 -0.2013
 1105HK4     H392781   3.308  10.040   9.615 -1.9791 -0.5877  0.1202
 1105HK4     C292782   3.350  10.251   9.601  0.5320 -0.1277  0.2387
 1105HK4     H292783   3.431  10.236   9.528 -0.0905 -0.2500 -0.4327
 1105HK4     C192784   3.322  10.370   9.665  0.0657 -0.3531  0.4548
 1105HK4     H192785   3.335  10.456   9.597 -2.1696  0.2817  0.7751
 1105HK4     C692786   3.255  10.390   9.788 -0.4431  0.3041  0.0795
 1105HK4     C592787   3.212  10.272   9.850  0.6278 -0.0430  0.1749
 1105HK4    C1092788   3.152  10.267   9.986 -0.1708 -0.1284 -0.1783
 1105HK4     O192789   3.194  10.349  10.068 -0.0910 -0.2296 -0.1171
 1105HK4    C1692790   3.273  10.522   9.849 -0.1317  0.3478 -0.1027
 1105HK4    C1592791   3.384  10.605   9.824  0.0099  0.1629 -0.0861
 1105HK4     H792792   3.482  10.553   9.821  1.2875  2.5127 -0.4272
 1105HK4    C2092793   3.377  10.743   9.841 -0.1097  0.2096 -0.5117
 1105HK4     H992794   3.473  10.795   9.829 -0.3924  0.2831 -2.6302
 1105HK4    C1992795   3.264  10.807   9.889 -0.0047  0.1626 -0.2055
 1105HK4    C1892796   3.148  10.723   9.915  0.0087  0.0615 -0.4734
 1105HK4    C1792797   3.157  10.588   9.887 -0.4868  0.0784 -0.7178
 1105HK4     H892798   3.063  10.536   9.905 -0.3243  0.3744  1.1075
 1105HK4     N192799   3.041  10.796   9.972  0.2850 -0.5309  0.8110
 1105HK4    C2192800   3.088  10.929   9.968  0.1933 -0.5101  0.3269
 1105HK4    C2292801   3.224  10.942   9.921  0.1497  0.0771  0.3628
 1105HK4    C2692802   3.284  11.065   9.898  0.2147 -0.0103  0.0717
 1105HK4    H1392803   3.378  11.072   9.844  0.9270  1.0567  1.4145
 1105HK4    C2592804   3.208  11.178   9.925  0.1237 -0.4281  1.5947
 1105HK4    H1292805   3.255   0.027   9.906 -2.9948  0.9294  0.5427
 1105HK4    C2492806   3.076  11.171   9.966 -0.3901  0.2695  0.0917
 1105HK4    H1192807   3.026   0.021   9.980  2.2191  1.8938 -1.6057
 1105HK4    C2392808   3.019  11.047   9.992  0.4842 -0.2167 -0.3011
 1105HK4    H1092809   2.932  11.039  10.057 -1.1907  1.4875 -2.2436
 1105HK4    C3992810   2.948  10.739  10.060 -0.7164  0.7407  0.5823
 1105HK4    C4192811   2.821  10.796  10.084 -1.0398  0.3814 -0.2377
 1105HK4    H2192812   2.766  10.851  10.006 -0.1369  0.3161 -0.9263
 1105HK4    C4292813   2.758  10.778  10.206 -0.1832  0.0743  0.1649
 1105HK4    H2292814   2.672  10.842  10.231 -0.7535 -1.0121  1.0438
 1105HK4    C4392815   2.813  10.702  10.308  0.1629 -0.2831 -0.2895
 1105HK4    H2392816   2.756  10.685  10.400 -0.7609  0.4655 -0.7211
 1105HK4    C4492817   2.935  10.638  10.287  0.3303 -0.1892  0.3721
 1105HK4    H2492818   2.992  10.593  10.370 -0.3832 -1.3488  0.2420
 1105HK4    C4592819   2.994  10.653  10.162 -0.2130  0.5623  0.2032
 1105HK4    H2592820   3.080  10.587  10.143 -1.2735 -1.8325  3.2636
 1106HK4    H2892821   8.779   0.334   4.997  1.3411  0.4495 -1.6288
 1106HK4    C4892822   8.712   0.287   4.924  0.2088 -0.4529 -0.0224
 1106HK4    C4792823   8.608   0.350   4.857  0.1231 -0.3428  0.2134
 1106HK4    H2792824   8.587   0.458   4.862 -1.4856 -0.6082 -0.4477
 1106HK4    C4692825   8.521   0.271   4.783  0.1917 -0.4114  0.2079
 1106HK4    H2692826   8.422   0.315   4.771 -0.0607 -1.0483 -0.0927
 1106HK4    C4092827   8.543   0.134   4.757  0.1006 -0.3819 -0.0232
 1106HK4    C5092828   8.648   0.074   4.829 -0.5002 -1.0554  0.2935
 1106HK4    H3092829   8.658  11.213   4.846  2.5632 -1.0882 -1.4863
 1106HK4    C4992830   8.730   0.150   4.912  0.0021 -0.4092 -0.7968
 1106HK4    H2992831   8.810   0.108   4.975 -1.7458 -0.4726  1.4055
 1106HK4     N292832   8.463   0.064   4.665 -0.1500  0.0244 -0.1164
 1106HK4    C3092833   8.452  11.172   4.666  0.2327 -0.0056  0.0923
 1106HK4    C2992834   8.424  11.085   4.771 -0.1052  0.1439  0.1246
 1106HK4    H1592835   8.427  11.130   4.870  0.3604 -1.5876  0.9022
 1106HK4    C2892836   8.393  10.950   4.759  0.0885  0.1292 -0.2122
 1106HK4    C2792837   8.395  10.907   4.625  0.2225  0.0036 -0.1697
 1106HK4    H1492838   8.350  10.809   4.610 -0.6010  0.4395 -0.5630
 1106HK4    C3292839   8.423  10.982   4.511  0.0606  0.1394 -0.1185
 1106HK4    H1692840   8.432  10.940   4.411  2.6747 -0.4649  0.3446
 1106HK4    C3192841   8.458  11.115   4.533  0.4090  0.0138  0.0930
 1106HK4    C3492842   8.472  11.229   4.445 -0.6961 -0.0625 -0.1901
 1106HK4    C3392843   8.458   0.099   4.529  0.4316  0.0350 -0.1350
 1106HK4    C3592844   8.434   0.219   4.463 -0.6271  0.0633  0.2992
 1106HK4    H1792845   8.435   0.311   4.521 -1.6909 -0.4725  1.1810
 1106HK4    C3692846   8.435   0.222   4.324  0.0189  0.4212  0.3072
 1106HK4    H1892847   8.433   0.323   4.279  1.5806 -0.1943 -1.1897
 1106HK4    C3792848   8.461   0.110   4.245 -0.3430  0.1626  0.5548
 1106HK4    H1992849   8.476   0.121   4.138  1.6737 -2.6986  0.5268
 1106HK4    C3892850   8.475  11.234   4.306  1.4504  0.0055 -0.1623
 1106HK4    H2092851   8.462  11.147   4.241  0.7380  0.6574 -0.9068
 1106HK4    C1492852   8.429  10.851   4.862 -0.0642  0.2785 -0.0163
 1106HK4     C992853   8.511  10.739   4.846 -0.2458  0.1276  0.0928
 1106HK4     C892854   8.515  10.641   4.947 -0.0687 -0.4481 -0.4694
 1106HK4    C1192855   8.422  10.650   5.050  0.4312  0.2027 -0.0664
 1106HK4     H492856   8.402  10.562   5.112 -0.4936  1.5486  1.5888
 1106HK4    C1292857   8.343  10.763   5.068  0.1810  0.0300 -0.0774
 1106HK4     H592858   8.273  10.777   5.153  0.1559  2.4822 -0.4544
 1106HK4    C1392859   8.347  10.867   4.976  0.3374  0.3326  0.2669
 1106HK4     H692860   8.276  10.950   4.983 -0.1045  0.0345 -0.4933
 1106HK4     C792861   8.610  10.528   4.938  0.7204  0.1356  0.3520
 1106HK4     O292862   8.590  10.434   5.015 -0.1431 -0.5652 -0.7229
 1106HK4     C492863   8.701  10.508   4.824 -0.1200 -0.2778 -0.2506
 1106HK4     C392864   8.800  10.411   4.812 -0.0899 -0.1845 -0.7986
 1106HK4     H392865   8.822  10.346   4.898 -1.0213  0.5474 -0.0013
 1106HK4     C292866   8.868  10.383   4.694 -0.0497 -0.0897 -0.7962
 1106HK4     H292867   8.944  10.303   4.691  0.4325  0.2981  0.7116
 1106HK4     C192868   8.832  10.454   4.580  0.0730 -0.4116 -1.0320
 1106HK4     H192869   8.878  10.441   4.481  1.1658  0.1035 -0.5980
 1106HK4     C692870   8.733  10.554   4.586  0.3791 -0.1709  0.2222
 1106HK4     C592871   8.674  10.585   4.709  0.0855  0.1601 -0.0056
 1106HK4    C1092872   8.610  10.717   4.736 -0.5457 -0.1173 -0.1282
 1106HK4     O192873   8.671  10.817   4.699 -0.3606 -0.5059 -0.8666
 1106HK4    C1692874   8.684  10.602   4.456  0.1544  0.0280  0.3814
 1106HK4    C1592875   8.549  10.638   4.437  0.1220 -0.1947  0.2117
 1106HK4     H792876   8.474  10.646   4.518 -0.1726  0.6100 -0.1357
 1106HK4    C2092877   8.502  10.676   4.312  0.1174 -0.4764  0.1274
 1106HK4     H992878   8.396  10.687   4.291  0.0898  3.7024  1.8845
 1106HK4    C1992879   8.590  10.688   4.204  0.0927  0.3303  0.1898
 1106HK4    C1892880   8.729  10.650   4.222 -0.0921 -0.2831  0.3262
 1106HK4    C1792881   8.771  10.611   4.348  0.0078 -0.5485  0.2116
 1106HK4     H892882   8.878  10.623   4.361 -0.0985  1.1958 -0.4792
 1106HK4     N192883   8.791  10.650   4.095 -0.2318 -0.3737  0.2550
 1106HK4    C2192884   8.695  10.692   4.001  0.4372  1.8280  0.5128
 1106HK4    C2292885   8.566  10.716   4.064 -0.2829 -0.6200  0.0546
 1106HK4    C2692886   8.456  10.739   3.982  0.0520  0.1627 -0.1859
 1106HK4    H1392887   8.356  10.762   4.019 -0.7046 -0.3242 -1.8771
 1106HK4    C2592888   8.469  10.740   3.844 -0.0119  0.5517 -0.1894
 1106HK4    H1292889   8.385  10.748   3.774  0.9136 -1.0462 -1.5487
 1106HK4    C2492890   8.590  10.713   3.782 -0.0340 -0.4910  0.2174
 1106HK4    H1192891   8.608  10.722   3.674 -0.5314 -0.0758  0.1746
 1106HK4    C2392892   8.701  10.689   3.863 -0.1483 -0.0423  0.5032
 1106HK4    H1092893   8.794  10.709   3.809 -0.0513  0.8513  0.9951
 1106HK4    C3992894   8.906  10.578   4.061 -0.2959 -0.2559 -0.2018
 1106HK4    C4192895   8.977  10.616   3.945  0.2946 -0.6531  0.0298
 1106HK4    H2192896   8.965  10.716   3.901  1.2950 -0.9432 -0.9254
 1106HK4    C4292897   9.081  10.538   3.894  0.1121 -0.4480 -0.6613
 1106HK4    H2292898   9.131  10.563   3.799 -1.3165  0.0556 -1.3092
 1106HK4    C4392899   9.118  10.419   3.954  0.3362 -0.0600 -0.0394
 1106HK4    H2392900   9.212  10.373   3.924  0.3700 -1.5810  2.2449
 1106HK4    C4492901   9.042  10.379   4.063  0.0633  0.2964 -0.0995
 1106HK4    H2492902   9.046  10.276   4.104 -1.8488 -0.2350 -1.1621
 1106HK4    C4592903   8.942  10.456   4.121  0.1444  0.1098  0.2924
 1106HK4    H2592904   8.907  10.418   4.218  0.6314 -1.6232 -0.1865
 1107HK4    H2892905  10.651   8.424   9.902 -1.6742 -0.9360  2.3918
 1107HK4    C4892906  10.725   8.351   9.934  0.3812 -0.0074 -0.0666
 1107HK4    C4792907  10.779   8.352  10.062  0.2099 -0.2741  0.0084
 1107HK4    H2792908  10.740   8.406  10.150  0.4006  1.3061 -0.8606
 1107HK4    C4692909  10.887   8.270  10.091  0.0329 -0.3903  0.3481
 1107HK4    H2692910  10.878   8.234  10.194 -1.3507 -2.1671 -0.3833
 1107HK4    C4092911  10.946   8.189   9.992  0.2505  0.1105  0.0653
 1107HK4    C5092912  10.886   8.188   9.864 -0.2043 -0.3268  0.2815
 1107HK4    H3092913  10.915   8.115   9.787  0.7092 -2.9915  3.0377
 1107HK4    C4992914  10.777   8.269   9.834  0.6434  0.5802 -0.4103
 1107HK4    H2992915  10.733   8.258   9.734 -1.7873 -2.0909  0.8826
 1107HK4     N292916  11.067   8.123  10.012 -0.0432 -0.4199  0.0902
 1107HK4    C3092917  11.173   8.168  10.093 -0.1207 -0.4563  0.2163
 1107HK4    C2992918  11.190   8.291  10.158 -0.3420 -0.0869 -0.4202
 1107HK4    H1592919  11.098   8.348  10.165  0.5095  0.9967  2.3577
 1107HK4    C2892920   0.051   8.323  10.238 -0.3951 -0.3352 -0.2504
 1107HK4    C2792921   0.154   8.227  10.245  0.4031  0.5089 -0.3050
 1107HK4    H1492922   0.241   8.236  10.311  0.4336 -0.9465 -0.1341
 1107HK4    C3292923   0.140   8.101  10.188  0.3785  0.6213 -0.5539
 1107HK4    H1692924   0.226   8.033  10.185 -0.5686 -0.8134  2.5906
 1107HK4    C3192925   0.024   8.066  10.119  0.0173 -0.2543  0.4932
 1107HK4    C3492926  11.228   7.952  10.042  0.1492 -0.1262  0.2300
 1107HK4    C3392927  11.100   7.988   9.985  0.3591 -0.2418 -0.3196
 1107HK4    C3592928  11.041   7.896   9.899 -0.1942 -0.6006  0.4358
 1107HK4    H1792929  10.945   7.915   9.850 -0.3614 -1.0070  0.6019
 1107HK4    C3692930  11.096   7.770   9.876  0.1950 -0.3287 -0.1300
 1107HK4    H1892931  11.036   7.704   9.811 -3.3606  2.3562  0.2363
 1107HK4    C3792932  11.218   7.737   9.933  0.2001 -0.1805 -0.0521
 1107HK4    H1992933   0.006   7.637   9.908 -2.0362 -1.1373  0.4520
 1107HK4    C3892934   0.037   7.828  10.014  0.1841 -0.0098 -0.2292
 1107HK4    H2092935   0.130   7.794  10.059 -1.4310 -0.7728  2.7018
 1107HK4    C1492936   0.073   8.459  10.289  0.0630 -0.8448  0.9475
 1107HK4     C992937   0.198   8.513  10.320 -0.0839  0.4110 -0.5591
 1107HK4     C892938   0.217   8.596  10.432  0.1200 -0.2754 -0.0828
 1107HK4    C1192939   0.101   8.637  10.497  0.4528 -0.2615  0.5055
 1107HK4     H492940   0.108   8.704  10.584 -0.5621  2.5312 -1.4974
 1107HK4    C1292941  11.220   8.600  10.461  0.3585  0.1726  0.3966
 1107HK4     H592942  11.132   8.649  10.504 -0.1797 -1.4746  1.2107
 1107HK4    C1392943  11.208   8.511  10.355  0.2057  0.1684  0.4171
 1107HK4     H692944  11.107   8.485  10.319  0.1886  0.1115  0.5059
 1107HK4     C792945   0.352   8.633  10.481 -0.0426 -0.0352  0.1914
 1107HK4     O292946   0.360   8.726  10.561  0.1666 -0.4676  0.6815
 1107HK4     C492947   0.467   8.587  10.399 -0.0994  0.7065 -0.3078
 1107HK4     C392948   0.594   8.614  10.448 -0.1300  0.2402  0.0346
 1107HK4     H392949   0.607   8.667  10.544 -0.3437  1.5309 -0.6298
 1107HK4     C292950   0.712   8.593  10.378 -0.0212  0.4444  0.1566
 1107HK4     H292951   0.809   8.603  10.428  0.0345  0.6614  0.0055
 1107HK4     C192952   0.693   8.525  10.257 -0.0791 -0.1738  0.5079
 1107HK4     H192953   0.778   8.524  10.187 -0.1301 -0.2693  0.4485
 1107HK4     C692954   0.570   8.480  10.207  0.1805  0.1286 -0.4059
 1107HK4     C592955   0.455   8.524  10.273  0.3415 -0.2023  0.0955
 1107HK4    C1092956   0.314   8.510  10.226  0.3020  0.7571 -0.0937
 1107HK4     O192957   0.291   8.559  10.116  0.2226 -0.3925 -0.5937
 1107HK4    C1692958   0.576   8.344  10.153 -0.0437 -0.1877  0.3681
 1107HK4    C1592959   0.675   8.249  10.188  0.3636  0.0973 -0.0244
 1107HK4     H792960   0.766   8.276  10.243  0.0846 -0.0987  0.5314
 1107HK4    C2092961   0.670   8.120  10.138  0.1311  0.1280 -0.0856
 1107HK4     H992962   0.754   8.053  10.157 -0.1729 -0.5342 -1.0690
 1107HK4    C1992963   0.572   8.078  10.048 -0.1004 -0.2685  0.3463
 1107HK4    C1892964   0.477   8.175   9.998  0.1017 -0.4214 -0.3437
 1107HK4    C1792965   0.487   8.302  10.054  0.4231 -0.6606  0.1451
 1107HK4     H892966   0.421   8.380  10.018  1.0342  1.0711  2.6355
 1107HK4     N192967   0.384   8.120   9.908 -0.3423 -0.1697 -0.0387
 1107HK4    C2192968   0.420   7.984   9.892  0.0015 -0.0236 -0.4887
 1107HK4    C2292969   0.536   7.958   9.974 -0.6090 -0.1153  0.3446
 1107HK4    C2692970   0.591   7.831   9.978 -0.6433 -0.1152  1.0255
 1107HK4    H1392971   0.678   7.813  10.041 -0.0577 -0.8558  0.0295
 1107HK4    C2592972   0.523   7.723   9.921 -0.1312  0.0185  0.1621
 1107HK4    H1292973   0.561   7.621   9.927 -2.3895 -0.9451 -1.4764
 1107HK4    C2492974   0.410   7.747   9.844 -0.3544  0.0748  0.5107
 1107HK4    H1192975   0.377   7.678   9.765 -0.8413  2.3049 -1.2821
 1107HK4    C2392976   0.360   7.876   9.828 -0.3862 -0.0172 -0.1376
 1107HK4    H1092977   0.256   7.887   9.796 -0.6738 -2.4109 -0.0795
 1107HK4    C3992978   0.315   8.191   9.810  0.0531 -0.4663 -0.5353
 1107HK4    C4192979   0.186   8.140   9.784 -0.3853  0.2311  0.2443
 1107HK4    H2192980   0.128   8.093   9.866 -1.9927  1.8900  0.0916
 1107HK4    C4292981   0.122   8.151   9.661  0.3322 -0.3650 -0.1866
 1107HK4    H2292982   0.023   8.103   9.655  0.1903 -0.6736  3.4931
 1107HK4    C4392983   0.190   8.230   9.569  0.2345  0.3255  0.3300
 1107HK4    H2392984   0.146   8.251   9.471 -0.1719  0.8105  0.6173
 1107HK4    C4492985   0.317   8.284   9.586  0.5256 -0.3799  0.4255
 1107HK4    H2492986   0.342   8.369   9.520 -0.8415 -0.5825 -0.3795
 1107HK4    C4592987   0.382   8.260   9.706  0.8632  0.0683  0.3369
 1107HK4    H2592988   0.487   8.283   9.728  0.4719  2.2907 -0.0625
 1108HK4    H2892989   3.666   3.262   5.980  0.2324  0.2362 -0.1768
 1108HK4    C4892990   3.747   3.305   6.039 -0.2351  0.7057  0.1331
 1108HK4    C4792991   3.740   3.431   6.097 -0.2458  0.3097  0.9912
 1108HK4    H2792992   3.662   3.499   6.058 -0.5365 -0.2441  0.6099
 1108HK4    C4692993   3.836   3.472   6.190  0.4166  0.6333  0.1706
 1108HK4    H2692994   3.858   3.579   6.203  0.9202  0.4901  0.5115
 1108HK4    C4092995   3.934   3.381   6.233  0.0302  0.2055  0.1626
 1108HK4    C5092996   3.944   3.256   6.168 -0.4548  0.2197  0.0615
 1108HK4    H3092997   4.007   3.178   6.213  0.4910  1.4471  0.9116
 1108HK4    C4992998   3.852   3.221   6.070 -0.5724  0.2906  0.1454
 1108HK4    H2992999   3.862   3.125   6.016  0.8302 -0.6029  1.9154
 1108HK4     N293000   4.017   3.412   6.342  0.1204  0.2832  0.0722
 1108HK4    C3093001   3.981   3.503   6.444 -0.4831  0.1045  0.0256
 1108HK4    C2993002   3.859   3.560   6.478 -0.5870 -0.0091 -0.1566
 1108HK4    H1593003   3.764   3.528   6.435  0.3594 -0.6863 -1.7792
 1108HK4    C2893004   3.857   3.653   6.581  0.3484  0.1629 -0.2883
 1108HK4    C2793005   3.973   3.685   6.655 -0.0944  0.4719  0.2703
 1108HK4    H1493006   3.965   3.766   6.730 -3.7883  1.2322 -0.8228
 1108HK4    C3293007   4.096   3.628   6.624 -0.4997 -0.3524  0.1575
 1108HK4    H1693008   4.183   3.646   6.688  0.5377  0.3924 -1.4424
 1108HK4    C3193009   4.099   3.532   6.524 -0.5612 -0.6237  0.4135
 1108HK4    C3493010   4.204   3.445   6.476 -0.3594 -0.1817  0.0425
 1108HK4    C3393011   4.153   3.380   6.356 -0.0754 -0.5367  0.1119
 1108HK4    C3593012   4.237   3.292   6.289  0.5165 -0.0933  0.2661
 1108HK4    H1793013   4.217   3.284   6.183 -1.1459  0.5002  0.5185
 1108HK4    C3693014   4.366   3.272   6.338  0.8612  0.3069 -0.4705
 1108HK4    H1893015   4.439   3.207   6.287  2.1934  0.7963  0.7752
 1108HK4    C3793016   4.409   3.327   6.459 -0.6982  0.0930  0.2022
 1108HK4    H1993017   4.510   3.298   6.488 -0.1351 -0.5922 -2.3299
 1108HK4    C3893018   4.325   3.409   6.533 -0.5262 -0.0018  0.5024
 1108HK4    H2093019   4.356   3.469   6.619  0.7283 -1.2404  0.9428
 1108HK4    C1493020   3.723   3.701   6.618  0.3151 -0.3302  0.2414
 1108HK4     C993021   3.712   3.829   6.672 -0.3749 -0.1489 -0.3108
 1108HK4     C893022   3.623   3.866   6.775 -0.0118 -0.0200 -0.0403
 1108HK4    C1193023   3.533   3.766   6.810 -0.0038  0.0366  0.1402
 1108HK4     H493024   3.465   3.781   6.895 -2.5327  2.2661 -2.1491
 1108HK4    C1293025   3.530   3.639   6.755 -0.3017  0.4510 -0.8098
 1108HK4     H593026   3.448   3.570   6.781  1.5923 -1.8895 -0.8629
 1108HK4    C1393027   3.631   3.605   6.665  0.1854 -0.3166  0.0156
 1108HK4     H693028   3.617   3.505   6.622  2.2507  0.6658 -3.1148
 1108HK4     C793029   3.637   3.992   6.852  0.7192 -0.1068 -0.0297
 1108HK4     O293030   3.547   4.032   6.926 -0.2780 -0.8701 -0.8136
 1108HK4     C493031   3.749   4.082   6.817  0.2318  0.3651 -0.3862
 1108HK4     C393032   3.771   4.193   6.897  0.0050  0.0949  0.0518
 1108HK4     H393033   3.728   4.208   6.998  2.4807 -0.0637  1.1729
 1108HK4     C293034   3.881   4.275   6.876  0.1025  0.1746  0.8247
 1108HK4     H293035   3.895   4.374   6.921  1.5680  0.7047 -0.7239
 1108HK4     C193036   3.968   4.238   6.774 -0.8682 -0.0057  0.0522
 1108HK4     H193037   4.055   4.299   6.742 -0.3995 -0.4328  0.4955
 1108HK4     C693038   3.955   4.122   6.696 -0.3824  0.2927 -0.4834
 1108HK4     C593039   3.835   4.051   6.710 -0.2128 -0.0248 -0.6333
 1108HK4    C1093040   3.797   3.940   6.618  0.0328 -0.4285 -0.2473
 1108HK4     O193041   3.793   3.955   6.496  0.5527 -0.2643 -0.2452
 1108HK4    C1693042   4.079   4.047   6.669 -0.2678  0.3668 -0.1647
 1108HK4    C1593043   4.182   4.025   6.762 -0.0371  0.4476 -0.3987
 1108HK4     H793044   4.166   4.075   6.859 -2.4145 -1.0369  0.0308
 1108HK4    C2093045   4.293   3.949   6.728 -0.0858 -0.0003  0.4344
 1108HK4     H993046   4.376   3.951   6.799  1.6369  1.8030 -1.5899
 1108HK4    C1993047   4.299   3.890   6.602  0.1718  0.1935  0.3544
 1108HK4    C1893048   4.203   3.926   6.499  0.2307 -0.0065  0.2289
 1108HK4    C1793049   4.094   4.004   6.537 -0.1631 -0.5081  0.1350
 1108HK4     H893050   4.047   4.060   6.457  0.7051 -1.3635 -0.9862
 1108HK4     N193051   4.245   3.879   6.373  0.1508  0.2854  0.0936
 1108HK4    C2193052   4.358   3.797   6.397 -0.7110 -0.7991  0.4654
 1108HK4    C2293053   4.393   3.801   6.537 -0.0832 -0.0312  0.2937
 1108HK4    C2693054   4.489   3.711   6.582  0.3069  0.1612 -0.1592
 1108HK4    H1393055   4.511   3.705   6.688 -0.7312  0.8569  0.1047
 1108HK4    C2593056   4.556   3.626   6.494 -0.8746 -0.5548 -0.3766
 1108HK4    H1293057   4.641   3.566   6.524 -0.7612 -0.3802 -0.3503
 1108HK4    C2493058   4.526   3.625   6.358 -0.0150  0.0876 -0.5782
 1108HK4    H1193059   4.597   3.589   6.283  0.3105  0.1434 -0.2974
 1108HK4    C2393060   4.426   3.710   6.312 -0.5439 -0.2195 -0.0008
 1108HK4    H1093061   4.406   3.712   6.205 -3.4339 -1.2012  0.4664
 1108HK4    C3993062   4.162   3.874   6.261  0.1009  0.2890  0.1314
 1108HK4    C4193063   4.212   3.871   6.128 -0.2890  0.3376 -0.0150
 1108HK4    H2193064   4.316   3.905   6.118 -0.5718  1.3719  0.4724
 1108HK4    C4293065   4.135   3.842   6.016  0.1423  0.4508 -0.3397
 1108HK4    H2293066   4.181   3.811   5.921 -0.3362 -2.0673  0.2086
 1108HK4    C4393067   3.998   3.821   6.032  0.1736  0.3828 -0.1538
 1108HK4    H2393068   3.935   3.808   5.945  0.5552 -0.0227 -0.3729
 1108HK4    C4493069   3.942   3.825   6.159  0.1220  0.0615 -0.1644
 1108HK4    H2493070   3.833   3.842   6.162 -0.0998 -1.2447 -0.6367
 1108HK4    C4593071   4.024   3.847   6.269  0.2502 -0.5963 -0.1301
 1108HK4    H2593072   3.987   3.834   6.372 -3.4355  1.7336 -1.0883
 1109HK4    H2893073   9.458   3.253   5.596  0.0275  3.1263 -2.3213
 1109HK4    C4893074   9.547   3.216   5.543 -0.0871  0.0615 -0.4570
 1109HK4    C4793075   9.624   3.309   5.475 -0.2148  0.3019 -0.2759
 1109HK4    H2793076   9.632   3.412   5.513 -3.7062  1.2151 -1.8258
 1109HK4    C4693077   9.692   3.268   5.361 -0.0568  0.1156 -0.1123
 1109HK4    H2693078   9.753   3.339   5.304  1.3586 -0.4156  0.6933
 1109HK4    C4093079   9.705   3.132   5.325  0.3902  0.0488  0.2844
 1109HK4    C5093080   9.637   3.039   5.406 -0.2932  0.0381 -0.2935
 1109HK4    H3093081   9.654   2.930   5.400  2.0322  0.2359  1.9422
 1109HK4    C4993082   9.555   3.082   5.510  0.4919 -0.1197  0.3980
 1109HK4    H2993083   9.495   3.011   5.569  0.7670  1.2839  2.3843
 1109HK4     N293084   9.769   3.094   5.207  0.0090 -0.4013  0.2216
 1109HK4    C3093085   9.775   3.175   5.092 -0.2535  0.2558  0.6697
 1109HK4    C2993086   9.705   3.290   5.058 -0.2572 -0.0155 -0.2597
 1109HK4    H1593087   9.614   3.314   5.114 -0.4660 -1.0250 -0.1610
 1109HK4    C2893088   9.743   3.369   4.951 -0.3831  0.1856 -0.1568
 1109HK4    C2793089   9.843   3.317   4.866  0.0163 -0.2059  0.5600
 1109HK4    H1493090   9.875   3.382   4.784  2.4539 -1.2018  0.6902
 1109HK4    C3293091   9.902   3.193   4.886  0.1672 -0.1530  0.4503
 1109HK4    H1693092   9.957   3.145   4.805  0.9572  1.7837 -0.1705
 1109HK4    C3193093   9.871   3.118   4.999 -0.3787  0.2351  0.5556
 1109HK4    C3493094   9.917   2.995   5.059 -0.5376 -0.1188 -0.0451
 1109HK4    C3393095   9.850   2.980   5.187 -0.2353 -0.5473  0.0651
 1109HK4    C3593096   9.886   2.873   5.268  0.1928 -0.0169  0.5775
 1109HK4    H1793097   9.844   2.848   5.365 -0.2622  1.4216  0.7566
 1109HK4    C3693098   9.984   2.784   5.225 -0.3659 -0.3534 -0.0119
 1109HK4    H1893099  10.015   2.700   5.289  1.4823 -0.4227 -0.9602
 1109HK4    C3793100  10.052   2.801   5.105 -0.4551  0.2138  0.0127
 1109HK4    H1993101  10.139   2.737   5.091 -1.2507 -0.3968 -2.5147
 1109HK4    C3893102  10.017   2.906   5.021 -0.8977 -0.3341 -0.4975
 1109HK4    H2093103  10.096   2.952   4.961  0.8805 -0.2809  1.8103
 1109HK4    C1493104   9.649   3.469   4.896  0.4425  0.8100 -0.4383
 1109HK4     C993105   9.629   3.490   4.759 -0.6613  0.1138 -0.3831
 1109HK4     C893106   9.599   3.619   4.712  0.2560  0.5243  0.1431
 1109HK4    C1193107   9.569   3.718   4.805 -0.0037  0.5793  0.0013
 1109HK4     H493108   9.541   3.820   4.775  0.3204  0.6509 -0.0640
 1109HK4    C1293109   9.578   3.695   4.942  0.2647 -0.1437 -0.1351
 1109HK4     H593110   9.580   3.782   5.008 -0.5710  0.0084 -0.3020
 1109HK4    C1393111   9.624   3.572   4.989  0.3273  0.0690  0.3588
 1109HK4     H693112   9.675   3.560   5.086 -0.1998 -3.2370  0.2762
 1109HK4     C793113   9.606   3.646   4.567  0.4793  0.0806  0.0712
 1109HK4     O293114   9.612   3.762   4.528  0.3899  0.1252  0.1902
 1109HK4     C493115   9.622   3.536   4.469  0.3408 -0.2072  0.3705
 1109HK4     C393116   9.628   3.558   4.331  0.5203  0.0744  0.4218
 1109HK4     H393117   9.624   3.660   4.291  0.5141 -0.2753 -0.4706
 1109HK4     C293118   9.648   3.457   4.238  0.0176  0.0751  0.3144
 1109HK4     H293119   9.659   3.476   4.131 -0.1488 -0.6018  0.1684
 1109HK4     C193120   9.677   3.328   4.283  0.0179 -0.0769 -0.1132
 1109HK4     H193121   9.688   3.248   4.209 -0.8411 -0.1583 -0.1568
 1109HK4     C693122   9.680   3.304   4.422  0.0892 -0.0665 -0.1111
 1109HK4     C593123   9.644   3.404   4.513  0.0708 -0.3239  0.1650
 1109HK4    C1093124   9.631   3.379   4.660  0.8345 -0.4140  0.2226
 1109HK4     O193125   9.563   3.280   4.687 -0.6011  0.4058 -0.2837
 1109HK4    C1693126   9.700   3.162   4.454 -0.2515 -0.1607 -0.3090
 1109HK4    C1593127   9.778   3.124   4.566 -0.7212 -0.1135  0.0388
 1109HK4     H793128   9.868   3.185   4.584 -0.1580 -0.8396 -0.2535
 1109HK4    C2093129   9.763   2.998   4.622 -0.0411  0.0399  0.5633
 1109HK4     H993130   9.801   2.982   4.723 -1.5388 -0.5395  1.0482
 1109HK4    C1993131   9.676   2.904   4.568  0.0384  0.2105  0.1407
 1109HK4    C1893132   9.599   2.937   4.450 -0.4953  0.3192  0.5111
 1109HK4    C1793133   9.616   3.065   4.400 -0.5862  0.0612 -0.1888
 1109HK4     H893134   9.551   3.096   4.318 -1.9881  0.4749  1.0578
 1109HK4     N193135   9.529   2.821   4.410  0.2682  0.0723 -0.1420
 1109HK4    C2193136   9.560   2.715   4.496 -0.0467  0.2588  0.2023
 1109HK4    C2293137   9.647   2.766   4.600 -0.0713  0.2530  0.2242
 1109HK4    C2693138   9.682   2.682   4.706  0.4529  0.1827 -0.0048
 1109HK4    H1393139   9.767   2.707   4.770  1.3310 -1.3923 -0.5319
 1109HK4    C2593140   9.616   2.563   4.730  0.1374  0.3823  0.1152
 1109HK4    H1293141   9.632   2.513   4.826 -3.7585  0.2029  0.7601
 1109HK4    C2493142   9.526   2.514   4.636  0.2042 -0.0578  0.2832
 1109HK4    H1193143   9.472   2.418   4.645  1.0785 -0.7240 -1.3321
 1109HK4    C2393144   9.508   2.587   4.520  0.1206  0.2421  0.4842
 1109HK4    H1093145   9.484   2.528   4.432  3.2683 -0.5805  0.0854
 1109HK4    C3993146   9.465   2.805   4.286  0.3289 -0.4048 -0.1104
 1109HK4    C4193147   9.355   2.718   4.266 -0.1824  0.2157 -0.0240
 1109HK4    H2193148   9.325   2.646   4.343 -1.3838 -0.5555 -1.1921
 1109HK4    C4293149   9.295   2.703   4.142 -0.5179  0.6088  0.0915
 1109HK4    H2293150   9.214   2.630   4.124 -0.2099  0.7409 -1.9366
 1109HK4    C4393151   9.343   2.768   4.029 -0.0247 -0.5643 -0.3862
 1109HK4    H2393152   9.306   2.737   3.932 -2.0945  0.1238  0.1626
 1109HK4    C4493153   9.461   2.840   4.045 -0.2046 -0.3037 -0.2055
 1109HK4    H2493154   9.512   2.874   3.953  0.6320 -0.9009  0.0343
 1109HK4    C4593155   9.520   2.860   4.169 -0.4985  0.3145 -0.1631
 1109HK4    H2593156   9.614   2.917   4.171 -1.0925  1.2769  1.7748
 1110HK4    H2893157   6.946  10.883   4.107  0.5444 -0.1076 -2.0058
 1110HK4    C4893158   7.052  10.859   4.110  0.4189 -0.5106 -0.1738
 1110HK4    C4793159   7.115  10.874   4.232 -0.3847  0.1872  0.1614
 1110HK4    H2793160   7.063  10.874   4.329  2.5356 -2.3953  1.8213
 1110HK4    C4693161   7.254  10.860   4.235 -0.4287 -0.4422 -0.5495
 1110HK4    H2693162   7.296  10.860   4.337 -0.5409 -2.2155 -0.4913
 1110HK4    C4093163   7.327  10.833   4.118  0.5974 -0.3625  0.0685
 1110HK4    C5093164   7.256  10.814   3.997  0.3194  0.2570  0.1271
 1110HK4    H3093165   7.309  10.771   3.911 -0.2865  1.9834 -1.1249
 1110HK4    C4993166   7.118  10.818   3.994  0.3061 -0.3254 -0.3034
 1110HK4    H2993167   7.059  10.800   3.903  0.8342 -1.3263 -0.4459
 1110HK4     N293168   7.467  10.835   4.121  0.6008  0.2855 -0.2498
 1110HK4    C3093169   7.542  10.815   4.238  0.0264 -0.0576  0.0618
 1110HK4    C2993170   7.530  10.739   4.354 -0.0957  0.2867  0.2761
 1110HK4    H1593171   7.447  10.668   4.352  0.0440  0.1360 -0.5452
 1110HK4    C2893172   7.620  10.727   4.459 -0.2582  0.0300  0.3874
 1110HK4    C2793173   7.731  10.812   4.442 -0.0265 -0.3870 -0.2140
 1110HK4    H1493174   7.802  10.816   4.526  0.2960 -0.0397 -0.4948
 1110HK4    C3293175   7.761  10.889   4.330 -0.1034  0.2785  0.2179
 1110HK4    H1693176   7.841  10.963   4.325  0.0099  0.1236 -0.2445
 1110HK4    C3193177   7.669  10.883   4.226 -0.2432  0.4923  0.3287
 1110HK4    C3493178   7.673  10.933   4.090 -0.2313 -0.3521  0.0171
 1110HK4    C3393179   7.544  10.908   4.028  0.0850  0.0940 -0.8327
 1110HK4    C3593180   7.510  10.971   3.909 -0.3964  0.3457 -0.5620
 1110HK4    H1793181   7.414  10.956   3.859 -0.6798 -0.5007  0.2150
 1110HK4    C3693182   7.605  11.051   3.847  0.0531  0.5842  0.4245
 1110HK4    H1893183   7.573  11.126   3.772 -0.5287  1.0127  1.0985
 1110HK4    C3793184   7.730  11.065   3.906  0.2927 -0.2971  0.1382
 1110HK4    H1993185   7.801  11.100   3.831  1.0117  1.8143  1.7363
 1110HK4    C3893186   7.770  11.011   4.027 -0.1723 -0.1476  0.3583
 1110HK4    H2093187   7.852  11.043   4.090 -0.7907  1.0583  0.5531
 1110HK4    C1493188   7.574  10.673   4.587  0.1352 -0.3009  0.3906
 1110HK4     C993189   7.618  10.718   4.712 -0.0957  0.4330  0.2078
 1110HK4     C893190   7.639  10.620   4.811  0.7265  0.0023 -0.3900
 1110HK4    C1193191   7.604  10.487   4.790  0.2816  0.1701 -0.6941
 1110HK4     H493192   7.646  10.408   4.853  2.3236  2.4214  0.8280
 1110HK4    C1293193   7.547  10.442   4.671 -0.5213 -0.3899 -0.1045
 1110HK4     H593194   7.489  10.349   4.673 -1.7676  0.3911  2.3246
 1110HK4    C1393195   7.536  10.538   4.571  0.4473 -0.3266 -0.1613
 1110HK4     H693196   7.492  10.510   4.474  0.9180  1.3403 -0.8744
 1110HK4     C793197   7.711  10.659   4.934  0.3674 -0.2263 -0.1041
 1110HK4     O293198   7.689  10.588   5.033  0.2672 -0.2934 -0.1759
 1110HK4     C493199   7.778  10.791   4.944  0.0157 -0.0733  0.3040
 1110HK4     C393200   7.871  10.809   5.046 -0.2261  0.2872  0.4586
 1110HK4     H393201   7.868  10.741   5.132 -2.4381 -0.1444  0.0652
 1110HK4     C293202   7.945  10.926   5.059  0.1183  0.0925  0.2710
 1110HK4     H293203   8.029  10.936   5.129 -0.2694  1.3220  0.5858
 1110HK4     C193204   7.906  11.026   4.971  0.5672 -0.2735 -0.3428
 1110HK4     H193205   7.970  11.116   4.976  0.1052  0.2606 -3.1896
 1110HK4     C693206   7.804  11.018   4.874  0.4294  0.2011 -0.2424
 1110HK4     C593207   7.743  10.893   4.853  0.0026  0.2485  0.6751
 1110HK4    C1093208   7.648  10.860   4.744  0.4716  0.3076  0.2485
 1110HK4     O193209   7.556  10.936   4.716  0.1661 -0.1427  0.0310
 1110HK4    C1693210   7.766  11.143   4.808 -0.5202  0.0281 -0.0255
 1110HK4    C1593211   7.798   0.011   4.880 -0.6536  0.2247 -0.2794
 1110HK4     H793212   7.813   0.014   4.989  3.4205  2.9339 -0.8093
 1110HK4    C2093213   7.811   0.138   4.824  0.9050  0.1713 -0.0748
 1110HK4     H993214   7.825   0.225   4.888  0.3907  1.1554 -1.2781
 1110HK4    C1993215   7.775   0.147   4.690  0.8146  0.0722 -0.0590
 1110HK4    C1893216   7.766   0.028   4.609 -0.7004 -0.0098  0.2039
 1110HK4    C1793217   7.757  11.151   4.669 -0.0033 -0.1981 -0.0723
 1110HK4     H893218   7.774  11.064   4.605  0.9271  0.4791 -0.7533
 1110HK4     N193219   7.740   0.062   4.474  0.2168  0.3471  0.1102
 1110HK4    C2193220   7.771   0.199   4.462 -0.3238  0.4569 -0.0543
 1110HK4    C2293221   7.785   0.256   4.594 -0.0023  0.2178  0.0146
 1110HK4    C2693222   7.808   0.391   4.614 -0.0974  0.2340  0.0166
 1110HK4    H1393223   7.842   0.423   4.713 -0.7292 -0.7596  0.5643
 1110HK4    C2593224   7.822   0.470   4.501 -0.5608  0.4686  0.1221
 1110HK4    H1293225   7.846   0.576   4.509  1.4731  0.0401  0.1493
 1110HK4    C2493226   7.815   0.414   4.374 -0.0483  0.2545  0.1885
 1110HK4    H1193227   7.848   0.474   4.288  0.2900 -1.0614 -0.6095
 1110HK4    C2393228   7.788   0.280   4.350  0.4522  0.2087 -0.1202
 1110HK4    H1093229   7.758   0.252   4.249 -1.5521  0.2119  0.4508
 1110HK4    C3993230   7.647  11.243   4.394  0.2116  0.6117 -0.1050
 1110HK4    C4193231   7.653   0.002   4.253 -0.0956  0.8156 -0.1089
 1110HK4    H2193232   7.751   0.028   4.210  0.8146  0.1661  1.5427
 1110HK4    C4293233   7.537  11.229   4.180 -0.0778 -0.1089  0.1229
 1110HK4    H2293234   7.547   0.006   4.073 -3.8567  0.1395 -0.2342
 1110HK4    C4393235   7.420  11.184   4.239 -0.3521  0.0297 -0.3100
 1110HK4    H2393236   7.337  11.152   4.175 -1.6301  1.0263  0.8006
 1110HK4    C4493237   7.413  11.163   4.377  0.0844  0.0034 -0.2950
 1110HK4    H2493238   7.331  11.105   4.420 -1.3997  1.2012 -1.4307
 1110HK4    C4593239   7.526  11.197   4.450  0.2541 -0.0437 -0.5327
 1110HK4    H2593240   7.520  11.188   4.560  0.2141 -0.1642 -0.5453
 1111HK4    H2893241  10.433   5.364   2.763 -0.6114  2.5057  0.2611
 1111HK4    C4893242  10.535   5.398   2.746  0.3413 -0.4313 -0.1761
 1111HK4    C4793243  10.581   5.509   2.815  0.0982 -0.8522  0.6751
 1111HK4    H2793244  10.500   5.563   2.866  0.0105  0.3151 -0.6653
 1111HK4    C4693245  10.712   5.553   2.801 -0.0936 -0.2726  0.6593
 1111HK4    H2693246  10.751   5.623   2.876 -0.6718  0.5662  0.1800
 1111HK4    C4093247  10.798   5.500   2.702 -0.0585  0.0484  0.5198
 1111HK4    C5093248  10.741   5.400   2.621 -0.3734  0.8307 -0.2355
 1111HK4    H3093249  10.792   5.382   2.525 -0.7076  1.4801 -0.5397
 1111HK4    C4993250  10.617   5.344   2.647 -0.0688 -0.0759 -0.7153
 1111HK4    H2993251  10.595   5.250   2.594  0.8514  0.3207 -1.8143
 1111HK4     N293252  10.936   5.522   2.703 -0.0135 -0.1939 -0.0100
 1111HK4    C3093253  11.010   5.533   2.583 -0.2884 -0.7132 -0.2283
 1111HK4    C2993254  10.965   5.565   2.456 -0.1335 -0.0060 -0.1050
 1111HK4    H1593255  10.860   5.594   2.447  0.0431  0.5445 -0.4423
 1111HK4    C2893256  11.049   5.560   2.345  0.0320 -0.4715  0.0416
 1111HK4    C2793257  11.185   5.533   2.368  0.1647  0.1902  0.0525
 1111HK4    H1493258   0.005   5.546   2.283 -2.1767  1.2584 -1.7093
 1111HK4    C3293259  11.235   5.500   2.494 -0.2795 -0.3907  0.0770
 1111HK4    H1693260   0.091   5.486   2.521 -0.4864 -1.8823  0.1274
 1111HK4    C3193261  11.149   5.494   2.603 -0.1657 -0.0758  0.1826
 1111HK4    C3493262  11.163   5.472   2.745  0.0765 -0.1645  0.1450
 1111HK4    C3393263  11.031   5.490   2.802  0.0453  0.0374  0.0079
 1111HK4    C3593264  11.011   5.445   2.932 -0.4502  0.4566  0.0771
 1111HK4    H1793265  10.917   5.471   2.981 -0.0804 -0.3123  1.2258
 1111HK4    C3693266  11.111   5.391   3.012 -0.6266 -0.2738 -0.1982
 1111HK4    H1893267  11.088   5.352   3.112  0.8825  1.8958  1.0328
 1111HK4    C3793268  11.234   5.362   2.953 -0.5480  0.0662 -0.2014
 1111HK4    H1993269   0.067   5.321   3.013 -0.8676 -1.1031 -0.5687
 1111HK4    C3893270   0.010   5.406   2.823  0.3264 -0.0904 -0.0958
 1111HK4    H2093271   0.109   5.393   2.780  1.1545 -1.6284  2.1804
 1111HK4    C1493272  10.994   5.556   2.209  0.1715 -0.1563 -0.0237
 1111HK4     C993273  11.044   5.486   2.098  0.3513  0.0032 -0.0439
 1111HK4     C893274  11.013   5.525   1.966 -0.1644  0.0499  0.0904
 1111HK4    C1193275  10.916   5.624   1.947 -0.1128 -0.0232 -0.5825
 1111HK4     H493276  10.884   5.666   1.851 -3.1347  1.7473  1.1344
 1111HK4    C1293277  10.864   5.694   2.055  1.0575 -0.1887  0.0978
 1111HK4     H593278  10.776   5.759   2.045  1.0417  0.2255  2.5204
 1111HK4    C1393279  10.908   5.665   2.184  0.5836  0.2620  0.3622
 1111HK4     H693280  10.871   5.726   2.268 -0.7777  0.4483 -0.3494
 1111HK4     C793281  11.044   5.442   1.848 -0.0912 -0.0912  0.2117
 1111HK4     O293282  11.058   5.498   1.740  0.4068  0.1824  0.4172
 1111HK4     C493283  11.089   5.303   1.874  0.0408 -0.1045 -0.0853
 1111HK4     C393284  11.093   5.214   1.767  0.4344 -0.1049 -0.0707
 1111HK4     H393285  11.085   5.241   1.661 -0.1139 -3.4322 -0.9275
 1111HK4     C293286  11.145   5.087   1.789  0.6308 -0.0003  0.0758
 1111HK4     H293287  11.135   5.018   1.703  0.9960  2.0794 -1.6747
 1111HK4     C193288  11.216   5.063   1.906  0.0735  0.3435  0.4886
 1111HK4     H193289  11.244   4.958   1.923 -0.3954 -0.1802 -1.8467
 1111HK4     C693290  11.243   5.164   2.000  0.6646  0.3958  0.2684
 1111HK4     C593291  11.155   5.273   1.995 -0.1039 -0.2339 -0.0384
 1111HK4    C1093292  11.117   5.358   2.112 -0.0914 -0.2507 -0.0229
 1111HK4     O193293  11.117   5.291   2.216  0.4473 -0.1152  0.0678
 1111HK4    C1693294   0.122   5.148   2.072  0.6233 -0.0750  0.2316
 1111HK4    C1593295   0.198   5.260   2.109  0.5619  0.1888 -0.4391
 1111HK4     H793296   0.153   5.361   2.109  0.0429 -0.0436 -0.1418
 1111HK4    C2093297   0.323   5.248   2.168  0.2376  0.2567  0.2631
 1111HK4     H993298   0.361   5.338   2.219 -1.0590  1.2948 -0.5827
 1111HK4    C1993299   0.370   5.122   2.205  0.1961  0.1152 -0.1661
 1111HK4    C1893300   0.286   5.006   2.185 -0.0072  0.1572  0.4521
 1111HK4    C1793301   0.166   5.024   2.117 -0.1140 -0.2339  0.5319
 1111HK4     H893302   0.092   4.945   2.129 -0.1813 -0.6594 -2.3535
 1111HK4     N193303   0.354   4.884   2.205 -0.0855  0.0122 -0.1613
 1111HK4    C2193304   0.488   4.925   2.198 -0.0787  0.0770  0.3515
 1111HK4    C2293305   0.504   5.068   2.216  0.1305  0.0571  0.3425
 1111HK4    C2693306   0.626   5.133   2.208 -0.0824  0.4454  0.2285
 1111HK4    H1393307   0.648   5.230   2.253 -0.4819  0.5385  0.2249
 1111HK4    C2593308   0.726   5.045   2.170 -0.1415  0.4673  0.0229
 1111HK4    H1293309   0.826   5.083   2.148  1.0104 -1.5805  1.5149
 1111HK4    C2493310   0.712   4.911   2.136 -0.0047  0.4339  0.0936
 1111HK4    H1193311   0.792   4.859   2.082 -0.7626  1.7754 -2.4388
 1111HK4    C2393312   0.590   4.845   2.147 -0.0628  0.4799 -0.2527
 1111HK4    H1093313   0.558   4.758   2.089  2.9229 -1.2238  0.5669
 1111HK4    C3993314   0.309   4.785   2.295  0.1345  0.4082  0.3832
 1111HK4    C4193315   0.375   4.662   2.314 -0.1861  0.2238  0.3150
 1111HK4    H2193316   0.485   4.667   2.314 -0.1855  0.2152  0.1989
 1111HK4    C4293317   0.308   4.552   2.365  0.4371 -0.4211 -0.2505
 1111HK4    H2293318   0.376   4.468   2.385  0.4686 -0.1260  0.9017
 1111HK4    C4393319   0.179   4.555   2.415  0.3933  0.0004 -0.3911
 1111HK4    H2393320   0.119   4.473   2.455 -0.2716  0.1759 -1.0052
 1111HK4    C4493321   0.120   4.681   2.407 -0.5236 -0.3827  0.2557
 1111HK4    H2493322   0.015   4.694   2.440  0.3585  1.3016  2.6018
 1111HK4    C4593323   0.179   4.792   2.348 -0.0102 -0.6967  0.1786
 1111HK4    H2593324   0.131   4.891   2.349 -0.9993 -1.1645 -0.1100
 1112HK4    H2893325   0.454   6.078   6.080  1.6139 -0.7394 -0.5650
 1112HK4    C4893326   0.468   6.179   6.042 -0.2017  0.0577  0.8070
 1112HK4    C4793327   0.579   6.221   5.970 -0.6040 -0.3045 -0.0318
 1112HK4    H2793328   0.643   6.148   5.918 -0.9709 -0.0604 -0.8420
 1112HK4    C4693329   0.602   6.353   5.933 -0.4936 -0.1655  0.5252
 1112HK4    H2693330   0.688   6.366   5.866 -0.3357 -1.1076  0.5506
 1112HK4    C4093331   0.517   6.455   5.981 -0.1068  0.1450  0.5519
 1112HK4    C5093332   0.399   6.413   6.047 -0.8212  0.3832 -0.5669
 1112HK4    H3093333   0.312   6.479   6.036 -2.2913 -1.7432 -2.2030
 1112HK4    C4993334   0.378   6.279   6.079 -0.4927  0.3262 -0.5843
 1112HK4    H2993335   0.307   6.261   6.161  0.2829 -0.9047 -0.1686
 1112HK4     N293336   0.534   6.588   5.942 -0.1988 -0.0484 -0.1605
 1112HK4    C3093337   0.595   6.632   5.823 -0.1608  0.1027 -0.0862
 1112HK4    C2993338   0.607   6.573   5.697  0.1291 -0.2630  0.1092
 1112HK4    H1593339   0.559   6.478   5.676 -2.3247  0.8861  0.3864
 1112HK4    C2893340   0.666   6.640   5.590 -0.0861 -0.2455  0.0033
 1112HK4    C2793341   0.693   6.778   5.608 -0.5239 -0.1084 -0.3703
 1112HK4    H1493342   0.712   6.844   5.522 -1.2831  1.0005  0.3008
 1112HK4    C3293343   0.672   6.844   5.728 -0.2211 -0.0318 -0.3577
 1112HK4    H1693344   0.705   6.947   5.742 -1.6517  0.8977 -3.2741
 1112HK4    C3193345   0.615   6.775   5.834 -0.3870  0.1504 -0.3286
 1112HK4    C3493346   0.567   6.816   5.964 -0.4788 -0.1339 -0.2712
 1112HK4    C3393347   0.526   6.696   6.033 -0.3441 -0.0935 -0.1196
 1112HK4    C3593348   0.506   6.703   6.171  1.0028 -0.2635  0.0998
 1112HK4    H1793349   0.469   6.615   6.225  0.1460 -0.8735 -1.4293
 1112HK4    C3693350   0.516   6.826   6.233 -0.2938 -0.0660 -0.0615
 1112HK4    H1893351   0.528   6.822   6.342 -0.2187 -0.4028 -0.0819
 1112HK4    C3793352   0.556   6.944   6.170 -0.3933 -0.2662 -0.4967
 1112HK4    H1993353   0.572   7.038   6.222  0.8503  1.6303 -4.1809
 1112HK4    C3893354   0.578   6.937   6.033 -0.0293 -0.0716 -0.4501
 1112HK4    H2093355   0.583   7.021   5.965 -0.6923  0.1863 -0.1864
 1112HK4    C1493356   0.738   6.561   5.491 -0.1318  0.4591 -0.6008
 1112HK4     C993357   0.861   6.594   5.432 -0.2396  0.9666 -0.5338
 1112HK4     C893358   0.888   6.570   5.296  0.1077 -0.1791 -0.2672
 1112HK4    C1193359   0.789   6.507   5.222 -0.3076  0.4033 -0.2098
 1112HK4     H493360   0.811   6.485   5.116  2.9262 -1.3569  0.7570
 1112HK4    C1293361   0.669   6.467   5.279  0.2693 -0.5694  0.3258
 1112HK4     H593362   0.588   6.438   5.210 -1.7332  0.0991  2.3295
 1112HK4    C1393363   0.644   6.488   5.415 -0.7492  0.6678 -0.0420
 1112HK4     H693364   0.551   6.455   5.463  0.3476 -0.2170  1.5098
 1112HK4     C793365   1.023   6.596   5.241  0.1167  0.0459 -0.1400
 1112HK4     O293366   1.040   6.616   5.120 -0.2139 -0.0800 -0.2077
 1112HK4     C493367   1.125   6.656   5.330 -0.3054  0.1985  0.2418
 1112HK4     C393368   1.259   6.661   5.292 -0.2193 -0.4810  0.4505
 1112HK4     H393369   1.280   6.610   5.197  1.1708  0.2713  0.3318
 1112HK4     C293370   1.355   6.730   5.364 -0.3655  0.0804  0.1050
 1112HK4     H293371   1.459   6.723   5.328 -0.6141  2.9751 -1.4054
 1112HK4     C193372   1.318   6.805   5.475  0.2217  0.6485 -0.0758
 1112HK4     H193373   1.394   6.864   5.528  0.4382 -1.0799  1.5756
 1112HK4     C693374   1.182   6.805   5.511  0.2726  0.1074  0.1145
 1112HK4     C593375   1.093   6.712   5.455 -0.0445  0.3272  0.2514
 1112HK4    C1093376   0.968   6.657   5.514 -0.1240  0.1623 -0.0715
 1112HK4     O193377   0.987   6.616   5.628 -0.1345 -0.3847 -0.2635
 1112HK4    C1693378   1.133   6.929   5.572 -0.3125 -0.4082  0.6992
 1112HK4    C1593379   0.994   6.956   5.573 -0.2857 -0.2171 -0.3258
 1112HK4     H793380   0.921   6.880   5.542 -0.7218 -0.2224  0.6851
 1112HK4    C2093381   0.942   7.083   5.596 -0.0426 -0.2374  0.3409
 1112HK4     H993382   0.835   7.096   5.584  0.1473  0.1063 -1.1083
 1112HK4    C1993383   1.030   7.187   5.628  0.2229 -0.1237 -0.7521
 1112HK4    C1893384   1.172   7.162   5.638  0.2591  0.2415 -0.3923
 1112HK4    C1793385   1.215   7.032   5.616 -0.4383 -0.0961  0.2018
 1112HK4     H893386   1.315   7.002   5.648 -0.1047 -1.5573 -2.0356
 1112HK4     N193387   1.245   7.280   5.664  0.1622  0.1567  0.2923
 1112HK4    C2193388   1.148   7.381   5.659  0.0369  0.0120 -0.2516
 1112HK4    C2293389   1.013   7.328   5.659  0.2195 -0.4632  0.8069
 1112HK4    C2693390   0.904   7.413   5.648  0.4520 -0.2643  0.0388
 1112HK4    H1393391   0.809   7.368   5.620 -1.0577  0.8662  3.1213
 1112HK4    C2593392   0.923   7.551   5.640  0.1270 -0.2410 -0.3642
 1112HK4    H1293393   0.839   7.618   5.624 -1.6561 -1.9806  1.3152
 1112HK4    C2493394   1.052   7.602   5.642  0.0784 -0.1331  0.1821
 1112HK4    H1193395   1.064   7.708   5.614 -3.6190  0.5787  0.9897
 1112HK4    C2393396   1.163   7.519   5.653  0.1530  0.0520  0.8260
 1112HK4    H1093397   1.254   7.565   5.693 -0.7381  0.7291  2.1342
 1112HK4    C3993398   1.355   7.280   5.751 -0.0139 -0.4065  0.5122
 1112HK4    C4193399   1.436   7.394   5.761 -0.3563 -0.1064 -0.0913
 1112HK4    H2193400   1.454   7.453   5.670  0.6401  0.0697  0.2058
 1112HK4    C4293401   1.523   7.411   5.869 -0.3498 -0.0355 -0.1071
 1112HK4    H2293402   1.569   7.510   5.878  0.9335 -0.6384  0.1673
 1112HK4    C4393403   1.528   7.316   5.970 -0.1327  0.4554  0.3411
 1112HK4    H2393404   1.621   7.324   6.027 -0.3483 -1.6234  1.0106
 1112HK4    C4493405   1.446   7.204   5.971  0.1262  0.2628  0.0859
 1112HK4    H2493406   1.449   7.126   6.049  1.3277  1.1970  1.0053
 1112HK4    C4593407   1.363   7.190   5.860  0.0525 -0.7155  0.2535
 1112HK4    H2593408   1.299   7.101   5.864 -0.7433 -0.0729  2.2427
 1113HK4    H2893409   4.941   1.628   8.798  0.7645  0.1592  1.4155
 1113HK4    C4893410   5.041   1.628   8.754 -0.2768  0.1283 -1.0471
 1113HK4    C4793411   5.113   1.740   8.713 -0.3949  0.3766 -0.5795
 1113HK4    H2793412   5.064   1.838   8.718  0.1200  0.6120 -0.0155
 1113HK4    C4693413   5.239   1.728   8.656  0.1336  0.1703  0.6092
 1113HK4    H2693414   5.303   1.817   8.650 -0.5570  0.6673  0.5541
 1113HK4    C4093415   5.301   1.602   8.642 -0.1814  0.1132 -0.2856
 1113HK4    C5093416   5.221   1.491   8.675  0.0182  0.1141  0.2024
 1113HK4    H3093417   5.250   1.390   8.641  0.3524 -0.2650  1.6022
 1113HK4    C4993418   5.094   1.502   8.730 -0.1258  0.0059 -0.1089
 1113HK4    H2993419   5.031   1.419   8.768 -2.9191  1.3972 -1.5036
 1113HK4     N293420   5.421   1.584   8.572 -0.1819 -0.2012 -0.1994
 1113HK4    C3093421   5.476   1.675   8.479  0.4891  0.4091  0.7825
 1113HK4    C2993422   5.425   1.791   8.422 -0.1666 -0.4633 -0.4228
 1113HK4    H1593423   5.321   1.820   8.434  0.1182  0.2684  0.2957
 1113HK4    C2893424   5.506   1.860   8.333  0.0281 -0.1453  0.0002
 1113HK4    C2793425   5.633   1.809   8.299 -0.0423  0.1329 -0.6889
 1113HK4    H1493426   5.694   1.867   8.228 -1.4277  0.2544 -1.8100
 1113HK4    C3293427   5.683   1.691   8.352  0.0408  0.5496  0.1706
 1113HK4    H1693428   5.763   1.636   8.302 -0.5980 -0.0410 -0.2200
 1113HK4    C3193429   5.608   1.624   8.448 -0.2338 -0.5620 -0.7954
 1113HK4    C3493430   5.630   1.502   8.522  0.1086  0.1818  0.3503
 1113HK4    C3393431   5.509   1.477   8.598 -0.2093 -0.2468 -0.2930
 1113HK4    C3593432   5.510   1.369   8.686  0.3024  0.0415  0.0580
 1113HK4    H1793433   5.423   1.339   8.746  0.6116  0.2469  0.6157
 1113HK4    C3693434   5.630   1.303   8.709  0.1087 -0.2300  0.2847
 1113HK4    H1893435   5.640   1.226   8.787 -1.6212  1.1626  1.9421
 1113HK4    C3793436   5.750   1.340   8.650 -0.1687 -0.2867 -0.3180
 1113HK4    H1993437   5.846   1.300   8.681 -0.6742 -1.1746  0.1270
 1113HK4    C3893438   5.750   1.437   8.550  0.0651 -0.1235 -0.1627
 1113HK4    H2093439   5.830   1.436   8.476 -0.6686 -1.1454 -0.9586
 1113HK4    C1493440   5.447   1.971   8.256  0.1508 -0.1256 -0.0667
 1113HK4     C993441   5.500   2.012   8.133  0.2324  0.3525  0.1274
 1113HK4     C893442   5.509   2.144   8.084 -0.0878  0.2658 -0.1660
 1113HK4    C1193443   5.445   2.242   8.158 -0.6154 -0.0388 -0.2144
 1113HK4     H493444   5.469   2.347   8.133 -1.0780  0.4694  1.3711
 1113HK4    C1293445   5.384   2.200   8.276 -0.0038 -0.3030  0.0108
 1113HK4     H593446   5.315   2.269   8.325 -0.6305 -0.5597 -0.5036
 1113HK4    C1393447   5.387   2.073   8.332  0.0915 -0.2704  0.0788
 1113HK4     H693448   5.315   2.047   8.412  1.7724 -0.2005  1.6497
 1113HK4     C793449   5.581   2.179   7.959 -0.0430 -0.5208 -0.3664
 1113HK4     O293450   5.557   2.284   7.899  0.1942 -0.3833 -0.2239
 1113HK4     C493451   5.665   2.076   7.896  0.3315 -0.1318 -0.5041
 1113HK4     C393452   5.758   2.107   7.797  0.4256  0.2602 -0.2962
 1113HK4     H393453   5.780   2.211   7.771 -3.0494  1.2022  0.2797
 1113HK4     C293454   5.829   2.010   7.727  0.2572 -0.3378  0.3521
 1113HK4     H293455   5.884   2.037   7.635  1.4360 -1.4714  0.7066
 1113HK4     C193456   5.812   1.879   7.770 -0.0867 -0.3941  0.0430
 1113HK4     H193457   5.863   1.800   7.712 -1.1288 -0.9293 -0.1624
 1113HK4     C693458   5.724   1.838   7.872 -0.0925  0.4510  0.3746
 1113HK4     C593459   5.645   1.940   7.927 -0.7146  0.1464  0.0440
 1113HK4    C1093460   5.546   1.910   8.034 -0.3454 -0.0939  0.3223
 1113HK4     O193461   5.474   1.812   8.012 -0.1566 -0.2032  0.1917
 1113HK4    C1693462   5.769   1.719   7.945  0.0426  0.1991 -0.1178
 1113HK4    C1593463   5.903   1.712   7.989 -0.1100 -0.1396  0.3018
 1113HK4     H793464   5.971   1.793   7.958 -1.4525 -0.2079 -3.0295
 1113HK4    C2093465   5.953   1.597   8.049 -0.3471 -0.2028  0.3758
 1113HK4     H993466   6.057   1.568   8.034 -1.0811 -1.8081 -1.8506
 1113HK4    C1993467   5.863   1.495   8.079 -0.2731 -0.3248  0.1755
 1113HK4    C1893468   5.723   1.502   8.042 -0.0094 -0.0208 -0.7934
 1113HK4    C1793469   5.681   1.616   7.974 -0.1662  0.4157  0.0224
 1113HK4     H893470   5.584   1.608   7.925 -0.8821 -0.8566  1.5781
 1113HK4     N193471   5.654   1.382   8.069  0.0857  0.0128 -0.4060
 1113HK4    C2193472   5.751   1.297   8.126 -0.1663  0.4433  0.6915
 1113HK4    C2293473   5.881   1.361   8.130  0.0679 -0.0385  0.8093
 1113HK4    C2693474   6.003   1.293   8.133 -0.1904 -0.5564 -0.0914
 1113HK4    H1393475   6.098   1.346   8.131 -0.2881 -0.1985  2.6720
 1113HK4    C2593476   6.004   1.154   8.128  0.0829 -0.5316 -0.6590
 1113HK4    H1293477   6.096   1.097   8.135 -0.1399 -0.8544 -0.3667
 1113HK4    C2493478   5.881   1.090   8.126 -0.2406  0.0786 -0.2038
 1113HK4    H1193479   5.886   0.982   8.112  1.3835 -0.0706  1.3582
 1113HK4    C2393480   5.759   1.158   8.125 -0.0342  0.4527 -0.2129
 1113HK4    H1093481   5.664   1.106   8.130  0.0870  0.1474 -1.0309
 1113HK4    C3993482   5.519   1.359   8.100  0.2043 -0.5183 -0.2674
 1113HK4    C4193483   5.453   1.238   8.070  0.1366 -0.5545  0.0352
 1113HK4    H2193484   5.502   1.169   8.000  0.2792  1.4256 -1.9031
 1113HK4    C4293485   5.332   1.211   8.133  0.0036  0.0571  0.0467
 1113HK4    H2293486   5.308   1.104   8.128 -0.4787  0.2027 -0.8014
 1113HK4    C4393487   5.266   1.305   8.211  0.4692  0.1474  0.3307
 1113HK4    H2393488   5.160   1.291   8.232  0.4726 -0.1516  0.1495
 1113HK4    C4493489   5.326   1.429   8.233  0.3614  0.1393  0.6636
 1113HK4    H2493490   5.269   1.514   8.273  2.0714  1.9785 -0.6962
 1113HK4    C4593491   5.452   1.453   8.181  0.0808 -0.5435 -0.3389
 1113HK4    H2593492   5.495   1.555   8.183 -0.8979 -0.1401  1.4253
 1114HK4    H2893493   2.983   6.391   6.284 -1.3247  0.1985  0.6748
 1114HK4    C4893494   2.971   6.420   6.180 -0.3882  0.0315  0.5212
 1114HK4    C4793495   2.868   6.361   6.108  0.5025 -0.5901 -0.2519
 1114HK4    H2793496   2.791   6.303   6.162  2.0199 -2.2398  0.2053
 1114HK4    C4693497   2.861   6.364   5.969 -0.4618 -0.7320 -0.2134
 1114HK4    H2693498   2.780   6.320   5.909  1.3449 -2.1232 -1.6883
 1114HK4    C4093499   2.961   6.427   5.892 -0.0854 -0.6680  0.3247
 1114HK4    C5093500   3.064   6.485   5.969 -0.3117  0.2226 -0.0412
 1114HK4    H3093501   3.149   6.525   5.912 -1.8473  0.8849 -1.9215
 1114HK4    C4993502   3.072   6.484   6.108 -0.6214 -0.2103 -0.0244
 1114HK4    H2993503   3.170   6.492   6.156 -0.3079  0.9545 -0.8391
 1114HK4     N293504   2.940   6.477   5.763 -0.2473  0.2964  0.7271
 1114HK4    C3093505   2.815   6.511   5.707  0.1237  0.6026  0.0758
 1114HK4    C2993506   2.685   6.516   5.758  0.0667 -0.0737  0.0056
 1114HK4    H1593507   2.683   6.539   5.864  0.8305 -0.6596  0.1536
 1114HK4    C2893508   2.574   6.539   5.678  0.0957 -0.2967 -0.0987
 1114HK4    C2793509   2.602   6.569   5.544  0.3535 -0.5330 -0.0993
 1114HK4    H1493510   2.512   6.584   5.482  0.2536  0.0522  0.1818
 1114HK4    C3293511   2.729   6.578   5.488  0.2649  0.1952 -0.1977
 1114HK4    H1693512   2.741   6.591   5.380 -2.4833 -0.4233 -0.6155
 1114HK4    C3193513   2.836   6.538   5.566 -0.0495 -0.6522 -0.1954
 1114HK4    C3493514   2.976   6.518   5.533  0.0708  0.0654 -0.1069
 1114HK4    C3393515   3.036   6.480   5.660 -0.6177  0.6179  0.3902
 1114HK4    C3593516   3.157   6.412   5.659 -0.6329  0.5962  0.0095
 1114HK4    H1793517   3.204   6.386   5.754 -1.7735 -0.5705  0.2678
 1114HK4    C3693518   3.219   6.394   5.536 -0.3942 -0.5782  0.2968
 1114HK4    H1893519   3.319   6.349   5.531  0.1473  0.7248 -1.1042
 1114HK4    C3793520   3.168   6.435   5.413  0.0828  0.4024  0.4216
 1114HK4    H1993521   3.217   6.411   5.319  1.0812  2.3049  0.4376
 1114HK4    C3893522   3.046   6.501   5.414  0.2237  0.6768 -0.1072
 1114HK4    H2093523   3.005   6.547   5.324  0.3845  1.2018  0.0820
 1114HK4    C1493524   2.441   6.490   5.720 -0.0038 -0.1476 -0.2410
 1114HK4     C993525   2.335   6.461   5.634  0.0686  0.0658 -0.4059
 1114HK4     C893526   2.202   6.490   5.672  0.3251  0.7318 -0.0193
 1114HK4    C1193527   2.176   6.511   5.807  0.3940 -0.4164  0.1810
 1114HK4     H493528   2.071   6.530   5.835  0.4574 -1.3624  1.1102
 1114HK4    C1293529   2.281   6.532   5.896  0.5749  0.4947 -0.2360
 1114HK4     H593530   2.262   6.551   6.003 -0.4897  2.3983 -0.7543
 1114HK4    C1393531   2.413   6.526   5.853  0.5959 -0.2569 -0.0847
 1114HK4     H693532   2.487   6.565   5.926 -0.2573  0.3800  0.4561
 1114HK4     C793533   2.098   6.483   5.568  0.0065  0.0680  0.3371
 1114HK4     O293534   1.981   6.503   5.599  0.0959  0.3780  0.4787
 1114HK4     C493535   2.139   6.441   5.432 -0.3717 -0.3419  0.3526
 1114HK4     C393536   2.049   6.455   5.327  0.0504 -0.6256 -0.0485
 1114HK4     H393537   1.951   6.495   5.358  0.4278 -0.3609  0.8248
 1114HK4     C293538   2.079   6.418   5.196  0.1604  0.1531 -0.2492
 1114HK4     H293539   1.997   6.422   5.124 -1.7807 -1.8211  1.7898
 1114HK4     C193540   2.208   6.375   5.168  0.4060  0.5813  0.1986
 1114HK4     H193541   2.241   6.354   5.065 -0.8919  1.8870 -0.4902
 1114HK4     C693542   2.307   6.358   5.267  0.4871 -0.3132 -0.0325
 1114HK4     C593543   2.267   6.394   5.396 -0.3805  0.2578 -0.4636
 1114HK4    C1093544   2.364   6.386   5.509 -0.2592  0.2123 -0.5700
 1114HK4     O193545   2.436   6.287   5.520  0.1315  0.5846  0.2584
 1114HK4    C1693546   2.441   6.403   5.225  0.1803  0.3809 -0.2616
 1114HK4    C1593547   2.456   6.502   5.125 -0.3829  0.0261 -0.7019
 1114HK4     H793548   2.370   6.568   5.107 -0.8857 -0.3324  0.3000
 1114HK4    C2093549   2.575   6.523   5.057  0.0467  0.3548  0.1359
 1114HK4     H993550   2.583   6.594   4.974 -0.3923 -0.4096 -0.5751
 1114HK4    C1993551   2.681   6.438   5.084 -0.2842 -0.0672  0.1050
 1114HK4    C1893552   2.674   6.330   5.180 -0.0301 -0.2560 -0.0811
 1114HK4    C1793553   2.548   6.316   5.239 -0.3383 -0.3475 -0.7656
 1114HK4     H893554   2.510   6.218   5.265  0.4228 -0.5126 -0.2646
 1114HK4     N193555   2.800   6.272   5.205  0.0818  0.0710  0.1105
 1114HK4    C2193556   2.892   6.353   5.136  0.0369  0.2559  0.2645
 1114HK4    C2293557   2.824   6.459   5.065 -0.2725  0.2447  0.5482
 1114HK4    C2693558   2.895   6.541   4.978  0.1802 -0.3341  0.3727
 1114HK4    H1393559   2.837   6.619   4.930 -1.2962 -1.8869 -0.3920
 1114HK4    C2593560   3.032   6.520   4.966  0.2107  0.0159  0.0913
 1114HK4    H1293561   3.088   6.593   4.909 -1.6390  0.3037 -1.4165
 1114HK4    C2493562   3.101   6.414   5.026  0.4245  0.4210  0.5592
 1114HK4    H1193563   3.203   6.391   4.992 -1.1472 -2.0317 -2.7121
 1114HK4    C2393564   3.027   6.333   5.111 -0.1797 -0.2094 -0.5512
 1114HK4    H1093565   3.079   6.250   5.160 -0.5658  0.4984  1.1071
 1114HK4    C3993566   2.824   6.137   5.236  0.0677  0.0786  0.1545
 1114HK4    C4193567   2.930   6.100   5.320  0.3291  0.0063 -0.2061
 1114HK4    H2193568   2.964   6.175   5.393 -2.5272  0.8069  0.3623
 1114HK4    C4293569   2.970   5.969   5.343 -0.1932 -0.0500  0.3790
 1114HK4    H2293570   3.027   5.943   5.433 -0.0760 -0.1681  0.2698
 1114HK4    C4393571   2.908   5.870   5.267  0.9448  0.1135 -0.7804
 1114HK4    H2393572   2.953   5.771   5.277 -0.4585 -0.3672  1.2054
 1114HK4    C4493573   2.809   5.904   5.176 -0.0298  0.4708  0.3917
 1114HK4    H2493574   2.759   5.827   5.115 -0.7676  1.6225 -0.4947
 1114HK4    C4593575   2.767   6.035   5.157  0.1182  0.4177 -0.3250
 1114HK4    H2593576   2.701   6.054   5.071 -1.4160  0.4051  0.8216
 1115HK4    H2893577   4.271   6.412   3.786  0.1840 -0.4885  0.1575
 1115HK4    C4893578   4.267   6.377   3.682 -0.3967  0.0757 -0.0075
 1115HK4    C4793579   4.365   6.288   3.641 -0.6393 -0.4002  0.4367
 1115HK4    H2793580   4.467   6.303   3.678 -1.1051  0.3252  1.4444
 1115HK4    C4693581   4.343   6.211   3.526 -0.2517 -0.1862  0.2185
 1115HK4    H2693582   4.410   6.132   3.491 -1.4021 -0.1783 -2.0859
 1115HK4    C4093583   4.226   6.228   3.448 -0.1139  0.3948  0.1352
 1115HK4    C5093584   4.134   6.326   3.491 -0.7043 -0.1072  0.0049
 1115HK4    H3093585   4.063   6.360   3.414 -1.3873 -0.4074  0.4891
 1115HK4    C4993586   4.155   6.403   3.604 -0.3555 -0.0378 -0.1039
 1115HK4    H2993587   4.114   6.505   3.614  1.4024  0.3785  4.2019
 1115HK4     N293588   4.237   6.192   3.313  0.0315  0.0090  0.2474
 1115HK4    C3093589   4.353   6.161   3.240 -0.0789  0.1218  0.0245
 1115HK4    C2993590   4.482   6.212   3.251 -0.0427  0.1985 -0.7413
 1115HK4    H1593591   4.509   6.269   3.339  0.1401 -2.5889  1.0676
 1115HK4    C2893592   4.575   6.205   3.147  0.0190  0.5571 -0.7123
 1115HK4    C2793593   4.550   6.122   3.036 -0.1461  0.2230 -0.4294
 1115HK4    H1493594   4.641   6.097   2.979  1.8455  1.3842  2.1035
 1115HK4    C3293595   4.426   6.061   3.026  0.0005 -0.1562  0.0461
 1115HK4    H1693596   4.399   6.021   2.928 -0.2887  0.0349  0.0474
 1115HK4    C3193597   4.327   6.082   3.121  0.0116  0.1397 -0.0087
 1115HK4    C3493598   4.182   6.079   3.118  0.0166 -0.2617  0.0188
 1115HK4    C3393599   4.132   6.129   3.244  0.0985  0.3958 -0.2084
 1115HK4    C3593600   3.994   6.131   3.261  0.0618  0.4804 -0.5178
 1115HK4    H1793601   3.949   6.188   3.342  0.1955 -0.6064  0.3393
 1115HK4    C3693602   3.902   6.095   3.162 -0.2285  0.0529 -0.0946
 1115HK4    H1893603   3.795   6.120   3.164 -0.3145 -0.3103 -0.2543
 1115HK4    C3793604   3.954   6.042   3.044  0.0076  0.3366 -0.1202
 1115HK4    H1993605   3.884   5.993   2.977 -0.6701  0.5715  0.4063
 1115HK4    C3893606   4.091   6.029   3.026 -0.0104  0.4463 -0.3379
 1115HK4    H2093607   4.129   5.951   2.960  1.1110 -0.2255  1.0935
 1115HK4    C1493608   4.663   6.321   3.127  0.0445  0.6059 -0.3173
 1115HK4     C993609   4.681   6.372   2.998 -0.0769  1.1460 -0.1220
 1115HK4     C893610   4.811   6.405   2.955  0.2442  0.3999  0.2690
 1115HK4    C1193611   4.917   6.396   3.045  0.5362 -0.0906 -0.1221
 1115HK4     H493612   5.024   6.390   3.020  0.6271 -0.6023  0.3910
 1115HK4    C1293613   4.897   6.370   3.180  0.1226  0.5330 -0.0615
 1115HK4     H593614   4.971   6.389   3.259  2.0378 -3.3065 -0.8213
 1115HK4    C1393615   4.769   6.332   3.219  0.1139  0.2493 -0.3557
 1115HK4     H693616   4.752   6.310   3.326 -1.9647  0.4063 -0.6356
 1115HK4     C793617   4.839   6.457   2.819  0.3807  0.2024  0.2200
 1115HK4     O293618   4.948   6.456   2.763  0.1927 -0.3700 -0.1335
 1115HK4     C493619   4.724   6.512   2.744  0.2108 -0.7912 -0.2508
 1115HK4     C393620   4.742   6.575   2.621 -0.5631 -0.1466 -0.0361
 1115HK4     H393621   4.842   6.573   2.574 -0.1380 -0.6868  0.8726
 1115HK4     C293622   4.650   6.656   2.554 -0.2788 -0.2088 -0.5048
 1115HK4     H293623   4.661   6.700   2.454  2.0836  1.7199  0.5630
 1115HK4     C193624   4.536   6.684   2.628  0.0756  0.2027 -0.1120
 1115HK4     H193625   4.470   6.762   2.587  0.7699  0.3346 -0.9886
 1115HK4     C693626   4.509   6.618   2.750 -0.4365 -0.4182 -0.5583
 1115HK4     C593627   4.600   6.529   2.807  0.4986  0.8190 -0.1001
 1115HK4    C1093628   4.572   6.436   2.920 -0.1652  0.5095 -0.5219
 1115HK4     O193629   4.456   6.408   2.950  0.0170  0.1041 -0.1934
 1115HK4    C1693630   4.384   6.669   2.809  0.3744  0.6206  0.2878
 1115HK4    C1593631   4.267   6.706   2.739 -0.6116 -0.4232  1.3562
 1115HK4     H793632   4.238   6.649   2.650 -0.1993  1.2477  0.1150
 1115HK4    C2093633   4.162   6.780   2.791 -0.3263  1.0781 -0.1424
 1115HK4     H993634   4.118   6.848   2.718 -0.2152  1.3883  0.0806
 1115HK4    C1993635   4.169   6.817   2.925  0.1098  0.2008  0.0786
 1115HK4    C1893636   4.283   6.775   3.003 -0.1082 -0.4415  0.0518
 1115HK4    C1793637   4.388   6.706   2.942  0.4783  0.1185  0.4248
 1115HK4     H893638   4.475   6.677   3.001  0.0635 -1.6540  0.1786
 1115HK4     N193639   4.266   6.817   3.137 -0.1379 -0.0419 -0.0787
 1115HK4    C2193640   4.156   6.905   3.135 -0.0472  0.0640 -0.5336
 1115HK4    C2293641   4.082   6.894   3.011 -0.4148  0.0479 -0.3128
 1115HK4    C2693642   3.958   6.956   2.995 -0.2019  0.4949 -0.2245
 1115HK4    H1393643   3.893   6.929   2.912 -1.5158  0.9703  0.6337
 1115HK4    C2593644   3.912   7.032   3.102 -0.4304 -0.4257  0.3377
 1115HK4    H1293645   3.812   7.077   3.104 -0.9049 -1.4867  0.9765
 1115HK4    C2493646   3.981   7.042   3.222 -0.1003 -0.3799  0.1439
 1115HK4    H1193647   3.931   7.089   3.307 -0.4750  2.3642 -1.5422
 1115HK4    C2393648   4.105   6.980   3.240  0.0101 -0.2806 -0.2567
 1115HK4    H1093649   4.160   6.984   3.334  1.4136 -1.6901 -1.0037
 1115HK4    C3993650   4.313   6.754   3.253  0.3856  0.1377 -0.1915
 1115HK4    C4193651   4.353   6.827   3.367  0.2424 -0.5588  0.3106
 1115HK4    H2193652   4.392   6.930   3.359  1.5198 -0.9644  1.1513
 1115HK4    C4293653   4.385   6.769   3.489  0.3432 -0.1341  0.4909
 1115HK4    H2293654   4.410   6.827   3.578 -1.8424 -2.2655  2.5633
 1115HK4    C4393655   4.398   6.630   3.497 -0.0301 -0.1898  0.1681
 1115HK4    H2393656   4.435   6.587   3.590 -0.4864  2.1108  1.4595
 1115HK4    C4493657   4.367   6.556   3.384 -0.0301  0.2235 -0.1061
 1115HK4    H2493658   4.395   6.450   3.395 -0.4364  0.0200 -0.9533
 1115HK4    C4593659   4.325   6.614   3.265  0.1722  0.1164 -0.2321
 1115HK4    H2593660   4.269   6.548   3.197  0.8357 -4.2685  3.2268
 1116HK4    H2893661   0.406   6.162   8.684 -2.7630 -0.8197  0.8914
 1116HK4    C4893662   0.446   6.103   8.767  0.5054  0.1176  0.0424
 1116HK4    C4793663   0.373   6.075   8.882  0.4847 -0.5184 -0.1209
 1116HK4    H2793664   0.289   6.138   8.914  0.0246 -0.3865 -1.5550
 1116HK4    C4693665   0.414   5.974   8.968  0.5314  0.0885  0.5676
 1116HK4    H2693666   0.366   5.972   9.067  0.2199 -0.2381  0.4083
 1116HK4    C4093667   0.535   5.904   8.951  0.1069 -0.4583 -0.2151
 1116HK4    C5093668   0.611   5.940   8.838  0.4823 -0.3184  0.0847
 1116HK4    H3093669   0.696   5.879   8.802  1.4739  0.4084  1.1306
 1116HK4    C4993670   0.568   6.038   8.749  0.6836  0.2886  0.6510
 1116HK4    H2993671   0.641   6.062   8.671  2.2974  1.0490  2.3507
 1116HK4     N293672   0.554   5.793   9.034 -0.2851 -0.0590  0.4175
 1116HK4    C3093673   0.460   5.729   9.117 -0.6265 -0.2874 -0.1453
 1116HK4    C2993674   0.327   5.705   9.087 -0.6228 -0.0993 -0.3156
 1116HK4    H1593675   0.280   5.762   9.007  1.5172  1.5786 -0.4065
 1116HK4    C2893676   0.247   5.619   9.162 -0.3110 -0.0624  0.0603
 1116HK4    C2793677   0.305   5.556   9.275  0.1645  0.2483 -0.0112
 1116HK4    H1493678   0.240   5.504   9.347  2.9128 -0.7710  1.7966
 1116HK4    C3293679   0.434   5.588   9.316  0.5522 -0.6902 -0.4706
 1116HK4    H1693680   0.463   5.566   9.418  0.3518  0.1656 -0.2199
 1116HK4    C3193681   0.516   5.666   9.235  0.1380 -0.2808 -0.4960
 1116HK4    C3493682   0.658   5.681   9.214  0.2051 -0.0251  0.1202
 1116HK4    C3393683   0.678   5.755   9.091 -0.1144 -0.0570  0.0505
 1116HK4    C3593684   0.811   5.775   9.056 -0.1315  0.5628  0.3185
 1116HK4    H1793685   0.838   5.822   8.961 -0.5518 -4.1410 -2.2958
 1116HK4    C3693686   0.913   5.720   9.132  0.1519  0.3713 -0.1906
 1116HK4    H1893687   1.018   5.728   9.101  0.1947  0.0405 -0.1412
 1116HK4    C3793688   0.891   5.655   9.253 -0.1176 -0.0473 -0.4645
 1116HK4    H1993689   0.973   5.608   9.308  0.5033  1.7902  0.2055
 1116HK4    C3893690   0.760   5.633   9.295  0.1080  0.2294  0.3908
 1116HK4    H2093691   0.735   5.560   9.372 -1.7171  1.0390  0.5934
 1116HK4    C1493692   0.102   5.618   9.144 -0.2975  0.3940 -0.0649
 1116HK4     C993693  11.248   5.632   9.239 -0.3411 -0.3859  0.0059
 1116HK4     C893694  11.131   5.554   9.238 -0.5215 -0.1112 -0.1901
 1116HK4    C1193695  11.111   5.475   9.126 -0.6942 -0.0808 -0.1814
 1116HK4     H493696  11.035   5.395   9.129  0.2683 -0.9497  1.3077
 1116HK4    C1293697  11.202   5.471   9.021  0.0720  0.5218  0.4550
 1116HK4     H593698  11.190   5.390   8.947  1.2603  2.2666 -1.7029
 1116HK4    C1393699   0.071   5.545   9.027  0.3506  0.1314 -0.0701
 1116HK4     H693700   0.142   5.534   8.944 -1.9624 -1.4070 -1.9186
 1116HK4     C793701  11.029   5.561   9.345  0.1181 -0.0845  0.4264
 1116HK4     O293702  10.914   5.522   9.324  0.0601  0.3286 -0.0137
 1116HK4     C493703  11.049   5.658   9.455 -0.4125  0.3851  0.1041
 1116HK4     C393704  10.971   5.655   9.570 -0.3565  0.3275  0.1437
 1116HK4     H393705  10.935   5.558   9.606 -0.9423  0.9329  1.2397
 1116HK4     C293706  10.976   5.762   9.659  0.4105  0.0033  0.4912
 1116HK4     H293707  10.926   5.756   9.757 -1.1844 -1.7631 -0.3927
 1116HK4     C193708  11.054   5.874   9.633  0.0285  0.1249 -0.1625
 1116HK4     H193709  11.045   5.967   9.690 -1.1585  0.2789 -0.5920
 1116HK4     C693710  11.133   5.881   9.516 -0.4159  0.0405 -0.4668
 1116HK4     C593711  11.137   5.766   9.436  0.1169 -0.1097 -0.2223
 1116HK4    C1093712   0.000   5.743   9.339  0.2164 -0.3296 -0.0552
 1116HK4     O193713   0.110   5.784   9.376  0.2952 -0.2727 -0.3537
 1116HK4    C1693714  11.187   6.012   9.480 -0.4820  0.1428 -0.1973
 1116HK4    C1593715  11.217   6.050   9.347 -0.4609  0.1644 -0.1860
 1116HK4     H793716  11.185   5.995   9.257  2.4211 -0.0066 -1.1611
 1116HK4    C2093717   0.030   6.169   9.309  0.9755 -0.5289 -0.0723
 1116HK4     H993718   0.059   6.187   9.206 -2.3660 -0.7222 -1.1080
 1116HK4    C1993719   0.053   6.265   9.406 -0.3729 -0.0750 -0.1871
 1116HK4    C1893720   0.026   6.224   9.543  0.0633 -0.2185 -0.1389
 1116HK4    C1793721  11.234   6.097   9.580 -0.6785  0.0452 -0.0251
 1116HK4     H893722  11.235   6.073   9.686  1.1163  0.3613  0.0360
 1116HK4     N193723   0.064   6.327   9.632  0.2652 -0.3186 -0.1103
 1116HK4    C2193724   0.117   6.435   9.558 -0.2026  0.1391  0.2154
 1116HK4    C2293725   0.106   6.400   9.418  0.1225 -0.3092  0.3003
 1116HK4    C2693726   0.143   6.495   9.323  0.0875 -0.3266  0.2696
 1116HK4    H1393727   0.115   6.475   9.220  0.3354  0.2155  0.0937
 1116HK4    C2593728   0.189   6.619   9.368 -0.1927 -0.1555  0.0877
 1116HK4    H1293729   0.221   6.693   9.295 -0.7556  0.3964  0.4041
 1116HK4    C2493730   0.205   6.649   9.502  0.5298  0.2712 -0.0983
 1116HK4    H1193731   0.222   6.756   9.521 -2.9851  0.9258 -0.3578
 1116HK4    C2393732   0.167   6.557   9.600 -0.5506  0.4695 -0.3299
 1116HK4    H1093733   0.170   6.584   9.705  0.6897 -2.4880  0.4348
 1116HK4    C3993734   0.028   6.324   9.767  0.0369  0.4012 -0.1513
 1116HK4    C4193735   0.102   6.398   9.862  0.1146  0.4963 -0.2877
 1116HK4    H2193736   0.201   6.438   9.836  0.0126  1.3508  0.5970
 1116HK4    C4293737   0.057   6.444   9.985  0.3008 -0.6647  0.2219
 1116HK4    H2293738   0.117   6.511  10.047  1.5313  0.3313 -1.9759
 1116HK4    C4393739  11.173   6.415  10.018  0.1746 -0.4148 -0.0598
 1116HK4    H2393740  11.128   6.449  10.111  2.2054 -2.4618  1.7011
 1116HK4    C4493741  11.096   6.340   9.929  0.1457 -0.2198 -0.1990
 1116HK4    H2493742  10.995   6.314   9.962  0.1757  0.4948  0.4750
 1116HK4    C4593743  11.144   6.295   9.806  0.2744 -0.5281 -0.0382
 1116HK4    H2593744  11.075   6.242   9.738  1.9559 -1.1235 -1.3138
 1117HK4    H2893745   0.059   4.621   5.352 -1.8917  0.4006 -0.3746
 1117HK4    C4893746   0.073   4.703   5.422 -0.3699 -0.0202 -0.1851
 1117HK4    C4793747   0.202   4.734   5.464 -0.4979  0.1710  0.0691
 1117HK4    H2793748   0.289   4.672   5.437  0.3173  0.6275  1.5532
 1117HK4    C4693749   0.221   4.854   5.533 -0.0962  0.0639  0.1491
 1117HK4    H2693750   0.325   4.883   5.548 -0.7098  1.5245  1.6878
 1117HK4    C4093751   0.129   4.957   5.562 -0.3510 -0.1839  0.2280
 1117HK4    C5093752   0.004   4.917   5.509 -0.3505  0.4014 -0.2237
 1117HK4    H3093753  11.168   4.988   5.515  0.1601  1.0778 -0.9789
 1117HK4    C4993754  11.222   4.796   5.449 -0.1136  0.1684  0.1167
 1117HK4    H2993755  11.132   4.788   5.385 -0.7436  0.5726  0.9484
 1117HK4     N293756   0.137   5.037   5.676  0.1255 -0.0112  0.0749
 1117HK4    C3093757   0.217   5.006   5.788 -0.0409 -0.2846  0.1192
 1117HK4    C2993758   0.253   4.885   5.845  0.0912 -0.3026 -0.0032
 1117HK4    H1593759   0.200   4.794   5.815  3.2603 -1.2048 -3.2090
 1117HK4    C2893760   0.339   4.873   5.954 -0.3777  0.0563  0.4102
 1117HK4    C2793761   0.385   4.993   6.010 -0.1018  0.0434  0.2143
 1117HK4    H1493762   0.446   4.985   6.102  2.0205 -1.2503 -1.2684
 1117HK4    C3293763   0.347   5.119   5.966 -0.2487  0.0172  0.2670
 1117HK4    H1693764   0.366   5.210   6.024  0.9995  0.8888 -1.4625
 1117HK4    C3193765   0.260   5.126   5.858 -0.0359 -0.2615  0.0784
 1117HK4    C3493766   0.201   5.237   5.787 -0.8214 -0.1745  0.8716
 1117HK4    C3393767   0.124   5.177   5.680  0.1945 -0.0034  0.0402
 1117HK4    C3593768   0.041   5.261   5.606 -0.0624 -0.4451 -0.1734
 1117HK4    H1793769  11.224   5.220   5.528  1.2310  0.0219 -1.5285
 1117HK4    C3693770   0.039   5.398   5.631  0.3461 -0.4766  0.0265
 1117HK4    H1893771   0.003   5.466   5.552  0.5226 -0.1960  0.1884
 1117HK4    C3793772   0.098   5.454   5.743 -0.1758  0.3000 -0.0883
 1117HK4    H1993773   0.075   5.555   5.777  1.3982  0.3696  0.8012
 1117HK4    C3893774   0.187   5.373   5.813 -0.3747  0.0613 -0.1115
 1117HK4    H2093775   0.225   5.404   5.910 -0.9503  0.1636  0.0864
 1117HK4    C1493776   0.368   4.737   6.001  0.0057 -0.0619 -0.1536
 1117HK4     C993777   0.415   4.710   6.131 -0.2340  0.1846 -0.0146
 1117HK4     C893778   0.496   4.597   6.155 -0.2008  0.1639 -0.2237
 1117HK4    C1193779   0.510   4.500   6.056  0.2565 -0.0475  0.0497
 1117HK4     H493780   0.545   4.399   6.082  2.6539  1.0230  1.2003
 1117HK4    C1293781   0.459   4.517   5.928 -0.1908 -0.0472  0.2271
 1117HK4     H593782   0.483   4.448   5.846  0.5187  0.1877  0.2330
 1117HK4    C1393783   0.391   4.636   5.906  0.0526  0.0116 -0.2198
 1117HK4     H693784   0.363   4.661   5.802  0.0463  1.8093  0.2066
 1117HK4     C793785   0.562   4.586   6.287 -0.0001 -0.1369 -0.3475
 1117HK4     O293786   0.635   4.490   6.310  0.0586 -0.1011 -0.3869
 1117HK4     C493787   0.551   4.694   6.388 -0.5148 -0.6004  0.0934
 1117HK4     C393788   0.641   4.692   6.494 -0.4379  0.0185  0.0413
 1117HK4     H393789   0.714   4.611   6.511 -0.0098  0.0295 -1.7114
 1117HK4     C293790   0.656   4.800   6.580  0.4783  0.3636 -0.5384
 1117HK4     H293791   0.739   4.803   6.652 -0.7083 -1.0791  0.9605
 1117HK4     C193792   0.561   4.900   6.571 -0.3392 -0.3374  0.1231
 1117HK4     H193793   0.563   4.978   6.649 -0.0625 -1.2273  1.0094
 1117HK4     C693794   0.459   4.899   6.472 -0.0313  0.6112 -0.2185
 1117HK4     C593795   0.461   4.800   6.373  0.1722  0.0281  0.3565
 1117HK4    C1093796   0.379   4.794   6.248  0.2698 -0.0316  0.2955
 1117HK4     O193797   0.258   4.813   6.258  0.2820  0.2324 -0.0491
 1117HK4    C1693798   0.336   4.972   6.505 -0.1164  0.3476  0.0640
 1117HK4    C1593799   0.304   4.986   6.641  0.2910 -0.7895  0.2763
 1117HK4     H793800   0.278   4.900   6.705 -2.7383  0.8366  1.3436
 1117HK4    C2093801   0.255   5.104   6.696  0.4631 -0.2578 -0.7032
 1117HK4     H993802   0.233   5.118   6.802  2.3550 -1.4260 -0.1335
 1117HK4    C1993803   0.219   5.209   6.612  0.0798 -0.0404 -0.2702
 1117HK4    C1893804   0.211   5.178   6.471  0.0386  0.2571 -0.3310
 1117HK4    C1793805   0.288   5.073   6.422 -0.5529 -0.1810 -0.3295
 1117HK4     H893806   0.327   5.086   6.321  2.9308  0.3767  0.9928
 1117HK4     N193807   0.142   5.283   6.407 -0.1775  0.2230 -0.1539
 1117HK4    C2193808   0.105   5.377   6.506  0.2697 -0.0181  0.2467
 1117HK4    C2293809   0.148   5.333   6.637 -0.4065 -0.4345  0.3236
 1117HK4    C2693810   0.129   5.412   6.749  0.9620  0.5627 -0.1441
 1117HK4    H1393811   0.130   5.359   6.845 -0.5190 -0.6189 -0.7791
 1117HK4    C2593812   0.077   5.540   6.741  0.7289  0.4827  0.0585
 1117HK4    H1293813   0.073   5.603   6.830  1.6029 -0.6377  0.9018
 1117HK4    C2493814   0.028   5.579   6.617 -0.4173 -0.8175  0.0944
 1117HK4    H1193815  11.203   5.661   6.626  0.1847 -0.4660  1.9315
 1117HK4    C2393816   0.039   5.500   6.503 -0.0362 -0.1918 -0.3080
 1117HK4    H1093817  11.247   5.541   6.411 -1.4313 -2.1547 -0.6074
 1117HK4    C3993818   0.089   5.272   6.278 -0.6098  0.0644  0.0380
 1117HK4    C4193819   0.082   5.390   6.200  0.7606  0.0670 -0.0931
 1117HK4    H2193820   0.157   5.465   6.228  0.0240  0.3328  1.2526
 1117HK4    C4293821  11.247   5.401   6.089  0.2418 -0.2111  0.2606
 1117HK4    H2293822  11.247   5.494   6.030 -2.1740  0.1456  0.7805
 1117HK4    C4393823  11.167   5.292   6.057 -0.2361  0.4320 -0.7666
 1117HK4    H2393824  11.118   5.285   5.960 -0.0150 -0.7392 -0.8064
 1117HK4    C4493825  11.175   5.173   6.129  0.0870  0.6212 -0.4914
 1117HK4    H2493826  11.131   5.086   6.078 -0.5041  1.1764 -0.9307
 1117HK4    C4593827   0.012   5.161   6.239 -0.0390 -0.1486 -0.4744
 1117HK4    H2593828   0.011   5.064   6.291 -1.6916  1.2497  2.2196
 1118HK4    H2893829   8.845   2.694   2.137 -0.2061 -0.6576 -1.1523
 1118HK4    C4893830   8.741   2.663   2.142 -0.4121  0.2682  0.5697
 1118HK4    C4793831   8.706   2.529   2.160  0.3024 -0.0010 -0.0162
 1118HK4    H2793832   8.792   2.461   2.170 -0.5143 -0.8786  1.1642
 1118HK4    C4693833   8.572   2.494   2.154  0.3810 -0.3562  0.2247
 1118HK4    H2693834   8.543   2.392   2.183 -4.2144  1.1816  1.6328
 1118HK4    C4093835   8.470   2.585   2.119  0.4187 -0.3106  0.2391
 1118HK4    C5093836   8.513   2.716   2.090 -0.5328  0.0536  0.4541
 1118HK4    H3093837   8.440   2.790   2.054  0.8800  1.9237  1.3258
 1118HK4    C4993838   8.644   2.758   2.111 -0.5155  0.0775  0.3093
 1118HK4    H2993839   8.667   2.865   2.100 -2.0936  0.4311  0.3661
 1118HK4     N293840   8.347   2.546   2.066  0.3732  0.4738 -0.2369
 1118HK4    C3093841   8.318   2.425   1.999  0.2304  0.6098 -0.4244
 1118HK4    C2993842   8.399   2.327   1.944 -0.2377 -0.0333  0.0207
 1118HK4    H1593843   8.506   2.345   1.936 -0.3204 -0.0020 -1.1035
 1118HK4    C2893844   8.353   2.214   1.876 -0.3108 -0.2553  0.4389
 1118HK4    C2793845   8.214   2.198   1.870 -0.2975  0.2560 -1.5363
 1118HK4    H1493846   8.178   2.114   1.808 -0.5227 -0.3281 -0.6294
 1118HK4    C3293847   8.130   2.299   1.916  0.5913  0.2210  0.2111
 1118HK4    H1693848   8.033   2.306   1.867  0.7433  0.2934 -0.0891
 1118HK4    C3193849   8.176   2.418   1.971  0.1806  0.5559 -0.1635
 1118HK4    C3493850   8.115   2.532   2.037 -0.1565  0.1325  0.2569
 1118HK4    C3393851   8.224   2.610   2.092  0.1438  0.0207 -0.1823
 1118HK4    C3593852   8.197   2.713   2.181 -0.1284  0.2548 -0.5326
 1118HK4    H1793853   8.273   2.776   2.227 -1.0058  1.5787 -0.8731
 1118HK4    C3693854   8.064   2.736   2.215 -0.1399  0.1658 -0.5075
 1118HK4    H1893855   8.038   2.792   2.306 -0.3864 -0.2206 -0.3410
 1118HK4    C3793856   7.959   2.666   2.156 -0.1751 -0.3558  0.1757
 1118HK4    H1993857   7.856   2.700   2.159 -0.2315 -0.1107 -2.9694
 1118HK4    C3893858   7.982   2.563   2.066 -0.3032  0.0031 -0.2716
 1118HK4    H2093859   7.901   2.491   2.052 -0.0927 -0.0861 -1.0866
 1118HK4    C1493860   8.434   2.152   1.771 -0.4742 -0.2685  0.3197
 1118HK4     C993861   8.391   2.117   1.642  0.8675 -0.1421 -0.1833
 1118HK4     C893862   8.424   1.995   1.581  0.4357 -0.3617  0.0185
 1118HK4    C1193863   8.526   1.924   1.642  0.5556  0.0579  0.3040
 1118HK4     H493864   8.540   1.820   1.607  0.9924  0.8365 -1.9667
 1118HK4    C1293865   8.594   1.967   1.756 -0.2276 -0.3730  0.9339
 1118HK4     H593866   8.677   1.909   1.797  0.7879 -0.7304 -1.5110
 1118HK4    C1393867   8.547   2.082   1.818 -0.0990  0.1595  0.0516
 1118HK4     H693868   8.581   2.098   1.921  1.8697 -0.7227 -0.4310
 1118HK4     C793869   8.356   1.949   1.457 -0.0017  0.3623 -0.0112
 1118HK4     O293870   8.416   1.874   1.381 -0.0582  0.1118  0.1903
 1118HK4     C493871   8.237   2.025   1.413 -0.3227 -0.1282  0.0064
 1118HK4     C393872   8.148   1.965   1.325 -0.2321  0.1414 -0.2673
 1118HK4     H393873   8.174   1.866   1.285 -1.3296 -0.0534 -0.5232
 1118HK4     C293874   8.019   2.015   1.306 -0.1199  0.3325 -0.5531
 1118HK4     H293875   7.949   1.946   1.257  0.7988 -1.4425  0.5826
 1118HK4     C193876   7.983   2.133   1.371 -0.6404 -0.0974 -0.0477
 1118HK4     H193877   7.882   2.173   1.352 -1.5306 -0.9576  2.7052
 1118HK4     C693878   8.073   2.205   1.452 -0.0207 -0.6403 -0.2501
 1118HK4     C593879   8.202   2.152   1.464  0.2935  0.1326 -0.2220
 1118HK4    C1093880   8.296   2.204   1.567  0.4247 -0.4852 -0.0254
 1118HK4     O193881   8.340   2.318   1.556 -0.3961 -0.1935 -0.3351
 1118HK4    C1693882   8.006   2.281   1.558 -0.2191 -0.2112 -0.6866
 1118HK4    C1593883   7.887   2.234   1.618 -0.0552  0.4617  0.1737
 1118HK4     H793884   7.858   2.129   1.606 -0.6357  0.6123  0.2645
 1118HK4    C2093885   7.797   2.309   1.692 -0.5639  0.6198 -0.5943
 1118HK4     H993886   7.699   2.267   1.713 -0.1895  0.6519  1.3411
 1118HK4    C1993887   7.828   2.445   1.696 -0.0417  0.4917 -0.1560
 1118HK4    C1893888   7.947   2.498   1.632  0.1807  0.2315  0.0432
 1118HK4    C1793889   8.039   2.416   1.568 -0.0508 -0.3287  0.4161
 1118HK4     H893890   8.128   2.455   1.518 -0.9839 -0.7335 -1.6207
 1118HK4     N193891   7.953   2.638   1.646  0.0962  0.2019  0.3780
 1118HK4    C2193892   7.842   2.675   1.725 -0.0748  0.3278  0.0769
 1118HK4    C2293893   7.759   2.559   1.753 -0.4350  0.4387 -0.5170
 1118HK4    C2693894   7.654   2.573   1.842 -0.1219  0.2265 -0.1105
 1118HK4    H1393895   7.597   2.481   1.858 -0.5693  0.2267 -1.6024
 1118HK4    C2593896   7.615   2.694   1.898 -0.3841 -0.0076  0.2161
 1118HK4    H1293897   7.536   2.695   1.974  0.7451 -0.7139  1.4051
 1118HK4    C2493898   7.691   2.802   1.856 -0.5649  0.0855  0.1281
 1118HK4    H1193899   7.644   2.901   1.866 -1.0838  0.2669 -3.4281
 1118HK4    C2393900   7.806   2.799   1.778 -0.1696  0.0349  0.7038
 1118HK4    H1093901   7.880   2.879   1.774 -0.4486  0.2650  0.0633
 1118HK4    C3993902   8.070   2.714   1.641  0.1010  0.1435 -0.4742
 1118HK4    C4193903   8.061   2.851   1.608 -0.3212  0.5409  1.1970
 1118HK4    H2193904   7.970   2.893   1.563 -0.1760  0.2038  0.5686
 1118HK4    C4293905   8.161   2.941   1.641  0.2750  0.4106 -0.1871
 1118HK4    H2293906   8.142   3.046   1.613  2.6687  0.9497  0.0395
 1118HK4    C4393907   8.265   2.893   1.721 -0.2136 -0.1725  0.1003
 1118HK4    H2393908   8.353   2.957   1.720  0.0422 -0.5276 -0.0554
 1118HK4    C4493909   8.274   2.762   1.765 -0.2131  0.0110  0.6546
 1118HK4    H2493910   8.363   2.726   1.819  2.5700  1.7793 -2.5640
 1118HK4    C4593911   8.180   2.670   1.718 -0.1113  0.2827 -0.0897
 1118HK4    H2593912   8.197   2.563   1.733  0.7034  0.3422 -0.5922
 1119HK4    H2893913   5.047   1.979   5.767 -0.2022  0.6786  1.1899
 1119HK4    C4893914   5.047   2.086   5.788 -0.1348  0.9001  0.0976
 1119HK4    C4793915   5.160   2.156   5.749  0.6723 -0.1639  0.4854
 1119HK4    H2793916   5.184   2.147   5.642 -0.8592  0.4713  0.0824
 1119HK4    C4693917   5.216   2.261   5.820  0.4306 -0.1531  0.6598
 1119HK4    H2693918   5.294   2.329   5.781 -0.6297  0.5339 -0.2860
 1119HK4    C4093919   5.145   2.307   5.933 -0.1045  0.1433  0.2049
 1119HK4    C5093920   5.021   2.249   5.963  0.0625 -0.2538  0.1234
 1119HK4    H3093921   4.945   2.301   6.023 -1.2834 -1.3341 -0.6116
 1119HK4    C4993922   4.972   2.140   5.892 -0.4687 -0.2435  0.4656
 1119HK4    H2993923   4.872   2.098   5.908  0.1298 -2.7407 -1.9013
 1119HK4     N293924   5.206   2.393   6.025 -0.0612  0.1497  0.1703
 1119HK4    C3093925   5.345   2.401   6.047  0.0018 -0.1462 -0.1195
 1119HK4    C2993926   5.448   2.308   6.045  0.1667  0.0284  0.1539
 1119HK4    H1593927   5.427   2.205   6.017 -0.3939 -0.0179  0.7519
 1119HK4    C2893928   5.574   2.340   6.095  0.0925  0.1723  0.2474
 1119HK4    C2793929   5.605   2.468   6.146 -0.0586  0.0949  0.5356
 1119HK4    H1493930   5.709   2.496   6.171 -0.4493  0.8419  1.3071
 1119HK4    C3293931   5.505   2.564   6.137 -0.1015 -0.0560 -0.7789
 1119HK4    H1693932   5.528   2.667   6.163 -2.0670  0.3574 -0.6458
 1119HK4    C3193933   5.376   2.534   6.096 -0.1676  0.1000 -0.6813
 1119HK4    C3493934   5.249   2.605   6.105 -0.0999  0.1817 -0.3672
 1119HK4    C3393935   5.144   2.514   6.064 -0.2370 -0.0339  0.4611
 1119HK4    C3593936   5.019   2.563   6.029 -0.2860 -0.2165  0.3786
 1119HK4    H1793937   4.950   2.506   5.966 -1.2881 -0.5942  1.7903
 1119HK4    C3693938   4.990   2.699   6.034  0.4091 -0.0449 -0.2146
 1119HK4    H1893939   4.889   2.735   6.011 -0.0895  0.7724  3.0990
 1119HK4    C3793940   5.093   2.786   6.068  0.1202  0.2146 -0.0076
 1119HK4    H1993941   5.065   2.891   6.079  0.7110  0.5330 -1.4022
 1119HK4    C3893942   5.219   2.740   6.106  0.1639  0.2397 -0.1179
 1119HK4    H2093943   5.292   2.811   6.144  0.8782 -0.2615 -0.5544
 1119HK4    C1493944   5.666   2.227   6.110 -0.3066 -0.1531  0.2620
 1119HK4     C993945   5.756   2.208   6.216 -0.0745 -0.2785  0.0430
 1119HK4     C893946   5.873   2.133   6.191  0.4261  0.5344 -0.0758
 1119HK4    C1193947   5.910   2.097   6.062 -0.0030 -0.0451 -0.0404
 1119HK4     H493948   6.016   2.071   6.044  0.7424  3.4707 -1.2096
 1119HK4    C1293949   5.816   2.108   5.961 -0.0937  1.5154  0.2008
 1119HK4     H593950   5.828   2.038   5.877  1.4530  1.8299  0.1573
 1119HK4    C1393951   5.691   2.165   5.986 -0.6967  0.3154 -0.0532
 1119HK4     H693952   5.645   2.219   5.902 -1.1464 -0.7299 -0.4929
 1119HK4     C793953   5.951   2.082   6.306  0.0411  0.1121 -0.0027
 1119HK4     O293954   6.028   1.986   6.296 -0.1510 -0.0424  0.0030
 1119HK4     C493955   5.926   2.136   6.441 -0.4707 -0.3533  0.0911
 1119HK4     C393956   5.995   2.089   6.552 -0.4456  0.0172  0.2343
 1119HK4     H393957   6.064   2.004   6.546  0.8605  1.0972 -0.3523
 1119HK4     C293958   5.989   2.154   6.675  0.1922  0.1694  0.1910
 1119HK4     H293959   6.029   2.110   6.768 -0.4923 -1.7391 -0.3813
 1119HK4     C193960   5.907   2.266   6.684 -0.4248 -0.2963  0.3945
 1119HK4     H193961   5.905   2.311   6.784  0.6610 -1.6141  1.0252
 1119HK4     C693962   5.839   2.320   6.573  0.0060 -0.5423  0.0113
 1119HK4     C593963   5.835   2.243   6.456 -0.3436 -0.2037 -0.2016
 1119HK4    C1093964   5.730   2.261   6.352 -0.3961 -0.0233 -0.1182
 1119HK4     O193965   5.613   2.274   6.388 -0.3423 -0.0027  0.0493
 1119HK4    C1693966   5.796   2.460   6.585  0.8381 -0.2918  0.1570
 1119HK4    C1593967   5.770   2.532   6.466  0.2447  0.0529  0.4935
 1119HK4     H793968   5.822   2.513   6.371 -0.9091  3.3528 -0.8835
 1119HK4    C2093969   5.685   2.643   6.471 -0.1037 -0.2112  0.4227
 1119HK4     H993970   5.663   2.694   6.378 -0.7271 -1.0043  0.1313
 1119HK4    C1993971   5.643   2.695   6.592 -0.1476 -0.2447  0.4216
 1119HK4    C1893972   5.682   2.629   6.715  0.1206 -0.4158  0.2454
 1119HK4    C1793973   5.752   2.509   6.707  0.8253  0.0058  0.0340
 1119HK4     H893974   5.790   2.478   6.804  0.4961  3.5671  1.4125
 1119HK4     N193975   5.638   2.697   6.831  0.4917  0.4446 -0.1098
 1119HK4    C2193976   5.573   2.810   6.780 -0.0823  0.0984 -0.1477
 1119HK4    C2293977   5.562   2.807   6.636  0.4291  0.4224 -0.1945
 1119HK4    C2693978   5.469   2.884   6.567  0.1845 -0.0574 -0.4017
 1119HK4    H1393979   5.493   2.910   6.464 -0.1159  2.8366  0.2117
 1119HK4    C2593980   5.378   2.963   6.637  0.3711 -0.7096  0.5790
 1119HK4    H1293981   5.309   3.021   6.577  1.0288 -1.0001 -0.4656
 1119HK4    C2493982   5.379   2.966   6.776 -0.3815 -0.2248  0.5701
 1119HK4    H1193983   5.291   3.017   6.819  0.4775  1.9173 -0.1282
 1119HK4    C2393984   5.478   2.893   6.840 -0.3080 -0.4265  0.2280
 1119HK4    H1093985   5.500   2.918   6.944  0.5145  0.0584 -0.0516
 1119HK4    C3993986   5.586   2.637   6.947 -0.2220  0.2239 -0.5404
 1119HK4    C4193987   5.582   2.713   7.066 -0.3858 -0.3856 -0.1570
 1119HK4    H2193988   5.662   2.787   7.083 -2.0516  0.9270  2.4488
 1119HK4    C4293989   5.490   2.688   7.167 -0.1217 -0.0687  0.1647
 1119HK4    H2293990   5.477   2.763   7.247 -0.1447 -0.0581  0.1516
 1119HK4    C4393991   5.399   2.584   7.151  0.5173 -0.7154  0.7360
 1119HK4    H2393992   5.312   2.579   7.216 -0.2353 -1.4839 -0.3055
 1119HK4    C4493993   5.402   2.504   7.037 -0.0143  0.3562 -0.0328
 1119HK4    H2493994   5.329   2.425   7.014 -0.8828  1.4242 -0.9780
 1119HK4    C4593995   5.500   2.526   6.941  0.4386 -0.3381  0.2633
 1119HK4    H2593996   5.503   2.459   6.854 -1.2115  0.1302 -0.1807
 1120HK4    H2893997   8.460   4.241   7.609  0.4200 -1.9060  0.1921
 1120HK4    C4893998   8.468   4.283   7.709  0.1505 -0.1494 -0.5005
 1120HK4    C4793999   8.544   4.396   7.737 -1.1229  0.5983  0.0007
 1120HK4    H2794000   8.546   4.474   7.659  2.3313 -1.8305 -2.5126
 1120HK4    C4694001   8.597   4.412   7.864  0.1975 -0.4688 -0.3963
 1120HK4    H2694002   8.639   4.511   7.891 -1.3328  0.9279 -2.9551
 1120HK4    C4094003   8.564   4.328   7.972 -0.1025  0.2776  0.0992
 1120HK4    C5094004   8.482   4.216   7.946 -0.4928  0.4984  0.3702
 1120HK4    H3094005   8.450   4.139   8.019  1.0664  0.1177  0.6751
 1120HK4    C4994006   8.439   4.198   7.815  0.8034  0.2206 -0.0278
 1120HK4    H2994007   8.407   4.099   7.781  0.2538  0.4852 -0.2702
 1120HK4     N294008   8.637   4.343   8.090  0.1484  0.3283 -0.0635
 1120HK4    C3094009   8.769   4.389   8.106 -0.1573  1.2526 -0.1479
 1120HK4    C2994010   8.876   4.404   8.018  0.0953 -0.3416 -0.1076
 1120HK4    H1594011   8.876   4.344   7.927 -2.0638 -0.0741 -0.2997
 1120HK4    C2894012   8.992   4.475   8.047 -0.3551  0.3938 -0.1021
 1120HK4    C2794013   8.994   4.537   8.173  0.4602 -0.1717  0.1721
 1120HK4    H1494014   9.066   4.619   8.187 -1.4452  1.3301  1.5591
 1120HK4    C3294015   8.898   4.518   8.272  0.3785 -0.2322  0.0826
 1120HK4    H1694016   8.910   4.563   8.371 -0.4298  1.9987 -0.7908
 1120HK4    C3194017   8.787   4.440   8.241 -0.0203  0.2830  0.2048
 1120HK4    C3494018   8.663   4.420   8.313  0.0228 -0.6208  0.0266
 1120HK4    C3394019   8.573   4.364   8.214 -0.0800 -0.2605 -0.0833
 1120HK4    C3594020   8.440   4.338   8.248 -0.0937 -0.0375  0.0366
 1120HK4    H1794021   8.364   4.315   8.174  1.0076 -4.5400  0.1824
 1120HK4    C3694022   8.397   4.375   8.375  0.5181 -0.2145  0.3031
 1120HK4    H1894023   8.289   4.358   8.391  0.9424 -1.7555  1.5819
 1120HK4    C3794024   8.482   4.432   8.469  0.3740 -0.3088  0.4916
 1120HK4    H1994025   8.450   4.433   8.573 -1.9104 -0.3586 -0.1772
 1120HK4    C3894026   8.616   4.453   8.439  0.1455  0.2743 -0.1551
 1120HK4    H2094027   8.680   4.521   8.495  2.0630 -1.2241 -0.4688
 1120HK4    C1494028   9.110   4.456   7.962  0.1372  0.6138  0.5254
 1120HK4     C994029   9.244   4.456   8.002  0.2316  0.1956  0.2149
 1120HK4     C894030   9.337   4.518   7.916  0.0766 -0.0486 -0.1275
 1120HK4    C1194031   9.308   4.548   7.784 -0.3767  0.9386  0.1914
 1120HK4     H494032   9.386   4.594   7.723 -0.0865 -0.8161 -0.7921
 1120HK4    C1294033   9.181   4.517   7.735  0.0316  0.2359 -0.4348
 1120HK4     H594034   9.171   4.544   7.629  1.9684 -0.9418 -0.9551
 1120HK4    C1394035   9.081   4.486   7.827  0.7229  0.1096  0.2817
 1120HK4     H694036   8.975   4.499   7.802  0.1098 -2.2358  1.5476
 1120HK4     C794037   9.477   4.540   7.961  0.1160 -0.3084 -0.1123
 1120HK4     O294038   9.538   4.636   7.915 -0.8550  0.4283  0.1086
 1120HK4     C494039   9.533   4.454   8.067  0.3889  0.1354  0.1049
 1120HK4     C394040   9.667   4.465   8.104  0.3908 -0.1715  0.1821
 1120HK4     H394041   9.734   4.539   8.058 -0.3519  0.9027  0.8096
 1120HK4     C294042   9.708   4.391   8.214  0.6209 -0.5342 -0.1428
 1120HK4     H294043   9.800   4.418   8.267  1.0800 -2.0764 -0.1492
 1120HK4     C194044   9.626   4.297   8.276  0.0862 -0.2660 -0.4423
 1120HK4     H194045   9.654   4.260   8.375 -0.9378  3.2851  1.2521
 1120HK4     C694046   9.500   4.268   8.219 -0.1589  0.4380 -0.2614
 1120HK4     C594047   9.446   4.363   8.131 -0.2168  0.6003 -0.0496
 1120HK4    C1094048   9.299   4.372   8.113 -0.3029  0.0693  0.3865
 1120HK4     O194049   9.221   4.336   8.201  0.0240 -0.1137  0.6014
 1120HK4    C1694050   9.435   4.143   8.260  0.4183  0.1893 -0.1045
 1120HK4    C1594051   9.461   4.089   8.388 -0.2010 -0.0889 -0.0914
 1120HK4     H794052   9.485   4.159   8.469 -1.6671 -0.3904  0.6141
 1120HK4    C2094053   9.447   3.954   8.416 -0.9332  0.0277  0.1047
 1120HK4     H994054   9.473   3.917   8.515 -4.5164  0.3596  1.2495
 1120HK4    C1994055   9.406   3.871   8.312  0.4267 -0.2287 -0.2327
 1120HK4    C1894056   9.370   3.928   8.184 -0.4425  0.1870  0.1982
 1120HK4    C1794057   9.391   4.062   8.155  0.5751 -0.0131 -0.0159
 1120HK4     H894058   9.366   4.116   8.064 -1.6431 -0.3169  0.3808
 1120HK4     N194059   9.322   3.833   8.091  0.0382  0.0724  0.0726
 1120HK4    C2194060   9.332   3.712   8.163 -0.1876  0.2770  0.4487
 1120HK4    C2294061   9.378   3.729   8.299  0.6370 -0.3156  0.2519
 1120HK4    C2694062   9.392   3.618   8.382  0.5424 -0.2688  0.3300
 1120HK4    H1394063   9.427   3.622   8.485  1.3542 -0.0602  0.0521
 1120HK4    C2594064   9.365   3.494   8.327  0.3612  0.1502 -0.5336
 1120HK4    H1294065   9.377   3.414   8.400  0.4593  0.7052  0.0625
 1120HK4    C2494066   9.321   3.473   8.197  0.0075  0.3390 -0.4441
 1120HK4    H1194067   9.278   3.376   8.165 -2.5731  1.8277 -1.6501
 1120HK4    C2394068   9.305   3.584   8.116 -0.1390  0.5013 -0.1933
 1120HK4    H1094069   9.256   3.570   8.020 -1.4729 -1.1097  0.7144
 1120HK4    C3994070   9.247   3.860   7.976  0.4291  0.0852 -0.1854
 1120HK4    C4194071   9.231   3.774   7.866 -0.3273 -0.2083  0.1491
 1120HK4    H2194072   9.312   3.701   7.856 -0.0670  0.0141  0.6875
 1120HK4    C4294073   9.131   3.780   7.769 -0.1190 -0.0739 -0.0586
 1120HK4    H2294074   9.126   3.718   7.678  1.5495  0.1462 -0.3266
 1120HK4    C4394075   9.045   3.889   7.780  0.0760  0.1068 -0.3277
 1120HK4    H2394076   8.992   3.916   7.689  2.1935 -1.1418 -1.9713
 1120HK4    C4494077   9.053   3.984   7.881 -0.0610 -0.1144 -0.1097
 1120HK4    H2494078   8.964   4.046   7.898 -0.1476 -0.5278  1.0284
 1120HK4    C4594079   9.156   3.968   7.973 -0.4694 -0.6498  0.2629
 1120HK4    H2594080   9.176   4.054   8.038 -0.7877 -0.1927 -0.2428
 1121HK4    H2894081   7.517   3.432   6.917  1.5430  1.8791 -1.0284
 1121HK4    C4894082   7.579   3.441   7.006  0.1408 -0.3241  0.2356
 1121HK4    C4794083   7.703   3.503   6.999  0.0137 -0.0598  0.3265
 1121HK4    H2794084   7.758   3.507   6.904 -0.1110  1.0954  0.2945
 1121HK4    C4694085   7.768   3.557   7.109  0.1871  0.6330 -0.1067
 1121HK4    H2694086   7.866   3.603   7.093  0.5639 -0.5975 -1.3079
 1121HK4    C4094087   7.717   3.541   7.240  0.2916 -0.3668 -0.1877
 1121HK4    C5094088   7.596   3.469   7.248  0.4812 -0.6009  0.6665
 1121HK4    H3094089   7.570   3.431   7.348  0.5604 -0.5116  0.7219
 1121HK4    C4994090   7.531   3.420   7.135  0.8053 -0.5344  0.4522
 1121HK4    H2994091   7.443   3.355   7.151  0.1293  0.3544  0.3781
 1121HK4     N294092   7.775   3.605   7.350  0.1801  0.2445 -0.4793
 1121HK4    C3094093   7.901   3.666   7.340  0.2690  0.1130 -0.1666
 1121HK4    C2994094   8.018   3.617   7.283  0.1230 -0.5154  0.0648
 1121HK4    H1594095   8.020   3.518   7.238 -0.5618 -0.6357  0.3080
 1121HK4    C2894096   8.142   3.680   7.286 -0.2948  0.3449 -0.5327
 1121HK4    C2794097   8.143   3.799   7.362  0.2760  0.5231 -0.8126
 1121HK4    H1494098   8.225   3.869   7.340  1.1031 -0.6415 -1.5190
 1121HK4    C3294099   8.035   3.845   7.437  0.4529 -0.2908 -0.0448
 1121HK4    H1694100   8.048   3.950   7.464  2.7933 -0.5252 -0.1430
 1121HK4    C3194101   7.912   3.780   7.429  0.3193 -0.0461  0.0341
 1121HK4    C3494102   7.783   3.801   7.490  0.3741 -0.1392  0.1819
 1121HK4    C3394103   7.714   3.679   7.453  0.2792  0.0532 -0.2818
 1121HK4    C3594104   7.602   3.651   7.531  0.2159 -0.2762 -0.4907
 1121HK4    H1794105   7.535   3.569   7.505 -1.6925  0.4229  2.0527
 1121HK4    C3694106   7.553   3.748   7.617  0.1364  0.3887 -1.2745
 1121HK4    H1894107   7.452   3.730   7.655  0.2470 -2.8129 -2.3575
 1121HK4    C3794108   7.611   3.873   7.638  0.5231 -0.0377  0.3186
 1121HK4    H1994109   7.549   3.946   7.689  1.3033  2.0725 -1.6616
 1121HK4    C3894110   7.734   3.898   7.577  0.4511 -0.0756  0.1554
 1121HK4    H2094111   7.802   3.979   7.602 -0.4157  1.3427 -1.9621
 1121HK4    C1494112   8.260   3.609   7.234 -0.3676 -0.0824 -0.1146
 1121HK4     C994113   8.391   3.614   7.284 -0.4525  0.3297  0.0723
 1121HK4     C894114   8.495   3.602   7.189 -0.2125 -0.4259  0.4305
 1121HK4    C1194115   8.474   3.562   7.058  0.3184 -0.5054  0.3723
 1121HK4     H494116   8.563   3.542   6.996  1.2960 -3.7018  2.6354
 1121HK4    C1294117   8.348   3.533   7.009  0.1692  0.8655 -0.0729
 1121HK4     H594118   8.327   3.463   6.926 -2.2591 -0.6639  1.7539
 1121HK4    C1394119   8.249   3.571   7.099 -0.2982 -0.4337 -0.0232
 1121HK4     H694120   8.147   3.569   7.056 -0.9884  1.8066  1.4312
 1121HK4     C794121   8.634   3.617   7.237 -0.1052 -0.0362  0.0064
 1121HK4     O294122   8.728   3.595   7.161 -0.0549 -0.0764  0.0788
 1121HK4     C494123   8.666   3.645   7.379  0.0687 -0.2220  0.0059
 1121HK4     C394124   8.795   3.673   7.420 -0.1318  0.5156  0.1500
 1121HK4     H394125   8.874   3.673   7.343 -0.0229 -0.4530  0.2639
 1121HK4     C294126   8.832   3.662   7.553 -0.2598  0.3276  0.1698
 1121HK4     H294127   8.929   3.706   7.582 -0.9392  1.4154  0.8282
 1121HK4     C194128   8.735   3.617   7.642 -0.1375 -0.3920 -0.0593
 1121HK4     H194129   8.751   3.638   7.749 -0.1993 -2.0495  0.2894
 1121HK4     C694130   8.610   3.569   7.600  0.1103 -0.8868 -0.2346
 1121HK4     C594131   8.567   3.609   7.473  0.0500 -0.1027  0.0301
 1121HK4    C1094132   8.424   3.612   7.429  0.0774 -0.0708 -0.0579
 1121HK4     O194133   8.344   3.640   7.517  0.5649  0.2683  0.2778
 1121HK4    C1694134   8.543   3.469   7.684 -0.5958 -0.2425 -0.0238
 1121HK4    C1594135   8.573   3.450   7.821 -0.3470 -0.2539 -0.0799
 1121HK4     H794136   8.649   3.516   7.864 -0.4238  1.6030 -2.6535
 1121HK4    C2094137   8.524   3.352   7.906 -0.1093 -0.0610  0.2809
 1121HK4     H994138   8.527   3.368   8.014 -3.5182 -1.0522  0.5908
 1121HK4    C1994139   8.443   3.255   7.847  0.2510 -0.1960  0.0101
 1121HK4    C1894140   8.424   3.256   7.703 -0.1453  0.1192  0.0639
 1121HK4    C1794141   8.475   3.361   7.628  0.4762 -0.6334 -0.5838
 1121HK4     H894142   8.472   3.362   7.519  0.5586 -0.9683 -0.5891
 1121HK4     N194143   8.326   3.159   7.673 -0.2862  0.2631  0.0568
 1121HK4    C2194144   8.291   3.090   7.791 -0.2373  0.6184  0.2799
 1121HK4    C2294145   8.365   3.146   7.902  0.8559 -0.5562  0.1582
 1121HK4    C2694146   8.338   3.102   8.031 -0.6041  0.2278  0.1376
 1121HK4    H1394147   8.402   3.123   8.117  0.0971 -2.0913  0.2320
 1121HK4    C2594148   8.241   3.005   8.053 -0.4367  0.0161 -0.0273
 1121HK4    H1294149   8.192   2.999   8.151 -0.2335 -1.7171 -0.0173
 1121HK4    C2494150   8.167   2.955   7.947 -0.2583 -0.0573 -0.1135
 1121HK4    H1194151   8.104   2.867   7.964 -0.3986  0.3808  1.7096
 1121HK4    C2394152   8.192   2.995   7.816  0.1363  0.1605  0.0281
 1121HK4    H1094153   8.142   2.942   7.736 -0.0321  1.5363 -0.7860
 1121HK4    C3994154   8.253   3.157   7.554  0.0239  0.1280 -0.1328
 1121HK4    C4194155   8.191   3.042   7.502  0.8239 -0.2318 -0.3058
 1121HK4    H2194156   8.218   2.945   7.545 -3.0251 -1.5999 -0.7421
 1121HK4    C4294157   8.118   3.040   7.384  0.0452 -0.1491  0.1653
 1121HK4    H2294158   8.071   2.944   7.356 -1.2261  0.6532 -0.5023
 1121HK4    C4394159   8.115   3.148   7.297  0.1549  0.0381  0.3935
 1121HK4    H2394160   8.046   3.151   7.212 -1.8266 -0.1340  1.9693
 1121HK4    C4494161   8.179   3.264   7.341  0.5566 -0.1872  0.4053
 1121HK4    H2494162   8.194   3.351   7.275  3.3120 -0.4389  0.6624
 1121HK4    C4594163   8.238   3.267   7.467  0.4682  0.6395  0.4291
 1121HK4    H2594164   8.267   3.366   7.503 -0.5176  0.9088  0.5077
 1122HK4    H2894165   7.774   0.599   7.454 -0.2100  0.8644 -0.8741
 1122HK4    C4894166   7.695   0.526   7.437 -0.0121  0.2902  0.5528
 1122HK4    C4794167   7.707   0.388   7.452 -0.4048  0.1525 -0.3262
 1122HK4    H2794168   7.797   0.343   7.498  0.9663 -0.2408 -3.3229
 1122HK4    C4694169   7.598   0.304   7.436 -0.0319 -0.3248 -0.3689
 1122HK4    H2694170   7.604   0.204   7.481  0.3403  0.7623  2.0647
 1122HK4    C4094171   7.473   0.358   7.400  0.0289  0.1657  0.1427
 1122HK4    C5094172   7.461   0.498   7.392 -0.3294  0.1433  0.2509
 1122HK4    H3094173   7.371   0.545   7.350 -2.8339 -2.1945  2.8430
 1122HK4    C4994174   7.571   0.582   7.408 -0.1642 -0.1084  0.4247
 1122HK4    H2994175   7.572   0.685   7.369  0.4590 -0.1455  0.3421
 1122HK4     N294176   7.368   0.271   7.364  0.0797 -0.0376  0.4889
 1122HK4    C3094177   7.390   0.135   7.336  0.2928  0.1127 -0.0862
 1122HK4    C2994178   7.501   0.075   7.278  0.2724  0.3085 -0.3265
 1122HK4    H1594179   7.574   0.140   7.230 -0.0522  1.3236  0.5305
 1122HK4    C2894180   7.498  11.191   7.237 -0.3703  0.2753 -0.1628
 1122HK4    C2794181   7.381  11.113   7.252 -0.3736  0.2051 -0.5464
 1122HK4    H1494182   7.396  11.006   7.233  0.3632 -0.3425  2.7181
 1122HK4    C3294183   7.269  11.169   7.313 -0.0368  0.3724 -0.0843
 1122HK4    H1694184   7.199  11.102   7.363  0.2677  0.7631  0.8793
 1122HK4    C3194185   7.270   0.055   7.350  0.3127  0.1940  0.5696
 1122HK4    C3494186   7.172   0.152   7.396 -0.0195  0.0590  0.1515
 1122HK4    C3394187   7.234   0.282   7.407  0.0579  0.0023  0.4080
 1122HK4    C3594188   7.167   0.383   7.475  0.6923  0.3210  0.5692
 1122HK4    H1794189   7.203   0.484   7.489 -1.0935  1.0845 -0.1611
 1122HK4    C3694190   7.040   0.362   7.529  0.2762 -0.1264 -0.5504
 1122HK4    H1894191   6.986   0.451   7.564 -1.2979 -0.5706 -1.8298
 1122HK4    C3794192   6.974   0.242   7.509  0.0114 -0.1181  0.2462
 1122HK4    H1994193   6.884   0.222   7.567 -1.2817 -2.3793 -2.4122
 1122HK4    C3894194   7.043   0.138   7.448 -0.0669 -0.0306  0.0100
 1122HK4    H2094195   7.002   0.039   7.427 -0.7525  0.2156  0.2180
 1122HK4    C1494196   7.599  11.152   7.138 -0.3234 -0.3491  0.1242
 1122HK4     C994197   7.575  11.066   7.031 -0.1591 -0.3808  0.1140
 1122HK4     C894198   7.651  10.949   7.012  0.1503 -0.1672  0.0233
 1122HK4    C1194199   7.773  10.945   7.080  0.3549 -0.0557 -0.3337
 1122HK4     H494200   7.839  10.862   7.052  1.5634  0.3452  1.2639
 1122HK4    C1294201   7.816  11.050   7.160 -0.1159  0.1635 -0.3591
 1122HK4     H594202   7.919  11.050   7.200  0.1675 -0.3471 -1.0741
 1122HK4    C1394203   7.728  11.151   7.196 -0.2245 -0.0267 -0.0919
 1122HK4     H694204   7.754  11.218   7.279  0.3966  1.2537 -1.2972
 1122HK4     C794205   7.596  10.827   6.949  0.2715  0.0192 -0.4461
 1122HK4     O294206   7.675  10.744   6.904  0.9645  0.1055  0.6118
 1122HK4     C494207   7.455  10.832   6.905  0.0796  0.4578  0.2120
 1122HK4     C394208   7.397  10.711   6.870  0.6566  0.3914 -0.5329
 1122HK4     H394209   7.435  10.612   6.897 -1.9847 -1.6037 -3.6992
 1122HK4     C294210   7.289  10.708   6.783  0.2943  0.2378 -0.0794
 1122HK4     H294211   7.235  10.618   6.749 -0.2777 -0.2777  2.1514
 1122HK4     C194212   7.241  10.830   6.737 -0.1355 -0.0172 -0.3234
 1122HK4     H194213   7.182  10.831   6.645 -1.3642 -0.3843  0.4566
 1122HK4     C694214   7.301  10.953   6.773 -0.1319  0.0168 -0.4427
 1122HK4     C594215   7.405  10.959   6.866 -0.4206  0.1617 -0.1246
 1122HK4    C1094216   7.456  11.076   6.943  0.3458  0.0949 -0.5237
 1122HK4     O194217   7.407  11.187   6.923  0.0751  0.0910  0.0871
 1122HK4    C1694218   7.266  11.070   6.691 -0.1953  0.0140 -0.4191
 1122HK4    C1594219   7.136  11.071   6.635 -0.1986 -0.0095 -0.4137
 1122HK4     H794220   7.058  11.014   6.688 -0.7565 -0.7210 -1.9599
 1122HK4    C2094221   7.109  11.149   6.524 -0.4932  0.0971 -0.2676
 1122HK4     H994222   7.013  11.153   6.472 -0.4506 -0.1518 -0.3616
 1122HK4    C1994223   7.207  11.235   6.474 -0.2749  0.0928  0.1511
 1122HK4    C1894224   7.343  11.230   6.525 -0.2153 -0.2739 -0.0380
 1122HK4    C1794225   7.366  11.150   6.636  0.3434 -0.6501 -0.4204
 1122HK4     H894226   7.464  11.156   6.683  0.9755  0.8153 -1.9188
 1122HK4     N194227   7.429   0.078   6.469 -0.3199 -0.1620 -0.0071
 1122HK4    C2194228   7.343   0.157   6.390 -0.2781 -0.2743 -0.1671
 1122HK4    C2294229   7.209   0.103   6.388 -0.1946 -0.4666 -0.6094
 1122HK4    C2694230   7.103   0.160   6.318  0.2677  0.6034 -0.4520
 1122HK4    H1394231   7.001   0.131   6.346  0.5109 -0.7141 -0.8953
 1122HK4    C2594232   7.130   0.272   6.241  0.0591  0.2812 -0.9980
 1122HK4    H1294233   7.058   0.291   6.162 -1.8465 -1.9175  0.1449
 1122HK4    C2494234   7.255   0.334   6.246  0.1952 -0.0555 -0.1398
 1122HK4    H1194235   7.283   0.433   6.209  1.2571 -0.1565  0.4031
 1122HK4    C2394236   7.359   0.273   6.315 -0.0929  0.0747  0.4106
 1122HK4    H1094237   7.450   0.328   6.341  1.0475 -1.5019 -0.1762
 1122HK4    C3994238   7.569   0.076   6.463 -0.3186 -0.1327  0.0214
 1122HK4    C4194239   7.639   0.195   6.433 -0.0209 -0.2294  0.3316
 1122HK4    H2194240   7.596   0.296   6.442 -1.0524 -0.6308 -0.0203
 1122HK4    C4294241   7.773   0.180   6.403  0.1034 -0.0398  0.7773
 1122HK4    H2294242   7.837   0.266   6.378  0.0388 -0.8188 -2.2139
 1122HK4    C4394243   7.839   0.060   6.423 -0.1391 -0.2632  0.2457
 1122HK4    H2394244   7.948   0.052   6.417 -0.2662 -1.4645 -0.6271
 1122HK4    C4494245   7.772  11.191   6.458  0.1678 -0.2181  0.9910
 1122HK4    H2494246   7.822  11.095   6.437  0.5070  0.2210 -0.2263
 1122HK4    C4594247   7.634  11.199   6.475  0.0197  0.0115 -0.2906
 1122HK4    H2594248   7.578  11.106   6.460  1.4261 -1.1607  1.4952
 1123HK4    H2894249   9.946   6.021   5.378  0.4554 -0.3618  2.0460
 1123HK4    C4894250   9.876   5.938   5.375 -0.0630  0.1176  0.1126
 1123HK4    C4794251   9.754   5.946   5.309 -0.0925  0.1495  0.1731
 1123HK4    H2794252   9.746   6.018   5.227 -0.6258 -0.4198 -0.2807
 1123HK4    C4694253   9.663   5.841   5.320 -0.3451  0.4051  0.5286
 1123HK4    H2694254   9.563   5.857   5.277  0.1914  0.1928 -0.8347
 1123HK4    C4094255   9.695   5.731   5.402 -0.3954 -0.0519 -0.0595
 1123HK4    C5094256   9.821   5.724   5.465  0.0807 -0.1018 -1.0156
 1123HK4    H3094257   9.843   5.657   5.548 -2.2954  0.7497  0.3468
 1123HK4    C4994258   9.912   5.829   5.454  0.1252 -0.0557 -0.2022
 1123HK4    H2994259  10.007   5.842   5.508 -0.1767 -0.6767  0.4841
 1123HK4     N294260   9.608   5.621   5.405 -0.1282 -0.2661 -0.0735
 1123HK4    C3094261   9.587   5.535   5.515 -0.6160 -0.0515  0.0016
 1123HK4    C2994262   9.568   5.569   5.649  0.8964 -0.2522  0.2777
 1123HK4    H1594263   9.591   5.672   5.676  0.0615  0.3656 -1.2464
 1123HK4    C2894264   9.519   5.476   5.740 -0.1141 -0.2147 -0.2134
 1123HK4    C2794265   9.495   5.344   5.695  0.8101 -0.5222  0.1636
 1123HK4    H1494266   9.479   5.271   5.776  0.2894  1.3445  1.7878
 1123HK4    C3294267   9.506   5.303   5.562  0.2985 -0.2057  0.0214
 1123HK4    H1694268   9.492   5.201   5.529 -0.5206 -0.2469  0.4757
 1123HK4    C3194269   9.544   5.403   5.473 -0.1746 -0.1550 -0.1226
 1123HK4    C3494270   9.532   5.412   5.329  0.7115 -0.2253 -0.2066
 1123HK4    C3394271   9.576   5.544   5.291 -0.7095  0.2470 -0.2630
 1123HK4    C3594272   9.584   5.579   5.157 -0.3495  0.4579 -0.1903
 1123HK4    H1794273   9.595   5.681   5.121  0.0691  1.1658  1.8939
 1123HK4    C3694274   9.562   5.475   5.066  0.3664 -0.2476  0.4382
 1123HK4    H1894275   9.586   5.486   4.959 -1.1448  0.2422  0.1423
 1123HK4    C3794276   9.523   5.346   5.100  0.6376 -0.4242  0.0834
 1123HK4    H1994277   9.489   5.280   5.021 -1.4274 -1.7293  2.0052
 1123HK4    C3894278   9.501   5.315   5.234 -0.4870 -0.0534 -0.0087
 1123HK4    H2094279   9.456   5.221   5.266  1.0715 -0.8936 -0.2201
 1123HK4    C1494280   9.541   5.495   5.884 -0.3653 -0.1375 -0.1850
 1123HK4     C994281   9.563   5.400   5.984  0.0465  0.3373  0.1767
 1123HK4     C894282   9.523   5.414   6.119 -0.8710 -0.3257 -0.0178
 1123HK4    C1194283   9.475   5.541   6.149  0.6182  0.2382  0.0399
 1123HK4     H494284   9.464   5.559   6.257  0.1515 -0.6517  0.1458
 1123HK4    C1294285   9.456   5.646   6.060 -0.3374 -0.1212 -0.1909
 1123HK4     H594286   9.415   5.745   6.088  0.4180  0.5573 -1.4078
 1123HK4    C1394287   9.487   5.617   5.927  0.4647  0.1984 -0.0794
 1123HK4     H694288   9.459   5.681   5.842  1.6280  0.1741 -0.4926
 1123HK4     C794289   9.566   5.318   6.222  0.2455  0.2689  0.0779
 1123HK4     O294290   9.536   5.335   6.340  0.4796  0.0290  0.1731
 1123HK4     C494291   9.638   5.195   6.183  0.1215  0.2720 -0.1571
 1123HK4     C394292   9.670   5.099   6.278  0.4836  0.3280 -0.2234
 1123HK4     H394293   9.647   5.110   6.385  0.4284  0.8576 -0.2908
 1123HK4     C294294   9.736   4.979   6.250 -0.5019 -0.2973  0.1433
 1123HK4     H294295   9.791   4.932   6.333 -0.1190  1.7489  1.0825
 1123HK4     C194296   9.760   4.953   6.116  0.1802  0.6735  0.0751
 1123HK4     H194297   9.824   4.867   6.092 -1.1915 -0.8542  1.7442
 1123HK4     C694298   9.715   5.041   6.015  0.5868  0.2124 -0.5050
 1123HK4     C594299   9.669   5.168   6.048  0.2441 -0.0236 -0.0715
 1123HK4    C1094300   9.659   5.288   5.960 -0.2846  0.0642  0.1077
 1123HK4     O194301   9.757   5.311   5.889 -0.1285 -0.3095  0.2067
 1123HK4    C1694302   9.680   4.969   5.891  0.4282 -0.0744 -0.2958
 1123HK4    C1594303   9.667   4.829   5.889 -0.6707  0.0259 -0.3149
 1123HK4     H794304   9.654   4.775   5.984  2.1063 -1.5386 -0.7661
 1123HK4    C2094305   9.653   4.756   5.772  0.4444 -0.5491 -0.0932
 1123HK4     H994306   9.640   4.648   5.784  1.7548 -0.5942  1.1577
 1123HK4    C1994307   9.665   4.817   5.648 -0.1431 -0.2656 -0.0094
 1123HK4    C1894308   9.687   4.960   5.649 -0.1823 -0.2606  0.0686
 1123HK4    C1794309   9.682   5.032   5.767 -0.1751  0.1640 -0.1884
 1123HK4     H894310   9.642   5.132   5.751 -0.1784 -0.0421 -1.4551
 1123HK4     N194311   9.709   5.008   5.518  0.0260  0.3063  0.3094
 1123HK4    C2194312   9.688   4.899   5.432 -0.2151  0.4546  0.1773
 1123HK4    C2294313   9.664   4.778   5.508 -0.5408  0.3023 -0.1668
 1123HK4    C2694314   9.618   4.666   5.440  0.1442  0.0093 -0.1558
 1123HK4    H1394315   9.611   4.566   5.484 -1.0973  0.6988  1.2594
 1123HK4    C2594316   9.586   4.670   5.305  0.8589  0.3668 -0.3133
 1123HK4    H1294317   9.540   4.583   5.258  0.6811 -0.2652  1.0072
 1123HK4    C2494318   9.615   4.781   5.228  0.3472  0.3310 -0.5636
 1123HK4    H1194319   9.601   4.771   5.119  1.3132  0.1580 -0.6771
 1123HK4    C2394320   9.673   4.889   5.294 -0.1480  0.1368  0.1909
 1123HK4    H1094321   9.707   4.973   5.233  0.5069 -0.0831  0.2499
 1123HK4    C3994322   9.788   5.121   5.494  0.0878  0.2409  0.2118
 1123HK4    C4194323   9.784   5.179   5.366 -0.1269 -0.1421  0.0445
 1123HK4    H2194324   9.700   5.158   5.298 -1.4956  1.0998  1.2941
 1123HK4    C4294325   9.873   5.276   5.321 -0.4312  0.0908 -0.0606
 1123HK4    H2294326   9.856   5.320   5.221 -0.8233  1.3445  0.5561
 1123HK4    C4394327   9.979   5.310   5.403 -0.6562  0.7925 -0.0546
 1123HK4    H2394328  10.052   5.383   5.368 -0.5797  0.3909 -0.7330
 1123HK4    C4494329   9.993   5.251   5.529 -0.0173 -0.0556 -0.5161
 1123HK4    H2494330  10.051   5.314   5.598 -1.9978  1.7071 -0.4059
 1123HK4    C4594331   9.901   5.157   5.571  0.0261  0.2655  0.2949
 1123HK4    H2594332   9.909   5.134   5.679 -0.7196 -0.8677  0.1229
 1124HK4    H2894333   6.341   1.251   1.536  1.0889  2.1179  0.4577
 1124HK4    C4894334   6.415   1.199   1.597  0.0675  0.3715  0.2498
 1124HK4    C4794335   6.524   1.147   1.530 -0.4777 -0.0953 -0.2701
 1124HK4    H2794336   6.513   1.138   1.421  0.6511  2.9994 -0.6770
 1124HK4    C4694337   6.629   1.091   1.602 -0.1757  0.8707  0.0346
 1124HK4    H2694338   6.711   1.036   1.554 -0.1662  1.5052 -0.6916
 1124HK4    C4094339   6.617   1.080   1.742  0.2313 -0.0258 -0.0025
 1124HK4    C5094340   6.500   1.124   1.806  0.0141 -0.4425 -0.1081
 1124HK4    H3094341   6.493   1.122   1.916 -0.3702 -1.4028 -0.1469
 1124HK4    C4994342   6.400   1.190   1.735 -0.0861 -0.2694  0.1934
 1124HK4    H2994343   6.302   1.213   1.779 -0.8939  1.2047 -2.3073
 1124HK4     N294344   6.734   1.058   1.816  0.1197  0.2101  0.2489
 1124HK4    C3094345   6.867   1.096   1.789  0.0853  0.1565 -0.0008
 1124HK4    C2994346   6.916   1.183   1.693 -0.2226  0.4144  0.0779
 1124HK4    H1594347   6.848   1.247   1.635  0.2982  1.0630  0.1715
 1124HK4    C2894348   7.052   1.210   1.689 -0.1539  0.0647  0.0803
 1124HK4    C2794349   7.139   1.154   1.786  0.6802  0.6735 -0.3071
 1124HK4    H1494350   7.247   1.146   1.767  0.5213  0.2921 -1.1079
 1124HK4    C3294351   7.092   1.067   1.883 -0.1443 -0.0166 -1.3064
 1124HK4    H1694352   7.157   1.021   1.957  0.2411 -0.6779 -2.0590
 1124HK4    C3194353   6.956   1.037   1.888 -0.1031 -0.0334  0.0550
 1124HK4    C3494354   6.878   0.948   1.971  0.0863 -0.3435 -0.0951
 1124HK4    C3394355   6.743   0.961   1.918  0.0413  0.0638  0.1175
 1124HK4    C3594356   6.638   0.895   1.980 -0.2461  0.4960  0.0911
 1124HK4    H1794357   6.544   0.888   1.926  0.1482  2.4212 -0.8958
 1124HK4    C3694358   6.665   0.813   2.089  0.0186  0.1512 -0.2314
 1124HK4    H1894359   6.582   0.755   2.132  1.0400 -0.1944  1.3231
 1124HK4    C3794360   6.794   0.801   2.139 -0.1216 -0.1757  0.0499
 1124HK4    H1994361   6.818   0.726   2.215 -0.0335 -1.7565 -1.5193
 1124HK4    C3894362   6.901   0.871   2.084 -0.0522 -0.4085 -0.1108
 1124HK4    H2094363   7.000   0.825   2.088 -0.5209 -1.4782 -0.4871
 1124HK4    C1494364   7.108   1.289   1.578 -0.0002 -0.0472  0.0778
 1124HK4     C994365   7.236   1.273   1.524 -0.2221  0.1491 -0.5100
 1124HK4     C894366   7.311   1.387   1.485  0.0076  0.0685 -0.3063
 1124HK4    C1194367   7.245   1.509   1.476 -0.4380 -0.1568 -0.1009
 1124HK4     H494368   7.302   1.596   1.441  2.3450 -2.2117 -0.8390
 1124HK4    C1294369   7.110   1.520   1.508 -0.3214  0.3413  0.2158
 1124HK4     H594370   7.057   1.616   1.507 -1.8723 -0.4983  0.1971
 1124HK4    C1394371   7.042   1.412   1.564  0.0243 -0.0587 -0.1333
 1124HK4     H694372   6.947   1.425   1.618  0.6943  1.4351  0.6998
 1124HK4     C794373   7.452   1.378   1.441 -0.1463 -0.3060 -0.7391
 1124HK4     O294374   7.521   1.479   1.452 -0.3751 -0.2584  0.2509
 1124HK4     C494375   7.507   1.245   1.406  0.3345 -0.3338  0.1321
 1124HK4     C394376   7.643   1.241   1.382  0.3710  0.0851  0.2559
 1124HK4     H394377   7.713   1.322   1.407  0.1120  0.4412 -0.1699
 1124HK4     C294378   7.691   1.113   1.357 -0.1240 -0.2211  0.8596
 1124HK4     H294379   7.796   1.086   1.376  0.8045  1.1400 -1.9612
 1124HK4     C194380   7.605   1.008   1.329 -0.1312 -0.0225  0.1079
 1124HK4     H194381   7.650   0.909   1.309 -0.6498 -0.2718  0.1446
 1124HK4     C694382   7.465   1.019   1.341 -0.1251  0.1722 -0.0051
 1124HK4     C594383   7.420   1.134   1.408 -0.0853 -0.0068  0.3287
 1124HK4    C1094384   7.296   1.141   1.490 -0.2193 -0.0148  0.1297
 1124HK4     O194385   7.232   1.038   1.509  0.2668 -0.3114  0.1607
 1124HK4    C1694386   7.385   0.934   1.251 -0.1848  0.1336  0.0845
 1124HK4    C1594387   7.434   0.819   1.187 -0.2840  0.0524  0.1550
 1124HK4     H794388   7.497   0.756   1.252  0.3247  1.5076  0.9800
 1124HK4    C2094389   7.371   0.755   1.081 -0.0238  0.5526 -0.3004
 1124HK4     H994390   7.423   0.674   1.030 -0.5151  0.2975 -0.4001
 1124HK4    C1994391   7.249   0.802   1.034 -0.7392 -0.3015  0.6990
 1124HK4    C1894392   7.191   0.915   1.105 -0.2974  0.3655  0.0106
 1124HK4    C1794393   7.263   0.981   1.203 -0.3487 -0.0400  0.3277
 1124HK4     H894394   7.219   1.074   1.239 -1.6677 -0.5198 -0.0265
 1124HK4     N194395   7.063   0.946   1.054  0.0702  0.6352 -0.7490
 1124HK4    C2194396   7.035   0.853   0.953 -0.0999 -0.1859  0.0499
 1124HK4    C2294397   7.149   0.766   0.935 -0.0773 -0.1391 -0.0303
 1124HK4    C2694398   7.146   0.661   0.844  0.2987 -0.1124 -0.0756
 1124HK4    H1394399   7.224   0.585   0.852  0.6092  0.1756 -0.3476
 1124HK4    C2594400   7.035   0.637   0.763 -0.0810  0.2914  0.3259
 1124HK4    H1294401   7.071   0.586   0.674 -2.9850  1.8018 -1.7899
 1124HK4    C2494402   6.930   0.725   0.785 -0.0940  0.3242  0.1363
 1124HK4    H1194403   6.833   0.700   0.740 -0.9720  2.3124  0.8690
 1124HK4    C2394404   6.924   0.834   0.871 -0.0409  0.6008 -0.2097
 1124HK4    H1094405   6.831   0.884   0.898  0.9561  1.3184  2.0325
 1124HK4    C3994406   6.967   1.025   1.118 -0.0207  0.0425 -0.1471
 1124HK4    C4194407   6.864   1.090   1.046  0.2528 -0.1028 -0.6697
 1124HK4    H2194408   6.879   1.098   0.938 -0.3371  1.3032 -0.6485
 1124HK4    C4294409   6.763   1.162   1.108  0.4109 -0.1512 -0.3509
 1124HK4    H2294410   6.686   1.216   1.051  1.3447 -0.2845 -1.7622
 1124HK4    C4394411   6.769   1.175   1.246  0.0025  0.0242 -0.3478
 1124HK4    H2394412   6.696   1.235   1.301  1.2686 -1.0818  2.6855
 1124HK4    C4494413   6.871   1.113   1.317 -0.5060 -0.2902  0.1131
 1124HK4    H2494414   6.851   1.105   1.425  0.2727  0.5075  0.3245
 1124HK4    C4594415   6.970   1.035   1.259 -0.9304 -0.6993 -0.0669
 1124HK4    H2594416   7.041   0.972   1.315  0.0316 -0.0905 -0.5935
 1125HK4    H2894417   9.004   5.834   8.962  0.6074  0.8967  0.0704
 1125HK4    C4894418   9.062   5.797   8.878  0.3243 -0.0454  0.2731
 1125HK4    C4794419   9.047   5.665   8.837  0.1199 -0.0851  0.4827
 1125HK4    H2794420   8.960   5.609   8.873 -1.2230  1.1493 -0.7471
 1125HK4    C4694421   9.141   5.610   8.751 -0.1878  0.3265 -0.1247
 1125HK4    H2694422   9.128   5.502   8.736 -0.0767  0.3293 -0.2395
 1125HK4    C4094423   9.245   5.682   8.689  0.2609  0.0371  0.2956
 1125HK4    C5094424   9.249   5.816   8.731  0.3988 -0.0850  0.6756
 1125HK4    H3094425   9.322   5.886   8.687  0.6256 -0.0096  1.1660
 1125HK4    C4994426   9.156   5.878   8.814  0.2684  0.1115  0.3841
 1125HK4    H2994427   9.132   5.985   8.814  2.4389  0.6424 -1.4873
 1125HK4     N294428   9.357   5.620   8.632  0.2293  0.0502  0.2214
 1125HK4    C3094429   9.371   5.480   8.647  0.9592  0.1255  0.2329
 1125HK4    C2994430   9.374   5.392   8.755 -0.2907 -0.3621 -0.1279
 1125HK4    H1594431   9.344   5.425   8.854  0.0178 -2.0114  0.5207
 1125HK4    C2894432   9.408   5.258   8.745  0.1116 -0.2577 -0.1711
 1125HK4    C2794433   9.424   5.206   8.615  0.4668 -0.0578 -0.2097
 1125HK4    H1494434   9.393   5.100   8.612  0.6394 -0.1526  1.0754
 1125HK4    C3294435   9.434   5.292   8.506  0.1907  0.1703 -0.0502
 1125HK4    H1694436   9.444   5.254   8.404 -1.4327 -0.6836  0.0879
 1125HK4    C3194437   9.418   5.430   8.519 -0.9468  0.0864 -0.4658
 1125HK4    C3494438   9.449   5.543   8.435  0.1387  0.2606  0.1531
 1125HK4    C3394439   9.405   5.662   8.506  0.0620  0.1992  0.2065
 1125HK4    C3594440   9.439   5.783   8.448 -0.0003 -0.0396 -0.3357
 1125HK4    H1794441   9.367   5.864   8.465  1.1171  0.9879 -0.4189
 1125HK4    C3694442   9.520   5.786   8.336  0.3426 -0.0301 -0.0852
 1125HK4    H1894443   9.530   5.882   8.284  3.0077 -0.9772 -1.4518
 1125HK4    C3794444   9.559   5.674   8.262  0.4203  0.0014 -0.0912
 1125HK4    H1994445   9.633   5.686   8.184  1.1039 -0.2612  0.5072
 1125HK4    C3894446   9.519   5.552   8.315  0.0776  0.1998  0.1107
 1125HK4    H2094447   9.547   5.461   8.262  1.1381  0.9009 -0.5592
 1125HK4    C1494448   9.490   5.197   8.851  0.0297  0.2970  0.2083
 1125HK4     C994449   9.605   5.122   8.827 -0.7253 -0.7117 -0.3012
 1125HK4     C894450   9.645   5.018   8.914  0.2817  0.1811  0.3212
 1125HK4    C1194451   9.568   5.000   9.028  0.2931  0.0171  0.3018
 1125HK4     H494452   9.587   4.916   9.096 -0.1994  0.6490  1.2232
 1125HK4    C1294453   9.462   5.084   9.060  0.5162  0.2088  0.5404
 1125HK4     H594454   9.388   5.050   9.134  0.5296  1.3850  1.0955
 1125HK4    C1394455   9.419   5.183   8.972  0.3293 -0.0443  0.3437
 1125HK4     H694456   9.324   5.234   8.990  0.6007  0.9330 -0.8960
 1125HK4     C794457   9.779   4.954   8.905  0.4199  0.4393  0.5901
 1125HK4     O294458   9.802   4.853   8.970 -0.3348  0.0903  0.3185
 1125HK4     C494459   9.875   4.992   8.799 -0.1512  0.2356 -0.0066
 1125HK4     C394460  10.004   4.940   8.802 -0.2403 -0.0084 -0.4892
 1125HK4     H394461  10.025   4.839   8.841 -0.8840  0.2259  0.4828
 1125HK4     C294462  10.101   5.002   8.724 -0.2552  0.1778 -0.3578
 1125HK4     H294463  10.208   4.988   8.744 -0.1283  0.9946 -0.4484
 1125HK4     C194464  10.061   5.092   8.625 -0.0117  0.1766 -0.4586
 1125HK4     H194465  10.137   5.122   8.551 -0.6344  1.1807 -0.6970
 1125HK4     C694466   9.929   5.136   8.610 -0.2808 -0.4884 -0.0858
 1125HK4     C594467   9.840   5.096   8.710 -0.6276 -0.1259 -0.2458
 1125HK4    C1094468   9.713   5.169   8.736 -0.1772  0.2792  0.8507
 1125HK4     O194469   9.709   5.291   8.719 -0.7131  0.1683  0.1877
 1125HK4    C1694470   9.899   5.187   8.475  0.1455  0.3433  0.1335
 1125HK4    C1594471   9.767   5.163   8.432  0.0831  0.9564 -0.0299
 1125HK4     H794472   9.701   5.095   8.488 -1.4077  1.2959 -1.3596
 1125HK4    C2094473   9.703   5.218   8.322 -0.5412 -0.0376 -0.1659
 1125HK4     H994474   9.606   5.179   8.292  0.6029 -1.9964 -1.3855
 1125HK4    C1994475   9.775   5.307   8.244  0.1877 -0.5167 -0.0377
 1125HK4    C1894476   9.909   5.341   8.288  0.0475 -0.1614  0.1123
 1125HK4    C1794477   9.970   5.277   8.395  0.6352 -0.5680 -0.4635
 1125HK4     H894478  10.074   5.300   8.418 -0.2125  0.1194  2.9454
 1125HK4     N194479   9.974   5.429   8.198 -0.7354  0.6898  0.3694
 1125HK4    C2194480   9.892   5.442   8.084 -0.3033 -0.0002 -0.0281
 1125HK4    C2294481   9.769   5.371   8.113 -0.0620 -0.3907  0.0368
 1125HK4    C2694482   9.662   5.383   8.025  0.2550 -0.7043 -0.3946
 1125HK4    H1394483   9.569   5.338   8.060  0.0021 -0.2917 -0.5242
 1125HK4    C2594484   9.675   5.464   7.914  0.1113 -0.0263  0.0812
 1125HK4    H1294485   9.591   5.497   7.852  0.7832 -0.2898 -0.9761
 1125HK4    C2494486   9.795   5.530   7.889  0.4539 -0.6718  0.0139
 1125HK4    H1194487   9.793   5.582   7.792 -0.5066  0.7567  0.7734
 1125HK4    C2394488   9.908   5.518   7.969  0.4536  0.0807  0.1308
 1125HK4    H1094489   9.998   5.576   7.946  0.1790  1.1270  1.6576
 1125HK4    C3994490  10.075   5.518   8.234  0.1637 -0.1126 -0.1431
 1125HK4    C4194491  10.170   5.556   8.137  0.3858  0.3154  0.2389
 1125HK4    H2194492  10.197   5.501   8.046 -1.6690 -2.0780  1.0368
 1125HK4    C4294493  10.233   5.677   8.163  0.4643  0.2209  0.4898
 1125HK4    H2294494  10.295   5.721   8.084 -0.6445  0.4425 -0.2734
 1125HK4    C4394495  10.212   5.759   8.274 -0.2555 -0.2710  0.7178
 1125HK4    H2394496  10.239   5.864   8.262  0.9633 -0.6283  0.2342
 1125HK4    C4494497  10.127   5.713   8.373  0.5224 -0.9481  1.0759
 1125HK4    H2494498  10.145   5.758   8.472 -0.3809  1.0408  0.3461
 1125HK4    C4594499  10.057   5.594   8.352 -0.0669 -0.4202  0.0210
 1125HK4    H2594500   9.967   5.569   8.410  0.1198 -1.5099 -0.1406
 1126HK4    H2894501   5.825   6.767   3.341  2.5458  1.0487 -0.9885
 1126HK4    C4894502   5.861   6.698   3.417  0.1244  0.9692  0.1204
 1126HK4    C4794503   5.772   6.661   3.517  0.3561  0.1324  0.0208
 1126HK4    H2794504   5.681   6.720   3.532  0.4753 -0.3040  2.5625
 1126HK4    C4694505   5.815   6.566   3.609  0.2906 -0.0710 -0.1535
 1126HK4    H2694506   5.754   6.557   3.700 -0.6995  2.0412 -0.5579
 1126HK4    C4094507   5.937   6.496   3.610  0.5277  0.3447  0.2936
 1126HK4    C5094508   6.019   6.529   3.500  0.1285  0.3191 -0.0079
 1126HK4    H3094509   6.113   6.475   3.483  0.1413  0.1810  0.4961
 1126HK4    C4994510   5.978   6.623   3.406 -0.3621  0.2047  0.0903
 1126HK4    H2994511   6.026   6.608   3.308  1.0327  1.0527  0.6329
 1126HK4     N294512   5.956   6.375   3.677  0.2620  0.1091 -0.0594
 1126HK4    C3094513   6.085   6.332   3.713  0.2005 -0.1932 -0.1896
 1126HK4    C2994514   6.208   6.395   3.728  0.0463 -0.0154  0.3501
 1126HK4    H1594515   6.215   6.495   3.687  0.1354 -0.8693 -1.7751
 1126HK4    C2894516   6.331   6.339   3.763  0.0983  0.3582  0.7739
 1126HK4    C2794517   6.317   6.204   3.801 -0.1432  0.0371 -0.4131
 1126HK4    H1494518   6.403   6.152   3.848 -0.1179  0.7074  0.2942
 1126HK4    C3294519   6.203   6.126   3.789 -0.0462 -0.1407 -0.1913
 1126HK4    H1694520   6.196   6.033   3.846  0.4142 -0.9368 -1.4210
 1126HK4    C3194521   6.089   6.190   3.742 -0.2884 -0.0770  0.4744
 1126HK4    C3494522   5.956   6.143   3.712 -0.1641 -0.1552  0.0398
 1126HK4    C3394523   5.875   6.259   3.678  0.3112  0.0706 -0.3305
 1126HK4    C3594524   5.746   6.238   3.632  0.2627 -0.4566  0.0446
 1126HK4    H1794525   5.678   6.323   3.623  0.9186  0.0409 -0.1716
 1126HK4    C3694526   5.692   6.110   3.615 -0.3385 -0.1669 -0.2391
 1126HK4    H1894527   5.598   6.098   3.559  0.3941  1.0920 -1.7967
 1126HK4    C3794528   5.768   6.002   3.659 -0.1045  0.4786  0.9562
 1126HK4    H1994529   5.726   5.904   3.637 -0.5160  1.1420 -1.3542
 1126HK4    C3894530   5.895   6.018   3.711  0.2280 -0.3467  0.3975
 1126HK4    H2094531   5.962   5.942   3.752  1.6278  0.7319  0.1512
 1126HK4    C1494532   6.460   6.397   3.724  0.0628  0.0802  0.2300
 1126HK4     C994533   6.581   6.333   3.694  0.1203  0.2125  0.1842
 1126HK4     C894534   6.705   6.399   3.708  0.1802  0.1091  0.1445
 1126HK4    C1194535   6.701   6.532   3.749 -0.2429  0.0573  0.2680
 1126HK4     H494536   6.793   6.592   3.741 -0.6755  1.0577  2.4558
 1126HK4    C1294537   6.582   6.604   3.760 -0.1989  0.2222 -0.3398
 1126HK4     H594538   6.585   6.709   3.794  2.8507  0.3401 -0.8086
 1126HK4    C1394539   6.462   6.536   3.751 -0.1520  0.0057  0.6305
 1126HK4     H694540   6.369   6.592   3.771  0.6469  1.9342 -0.9522
 1126HK4     C794541   6.831   6.321   3.707 -0.1029 -0.3502  0.0460
 1126HK4     O294542   6.927   6.378   3.757  0.1397 -0.4366 -0.3187
 1126HK4     C494543   6.837   6.178   3.669 -0.0232 -0.2961 -0.1414
 1126HK4     C394544   6.958   6.111   3.651  0.2729  0.2100 -0.0779
 1126HK4     H394545   7.045   6.169   3.685 -0.4439  1.3622 -0.1559
 1126HK4     C294546   6.965   5.979   3.609  0.0018 -0.2003  1.1404
 1126HK4     H294547   7.065   5.934   3.601 -0.2768 -0.3504 -2.4473
 1126HK4     C194548   6.845   5.913   3.583 -0.3300  0.6300  0.5363
 1126HK4     H194549   6.851   5.807   3.554 -2.0709  0.8455 -0.7134
 1126HK4     C694550   6.722   5.976   3.612 -0.7388  0.1988 -0.2305
 1126HK4     C594551   6.715   6.111   3.647 -0.3145  0.0813  0.3097
 1126HK4    C1094552   6.591   6.194   3.643 -0.0598  0.4287 -0.4542
 1126HK4     O194553   6.505   6.155   3.564 -0.3120 -0.3339  0.1903
 1126HK4    C1694554   6.611   5.883   3.639 -0.7721  0.3121  0.0222
 1126HK4    C1594555   6.542   5.885   3.762  0.0138  0.1295  0.4699
 1126HK4     H794556   6.587   5.907   3.860 -0.1563 -0.7182  0.7343
 1126HK4    C2094557   6.407   5.855   3.761  0.0658 -0.0985 -0.1350
 1126HK4     H994558   6.345   5.864   3.851  0.1498  0.7103 -0.1548
 1126HK4    C1994559   6.345   5.805   3.647  0.3489 -1.2488  0.2085
 1126HK4    C1894560   6.417   5.789   3.522  0.2737  0.3781 -0.0483
 1126HK4    C1794561   6.548   5.837   3.525  0.6312 -0.5679 -0.4174
 1126HK4     H894562   6.605   5.837   3.432  0.2504 -0.6295 -0.6521
 1126HK4     N194563   6.347   5.715   3.425 -0.2851  0.7052  0.1037
 1126HK4    C2194564   6.231   5.674   3.493  0.2879 -0.2245  0.5314
 1126HK4    C2294565   6.219   5.738   3.623 -0.3950  0.0997  0.3122
 1126HK4    C2694566   6.108   5.722   3.706 -0.2216  0.0382  0.5320
 1126HK4    H1394567   6.121   5.741   3.812  2.1790  0.4806  0.1864
 1126HK4    C2594568   6.014   5.628   3.667  0.6649 -0.7618  0.2898
 1126HK4    H1294569   5.947   5.598   3.748  0.7003  0.7785  0.8966
 1126HK4    C2494570   6.025   5.555   3.549  0.7488 -0.2918  0.0113
 1126HK4    H1194571   5.961   5.467   3.535 -0.2801  0.4136  0.1760
 1126HK4    C2394572   6.128   5.586   3.461  0.6848 -0.4520 -0.1189
 1126HK4    H1094573   6.136   5.518   3.376 -1.0977  1.2246 -1.6927
 1126HK4    C3994574   6.342   5.746   3.289 -0.3858  0.1941 -0.0085
 1126HK4    C4194575   6.306   5.644   3.198  1.1044 -0.0148 -0.3752
 1126HK4    H2194576   6.336   5.539   3.215 -0.3603 -0.5603 -1.0348
 1126HK4    C4294577   6.241   5.675   3.079  0.9673 -0.0655 -0.3136
 1126HK4    H2294578   6.202   5.605   3.004 -0.8108 -0.2311  0.7289
 1126HK4    C4394579   6.203   5.805   3.047 -0.1726 -0.3335 -0.0859
 1126HK4    H2394580   6.165   5.827   2.948  0.3201 -0.0906 -0.2252
 1126HK4    C4494581   6.244   5.908   3.131  0.0431 -0.4580 -0.0376
 1126HK4    H2494582   6.225   6.015   3.114 -0.9416 -0.4250  1.1777
 1126HK4    C4594583   6.316   5.878   3.246  0.3649  0.3411 -0.0219
 1126HK4    H2594584   6.363   5.956   3.307  1.2652  1.0991 -1.6612
 1127HK4    H2894585   5.172   5.636   4.895  0.3443 -0.4039 -0.0010
 1127HK4    C4894586   5.265   5.690   4.873 -0.5296  0.8897 -0.5764
 1127HK4    C4794587   5.317   5.773   4.972  0.4821 -0.1786 -0.1974
 1127HK4    H2794588   5.261   5.778   5.067 -0.0510 -1.3918 -0.4240
 1127HK4    C4694589   5.427   5.854   4.948 -0.0934  0.6561 -0.0256
 1127HK4    H2694590   5.470   5.911   5.031  0.9636  2.1548 -1.5661
 1127HK4    C4094591   5.495   5.839   4.826  0.3050  0.1317  0.2594
 1127HK4    C5094592   5.444   5.755   4.725  0.5600 -0.0388  0.2707
 1127HK4    H3094593   5.505   5.732   4.636  1.3212  0.3712  0.6807
 1127HK4    C4994594   5.329   5.681   4.750  0.5827 -0.1407  0.0742
 1127HK4    H2994595   5.305   5.595   4.686  1.0850 -1.0560  1.0887
 1127HK4     N294596   5.625   5.887   4.803  0.2910 -0.1272 -0.3745
 1127HK4    C3094597   5.731   5.882   4.896  0.2624 -0.2988 -0.3523
 1127HK4    C2994598   5.746   5.805   5.011 -0.1752  0.2215  0.0555
 1127HK4    H1594599   5.664   5.740   5.042 -0.3463  1.0013  1.2944
 1127HK4    C2894600   5.851   5.825   5.100  0.0475  0.0890 -0.1799
 1127HK4    C2794601   5.950   5.917   5.059  0.3904 -0.1209  0.1759
 1127HK4    H1494602   6.041   5.931   5.119 -0.1539  0.8461  0.7851
 1127HK4    C3294603   5.945   5.990   4.941  0.0274 -0.1332  0.1820
 1127HK4    H1694604   6.034   6.042   4.906  0.2395 -0.5240  0.1442
 1127HK4    C3194605   5.834   5.976   4.858  0.2543 -0.1894 -0.1106
 1127HK4    C3494606   5.796   6.025   4.727 -0.0104  0.1157  0.0806
 1127HK4    C3394607   5.668   5.964   4.693  0.2117 -0.0998 -0.3872
 1127HK4    C3594608   5.616   5.982   4.566  0.0027 -0.0258 -0.2905
 1127HK4    H1794609   5.527   5.927   4.533  0.0720 -0.4891  0.2843
 1127HK4    C3694610   5.678   6.060   4.470  0.4366 -0.6482 -0.5248
 1127HK4    H1894611   5.642   6.080   4.367  2.0554  0.0782 -0.9588
 1127HK4    C3794612   5.797   6.123   4.504  0.0930 -0.4029  0.2225
 1127HK4    H1994613   5.838   6.178   4.419 -1.8502 -0.6283 -0.8881
 1127HK4    C3894614   5.854   6.105   4.629  0.2119  0.1610  0.2502
 1127HK4    H2094615   5.958   6.132   4.643 -0.6931  3.7391  0.5100
 1127HK4    C1494616   5.834   5.790   5.241 -0.0467 -0.1059 -0.2395
 1127HK4     C994617   5.880   5.866   5.349  0.5871 -0.0226 -0.5690
 1127HK4     C894618   5.899   5.797   5.470  0.1291  0.2251 -0.3554
 1127HK4    C1194619   5.877   5.660   5.479  0.6206  0.1604 -0.0989
 1127HK4     H494620   5.898   5.608   5.573 -1.2502 -0.8336 -0.2198
 1127HK4    C1294621   5.833   5.585   5.371  0.1631  0.1464  0.0957
 1127HK4     H594622   5.815   5.476   5.377 -1.6331  0.4699  0.8844
 1127HK4    C1394623   5.809   5.651   5.251  0.2288 -0.1442 -0.0807
 1127HK4     H694624   5.749   5.600   5.175  0.2698 -0.6635  0.2333
 1127HK4     C794625   5.952   5.875   5.584  0.5367 -0.5650 -0.0008
 1127HK4     O294626   5.963   5.817   5.692  0.3608 -0.1261  0.2525
 1127HK4     C494627   6.001   6.014   5.573  0.0173 -0.3510  0.4152
 1127HK4     C394628   6.053   6.084   5.681  0.3900 -0.1367  0.0962
 1127HK4     H394629   6.062   6.031   5.777 -2.9416 -1.9295 -0.5264
 1127HK4     C294630   6.103   6.214   5.679 -0.4483  0.1828 -0.1241
 1127HK4     H294631   6.119   6.267   5.774 -2.2274 -2.5152  1.7626
 1127HK4     C194632   6.098   6.271   5.552  0.3414  0.2824 -0.1116
 1127HK4     H194633   6.147   6.370   5.547  0.6683  0.1715  0.7610
 1127HK4     C694634   6.049   6.207   5.436 -0.8751 -0.0127  0.5551
 1127HK4     C594635   5.991   6.081   5.450 -0.6954 -0.0909  0.6080
 1127HK4    C1094636   5.909   6.012   5.346  0.0182  0.1039 -0.0895
 1127HK4     O194637   5.825   6.087   5.294 -0.2083 -0.1862 -0.1410
 1127HK4    C1694638   6.060   6.282   5.310  0.0003 -0.6025  0.2731
 1127HK4    C1594639   6.086   6.219   5.186 -0.5762 -0.2385 -0.0343
 1127HK4     H794640   6.129   6.119   5.200 -0.2844  0.1014  1.6874
 1127HK4    C2094641   6.078   6.285   5.064  0.7709  0.2409  0.1268
 1127HK4     H994642   6.101   6.229   4.974  3.4927  0.2358  0.7711
 1127HK4    C1994643   6.035   6.417   5.059 -0.1512 -0.0575  0.0470
 1127HK4    C1894644   6.004   6.484   5.184 -0.1799  0.0629 -0.0255
 1127HK4    C1794645   6.015   6.413   5.303  1.0089 -0.2900 -0.3460
 1127HK4     H894646   5.991   6.462   5.397  0.2255  0.2660 -0.8316
 1127HK4     N194647   5.964   6.619   5.172 -0.5688 -0.0792 -0.3318
 1127HK4    C2194648   5.994   6.646   5.037 -0.9001  0.0524 -0.3803
 1127HK4    C2294649   6.033   6.527   4.964  0.4630  0.1172  0.2315
 1127HK4    C2694650   6.065   6.546   4.830  0.2225 -0.1823  0.1315
 1127HK4    H1394651   6.112   6.462   4.779  1.3256 -0.7728  2.0708
 1127HK4    C2594652   6.066   6.671   4.769  0.2489 -0.0091  0.4804
 1127HK4    H1294653   6.059   6.683   4.660  2.7866 -1.7588  0.0731
 1127HK4    C2494654   6.034   6.784   4.843 -0.5133  0.3779 -0.4380
 1127HK4    H1194655   6.045   6.889   4.814  0.2141  0.3240 -0.3530
 1127HK4    C2394656   5.990   6.770   4.974  0.1463  0.1626 -0.2400
 1127HK4    H1094657   5.935   6.854   5.016 -1.4084 -0.8337 -0.2357
 1127HK4    C3994658   5.861   6.677   5.247 -0.4794  0.0639 -0.3163
 1127HK4    C4194659   5.850   6.817   5.265 -0.0829  0.0625 -0.0526
 1127HK4    H2194660   5.945   6.873   5.260  0.1264 -0.3679 -1.0664
 1127HK4    C4294661   5.734   6.881   5.308 -0.0806  0.3919 -0.5302
 1127HK4    H2294662   5.728   6.990   5.305  1.9672  0.5824  0.8525
 1127HK4    C4394663   5.622   6.807   5.343  0.2650  0.1002 -0.0260
 1127HK4    H2394664   5.525   6.853   5.366  0.0663 -1.1979  1.8168
 1127HK4    C4494665   5.634   6.669   5.338 -0.3478  0.0532 -0.3146
 1127HK4    H2494666   5.553   6.608   5.379 -1.0980  1.4028  0.2099
 1127HK4    C4594667   5.749   6.605   5.292 -0.1666 -0.0570  0.2801
 1127HK4    H2594668   5.766   6.500   5.319  0.2473 -0.2539 -0.6981
 1128HK4    H2894669   2.575   7.129  10.022 -0.2653  0.7149 -2.1472
 1128HK4    C4894670   2.640   7.050   9.983 -0.0734 -0.1887 -0.0561
 1128HK4    C4794671   2.717   7.065   9.868  0.1051 -0.2378  0.0582
 1128HK4    H2794672   2.707   7.157   9.809  1.1626 -1.0826 -1.4523
 1128HK4    C4694673   2.798   6.962   9.825  0.1175 -0.0318 -0.4120
 1128HK4    H2694674   2.854   6.974   9.731  1.4927 -2.7654  0.0074
 1128HK4    C4094675   2.801   6.837   9.890 -0.1761  0.1561 -0.0387
 1128HK4    C5094676   2.717   6.822  10.002  0.5440 -0.3536  0.4369
 1128HK4    H3094677   2.708   6.721  10.044 -1.0327  0.1767  1.4506
 1128HK4    C4994678   2.638   6.927  10.049  0.5890 -0.1438  0.0428
 1128HK4    H2994679   2.573   6.916  10.137 -2.2907 -0.2042 -2.0041
 1128HK4     N294680   2.865   6.722   9.841 -0.3491  0.0518 -0.0175
 1128HK4    C3094681   2.894   6.694   9.706 -0.8740 -0.7435  0.0263
 1128HK4    C2994682   2.826   6.733   9.591  0.3329  0.9527 -0.1365
 1128HK4    H1594683   2.755   6.814   9.604 -0.5359 -0.1048  2.0551
 1128HK4    C2894684   2.857   6.682   9.465 -0.1987  0.3765 -0.0397
 1128HK4    C2794685   2.968   6.595   9.462 -0.2925  0.2569 -0.0844
 1128HK4    H1494686   3.014   6.562   9.368 -0.7268 -0.6807  0.0329
 1128HK4    C3294687   3.039   6.551   9.573 -0.0862  0.6677 -0.0497
 1128HK4    H1694688   3.111   6.470   9.563  1.2086  2.1290 -3.1653
 1128HK4    C3194689   3.001   6.596   9.699 -0.4684 -0.3158  0.1944
 1128HK4    C3494690   3.032   6.560   9.835 -0.1995  0.1268  0.2483
 1128HK4    C3394691   2.945   6.638   9.921 -0.3693  0.1239  0.0780
 1128HK4    C3594692   2.949   6.615  10.058 -0.1225 -0.1180  0.0306
 1128HK4    H1794693   2.912   6.688  10.129  0.4071 -1.9608  2.2669
 1128HK4    C3694694   3.033   6.517  10.111  0.2197  0.0084 -0.2807
 1128HK4    H1894695   3.032   6.502  10.220 -2.7078 -1.2289 -0.4367
 1128HK4    C3794696   3.115   6.441  10.028  0.8043  0.3325 -0.0049
 1128HK4    H1994697   3.199   6.385  10.067  1.8138  0.4567 -1.9478
 1128HK4    C3894698   3.118   6.466   9.892 -0.2679 -0.1585 -0.1242
 1128HK4    H2094699   3.189   6.424   9.820 -0.7258 -0.1554 -0.5849
 1128HK4    C1494700   2.767   6.703   9.351 -0.4608  0.1891  0.1338
 1128HK4     C994701   2.751   6.615   9.244 -0.6307  0.0494  0.2740
 1128HK4     C894702   2.732   6.657   9.110 -0.2699  0.2128  0.2730
 1128HK4    C1194703   2.719   6.794   9.093 -0.7198  0.1237 -0.1290
 1128HK4     H494704   2.693   6.831   8.993  0.4629  1.5736  0.0743
 1128HK4    C1294705   2.718   6.885   9.198 -0.1425  0.4261 -0.3843
 1128HK4     H594706   2.695   6.991   9.176  0.0074  0.6096  0.3129
 1128HK4    C1394707   2.743   6.840   9.327  0.5140  0.2455 -0.5689
 1128HK4     H694708   2.752   6.917   9.406  2.6644  0.0933 -0.6447
 1128HK4     C794709   2.698   6.570   8.996 -0.0058  0.4137  0.0431
 1128HK4     O294710   2.708   6.607   8.879  0.3051 -0.3024 -0.1641
 1128HK4     C494711   2.667   6.429   9.028  0.4568  0.2710 -0.1180
 1128HK4     C394712   2.627   6.344   8.925  0.6748 -0.6850  0.5831
 1128HK4     H394713   2.617   6.377   8.820 -1.9041  0.9333  1.2933
 1128HK4     C294714   2.571   6.221   8.955  0.1669 -0.5746  0.1025
 1128HK4     H294715   2.556   6.144   8.878 -0.8169 -0.5250  0.2408
 1128HK4     C194716   2.552   6.187   9.089  0.2254  0.3998  0.3655
 1128HK4     H194717   2.520   6.082   9.104  0.1617  0.3586 -0.0467
 1128HK4     C694718   2.580   6.275   9.195 -0.4943  0.3291  0.6199
 1128HK4     C594719   2.645   6.395   9.163  0.0045 -0.1820 -0.3038
 1128HK4    C1094720   2.710   6.474   9.271 -0.7957  0.0468  0.0143
 1128HK4     O194721   2.759   6.419   9.369 -0.0253  0.3949 -0.1720
 1128HK4    C1694722   2.522   6.235   9.324  0.2770  0.0582  0.8811
 1128HK4    C1594723   2.492   6.098   9.340 -0.9211  0.1513 -0.4742
 1128HK4     H794724   2.571   6.025   9.315 -1.2402 -1.1538  2.1386
 1128HK4    C2094725   2.411   6.057   9.445 -0.1757 -0.2126 -0.0315
 1128HK4     H994726   2.384   5.952   9.457 -3.1703  0.7889  2.8608
 1128HK4    C1994727   2.361   6.152   9.533 -0.0228 -0.2789  0.1245
 1128HK4    C1894728   2.388   6.293   9.513  0.3293 -0.2843  0.5522
 1128HK4    C1794729   2.469   6.332   9.407  0.0477  0.2331  0.5322
 1128HK4     H894730   2.489   6.436   9.379 -0.0836  0.4122  1.0826
 1128HK4     N194731   2.317   6.367   9.610 -0.2442 -0.0527 -0.0422
 1128HK4    C2194732   2.263   6.275   9.702 -0.2653 -0.2965 -0.2993
 1128HK4    C2294733   2.285   6.139   9.657  0.1016 -0.4001  0.1889
 1128HK4    C2694734   2.247   6.035   9.741 -0.1349 -0.3179  0.1803
 1128HK4    H1394735   2.288   5.937   9.716 -1.6377 -0.6464 -1.0940
 1128HK4    C2594736   2.185   6.060   9.863  0.2815 -0.2963  0.3901
 1128HK4    H1294737   2.136   5.985   9.924 -0.7625  0.3190  0.3199
 1128HK4    C2494738   2.163   6.191   9.906 -0.3616 -0.2392 -0.0995
 1128HK4    H1194739   2.133   6.201  10.011 -2.0697  2.9302 -0.8513
 1128HK4    C2394740   2.206   6.296   9.826  0.4568 -0.4475  0.0601
 1128HK4    H1094741   2.197   6.395   9.871 -0.9353 -0.8651  0.7373
 1128HK4    C3994742   2.321   6.506   9.632  0.3899 -0.3200  1.5742
 1128HK4    C4194743   2.223   6.584   9.696  0.0892  0.6308 -0.0299
 1128HK4    H2194744   2.122   6.541   9.702 -0.2154  1.1832 -1.0222
 1128HK4    C4294745   2.251   6.706   9.757 -0.7893  0.6480  0.3511
 1128HK4    H2294746   2.182   6.772   9.811 -0.5236  1.4362 -0.2655
 1128HK4    C4394747   2.383   6.751   9.750 -0.6187 -0.0065 -0.8330
 1128HK4    H2394748   2.407   6.852   9.784 -1.2267  0.0993 -0.7021
 1128HK4    C4494749   2.485   6.678   9.690 -0.0168 -0.0928  0.2811
 1128HK4    H2494750   2.588   6.710   9.709  0.4229 -1.2229 -0.1489
 1128HK4    C4594751   2.453   6.556   9.631  0.3638 -0.2671  0.4331
 1128HK4    H2594752   2.539   6.510   9.580  0.8827  0.3364  0.7509
 1129HK4    H2894753   3.925   8.542   4.085  3.2348  1.8268 -0.3711
 1129HK4    C4894754   3.891   8.593   3.995 -0.4820  0.1001 -0.0440
 1129HK4    C4794755   3.840   8.520   3.888  0.0824 -0.3448 -0.0164
 1129HK4    H2794756   3.816   8.413   3.894  2.5161 -0.9769 -1.1694
 1129HK4    C4694757   3.809   8.581   3.767 -0.0273  0.2371  0.3001
 1129HK4    H2694758   3.750   8.521   3.696 -0.8640  0.3695  0.8768
 1129HK4    C4094759   3.830   8.719   3.749 -0.0315  0.2357  0.2779
 1129HK4    C5094760   3.876   8.787   3.863  0.3278  0.5770 -0.0646
 1129HK4    H3094761   3.873   8.897   3.860 -1.4332  0.4993 -1.4214
 1129HK4    C4994762   3.920   8.728   3.982  0.0387 -0.0280 -0.2551
 1129HK4    H2994763   3.981   8.782   4.055  1.0327  2.5144 -2.8275
 1129HK4     N294764   3.854   8.779   3.624  0.0192 -0.2658  0.0467
 1129HK4    C3094765   3.947   8.731   3.530  0.7919  0.5448  0.3994
 1129HK4    C2994766   4.046   8.635   3.548  0.2807  0.0529  0.6165
 1129HK4    H1594767   4.047   8.578   3.641 -0.1655 -0.2816  0.4156
 1129HK4    C2894768   4.144   8.620   3.451 -0.6416 -0.0587 -0.3046
 1129HK4    C2794769   4.136   8.696   3.332 -0.4656  0.0423 -0.2514
 1129HK4    H1494770   4.220   8.691   3.261 -2.6562 -3.4055 -2.7171
 1129HK4    C3294771   4.037   8.792   3.315 -0.1043  0.4772  0.0728
 1129HK4    H1694772   4.035   8.845   3.220 -0.8886 -2.3779 -1.5609
 1129HK4    C3194773   3.938   8.812   3.410 -0.2607 -0.0993  0.0356
 1129HK4    C3494774   3.825   8.902   3.425 -0.7314 -0.7023  0.0858
 1129HK4    C3394775   3.783   8.884   3.563 -0.3091 -0.3627  0.2586
 1129HK4    C3594776   3.664   8.942   3.605 -0.2947 -0.2334  0.1190
 1129HK4    H1794777   3.637   8.931   3.710 -0.4084 -1.8814 -0.0711
 1129HK4    C3694778   3.584   9.004   3.509 -0.1489  0.0759  0.1983
 1129HK4    H1894779   3.497   9.064   3.541  0.7936  1.1305  0.8269
 1129HK4    C3794780   3.622   9.016   3.376  0.2207  0.3571  0.3296
 1129HK4    H1994781   3.545   9.040   3.303  1.2331 -0.6749 -1.1068
 1129HK4    C3894782   3.748   8.974   3.334  0.0713  0.1583  0.0810
 1129HK4    H2094783   3.789   8.987   3.234 -1.1714  0.3069 -0.4232
 1129HK4    C1494784   4.271   8.558   3.492 -0.4620  0.1475 -0.5332
 1129HK4     C994785   4.399   8.599   3.453 -0.1774 -0.1095  0.1288
 1129HK4     C894786   4.492   8.500   3.416  0.2421  0.3222  0.0127
 1129HK4    C1194787   4.458   8.365   3.426  0.2649  0.3742  0.8195
 1129HK4     H494788   4.541   8.293   3.435 -0.0116  0.0389  0.7016
 1129HK4    C1294789   4.334   8.321   3.471  0.0849  0.0431 -0.0095
 1129HK4     H594790   4.300   8.217   3.482 -0.8895  0.1981 -1.4098
 1129HK4    C1394791   4.245   8.420   3.509  0.0722  0.0920 -0.1597
 1129HK4     H694792   4.146   8.387   3.543 -0.6470  1.3327 -0.9912
 1129HK4     C794793   4.632   8.540   3.394  0.2045  0.3083 -0.2523
 1129HK4     O294794   4.702   8.472   3.319 -0.0815 -0.4047  0.1305
 1129HK4     C494795   4.672   8.681   3.415 -0.1313  0.3112  0.3925
 1129HK4     C394796   4.803   8.725   3.399 -0.0758 -0.1817 -0.5899
 1129HK4     H394797   4.890   8.659   3.387  0.4082  0.4190 -0.3930
 1129HK4     C294798   4.835   8.859   3.378  0.4170 -0.2418 -0.2307
 1129HK4     H294799   4.938   8.892   3.398  0.5876 -0.3178 -0.9721
 1129HK4     C194800   4.737   8.956   3.366  0.2738 -0.3733 -0.1054
 1129HK4     H194801   4.778   9.058   3.370  0.9037 -0.5369 -1.8390
 1129HK4     C694802   4.602   8.913   3.369  0.2950 -0.4687 -0.4954
 1129HK4     C594803   4.572   8.780   3.401 -0.5911 -0.2555 -0.4255
 1129HK4    C1094804   4.437   8.743   3.451 -0.5802 -0.0079 -0.2156
 1129HK4     O194805   4.391   8.816   3.539 -0.4908  0.4844 -0.5775
 1129HK4    C1694806   4.502   9.010   3.323  0.1443 -0.1243  0.5550
 1129HK4    C1594807   4.392   8.975   3.243 -0.1026  0.2922  0.7084
 1129HK4     H794808   4.392   8.877   3.192  0.1048  0.7607 -0.2009
 1129HK4    C2094809   4.284   9.059   3.216 -0.1977 -0.0540 -0.0076
 1129HK4     H994810   4.200   9.011   3.165 -0.6151  0.0071  0.6208
 1129HK4    C1994811   4.285   9.187   3.269 -0.3621 -0.1391  0.2042
 1129HK4    C1894812   4.398   9.229   3.350 -0.1731 -0.1583 -0.0500
 1129HK4    C1794813   4.505   9.142   3.367  0.1059  0.1450 -0.2524
 1129HK4     H894814   4.590   9.189   3.417  0.1524 -0.1286 -0.0770
 1129HK4     N194815   4.387   9.364   3.389  0.4377 -0.0731 -0.1821
 1129HK4    C2194816   4.261   9.402   3.338 -0.0835 -0.4103  0.8492
 1129HK4    C2294817   4.197   9.302   3.256  0.1727  0.2317 -0.1405
 1129HK4    C2694818   4.093   9.330   3.168 -0.3023 -0.0328  0.3377
 1129HK4    H1394819   4.042   9.247   3.119  0.9824 -0.9654  0.5709
 1129HK4    C2594820   4.042   9.459   3.156  0.1785  0.1511  0.2864
 1129HK4    H1294821   3.949   9.473   3.101  0.5838 -0.1113 -0.4720
 1129HK4    C2494822   4.100   9.558   3.235  0.2373  0.3759 -0.0393
 1129HK4    H1194823   4.068   9.663   3.229  0.1147  0.3239 -0.2939
 1129HK4    C2394824   4.205   9.528   3.321 -0.5308 -0.6486  0.5491
 1129HK4    H1094825   4.240   9.606   3.389  0.2398  0.6086 -1.2649
 1129HK4    C3994826   4.449   9.414   3.504  0.0501  0.0094 -0.0118
 1129HK4    C4194827   4.484   9.550   3.500 -0.6045  0.1670 -0.4032
 1129HK4    H2194828   4.447   9.616   3.419  0.2393  1.1718  0.0285
 1129HK4    C4294829   4.541   9.613   3.609 -0.2593 -0.1056 -0.4279
 1129HK4    H2294830   4.569   9.720   3.606  1.8481 -0.6745 -1.8271
 1129HK4    C4394831   4.581   9.539   3.719  0.2012  0.0775 -0.4725
 1129HK4    H2394832   4.627   9.593   3.802 -1.0866 -0.3227  0.5236
 1129HK4    C4494833   4.551   9.403   3.729 -0.4773  0.2594  0.0423
 1129HK4    H2494834   4.569   9.357   3.827 -0.0945 -3.0065 -1.5125
 1129HK4    C4594835   4.487   9.345   3.621 -0.4852  0.0255  0.1750
 1129HK4    H2594836   4.468   9.236   3.627  0.4891 -0.3963 -3.0988
 1130HK4    H2894837   9.297   6.691   4.721  0.1384 -0.0936 -0.5059
 1130HK4    C4894838   9.404   6.708   4.733  0.1495 -0.5981  0.1186
 1130HK4    C4794839   9.462   6.706   4.859 -0.3487 -0.2444  0.3568
 1130HK4    H2794840   9.397   6.697   4.947 -1.9005  0.2291 -0.7234
 1130HK4    C4694841   9.599   6.693   4.882 -0.2037 -0.1767 -0.4577
 1130HK4    H2694842   9.634   6.700   4.986  0.8581  0.8559 -0.8707
 1130HK4    C4094843   9.693   6.680   4.778  0.4015 -0.3934  0.1157
 1130HK4    C5094844   9.632   6.674   4.651  0.1733 -0.5481  0.2337
 1130HK4    H3094845   9.695   6.652   4.563  1.3183  0.0017  0.9037
 1130HK4    C4994846   9.497   6.697   4.630  0.2179 -0.3369  0.1568
 1130HK4    H2994847   9.460   6.694   4.527  0.9930  2.9788 -0.2858
 1130HK4     N294848   9.822   6.625   4.786  0.2716 -0.8137 -0.5791
 1130HK4    C3094849   9.865   6.545   4.894 -0.0250 -0.0512  0.1149
 1130HK4    C2994850   9.800   6.505   5.010  0.3428 -1.1284 -0.0440
 1130HK4    H1594851   9.691   6.516   5.016  0.5143  0.2232  0.7090
 1130HK4    C2894852   9.863   6.437   5.113  0.3618 -0.5161  0.3509
 1130HK4    C2794853   9.998   6.399   5.095  0.5476  0.2581  0.1185
 1130HK4    H1494854  10.056   6.353   5.176  0.0553 -1.2328 -0.3707
 1130HK4    C3294855  10.059   6.440   4.977  0.0310 -0.0039 -0.2410
 1130HK4    H1694856  10.164   6.415   4.965  0.5113  1.6309  0.4599
 1130HK4    C3194857  10.006   6.518   4.875 -0.0472  0.0376 -0.1681
 1130HK4    C3494858  10.049   6.591   4.757 -0.2434 -0.3277 -0.4660
 1130HK4    C3394859   9.931   6.655   4.701  0.0735  0.2489 -0.4757
 1130HK4    C3594860   9.949   6.751   4.603  0.1514  0.5093 -0.2084
 1130HK4    H1794861   9.864   6.804   4.560  0.9614  1.6784 -0.3696
 1130HK4    C3694862  10.076   6.788   4.561  0.1517  0.2517 -0.4468
 1130HK4    H1894863  10.074   6.866   4.483 -0.7477 -1.2576 -1.9795
 1130HK4    C3794864  10.190   6.725   4.611 -0.2275 -0.0177  0.0805
 1130HK4    H1994865  10.287   6.765   4.582  0.1086 -0.2111  0.9381
 1130HK4    C3894866  10.173   6.622   4.703 -0.0572  0.0345  0.1705
 1130HK4    H2094867  10.265   6.570   4.730 -1.2241 -0.6267  2.9964
 1130HK4    C1494868   9.797   6.437   5.244 -0.1699 -0.1338  0.0811
 1130HK4     C994869   9.871   6.438   5.363 -0.1241 -0.2437  0.0526
 1130HK4     C894870   9.839   6.352   5.470 -0.1335 -0.3409 -0.0321
 1130HK4    C1194871   9.719   6.281   5.461  0.0677 -0.6557 -0.2783
 1130HK4     H494872   9.675   6.233   5.550  3.3663  0.9905  2.3780
 1130HK4    C1294873   9.637   6.286   5.349 -0.4819  0.0580  0.1460
 1130HK4     H594874   9.536   6.241   5.349 -0.8547  0.8824 -1.1035
 1130HK4    C1394875   9.679   6.359   5.239 -0.0000 -0.3886  0.0306
 1130HK4     H694876   9.619   6.369   5.148 -0.6489  1.1090  0.6050
 1130HK4     C794877   9.938   6.323   5.575 -0.1340  0.2737  0.1362
 1130HK4     O294878   9.893   6.274   5.679 -0.3289 -0.2477 -0.1991
 1130HK4     C494879  10.077   6.373   5.558  0.0479 -0.3415 -0.2053
 1130HK4     C394880  10.173   6.333   5.650 -0.1803 -0.3622  0.0237
 1130HK4     H394881  10.136   6.293   5.745  1.8041  1.2265  1.5040
 1130HK4     C294882  10.308   6.359   5.631 -0.3158  0.4320  0.1074
 1130HK4     H294883  10.385   6.320   5.699 -0.4547  0.5551  0.3359
 1130HK4     C194884  10.333   6.436   5.518 -0.0848 -0.1971 -0.2770
 1130HK4     H194885  10.439   6.431   5.486  0.5601 -0.1147  1.7678
 1130HK4     C694886  10.239   6.496   5.432 -0.2696 -0.1615 -0.0592
 1130HK4     C594887  10.105   6.468   5.458 -0.3029  0.4563  0.4455
 1130HK4    C1094888   9.994   6.521   5.374 -0.2995  0.0090  0.1563
 1130HK4     O194889   9.971   6.641   5.355  0.4842  0.1105 -0.1577
 1130HK4    C1694890  10.284   6.513   5.293 -0.2955 -0.2659 -0.0806
 1130HK4    C1594891  10.382   6.432   5.233  0.3808 -0.0294  0.6891
 1130HK4     H794892  10.393   6.333   5.280  1.3628  0.7065  2.0101
 1130HK4    C2094893  10.453   6.455   5.116 -0.2361 -0.0436  0.3092
 1130HK4     H994894  10.531   6.389   5.078 -0.4921  1.4533 -2.9732
 1130HK4    C1994895  10.425   6.574   5.049 -0.5414 -0.3432 -0.1008
 1130HK4    C1894896  10.331   6.664   5.112  0.1440  0.0148  0.4168
 1130HK4    C1794897  10.263   6.635   5.229  0.8910  0.5237  0.9869
 1130HK4     H894898  10.207   6.705   5.292 -0.8204 -0.0798  0.1772
 1130HK4     N194899  10.315   6.781   5.034  0.3961  0.0141  0.3629
 1130HK4    C2194900  10.391   6.760   4.916 -0.1150 -0.5495  0.1320
 1130HK4    C2294901  10.466   6.636   4.925  0.5143 -0.1526  0.3389
 1130HK4    C2694902  10.565   6.603   4.833 -0.0168  0.0835 -0.3171
 1130HK4    H1394903  10.621   6.511   4.850 -0.7813 -0.4047 -0.3969
 1130HK4    C2594904  10.586   6.683   4.721  0.3234  0.0393 -0.2826
 1130HK4    H1294905  10.641   6.653   4.632  1.9607 -2.8580  1.6107
 1130HK4    C2494906  10.514   6.802   4.709  0.4832  0.2142  0.4337
 1130HK4    H1194907  10.524   6.853   4.612 -2.6760 -3.5135 -2.0382
 1130HK4    C2394908  10.422   6.839   4.806  0.1791 -0.3444  0.3628
 1130HK4    H1094909  10.385   6.941   4.808 -0.9454 -0.7390 -0.3025
 1130HK4    C3994910  10.217   6.880   5.046  0.3383  0.0272 -0.1816
 1130HK4    C4194911  10.233   7.014   5.005  0.0854 -0.1017 -0.7062
 1130HK4    H2194912  10.331   7.065   5.008 -0.9071  1.8241 -0.6176
 1130HK4    C4294913  10.121   7.092   4.980  0.0759  0.1668  0.1831
 1130HK4    H2294914  10.138   7.194   4.942  0.1854  0.0731 -0.0186
 1130HK4    C4394915   9.991   7.049   5.001  0.0784  0.1513  0.1746
 1130HK4    H2394916   9.904   7.115   4.998  0.7619  1.0394 -0.3465
 1130HK4    C4494917   9.971   6.918   5.041 -0.6031  0.2561  0.1969
 1130HK4    H2494918   9.870   6.882   5.064  0.9975 -3.9595  1.2371
 1130HK4    C4594919  10.083   6.836   5.053  0.0073  1.0195 -0.2135
 1130HK4    H2594920  10.072   6.729   5.075 -1.7018  0.7814 -2.0845
 1131HK4    H2894921   5.084   4.104  10.495  0.1959  0.4986  3.1188
 1131HK4    C4894922   5.017   4.019  10.510 -0.3909  0.2859 -0.2946
 1131HK4    C4794923   5.011   3.912  10.421  0.0981  0.1483 -0.1697
 1131HK4    H2794924   5.077   3.908  10.333  0.2343 -2.2008  0.0120
 1131HK4    C4694925   4.925   3.807  10.451 -0.0547  0.2986 -0.0790
 1131HK4    H2694926   4.936   3.719  10.385 -2.5887 -0.1979  0.1243
 1131HK4    C4094927   4.863   3.789  10.577 -0.1303 -0.0455 -0.1608
 1131HK4    C5094928   4.861   3.902  10.660 -0.3364 -0.2003  0.0400
 1131HK4    H3094929   4.807   3.893  10.756 -1.4500  0.6471 -0.5008
 1131HK4    C4994930   4.936   4.013  10.623 -0.2082 -0.3656 -0.1949
 1131HK4    H2994931   4.938   4.102  10.687 -0.3964  0.0608 -0.7781
 1131HK4     N294932   4.780   3.683  10.614 -0.1733 -0.0215 -0.1944
 1131HK4    C3094933   4.708   3.602  10.523 -0.4131 -0.4186  0.3478
 1131HK4    C2994934   4.636   3.639  10.410 -0.1894 -0.0987  0.3086
 1131HK4    H1594935   4.660   3.734  10.362  1.6124 -0.8273 -0.2480
 1131HK4    C2894936   4.533   3.561  10.359 -0.3430 -0.0693  0.5636
 1131HK4    C2794937   4.524   3.429  10.408  0.0199 -0.3693 -0.1470
 1131HK4    H1494938   4.441   3.368  10.368  0.0758 -0.8271  0.4198
 1131HK4    C3294939   4.601   3.384  10.515 -0.0210 -0.4260 -0.1400
 1131HK4    H1694940   4.571   3.292  10.565  1.0280 -0.7927 -0.1864
 1131HK4    C3194941   4.690   3.470  10.578 -0.3409 -0.4379  0.3247
 1131HK4    C3494942   4.737   3.476  10.715 -0.1657 -0.0758  0.2522
 1131HK4    C3394943   4.800   3.606  10.730 -0.6686  0.1940  0.0348
 1131HK4    C3594944   4.841   3.644  10.857 -0.4544  0.1903 -0.0330
 1131HK4    H1794945   4.888   3.741  10.871 -0.5747  0.0910  1.1296
 1131HK4    C3694946   4.811   3.567  10.970 -0.5253  0.1988 -0.0461
 1131HK4    H1894947   4.805   3.624  11.064  0.1122  0.5620 -0.2206
 1131HK4    C3794948   4.755   3.441  10.954  0.4297 -0.2369 -0.0064
 1131HK4    H1994949   4.758   3.375  11.041  1.6485 -1.0079 -0.6380
 1131HK4    C3894950   4.711   3.401  10.829 -0.4966  0.0101  0.2292
 1131HK4    H2094951   4.644   3.314  10.827  1.2691 -1.4031  0.7820
 1131HK4    C1494952   4.412   3.626  10.308 -0.1235 -0.1685 -0.0953
 1131HK4     C994953   4.280   3.591  10.339 -0.0757  0.0639  0.3814
 1131HK4     C894954   4.173   3.606  10.248 -0.1783  0.0563  0.5005
 1131HK4    C1194955   4.194   3.678  10.131 -0.0988  0.0351  0.5017
 1131HK4     H494956   4.114   3.675  10.055  0.2708 -0.2848  0.1208
 1131HK4    C1294957   4.320   3.733  10.111 -0.0635 -0.2295 -0.0145
 1131HK4     H594958   4.319   3.822  10.048  2.2836 -2.2779 -3.1156
 1131HK4    C1394959   4.430   3.699  10.189  0.0468 -0.5630 -0.3104
 1131HK4     H694960   4.534   3.730  10.175 -0.1526  1.3750  2.2230
 1131HK4     C794961   4.045   3.533  10.266 -0.1800 -0.1238 -0.2359
 1131HK4     O294962   3.942   3.598  10.249 -0.0553  0.0781 -0.2277
 1131HK4     C494963   4.041   3.432  10.374 -0.0640 -0.6005 -0.6749
 1131HK4     C394964   3.938   3.339  10.370 -0.2253 -0.4469 -0.0397
 1131HK4     H394965   3.861   3.360  10.294 -1.3060 -0.1847  1.0901
 1131HK4     C294966   3.910   3.261  10.482 -0.4534 -0.2631  0.0372
 1131HK4     H294967   3.819   3.201  10.489 -0.0525 -1.2447 -2.3636
 1131HK4     C194968   3.999   3.268  10.589 -0.1832  0.6177 -0.2441
 1131HK4     H194969   4.001   3.175  10.647  1.0585  0.9554  0.2710
 1131HK4     C694970   4.110   3.354  10.594  0.0819  0.2902 -0.4756
 1131HK4     C594971   4.126   3.442  10.486 -0.4825  0.4420 -0.4350
 1131HK4    C1094972   4.247   3.527  10.470 -0.2010  0.2144  0.4207
 1131HK4     O194973   4.288   3.586  10.570  0.3371 -0.2847  0.4971
 1131HK4    C1694974   4.211   3.316  10.694  0.1632 -0.2213 -0.7496
 1131HK4    C1594975   4.254   3.183  10.714  0.0079 -0.1182  0.3125
 1131HK4     H794976   4.248   3.115  10.627 -0.1377  0.1802  0.0882
 1131HK4    C2094977   4.318   3.139  10.829  0.5818  0.0337  0.0552
 1131HK4     H994978   4.339   3.032  10.831 -2.7522 -0.6670  1.7991
 1131HK4    C1994979   4.352   3.227  10.931  0.2393  0.5874 -0.3052
 1131HK4    C1894980   4.316   3.366  10.911  0.1342  0.5217 -0.5675
 1131HK4    C1794981   4.240   3.401  10.800 -0.8267 -0.5097 -0.2427
 1131HK4     H894982   4.200   3.502  10.796  1.7200  0.5551  0.6137
 1131HK4     N194983   4.361   3.448  11.016  0.0063 -0.2606  0.1084
 1131HK4    C2194984   4.425   3.357  11.101 -0.3101 -0.2286  0.3823
 1131HK4    C2294985   4.425   3.219  11.056  0.8095  0.1067 -0.6662
 1131HK4    C2694986   4.503   3.121  11.117 -0.6100 -0.2849  0.5294
 1131HK4    H1394987   4.535   3.042  11.049 -0.0824 -1.8319  2.5417
 1131HK4    C2594988   4.569   3.150  11.236  0.4141  0.0102 -0.1135
 1131HK4    H1294989   4.596   3.067   0.053  0.3232  0.4055  0.4294
 1131HK4    C2494990   4.581   3.284   0.023 -0.5061 -0.2188  1.0875
 1131HK4    H1194991   4.649   3.314   0.105  1.3122 -1.6298  0.1388
 1131HK4    C2394992   4.508   3.385  11.209  0.4186 -0.2995 -0.1555
 1131HK4    H1094993   4.494   3.477   0.017  0.4632 -0.0935 -0.4864
 1131HK4    C3994994   4.390   3.584  11.002 -0.6441 -0.1255  0.0331
 1131HK4    C4194995   4.410   3.661  11.119 -0.0226  0.1332 -0.2315
 1131HK4    H2194996   4.360   3.630  11.212  1.8639  0.7082  0.9960
 1131HK4    C4294997   4.484   3.778  11.113  0.1260  0.0517  0.0051
 1131HK4    H2294998   4.520   3.823  11.207  1.2917 -1.5144  0.3367
 1131HK4    C4394999   4.531   3.828  10.993  0.4205 -0.2556 -0.0059
 1131HK4    H2395000   4.591   3.919  10.990 -0.5106  0.3248 -1.5928
 1131HK4    C4495001   4.505   3.759  10.875  0.1561 -0.0936 -0.0435
 1131HK4    H2495002   4.508   3.806  10.776 -1.6227 -0.3236 -0.2235
 1131HK4    C4595003   4.444   3.634  10.881 -0.6756  0.3162  0.1991
 1131HK4    H2595004   4.436   3.572  10.790  2.4261 -1.9110  1.3478
 1132HK4    H2895005   1.801   5.223   6.149  3.0330 -0.2505 -0.6803
 1132HK4    C4895006   1.834   5.211   6.253 -0.3632  0.1283  0.5179
 1132HK4    C4795007   1.926   5.301   6.305 -0.8309  0.8361  0.1356
 1132HK4    H2795008   1.930   5.406   6.272  2.5339 -0.2642 -3.2855
 1132HK4    C4695009   1.982   5.281   6.431 -0.3101  0.1358 -0.2048
 1132HK4    H2695010   2.064   5.347   6.464 -1.2368  1.6883 -0.9216
 1132HK4    C4095011   1.960   5.165   6.508  0.2478 -0.0750 -0.3565
 1132HK4    C5095012   1.870   5.077   6.444 -0.0830  0.0130 -0.0172
 1132HK4    H3095013   1.858   4.976   6.485 -0.2804 -0.2944 -0.8158
 1132HK4    C4995014   1.800   5.098   6.325 -0.5948  0.0510  0.2885
 1132HK4    H2995015   1.722   5.023   6.305 -0.4623  0.0715 -0.3125
 1132HK4     N295016   1.977   5.157   6.646  0.1944  0.6942 -0.3005
 1132HK4    C3095017   1.983   5.264   6.738  0.0977  0.1894  0.2922
 1132HK4    C2995018   1.912   5.383   6.729 -0.1574  0.0543  0.5012
 1132HK4    H1595019   1.835   5.383   6.652  2.8725 -1.4334 -2.6481
 1132HK4    C2895020   1.910   5.478   6.830  0.1272 -0.0157  0.5739
 1132HK4    C2795021   1.979   5.445   6.948  0.1057 -0.4128  0.4736
 1132HK4    H1495022   1.997   5.525   7.021 -0.4735  1.1002 -1.0231
 1132HK4    C3295023   2.042   5.321   6.964 -0.0319 -0.4857  0.4487
 1132HK4    H1695024   2.082   5.292   7.061 -0.3137 -1.5475  0.2557
 1132HK4    C3195025   2.053   5.229   6.861 -0.2261 -0.3642  0.3197
 1132HK4    C3495026   2.089   5.089   6.845 -0.3570 -0.3319 -0.2867
 1132HK4    C3395027   2.041   5.051   6.714 -0.4251  0.2398 -0.4305
 1132HK4    C3595028   2.058   4.919   6.671 -0.8102 -0.2089  0.7824
 1132HK4    H1795029   2.042   4.893   6.567  0.3458 -1.0688  0.8096
 1132HK4    C3695030   2.121   4.832   6.759 -0.0538 -0.5013 -0.0412
 1132HK4    H1895031   2.098   4.727   6.736 -1.4434 -0.7955  2.4118
 1132HK4    C3795032   2.175   4.872   6.881  0.6451  0.1505 -0.5650
 1132HK4    H1995033   2.249   4.807   6.929  1.0318  1.1809  0.2329
 1132HK4    C3895034   2.160   5.002   6.926 -0.4258 -0.1530 -0.0369
 1132HK4    H2095035   2.189   5.039   7.025  1.1422  0.5000 -0.7268
 1132HK4    C1495036   1.882   5.620   6.802 -0.0790 -0.1010  0.3379
 1132HK4     C995037   1.944   5.728   6.865 -0.1515  0.0074  0.2248
 1132HK4     C895038   1.856   5.836   6.887 -0.2363  0.0346 -0.2593
 1132HK4    C1195039   1.725   5.838   6.841 -0.2343 -0.3940 -0.2847
 1132HK4     H495040   1.662   5.920   6.879 -0.3321  0.1896 -1.6939
 1132HK4    C1295041   1.671   5.732   6.769  0.1977 -0.4320 -0.5544
 1132HK4     H595042   1.569   5.743   6.729 -0.2642 -0.8455  0.4881
 1132HK4    C1395043   1.752   5.621   6.748  0.2474 -0.4134 -0.4603
 1132HK4     H695044   1.733   5.557   6.661  1.9870  0.4184 -1.4769
 1132HK4     C795045   1.916   5.966   6.925  0.4117 -0.2965 -0.1475
 1132HK4     O295046   1.843   6.046   6.984 -0.0182 -0.4440 -0.4746
 1132HK4     C495047   2.062   5.991   6.917  0.4102 -0.1562  0.2533
 1132HK4     C395048   2.109   6.116   6.955  0.4181  0.0332 -0.3743
 1132HK4     H395049   2.047   6.183   7.018 -0.9284  0.3192 -1.9591
 1132HK4     C295050   2.236   6.151   6.912  0.5017 -0.0863 -0.2261
 1132HK4     H295051   2.258   6.258   6.923 -2.3097  0.6015 -0.9012
 1132HK4     C195052   2.319   6.062   6.844 -0.0148 -0.3683 -0.4866
 1132HK4     H195053   2.417   6.099   6.811  0.8380 -2.9734 -0.9497
 1132HK4     C695054   2.271   5.936   6.802  0.0985 -0.5689 -0.0163
 1132HK4     C595055   2.146   5.899   6.853 -0.0053 -0.3065 -0.0786
 1132HK4    C1095056   2.089   5.762   6.849 -0.0990 -0.2719  0.1098
 1132HK4     O195057   2.166   5.666   6.853  0.1486 -0.0951 -0.4173
 1132HK4    C1695058   2.364   5.843   6.736  0.5187 -0.3008  0.1880
 1132HK4    C1595059   2.503   5.856   6.754  0.5645 -0.0735 -0.3083
 1132HK4     H795060   2.539   5.923   6.834  0.3780 -1.5399  1.0416
 1132HK4    C2095061   2.595   5.788   6.675  0.7617  0.5462 -0.6176
 1132HK4     H995062   2.699   5.816   6.689  1.2103 -1.5281  0.3339
 1132HK4    C1995063   2.548   5.700   6.579 -0.0847 -0.0965  0.3712
 1132HK4    C1895064   2.405   5.693   6.552 -0.0018 -0.1150 -0.0697
 1132HK4    C1795065   2.317   5.767   6.629  0.2023 -0.2195  0.2684
 1132HK4     H895066   2.230   5.805   6.576  0.7958 -1.2356 -1.4587
 1132HK4     N195067   2.378   5.610   6.441 -0.5997 -0.2101  0.1493
 1132HK4    C2195068   2.504   5.563   6.398 -0.0616  0.9009  0.4885
 1132HK4    C2295069   2.610   5.605   6.488  0.4638  0.6081  0.0087
 1132HK4    C2695070   2.740   5.556   6.484  0.2319  0.0063 -0.2321
 1132HK4    H1395071   2.821   5.584   6.551  1.0581 -0.4577 -1.0189
 1132HK4    C2595072   2.770   5.468   6.381 -0.1889  0.1957 -0.5183
 1132HK4    H1295073   2.874   5.433   6.376 -0.5638 -1.2580  1.4273
 1132HK4    C2495074   2.671   5.427   6.293 -0.4342  0.0250 -0.1618
 1132HK4    H1195075   2.694   5.349   6.219 -3.1463 -1.0126  0.0237
 1132HK4    C2395076   2.540   5.473   6.298 -0.2214  0.5244  0.7635
 1132HK4    H1095077   2.475   5.469   6.211  0.5081 -1.9379  0.3143
 1132HK4    C3995078   2.261   5.586   6.369 -0.4266  0.1663 -0.2556
 1132HK4    C4195079   2.244   5.466   6.297  0.7138  0.0057 -0.2669
 1132HK4    H2195080   2.285   5.372   6.338 -0.5268 -0.0429  0.8906
 1132HK4    C4295081   2.173   5.455   6.178 -0.4851 -0.5291  0.4904
 1132HK4    H2295082   2.182   5.368   6.110 -1.0457 -0.9946  1.0019
 1132HK4    C4395083   2.099   5.566   6.139  0.2237 -0.2714 -0.1193
 1132HK4    H2395084   2.039   5.565   6.049 -0.3240 -3.3297  0.2208
 1132HK4    C4495085   2.116   5.690   6.200 -0.0330 -0.2449 -0.0995
 1132HK4    H2495086   2.091   5.784   6.149 -2.5828 -1.5805 -1.3888
 1132HK4    C4595087   2.200   5.699   6.310  0.0711  0.4411 -0.2380
 1132HK4    H2595088   2.232   5.797   6.350  1.2556  1.0327 -2.5563
 1133HK4    H2895089  10.589   3.439   2.486 -0.9667  0.7290  0.7867
 1133HK4    C4895090  10.535   3.345   2.493  0.3584 -0.0890  0.2228
 1133HK4    C4795091  10.490   3.278   2.380  0.0815 -0.4425  0.5432
 1133HK4    H2795092  10.550   3.286   2.288 -0.4360 -0.0038  0.2370
 1133HK4    C4695093  10.380   3.192   2.378 -0.1891 -0.0922  0.1099
 1133HK4    H2695094  10.371   3.145   2.279  0.0514  1.1241 -0.5031
 1133HK4    C4095095  10.318   3.160   2.500 -0.3051 -0.3771 -0.0255
 1133HK4    C5095096  10.375   3.213   2.618 -0.2370 -0.3469 -0.0732
 1133HK4    H3095097  10.324   3.180   2.710 -0.9830 -2.0455 -1.0704
 1133HK4    C4995098  10.478   3.306   2.613 -0.7567  0.2310 -0.1908
 1133HK4    H2995099  10.521   3.359   2.700  0.2579 -1.0277  0.0938
 1133HK4     N295100  10.179   3.142   2.501 -0.3940  0.2984  0.3208
 1133HK4    C3095101  10.092   3.179   2.397 -0.0724  0.0032 -0.0521
 1133HK4    C2995102  10.098   3.289   2.312  0.0764 -0.0370 -0.0938
 1133HK4    H1595103  10.191   3.345   2.314 -2.0938  3.6467  2.9671
 1133HK4    C2895104   9.985   3.329   2.243  0.0599  0.1699  0.0575
 1133HK4    C2795105   9.867   3.253   2.260  0.1543  0.0705  0.2756
 1133HK4    H1495106   9.773   3.286   2.213  0.5596  1.0004  0.0953
 1133HK4    C3295107   9.856   3.140   2.340 -0.2398 -0.0209  0.0946
 1133HK4    H1695108   9.766   3.080   2.351 -0.9011  1.0269  0.4664
 1133HK4    C3195109   9.968   3.107   2.416 -0.3371  0.6191  0.5236
 1133HK4    C3495110   9.984   3.026   2.536 -0.2996 -0.2457 -0.0610
 1133HK4    C3395111  10.121   3.041   2.581 -0.2697 -0.1647 -0.1724
 1133HK4    C3595112  10.155   2.972   2.696 -0.3652  0.1838  0.0657
 1133HK4    H1795113  10.258   2.963   2.732 -0.5952  0.9023  0.9392
 1133HK4    C3695114  10.064   2.895   2.768 -0.2029 -0.1715 -0.1075
 1133HK4    H1895115  10.102   2.843   2.857 -1.4592 -1.2075 -0.1726
 1133HK4    C3795116   9.939   2.868   2.713 -0.0641 -0.3595 -0.3290
 1133HK4    H1995117   9.878   2.784   2.745 -0.6188  0.9113  2.0615
 1133HK4    C3895118   9.899   2.936   2.598 -0.2296 -0.5171 -0.3630
 1133HK4    H2095119   9.797   2.914   2.564 -1.0596 -0.6756  2.1361
 1133HK4    C1495120   9.976   3.460   2.176 -0.0651 -0.1246 -0.4996
 1133HK4     C995121   9.863   3.542   2.165  0.1109  0.1941  0.0828
 1133HK4     C895122   9.850   3.621   2.050 -0.2430  0.3124  0.2028
 1133HK4    C1195123   9.952   3.618   1.955  0.0938  0.1641  0.5630
 1133HK4     H495124   9.955   3.683   1.866  0.4819 -1.5887 -0.7201
 1133HK4    C1295125  10.066   3.539   1.958  0.2162  0.3047 -0.2741
 1133HK4     H595126  10.144   3.538   1.880 -0.0932  0.5134 -0.5883
 1133HK4    C1395127  10.076   3.467   2.076  0.0651  0.1656 -0.3441
 1133HK4     H695128  10.177   3.431   2.099  0.6326  1.3080 -0.9937
 1133HK4     C795129   9.738   3.717   2.045 -0.5061  0.0105  0.3547
 1133HK4     O295130   9.730   3.782   1.941  0.2109 -0.5640 -0.0641
 1133HK4     C495131   9.638   3.733   2.153 -0.6934  0.2167  0.1530
 1133HK4     C395132   9.539   3.830   2.139 -0.2652  0.6786  0.2623
 1133HK4     H395133   9.520   3.893   2.051 -0.8572 -0.7186 -0.6324
 1133HK4     C295134   9.430   3.833   2.226 -0.5585  0.6452 -0.1083
 1133HK4     H295135   9.357   3.915   2.232  0.3067  1.3996  0.0626
 1133HK4     C195136   9.417   3.720   2.306  0.4094  0.2393 -0.5142
 1133HK4     H195137   9.325   3.703   2.365 -0.1725  2.2945 -0.7801
 1133HK4     C695138   9.512   3.616   2.312 -0.0721 -0.1819 -0.1217
 1133HK4     C595139   9.634   3.626   2.245 -0.0145  0.0788  0.0210
 1133HK4    C1095140   9.759   3.550   2.272  0.0547  0.1897  0.0263
 1133HK4     O195141   9.797   3.547   2.389  0.4627  0.7330 -0.0916
 1133HK4    C1695142   9.472   3.499   2.392 -0.3026  0.0801  0.1453
 1133HK4    C1595143   9.514   3.370   2.353  0.0570  0.2080  0.1155
 1133HK4     H795144   9.529   3.350   2.246  0.1947 -0.1190  0.1948
 1133HK4    C2095145   9.547   3.274   2.448 -0.3042  0.1141  0.1456
 1133HK4     H995146   9.587   3.182   2.407 -0.3362  1.3966 -2.9370
 1133HK4    C1995147   9.534   3.297   2.585  0.6073  0.5721  0.1587
 1133HK4    C1895148   9.486   3.429   2.624 -0.7174  0.0711  0.2442
 1133HK4    C1795149   9.462   3.526   2.528  0.2261  0.2278  0.1556
 1133HK4     H895150   9.446   3.631   2.555 -0.5682 -0.6420  3.2196
 1133HK4     N195151   9.506   3.451   2.761  0.2752 -0.0518  0.1274
 1133HK4    C2195152   9.560   3.333   2.816 -0.7933 -0.2593  0.7454
 1133HK4    C2295153   9.586   3.241   2.708  0.4946  0.6708  0.2522
 1133HK4    C2695154   9.648   3.120   2.738 -0.0765  0.1373 -0.6746
 1133HK4    H1395155   9.666   3.051   2.656  2.2400 -1.0818  0.7966
 1133HK4    C2595156   9.673   3.086   2.871 -0.4995  0.0980 -0.6044
 1133HK4    H1295157   9.720   2.989   2.887  0.3867  0.9447  2.1143
 1133HK4    C2495158   9.641   3.172   2.975  0.1761  0.3363 -0.5891
 1133HK4    H1195159   9.673   3.140   3.076  1.8813  0.4244 -1.0940
 1133HK4    C2395160   9.583   3.295   2.948 -0.2857  0.4519  0.8651
 1133HK4    H1095161   9.566   3.360   3.034  1.9952 -0.2598  1.8763
 1133HK4    C3995162   9.426   3.539   2.835  0.1499 -0.2101  0.1769
 1133HK4    C4195163   9.464   3.588   2.962  0.0266 -0.0618  0.1564
 1133HK4    H2195164   9.570   3.608   2.984  0.9285 -1.1647 -2.9470
 1133HK4    C4295165   9.373   3.639   3.054 -0.2641 -0.1047 -0.1084
 1133HK4    H2295166   9.410   3.661   3.155  1.5740 -0.5715 -0.6592
 1133HK4    C4395167   9.237   3.637   3.024 -0.2352  0.1192 -0.2539
 1133HK4    H2395168   9.161   3.677   3.090  1.3872  1.3229  0.9234
 1133HK4    C4495169   9.196   3.587   2.900  0.5069 -0.3207 -0.3266
 1133HK4    H2495170   9.089   3.571   2.882  0.6731 -3.3019  0.9413
 1133HK4    C4595171   9.288   3.546   2.804  0.3470  0.1024 -0.6601
 1133HK4    H2595172   9.247   3.510   2.709 -1.5108 -1.1180  0.5732
 1134HK4    H2895173   5.279   6.899   3.992  1.2037 -2.4640  1.4741
 1134HK4    C4895174   5.340   6.972   4.047  0.4988 -0.4041 -0.4238
 1134HK4    C4795175   5.347   6.963   4.185 -0.2307  0.4439 -0.3314
 1134HK4    H2795176   5.294   6.877   4.227 -0.6380  0.5396 -0.6438
 1134HK4    C4695177   5.443   7.041   4.249 -0.4658  0.1313  0.4028
 1134HK4    H2695178   5.458   7.035   4.358 -1.1591  2.1209  0.6242
 1134HK4    C4095179   5.536   7.126   4.187 -0.8643  0.2711 -0.0010
 1134HK4    C5095180   5.521   7.134   4.047  0.3338  0.0650 -0.1471
 1134HK4    H3095181   5.594   7.191   3.988 -0.4024  1.2735  0.1006
 1134HK4    C4995182   5.424   7.059   3.980  0.3422  0.0030 -0.0880
 1134HK4    H2995183   5.436   7.051   3.871 -0.0385  0.2540 -0.1489
 1134HK4     N295184   5.597   7.237   4.246  0.1954 -0.6468  0.6513
 1134HK4    C3095185   5.535   7.306   4.353 -0.0283  0.5116 -0.2231
 1134HK4    C2995186   5.402   7.325   4.389 -0.1716  0.0432 -0.4994
 1134HK4    H1595187   5.331   7.276   4.324  0.3552 -0.1183 -0.9549
 1134HK4    C2895188   5.359   7.408   4.492 -0.0609 -0.1235 -0.3181
 1134HK4    C2795189   5.455   7.492   4.551 -0.3032  0.3512 -0.5919
 1134HK4    H1495190   5.424   7.566   4.627  0.9913 -1.8615  2.1861
 1134HK4    C3295191   5.589   7.482   4.515 -0.1415 -0.3300  0.1841
 1134HK4    H1695192   5.656   7.562   4.544  1.2479 -0.5415 -2.2539
 1134HK4    C3195193   5.632   7.390   4.420  0.2825 -0.3021  0.3486
 1134HK4    C3495194   5.763   7.356   4.368  0.0382 -1.1603  0.2954
 1134HK4    C3395195   5.733   7.272   4.253  0.2448 -0.6832 -0.1089
 1134HK4    C3595196   5.842   7.225   4.182  0.4708  0.2154 -0.3619
 1134HK4    H1795197   5.838   7.164   4.092 -0.3322 -1.1016  0.5742
 1134HK4    C3695198   5.975   7.251   4.216  0.2336  0.3133  0.4851
 1134HK4    H1895199   6.052   7.192   4.165  0.8019 -0.5671  2.3320
 1134HK4    C3795200   6.001   7.337   4.323  0.8442  0.4657  0.2144
 1134HK4    H1995201   6.104   7.370   4.337  0.1969  2.1121  1.1435
 1134HK4    C3895202   5.895   7.389   4.396 -0.0361  0.0166 -0.7095
 1134HK4    H2095203   5.913   7.469   4.469 -3.0009  0.5241 -0.4859
 1134HK4    C1495204   5.222   7.404   4.546 -0.0497  0.1943 -0.2603
 1134HK4     C995205   5.159   7.509   4.614 -0.5463 -0.1353 -0.2170
 1134HK4     C895206   5.088   7.480   4.732 -0.5698  0.1832 -0.1532
 1134HK4    C1195207   5.072   7.349   4.776  0.0545  0.0895 -0.2036
 1134HK4     H495208   5.021   7.324   4.870  1.9117 -2.1471  0.2500
 1134HK4    C1295209   5.114   7.242   4.698 -0.3469  0.3899 -0.8384
 1134HK4     H595210   5.078   7.139   4.716  0.6728  0.1677 -0.0354
 1134HK4    C1395211   5.188   7.273   4.585 -0.1356  0.0569 -0.7936
 1134HK4     H695212   5.218   7.193   4.516 -0.6135 -1.2236  0.4746
 1134HK4     C795213   5.032   7.591   4.813 -0.4005 -0.0294  0.2575
 1134HK4     O295214   4.982   7.572   4.924  0.0186  0.4214  0.5251
 1134HK4     C495215   5.037   7.728   4.757 -0.1919 -0.0860  0.1349
 1134HK4     C395216   4.992   7.837   4.831  0.1989  0.2896 -0.1788
 1134HK4     H395217   4.977   7.835   4.940 -0.3741  3.5559 -0.1475
 1134HK4     C295218   4.954   7.955   4.766 -0.4303  0.1475 -0.0725
 1134HK4     H295219   4.929   8.046   4.821  1.2988  2.1070 -2.4317
 1134HK4     C195220   4.946   7.954   4.628  0.2342  0.3536 -0.1155
 1134HK4     H195221   4.923   8.050   4.581  1.6124  1.1871  0.8913
 1134HK4     C695222   4.976   7.839   4.551  0.2202  0.1108  0.2403
 1134HK4     C595223   5.043   7.736   4.617 -0.1625 -0.2085  0.1294
 1134HK4    C1095224   5.138   7.642   4.551 -0.5579 -0.2303 -0.4133
 1134HK4     O195225   5.212   7.678   4.459 -0.3991  0.4536 -0.0194
 1134HK4    C1695226   4.929   7.830   4.412  0.6565 -0.0303  0.1027
 1134HK4    C1595227   4.895   7.942   4.333  0.1614 -0.1427  0.1577
 1134HK4     H795228   4.874   8.036   4.388  2.2629 -0.3902  1.4559
 1134HK4    C2095229   4.835   7.933   4.209 -0.2370 -0.5284  0.3788
 1134HK4     H995230   4.791   8.019   4.159  0.1456 -1.4993 -1.6812
 1134HK4    C1995231   4.821   7.807   4.150 -1.0096 -0.4211  0.3211
 1134HK4    C1895232   4.852   7.693   4.234 -0.1557 -0.0158  0.5584
 1134HK4    C1795233   4.907   7.703   4.361  0.1808 -0.0712  0.4196
 1134HK4     H895234   4.906   7.610   4.418  2.0217 -0.6697 -0.4886
 1134HK4     N195235   4.812   7.573   4.171  0.4184  0.0817 -0.0019
 1134HK4    C2195236   4.751   7.616   4.051  0.6277 -0.3597 -0.2667
 1134HK4    C2295237   4.768   7.757   4.025  0.8768 -0.4299 -0.4812
 1134HK4    C2695238   4.705   7.819   3.917 -0.2483 -0.3891  0.2017
 1134HK4    H1395239   4.694   7.927   3.909 -0.6387 -0.5119 -1.0238
 1134HK4    C2595240   4.623   7.742   3.836 -0.6543  0.2098  0.0359
 1134HK4    H1295241   4.543   7.791   3.780  0.3740  1.0022 -0.7587
 1134HK4    C2495242   4.609   7.605   3.856 -0.1399  0.1586  0.0559
 1134HK4    H1195243   4.541   7.548   3.790 -0.5245 -0.5326  1.0303
 1134HK4    C2395244   4.681   7.542   3.957  0.0476  0.0412 -0.1523
 1134HK4    H1095245   4.701   7.435   3.947  0.4886  0.1902 -0.9596
 1134HK4    C3995246   4.843   7.443   4.211 -0.2650  0.0731  0.4986
 1134HK4    C4195247   4.744   7.345   4.188 -0.2660  0.1896  0.0083
 1134HK4    H2195248   4.638   7.373   4.183 -0.4289 -0.6294 -1.5655
 1134HK4    C4295249   4.772   7.209   4.198 -0.4063  0.1744  0.1796
 1134HK4    H2295250   4.696   7.140   4.157  0.7670 -1.7422  1.1490
 1134HK4    C4395251   4.903   7.167   4.215 -0.1854  0.6643 -0.3037
 1134HK4    H2395252   4.931   7.062   4.219 -1.7046  0.3137  2.1587
 1134HK4    C4495253   5.004   7.261   4.232 -0.0686  0.5168 -0.1869
 1134HK4    H2495254   5.107   7.224   4.241 -0.9474 -1.4307  2.9093
 1134HK4    C4595255   4.973   7.396   4.239  0.0181  0.5303 -0.0595
 1134HK4    H2595256   5.055   7.467   4.259 -0.2937  0.7751  0.3515
 1135HK4    H2895257   2.803   6.286   8.679 -1.3802 -1.4013  2.3221
 1135HK4    C4895258   2.729   6.257   8.604  0.1743 -0.1103  0.2286
 1135HK4    C4795259   2.641   6.350   8.548  0.6148 -0.0911 -0.4364
 1135HK4    H2795260   2.626   6.445   8.602 -0.1459  0.4235 -1.5581
 1135HK4    C4695261   2.573   6.313   8.433  0.3509  0.1582 -0.3605
 1135HK4    H2695262   2.494   6.380   8.396 -0.7798 -1.3282 -0.6899
 1135HK4    C4095263   2.584   6.187   8.371  0.8037  0.0530 -0.0651
 1135HK4    C5095264   2.666   6.091   8.435  0.0211 -0.5928 -0.0232
 1135HK4    H3095265   2.636   5.986   8.424  0.3292 -0.9053  1.9378
 1135HK4    C4995266   2.740   6.132   8.545 -0.1590  0.0286 -0.1303
 1135HK4    H2995267   2.815   6.068   8.593 -0.2019 -0.5734 -0.8506
 1135HK4     N295268   2.534   6.171   8.241  0.0514  0.5752  0.1585
 1135HK4    C3095269   2.501   6.277   8.155 -0.1869  0.1733 -0.2462
 1135HK4    C2995270   2.565   6.396   8.121 -0.0020  0.0089 -0.4771
 1135HK4    H1595271   2.668   6.401   8.155  0.6337  0.4658 -2.4312
 1135HK4    C2895272   2.496   6.491   8.046  0.0189  0.3253 -0.0950
 1135HK4    C2795273   2.370   6.465   7.988 -0.3343  0.1716  0.7373
 1135HK4    H1495274   2.322   6.542   7.927 -1.1538 -0.5443  0.4675
 1135HK4    C3295275   2.311   6.341   8.010  0.0450 -0.2458 -0.5528
 1135HK4    H1695276   2.203   6.328   8.010  0.1319 -1.1760  1.3747
 1135HK4    C3195277   2.379   6.244   8.083 -0.1017 -0.1245 -0.2516
 1135HK4    C3495278   2.343   6.109   8.122  0.3315 -0.2837 -0.4001
 1135HK4    C3395279   2.453   6.061   8.204  0.7307  0.3154 -0.5757
 1135HK4    C3595280   2.464   5.925   8.227  0.4305  0.4078  0.1457
 1135HK4    H1795281   2.543   5.874   8.282 -1.4301 -0.2463  2.2941
 1135HK4    C3695282   2.373   5.837   8.168  0.4452  0.3358  0.2336
 1135HK4    H1895283   2.394   5.730   8.178 -2.2228 -0.5143 -2.5501
 1135HK4    C3795284   2.272   5.880   8.083  0.2737  0.1163  0.3272
 1135HK4    H1995285   2.215   5.811   8.022  1.5260 -0.4079 -0.2711
 1135HK4    C3895286   2.256   6.017   8.066 -0.0853  0.0035 -0.2231
 1135HK4    H2095287   2.178   6.058   8.001  0.5849 -0.9882 -1.6750
 1135HK4    C1495288   2.537   6.630   8.067 -0.0209  0.3108  0.0896
 1135HK4     C995289   2.450   6.739   8.077 -0.4373  0.0271 -0.4380
 1135HK4     C895290   2.502   6.863   8.032  0.2240 -0.0127  0.2029
 1135HK4    C1195291   2.630   6.873   7.981 -0.0044 -0.4394 -0.4676
 1135HK4     H495292   2.645   6.956   7.910  1.2710 -0.8789 -0.7253
 1135HK4    C1295293   2.725   6.771   7.981  0.0305 -0.4065 -0.1299
 1135HK4     H595294   2.833   6.789   7.968 -0.2275 -0.6967 -2.7984
 1135HK4    C1395295   2.671   6.652   8.027 -0.0873 -0.5233 -0.5774
 1135HK4     H695296   2.736   6.564   8.021 -1.8571 -2.0091  1.4232
 1135HK4     C795297   2.435   6.991   8.061  0.5878  0.2216  0.0047
 1135HK4     O295298   2.476   7.104   8.033 -0.0836  0.5434  0.2982
 1135HK4     C495299   2.301   6.977   8.123  0.6168  0.2114  0.0674
 1135HK4     C395300   2.228   7.086   8.166  0.1005 -0.1530  0.1142
 1135HK4     H395301   2.265   7.190   8.159  0.2227 -0.2810 -1.1505
 1135HK4     C295302   2.090   7.077   8.183  0.0325  0.5910 -0.0057
 1135HK4     H295303   2.035   7.166   8.216  1.4003  1.7579 -0.8178
 1135HK4     C195304   2.017   6.962   8.158  0.2202  0.4876 -0.0801
 1135HK4     H195305   1.909   6.952   8.174 -0.0403 -1.0491 -2.4359
 1135HK4     C695306   2.088   6.853   8.101  0.1458  0.3731  0.0490
 1135HK4     C595307   2.227   6.857   8.109  0.1377  0.4991  0.1302
 1135HK4    C1095308   2.308   6.733   8.123 -0.1614  0.3415  0.4643
 1135HK4     O195309   2.268   6.646   8.199 -0.0739 -0.3198 -0.2411
 1135HK4    C1695310   2.008   6.750   8.033 -0.1815  0.6467  0.0146
 1135HK4    C1595311   2.075   6.681   7.931 -0.2013  0.0862  0.3778
 1135HK4     H795312   2.135   6.739   7.859 -0.6566  1.1481  0.8549
 1135HK4    C2095313   2.044   6.549   7.901  0.2331  0.0270  0.1816
 1135HK4     H995314   2.101   6.490   7.829  0.1149 -0.5849  0.5897
 1135HK4    C1995315   1.944   6.484   7.972  0.0832  0.0383 -0.0198
 1135HK4    C1895316   1.865   6.559   8.068 -0.3779 -0.0464 -0.3299
 1135HK4    C1795317   1.897   6.691   8.094  0.4969 -0.3705  0.2823
 1135HK4     H895318   1.823   6.749   8.149  0.5369 -0.5943  0.5673
 1135HK4     N195319   1.763   6.477   8.122 -0.1215 -0.1716 -0.0295
 1135HK4    C2195320   1.774   6.353   8.057  0.0673 -0.0744 -0.1830
 1135HK4    C2295321   1.892   6.348   7.972 -0.1812  0.1387 -0.5403
 1135HK4    C2695322   1.918   6.237   7.892 -0.0363  0.0860 -0.4178
 1135HK4    H1395323   2.003   6.237   7.824  0.3631  5.0962 -0.1070
 1135HK4    C2595324   1.827   6.132   7.887  0.1287 -0.1143  0.5719
 1135HK4    H1295325   1.857   6.035   7.848  3.3809  0.1668  2.1950
 1135HK4    C2495326   1.708   6.138   7.957 -0.4232 -0.1272 -0.3626
 1135HK4    H1195327   1.629   6.061   7.954 -0.8566  0.3481 -1.1247
 1135HK4    C2395328   1.685   6.249   8.037 -0.1669  0.2360 -0.7896
 1135HK4    H1095329   1.586   6.274   8.078 -0.6832 -2.5363 -0.2115
 1135HK4    C3995330   1.717   6.482   8.255 -0.0687 -0.1466 -0.0126
 1135HK4    C4195331   1.599   6.422   8.302 -0.2249  0.4746  0.3882
 1135HK4    H2195332   1.513   6.413   8.234 -0.0015 -2.5354  0.4619
 1135HK4    C4295333   1.582   6.400   8.438  0.0097 -0.3674  0.2821
 1135HK4    H2295334   1.487   6.354   8.470  0.2769 -0.0697  1.5313
 1135HK4    C4395335   1.674   6.436   8.536 -0.3621  0.0433  0.4755
 1135HK4    H2395336   1.662   6.414   8.642  1.2503  0.4705  0.7556
 1135HK4    C4495337   1.789   6.498   8.489 -0.0298 -1.0126 -0.1153
 1135HK4    H2495338   1.869   6.531   8.558 -0.0018  0.9527 -1.0539
 1135HK4    C4595339   1.810   6.520   8.354 -0.3726  0.4188  0.0564
 1135HK4    H2595340   1.908   6.559   8.322 -0.9786  1.2006 -0.8988
 1136HK4    H2895341   5.160   8.045   6.653 -0.0285  2.7984  1.4509
 1136HK4    C4895342   5.244   8.080   6.594 -0.0349 -0.1253 -0.3762
 1136HK4    C4795343   5.281   8.213   6.605 -0.3552 -0.1460  1.0968
 1136HK4    H2795344   5.202   8.288   6.621  0.9138  1.3162  0.6147
 1136HK4    C4695345   5.410   8.248   6.567 -0.7369 -0.2750 -0.3545
 1136HK4    H2695346   5.434   8.355   6.578  0.7271 -0.5054 -1.1305
 1136HK4    C4095347   5.505   8.157   6.516  0.1137  0.0979  0.5515
 1136HK4    C5095348   5.456   8.026   6.496  0.8909 -0.1418  0.1992
 1136HK4    H3095349   5.523   7.954   6.447  1.0332  1.3662 -1.9487
 1136HK4    C4995350   5.329   7.986   6.536  0.4474  0.4473 -0.5961
 1136HK4    H2995351   5.297   7.883   6.515  3.5708 -0.9662  1.3217
 1136HK4     N295352   5.621   8.207   6.455 -0.1663  0.3873  0.2557
 1136HK4    C3095353   5.638   8.334   6.395 -0.3484  0.2073 -0.1800
 1136HK4    C2995354   5.548   8.428   6.347 -0.6835  0.1514  0.3409
 1136HK4    H1595355   5.443   8.400   6.339 -0.2668 -0.8964 -1.9883
 1136HK4    C2895356   5.583   8.545   6.282 -0.0279  0.0837  0.5697
 1136HK4    C2795357   5.720   8.568   6.260 -0.1103  0.0511  0.0084
 1136HK4    H1495358   5.749   8.665   6.216 -1.6061  0.6857  0.4072
 1136HK4    C3295359   5.815   8.475   6.301 -0.2519  0.1183  0.4944
 1136HK4    H1695360   5.919   8.485   6.269  0.1494 -0.5492  1.5558
 1136HK4    C3195361   5.779   8.362   6.373 -0.2400 -0.3155 -0.1681
 1136HK4    C3495362   5.846   8.237   6.402  0.1931 -0.0043  0.1705
 1136HK4    C3395363   5.747   8.145   6.452 -0.3027  0.1465 -0.5222
 1136HK4    C3595364   5.791   8.023   6.503 -0.0051  0.6140  0.3471
 1136HK4    H1795365   5.714   7.955   6.540  0.3659  1.3121  2.4523
 1136HK4    C3695366   5.927   7.994   6.506 -0.0991 -0.0681 -1.3715
 1136HK4    H1895367   5.975   7.906   6.551  0.2432  1.2565  0.9439
 1136HK4    C3795368   6.022   8.087   6.465  1.0161 -0.7738 -0.4127
 1136HK4    H1995369   6.125   8.054   6.451  1.2065 -1.0149  1.4490
 1136HK4    C3895370   5.982   8.209   6.411  0.0226 -0.9263 -0.0373
 1136HK4    H2095371   6.049   8.278   6.359  2.5631 -1.7023  2.1256
 1136HK4    C1495372   5.473   8.623   6.223  0.3451 -0.0312 -0.3065
 1136HK4     C995373   5.463   8.692   6.102  0.2245 -0.1838 -0.3853
 1136HK4     C895374   5.381   8.807   6.089  0.1937 -0.1831 -0.1995
 1136HK4    C1195375   5.295   8.846   6.192  0.4815  0.1442 -0.0876
 1136HK4     H495376   5.212   8.916   6.175  0.4464  0.9143  3.0760
 1136HK4    C1295377   5.294   8.771   6.309 -0.6857  0.0371 -0.1662
 1136HK4     H595378   5.237   8.812   6.394 -0.6485  0.9252 -0.5610
 1136HK4    C1395379   5.378   8.661   6.321  0.2089  0.6507 -0.7078
 1136HK4     H695380   5.350   8.589   6.399  0.2939  1.7308  0.3332
 1136HK4     C795381   5.367   8.874   5.958  0.2498 -0.2690 -0.2498
 1136HK4     O295382   5.311   8.983   5.951 -0.0118 -0.4310 -0.6884
 1136HK4     C495383   5.428   8.808   5.841 -0.1997 -0.4883 -0.3643
 1136HK4     C395384   5.391   8.854   5.715 -0.3506 -0.5785 -0.3531
 1136HK4     H395385   5.305   8.918   5.690  0.9315  0.5612 -1.9492
 1136HK4     C295386   5.462   8.820   5.600  0.0788  0.1412 -0.3056
 1136HK4     H295387   5.406   8.816   5.505 -0.5919 -0.6895  0.1159
 1136HK4     C195388   5.583   8.755   5.622 -0.1302 -0.1179  0.0932
 1136HK4     H195389   5.649   8.742   5.536 -1.0187 -3.0241 -0.2110
 1136HK4     C695390   5.628   8.712   5.748  0.4944  0.3623  0.0341
 1136HK4     C595391   5.543   8.727   5.858  0.6658  0.8142  0.1014
 1136HK4    C1095392   5.542   8.648   5.984  0.1510 -0.0948 -0.4654
 1136HK4     O195393   5.569   8.531   5.959 -0.0168 -0.1812 -0.2537
 1136HK4    C1695394   5.775   8.699   5.755  0.4539 -0.3674 -0.3217
 1136HK4    C1595395   5.841   8.724   5.877  0.2232 -0.5643 -0.1569
 1136HK4     H795396   5.776   8.754   5.961 -1.9316 -0.1253 -1.9329
 1136HK4    C2095397   5.977   8.707   5.896  0.2374 -0.4482 -0.1564
 1136HK4     H995398   6.027   8.756   5.980  0.1795 -0.2933 -0.2129
 1136HK4    C1995399   6.053   8.639   5.802  0.3441 -0.6836  0.0967
 1136HK4    C1895400   5.983   8.593   5.683 -0.0145 -0.2094  0.1284
 1136HK4    C1795401   5.851   8.632   5.660  0.1236 -0.2284 -0.6901
 1136HK4     H895402   5.806   8.605   5.565 -1.7745  2.2307 -0.5460
 1136HK4     N195403   6.075   8.549   5.586 -0.1114  0.1987 -0.1522
 1136HK4    C2195404   6.204   8.570   5.639  0.1058 -0.1350 -0.5457
 1136HK4    C2295405   6.195   8.626   5.772  0.2658 -0.2351 -0.4931
 1136HK4    C2695406   6.306   8.688   5.828 -0.0073  0.3295 -0.5766
 1136HK4    H1395407   6.301   8.725   5.930  1.6554  0.7409 -0.6218
 1136HK4    C2595408   6.419   8.705   5.749  0.4468  0.3446  0.0691
 1136HK4    H1295409   6.510   8.739   5.797  2.7237 -3.7546 -1.0829
 1136HK4    C2495410   6.431   8.645   5.624  0.1358  0.3544  0.0318
 1136HK4    H1195411   6.526   8.642   5.568 -0.3387  3.4359 -1.0579
 1136HK4    C2395412   6.325   8.573   5.572  0.2990  0.2701 -0.1830
 1136HK4    H1095413   6.346   8.487   5.507 -0.4725 -0.5199  0.5987
 1136HK4    C3995414   6.045   8.448   5.493 -0.4539  0.2414 -0.0908
 1136HK4    C4195415   6.110   8.445   5.368 -0.2115  0.0802  0.0388
 1136HK4    H2195416   6.171   8.528   5.331 -0.1775  0.4562  0.9351
 1136HK4    C4295417   6.082   8.340   5.281  0.0350 -0.1516  0.2376
 1136HK4    H2295418   6.117   8.362   5.179  1.2441  0.8314  0.8422
 1136HK4    C4395419   5.984   8.244   5.304  0.2178 -0.3539  0.1712
 1136HK4    H2395420   5.958   8.167   5.231  0.4799 -0.2091 -0.0761
 1136HK4    C4495421   5.913   8.255   5.423  0.1552 -0.8323  0.1785
 1136HK4    H2495422   5.852   8.169   5.457  1.6096 -1.4541  1.2613
 1136HK4    C4595423   5.941   8.355   5.515 -0.2699 -0.0657 -0.5275
 1136HK4    H2595424   5.899   8.338   5.615  0.6235 -2.0770 -0.4796
 1137HK4    H2895425   2.992   0.726   9.320 -3.2415 -3.0756  0.8598
 1137HK4    C4895426   3.071   0.652   9.318 -0.0109  0.2548 -0.1168
 1137HK4    C4795427   3.039   0.517   9.324 -0.0434  0.2526 -0.3578
 1137HK4    H2795428   2.937   0.479   9.336 -0.1784 -0.0938 -2.4014
 1137HK4    C4695429   3.143   0.424   9.329 -0.2579  0.0205 -0.2371
 1137HK4    H2695430   3.122   0.316   9.340  0.4211 -0.0332  0.6284
 1137HK4    C4095431   3.278   0.456   9.348 -0.3720  0.1332  0.4017
 1137HK4    C5095432   3.304   0.595   9.352  0.1193  0.0407  0.5358
 1137HK4    H3095433   3.399   0.633   9.392  0.5085  0.4138 -0.7055
 1137HK4    C4995434   3.203   0.690   9.338  0.0178 -0.0902  0.3756
 1137HK4    H2995435   3.224   0.798   9.349 -0.5791  0.0539  0.0689
 1137HK4     N295436   3.377   0.374   9.292 -0.0879  0.6127  0.1990
 1137HK4    C3095437   3.371   0.304   9.169 -0.5819 -0.7046  0.9589
 1137HK4    C2995438   3.286   0.316   9.060  0.4228 -0.1128  0.2357
 1137HK4    H1595439   3.198   0.380   9.070 -0.8244 -1.2818 -2.6976
 1137HK4    C2895440   3.318   0.260   8.937  0.2828  0.0145  0.1433
 1137HK4    C2795441   3.445   0.200   8.927  0.3172  0.1228 -0.0738
 1137HK4    H1495442   3.476   0.167   8.826 -0.4006 -1.2753  0.1456
 1137HK4    C3295443   3.534   0.185   9.032  0.5526 -0.0549 -0.2970
 1137HK4    H1695444   3.628   0.134   9.012 -0.5188 -2.0482 -0.3952
 1137HK4    C3195445   3.492   0.226   9.158  0.3078  0.8819 -0.6828
 1137HK4    C3495446   3.577   0.249   9.274  0.0088 -0.3947 -0.2054
 1137HK4    C3395447   3.501   0.344   9.353 -0.1791 -0.5612 -0.1862
 1137HK4    C3595448   3.551   0.380   9.477 -0.5519  0.2543 -0.2696
 1137HK4    H1795449   3.499   0.455   9.537  1.5024  0.3721  1.3941
 1137HK4    C3695450   3.672   0.329   9.521 -0.3321  0.7669 -0.2785
 1137HK4    H1895451   3.705   0.348   9.625 -1.1226  0.0800  0.1047
 1137HK4    C3795452   3.748   0.245   9.441 -0.1861  0.8188 -0.1922
 1137HK4    H1995453   3.839   0.206   9.487 -1.6405 -0.2362  1.8906
 1137HK4    C3895454   3.704   0.211   9.313 -0.3183 -0.9664  0.3078
 1137HK4    H2095455   3.758   0.137   9.253  0.9577  0.3118 -0.1549
 1137HK4    C1495456   3.209   0.205   8.855  0.3572  0.3088 -0.1611
 1137HK4     C995457   3.216   0.077   8.798 -1.1606 -0.0206  0.3538
 1137HK4     C895458   3.176   0.057   8.665  0.1201  0.0457 -0.0528
 1137HK4    C1195459   3.098   0.159   8.610  0.2471  0.0362 -0.2507
 1137HK4     H495460   3.074   0.151   8.503 -1.6086  1.8287  0.0208
 1137HK4    C1295461   3.057   0.272   8.678 -0.2308 -0.5468  0.4376
 1137HK4     H595462   2.956   0.307   8.654 -0.1778 -0.1452  0.7748
 1137HK4    C1395463   3.123   0.300   8.798 -0.1778  0.0856  0.2636
 1137HK4     H695464   3.120   0.389   8.863  0.7237  1.9700 -2.1690
 1137HK4     C795465   3.193  11.174   8.598  0.4891  0.1839 -0.2322
 1137HK4     O295466   3.189  11.168   8.476  0.2163  0.5219 -0.2383
 1137HK4     C495467   3.244  11.059   8.678 -0.0412  0.1967  0.1263
 1137HK4     C395468   3.239  10.930   8.628  0.6628  0.1888  0.0721
 1137HK4     H395469   3.186  10.915   8.533  0.5951  0.2804  0.0950
 1137HK4     C295470   3.284  10.818   8.697 -0.0473 -0.2256 -0.1328
 1137HK4     H295471   3.257  10.714   8.672  2.3183 -1.1249  0.9149
 1137HK4     C195472   3.362  10.846   8.809 -0.0759  0.5535 -0.3104
 1137HK4     H195473   3.435  10.770   8.838 -1.1177 -0.0078  0.8849
 1137HK4     C695474   3.373  10.977   8.860  0.0763  0.2157  0.5299
 1137HK4     C595475   3.297  11.081   8.806  0.1085  0.0157  0.0933
 1137HK4    C1095476   3.265  11.209   8.877  0.3653  0.2388 -0.1886
 1137HK4     O195477   3.227  11.197   8.994 -0.2027 -0.0600 -0.3987
 1137HK4    C1695478   3.466  10.983   8.974  0.3592 -0.0989  0.3195
 1137HK4    C1595479   3.534  11.105   8.997 -0.0951  0.1026  0.5904
 1137HK4     H795480   3.588  11.155   8.915  0.2379 -1.6664 -0.2935
 1137HK4    C2095481   3.557  11.153   9.125  0.6669 -0.3849  0.6446
 1137HK4     H995482   3.639  11.222   9.142 -0.2203  0.5872  1.0547
 1137HK4    C1995483   3.506  11.083   9.233 -0.0143 -0.3595  0.3452
 1137HK4    C1895484   3.435  10.958   9.209 -0.1750 -0.1515 -0.2889
 1137HK4    C1795485   3.420  10.907   9.081 -0.3926 -0.3575 -0.1813
 1137HK4     H895486   3.374  10.809   9.068  1.8087 -1.2775 -1.2653
 1137HK4     N195487   3.409  10.884   9.326 -0.0161  0.0992 -0.0982
 1137HK4    C2195488   3.478  10.956   9.426  0.0729 -0.1127 -0.0067
 1137HK4    C2295489   3.529  11.082   9.377 -0.2849  0.1853  0.3921
 1137HK4    C2695490   3.601  11.168   9.459 -0.3445  0.5853  0.0319
 1137HK4    H1395491   3.626   0.012   9.406  0.9663 -0.8261 -1.8549
 1137HK4    C2595492   3.613  11.137   9.594  0.2042 -0.2488 -0.2064
 1137HK4    H1295493   3.670  11.204   9.658 -0.5607  0.5279 -0.3311
 1137HK4    C2495494   3.559  11.019   9.645  0.1490 -0.0887  0.1177
 1137HK4    H1195495   3.603  10.991   9.742  0.4133 -1.4768 -0.3915
 1137HK4    C2395496   3.496  10.928   9.561 -0.2912  0.2192  0.1125
 1137HK4    H1095497   3.445  10.840   9.601 -1.0277  0.4868 -0.2448
 1137HK4    C3995498   3.286  10.821   9.348  0.0412 -0.0454 -0.1953
 1137HK4    C4195499   3.272  10.727   9.453  0.2452 -0.0543 -0.1721
 1137HK4    H2195500   3.363  10.688   9.500 -0.4359 -3.7315 -1.7008
 1137HK4    C4295501   3.152  10.664   9.486  0.0929  0.2463 -0.1536
 1137HK4    H2295502   3.143  10.613   9.583  1.0484  0.1158 -0.1291
 1137HK4    C4395503   3.037  10.693   9.413  0.0553  0.1393 -0.1384
 1137HK4    H2395504   2.945  10.636   9.423 -1.1810  1.7296 -2.1645
 1137HK4    C4495505   3.050  10.784   9.309  0.0029  0.4280  0.1075
 1137HK4    H2495506   2.960  10.811   9.252 -0.8173 -0.6718  0.8624
 1137HK4    C4595507   3.170  10.844   9.271  0.0841  0.0600 -0.2238
 1137HK4    H2595508   3.177  10.921   9.193 -1.3720  0.8425  0.3906
 1138HK4    H2895509   8.020   4.903   1.321 -0.2671  2.5858  0.3638
 1138HK4    C4895510   8.069   4.924   1.226 -0.0019 -0.0371 -0.1157
 1138HK4    C4795511   7.994   4.976   1.121 -0.0821 -0.1131 -0.0947
 1138HK4    H2795512   7.884   4.973   1.128 -0.0478  0.8649  1.1752
 1138HK4    C4695513   8.058   5.008   1.002 -0.2070  0.5926  0.0257
 1138HK4    H2695514   7.996   5.051   0.922  0.6527  2.0267  0.1180
 1138HK4    C4095515   8.199   5.008   0.993 -0.2103  0.3318 -0.0474
 1138HK4    C5095516   8.278   4.961   1.099  0.2604  0.9207 -0.1413
 1138HK4    H3095517   8.388   4.975   1.101  0.2911  0.5444  1.8800
 1138HK4    C4995518   8.207   4.921   1.211  0.0453  1.4241 -0.0967
 1138HK4    H2995519   8.250   4.868   1.299 -0.9914 -0.2665 -0.5812
 1138HK4     N295520   8.255   4.992   0.865 -0.0733  0.1547  0.0344
 1138HK4    C3095521   8.193   4.933   0.753  0.0583 -0.0973  0.0956
 1138HK4    C2995522   8.076   4.860   0.738  0.1602 -0.2407  0.0008
 1138HK4    H1595523   8.031   4.828   0.832 -1.1004  0.4163 -0.3787
 1138HK4    C2895524   8.028   4.814   0.616 -0.5799  0.2707  0.1030
 1138HK4    C2795525   8.115   4.830   0.507 -0.4712  0.1865  0.1786
 1138HK4    H1495526   8.089   4.785   0.410 -0.7782  0.5770  0.0830
 1138HK4    C3295527   8.242   4.886   0.516 -0.4923  0.2518  0.0841
 1138HK4    H1695528   8.308   4.897   0.430 -0.2254 -0.9605  0.1305
 1138HK4    C3195529   8.280   4.943   0.637 -0.1571  0.2774 -0.0356
 1138HK4    C3495530   8.397   5.016   0.681  0.0826 -0.2363  0.1863
 1138HK4    C3395531   8.379   5.044   0.822  0.0752 -0.0954  0.1575
 1138HK4    C3595532   8.459   5.141   0.882 -0.6074  0.4935  0.1206
 1138HK4    H1795533   8.454   5.159   0.989 -0.8804  1.4993 -0.0529
 1138HK4    C3695534   8.563   5.194   0.807  0.0104 -0.3918  0.3420
 1138HK4    H1895535   8.628   5.261   0.866 -0.5628 -2.1299  3.0351
 1138HK4    C3795536   8.589   5.161   0.675  0.3931  0.2081  0.2629
 1138HK4    H1995537   8.673   5.207   0.624 -0.3946  3.3413  1.7057
 1138HK4    C3895538   8.503   5.072   0.611 -0.1360  0.5547  0.4879
 1138HK4    H2095539   8.547   5.004   0.538 -2.4443  1.5899 -1.9409
 1138HK4    C1495540   7.895   4.751   0.605 -0.3120 -0.2556 -0.1414
 1138HK4     C995541   7.863   4.673   0.493  0.3256 -0.1566 -0.3986
 1138HK4     C895542   7.733   4.675   0.437  0.3498  0.3237 -0.4416
 1138HK4    C1195543   7.634   4.741   0.508 -0.0751 -0.4870 -0.2749
 1138HK4     H495544   7.528   4.740   0.476 -0.6038  2.3126  1.1851
 1138HK4    C1295545   7.658   4.806   0.628  0.0212 -0.3501 -0.3683
 1138HK4     H595546   7.571   4.834   0.689  0.8258  0.5910  0.3772
 1138HK4    C1395547   7.789   4.814   0.674 -0.0327  0.4346 -0.3418
 1138HK4     H695548   7.809   4.848   0.776 -0.6451  1.6742 -0.6288
 1138HK4     C795549   7.696   4.597   0.317 -0.5511 -0.2863  0.2327
 1138HK4     O295550   7.596   4.619   0.249 -0.3757  0.8355  0.3299
 1138HK4     C495551   7.791   4.490   0.279 -0.5434 -0.1876 -0.0224
 1138HK4     C395552   7.753   4.401   0.180 -0.1823  0.1175 -0.4428
 1138HK4     H395553   7.663   4.423   0.120 -0.7450  1.3746  0.8246
 1138HK4     C295554   7.840   4.309   0.124  0.0459  0.1877 -0.2030
 1138HK4     H295555   7.810   4.249   0.036  0.9594  0.1994 -0.5259
 1138HK4     C195556   7.973   4.324   0.159  0.1005 -0.7405  0.0183
 1138HK4     H195557   8.044   4.273   0.092 -1.0403 -4.0537  1.2303
 1138HK4     C695558   8.025   4.414   0.255 -0.5002  0.3248 -0.6471
 1138HK4     C595559   7.927   4.491   0.319 -0.5323 -0.2054 -0.0614
 1138HK4    C1095560   7.955   4.567   0.443  0.2678 -0.3147 -0.1727
 1138HK4     O195561   8.029   4.519   0.528 -0.1074 -0.7542 -0.0926
 1138HK4    C1695562   8.169   4.440   0.254 -0.4129 -0.1137 -0.0345
 1138HK4    C1595563   8.236   4.459   0.131 -0.3223  0.2499  0.0727
 1138HK4     H795564   8.177   4.458   0.038  0.1043  2.2331 -0.2403
 1138HK4    C2095565   8.371   4.426   0.122 -0.3737  0.0164  0.1276
 1138HK4     H995566   8.424   4.474   0.040 -1.3207  1.4455  0.3311
 1138HK4    C1995567   8.442   4.364   0.224 -0.1607  0.2138  0.0980
 1138HK4    C1895568   8.374   4.339   0.350  0.0447 -0.5146  0.0649
 1138HK4    C1795569   8.242   4.382   0.357  0.0718 -0.3345 -0.4981
 1138HK4     H895570   8.193   4.376   0.454  1.9514  0.2193  0.5096
 1138HK4     N195571   8.455   4.262   0.436  0.2383 -0.0932  0.2660
 1138HK4    C2195572   8.571   4.233   0.361 -0.1774 -0.0946 -0.3835
 1138HK4    C2295573   8.570   4.296   0.230 -0.3124 -0.1218 -0.3947
 1138HK4    C2695574   8.682   4.311   0.149 -0.0479 -0.3562 -0.0694
 1138HK4    H1395575   8.682   4.383   0.067  1.1926  1.7148  1.7113
 1138HK4    C2595576   8.799   4.248   0.190 -0.3013 -0.6816  0.1682
 1138HK4    H1295577   8.878   4.226   0.119  0.4187 -1.2968  1.1462
 1138HK4    C2495578   8.803   4.187   0.315  0.2826 -0.4091  0.2851
 1138HK4    H1195579   8.903   4.164   0.354  1.4778  1.3230 -1.6470
 1138HK4    C2395580   8.694   4.182   0.401 -0.2841 -0.3929 -0.4297
 1138HK4    H1095581   8.708   4.139   0.501  0.6276  0.8293 -0.0341
 1138HK4    C3995582   8.433   4.225   0.569  0.6822  0.0198  0.3706
 1138HK4    C4195583   8.490   4.106   0.620 -0.4502 -0.8455 -0.3631
 1138HK4    H2195584   8.479   4.009   0.569 -2.1837 -0.2975 -1.0744
 1138HK4    C4295585   8.511   4.089   0.756  0.6413  0.3202 -0.3786
 1138HK4    H2295586   8.564   3.999   0.790  1.4875  1.5660  1.6630
 1138HK4    C4395587   8.465   4.181   0.849  0.3528 -0.0646 -0.1385
 1138HK4    H2395588   8.488   4.167   0.954 -1.0976  2.1390  0.5090
 1138HK4    C4495589   8.394   4.291   0.801 -0.2429 -0.3670  0.0469
 1138HK4    H2495590   8.367   4.375   0.868 -0.3239 -0.4964  0.1774
 1138HK4    C4595591   8.381   4.315   0.665  0.2419  0.0824  0.0730
 1138HK4    H2595592   8.342   4.409   0.624 -0.3005 -0.3932 -0.5174
 1139HK4    H2895593  10.731   2.916   9.959 -1.0938  0.8188  1.8357
 1139HK4    C4895594  10.659   2.905   9.877  0.3583  0.1737  0.6335
 1139HK4    C4795595  10.710   2.915   9.748 -0.0738  0.4100  0.4785
 1139HK4    H2795596  10.818   2.918   9.729 -0.4829  1.5150 -1.7930
 1139HK4    C4695597  10.617   2.939   9.648  0.1334  0.6026  0.3332
 1139HK4    H2695598  10.660   2.932   9.547 -0.4328 -1.6642  0.2243
 1139HK4    C4095599  10.480   2.959   9.672  0.0155 -0.0514  0.1996
 1139HK4    C5095600  10.433   2.959   9.805 -0.0178  0.1522  0.1870
 1139HK4    H3095601  10.329   2.987   9.827  0.1338  1.4534 -0.6561
 1139HK4    C4995602  10.525   2.930   9.904  0.2199  0.1503 -0.0324
 1139HK4    H2995603  10.478   2.921  10.003 -1.2034 -2.1325 -0.8738
 1139HK4     N295604  10.406   3.025   9.573  0.0153 -0.2895  0.0419
 1139HK4    C3095605  10.453   3.118   9.478  0.4822 -0.0033  0.5470
 1139HK4    C2995606  10.568   3.197   9.472  0.2626  0.2716 -0.1590
 1139HK4    H1595607  10.643   3.183   9.550  0.6961  0.5358 -0.5314
 1139HK4    C2895608  10.577   3.299   9.379  0.1178 -0.0998 -0.5859
 1139HK4    C2795609  10.474   3.323   9.286 -0.0023  0.0498 -0.4170
 1139HK4    H1495610  10.486   3.395   9.204  1.1242 -3.3881 -3.4165
 1139HK4    C3295611  10.360   3.243   9.285  0.0251 -0.0088  0.4025
 1139HK4    H1695612  10.268   3.273   9.233  0.0519  0.7065  0.7645
 1139HK4    C3195613  10.347   3.146   9.383  0.5891 -0.0763  0.4089
 1139HK4    C3495614  10.234   3.064   9.422  0.4242 -0.0921 -0.0901
 1139HK4    C3395615  10.276   2.985   9.537  0.4518 -1.0279 -0.7406
 1139HK4    C3595616  10.188   2.893   9.591 -0.5000  0.3168  0.0424
 1139HK4    H1795617  10.223   2.825   9.669 -0.1234  0.6600  0.1730
 1139HK4    C3695618  10.056   2.888   9.547 -0.2301 -0.1714 -0.7197
 1139HK4    H1895619   9.985   2.811   9.580 -1.3803  1.4911  0.7869
 1139HK4    C3795620  10.012   2.978   9.450 -0.4749  0.1388 -0.3260
 1139HK4    H1995621   9.905   2.989   9.437 -0.6494 -0.1488  0.7968
 1139HK4    C3895622  10.101   3.062   9.383  0.1800  0.2775  0.7017
 1139HK4    H2095623  10.075   3.130   9.303  1.0805  2.6189  2.3426
 1139HK4    C1495624  10.681   3.401   9.402 -0.0358 -0.0787  0.0172
 1139HK4     C995625  10.662   3.529   9.349  0.1150 -0.0592  0.0148
 1139HK4     C895626  10.761   3.588   9.267  0.0491  0.0082 -0.0115
 1139HK4    C1195627  10.891   3.538   9.269 -0.0028 -0.1431 -0.2941
 1139HK4     H495628  10.965   3.583   9.202 -0.8937  1.4764 -0.2010
 1139HK4    C1295629  10.920   3.423   9.342  0.2217  0.1204  0.0324
 1139HK4     H595630  11.017   3.372   9.334 -0.5185 -1.5147  1.1641
 1139HK4    C1395631  10.815   3.357   9.405  0.0699  0.2207 -0.1174
 1139HK4     H695632  10.830   3.260   9.455  0.0155  0.7314  0.9000
 1139HK4     C795633  10.729   3.709   9.188  0.3847  0.3056  0.3001
 1139HK4     O295634  10.791   3.729   9.084 -0.7833  0.5542 -0.3546
 1139HK4     C495635  10.596   3.769   9.215  0.0191 -0.3781  0.0422
 1139HK4     C395636  10.573   3.894   9.160  0.1156 -0.2637  0.2629
 1139HK4     H395637  10.646   3.938   9.090 -1.0224 -1.7647 -1.9232
 1139HK4     C295638  10.442   3.942   9.163  0.2670  0.1728  0.0180
 1139HK4     H295639  10.427   4.049   9.144  1.0484 -0.0505 -2.0458
 1139HK4     C195640  10.337   3.870   9.218  0.5457 -0.2779 -0.0354
 1139HK4     H195641  10.235   3.909   9.229 -0.7412 -3.8094  1.2904
 1139HK4     C695642  10.359   3.742   9.273 -0.0964 -0.3630  0.0329
 1139HK4     C595643  10.492   3.699   9.280 -0.0450 -0.1881  0.1396
 1139HK4    C1095644  10.535   3.599   9.382 -0.0535 -0.3464 -0.0152
 1139HK4     O195645  10.522   3.621   9.502 -0.1236 -0.3133 -0.0258
 1139HK4    C1695646  10.257   3.638   9.256 -0.2702 -0.1402 -0.2811
 1139HK4    C1595647  10.148   3.666   9.171 -0.2017  0.2813 -0.2309
 1139HK4     H795648  10.171   3.726   9.082  2.7064 -2.3506 -1.3497
 1139HK4    C2095649  10.021   3.613   9.191 -0.1557  0.5911  0.9132
 1139HK4     H995650   9.941   3.630   9.118  0.1271  0.6375  0.6142
 1139HK4    C1995651   9.997   3.527   9.298 -0.1245 -0.7775 -0.1693
 1139HK4    C1895652  10.106   3.493   9.387 -0.0896 -0.3030 -0.0320
 1139HK4    C1795653  10.231   3.542   9.353 -0.2019 -0.2519 -0.3724
 1139HK4     H895654  10.312   3.510   9.418 -0.6186  1.0485  0.8243
 1139HK4     N195655  10.060   3.416   9.497  0.0531  0.7316  0.7609
 1139HK4    C2195656   9.922   3.401   9.473  0.3799 -0.4107 -0.4380
 1139HK4    C2295657   9.876   3.469   9.353 -0.3464 -0.2024 -0.0455
 1139HK4    C2695658   9.743   3.498   9.327 -0.2300  0.3658 -0.0286
 1139HK4    H1395659   9.719   3.590   9.275 -0.9221 -0.7933 -1.8061
 1139HK4    C2595660   9.651   3.428   9.404  0.2810 -0.0979  0.1625
 1139HK4    H1295661   9.546   3.444   9.381  0.3710  0.6677  0.2756
 1139HK4    C2495662   9.691   3.348   9.511  0.0400 -0.1312  0.2276
 1139HK4    H1195663   9.621   3.270   9.545 -1.2544  0.8791 -0.0780
 1139HK4    C2395664   9.823   3.343   9.552  0.2049  0.1218 -0.2648
 1139HK4    H1095665   9.844   3.297   9.648 -2.4550 -1.2637 -0.3005
 1139HK4    C3995666  10.132   3.369   9.607  0.2834 -0.4635  0.1107
 1139HK4    C4195667  10.094   3.253   9.678  0.0353 -0.2619  0.3086
 1139HK4    H2195668  10.027   3.177   9.637  1.2776 -0.8348 -0.6787
 1139HK4    C4295669  10.164   3.209   9.790 -0.2838 -0.1931  0.5373
 1139HK4    H2295670  10.151   3.108   9.832  2.8746 -0.8033  0.1762
 1139HK4    C4395671  10.274   3.282   9.834  0.3455 -0.4460 -0.5771
 1139HK4    H2395672  10.344   3.231   9.901  0.4602  3.6567  2.6571
 1139HK4    C4495673  10.310   3.400   9.770  0.0264 -0.0462 -0.0320
 1139HK4    H2495674  10.384   3.470   9.810  2.6084 -2.0149 -1.2130
 1139HK4    C4595675  10.242   3.442   9.657  0.5102 -0.4140 -0.4634
 1139HK4    H2595676  10.264   3.541   9.612 -0.2013 -0.0133  0.0637
 1140HK4    H2895677  10.080   3.289   1.792  0.9148 -0.6184 -2.0671
 1140HK4    C4895678   9.990   3.324   1.742 -0.1188  0.4512  0.4771
 1140HK4    C4795679   9.991   3.440   1.666 -0.7966  0.3644  0.3279
 1140HK4    H2795680  10.086   3.495   1.663 -0.4692  0.0732  3.9938
 1140HK4    C4695681   9.897   3.453   1.564 -0.7918  0.7058  0.3667
 1140HK4    H2695682   9.901   3.536   1.493  1.5632  0.8712  0.6351
 1140HK4    C4095683   9.795   3.360   1.536 -0.2422  0.2512 -0.1407
 1140HK4    C5095684   9.794   3.247   1.620 -0.5399  0.2560 -0.1374
 1140HK4    H3095685   9.713   3.173   1.610  0.5566 -0.4296 -4.8655
 1140HK4    C4995686   9.887   3.232   1.722  0.0088  0.5382 -0.5982
 1140HK4    H2995687   9.869   3.147   1.790 -1.8008  0.5981 -0.9950
 1140HK4     N295688   9.729   3.358   1.412 -0.4510  0.1138 -0.0290
 1140HK4    C3095689   9.782   3.389   1.285 -0.1679  0.2087  0.1096
 1140HK4    C2995690   9.915   3.401   1.249  0.0352 -0.2974  0.6689
 1140HK4    H1595691   9.988   3.397   1.330 -0.1406 -0.7091  0.8036
 1140HK4    C2895692   9.956   3.444   1.123  0.3711  0.0332  0.8900
 1140HK4    C2795693   9.856   3.443   1.023  0.4891  0.0576  0.7741
 1140HK4    H1495694   9.885   3.449   0.917 -0.5910 -3.1063  0.2438
 1140HK4    C3295695   9.722   3.423   1.051  0.2328  0.3683 -0.2304
 1140HK4    H1695696   9.650   3.396   0.973 -1.5129 -1.1724  1.8459
 1140HK4    C3195697   9.681   3.405   1.182  0.1899 -0.2748 -0.3249
 1140HK4    C3495698   9.556   3.389   1.253  0.2924 -0.6154 -0.2267
 1140HK4    C3395699   9.590   3.370   1.393 -0.4512  0.3068  0.0918
 1140HK4    C3595700   9.485   3.375   1.484 -0.2268 -0.2861  0.3885
 1140HK4    H1795701   9.511   3.344   1.585 -1.0737 -1.9112  0.1187
 1140HK4    C3695702   9.354   3.396   1.444 -0.0795  0.6836  0.3961
 1140HK4    H1895703   9.276   3.374   1.519 -1.5843 -1.4983 -1.7261
 1140HK4    C3795704   9.324   3.418   1.310  0.1631 -0.5139  0.1425
 1140HK4    H1995705   9.225   3.453   1.278  1.5292  1.3425 -2.2194
 1140HK4    C3895706   9.425   3.417   1.215  0.2872  0.0859  0.2730
 1140HK4    H2095707   9.411   3.450   1.112 -0.5440  1.9735  0.9572
 1140HK4    C1495708  10.050   3.558   1.124  0.2440  0.1583 -0.1022
 1140HK4     C995709  10.031   3.674   1.048  0.3027  0.1007 -0.2057
 1140HK4     C895710  10.145   3.737   0.995  0.3933  0.1065 -0.0092
 1140HK4    C1195711  10.273   3.688   1.019  0.6160  0.5127 -0.3468
 1140HK4     H495712  10.362   3.748   0.994 -0.3397  1.5225 -1.3812
 1140HK4    C1295713  10.298   3.576   1.097  0.0956  0.3645 -0.3925
 1140HK4     H595714  10.392   3.572   1.155 -0.1170 -1.8647 -0.1595
 1140HK4    C1395715  10.182   3.518   1.148  0.2954  0.5461  0.2670
 1140HK4     H695716  10.200   3.433   1.217 -0.1260  0.3492  0.1342
 1140HK4     C795717  10.138   3.868   0.925 -0.2778 -0.1547 -0.4307
 1140HK4     O295718  10.237   3.927   0.883 -0.3636  0.5803  0.3871
 1140HK4     C495719  10.001   3.924   0.916 -0.1356  0.2196 -0.2537
 1140HK4     C395720   9.990   4.045   0.848 -0.1919  0.2463 -0.1972
 1140HK4     H395721  10.071   4.082   0.785  0.1902  1.0010  0.7244
 1140HK4     C295722   9.867   4.107   0.826 -0.2794  0.5585  1.0769
 1140HK4     H295723   9.864   4.209   0.786  0.3836 -0.1064 -0.7615
 1140HK4     C195724   9.751   4.039   0.862 -0.3001 -0.3731 -0.6693
 1140HK4     H195725   9.653   4.087   0.846 -1.5311 -1.3066  3.5709
 1140HK4     C695726   9.758   3.911   0.920 -0.0077 -0.3604 -0.6784
 1140HK4     C595727   9.883   3.859   0.957 -0.0026  0.2343  0.1649
 1140HK4    C1095728   9.897   3.740   1.045  0.3121  0.1209 -0.0362
 1140HK4     O195729   9.823   3.729   1.143 -0.1769 -0.8730 -0.5064
 1140HK4    C1695730   9.626   3.862   0.959 -0.2069 -0.0040 -0.9021
 1140HK4    C1595731   9.528   3.935   1.029  0.2261 -0.2807  0.0030
 1140HK4     H795732   9.569   4.024   1.080  0.3480  0.9038 -2.0884
 1140HK4    C2095733   9.395   3.896   1.039  0.3018 -0.5776 -0.1311
 1140HK4     H995734   9.325   3.975   1.069  0.7598 -0.7427  1.4449
 1140HK4    C1995735   9.357   3.773   0.988 -0.2175 -0.4396 -0.0882
 1140HK4    C1895736   9.453   3.694   0.913  0.2549  0.1624 -0.1243
 1140HK4    C1795737   9.584   3.739   0.909  0.4552 -0.4385 -0.3992
 1140HK4     H895738   9.664   3.668   0.886  1.2306  0.7493 -1.4791
 1140HK4     N195739   9.399   3.569   0.874  0.1243  0.1773  0.0100
 1140HK4    C2195740   9.270   3.566   0.933  0.3109 -0.3115  0.3997
 1140HK4    C2295741   9.241   3.688   1.006 -0.5095 -0.0854 -0.2985
 1140HK4    C2695742   9.134   3.697   1.094 -0.4055  0.5450 -0.2385
 1140HK4    H1395743   9.114   3.790   1.147 -0.8794 -0.1120  0.7430
 1140HK4    C2595744   9.054   3.585   1.110  0.1784  0.1258 -0.2653
 1140HK4    H1295745   8.975   3.590   1.184 -0.2137 -0.5936 -0.6277
 1140HK4    C2495746   9.078   3.467   1.039  0.5285 -0.0858  0.2037
 1140HK4    H1195747   9.024   3.376   1.069  0.8390  0.4318  2.3878
 1140HK4    C2395748   9.182   3.460   0.946  0.1592 -0.2642 -0.1942
 1140HK4    H1095749   9.172   3.377   0.876  0.4991 -1.8862  1.6400
 1140HK4    C3995750   9.437   3.497   0.761 -0.3029  0.1090 -0.0924
 1140HK4    C4195751   9.427   3.357   0.772 -0.1430  0.0964 -0.0953
 1140HK4    H2195752   9.475   3.305   0.856  0.0931 -0.4240 -0.5434
 1140HK4    C4295753   9.389   3.279   0.663 -0.1141  0.3070 -0.2557
 1140HK4    H2295754   9.367   3.172   0.675 -1.1328  0.5188 -0.2182
 1140HK4    C4395755   9.370   3.332   0.535 -0.3688  0.5255 -0.1279
 1140HK4    H2395756   9.349   3.267   0.450 -0.0773 -0.4908  0.5608
 1140HK4    C4495757   9.390   3.468   0.520 -0.3294  0.5557  0.1836
 1140HK4    H2495758   9.401   3.506   0.417  1.3569 -0.3654 -0.0078
 1140HK4    C4595759   9.418   3.547   0.631  0.1263  0.6038  0.0355
 1140HK4    H2595760   9.448   3.653   0.617  2.1641 -0.0336 -0.6905
 1141HK4    H2895761   3.349   0.938  10.953  0.3874 -0.2252 -0.5470
 1141HK4    C4895762   3.360   1.033  10.901  0.3899  0.0382 -0.0759
 1141HK4    C4795763   3.487   1.089  10.896  0.3172  0.2147  0.0580
 1141HK4    H2795764   3.573   1.024  10.912  0.3224  0.1901 -0.0659
 1141HK4    C4695765   3.502   1.206  10.821  0.2061  0.0028 -0.2967
 1141HK4    H2695766   3.608   1.222  10.795  0.3200 -1.4052 -0.7452
 1141HK4    C4095767   3.400   1.282  10.761  0.0238 -0.2260 -0.2786
 1141HK4    C5095768   3.274   1.222  10.783 -0.0391 -0.1437 -0.4141
 1141HK4    H3095769   3.194   1.296  10.771  1.2132  1.3195 -0.0453
 1141HK4    C4995770   3.252   1.099  10.843  0.1938  0.3005  0.5910
 1141HK4    H2995771   3.151   1.056  10.829 -0.8365  3.2547 -1.4592
 1141HK4     N295772   3.429   1.415  10.729 -0.2782 -0.0370  0.2452
 1141HK4    C3095773   3.526   1.502  10.784  0.1812 -0.3727 -0.0408
 1141HK4    C2995774   3.606   1.489  10.896  0.0244  0.1380  0.1350
 1141HK4    H1595775   3.595   1.391  10.943 -4.3834  1.1700  1.4970
 1141HK4    C2895776   3.695   1.589  10.934 -0.4311  0.4762  0.3035
 1141HK4    C2795777   3.696   1.704  10.852  0.5029 -0.2235 -0.6824
 1141HK4    H1495778   3.750   1.791  10.892  0.4551 -0.7549  0.5675
 1141HK4    C3295779   3.617   1.724  10.740 -0.3068  0.1168 -0.0603
 1141HK4    H1695780   3.596   1.823  10.700 -0.2918 -0.2747 -1.0523
 1141HK4    C3195781   3.539   1.617  10.697 -0.2368 -0.0757  0.2946
 1141HK4    C3495782   3.452   1.599  10.582  0.0083  0.2679  0.0522
 1141HK4    C3395783   3.384   1.474  10.609  0.0461  0.2977  0.2867
 1141HK4    C3595784   3.296   1.423  10.514  0.2865  0.5950 -0.0923
 1141HK4    H1795785   3.249   1.326  10.530  1.8203  0.0222  1.0119
 1141HK4    C3695786   3.275   1.485  10.391  0.7512 -0.5344 -0.7545
 1141HK4    H1895787   3.205   1.445  10.317  0.0495 -2.4515  0.9245
 1141HK4    C3795788   3.355   1.595  10.359  0.6813 -0.2583 -0.0119
 1141HK4    H1995789   3.366   1.628  10.255 -0.8807 -0.4470 -0.2510
 1141HK4    C3895790   3.438   1.651  10.454  0.3037  0.2601  0.0176
 1141HK4    H2095791   3.482   1.746  10.424  1.1221 -0.3304 -0.6933
 1141HK4    C1495792   3.777   1.576  11.055 -0.1763  0.1084  0.0923
 1141HK4     C995793   3.816   1.684  11.136 -0.1842  0.0816  0.1321
 1141HK4     C895794   3.947   1.679  11.189 -0.1364  0.2768  0.0377
 1141HK4    C1195795   4.033   1.573  11.169 -0.4140 -0.1930  1.2796
 1141HK4     H495796   4.136   1.588  11.205 -1.3157 -0.8660  4.3317
 1141HK4    C1295797   3.986   1.460  11.103  0.1972  0.2534  0.0627
 1141HK4     H595798   4.034   1.363  11.119  1.2331  0.3809 -2.1520
 1141HK4    C1395799   3.857   1.460  11.052  0.1640  0.3386  0.1461
 1141HK4     H695800   3.807   1.363  11.039  0.0749  0.6495 -1.9813
 1141HK4     C795801   3.976   1.776   0.050  0.0981 -0.1655  0.3692
 1141HK4     O295802   4.080   1.840   0.041 -0.2027  0.2756 -0.0349
 1141HK4     C495803   3.870   1.842   0.131  0.0785 -0.0785  0.2724
 1141HK4     C395804   3.908   1.892   0.255  0.3073  0.4449 -0.0048
 1141HK4     H395805   4.007   1.887   0.302  0.9179  2.1008 -1.0853
 1141HK4     C295806   3.806   1.950   0.330  0.0884 -0.3114  0.2867
 1141HK4     H295807   3.836   1.994   0.426 -1.7785 -0.1194  0.8021
 1141HK4     C195808   3.679   1.957   0.273  0.2764 -0.3164 -0.1353
 1141HK4     H195809   3.603   1.984   0.348 -0.1354 -0.0010 -0.6623
 1141HK4     C695810   3.637   1.908   0.148  0.0578  0.2003 -0.2679
 1141HK4     C595811   3.741   1.848   0.075  0.2217  0.2051 -0.0367
 1141HK4    C1095812   3.715   1.774  11.196 -0.2903 -0.1198  0.2545
 1141HK4     O195813   3.613   1.801  11.133 -0.4011 -0.7401  0.1729
 1141HK4    C1695814   3.508   1.964   0.106 -0.0465  0.3844  0.2995
 1141HK4    C1595815   3.459   2.091   0.143  0.0338  0.1585  1.1990
 1141HK4     H795816   3.522   2.177   0.167  0.0114 -0.4362  3.5388
 1141HK4    C2095817   3.325   2.125   0.158 -0.1206 -0.0244  0.2743
 1141HK4     H995818   3.283   2.223   0.182 -2.0387 -1.4989  3.2614
 1141HK4    C1995819   3.229   2.029   0.126 -0.0101  0.0058 -0.1530
 1141HK4    C1895820   3.276   1.906   0.066 -0.0502 -0.1188  0.0690
 1141HK4    C1795821   3.411   1.871   0.070  0.1346  0.5215 -0.5419
 1141HK4     H895822   3.440   1.771   0.038 -1.1014  0.8255 -2.7368
 1141HK4     N195823   3.170   1.821   0.028 -0.0857  0.2328 -0.6267
 1141HK4    C2195824   3.052   1.885   0.072 -0.1053 -0.3024  0.1017
 1141HK4    C2295825   3.087   2.007   0.143  0.0306 -0.2241 -0.1008
 1141HK4    C2695826   2.992   2.082   0.212  0.0105 -0.5715  0.2461
 1141HK4    H1395827   3.022   2.179   0.251 -2.0104  1.4245 -2.9615
 1141HK4    C2595828   2.865   2.026   0.214 -0.2448  0.0163  0.2472
 1141HK4    H1295829   2.803   2.056   0.299  0.2224 -0.6516  0.8259
 1141HK4    C2495830   2.825   1.912   0.146 -0.1264  0.1328 -0.0156
 1141HK4    H1195831   2.723   1.878   0.124  0.5557 -1.5867 -0.5426
 1141HK4    C2395832   2.920   1.844   0.071 -0.1658 -0.1119  0.1589
 1141HK4    H1095833   2.888   1.754   0.017  0.3382  0.5681 -1.2956
 1141HK4    C3995834   3.178   1.742  11.161 -0.2146  0.1884 -0.6054
 1141HK4    C4195835   3.083   1.640  11.136 -0.1015 -0.1699  0.4047
 1141HK4    H2195836   3.010   1.619  11.216  0.0680  1.1945  0.9447
 1141HK4    C4295837   3.076   1.574  11.015  0.3128  0.5267 -0.0045
 1141HK4    H2295838   2.996   1.500  10.999 -1.6660  2.8636 -1.2105
 1141HK4    C4395839   3.163   1.603  10.911  0.0814 -0.0876 -0.3725
 1141HK4    H2395840   3.140   1.568  10.810  1.6285 -0.7237 -0.5280
 1141HK4    C4495841   3.255   1.704  10.935  0.1648 -0.3109  0.2648
 1141HK4    H2495842   3.326   1.718  10.852  1.1743 -0.2595  1.1310
 1141HK4    C4595843   3.271   1.765  11.058  0.4623  0.1530 -0.0014
 1141HK4    H2595844   3.360   1.830  11.062  0.9682 -0.6017  1.6500
 1142HK4    H2895845   4.608   3.897   9.462  0.0638 -0.0081 -0.5224
 1142HK4    C4895846   4.522   3.930   9.405  0.2047  0.4423 -0.4682
 1142HK4    C4795847   4.468   4.053   9.442  0.3449  0.3973 -0.1097
 1142HK4    H2795848   4.528   4.115   9.510 -1.3025  0.1651  1.5983
 1142HK4    C4695849   4.350   4.096   9.382 -0.0936 -0.2985  0.2420
 1142HK4    H2695850   4.309   4.192   9.418  0.2774  0.6899 -1.9252
 1142HK4    C4095851   4.277   4.019   9.289 -0.0032  0.2400 -0.2747
 1142HK4    C5095852   4.333   3.893   9.262 -0.5466 -0.1172  0.2581
 1142HK4    H3095853   4.284   3.817   9.199  1.3580 -0.5648 -0.7196
 1142HK4    C4995854   4.451   3.847   9.319 -0.1853  0.3809 -0.0859
 1142HK4    H2995855   4.480   3.745   9.292 -2.7726  0.2801 -2.7419
 1142HK4     N295856   4.148   4.051   9.244 -0.1030 -0.0035 -0.1645
 1142HK4    C3095857   4.060   4.139   9.310 -0.2886 -0.2639 -0.0647
 1142HK4    C2995858   4.031   4.155   9.445  0.0379  0.3007 -0.0575
 1142HK4    H1595859   4.092   4.096   9.514  0.5916 -3.1789 -3.3373
 1142HK4    C2895860   3.934   4.245   9.487 -0.3188  0.0110 -0.2558
 1142HK4    C2795861   3.854   4.308   9.389  0.3954  1.4900  0.0935
 1142HK4    H1495862   3.772   4.371   9.426 -0.8172  0.0278 -0.0163
 1142HK4    C3295863   3.876   4.292   9.253 -0.2689  0.1415  0.1362
 1142HK4    H1695864   3.813   4.346   9.181  3.0667  4.9983  0.6934
 1142HK4    C3195865   3.983   4.214   9.213 -0.4531 -0.1297  0.1680
 1142HK4    C3495866   4.022   4.159   9.084 -0.0030  0.3999  0.0766
 1142HK4    C3395867   4.118   4.053   9.106 -0.3597  0.0393 -0.1098
 1142HK4    C3595868   4.186   3.990   9.003  0.1518  0.7038 -0.1711
 1142HK4    H1795869   4.275   3.929   9.015  0.4677  1.4432  1.3388
 1142HK4    C3695870   4.152   4.026   8.873 -0.4053 -0.3519 -0.3221
 1142HK4    H1895871   4.204   3.975   8.790  1.8721 -1.7240  1.8695
 1142HK4    C3795872   4.052   4.119   8.847 -0.0730 -0.0480 -0.5278
 1142HK4    H1995873   4.051   4.164   8.748 -0.4242  1.9139  0.3552
 1142HK4    C3895874   3.987   4.184   8.951  0.2397 -0.3671 -0.1347
 1142HK4    H2095875   3.898   4.240   8.924  0.6659  0.4112  0.0652
 1142HK4    C1495876   3.914   4.271   9.630 -0.4844 -0.2040 -0.2379
 1142HK4     C995877   3.791   4.322   9.674 -0.3879 -0.4380  0.3156
 1142HK4     C895878   3.798   4.436   9.756 -0.1324  0.0986 -0.4486
 1142HK4    C1195879   3.916   4.465   9.824 -0.3073 -0.8914  0.2836
 1142HK4     H495880   3.917   4.548   9.895  0.0005  1.7406 -2.6706
 1142HK4    C1295881   4.034   4.393   9.805  0.4943  0.5238 -0.1404
 1142HK4     H595882   4.135   4.414   9.844  0.1598  1.0870  0.4277
 1142HK4    C1395883   4.034   4.305   9.697 -0.7892  0.2473  0.0834
 1142HK4     H695884   4.134   4.273   9.664 -1.0404 -2.1961  1.5379
 1142HK4     C795885   3.680   4.520   9.787  0.0570  0.2686 -0.1775
 1142HK4     O295886   3.684   4.613   9.867  0.0064  0.0647  0.0621
 1142HK4     C495887   3.546   4.484   9.734 -0.0046 -0.0974  0.2196
 1142HK4     C395888   3.437   4.569   9.748  0.0433  0.0497 -0.3228
 1142HK4     H395889   3.460   4.672   9.779 -0.1112  0.4269 -1.4137
 1142HK4     C295890   3.312   4.540   9.695  0.0236 -0.4049 -0.0350
 1142HK4     H295891   3.239   4.619   9.671 -0.4366 -0.3219  1.6264
 1142HK4     C195892   3.294   4.414   9.639 -0.3478 -0.3139 -0.1234
 1142HK4     H195893   3.192   4.388   9.607 -1.5492 -0.3810  3.4907
 1142HK4     C695894   3.401   4.323   9.642  0.0467  0.1449 -0.1705
 1142HK4     C595895   3.534   4.358   9.673  0.0886  0.2002 -0.4103
 1142HK4    C1095896   3.654   4.276   9.639 -0.2106 -0.0004 -0.9910
 1142HK4     O195897   3.647   4.167   9.582  0.0066 -0.2614 -0.5123
 1142HK4    C1695898   3.358   4.186   9.609 -0.1636  0.1780 -0.0273
 1142HK4    C1595899   3.261   4.164   9.509  0.1204  0.0819 -0.2842
 1142HK4     H795900   3.255   4.240   9.429  1.6251  1.7124  1.1181
 1142HK4    C2095901   3.173   4.056   9.507  0.0924  0.0942  0.3374
 1142HK4     H995902   3.095   4.059   9.432 -1.1508  2.6014  1.6476
 1142HK4    C1995903   3.171   3.974   9.619 -0.4048  0.5484  0.6643
 1142HK4    C1895904   3.276   3.986   9.719  0.6422 -0.0387 -0.3470
 1142HK4    C1795905   3.366   4.091   9.710  0.2938  0.2949  0.0463
 1142HK4     H895906   3.448   4.091   9.781  1.5200 -0.2773 -1.3540
 1142HK4     N195907   3.250   3.913   9.837  0.2248  0.5371 -0.0773
 1142HK4    C2195908   3.125   3.852   9.815  0.2370  0.2473  0.6229
 1142HK4    C2295909   3.071   3.894   9.687  0.1382 -0.2881  0.4881
 1142HK4    C2695910   2.940   3.864   9.652  0.1396  0.0586  0.1787
 1142HK4    H1395911   2.902   3.879   9.551 -0.1238 -0.9263  0.1262
 1142HK4    C2595912   2.860   3.793   9.741  0.2597 -0.3479 -0.0407
 1142HK4    H1295913   2.771   3.739   9.709  0.3117 -0.0944 -0.6071
 1142HK4    C2495914   2.916   3.747   9.861 -0.2320 -0.2419  0.2283
 1142HK4    H1195915   2.840   3.711   9.932 -1.1549 -0.0938 -0.6551
 1142HK4    C2395916   3.046   3.775   9.899 -0.2892  0.2107  0.1006
 1142HK4    H1095917   3.091   3.710   9.975 -1.1186 -1.1581 -0.5708
 1142HK4    C3995918   3.344   3.857   9.925  0.0415  0.1167 -0.1500
 1142HK4    C4195919   3.307   3.823  10.057 -0.2282 -0.7931 -0.4549
 1142HK4    H2195920   3.222   3.874  10.104 -0.1607 -1.1068  0.0072
 1142HK4    C4295921   3.372   3.725  10.132 -0.0756 -0.0623  0.3599
 1142HK4    H2295922   3.320   3.672  10.214  0.1842  0.0443  0.5966
 1142HK4    C4395923   3.494   3.677  10.086 -0.1645 -0.2385  0.3117
 1142HK4    H2395924   3.537   3.589  10.134  1.6677 -0.3966 -1.5550
 1142HK4    C4495925   3.547   3.723   9.966 -0.2604  0.0822  0.3895
 1142HK4    H2495926   3.652   3.701   9.945 -0.5472  0.0808 -1.0511
 1142HK4    C4595927   3.463   3.796   9.882 -0.0502 -0.1523 -0.0216
 1142HK4    H2595928   3.456   3.778   9.774 -0.5040  1.1914 -0.2244
 1143HK4    H2895929  10.971   7.504   4.254 -0.8851  0.3797  1.0886
 1143HK4    C4895930  11.017   7.409   4.284  0.2447  0.5957  0.0726
 1143HK4    C4795931  11.122   7.350   4.214 -0.0902 -0.1259  0.1740
 1143HK4    H2795932  11.160   7.396   4.122  1.1241 -0.9300  0.2602
 1143HK4    C4695933  11.174   7.225   4.247  0.5671  0.1722  0.2719
 1143HK4    H2695934   0.001   7.178   4.182  1.6042  2.5525 -0.3074
 1143HK4    C4095935  11.132   7.164   4.367 -0.2722 -0.0502 -0.1309
 1143HK4    C5095936  11.028   7.228   4.437  0.1884  0.4717  0.0794
 1143HK4    H3095937  10.986   7.192   4.532  0.5524  1.7996  0.7597
 1143HK4    C4995938  10.964   7.345   4.395  0.4788  0.6852  0.2357
 1143HK4    H2995939  10.896   7.398   4.463 -1.4560 -1.6196  0.1415
 1143HK4     N295940  11.195   7.056   4.430  0.1171  0.3364  0.1427
 1143HK4    C3095941   0.080   7.019   4.405  0.0215  0.1175 -0.0361
 1143HK4    C2995942   0.188   7.094   4.361 -0.1295  0.6261  0.4589
 1143HK4    H1595943   0.167   7.193   4.320 -0.3265  1.1227  1.7345
 1143HK4    C2895944   0.318   7.046   4.359 -0.3330  0.0969  0.0272
 1143HK4    C2795945   0.338   6.913   4.404 -0.4043  0.1222  0.1318
 1143HK4    H1495946   0.440   6.882   4.432 -0.3565  0.9752  0.9296
 1143HK4    C3295947   0.236   6.830   4.446 -0.2046 -0.2211 -0.0591
 1143HK4    H1695948   0.254   6.730   4.487  2.2640  0.6001  0.9265
 1143HK4    C3195949   0.107   6.883   4.449 -0.0753  0.0908 -0.0637
 1143HK4    C3495950  11.228   6.832   4.496 -0.0915  0.5909  0.4566
 1143HK4    C3395951  11.134   6.942   4.485 -0.1337  0.5403  0.2916
 1143HK4    C3595952  10.999   6.911   4.501  0.0248 -0.5607 -0.4126
 1143HK4    H1795953  10.931   6.997   4.496  1.1634  0.3625 -0.3163
 1143HK4    C3695954  10.956   6.782   4.526 -0.2384 -0.4445 -0.2728
 1143HK4    H1895955  10.848   6.771   4.543 -0.2698  0.3340  0.0602
 1143HK4    C3795956  11.048   6.678   4.536  0.2419  0.0269  0.1777
 1143HK4    H1995957  11.010   6.576   4.534 -0.6652  0.1864  4.4518
 1143HK4    C3895958  11.185   6.704   4.527  0.1676  0.4499  0.2356
 1143HK4    H2095959   0.006   6.619   4.529  0.7832  0.9550  0.4045
 1143HK4    C1495960   0.416   7.108   4.269  0.2955 -0.4329  0.3351
 1143HK4     C995961   0.504   7.042   4.182  0.1992 -0.1071 -0.0122
 1143HK4     C895962   0.624   7.100   4.137 -0.0737  0.5836  0.1416
 1143HK4    C1195963   0.652   7.229   4.181  0.2617  0.5676 -0.0229
 1143HK4     H495964   0.729   7.284   4.125 -0.0430  0.9059 -0.1086
 1143HK4    C1295965   0.563   7.299   4.261  0.0966 -0.2783  0.5412
 1143HK4     H595966   0.576   7.406   4.286 -1.5965 -0.1108  0.7352
 1143HK4    C1395967   0.445   7.241   4.306 -0.2962 -0.1260 -0.2953
 1143HK4     H695968   0.363   7.304   4.345 -0.9299  0.1937 -2.1047
 1143HK4     C795969   0.722   7.024   4.056 -0.0141  0.2833  0.4939
 1143HK4     O295970   0.819   7.081   4.008  0.0891 -0.5736 -0.3315
 1143HK4     C495971   0.697   6.879   4.039  0.1504  0.3218 -0.1083
 1143HK4     C395972   0.802   6.801   3.990  0.5611  0.3870  0.6434
 1143HK4     H395973   0.886   6.853   3.941 -0.3443  0.8016 -0.5009
 1143HK4     C295974   0.794   6.663   3.990  0.1581  0.4034 -0.3795
 1143HK4     H295975   0.878   6.598   3.962  1.5533  2.5155 -1.1567
 1143HK4     C195976   0.678   6.602   4.036  0.1502  0.5242 -0.2386
 1143HK4     H195977   0.673   6.493   4.052  1.1985  0.7095  1.4579
 1143HK4     C695978   0.568   6.683   4.072 -0.2444  0.0097 -0.2667
 1143HK4     C595979   0.573   6.823   4.076  0.2766 -0.0091 -0.1864
 1143HK4    C1095980   0.463   6.911   4.124  0.2765 -0.2430  0.2419
 1143HK4     O195981   0.353   6.896   4.071  0.4604  0.1625 -0.2584
 1143HK4    C1695982   0.470   6.606   4.149 -0.2092 -0.4151 -0.6465
 1143HK4    C1595983   0.496   6.530   4.264  0.0909  0.3708 -0.1913
 1143HK4     H795984   0.598   6.531   4.306 -0.0481  1.3333  0.1249
 1143HK4    C2095985   0.401   6.454   4.331  0.1507  0.8998  0.4961
 1143HK4     H995986   0.434   6.398   4.418  3.0171  0.9118 -0.5407
 1143HK4    C1995987   0.269   6.453   4.285  0.0993  0.9448  0.6449
 1143HK4    C1895988   0.240   6.528   4.165 -0.0702 -0.3377 -0.1317
 1143HK4    C1795989   0.339   6.603   4.102 -0.4800  0.3662  0.0530
 1143HK4     H895990   0.316   6.647   4.005 -2.9328  1.5410  1.1184
 1143HK4     N195991   0.106   6.525   4.122 -0.0536 -0.5985 -0.1633
 1143HK4    C2195992   0.042   6.456   4.227 -0.3907  0.0146  0.0394
 1143HK4    C2295993   0.137   6.411   4.327 -0.0472  0.8673  0.0973
 1143HK4    C2695994   0.097   6.332   4.434 -0.0760  0.4421 -0.2215
 1143HK4    H1395995   0.161   6.297   4.515 -1.3529 -4.6203 -1.2334
 1143HK4    C2595996  11.213   6.291   4.435 -0.0914  0.4889 -0.0211
 1143HK4    H1295997  11.181   6.218   4.510 -0.1283  1.0550  0.5189
 1143HK4    C2495998  11.122   6.324   4.335 -0.4642 -0.0724  0.1264
 1143HK4    H1195999  11.020   6.288   4.355  0.4328 -0.8746  3.5011
 1143HK4    C2396000  11.157   6.415   4.236 -0.4496  0.3012  0.4691
 1143HK4    H1096001  11.088   6.437   4.155  1.4240  2.0449 -0.7150
 1143HK4    C3996002   0.043   6.614   4.033 -0.1224 -0.5397 -0.0558
 1143HK4    C4196003  11.174   6.584   3.961 -0.2043 -0.5484  0.0787
 1143HK4    H2196004  11.155   6.477   3.940  0.6243 -0.3659 -1.7188
 1143HK4    C4296005  11.088   6.683   3.914  0.6696  0.0325 -0.2999
 1143HK4    H2296006  11.009   6.658   3.842 -0.2844 -0.7996  1.0143
 1143HK4    C4396007  11.110   6.818   3.936  0.0542  0.1316 -0.2909
 1143HK4    H2396008  11.030   6.889   3.912 -1.2662 -0.7233  1.4325
 1143HK4    C4496009  11.229   6.850   4.000  0.0191 -0.9816  0.3433
 1143HK4    H2496010   0.017   6.952   3.976  0.7897 -1.3628 -0.1611
 1143HK4    C4596011   0.067   6.752   4.047  0.8438 -0.6641 -0.4782
 1143HK4    H2596012   0.148   6.782   4.116  0.3806  0.4847 -0.4304
 1144HK4    H2896013   9.035   1.900  11.053 -0.2655 -2.2218 -1.6539
 1144HK4    C4896014   9.036   1.845  11.147 -0.3020  0.4694 -0.0179
 1144HK4    C4796015   9.024   1.706  11.145  0.2172  0.4155  0.4254
 1144HK4    H2796016   9.002   1.645  11.056  1.3696 -0.3620  0.6613
 1144HK4    C4696017   9.055   1.639   0.015  0.3499 -0.1613  0.0664
 1144HK4    H2696018   9.014   1.538   0.022  0.9163 -0.5127 -1.5790
 1144HK4    C4096019   9.088   1.706   0.135  0.0956  0.1952 -0.0586
 1144HK4    C5096020   9.098   1.846   0.132 -0.3031  0.2346  0.4581
 1144HK4    H3096021   9.140   1.900   0.218  2.0750 -1.8664  0.6589
 1144HK4    C4996022   9.074   1.915   0.013 -0.0560 -0.0682  0.2334
 1144HK4    H2996023   9.092   2.024   0.011  0.8378 -0.2256 -1.6150
 1144HK4     N296024   9.135   1.642   0.250  0.1126  0.2859 -0.0159
 1144HK4    C3096025   9.174   1.507   0.249 -0.0128  0.2514 -0.0971
 1144HK4    C2996026   9.257   1.434   0.164  0.1097  0.0377  0.2042
 1144HK4    H1596027   9.304   1.486   0.081 -1.0794 -0.6251 -0.8957
 1144HK4    C2896028   9.305   1.306   0.189 -0.1375 -0.1623 -0.3460
 1144HK4    C2796029   9.255   1.250   0.309  0.2674  0.2027 -0.0021
 1144HK4    H1496030   9.285   1.146   0.329  0.0163  0.4835  1.9067
 1144HK4    C3296031   9.158   1.306   0.392  0.1040  0.1538 -0.1604
 1144HK4    H1696032   9.126   1.244   0.475 -0.4493 -0.7751 -1.0489
 1144HK4    C3196033   9.124   1.438   0.367  0.1934  0.1985 -0.0421
 1144HK4    C3496034   9.058   1.536   0.451  0.1521 -0.1982  0.3872
 1144HK4    C3396035   9.077   1.659   0.377  0.6532 -0.3154  0.3162
 1144HK4    C3596036   9.044   1.773   0.451  1.2704 -0.0485  0.1803
 1144HK4    H1796037   9.037   1.870   0.403  2.2872  0.1181  0.3545
 1144HK4    C3696038   8.991   1.764   0.579 -0.0375 -0.0245 -0.3566
 1144HK4    H1896039   8.927   1.848   0.611 -1.0819 -0.0617 -2.2659
 1144HK4    C3796040   8.969   1.646   0.649  0.3906  0.3686  0.4469
 1144HK4    H1996041   8.914   1.647   0.743 -1.7355  0.2369 -0.7630
 1144HK4    C3896042   9.010   1.532   0.582  0.8697  0.4061  0.6734
 1144HK4    H2096043   8.992   1.434   0.626  2.1760 -0.4301 -0.6014
 1144HK4    C1496044   9.373   1.227   0.086 -0.1391 -0.1160 -0.3821
 1144HK4     C996045   9.367   1.087   0.095  0.2206 -0.0721  0.6584
 1144HK4     C896046   9.484   1.011   0.070 -0.1159 -0.3030 -0.2446
 1144HK4    C1196047   9.602   1.078   0.041  0.0839 -0.2150  0.7400
 1144HK4     H496048   9.696   1.023   0.029 -1.0036 -1.3462 -3.2312
 1144HK4    C1296049   9.606   1.216   0.025 -0.4277 -0.2147  0.6018
 1144HK4     H596050   9.699   1.261  11.234  1.3306 -0.3942  4.3402
 1144HK4    C1396051   9.491   1.291   0.041 -0.2234  0.2515 -0.0788
 1144HK4     H696052   9.482   1.389  11.240 -0.8897 -0.6513 -1.8167
 1144HK4     C796053   9.482   0.866   0.095  0.0544 -0.2478  0.0940
 1144HK4     O296054   9.588   0.804   0.105  0.4215  0.3380 -0.1866
 1144HK4     C496055   9.355   0.793   0.120  0.0418 -0.0528  0.6230
 1144HK4     C396056   9.354   0.656   0.138  0.0142 -0.1205  0.1298
 1144HK4     H396057   9.443   0.601   0.172  0.2289  1.3322  2.0041
 1144HK4     C296058   9.237   0.584   0.157  0.0832 -0.3693 -0.3605
 1144HK4     H296059   9.228   0.479   0.127  0.7082  0.2008 -2.6012
 1144HK4     C196060   9.121   0.660   0.173  0.4840  0.1932 -0.1365
 1144HK4     H196061   9.027   0.604   0.168 -1.2212  3.0477 -1.2183
 1144HK4     C696062   9.119   0.801   0.180  0.1207  0.1890 -0.1734
 1144HK4     C596063   9.235   0.866   0.135  0.2041  0.3050  0.2003
 1144HK4    C1096064   9.240   1.012   0.105 -0.0391  0.2324 -0.2064
 1144HK4     O196065   9.147   1.057   0.038 -0.2714  0.1055  0.0300
 1144HK4    C1696066   8.993   0.849   0.239  0.2642 -0.1641  0.4230
 1144HK4    C1596067   8.980   0.969   0.312  0.4472 -0.2679  0.6263
 1144HK4     H796068   9.075   1.018   0.335  0.6161 -0.7479  0.9661
 1144HK4    C2096069   8.867   1.016   0.378  0.1929 -0.6956  0.5046
 1144HK4     H996070   8.864   1.118   0.415 -1.7083  0.0286 -1.4926
 1144HK4    C1996071   8.749   0.943   0.371 -0.1610 -0.0564 -0.2405
 1144HK4    C1896072   8.745   0.826   0.287 -0.4042  0.2963 -0.7239
 1144HK4    C1796073   8.868   0.788   0.234  0.0533  0.2669  0.3551
 1144HK4     H896074   8.857   0.697   0.175  1.0941  0.0162  0.5305
 1144HK4     N196075   8.625   0.754   0.298 -0.1080 -0.0691  0.1387
 1144HK4    C2196076   8.554   0.818   0.402 -0.0611  0.1015  0.0648
 1144HK4    C2296077   8.620   0.942   0.437 -0.1836  0.2600 -0.2713
 1144HK4    C2696078   8.557   1.022   0.532  0.2191 -0.2638  0.4347
 1144HK4    H1396079   8.590   1.124   0.551 -0.8540  0.2907 -0.6317
 1144HK4    C2596080   8.443   0.976   0.597  0.0156  0.2069  0.4110
 1144HK4    H1296081   8.406   1.032   0.684  2.0863  1.4340  0.5317
 1144HK4    C2496082   8.380   0.855   0.569  0.1363  0.2834 -0.1940
 1144HK4    H1196083   8.282   0.828   0.609  0.9886  1.9811  3.2712
 1144HK4    C2396084   8.441   0.777   0.472 -0.3235  0.1144 -0.3449
 1144HK4    H1096085   8.411   0.672   0.464  0.0099  0.1230 -1.7414
 1144HK4    C3996086   8.574   0.675   0.194 -0.4734  0.1922  0.1194
 1144HK4    C4196087   8.497   0.560   0.222  0.0405 -0.1676  0.0503
 1144HK4    H2196088   8.506   0.520   0.324  2.5684 -0.9731 -0.4413
 1144HK4    C4296089   8.418   0.503   0.123 -0.0977  0.4462 -0.1938
 1144HK4    H2296090   8.342   0.428   0.152 -0.4865  0.4568 -1.1672
 1144HK4    C4396091   8.421   0.553  11.242 -0.8688  0.5557 -0.1685
 1144HK4    H2396092   8.379   0.501  11.156 -0.2723  1.6922 -1.1619
 1144HK4    C4496093   8.492   0.670  11.217  0.2907 -0.2149 -0.4745
 1144HK4    H2496094   8.482   0.725  11.122 -0.8796  0.7043  0.1796
 1144HK4    C4596095   8.573   0.730   0.064 -0.0100 -0.3643 -0.1203
 1144HK4    H2596096   8.619   0.829   0.051  0.4214 -0.6940 -1.1110
 1145HK4    H2896097   4.635   5.211   8.392  0.2887 -1.0549  1.9709
 1145HK4    C4896098   4.738   5.243   8.379 -0.1172 -0.5101  0.0786
 1145HK4    C4796099   4.839   5.202   8.465 -0.1576 -0.3327  0.2081
 1145HK4    H2796100   4.818   5.160   8.564 -1.0063 -1.0640 -0.2649
 1145HK4    C4696101   4.970   5.214   8.421 -0.2072  0.5513  0.2970
 1145HK4    H2696102   5.043   5.175   8.494 -0.2278 -0.4727 -0.2260
 1145HK4    C4096103   5.015   5.268   8.299  0.2012  0.0648  0.2281
 1145HK4    C5096104   4.907   5.307   8.216 -0.0422 -0.1251  0.4564
 1145HK4    H3096105   4.925   5.355   8.119 -0.0848 -0.6183  0.2020
 1145HK4    C4996106   4.774   5.297   8.255 -0.1020 -0.0757  0.2685
 1145HK4    H2996107   4.694   5.299   8.181  1.6237  4.9011 -1.6427
 1145HK4     N296108   5.147   5.312   8.280 -0.0380  0.5515 -0.3198
 1145HK4    C3096109   5.213   5.311   8.155  0.2179 -0.1276 -0.1799
 1145HK4    C2996110   5.170   5.255   8.036  0.1147 -0.4623  0.0121
 1145HK4    H1596111   5.064   5.240   8.014 -0.2032  2.5897 -0.7220
 1145HK4    C2896112   5.254   5.227   7.929  0.3901 -0.1274  0.1415
 1145HK4    C2796113   5.389   5.259   7.953  0.3971 -0.2540  0.2646
 1145HK4    H1496114   5.465   5.231   7.878 -0.0311  1.4132 -0.7983
 1145HK4    C3296115   5.440   5.321   8.066  0.3887  0.7043 -0.2553
 1145HK4    H1696116   5.545   5.353   8.062  0.7021 -0.1830  0.6109
 1145HK4    C3196117   5.353   5.344   8.172  0.2032 -0.0401 -0.2389
 1145HK4    C3496118   5.367   5.385   8.310 -0.3261 -0.1662 -0.1489
 1145HK4    C3396119   5.239   5.361   8.374 -0.0820 -0.4332  0.2362
 1145HK4    C3596120   5.222   5.420   8.499 -0.3970 -0.9762  0.4499
 1145HK4    H1796121   5.123   5.427   8.545  0.4750  2.4709  1.9257
 1145HK4    C3696122   5.327   5.493   8.553 -0.1329 -0.1811 -1.1083
 1145HK4    H1896123   5.324   5.515   8.661 -0.5055  0.3631 -1.2284
 1145HK4    C3796124   5.448   5.520   8.491  0.7440 -0.9245  0.2695
 1145HK4    H1996125   5.517   5.595   8.530 -1.2756  1.5857 -0.8430
 1145HK4    C3896126   5.466   5.466   8.364 -0.7517  0.7108 -0.6571
 1145HK4    H2096127   5.537   5.514   8.297 -0.4372  0.9408 -0.1632
 1145HK4    C1496128   5.210   5.147   7.814 -0.3478 -0.2644  0.5188
 1145HK4     C996129   5.283   5.045   7.751 -0.1912  0.0963  0.1142
 1145HK4     C896130   5.279   5.035   7.611 -0.1403 -0.2639  0.1391
 1145HK4    C1196131   5.186   5.109   7.539  0.0800 -0.1410 -0.0220
 1145HK4     H496132   5.185   5.111   7.429 -1.8585  1.5926 -0.0053
 1145HK4    C1296133   5.088   5.187   7.600  0.1895 -0.2655  0.3154
 1145HK4     H596134   4.997   5.222   7.551 -0.0083 -1.4249 -0.1640
 1145HK4    C1396135   5.107   5.205   7.737 -0.2816 -0.3188  0.3880
 1145HK4     H696136   5.021   5.242   7.794 -0.7681 -0.2507 -0.3849
 1145HK4     C796137   5.357   4.933   7.536  0.5081  0.0528  0.3763
 1145HK4     O296138   5.414   4.952   7.429 -0.4711  0.4385 -0.0859
 1145HK4     C496139   5.383   4.809   7.613  0.2588  0.0008  0.3772
 1145HK4     C396140   5.437   4.699   7.545  0.2066  0.0389  0.2700
 1145HK4     H396141   5.488   4.716   7.449 -1.6514  0.9016 -0.5912
 1145HK4     C296142   5.440   4.572   7.601  0.5612  0.2090  0.6357
 1145HK4     H296143   5.468   4.488   7.536 -1.4519 -1.5014  1.9093
 1145HK4     C196144   5.385   4.554   7.728 -0.1363  0.0855  0.3187
 1145HK4     H196145   5.369   4.453   7.767  0.2906 -0.2780 -0.4189
 1145HK4     C696146   5.332   4.663   7.799  0.1745 -0.0567  0.7683
 1145HK4     C596147   5.344   4.793   7.747  0.6642 -0.2201  0.4729
 1145HK4    C1096148   5.317   4.919   7.822  0.4949  0.1231 -0.1609
 1145HK4     O196149   5.356   4.927   7.938  0.0248 -0.2042  0.0228
 1145HK4    C1696150   5.262   4.629   7.923 -0.5700 -0.1551  0.3249
 1145HK4    C1596151   5.289   4.521   8.009  0.4600  0.1175  0.3510
 1145HK4     H796152   5.380   4.461   7.993  1.1653  0.8007  1.6808
 1145HK4    C2096153   5.205   4.465   8.105  0.0508 -0.4132 -0.3137
 1145HK4     H996154   5.242   4.405   8.188 -0.4030 -2.4954 -1.5844
 1145HK4    C1996155   5.079   4.523   8.109  0.1880 -0.1492  0.2633
 1145HK4    C1896156   5.041   4.637   8.027 -0.2483 -0.3506  0.1877
 1145HK4    C1796157   5.134   4.683   7.935 -0.6756 -0.2780 -0.2138
 1145HK4     H896158   5.100   4.759   7.866  0.4213 -0.1191 -0.5982
 1145HK4     N196159   4.901   4.658   8.027 -0.1749  0.1581  0.8339
 1145HK4    C2196160   4.844   4.564   8.115  0.1503 -0.1746  0.6915
 1145HK4    C2296161   4.952   4.481   8.164  0.2324 -0.3503  0.2138
 1145HK4    C2696162   4.921   4.372   8.245 -0.1407 -0.4936 -0.1201
 1145HK4    H1396163   4.997   4.297   8.266  3.5477  3.0829 -0.0886
 1145HK4    C2596164   4.790   4.352   8.287 -0.1808  0.4628  0.2248
 1145HK4    H1296165   4.776   4.287   8.374  1.9206 -0.2700  0.0527
 1145HK4    C2496166   4.690   4.439   8.245 -0.3362  0.1951  0.0443
 1145HK4    H1196167   4.588   4.402   8.266 -0.2896  0.2782  0.4086
 1145HK4    C2396168   4.714   4.548   8.163 -0.1377  0.1346  0.0220
 1145HK4    H1096169   4.638   4.621   8.136 -0.5552  0.1443  1.2078
 1145HK4    C3996170   4.839   4.779   7.994  0.0072 -0.0777 -0.3828
 1145HK4    C4196171   4.710   4.795   7.939 -0.4621 -0.2741  0.6469
 1145HK4    H2196172   4.685   4.723   7.859  0.7027  1.0303 -0.9222
 1145HK4    C4296173   4.632   4.909   7.942  0.4442  0.3528  0.4383
 1145HK4    H2296174   4.527   4.909   7.909 -0.1057 -0.9772  2.1081
 1145HK4    C4396175   4.682   5.021   8.009 -0.2511  0.8921  0.0651
 1145HK4    H2396176   4.633   5.117   7.998 -1.6647  0.3026  1.0773
 1145HK4    C4496177   4.811   5.015   8.061 -0.4918 -0.1863  0.5504
 1145HK4    H2496178   4.867   5.101   8.098 -0.3007  1.1559 -2.6960
 1145HK4    C4596179   4.887   4.899   8.050 -0.3661 -0.0421 -0.1425
 1145HK4    H2596180   4.992   4.913   8.078 -0.5170 -0.3932  0.6339
 1146HK4    H2896181   7.190   8.195   1.649 -0.1818  0.2582 -0.5631
 1146HK4    C4896182   7.242   8.286   1.679 -0.2060  0.1076 -0.0632
 1146HK4    C4796183   7.284   8.318   1.807 -0.4393 -0.0018  0.0412
 1146HK4    H2796184   7.234   8.281   1.898  3.1944 -1.8780  1.4084
 1146HK4    C4696185   7.381   8.414   1.829  0.0225 -0.4068 -0.2189
 1146HK4    H2696186   7.411   8.442   1.931 -0.7271 -0.3754 -0.0081
 1146HK4    C4096187   7.443   8.492   1.729 -0.6537  0.4365  0.0099
 1146HK4    C5096188   7.391   8.462   1.601  0.0735 -0.6616 -0.0355
 1146HK4    H3096189   7.419   8.529   1.518 -1.8093 -0.2042 -0.3290
 1146HK4    C4996190   7.293   8.365   1.577 -0.3907 -0.1216 -0.3369
 1146HK4    H2996191   7.240   8.365   1.481 -0.1871 -1.3565 -0.4555
 1146HK4     N296192   7.515   8.608   1.757  0.1527 -0.1606  0.4505
 1146HK4    C3096193   7.476   8.702   1.855  0.1866 -0.0889  0.3944
 1146HK4    C2996194   7.353   8.719   1.917 -0.0692  0.2844 -0.2221
 1146HK4    H1596195   7.265   8.671   1.874 -0.9768  0.5958  1.2439
 1146HK4    C2896196   7.334   8.823   2.007  0.0853 -0.2923  0.4733
 1146HK4    C2796197   7.438   8.916   2.029 -0.0636 -0.1056  0.3871
 1146HK4    H1496198   7.436   8.985   2.115  0.7189 -0.3330  0.5846
 1146HK4    C3296199   7.559   8.907   1.962 -0.1641 -0.1552  0.2151
 1146HK4    H1696200   7.644   8.968   1.991 -0.7982  0.3061  1.1286
 1146HK4    C3196201   7.577   8.804   1.870 -0.0366  0.2153 -0.1748
 1146HK4    C3496202   7.672   8.783   1.762  0.2232 -0.1837  0.1320
 1146HK4    C3396203   7.630   8.662   1.694 -0.0805 -0.0619  0.1040
 1146HK4    C3596204   7.716   8.621   1.594  0.4413  0.3342  0.3918
 1146HK4    H1796205   7.696   8.537   1.528  0.4590  0.5817  0.0718
 1146HK4    C3696206   7.830   8.692   1.557  0.3512  0.3268  0.0964
 1146HK4    H1896207   7.904   8.651   1.487  0.3574  0.1885  0.1846
 1146HK4    C3796208   7.865   8.811   1.622  1.1226  0.3551 -0.3553
 1146HK4    H1996209   7.951   8.869   1.590  1.2693 -0.0216 -0.6445
 1146HK4    C3896210   7.789   8.852   1.731  0.3015 -0.6258 -0.5519
 1146HK4    H2096211   7.828   8.937   1.786  0.6582  0.9416 -3.1439
 1146HK4    C1496212   7.193   8.844   2.041  0.0430 -0.0144  0.1222
 1146HK4     C996213   7.133   8.970   2.050  0.2180  0.0851 -0.0778
 1146HK4     C896214   7.017   8.983   2.131  0.3177  0.3916  0.0201
 1146HK4    C1196215   6.965   8.867   2.188  0.4815  0.1845 -0.2524
 1146HK4     H496216   6.887   8.891   2.261 -0.4769  0.6655 -1.4155
 1146HK4    C1296217   7.013   8.738   2.169 -0.7967 -0.2716 -0.4105
 1146HK4     H596218   6.970   8.650   2.219  3.4888 -2.1544  0.2054
 1146HK4    C1396219   7.132   8.731   2.097 -0.2094  0.3039  0.4937
 1146HK4     H696220   7.176   8.634   2.068  2.2248  1.7980 -0.9104
 1146HK4     C796221   6.955   9.116   2.145  0.5100  0.4464  0.3830
 1146HK4     O296222   6.861   9.126   2.224 -0.0303  0.0955 -0.2110
 1146HK4     C496223   7.016   9.233   2.079 -0.4590  0.5676 -0.3198
 1146HK4     C396224   6.968   9.359   2.112 -0.0892  0.4850  0.5390
 1146HK4     H396225   6.874   9.364   2.169  0.9423  0.3600  2.2758
 1146HK4     C296226   7.032   9.476   2.072  0.2375 -0.0289 -0.4659
 1146HK4     H296227   7.004   9.559   2.138 -3.1048 -1.7523  0.3846
 1146HK4     C196228   7.146   9.468   1.993  0.5725  0.0969  0.0002
 1146HK4     H196229   7.177   9.559   1.940  0.3904 -0.6759 -1.4460
 1146HK4     C696230   7.196   9.340   1.960  0.0015 -0.0151 -0.4334
 1146HK4     C596231   7.130   9.222   1.996  0.0045  0.2229  0.3632
 1146HK4    C1096232   7.183   9.085   1.970 -0.8540  0.0938 -0.7497
 1146HK4     O196233   7.221   9.062   1.855  0.0074  0.1324 -0.4785
 1146HK4    C1696234   7.338   9.354   1.927  0.1096 -0.0204  0.0276
 1146HK4    C1596235   7.426   9.452   1.979 -0.4311  0.7128 -0.4252
 1146HK4     H796236   7.394   9.497   2.074  1.5112  0.7709  0.2341
 1146HK4    C2096237   7.553   9.482   1.931  0.1155 -0.3215  0.3442
 1146HK4     H996238   7.616   9.550   1.988 -0.8355  1.2709 -0.4802
 1146HK4    C1996239   7.591   9.422   1.812  0.4945 -0.0536  0.3287
 1146HK4    C1896240   7.505   9.325   1.746  0.0769  0.4880  0.0752
 1146HK4    C1796241   7.385   9.296   1.810  0.3429 -0.2717  0.2421
 1146HK4     H896242   7.306   9.256   1.745  1.2939 -0.4132 -0.8319
 1146HK4     N196243   7.567   9.266   1.634  0.5878 -0.2142  0.7253
 1146HK4    C2196244   7.691   9.332   1.621  0.3408  0.1178  0.0684
 1146HK4    C2296245   7.712   9.424   1.732  0.5438 -0.3185  0.3947
 1146HK4    C2696246   7.831   9.493   1.747  0.2530  0.3765 -0.4397
 1146HK4    H1396247   7.834   9.578   1.814 -0.2158  0.4769 -0.5509
 1146HK4    C2596248   7.937   9.465   1.661 -0.0858  0.1138 -0.7755
 1146HK4    H1296249   8.039   9.499   1.683 -0.2801 -0.3870  0.9611
 1146HK4    C2496250   7.918   9.382   1.552 -0.1060 -0.0532 -0.6444
 1146HK4    H1196251   7.992   9.382   1.470 -0.6036 -0.2220 -1.0987
 1146HK4    C2396252   7.798   9.313   1.535 -0.1411 -0.0243 -0.5100
 1146HK4    H1096253   7.791   9.232   1.463  0.1376  1.0538 -1.7726
 1146HK4    C3996254   7.529   9.147   1.571  0.1304  0.1884  0.2337
 1146HK4    C4196255   7.583   9.112   1.446  0.5564 -0.0280  0.4763
 1146HK4    H2196256   7.596   9.197   1.377 -0.4362 -1.4319 -1.4814
 1146HK4    C4296257   7.560   8.993   1.378  0.2322 -0.0604  0.6427
 1146HK4    H2296258   7.621   8.963   1.291 -2.7554 -0.0009 -1.5633
 1146HK4    C4396259   7.481   8.897   1.440  0.3819 -0.3353  0.4130
 1146HK4    H2396260   7.470   8.802   1.388  1.9252  0.5064 -1.4938
 1146HK4    C4496261   7.423   8.923   1.564  0.1898 -0.4764  0.3535
 1146HK4    H2496262   7.373   8.836   1.607 -1.7952 -0.6364 -2.1477
 1146HK4    C4596263   7.449   9.045   1.626  0.3721 -0.2345 -0.1901
 1146HK4    H2596264   7.414   9.054   1.730 -0.2939  0.2188 -0.4478
 1147HK4    H2896265   6.870   2.457  10.719 -0.2379  0.8328  0.8217
 1147HK4    C4896266   6.775   2.410  10.693  0.2165  0.5028 -0.2702
 1147HK4    C4796267   6.667   2.452  10.769  0.0980  0.4003 -0.3862
 1147HK4    H2796268   6.674   2.522  10.854  3.3093 -0.7319  0.3638
 1147HK4    C4696269   6.541   2.411  10.725 -0.0446  0.1534  0.2389
 1147HK4    H2696270   6.450   2.456  10.768 -0.4870  0.2635 -0.8085
 1147HK4    C4096271   6.523   2.324  10.616 -0.0240  0.4004  0.0335
 1147HK4    C5096272   6.639   2.282  10.548  0.1587  0.3753  0.3611
 1147HK4    H3096273   6.628   2.218  10.459  0.9678  2.9449 -1.6501
 1147HK4    C4996274   6.766   2.324  10.584  0.2967  0.4977 -0.2748
 1147HK4    H2996275   6.851   2.268  10.542 -0.0496 -0.4492  0.2855
 1147HK4     N296276   6.409   2.243  10.605  0.3269 -0.0807 -0.0583
 1147HK4    C3096277   6.346   2.189  10.490  0.5181 -0.7210  0.1386
 1147HK4    C2996278   6.397   2.187  10.361  0.1056  0.2969 -0.0427
 1147HK4    H1596279   6.453   2.274  10.328  0.6670 -1.1377 -3.0371
 1147HK4    C2896280   6.337   2.106  10.265  0.4553 -0.3769  0.3091
 1147HK4    C2796281   6.224   2.029  10.300  0.0988  0.0996  0.2052
 1147HK4    H1496282   6.171   1.960  10.233 -2.9614  2.4657  0.0740
 1147HK4    C3296283   6.167   2.036  10.426 -0.0416 -0.3234  0.1637
 1147HK4    H1696284   6.072   1.985  10.446  0.3058 -0.5730  1.2142
 1147HK4    C3196285   6.227   2.114  10.524 -0.1502  0.1843 -0.1713
 1147HK4    C3496286   6.216   2.118  10.669  0.0396  0.0266 -0.1519
 1147HK4    C3396287   6.337   2.187  10.712  0.3694 -0.4925 -0.2409
 1147HK4    C3596288   6.370   2.179  10.847  0.5036 -0.1847 -0.2581
 1147HK4    H1796289   6.466   2.215  10.882 -0.2102 -0.3906  1.9707
 1147HK4    C3696290   6.295   2.116  10.945 -0.0032  0.0759 -0.4743
 1147HK4    H1896291   6.322   2.114  11.051 -2.4356 -2.4196  0.1616
 1147HK4    C3796292   6.180   2.050  10.902  0.3947 -1.0928  0.2118
 1147HK4    H1996293   6.126   1.999  10.981 -0.4240  0.2827  0.5632
 1147HK4    C3896294   6.144   2.053  10.768  0.2708  0.4093  0.2697
 1147HK4    H2096295   6.058   1.991  10.742  0.4522  0.1804  0.2148
 1147HK4    C1496296   6.377   2.131  10.125 -0.1151  0.0912  0.2273
 1147HK4     C996297   6.292   2.100  10.018 -0.2214 -0.3309  0.4302
 1147HK4     C896298   6.339   2.037   9.901 -0.0872 -0.6868  0.6757
 1147HK4    C1196299   6.476   2.039   9.878 -0.1163  0.6681  0.6206
 1147HK4     H496300   6.511   2.041   9.773 -0.0950 -0.5297  0.6022
 1147HK4    C1296301   6.562   2.077   9.980  0.4003 -0.9647  0.7950
 1147HK4     H596302   6.668   2.097   9.959  0.5249 -2.0327  0.3264
 1147HK4    C1396303   6.515   2.130  10.100 -0.1654  0.4937 -0.0610
 1147HK4     H696304   6.588   2.165  10.174 -0.7525  1.3052  0.1302
 1147HK4     C796305   6.243   1.961   9.817 -0.0627  0.1183 -0.0837
 1147HK4     O296306   6.285   1.884   9.730  0.1334 -0.3176  0.3906
 1147HK4     C496307   6.099   1.990   9.835 -0.0392 -0.1653  0.5704
 1147HK4     C396308   6.008   1.915   9.762  0.0913 -0.3124  0.5583
 1147HK4     H396309   6.054   1.841   9.695  1.6339 -1.5176  2.8565
 1147HK4     C296310   5.871   1.919   9.783 -0.0846 -0.3897 -0.5677
 1147HK4     H296311   5.804   1.845   9.737 -0.1719  0.7304 -2.3240
 1147HK4     C196312   5.824   2.007   9.879  0.2052 -0.1694 -0.6281
 1147HK4     H196313   5.716   2.011   9.900  0.4339 -3.9782  1.8518
 1147HK4     C696314   5.912   2.095   9.946 -0.3318 -0.4084  0.4132
 1147HK4     C596315   6.051   2.085   9.928 -0.3414  0.3140 -0.0723
 1147HK4    C1096316   6.154   2.155  10.010 -0.0823 -0.0515 -0.0853
 1147HK4     O196317   6.154   2.278  10.010  0.5424 -0.0497 -0.3573
 1147HK4    C1696318   5.843   2.202  10.020 -0.2229 -0.0969  0.0679
 1147HK4    C1596319   5.724   2.258   9.969 -0.1495  0.0279  0.0349
 1147HK4     H796320   5.695   2.241   9.864  0.0952 -1.3502  0.1786
 1147HK4    C2096321   5.635   2.336  10.043 -0.0354  0.0352  0.1654
 1147HK4     H996322   5.559   2.393   9.990  0.3279 -0.9481 -1.4477
 1147HK4    C1996323   5.666   2.364  10.175 -0.3838 -0.5075  0.3601
 1147HK4    C1896324   5.790   2.312  10.228  0.2077  0.0052 -0.5085
 1147HK4    C1796325   5.872   2.228  10.153  0.0010 -0.8028  0.1614
 1147HK4     H896326   5.951   2.173  10.204  2.5973  0.9405 -1.8215
 1147HK4     N196327   5.831   2.385  10.342 -0.2726 -0.0308 -0.3107
 1147HK4    C2196328   5.721   2.468  10.369 -0.4103 -0.3535  0.1324
 1147HK4    C2296329   5.615   2.461  10.270 -0.1443  0.1516 -0.1844
 1147HK4    C2696330   5.500   2.537  10.285  0.0478  0.3611  0.2278
 1147HK4    H1396331   5.408   2.518  10.230  1.0894 -0.3207 -1.3286
 1147HK4    C2596332   5.482   2.619  10.396  0.2874  0.1482  0.4259
 1147HK4    H1296333   5.383   2.661  10.413 -1.0616 -2.7355 -0.0636
 1147HK4    C2496334   5.591   2.635  10.481  0.4142  0.4822  0.2023
 1147HK4    H1196335   5.581   2.700  10.570  1.0338  0.1625  0.5124
 1147HK4    C2396336   5.708   2.561  10.471  0.2207  0.2426 -0.3248
 1147HK4    H1096337   5.786   2.561  10.548  1.4810  1.0056 -1.5828
 1147HK4    C3996338   5.964   2.411  10.377 -0.3527  0.1591 -0.1499
 1147HK4    C4196339   6.005   2.411  10.512  0.2111 -0.7731 -0.3198
 1147HK4    H2196340   5.940   2.374  10.593 -1.6241 -0.9649 -1.8372
 1147HK4    C4296341   6.133   2.455  10.543  0.1509 -0.1015 -1.0211
 1147HK4    H2296342   6.178   2.424  10.639  0.0656 -1.0884 -1.2910
 1147HK4    C4396343   6.219   2.511  10.449  0.0112  0.3550 -0.8730
 1147HK4    H2396344   6.314   2.555  10.478 -0.8538  0.5043  1.8400
 1147HK4    C4496345   6.176   2.515  10.317 -0.6321 -0.3078 -0.6881
 1147HK4    H2496346   6.251   2.546  10.243  0.9474 -2.2526  0.0767
 1147HK4    C4596347   6.054   2.459  10.280 -0.4150 -0.7867 -0.6783
 1147HK4    H2596348   6.037   2.458  10.171 -1.1682  2.5166 -0.6421
 1148HK4    H2896349   1.241   3.979   5.350  0.7606  1.2265 -0.4397
 1148HK4    C4896350   1.282   3.943   5.256  0.7608 -0.5787  0.2446
 1148HK4    C4796351   1.410   3.988   5.225  0.4572  0.2582  0.2015
 1148HK4    H2796352   1.466   4.046   5.300  0.7832 -0.1606  0.2838
 1148HK4    C4696353   1.457   3.953   5.099 -0.4629  0.4097 -0.1902
 1148HK4    H2696354   1.564   3.975   5.082 -0.0178 -0.8890  0.7861
 1148HK4    C4096355   1.382   3.886   5.001  0.1933 -0.4933 -0.0824
 1148HK4    C5096356   1.254   3.842   5.042  0.0547  0.0458  0.0628
 1148HK4    H3096357   1.193   3.806   4.958  1.4120  1.6643 -1.6568
 1148HK4    C4996358   1.207   3.861   5.171  0.7618 -0.7856  0.4432
 1148HK4    H2996359   1.128   3.795   5.209 -0.8167 -1.3869 -3.6463
 1148HK4     N296360   1.416   3.880   4.866  0.2066 -0.1836 -0.0926
 1148HK4    C3096361   1.462   3.990   4.791  0.0177  0.2413  0.4111
 1148HK4    C2996362   1.503   4.119   4.823  0.8632 -0.0121  0.3587
 1148HK4    H1596363   1.484   4.164   4.920  3.1818 -0.0600  0.8617
 1148HK4    C2896364   1.550   4.212   4.730 -0.4727  0.3150  0.0061
 1148HK4    C2796365   1.545   4.174   4.595 -0.0585 -0.1653  0.1230
 1148HK4    H1496366   1.550   4.240   4.507 -0.8204 -0.1548  0.0847
 1148HK4    C3296367   1.509   4.046   4.552  0.0057 -0.1864  0.1306
 1148HK4    H1696368   1.489   4.027   4.447 -2.1257  0.0916  0.4728
 1148HK4    C3196369   1.475   3.954   4.651 -0.2475  0.1913  0.3997
 1148HK4    C3496370   1.443   3.813   4.643  0.8164 -0.0339 -0.1492
 1148HK4    C3396371   1.403   3.771   4.776 -0.3354  0.1586 -0.4280
 1148HK4    C3596372   1.374   3.639   4.805  0.3607  0.1726  0.3685
 1148HK4    H1796373   1.342   3.604   4.903 -0.9388 -2.5219 -0.9265
 1148HK4    C3696374   1.379   3.547   4.700  0.5006 -0.1843  0.6848
 1148HK4    H1896375   1.361   3.440   4.717 -1.8730 -0.1808 -1.4436
 1148HK4    C3796376   1.416   3.588   4.572  0.3014 -0.2708  0.5973
 1148HK4    H1996377   1.427   3.511   4.497  2.6022  1.2171 -0.6598
 1148HK4    C3896378   1.445   3.721   4.540 -0.5853 -0.2282 -0.0124
 1148HK4    H2096379   1.502   3.741   4.449 -1.1597 -0.7618 -0.5059
 1148HK4    C1496380   1.613   4.335   4.779 -0.2543  0.2280 -0.0557
 1148HK4     C996381   1.656   4.432   4.687  0.0368 -0.1078 -0.2759
 1148HK4     C896382   1.780   4.496   4.698 -0.3902  0.6218  0.3791
 1148HK4    C1196383   1.849   4.478   4.817  0.4416 -0.5437 -0.2690
 1148HK4     H496384   1.929   4.550   4.840 -0.4908  0.8000 -1.1680
 1148HK4    C1296385   1.803   4.392   4.916 -0.0045 -0.6615 -0.5765
 1148HK4     H596386   1.859   4.386   5.011 -1.2708 -1.1992  0.1464
 1148HK4    C1396387   1.686   4.319   4.899 -0.1437 -0.5258 -0.2196
 1148HK4     H696388   1.641   4.259   4.979  0.9744 -2.0555 -0.6951
 1148HK4     C796389   1.834   4.577   4.586 -0.2989 -0.7651 -0.5958
 1148HK4     O296390   1.955   4.580   4.565 -0.1192 -0.3623  0.5024
 1148HK4     C496391   1.739   4.621   4.481 -0.4020  0.3896 -0.0341
 1148HK4     C396392   1.785   4.717   4.392  0.0528  0.1285 -0.0859
 1148HK4     H396393   1.877   4.774   4.413  0.1232  0.2813 -0.8146
 1148HK4     C296394   1.709   4.750   4.281  0.3329  0.2382 -0.2455
 1148HK4     H296395   1.730   4.836   4.215 -0.2931 -0.3654 -1.2385
 1148HK4     C196396   1.598   4.670   4.259  0.5540 -0.2697  0.4857
 1148HK4     H196397   1.547   4.678   4.162 -0.0140 -0.6608  0.7448
 1148HK4     C696398   1.542   4.575   4.347 -0.3186 -0.1772  0.0400
 1148HK4     C596399   1.613   4.558   4.467 -0.1876 -0.0462 -0.0194
 1148HK4    C1096400   1.562   4.476   4.580 -0.2155 -0.0536 -0.0373
 1148HK4     O196401   1.443   4.484   4.610 -0.1995  0.4729 -0.1228
 1148HK4    C1696402   1.406   4.532   4.310 -0.2410 -0.1792 -0.2378
 1148HK4    C1596403   1.330   4.610   4.221 -0.2316  0.1730  0.0609
 1148HK4     H796404   1.346   4.718   4.205 -2.5582  0.3124 -1.5601
 1148HK4    C2096405   1.215   4.565   4.157  0.2926 -0.2683 -0.5652
 1148HK4     H996406   1.154   4.617   4.083 -0.9328  0.4633  0.9413
 1148HK4    C1996407   1.166   4.440   4.191  0.2213 -0.2140 -0.4725
 1148HK4    C1896408   1.231   4.364   4.296  0.2221 -0.5503 -0.7141
 1148HK4    C1796409   1.356   4.406   4.339 -0.1646 -0.1485  0.0272
 1148HK4     H896410   1.433   4.330   4.352 -0.5775 -0.3355  1.5499
 1148HK4     N196411   1.164   4.243   4.328 -0.3380 -0.0709 -0.0442
 1148HK4    C2196412   1.058   4.242   4.235 -0.3909 -0.2681  0.0202
 1148HK4    C2296413   1.049   4.362   4.155 -0.0273 -0.1448  0.1648
 1148HK4    C2696414   0.945   4.377   4.064  0.2311  0.7201  0.0034
 1148HK4    H1396415   0.941   4.474   4.014  2.0625  0.6555 -0.3073
 1148HK4    C2596416   0.858   4.272   4.036  0.9922  0.0067  0.2911
 1148HK4    H1296417   0.798   4.273   3.945  1.8750  2.1612 -0.3014
 1148HK4    C2496418   0.861   4.155   4.111 -0.2944 -0.2226  0.0008
 1148HK4    H1196419   0.794   4.071   4.088 -1.7974  0.7769  0.6663
 1148HK4    C2396420   0.957   4.149   4.211  0.0849 -0.6766 -0.3913
 1148HK4    H1096421   0.944   4.070   4.285 -3.2126  0.8057  0.6648
 1148HK4    C3996422   1.164   4.182   4.453 -0.2388  0.2331  0.1068
 1148HK4    C4196423   1.122   4.047   4.459 -0.2543  0.2151 -0.4359
 1148HK4    H2196424   1.139   3.997   4.362  3.1941  1.6539 -0.6566
 1148HK4    C4296425   1.110   3.974   4.576 -0.1075  0.2552 -0.3974
 1148HK4    H2296426   1.101   3.865   4.569 -1.6131  0.3313  0.1809
 1148HK4    C4396427   1.129   4.039   4.698 -0.3508 -0.1910 -0.1186
 1148HK4    H2396428   1.105   4.002   4.797 -1.6501  0.8858 -0.0223
 1148HK4    C4496429   1.173   4.171   4.695 -0.4494 -0.1516  0.1482
 1148HK4    H2496430   1.203   4.216   4.791 -1.8124 -0.8487  0.9263
 1148HK4    C4596431   1.188   4.244   4.577 -0.5693  0.0572  0.2613
 1148HK4    H2596432   1.220   4.349   4.579 -1.2946  0.3304 -1.6109
 1149HK4    H2896433   2.157   9.713   0.493  0.5788 -1.7517  0.9748
 1149HK4    C4896434   2.116   9.652   0.413 -0.4030  0.0062  0.1112
 1149HK4    C4796435   2.197   9.549   0.366  0.1875  0.3837  0.3005
 1149HK4    H2796436   2.307   9.551   0.374  0.2336 -0.3874 -0.0735
 1149HK4    C4696437   2.151   9.435   0.301  0.1037  0.3936  0.3454
 1149HK4    H2696438   2.215   9.353   0.265 -0.1660  0.6169 -0.6632
 1149HK4    C4096439   2.011   9.419   0.285  0.2614  0.1551 -0.8646
 1149HK4    C5096440   1.929   9.527   0.324  0.1608 -0.0918 -0.3954
 1149HK4    H3096441   1.821   9.509   0.331  0.3416 -0.7638  0.7994
 1149HK4    C4996442   1.979   9.638   0.391 -0.3291  0.2001 -0.5043
 1149HK4    H2996443   1.908   9.719   0.411 -0.4537 -0.1725  0.5962
 1149HK4     N296444   1.941   9.307   0.239  0.0045  0.1344 -0.4177
 1149HK4    C3096445   1.997   9.178   0.250 -0.2294  0.1188  0.6398
 1149HK4    C2996446   2.084   9.126   0.346  0.2827 -0.1811  0.0128
 1149HK4    H1596447   2.070   9.180   0.439 -0.6717 -0.3261 -0.0452
 1149HK4    C2896448   2.135   8.998   0.332 -0.3492 -0.4506  0.1634
 1149HK4    C2796449   2.075   8.915   0.236 -0.1079 -0.4103 -0.0201
 1149HK4    H1496450   2.112   8.812   0.226  1.4616  0.0761  0.5869
 1149HK4    C3296451   1.975   8.959   0.150 -0.3615 -0.1090  0.4271
 1149HK4    H1696452   1.907   8.885   0.106  1.6785 -0.3102 -2.5190
 1149HK4    C3196453   1.938   9.093   0.149  0.1355  0.0307  0.5009
 1149HK4    C3496454   1.848   9.174   0.070  0.2243 -0.4355 -0.0806
 1149HK4    C3396455   1.852   9.306   0.130  0.1564 -0.2223 -0.5370
 1149HK4    C3596456   1.785   9.412   0.070  0.4677  0.1436 -0.2266
 1149HK4    H1796457   1.804   9.513   0.106 -1.2757 -0.1870  1.7533
 1149HK4    C3696458   1.721   9.387  11.198  0.1966 -0.4020  0.0300
 1149HK4    H1896459   1.654   9.463  11.155  1.0225 -0.7920 -2.0335
 1149HK4    C3796460   1.705   9.260  11.143  0.2453 -0.1533 -0.5715
 1149HK4    H1996461   1.662   9.245  11.044 -0.7819  0.4651 -0.2358
 1149HK4    C3896462   1.772   9.155  11.203 -0.2570 -0.0547  0.1688
 1149HK4    H2096463   1.750   9.051  11.176  1.3891 -0.0658 -1.2636
 1149HK4    C1496464   2.267   8.965   0.389 -0.3164  0.0425  0.3698
 1149HK4     C996465   2.377   8.909   0.324 -0.3313  0.4127  0.0221
 1149HK4     C896466   2.457   8.810   0.385  0.0550  0.7197  0.0191
 1149HK4    C1196467   2.435   8.781   0.519  0.3388 -0.0132 -0.0926
 1149HK4     H496468   2.489   8.696   0.564  2.3787  0.9731 -0.6402
 1149HK4    C1296469   2.348   8.861   0.592 -0.2627 -0.3812 -0.4005
 1149HK4     H596470   2.354   8.865   0.702 -0.9069  2.1431 -0.4181
 1149HK4    C1396471   2.262   8.951   0.530 -0.1582  0.2881  0.4014
 1149HK4     H696472   2.191   9.010   0.590  0.3189 -0.2139  1.4541
 1149HK4     C796473   2.550   8.729   0.303 -0.5359 -0.3675  0.4124
 1149HK4     O296474   2.651   8.685   0.356 -0.3088 -0.3089  0.0249
 1149HK4     C496475   2.536   8.732   0.156  0.0026  0.3486  0.3733
 1149HK4     C396476   2.604   8.635   0.083 -0.1310  0.7850 -0.3396
 1149HK4     H396477   2.665   8.556   0.128 -0.5444  0.1819 -0.8440
 1149HK4     C296478   2.604   8.631  11.192  0.3151  0.3787 -0.3318
 1149HK4     H296479   2.647   8.541  11.146  2.3228  1.5398 -0.7483
 1149HK4     C196480   2.531   8.730  11.126 -0.2349  0.2137  0.0222
 1149HK4     H196481   2.532   8.717  11.017  1.4578 -0.1195  0.0536
 1149HK4     C696482   2.461   8.831  11.196 -0.6365 -0.0305 -0.0283
 1149HK4     C596483   2.463   8.832   0.088 -0.4232 -0.2317 -0.0267
 1149HK4    C1096484   2.397   8.930   0.178  0.0355  0.0341  0.0172
 1149HK4     O196485   2.391   9.047   0.140 -0.2615  0.0316  0.0478
 1149HK4    C1696486   2.388   8.921  11.105 -0.0781 -0.0670 -0.5122
 1149HK4    C1596487   2.258   8.961  11.140  0.1711  0.0727  0.2622
 1149HK4     H796488   2.202   8.898  11.211 -2.4250  2.6386  0.6124
 1149HK4    C2096489   2.201   9.065  11.068 -0.0801 -0.5312 -0.4062
 1149HK4     H996490   2.104   9.108  11.095 -0.4512  1.0235 -3.8973
 1149HK4    C1996491   2.270   9.138  10.972  0.0211 -0.2357 -0.1069
 1149HK4    C1896492   2.408   9.107  10.943  0.2616  0.3466  0.4097
 1149HK4    C1796493   2.459   8.999  11.015  0.2124 -0.2527 -0.4518
 1149HK4     H896494   2.558   8.964  10.984 -0.4231 -1.8241 -0.7484
 1149HK4     N196495   2.474   9.185  10.846 -0.3924 -0.4183 -0.6505
 1149HK4    C2196496   2.365   9.253  10.788 -0.0848  0.2407 -0.4518
 1149HK4    C2296497   2.241   9.223  10.857  0.2567  0.1733  0.1336
 1149HK4    C2696498   2.121   9.267  10.803  0.2929 -0.0729 -0.1485
 1149HK4    H1396499   2.033   9.206  10.824  0.5473 -0.8221 -1.2294
 1149HK4    C2596500   2.121   9.350  10.691  0.0950  0.1427  0.0107
 1149HK4    H1296501   2.032   9.401  10.654 -0.9063  0.2704  2.4723
 1149HK4    C2496502   2.239   9.380  10.624 -0.1346 -0.0194 -0.4677
 1149HK4    H1196503   2.229   9.445  10.536 -1.7695  0.7039  0.2287
 1149HK4    C2396504   2.360   9.334  10.675 -0.0320  0.3672 -0.3647
 1149HK4    H1096505   2.453   9.362  10.626  1.1629  0.1808  1.7074
 1149HK4    C3996506   2.597   9.249  10.865 -0.2242 -0.8156 -0.4045
 1149HK4    C4196507   2.680   9.294  10.759 -0.3341  0.1803 -0.0703
 1149HK4    H2196508   2.669   9.237  10.666  0.0022  1.4541 -0.8903
 1149HK4    C4296509   2.798   9.361  10.788 -0.4987  0.5221 -0.1930
 1149HK4    H2296510   2.864   9.400  10.709  1.7706 -2.2127  0.2935
 1149HK4    C4396511   2.839   9.387  10.918 -0.2935  0.1159 -0.1773
 1149HK4    H2396512   2.923   9.451  10.945 -0.7735 -0.0629  1.8439
 1149HK4    C4496513   2.764   9.341  11.026 -0.3980  0.2107 -0.2084
 1149HK4    H2496514   2.793   9.377  11.126 -0.2440 -0.3366 -0.0537
 1149HK4    C4596515   2.646   9.275  10.994 -0.5702  0.6848 -0.5611
 1149HK4    H2596516   2.571   9.260  11.073 -2.5530  0.0312 -2.5474
 1150HK4    H2896517   2.998   0.223   5.318  1.1860 -0.8466 -0.6012
 1150HK4    C4896518   2.957   0.242   5.219 -0.2381 -0.3066  0.0631
 1150HK4    C4796519   2.951   0.138   5.127  0.7465 -0.2387 -0.0840
 1150HK4    H2796520   3.038   0.071   5.135  0.0648 -1.2190 -0.7469
 1150HK4    C4696521   2.881   0.153   5.008  0.3219 -0.2780  0.1637
 1150HK4    H2696522   2.862   0.066   4.942  0.4675  0.7342 -1.2422
 1150HK4    C4096523   2.834   0.281   4.972 -0.7219 -0.6575  0.1462
 1150HK4    C5096524   2.840   0.388   5.064 -0.0981 -0.0383 -0.6107
 1150HK4    H3096525   2.782   0.480   5.050 -0.4709  0.0915  1.6506
 1150HK4    C4996526   2.904   0.366   5.185 -0.4109 -0.5402 -0.5373
 1150HK4    H2996527   2.924   0.450   5.253 -2.4450 -0.8433  0.4876
 1150HK4     N296528   2.808   0.310   4.837 -0.1908 -0.2818  0.1227
 1150HK4    C3096529   2.877   0.259   4.726 -0.0830 -0.1456  0.1258
 1150HK4    C2996530   2.989   0.178   4.716  0.1296  0.1978 -0.3006
 1150HK4    H1596531   3.066   0.188   4.793  0.4957  0.1752 -0.6602
 1150HK4    C2896532   3.026   0.121   4.595  0.1823 -0.0584 -0.1655
 1150HK4    C2796533   2.960   0.163   4.478 -0.5760 -0.4913  0.1099
 1150HK4    H1496534   2.982   0.106   4.387 -1.7274 -0.4146 -0.2316
 1150HK4    C3296535   2.850   0.249   4.483 -0.6012 -0.5348  0.3102
 1150HK4    H1696536   2.783   0.269   4.400 -2.9599 -1.1472  2.0217
 1150HK4    C3196537   2.803   0.294   4.606 -0.3549 -0.1897  0.2798
 1150HK4    C3496538   2.683   0.364   4.646 -0.6098 -0.5219  0.1000
 1150HK4    C3396539   2.684   0.359   4.790 -0.3451 -0.7030  0.0911
 1150HK4    C3596540   2.577   0.421   4.854 -0.1358 -0.4663  0.2112
 1150HK4    H1796541   2.572   0.412   4.962  1.6331  0.2125  0.3617
 1150HK4    C3696542   2.471   0.477   4.783  0.1689 -0.4688 -0.2508
 1150HK4    H1896543   2.386   0.519   4.838  0.6695  0.1856  0.0341
 1150HK4    C3796544   2.474   0.484   4.645  0.2130  0.1911 -0.2160
 1150HK4    H1996545   2.388   0.524   4.590  0.1312  1.4402  0.7920
 1150HK4    C3896546   2.579   0.425   4.576 -0.0970 -0.1859 -0.3693
 1150HK4    H2096547   2.590   0.445   4.469  0.2133 -1.1329 -0.5171
 1150HK4    C1496548   3.134   0.022   4.588  0.1182 -0.1524  0.1601
 1150HK4     C996549   3.205  11.238   4.471 -0.6236 -0.2422 -0.2650
 1150HK4     C896550   3.242  11.104   4.446  0.0750 -0.0409 -0.3205
 1150HK4    C1196551   3.224  11.006   4.543 -0.9252  0.0002 -0.4572
 1150HK4     H496552   3.236  10.901   4.513  0.3722  0.1042 -0.3323
 1150HK4    C1296553   3.179  11.038   4.670  0.1093 -0.1532 -0.0497
 1150HK4     H596554   3.167  10.959   4.746  0.5505 -0.5099 -0.3495
 1150HK4    C1396555   3.135  11.169   4.686  0.6955  0.0042  0.3203
 1150HK4     H696556   3.117  11.200   4.790  0.1780  1.5236 -0.2070
 1150HK4     C796557   3.311  11.079   4.318  0.6639  0.0543 -0.0217
 1150HK4     O296558   3.297  10.965   4.275  0.3774 -0.1006  0.4904
 1150HK4     C496559   3.357  11.190   4.231 -0.8066 -0.0011 -0.8717
 1150HK4     C396560   3.434  11.150   4.123  0.1915 -0.4557  0.0011
 1150HK4     H396561   3.470  11.046   4.112 -0.0084 -0.3427 -2.0882
 1150HK4     C296562   3.466  11.243   4.025  0.1651 -0.1687  0.2664
 1150HK4     H296563   3.518  11.211   3.934  0.7646 -4.3796  1.9793
 1150HK4     C196564   3.421   0.125   4.045  0.2623 -0.0727 -0.1340
 1150HK4     H196565   3.436   0.188   3.956  0.2753  0.2151  0.0706
 1150HK4     C696566   3.351   0.171   4.158 -0.1507 -0.2946 -0.2992
 1150HK4     C596567   3.320   0.076   4.256 -0.1773  0.0164 -0.0015
 1150HK4    C1096568   3.263   0.101   4.391 -0.3542 -0.2164 -0.0312
 1150HK4     O196569   3.305   0.197   4.456  0.4854 -0.2821 -0.4645
 1150HK4    C1696570   3.344   0.318   4.166 -0.5889 -0.3370  0.1527
 1150HK4    C1596571   3.428   0.405   4.094 -0.4960 -0.0844  0.5669
 1150HK4     H796572   3.527   0.372   4.059 -1.5684 -1.8937 -0.8879
 1150HK4    C2096573   3.397   0.537   4.063  0.1354 -0.0865 -0.1040
 1150HK4     H996574   3.449   0.588   3.982 -1.1348 -1.9561 -2.1455
 1150HK4    C1996575   3.283   0.591   4.122  0.2999  0.3298 -0.1618
 1150HK4    C1896576   3.201   0.506   4.207  0.4827  0.4902  0.1745
 1150HK4    C1796577   3.225   0.370   4.216 -0.2214  0.3734  0.2956
 1150HK4     H896578   3.149   0.301   4.253  0.3868 -1.0575 -1.0623
 1150HK4     N196579   3.095   0.583   4.257  0.2699  0.0057  0.4693
 1150HK4    C2196580   3.113   0.714   4.207 -0.0089 -0.0095  0.3297
 1150HK4    C2296581   3.214   0.717   4.103 -0.3983 -0.0303 -0.0543
 1150HK4    C2696582   3.230   0.828   4.021 -0.1116  0.0308  0.0811
 1150HK4    H1396583   3.301   0.823   3.938  0.7624 -0.7523  0.8744
 1150HK4    C2596584   3.142   0.936   4.030 -0.0075  0.0717  0.5850
 1150HK4    H1296585   3.134   1.006   3.947  0.1569  0.5625  0.9725
 1150HK4    C2496586   3.037   0.927   4.120 -0.4614  0.2814  0.0791
 1150HK4    H1196587   2.947   0.988   4.104  0.8442  2.1087 -0.5103
 1150HK4    C2396588   3.026   0.822   4.211  0.6413  0.5065  0.4782
 1150HK4    H1096589   2.961   0.836   4.298  1.4071 -1.3813  1.3824
 1150HK4    C3996590   3.031   0.551   4.378  0.5077 -0.4583  0.4735
 1150HK4    C4196591   2.905   0.613   4.393  0.4676 -0.4136 -0.0246
 1150HK4    H2196592   2.839   0.623   4.305  1.9530  0.8827 -1.0088
 1150HK4    C4296593   2.849   0.644   4.516  0.7080 -0.2854  0.0533
 1150HK4    H2296594   2.742   0.671   4.519  1.1868  1.6555  0.5968
 1150HK4    C4396595   2.926   0.628   4.631 -0.1433  0.1103  0.6844
 1150HK4    H2396596   2.876   0.630   4.728 -0.6217 -1.3195  0.4828
 1150HK4    C4496597   3.050   0.568   4.617 -0.3261 -0.1073 -0.0166
 1150HK4    H2496598   3.098   0.529   4.708  0.8842 -0.6846 -0.8848
 1150HK4    C4596599   3.107   0.533   4.495  0.6202 -0.1910  0.4431
 1150HK4    H2596600   3.198   0.472   4.501  0.6373  0.0630  2.9949
 1151HK4    H2896601   4.015   6.279   0.702  0.4391  0.2118  0.2322
 1151HK4    C4896602   3.936   6.260   0.775  0.3475 -0.3527 -0.0110
 1151HK4    C4796603   3.926   6.341   0.887 -0.4932  0.3808 -0.6088
 1151HK4    H2796604   3.969   6.443   0.886 -0.0697  0.1949 -1.2513
 1151HK4    C4696605   3.852   6.296   0.996  0.3055  0.2055 -0.1294
 1151HK4    H2696606   3.843   6.363   1.083 -0.8860  0.2850 -0.3097
 1151HK4    C4096607   3.777   6.177   0.987  0.1322  0.3024  0.0320
 1151HK4    C5096608   3.783   6.102   0.868 -0.0847 -0.1228  0.2871
 1151HK4    H3096609   3.737   6.003   0.861  1.3880 -0.8060  0.0445
 1151HK4    C4996610   3.867   6.140   0.764 -0.2187 -0.0480  0.2056
 1151HK4    H2996611   3.880   6.073   0.678 -1.5379 -1.6723  1.2500
 1151HK4     N296612   3.731   6.123   1.108  0.2121  0.1306 -0.0151
 1151HK4    C3096613   3.766   6.149   1.242 -0.2163  0.0353  0.1169
 1151HK4    C2996614   3.879   6.218   1.285 -0.2836  0.4330 -0.3458
 1151HK4    H1596615   3.967   6.191   1.226 -0.2675 -0.6308  0.1504
 1151HK4    C2896616   3.905   6.240   1.420 -0.0778  0.0114 -0.3175
 1151HK4    C2796617   3.815   6.179   1.509 -0.1718  0.2988 -0.2178
 1151HK4    H1496618   3.821   6.193   1.618 -0.5765  0.5351 -0.2261
 1151HK4    C3296619   3.700   6.113   1.468  0.0946 -0.3273  0.0263
 1151HK4    H1696620   3.620   6.112   1.542 -0.9811 -0.2690 -1.1176
 1151HK4    C3196621   3.671   6.089   1.334 -0.4114  0.2202  0.0358
 1151HK4    C3496622   3.576   6.014   1.255  0.1930 -0.3604 -0.1404
 1151HK4    C3396623   3.611   6.050   1.119  0.5594 -0.4467 -0.0698
 1151HK4    C3596624   3.525   5.999   1.022  0.2688  0.8250 -0.4903
 1151HK4    H1796625   3.518   6.045   0.924 -1.1831  2.5398  0.3871
 1151HK4    C3696626   3.428   5.905   1.055  0.6081  0.7061  0.1709
 1151HK4    H1896627   3.386   5.846   0.973 -1.1453  2.4881 -0.2401
 1151HK4    C3796628   3.386   5.882   1.186  0.2881  0.0579 -0.0424
 1151HK4    H1996629   3.286   5.843   1.205  1.0519 -1.5241  0.8114
 1151HK4    C3896630   3.469   5.930   1.286 -0.0426  0.0767  0.2229
 1151HK4    H2096631   3.448   5.925   1.393  0.8329 -0.0042  0.3974
 1151HK4    C1496632   4.015   6.327   1.464  0.2074 -0.1337 -0.7319
 1151HK4     C996633   4.064   6.336   1.595 -0.4958  0.2076 -0.4921
 1151HK4     C896634   4.088   6.456   1.664  0.5156  0.0898 -0.6409
 1151HK4    C1196635   4.082   6.570   1.584  0.7150  0.1117 -0.6249
 1151HK4     H496636   4.080   6.668   1.633  0.1628 -0.9011  1.4175
 1151HK4    C1296637   4.059   6.565   1.447 -0.7421 -0.0163 -0.3767
 1151HK4     H596638   4.053   6.657   1.388  2.3880 -0.4075 -1.3803
 1151HK4    C1396639   4.023   6.445   1.387 -0.5909  0.0325 -0.5654
 1151HK4     H696640   3.991   6.442   1.282  2.3149  1.6930 -1.5571
 1151HK4     C796641   4.137   6.465   1.804 -0.4808  0.2473 -0.3026
 1151HK4     O296642   4.098   6.561   1.869 -0.0043  0.1940  0.0629
 1151HK4     C496643   4.179   6.338   1.869 -0.9933  0.2222 -0.0146
 1151HK4     C396644   4.253   6.347   1.986 -0.2731 -0.5175 -0.4108
 1151HK4     H396645   4.284   6.445   2.025  2.1345 -1.1559 -0.6711
 1151HK4     C296646   4.283   6.231   2.056  0.0895 -0.0117  0.2791
 1151HK4     H296647   4.318   6.236   2.160 -0.4045  2.2722  0.3618
 1151HK4     C196648   4.229   6.112   2.008  0.1646 -0.0419  0.2684
 1151HK4     H196649   4.290   6.027   2.042 -0.4600 -0.5718  0.0755
 1151HK4     C696650   4.150   6.098   1.892  0.4777  0.1681  0.0302
 1151HK4     C596651   4.142   6.214   1.813 -0.3080  0.0459 -0.0737
 1151HK4    C1096652   4.107   6.214   1.668 -0.3677  0.5115 -0.0612
 1151HK4     O196653   4.169   6.134   1.599 -0.7418 -0.1441  0.3509
 1151HK4    C1696654   4.035   6.008   1.898  0.7262 -0.1640 -0.2194
 1151HK4    C1596655   3.973   5.972   2.020  0.5773 -1.1118 -0.5670
 1151HK4     H796656   4.003   6.029   2.109 -1.6374  0.5313 -0.8354
 1151HK4    C2096657   3.852   5.906   2.038 -0.0604  0.2503  0.2512
 1151HK4     H996658   3.796   5.902   2.131  0.7803 -1.4905  0.6939
 1151HK4    C1996659   3.788   5.865   1.921 -0.3414  0.5524  0.2959
 1151HK4    C1896660   3.855   5.879   1.793 -0.5074  0.0692  0.1552
 1151HK4    C1796661   3.971   5.955   1.786 -0.2074 -0.3625  0.3970
 1151HK4     H896662   4.035   5.961   1.698  0.3412  0.9956  0.8686
 1151HK4     N196663   3.773   5.841   1.685 -0.0992  0.5602 -0.3350
 1151HK4    C2196664   3.647   5.812   1.742  0.2262  0.3605  0.2943
 1151HK4    C2296665   3.651   5.835   1.885 -0.3263  0.4828  0.2928
 1151HK4    C2696666   3.533   5.810   1.954 -0.2617 -0.3191  0.1156
 1151HK4    H1396667   3.545   5.794   2.062 -1.0570 -1.4328  0.0438
 1151HK4    C2596668   3.415   5.787   1.885 -0.0358  0.1490 -0.4288
 1151HK4    H1296669   3.322   5.764   1.936  1.0914  0.8841  2.0246
 1151HK4    C2496670   3.420   5.760   1.749  0.3789 -0.2841 -0.3308
 1151HK4    H1196671   3.330   5.715   1.703 -0.0715  1.1229 -0.8361
 1151HK4    C2396672   3.535   5.770   1.671  0.4406  0.5113 -0.1386
 1151HK4    H1096673   3.524   5.750   1.564  1.6733  0.0862 -0.1923
 1151HK4    C3996674   3.832   5.779   1.574  0.1370  0.7779 -0.3304
 1151HK4    C4196675   3.760   5.762   1.454  0.5786  0.7683 -0.5930
 1151HK4    H2196676   3.677   5.831   1.432 -0.2837 -0.4945 -1.3691
 1151HK4    C4296677   3.786   5.655   1.369 -0.4481 -0.4761  0.6385
 1151HK4    H2296678   3.724   5.643   1.279 -0.3404  2.8309  0.0540
 1151HK4    C4396679   3.883   5.560   1.398  0.0355 -0.1664  0.0278
 1151HK4    H2396680   3.871   5.463   1.351 -1.0879 -0.0186 -0.0109
 1151HK4    C4496681   3.957   5.580   1.514 -0.3688 -0.0645  0.2697
 1151HK4    H2496682   4.018   5.493   1.543  0.6467  1.3218  2.4271
 1151HK4    C4596683   3.931   5.683   1.603 -0.8373 -0.0992  0.1734
 1151HK4    H2596684   3.999   5.705   1.688  0.5877  0.8035 -1.1730
 1152HK4    H2896685   2.340   9.882   1.885  0.0031 -2.7693  0.8658
 1152HK4    C4896686   2.372   9.838   1.791 -0.0976 -0.4102 -0.2913
 1152HK4    C4796687   2.489   9.883   1.731  0.0437 -0.0132  0.2818
 1152HK4    H2796688   2.571   9.911   1.799 -1.4311 -2.2742  3.0810
 1152HK4    C4696689   2.501   9.871   1.593 -0.3264  0.3553  0.2165
 1152HK4    H2696690   2.601   9.893   1.554  0.7238 -2.2562  1.3001
 1152HK4    C4096691   2.396   9.824   1.511  0.3176 -0.9180  0.1188
 1152HK4    C5096692   2.282   9.775   1.579 -0.3715  0.3226 -0.1326
 1152HK4    H3096693   2.186   9.778   1.525 -0.7210  1.0916  0.5325
 1152HK4    C4996694   2.269   9.781   1.717 -0.2550 -0.3874 -0.0891
 1152HK4    H2996695   2.188   9.729   1.770  1.5926 -3.6034 -0.2936
 1152HK4     N296696   2.397   9.843   1.373 -0.2849  0.4045  0.2937
 1152HK4    C3096697   2.457   9.954   1.310  0.2196 -0.1922 -0.2772
 1152HK4    C2996698   2.488  10.073   1.375 -0.2287  0.0819 -0.5636
 1152HK4    H1596699   2.495  10.075   1.484  2.3664 -3.3078 -0.5943
 1152HK4    C2896700   2.534  10.185   1.307 -0.7231  0.6510  0.0382
 1152HK4    C2796701   2.537  10.174   1.166 -0.8654 -0.4140  0.1119
 1152HK4    H1496702   2.599  10.244   1.108 -0.0300 -1.5388 -0.3719
 1152HK4    C3296703   2.484  10.066   1.098 -0.5978 -0.1088 -0.5858
 1152HK4    H1696704   2.495  10.053   0.990  3.9346 -0.6960 -0.1394
 1152HK4    C3196705   2.440   9.953   1.166 -0.0600 -0.1142 -0.2434
 1152HK4    C3496706   2.370   9.828   1.142  0.0422 -0.3345  0.5952
 1152HK4    C3396707   2.333   9.771   1.270  0.3961 -0.6116  0.5741
 1152HK4    C3596708   2.258   9.653   1.274 -0.1177 -0.3032  0.2255
 1152HK4    H1796709   2.247   9.598   1.367 -0.5679 -2.5137 -1.1125
 1152HK4    C3696710   2.220   9.588   1.157 -0.4404  0.1927  0.0546
 1152HK4    H1896711   2.167   9.492   1.156  0.0794 -0.0880 -1.1643
 1152HK4    C3796712   2.253   9.643   1.034  0.1734 -0.2543  0.0200
 1152HK4    H1996713   2.228   9.593   0.941  1.6166  1.0864 -1.1324
 1152HK4    C3896714   2.331   9.759   1.029  0.1117 -0.1849  0.4817
 1152HK4    H2096715   2.369   9.795   0.933 -2.0089 -3.5079 -1.7494
 1152HK4    C1496716   2.547  10.310   1.384 -0.0281  0.3428  0.4179
 1152HK4     C996717   2.519  10.439   1.340  0.2172  0.1558 -0.3023
 1152HK4     C896718   2.569  10.551   1.410  0.2297  0.1155 -0.2469
 1152HK4    C1196719   2.648  10.527   1.521 -0.2416  0.0959  0.0885
 1152HK4     H496720   2.707  10.612   1.559 -1.1785 -0.7668  3.6956
 1152HK4    C1296721   2.674  10.402   1.576  0.4826  0.1766 -0.0584
 1152HK4     H596722   2.719  10.384   1.675 -1.6185 -0.3090  0.8392
 1152HK4    C1396723   2.627  10.296   1.499 -0.2774  0.0712  0.5570
 1152HK4     H696724   2.649  10.199   1.548  0.3055  1.6124  3.4996
 1152HK4     C796725   2.528  10.688   1.370 -0.2170  0.0710  0.0515
 1152HK4     O296726   2.576  10.786   1.427 -0.3001  0.2509 -0.1889
 1152HK4     C496727   2.442  10.709   1.251 -0.1965 -0.2060 -0.0132
 1152HK4     C396728   2.417  10.839   1.208  0.1633 -0.2454 -0.3583
 1152HK4     H396729   2.432  10.929   1.269 -2.0264  0.3310 -0.6548
 1152HK4     C296730   2.360  10.863   1.084 -0.2986  0.1038 -0.0801
 1152HK4     H296731   2.345  10.965   1.047  2.3772 -0.2054 -2.1772
 1152HK4     C196732   2.322  10.753   1.008 -0.3096  0.1319 -0.1132
 1152HK4     H196733   2.275  10.769   0.910  0.6063  0.8790 -0.4376
 1152HK4     C696734   2.342  10.619   1.046 -0.5126  0.0667 -0.2323
 1152HK4     C596735   2.394  10.600   1.175 -0.2146  0.0452 -0.3561
 1152HK4    C1096736   2.413  10.467   1.239  0.1600  0.1482 -0.2445
 1152HK4     O196737   2.308  10.404   1.253  0.3565  0.0637  0.8475
 1152HK4    C1696738   2.337  10.528   0.931 -0.1824  0.1510 -0.3125
 1152HK4    C1596739   2.366  10.575   0.801  0.3519 -0.6015 -0.4685
 1152HK4     H796740   2.432  10.662   0.788  0.3543 -0.4047  0.7633
 1152HK4    C2096741   2.338  10.505   0.684 -0.0092 -0.3776 -0.5123
 1152HK4     H996742   2.349  10.562   0.592 -2.5009  0.9580 -0.0415
 1152HK4    C1996743   2.290  10.375   0.689 -0.1819 -0.3181 -0.5496
 1152HK4    C1896744   2.250  10.324   0.819  0.0360 -0.1252 -0.4086
 1152HK4    C1796745   2.270  10.406   0.929  0.4588 -0.1979 -0.4295
 1152HK4     H896746   2.207  10.383   1.015  0.7580  2.0616  0.4520
 1152HK4     N196747   2.189  10.198   0.812  0.6478 -0.4511  0.0743
 1152HK4    C2196748   2.203  10.154   0.679 -0.0468 -0.0671 -0.1285
 1152HK4    C2296749   2.265  10.261   0.602  0.1167 -0.4236 -0.4964
 1152HK4    C2696750   2.277  10.253   0.464  0.1526  0.1881 -0.5302
 1152HK4    H1396751   2.310  10.333   0.399  1.4113 -0.3787 -0.6048
 1152HK4    C2596752   2.216  10.144   0.402 -0.0691 -0.0013  0.0068
 1152HK4    H1296753   2.211  10.138   0.293  1.8878  2.3769 -0.2625
 1152HK4    C2496754   2.145  10.050   0.474 -0.0325  0.1045  0.1777
 1152HK4    H1196755   2.077   9.983   0.419  2.3051 -3.0174  0.9684
 1152HK4    C2396756   2.138  10.051   0.613 -0.0073 -0.2881  0.1817
 1152HK4    H1096757   2.070   9.991   0.674 -0.4202 -0.2519 -0.2469
 1152HK4    C3996758   2.100  10.141   0.904 -0.1055  0.2018 -0.2409
 1152HK4    C4196759   2.076  10.004   0.924  0.1528  0.2464  0.4130
 1152HK4    H2196760   2.151   9.940   0.876 -0.6999  0.3637 -1.1135
 1152HK4    C4296761   1.979   9.950   1.009 -0.1626 -0.5865 -0.4577
 1152HK4    H2296762   1.952   9.844   0.998 -1.7914 -0.1522 -0.7677
 1152HK4    C4396763   1.896  10.037   1.079  0.9133 -0.1859  0.3335
 1152HK4    H2396764   1.811   9.996   1.134 -0.9268  1.1895 -1.4051
 1152HK4    C4496765   1.906  10.174   1.060 -0.3543 -0.2547 -0.8871
 1152HK4    H2496766   1.845  10.252   1.107  2.9305  1.8035  0.0942
 1152HK4    C4596767   2.010  10.219   0.979  0.1619  0.2371  0.0463
 1152HK4    H2596768   2.007  10.328   0.963 -1.6610 -0.1442 -2.6005
 1153HK4    H2896769   1.902   8.716   3.328 -0.8325  0.0610 -1.2967
 1153HK4    C4896770   1.999   8.695   3.284 -0.1857  0.0146  0.1271
 1153HK4    C4796771   2.099   8.620   3.346 -0.3320 -0.5093 -0.2687
 1153HK4    H2796772   2.079   8.552   3.430 -0.7073  0.9281  0.8250
 1153HK4    C4696773   2.224   8.616   3.286 -0.0434  0.1635  0.2962
 1153HK4    H2696774   2.305   8.559   3.335  0.2951 -0.7429 -1.2910
 1153HK4    C4096775   2.260   8.693   3.174 -0.0544 -0.4903 -0.1558
 1153HK4    C5096776   2.154   8.766   3.117  0.2379 -0.3729 -0.5568
 1153HK4    H3096777   2.173   8.836   3.033  1.1774  2.2130  1.7376
 1153HK4    C4996778   2.024   8.766   3.167  0.5378 -0.0675  0.2312
 1153HK4    H2996779   1.945   8.803   3.101 -0.2001 -0.2324  1.0143
 1153HK4     N296780   2.386   8.678   3.115  0.2069  0.1228  0.2389
 1153HK4    C3096781   2.446   8.774   3.031 -0.1034  0.1301  0.0294
 1153HK4    C2996782   2.447   8.912   3.045 -0.3709  0.1429 -0.0560
 1153HK4    H1596783   2.401   8.954   3.135  0.3811  2.2322 -0.6063
 1153HK4    C2896784   2.520   8.991   2.957 -0.0579 -0.0325  0.0461
 1153HK4    C2796785   2.607   8.927   2.867  0.1696  0.2235  0.0819
 1153HK4    H1496786   2.656   8.991   2.792 -2.5509  0.9404 -1.1570
 1153HK4    C3296787   2.618   8.789   2.853 -0.4724  0.1380  0.3620
 1153HK4    H1696788   2.683   8.743   2.778 -0.2856  1.3669 -0.2389
 1153HK4    C3196789   2.541   8.713   2.940  0.0760 -0.2776  0.4893
 1153HK4    C3496790   2.539   8.571   2.970 -0.3689 -0.3769 -0.0020
 1153HK4    C3396791   2.450   8.556   3.082 -0.1580 -0.0584  0.2083
 1153HK4    C3596792   2.428   8.423   3.116  0.1681  0.0152  0.7126
 1153HK4    H1796793   2.334   8.414   3.170  0.1684  0.8457  0.8659
 1153HK4    C3696794   2.491   8.314   3.057 -0.0362  0.1954  0.1688
 1153HK4    H1896795   2.478   8.212   3.095  0.9108 -0.4429 -1.1829
 1153HK4    C3796796   2.578   8.336   2.950  0.1074  0.0446  0.2543
 1153HK4    H1996797   2.642   8.253   2.924  1.0388  0.8262  0.0292
 1153HK4    C3896798   2.605   8.466   2.907  0.1372 -0.0548 -0.0184
 1153HK4    H2096799   2.683   8.485   2.833 -0.2356  2.8230  0.3003
 1153HK4    C1496800   2.508   9.137   2.947 -0.2406 -0.0386  0.1545
 1153HK4     C996801   2.543   9.221   2.840  0.2446 -0.1491  0.2261
 1153HK4     C896802   2.596   9.351   2.859  0.0761 -0.0222 -0.1757
 1153HK4    C1196803   2.618   9.397   2.988  0.1323  0.5151 -0.3757
 1153HK4     H496804   2.651   9.500   3.007  2.4942 -0.2051 -0.5031
 1153HK4    C1296805   2.566   9.326   3.096  0.2798  0.0140 -0.6313
 1153HK4     H596806   2.586   9.357   3.200 -2.1801 -0.0281 -0.1148
 1153HK4    C1396807   2.514   9.199   3.073 -0.4827  0.1990  0.0508
 1153HK4     H696808   2.440   9.173   3.150  1.4365 -1.5094  1.3622
 1153HK4     C796809   2.647   9.424   2.741 -0.5055  0.5727 -0.0637
 1153HK4     O296810   2.663   9.545   2.752  0.2082  0.4704  0.0239
 1153HK4     C496811   2.657   9.356   2.610 -0.3572 -0.2572  0.3720
 1153HK4     C396812   2.723   9.417   2.504 -0.7050 -0.1137  0.2359
 1153HK4     H396813   2.761   9.517   2.529  1.1921 -0.8903  0.5485
 1153HK4     C296814   2.756   9.355   2.384 -0.2649 -0.1557  0.3775
 1153HK4     H296815   2.814   9.407   2.305 -0.2570 -1.5560 -0.5618
 1153HK4     C196816   2.712   9.224   2.373  0.0641 -0.2311 -0.0812
 1153HK4     H196817   2.718   9.169   2.278 -2.2219  0.0564 -0.4135
 1153HK4     C696818   2.643   9.153   2.473  0.1773 -0.2261 -0.0007
 1153HK4     C596819   2.614   9.223   2.590  0.2969 -0.4410  0.1585
 1153HK4    C1096820   2.535   9.165   2.702 -0.0190  0.0090  0.1746
 1153HK4     O196821   2.438   9.097   2.669 -0.0273  0.1510 -0.0849
 1153HK4    C1696822   2.670   9.008   2.467  0.4211 -0.1659 -0.4502
 1153HK4    C1596823   2.796   8.953   2.435  0.8439  0.2645  0.4809
 1153HK4     H796824   2.879   9.025   2.427 -0.4099  1.4335 -2.5360
 1153HK4    C2096825   2.824   8.818   2.421 -0.2817  0.0643  0.1251
 1153HK4     H996826   2.927   8.783   2.412  0.1342  1.4716 -0.6928
 1153HK4    C1996827   2.718   8.731   2.444  0.0041 -0.3198 -0.0062
 1153HK4    C1896828   2.581   8.778   2.456  0.1817  0.1632  0.1250
 1153HK4    C1796829   2.566   8.916   2.470  0.1556  0.1555  0.1672
 1153HK4     H896830   2.464   8.952   2.477  0.5961  1.7312 -1.4719
 1153HK4     N196831   2.500   8.671   2.499  0.0032  0.2509  0.0102
 1153HK4    C2196832   2.586   8.565   2.536 -0.1111  0.0611 -0.2715
 1153HK4    C2296833   2.719   8.592   2.484  0.1850 -0.2181  0.3409
 1153HK4    C2696834   2.818   8.495   2.498  0.2294 -0.2417 -0.1267
 1153HK4    H1396835   2.919   8.519   2.465  0.4570 -0.0171  0.7125
 1153HK4    C2596836   2.787   8.371   2.552 -0.0827 -0.4121 -0.6936
 1153HK4    H1296837   2.852   8.284   2.556  0.2657 -0.2862 -3.1134
 1153HK4    C2496838   2.658   8.347   2.596  0.0746  0.0256  0.0116
 1153HK4    H1196839   2.626   8.248   2.630  0.7747 -0.6583 -1.3041
 1153HK4    C2396840   2.555   8.441   2.591  0.3435  0.3565  0.6392
 1153HK4    H1096841   2.454   8.416   2.622  0.5747 -0.7444  0.5025
 1153HK4    C3996842   2.371   8.679   2.551 -0.0170 -0.2881  0.0493
 1153HK4    C4196843   2.288   8.566   2.533 -0.6394  0.2272 -0.3582
 1153HK4    H2196844   2.302   8.484   2.462 -1.1874 -0.3537  0.1997
 1153HK4    C4296845   2.181   8.551   2.620  0.0267 -0.6655  0.3245
 1153HK4    H2296846   2.102   8.484   2.583 -0.9917 -0.5940  2.3065
 1153HK4    C4396847   2.141   8.643   2.716  0.5163 -0.8118  0.6711
 1153HK4    H2396848   2.072   8.613   2.794  0.6383 -0.9120  0.7391
 1153HK4    C4496849   2.222   8.755   2.733 -0.2889 -0.0531 -0.3594
 1153HK4    H2496850   2.212   8.827   2.815  1.8789 -1.1471  0.9096
 1153HK4    C4596851   2.333   8.772   2.650 -0.1960 -0.0574 -0.2353
 1153HK4    H2596852   2.397   8.861   2.649 -1.8247  1.1630  0.2751
 1154HK4    H2896853   8.296  10.784   0.460  0.2552  0.4829 -0.4267
 1154HK4    C4896854   8.361  10.791   0.547  0.1969 -0.1320 -0.3365
 1154HK4    C4796855   8.340  10.899   0.632 -0.3058 -0.4246 -0.0842
 1154HK4    H2796856   8.241  10.949   0.626 -0.4310 -0.7739 -1.0090
 1154HK4    C4696857   8.447  10.935   0.712 -0.2340 -0.2386 -0.2593
 1154HK4    H2696858   8.437  11.006   0.795 -2.9020 -3.5271  2.3752
 1154HK4    C4096859   8.574  10.873   0.708  0.0727  0.3718  0.0598
 1154HK4    C5096860   8.589  10.766   0.618  0.1289  0.1487  0.3330
 1154HK4    H3096861   8.684  10.714   0.600 -0.7702 -1.0156 -1.1288
 1154HK4    C4996862   8.482  10.723   0.541  0.5129  0.4267 -0.3681
 1154HK4    H2996863   8.500  10.643   0.468 -0.0364  0.9389 -1.0698
 1154HK4     N296864   8.686  10.947   0.747 -0.1731  0.3094  0.9042
 1154HK4    C3096865   8.701  11.086   0.725  0.0851  0.0723 -0.4433
 1154HK4    C2996866   8.669  11.155   0.609  0.0373 -0.0710 -0.5167
 1154HK4    H1596867   8.642  11.104   0.516 -2.5973 -1.6132  1.0446
 1154HK4    C2896868   8.687   0.044   0.587 -0.3412  0.0454 -0.0920
 1154HK4    C2796869   8.755   0.103   0.695 -0.8108  0.0207  0.2187
 1154HK4    H1496870   8.798   0.203   0.677  0.0737 -0.3066  0.4603
 1154HK4    C3296871   8.800   0.040   0.810  0.1741 -0.0735 -0.2135
 1154HK4    H1696872   8.842   0.102   0.890 -0.4096  0.3844 -0.2583
 1154HK4    C3196873   8.776  11.153   0.829 -0.2121 -0.0014 -0.1849
 1154HK4    C3496874   8.816  11.048   0.921  0.3985  0.4908  0.1097
 1154HK4    C3396875   8.763  10.926   0.863  0.3797  0.2982  0.5409
 1154HK4    C3596876   8.809  10.802   0.905 -0.0140 -0.1351 -0.3175
 1154HK4    H1796877   8.763  10.707   0.874  1.7342 -0.5796 -1.6101
 1154HK4    C3696878   8.907  10.794   1.003 -0.5809 -0.3981  0.2362
 1154HK4    H1896879   8.967  10.704   1.021 -1.1449 -0.1319  3.7846
 1154HK4    C3796880   8.955  10.909   1.065 -0.4408 -0.3857  0.1003
 1154HK4    H1996881   9.025  10.904   1.148  0.2252  0.1783 -0.4082
 1154HK4    C3896882   8.910  11.034   1.022 -0.0612 -0.1291  0.4518
 1154HK4    H2096883   8.935  11.121   1.083 -2.1519  1.5423 -1.0271
 1154HK4    C1496884   8.586   0.125   0.518  0.2718  0.6905 -0.2294
 1154HK4     C996885   8.550   0.103   0.385 -0.5799  0.1397  0.0880
 1154HK4     C896886   8.417   0.130   0.345 -0.5271 -0.1141 -0.2637
 1154HK4    C1196887   8.336   0.200   0.433  0.2936 -0.0322  0.4456
 1154HK4     H496888   8.240   0.235   0.390  0.8730  0.1933 -0.6871
 1154HK4    C1296889   8.371   0.239   0.561 -0.0408  0.3816  0.4126
 1154HK4     H596890   8.312   0.312   0.619  1.2849  0.2393  1.9974
 1154HK4    C1396891   8.499   0.200   0.599  0.0461  0.2221 -0.0365
 1154HK4     H696892   8.544   0.243   0.690  0.9612 -1.0763  0.1218
 1154HK4     C796893   8.377   0.106   0.205 -0.0379  0.0487 -0.4334
 1154HK4     O296894   8.256   0.108   0.183 -0.1006 -0.2504 -0.1196
 1154HK4     C496895   8.482   0.080   0.104  0.6164  0.6754  0.0805
 1154HK4     C396896   8.434   0.070  11.222 -0.1040  0.6999  0.3397
 1154HK4     H396897   8.343   0.120  11.185 -1.4457 -0.6864  1.6873
 1154HK4     C296898   8.517   0.031  11.118  0.2134 -1.0021  1.2178
 1154HK4     H296899   8.482   0.009  11.016  0.3171  0.8581  0.7479
 1154HK4     C196900   8.648  11.247  11.153  0.8465 -0.1237 -0.2828
 1154HK4     H196901   8.713  11.204  11.076  1.9460  0.7828  0.1291
 1154HK4     C696902   8.699   0.008   0.036  0.0354 -0.0289  0.0290
 1154HK4     C596903   8.618   0.060   0.137  0.5510  0.4374  0.2061
 1154HK4    C1096904   8.654   0.076   0.281 -0.2583 -0.1164  0.4743
 1154HK4     O196905   8.770   0.101   0.313 -0.0638  0.4056 -0.6104
 1154HK4    C1696906   8.840  11.214   0.043 -0.0343 -0.3127 -0.2765
 1154HK4    C1596907   8.929  11.236  11.184 -0.3589 -0.6132 -0.6121
 1154HK4     H796908   8.898   0.058  11.106 -1.1524  0.2245  0.4475
 1154HK4    C2096909   9.059  11.186  11.187 -0.1324  0.0321  0.2583
 1154HK4     H996910   9.137  11.243  11.136  0.3185 -1.0656 -0.2918
 1154HK4    C1996911   9.095  11.088   0.031 -0.0859 -0.1765  0.0157
 1154HK4    C1896912   9.000  11.054   0.135  0.0112 -0.1719  0.1047
 1154HK4    C1796913   8.880  11.124   0.141  0.5701  0.7763  0.4870
 1154HK4     H896914   8.830  11.109   0.236 -1.6455 -1.6520 -0.9761
 1154HK4     N196915   9.044  10.955   0.226 -0.3961 -0.5601 -0.1222
 1154HK4    C2196916   9.171  10.921   0.176  0.1308  0.5132  0.4616
 1154HK4    C2296917   9.204  10.995   0.055  0.3010  0.3813  0.4271
 1154HK4    C2696918   9.337  11.006   0.017  0.1973 -0.4631 -0.1876
 1154HK4    H1396919   9.362  11.048  11.167 -0.3656  1.3792  0.4227
 1154HK4    C2596920   9.443  10.955   0.090  0.4208  0.2153 -0.0314
 1154HK4    H1296921   9.545  10.990   0.079  0.7385 -0.2039  1.4989
 1154HK4    C2496922   9.411  10.879   0.202 -0.6052  0.0385 -0.4361
 1154HK4    H1196923   9.492  10.850   0.271 -0.2828 -1.6640 -1.5134
 1154HK4    C2396924   9.279  10.863   0.242 -0.2312  0.5070  1.0421
 1154HK4    H1096925   9.259  10.792   0.322  1.9983  0.2346  1.3736
 1154HK4    C3996926   9.005  10.946   0.360 -0.5080  0.1277 -0.1036
 1154HK4    C4196927   9.003  10.820   0.423  0.1629  0.2030  0.0693
 1154HK4    H2196928   9.010  10.723   0.371  1.4443 -0.1887  0.9249
 1154HK4    C4296929   8.995  10.811   0.562 -0.5021  0.1309  0.0256
 1154HK4    H2296930   8.933  10.734   0.610  0.6666  0.7623  2.5924
 1154HK4    C4396931   9.014  10.924   0.640 -0.3148  0.1242 -0.0085
 1154HK4    H2396932   9.044  10.907   0.743 -0.6241  3.0185  0.6259
 1154HK4    C4496933   9.031  11.049   0.580  0.2101  0.0027 -0.1139
 1154HK4    H2496934   9.011  11.138   0.641 -0.5887 -0.5340  0.4232
 1154HK4    C4596935   9.025  11.059   0.441  0.0633  0.0289 -0.1059
 1154HK4    H2596936   8.990  11.156   0.402 -3.7554 -0.3982  2.0135
 1155HK4    H2896937   8.633   5.898   2.233 -0.3188 -0.5661  0.6359
 1155HK4    C4896938   8.728   5.844   2.240 -0.0587 -0.2137 -0.1712
 1155HK4    C4796939   8.814   5.837   2.131 -0.7418 -0.4103 -0.7011
 1155HK4    H2796940   8.789   5.874   2.031  2.8932  0.9005 -1.1945
 1155HK4    C4696941   8.932   5.766   2.150 -0.7003 -0.0234  0.5259
 1155HK4    H2696942   9.005   5.755   2.068 -0.5889  1.3792  0.4284
 1155HK4    C4096943   8.984   5.714   2.270  0.1295  0.4233  0.3656
 1155HK4    C5096944   8.894   5.729   2.377 -0.0930 -0.2463  0.2784
 1155HK4    H3096945   8.905   5.679   2.474 -0.1763 -0.3730  0.2234
 1155HK4    C4996946   8.769   5.787   2.359 -0.1090 -0.4447 -0.2640
 1155HK4    H2996947   8.697   5.784   2.443  0.3812  2.1734  0.2989
 1155HK4     N296948   9.121   5.702   2.297  0.2477 -0.4242 -0.5606
 1155HK4    C3096949   9.227   5.774   2.238  0.2024  0.5368  0.5251
 1155HK4    C2996950   9.228   5.885   2.153 -0.1187 -0.1782 -0.4169
 1155HK4    H1596951   9.144   5.954   2.146  2.2625  3.1612  2.3891
 1155HK4    C2896952   9.347   5.944   2.114 -0.0068  0.0809  0.3010
 1155HK4    C2796953   9.464   5.885   2.168 -0.1963 -0.0164  0.6048
 1155HK4    H1496954   9.560   5.929   2.139 -0.5878  0.6354  0.2907
 1155HK4    C3296955   9.469   5.772   2.249  0.0640 -0.2996  0.1970
 1155HK4    H1696956   9.567   5.726   2.255  0.5218  1.0119  3.3899
 1155HK4    C3196957   9.349   5.714   2.289 -0.0134  0.0572  0.4806
 1155HK4    C3496958   9.321   5.605   2.381  0.0097 -0.2479  0.1268
 1155HK4    C3396959   9.176   5.601   2.378  0.0098 -0.2052 -0.1253
 1155HK4    C3596960   9.105   5.498   2.439 -0.2025 -0.0522 -0.1161
 1155HK4    H1796961   8.997   5.489   2.446 -0.3923  0.7208 -1.7528
 1155HK4    C3696962   9.185   5.399   2.495 -0.0422 -0.1536 -0.5174
 1155HK4    H1896963   9.138   5.311   2.540 -3.3016  1.3882 -0.7688
 1155HK4    C3796964   9.324   5.405   2.495 -0.0516  0.1997  0.3320
 1155HK4    H1996965   9.381   5.321   2.535 -0.6420  0.6733  2.2282
 1155HK4    C3896966   9.400   5.505   2.437  0.1916 -0.2332 -0.1020
 1155HK4    H2096967   9.504   5.498   2.407  0.6788 -2.3231  2.0140
 1155HK4    C1496968   9.354   6.031   1.996 -0.3085 -0.4806 -0.1295
 1155HK4     C996969   9.466   6.040   1.912 -0.3195  0.2886 -0.0572
 1155HK4     C896970   9.524   6.166   1.884 -0.0360 -0.0062 -0.8137
 1155HK4    C1196971   9.446   6.278   1.914  0.3366 -0.1053  0.5634
 1155HK4     H496972   9.483   6.379   1.891  0.8675 -0.5547 -0.6162
 1155HK4    C1296973   9.321   6.272   1.973  0.0270  0.0315 -0.0617
 1155HK4     H596974   9.285   6.367   2.015 -0.1700  1.4757 -3.3439
 1155HK4    C1396975   9.275   6.146   2.012  0.0965 -0.1422 -0.5428
 1155HK4     H696976   9.174   6.138   2.055 -0.4992  2.2921 -1.3820
 1155HK4     C796977   9.653   6.180   1.814  0.0982  0.1351 -0.5380
 1155HK4     O296978   9.719   6.284   1.818  0.1422  0.0791  0.2845
 1155HK4     C496979   9.718   6.058   1.762  0.2324 -0.0638  0.0923
 1155HK4     C396980   9.839   6.070   1.694  0.2642 -0.2687  0.1129
 1155HK4     H396981   9.881   6.167   1.666 -0.4654 -0.6915 -2.5517
 1155HK4     C296982   9.926   5.962   1.686  0.8636  0.1708  0.5978
 1155HK4     H296983  10.009   5.975   1.615 -0.6425  1.3668 -1.0141
 1155HK4     C196984   9.895   5.846   1.756  0.4750  0.1916  0.4616
 1155HK4     H196985   9.970   5.767   1.770  1.6536  0.5979 -3.0379
 1155HK4     C696986   9.776   5.833   1.831  0.2751  0.6242  0.2209
 1155HK4     C596987   9.679   5.932   1.813 -0.2382  0.1157  0.1758
 1155HK4    C1096988   9.539   5.920   1.862 -0.3561  0.2928 -0.1163
 1155HK4     O196989   9.466   5.831   1.817 -0.3891  0.1995  0.1242
 1155HK4    C1696990   9.782   5.750   1.952 -0.2466  0.5441  0.1928
 1155HK4    C1596991   9.909   5.732   2.012 -0.2729 -0.0890  0.0577
 1155HK4     H796992   9.983   5.812   2.004 -1.7020  1.5400  2.3537
 1155HK4    C2096993   9.937   5.625   2.096  0.1911 -0.2330 -0.2775
 1155HK4     H996994  10.034   5.630   2.146 -0.2437 -1.5519  0.7428
 1155HK4    C1996995   9.834   5.534   2.115 -0.3454  0.5101  0.4049
 1155HK4    C1896996   9.705   5.545   2.050 -0.3796  0.0804  0.4023
 1155HK4    C1796997   9.684   5.653   1.966  0.3270 -0.0605  0.0470
 1155HK4     H896998   9.605   5.647   1.890  0.7765 -2.4715 -0.2608
 1155HK4     N196999   9.616   5.448   2.103  0.0728 -0.2296  0.5977
 1155HK4    C2197000   9.693   5.368   2.189  0.1922 -0.2912  0.4312
 1155HK4    C2297001   9.828   5.419   2.203  0.1600 -0.0150 -0.2502
 1155HK4    C2697002   9.910   5.349   2.291  0.0448 -0.1734 -0.2669
 1155HK4    H1397003  10.017   5.370   2.296 -0.0653  0.9266 -2.0809
 1155HK4    C2597004   9.864   5.241   2.365 -0.2639 -0.0020 -0.2074
 1155HK4    H1297005   9.932   5.179   2.424 -1.7571 -0.2682  1.2730
 1155HK4    C2497006   9.731   5.202   2.357 -0.1501 -0.3628 -0.3721
 1155HK4    H1197007   9.702   5.105   2.400 -0.7798 -0.7028 -1.5508
 1155HK4    C2397008   9.644   5.267   2.271 -0.5748 -0.0108  0.3192
 1155HK4    H1097009   9.543   5.226   2.261 -0.7483  0.5737 -0.3534
 1155HK4    C3997010   9.505   5.399   2.033  0.2799  0.0752  0.0474
 1155HK4    C4197011   9.498   5.396   1.892  0.1683 -0.6803  0.0661
 1155HK4    H2197012   9.590   5.376   1.834 -0.7786 -1.6954 -1.0892
 1155HK4    C4297013   9.380   5.402   1.820 -0.0642 -0.0074  0.4934
 1155HK4    H2297014   9.381   5.414   1.711  0.0254 -1.2058  0.3581
 1155HK4    C4397015   9.263   5.396   1.895 -0.5058 -0.1202 -0.1976
 1155HK4    H2397016   9.169   5.395   1.839 -0.5430  1.1851 -0.1796
 1155HK4    C4497017   9.261   5.384   2.033  0.3162 -0.7532 -0.2437
 1155HK4    H2497018   9.166   5.377   2.088  1.4732 -0.0144  1.9027
 1155HK4    C4597019   9.382   5.393   2.102  0.1831  0.0790 -0.1205
 1155HK4    H2597020   9.387   5.417   2.209  1.6609  0.0985 -0.1807
 1156HK4    H2897021   0.812   8.406   9.657 -0.0940 -0.6874  1.2854
 1156HK4    C4897022   0.861   8.493   9.702  0.2233 -0.4723  0.5359
 1156HK4    C4797023   0.960   8.547   9.623 -0.3417  0.0030  0.1518
 1156HK4    H2797024   0.963   8.540   9.513  0.0655  2.2483 -0.0181
 1156HK4    C4697025   1.042   8.646   9.677 -0.1192  0.0398 -0.2503
 1156HK4    H2697026   1.107   8.695   9.603 -0.3383 -1.4270 -1.4208
 1156HK4    C4097027   1.038   8.680   9.814  0.1312  0.4302 -0.3364
 1156HK4    C5097028   0.943   8.616   9.897  0.2296  0.0414 -0.5258
 1156HK4    H3097029   0.946   8.616  10.007 -0.9087 -0.9755 -0.4799
 1156HK4    C4997030   0.849   8.534   9.835 -0.4170  0.1657  0.2823
 1156HK4    H2997031   0.776   8.472   9.889 -0.2161 -1.0783 -0.8537
 1156HK4     N297032   1.136   8.766   9.866  0.1985  0.1802 -0.0420
 1156HK4    C3097033   1.259   8.789   9.801  0.1834  0.3642 -0.0033
 1156HK4    C2997034   1.338   8.707   9.721  0.2010  0.2625  0.1162
 1156HK4    H1597035   1.294   8.611   9.693  2.6678 -1.2210  1.1496
 1156HK4    C2897036   1.464   8.740   9.673  0.2133 -0.0755 -0.0791
 1156HK4    C2797037   1.516   8.864   9.715 -0.8486  0.5456 -0.5761
 1156HK4    H1497038   1.610   8.901   9.671  0.0512  0.6305  1.3659
 1156HK4    C3297039   1.443   8.943   9.803 -0.2371  0.7175 -0.2199
 1156HK4    H1697040   1.483   9.037   9.841 -1.3872  1.2836 -0.3868
 1156HK4    C3197041   1.320   8.907   9.858 -0.2028  0.6532 -0.1852
 1156HK4    C3497042   1.224   8.960   9.952 -0.2058  0.4250 -0.0605
 1156HK4    C3397043   1.112   8.868   9.960  0.2448 -0.0933  0.2662
 1156HK4    C3597044   1.000   8.906  10.033  0.1881  0.3820 -0.0723
 1156HK4    H1797045   0.914   8.840  10.043 -0.1542  0.7574 -0.5405
 1156HK4    C3697046   0.998   9.019  10.114 -0.8386  0.2561  0.0906
 1156HK4    H1897047   0.902   9.027  10.167  0.1269  1.5607  1.6978
 1156HK4    C3797048   1.109   9.103  10.111 -0.5811 -0.1112 -0.5949
 1156HK4    H1997049   1.125   9.196  10.165 -1.0058 -0.4393  0.1064
 1156HK4    C3897050   1.215   9.078  10.024  0.2788  0.1989  0.3652
 1156HK4    H2097051   1.302   9.144  10.028  0.5945 -0.0255 -2.2764
 1156HK4    C1497052   1.551   8.642   9.604  0.0882  0.0912 -0.4735
 1156HK4     C997053   1.686   8.632   9.638  0.0152  0.4130 -0.0876
 1156HK4     C897054   1.773   8.573   9.545  0.1347  0.1735  0.1773
 1156HK4    C1197055   1.722   8.521   9.427  0.0691  0.4613  0.0769
 1156HK4     H497056   1.791   8.471   9.357 -0.1285  0.2687  0.0199
 1156HK4    C1297057   1.588   8.533   9.392  0.2285  0.4756 -0.5346
 1156HK4     H597058   1.550   8.462   9.317 -0.2847  0.2181 -0.0312
 1156HK4    C1397059   1.501   8.594   9.481  0.1380  0.5501 -0.6754
 1156HK4     H697060   1.393   8.601   9.463  0.2960  0.2511 -1.7820
 1156HK4     C797061   1.912   8.534   9.581  0.1510 -0.0009 -0.0760
 1156HK4     O297062   1.997   8.500   9.499  0.3132  0.4587 -0.0933
 1156HK4     C497063   1.962   8.561   9.718 -0.1282 -0.8601  0.2043
 1156HK4     C397064   2.086   8.520   9.762  0.3924  0.2156 -0.2334
 1156HK4     H397065   2.141   8.442   9.706  3.6596  2.2860 -0.0687
 1156HK4     C297066   2.139   8.561   9.884  0.6501  0.6892 -0.5041
 1156HK4     H297067   2.245   8.547   9.908  0.2581 -0.2553  0.7839
 1156HK4     C197068   2.062   8.648   9.961  0.0528  0.0915 -0.4162
 1156HK4     H197069   2.111   8.708  10.039 -0.7651 -1.6162  1.4468
 1156HK4     C697070   1.930   8.683   9.925 -0.0572 -0.0356 -0.1460
 1156HK4     C597071   1.877   8.629   9.807 -0.0155 -0.5332  0.0613
 1156HK4    C1097072   1.731   8.641   9.780 -0.0325 -0.8344  0.0137
 1156HK4     O197073   1.660   8.619   9.879 -0.1595  0.0785  0.1384
 1156HK4    C1697074   1.887   8.805   9.994 -0.1646 -0.0993 -0.1047
 1156HK4    C1597075   1.795   8.890   9.929  0.4952  0.6311 -0.0978
 1156HK4     H797076   1.773   8.891   9.821  2.9883  1.8080 -0.6224
 1156HK4    C2097077   1.735   8.996   9.997  0.5611  0.3952  0.3262
 1156HK4     H997078   1.714   9.085   9.937  0.9598  0.6898  0.6259
 1156HK4    C1997079   1.737   9.002  10.136  0.1201  0.2469  0.3398
 1156HK4    C1897080   1.837   8.921  10.202 -0.1892 -0.5256 -0.1270
 1156HK4    C1797081   1.909   8.827  10.129  0.4486  0.0397 -0.2250
 1156HK4     H897082   1.973   8.759  10.185 -1.4567 -1.0798  0.6376
 1156HK4     N197083   1.817   8.926  10.342  0.2924  0.2723 -0.0780
 1156HK4    C2197084   1.701   9.004  10.362 -0.3729 -0.7112 -0.0220
 1156HK4    C2297085   1.656   9.065  10.238 -0.1622  0.0172  0.2592
 1156HK4    C2697086   1.542   9.145  10.232  0.3303  0.6979 -0.0555
 1156HK4    H1397087   1.530   9.205  10.142 -2.4149  0.4853  0.1346
 1156HK4    C2597088   1.463   9.166  10.344 -0.0664 -0.0690 -0.1874
 1156HK4    H1297089   1.379   9.236  10.343  1.1411  1.4181 -0.9775
 1156HK4    C2497090   1.499   9.095  10.457 -0.3358  0.0110 -0.0480
 1156HK4    H1197091   1.427   9.097  10.540  0.0585 -0.9090  0.3218
 1156HK4    C2397092   1.615   9.018  10.470  0.0117  0.5593  0.1299
 1156HK4    H1097093   1.656   9.009  10.570  0.1734 -0.6360 -0.0416
 1156HK4    C3997094   1.923   8.902  10.430  0.0328 -0.3906  0.0547
 1156HK4    C4197095   1.900   8.850  10.559  0.0533 -0.1505  0.1568
 1156HK4    H2197096   1.811   8.792  10.587 -0.2437  0.6040  0.8092
 1156HK4    C4297097   2.012   8.839  10.641  0.1448 -0.8559 -0.0576
 1156HK4    H2297098   2.001   8.814  10.748  0.5475  0.8727  0.4018
 1156HK4    C4397099   2.138   8.886  10.606 -0.0681 -0.7361 -0.6612
 1156HK4    H2397100   2.223   8.867  10.671 -0.7660  0.3598  0.5794
 1156HK4    C4497101   2.163   8.937  10.479  0.3311 -0.0205 -0.2991
 1156HK4    H2497102   2.252   8.999  10.460 -0.7655  1.4658 -0.6710
 1156HK4    C4597103   2.052   8.947  10.396 -0.0886  0.1298  0.2802
 1156HK4    H2597104   2.075   8.999  10.302 -0.6158 -0.8361 -0.3946
 1157HK4    H2897105   3.418   5.147   8.112 -0.1269  0.7706  0.8164
 1157HK4    C4897106   3.407   5.039   8.111  0.1411  0.7495  0.1488
 1157HK4    C4797107   3.313   4.982   8.196 -0.0797  0.1390 -0.4945
 1157HK4    H2797108   3.270   5.047   8.275  1.7829  2.1841 -1.0995
 1157HK4    C4697109   3.284   4.847   8.188  0.1624  0.0191  0.5706
 1157HK4    H2697110   3.189   4.805   8.226  0.9898 -1.7489  0.7276
 1157HK4    C4097111   3.360   4.758   8.110  0.3737 -0.1975  1.0219
 1157HK4    C5097112   3.452   4.823   8.025 -0.6728  0.0360  0.0488
 1157HK4    H3097113   3.517   4.764   7.958 -0.7757  0.3217 -0.3026
 1157HK4    C4997114   3.473   4.960   8.017 -0.3190  0.0048  0.4432
 1157HK4    H2997115   3.553   4.998   7.952  1.1717 -0.5806  1.8839
 1157HK4     N297116   3.354   4.621   8.137 -0.5771 -0.3785 -0.0635
 1157HK4    C3097117   3.338   4.558   8.262  0.3152 -0.2338  0.1289
 1157HK4    C2997118   3.384   4.604   8.385 -0.2354 -0.0268  0.2581
 1157HK4    H1597119   3.407   4.709   8.401 -2.1292  0.3261  0.8330
 1157HK4    C2897120   3.386   4.518   8.494  0.0285 -0.3391  0.0082
 1157HK4    C2797121   3.343   4.384   8.480 -0.0585 -0.3173  0.0659
 1157HK4    H1497122   3.307   4.333   8.571  0.1958 -1.4251 -0.4500
 1157HK4    C3297123   3.306   4.335   8.356 -0.5229 -0.5120  0.2800
 1157HK4    H1697124   3.261   4.236   8.348  0.1149 -0.6407 -1.9945
 1157HK4    C3197125   3.297   4.420   8.246 -0.0664 -0.1652  0.5109
 1157HK4    C3497126   3.289   4.400   8.103  0.2011  0.4520  0.4031
 1157HK4    C3397127   3.338   4.520   8.039  0.0822 -0.0031 -0.5682
 1157HK4    C3597128   3.357   4.519   7.902  1.5694 -0.2175 -0.3680
 1157HK4    H1797129   3.363   4.611   7.843  3.7346 -0.2212 -0.1925
 1157HK4    C3697130   3.331   4.408   7.823  1.1377 -0.2097 -0.2369
 1157HK4    H1897131   3.339   4.415   7.713 -0.7177  1.0026 -0.3187
 1157HK4    C3797132   3.280   4.293   7.881  0.1223  0.4496  0.1855
 1157HK4    H1997133   3.231   4.218   7.818  3.1806  1.3970 -3.4632
 1157HK4    C3897134   3.259   4.293   8.018  0.5030  0.4927  0.2440
 1157HK4    H2097135   3.207   4.214   8.072 -2.6839  1.9599 -0.5595
 1157HK4    C1497136   3.470   4.552   8.609 -0.1411 -0.0121  0.0384
 1157HK4     C997137   3.544   4.461   8.685  0.4594  0.0366 -0.4879
 1157HK4     C897138   3.574   4.493   8.819 -0.1586 -0.1228 -0.3118
 1157HK4    C1197139   3.558   4.624   8.864 -0.7748 -0.3131  0.0341
 1157HK4     H497140   3.626   4.666   8.940 -0.5587  2.0383 -1.4370
 1157HK4    C1297141   3.491   4.716   8.786  0.2045  0.1254 -0.2957
 1157HK4     H597142   3.492   4.823   8.815 -1.4079  0.3321 -0.9668
 1157HK4    C1397143   3.444   4.681   8.660 -0.2266  0.0285 -0.1074
 1157HK4     H697144   3.363   4.743   8.617 -0.9147  0.1339  1.3261
 1157HK4     C797145   3.615   4.380   8.906  0.7929  0.3740 -0.1077
 1157HK4     O297146   3.655   4.408   9.018  0.1497  0.0840  0.1933
 1157HK4     C497147   3.634   4.242   8.855 -1.1028  0.0337  0.0919
 1157HK4     C397148   3.662   4.139   8.942  0.3627  0.4857  0.1639
 1157HK4     H397149   3.658   4.161   9.050  1.8014 -0.4159  0.4220
 1157HK4     C297150   3.665   4.007   8.897 -0.0975  0.3586  0.4958
 1157HK4     H297151   3.698   3.922   8.958  2.1321  2.6424  2.6015
 1157HK4     C197152   3.647   3.986   8.761 -0.1990 -0.0938  0.5804
 1157HK4     H197153   3.669   3.889   8.713  1.3011  1.3268 -1.7002
 1157HK4     C697154   3.613   4.085   8.666  0.5018 -0.4660 -0.0658
 1157HK4     C597155   3.616   4.215   8.718 -0.0753 -0.5031  0.0622
 1157HK4    C1097156   3.599   4.334   8.629  0.0248 -0.4321  0.1398
 1157HK4     O197157   3.665   4.339   8.525  0.5879 -0.9284  0.4683
 1157HK4    C1697158   3.524   4.030   8.563  0.3574 -0.1482 -0.1101
 1157HK4    C1597159   3.423   3.935   8.588 -0.0139  0.2571 -0.0653
 1157HK4     H797160   3.406   3.906   8.693  2.2567  2.6386  1.0282
 1157HK4    C2097161   3.357   3.865   8.488  0.0654  0.8968 -0.5672
 1157HK4     H997162   3.267   3.809   8.512  1.0463  0.0033  1.1064
 1157HK4    C1997163   3.390   3.892   8.355  0.5201 -0.4262 -0.7337
 1157HK4    C1897164   3.493   3.989   8.325 -0.0255  0.3206 -0.2174
 1157HK4    C1797165   3.561   4.050   8.430  0.2554 -0.1277 -0.1342
 1157HK4     H897166   3.662   4.087   8.414 -0.0191  1.6268  1.9536
 1157HK4     N197167   3.501   4.008   8.185  0.1461 -0.1279 -0.2701
 1157HK4    C2197168   3.398   3.930   8.127 -0.4202  0.4244 -0.0123
 1157HK4    C2297169   3.335   3.848   8.229 -0.2528 -0.2570 -0.4604
 1157HK4    C2697170   3.232   3.761   8.193 -0.4471 -0.3025  0.1978
 1157HK4    H1397171   3.194   3.689   8.264 -0.2592  0.5299  1.1586
 1157HK4    C2597172   3.187   3.757   8.061  0.2534  0.4673 -0.0756
 1157HK4    H1297173   3.112   3.680   8.043 -0.5050  0.9443  0.9516
 1157HK4    C2497174   3.239   3.842   7.965  0.5099  0.2404 -0.1369
 1157HK4    H1197175   3.208   3.840   7.859  1.3431 -0.1862 -0.3784
 1157HK4    C2397176   3.348   3.923   7.998  0.1534  0.7740 -0.2591
 1157HK4    H1097177   3.394   3.980   7.917  0.2542  1.3741  0.2184
 1157HK4    C3997178   3.596   4.083   8.115  0.2959 -0.2115 -0.1514
 1157HK4    C4197179   3.626   4.056   7.980  0.0520 -0.2004 -0.2094
 1157HK4    H2197180   3.624   3.954   7.940  1.5248 -0.3191  0.0069
 1157HK4    C4297181   3.680   4.152   7.894 -1.0666  0.5606 -0.0753
 1157HK4    H2297182   3.709   4.130   7.790  0.5163 -2.8547  1.0017
 1157HK4    C4397183   3.714   4.278   7.941  0.5967  0.0734  0.0636
 1157HK4    H2397184   3.756   4.358   7.880  3.2627 -0.5733  0.9800
 1157HK4    C4497185   3.686   4.306   8.075  0.1405  0.3973 -0.1006
 1157HK4    H2497186   3.725   4.400   8.117 -1.8729  0.5581  1.4805
 1157HK4    C4597187   3.627   4.213   8.160 -0.7416  0.2739 -0.8392
 1157HK4    H2597188   3.597   4.250   8.259  3.8525  1.8647  0.0773
 1158HK4    H2897189   4.031   6.952  10.239 -2.1192 -0.6046  4.0391
 1158HK4    C4897190   4.118   6.894  10.269 -0.0259  0.2016 -0.1076
 1158HK4    C4797191   4.222   6.872  10.180  0.0906  0.4683 -0.0384
 1158HK4    H2797192   4.213   6.913  10.078 -4.2241 -0.9261 -0.3348
 1158HK4    C4697193   4.326   6.786  10.216 -0.2918  0.0638  0.1059
 1158HK4    H2697194   4.413   6.783  10.148 -0.1131 -0.0119  0.3402
 1158HK4    C4097195   4.326   6.729  10.345 -0.0334 -0.0805  0.0438
 1158HK4    C5097196   4.219   6.757  10.433  0.3190 -0.0063  0.4491
 1158HK4    H3097197   4.215   6.719  10.536  0.3429  2.3634  1.3471
 1158HK4    C4997198   4.118   6.846  10.400  0.7880  0.3434 -0.0490
 1158HK4    H2997199   4.025   6.858  10.457 -0.6340 -1.9194 -1.8077
 1158HK4     N297200   4.394   6.610  10.373  0.0008 -0.1846 -0.4660
 1158HK4    C3097201   4.424   6.516  10.272 -0.1039 -0.5229 -0.1827
 1158HK4    C2997202   4.353   6.474  10.160 -0.9131  0.0544  0.1095
 1158HK4    H1597203   4.248   6.501  10.155 -1.3187 -1.0866  1.9360
 1158HK4    C2897204   4.400   6.377  10.072 -0.5092 -0.0952  0.4848
 1158HK4    C2797205   4.525   6.319  10.103 -0.1684  0.3832  0.0018
 1158HK4    H1497206   4.576   6.262  10.024 -0.9550 -0.6874  0.2717
 1158HK4    C3297207   4.590   6.348  10.222  0.0533  0.3531 -0.1131
 1158HK4    H1697208   4.676   6.284  10.240 -2.0431 -2.1401  1.4599
 1158HK4    C3197209   4.541   6.441  10.314  0.6086  0.6234 -0.0869
 1158HK4    C3497210   4.572   6.485  10.448  0.1510  0.3793  0.0995
 1158HK4    C3397211   4.477   6.588  10.485  0.0029  0.4017 -0.3470
 1158HK4    C3597212   4.488   6.651  10.609  0.2009  0.2552 -0.2883
 1158HK4    H1797213   4.429   6.737  10.638 -0.5204  0.3320 -1.9281
 1158HK4    C3697214   4.593   6.618  10.694 -0.0346  0.0717 -0.0732
 1158HK4    H1897215   4.614   6.704  10.759 -2.3955 -0.9102  2.0983
 1158HK4    C3797216   4.689   6.526  10.654  0.3684  0.4447  0.0406
 1158HK4    H1997217   4.765   6.491  10.724 -1.8589 -0.7142  1.9445
 1158HK4    C3897218   4.678   6.458  10.534 -0.1464 -0.0144  0.3436
 1158HK4    H2097219   4.766   6.400  10.506  1.6049  1.4460  2.6144
 1158HK4    C1497220   4.298   6.315   9.988 -0.2752 -0.0199  0.1455
 1158HK4     C997221   4.289   6.180   9.952  0.2630 -0.0147 -0.0097
 1158HK4     C897222   4.242   6.135   9.827 -0.3272 -0.6413  0.4306
 1158HK4    C1197223   4.177   6.229   9.748  0.4807  0.1472  0.6901
 1158HK4     H497224   4.123   6.193   9.659 -0.3384  0.4108  1.0786
 1158HK4    C1297225   4.173   6.362   9.787  0.0278  0.3349  0.0021
 1158HK4     H597226   4.106   6.429   9.730 -1.1895  0.7000  1.8214
 1158HK4    C1397227   4.231   6.407   9.904 -0.6878 -0.0056  0.4906
 1158HK4     H697228   4.260   6.513   9.902  1.1638 -0.5144 -1.6309
 1158HK4     C797229   4.290   6.008   9.768 -0.0770 -0.1700 -0.3894
 1158HK4     O297230   4.210   5.939   9.704 -0.0611  0.1059 -0.7095
 1158HK4     C497231   4.392   5.934   9.846  0.2655  0.2641 -0.4273
 1158HK4     C397232   4.458   5.827   9.786 -0.4139 -0.2193 -0.3115
 1158HK4     H397233   4.435   5.804   9.681 -1.7459 -0.2694 -0.0194
 1158HK4     C297234   4.561   5.763   9.854  0.0188  0.3463 -0.4347
 1158HK4     H297235   4.607   5.684   9.794  2.0828  1.0470  0.2040
 1158HK4     C197236   4.602   5.803   9.980 -0.4039 -0.0285 -0.1750
 1158HK4     H197237   4.677   5.742  10.033  0.5572  0.9001 -0.4413
 1158HK4     C697238   4.537   5.908  10.048  0.0452  0.0918  0.0715
 1158HK4     C597239   4.430   5.965   9.978  0.3279  0.0510 -0.3954
 1158HK4    C1097240   4.354   6.078  10.039  0.5993  0.0944 -0.1353
 1158HK4     O197241   4.297   6.057  10.146  0.0588  0.4195 -0.3596
 1158HK4    C1697242   4.610   5.972  10.159  0.1437 -0.8313  0.5443
 1158HK4    C1597243   4.751   5.970  10.156  0.1582  0.2531  0.2806
 1158HK4     H797244   4.797   5.969  10.056 -1.7172  0.3754 -0.6197
 1158HK4    C2097245   4.832   5.990  10.266  0.5879  0.6703 -0.1094
 1158HK4     H997246   4.939   6.010  10.253 -0.0292  2.6003 -2.4402
 1158HK4    C1997247   4.765   6.021  10.384  0.0784 -0.2532 -0.1508
 1158HK4    C1897248   4.621   6.029  10.395  0.0887 -0.1580 -0.1030
 1158HK4    C1797249   4.549   5.991  10.282 -0.4976  0.5206  0.0341
 1158HK4     H897250   4.445   5.970  10.304 -0.7333  0.4891 -1.1381
 1158HK4     N197251   4.580   6.059  10.527  0.0326 -0.0038 -0.1524
 1158HK4    C2197252   4.701   6.075  10.599  0.0341 -0.0402 -0.1495
 1158HK4    C2297253   4.816   6.039  10.518  0.0620  0.1825 -0.2079
 1158HK4    C2697254   4.941   6.017  10.574  0.2634  0.4592 -0.5451
 1158HK4    H1397255   5.025   5.991  10.510  1.8440 -0.4175  1.7981
 1158HK4    C2597256   4.961   6.038  10.710  0.3544 -0.2666 -0.4377
 1158HK4    H1297257   5.062   6.036  10.749 -0.8542  0.5978  2.9649
 1158HK4    C2497258   4.852   6.078  10.788  0.1577 -0.8884 -0.3959
 1158HK4    H1197259   4.886   6.120  10.884 -0.8513 -1.1886  0.0988
 1158HK4    C2397260   4.726   6.098  10.734  0.1519 -0.2307 -0.1360
 1158HK4    H1097261   4.640   6.138  10.788 -0.2077  1.5025 -1.9181
 1158HK4    C3997262   4.452   6.102  10.565  0.1567  0.3317 -0.1186
 1158HK4    C4197263   4.407   6.070  10.695 -0.1257  0.1198 -0.2682
 1158HK4    H2197264   4.468   6.007  10.761 -0.6135  1.6466  1.7059
 1158HK4    C4297265   4.286   6.123  10.738 -0.2624 -0.1659 -0.3022
 1158HK4    H2297266   4.260   6.129  10.845 -0.3366  2.1013 -0.4207
 1158HK4    C4397267   4.201   6.192  10.653 -0.1919  0.9511  0.5250
 1158HK4    H2397268   4.106   6.230  10.691 -0.4973  0.2492  0.4705
 1158HK4    C4497269   4.240   6.213  10.521  0.0391  0.9505  0.5944
 1158HK4    H2497270   4.172   6.259  10.448 -1.2332 -1.1049  0.4508
 1158HK4    C4597271   4.366   6.171  10.479 -0.2125  0.4426  0.3386
 1158HK4    H2597272   4.419   6.214  10.393  0.1363 -0.3880  0.1395
 1159HK4    H2897273  10.578   1.705   4.467 -1.5023 -0.3372  1.5811
 1159HK4    C4897274  10.647   1.705   4.551  0.3066  0.0568  0.1255
 1159HK4    C4797275  10.638   1.630   4.667 -0.0621  1.4575  1.0177
 1159HK4    H2797276  10.540   1.585   4.690 -0.2711  1.0479 -0.6210
 1159HK4    C4697277  10.748   1.606   4.748  0.2561 -0.6655 -0.0023
 1159HK4    H2697278  10.728   1.559   4.845  0.3003 -2.8086 -1.0191
 1159HK4    C4097279  10.877   1.657   4.722 -0.0698  0.0031 -0.3404
 1159HK4    C5097280  10.880   1.744   4.611 -0.4413  0.3566 -0.0732
 1159HK4    H3097281  10.978   1.781   4.577 -1.5476  2.1431 -1.3971
 1159HK4    C4997282  10.768   1.771   4.533 -0.1975  0.8992 -0.2357
 1159HK4    H2997283  10.774   1.835   4.444 -1.1068 -2.5880 -2.9352
 1159HK4     N297284  10.993   1.606   4.783 -0.0901  0.1575 -0.1719
 1159HK4    C3097285  11.001   1.478   4.842 -0.2565 -0.1314 -0.7782
 1159HK4    C2997286  10.937   1.364   4.796  0.2994 -0.7510 -0.0236
 1159HK4    H1597287  10.882   1.377   4.702  1.6289  2.8312 -0.3669
 1159HK4    C2897288  10.963   1.244   4.861  0.2617 -0.9058 -0.2893
 1159HK4    C2797289  11.043   1.244   4.977 -0.2077 -0.1507  0.0378
 1159HK4    H1497290  11.053   1.153   5.039 -0.5413  0.3760  0.8710
 1159HK4    C3297291  11.113   1.359   5.013 -0.1037  0.0598 -0.8333
 1159HK4    H1697292  11.183   1.358   5.096  0.0731  1.1644 -0.9662
 1159HK4    C3197293  11.098   1.482   4.949 -0.4428  0.1333 -0.6166
 1159HK4    C3497294  11.167   1.609   4.941 -0.6683  0.3303  0.4068
 1159HK4    C3397295  11.093   1.685   4.842 -0.3291  0.2619  0.0966
 1159HK4    C3597296  11.135   1.812   4.801 -0.4689  0.2566 -0.0580
 1159HK4    H1797297  11.093   1.871   4.720  2.1353 -1.1839 -2.5044
 1159HK4    C3697298   0.002   1.854   4.867 -0.2444 -0.4444  0.0104
 1159HK4    H1897299   0.051   1.946   4.833  1.9289 -1.3017  0.7500
 1159HK4    C3797300   0.070   1.786   4.967 -0.1727  0.3944  0.5347
 1159HK4    H1997301   0.168   1.823   5.000  0.5409  0.6992 -1.8106
 1159HK4    C3897302   0.031   1.659   5.006 -0.0382  0.0451 -0.4425
 1159HK4    H2097303   0.064   1.616   5.101  2.5439  1.4566 -0.6482
 1159HK4    C1497304  10.882   1.127   4.825 -0.6780 -0.1891 -0.5356
 1159HK4     C997305  10.839   1.029   4.916 -0.1766 -0.0761 -0.1791
 1159HK4     C897306  10.848   0.891   4.888 -0.2447 -0.1228  0.0227
 1159HK4    C1197307  10.881   0.849   4.759 -0.7728 -0.2167 -0.0834
 1159HK4     H497308  10.863   0.744   4.732  1.9955 -1.4190  2.3950
 1159HK4    C1297309  10.912   0.946   4.665 -0.3353  0.1861  0.4713
 1159HK4     H597310  10.907   0.921   4.558 -0.8842  3.1480 -0.2556
 1159HK4    C1397311  10.914   1.082   4.696  0.4167  0.3965 -0.4762
 1159HK4     H697312  10.918   1.158   4.617  0.9785  0.0643 -0.7713
 1159HK4     C797313  10.809   0.794   4.992  0.3134 -0.2025  0.1612
 1159HK4     O297314  10.844   0.677   4.981 -0.1158 -0.3566  0.3942
 1159HK4     C497315  10.729   0.837   5.108  0.3863  0.1334  0.0865
 1159HK4     C397316  10.679   0.747   5.202 -0.5945  0.3964 -0.1748
 1159HK4     H397317  10.715   0.644   5.190 -1.1312  0.0046  1.4729
 1159HK4     C297318  10.566   0.770   5.279 -0.3385  0.1839  0.2630
 1159HK4     H297319  10.510   0.690   5.328 -0.7271  0.4291  0.2220
 1159HK4     C197320  10.505   0.893   5.258 -0.3683  0.2186  0.5478
 1159HK4     H197321  10.408   0.916   5.305 -1.1347  2.1057 -1.8616
 1159HK4     C697322  10.544   0.985   5.159 -0.0988 -0.4129  0.0694
 1159HK4     C597323  10.665   0.962   5.092 -0.0760 -0.1113  0.0032
 1159HK4    C1097324  10.744   1.069   5.023  0.0513 -0.1677  0.0620
 1159HK4     O197325  10.746   1.184   5.065  0.2779 -0.2528  0.2817
 1159HK4    C1697326  10.467   1.109   5.139  0.2713 -0.1297  0.3938
 1159HK4    C1597327  10.395   1.168   5.245 -0.5884 -0.1802 -0.1576
 1159HK4     H797328  10.411   1.131   5.348 -0.9188  0.2298  0.0397
 1159HK4    C2097329  10.313   1.276   5.217  0.2012  0.3758 -0.3358
 1159HK4     H997330  10.268   1.325   5.304  0.6604  1.2698 -0.5918
 1159HK4    C1997331  10.296   1.322   5.087  0.2417  0.3656 -0.3451
 1159HK4    C1897332  10.369   1.265   4.975  0.1834 -0.1830 -0.1065
 1159HK4    C1797333  10.450   1.158   5.010  0.2276  0.0364  0.4633
 1159HK4     H897334  10.498   1.101   4.931 -1.6945  0.2591 -0.8836
 1159HK4     N197335  10.340   1.333   4.855  0.1439  0.0259  0.0192
 1159HK4    C2197336  10.256   1.440   4.889 -0.0583 -0.1394  0.0471
 1159HK4    C2297337  10.220   1.432   5.030 -0.5148 -0.0041 -0.0578
 1159HK4    C2697338  10.145   1.536   5.082 -1.0976 -0.2072 -0.4843
 1159HK4    H1397339  10.123   1.524   5.188 -2.1469  2.0285 -0.4025
 1159HK4    C2597340  10.095   1.639   5.003 -0.2555  0.1678 -0.5355
 1159HK4    H1297341  10.028   1.705   5.058 -2.3864 -0.8511 -1.8507
 1159HK4    C2497342  10.135   1.652   4.870 -0.5249  0.2604 -0.6086
 1159HK4    H1197343  10.095   1.740   4.818  1.1797  0.9697 -0.7499
 1159HK4    C2397344  10.217   1.553   4.817  0.6226  0.5035  0.6677
 1159HK4    H1097345  10.271   1.574   4.725 -0.2391 -0.7448 -0.1544
 1159HK4    C3997346  10.405   1.315   4.732 -0.1638 -0.1878 -0.1127
 1159HK4    C4197347  10.332   1.349   4.617 -0.5115  0.4927  0.3014
 1159HK4    H2197348  10.229   1.388   4.628  0.3798  2.1647  2.9177
 1159HK4    C4297349  10.388   1.334   4.490 -0.1368  0.5748  0.4562
 1159HK4    H2297350  10.332   1.352   4.397 -1.4793  0.1267  1.1695
 1159HK4    C4397351  10.522   1.302   4.476 -0.4085 -0.3387 -0.1018
 1159HK4    H2397352  10.576   1.312   4.381  1.8868  1.7661  1.3581
 1159HK4    C4497353  10.591   1.260   4.589 -0.4497 -0.5525 -0.1582
 1159HK4    H2497354  10.687   1.207   4.576  0.1885  0.8826 -1.4349
 1159HK4    C4597355  10.537   1.269   4.717  0.1956  0.7788  0.0262
 1159HK4    H2597356  10.608   1.266   4.801 -1.4568  2.1336  1.5167
 1160HK4    H2897357   0.999   3.036  11.121 -1.4971  0.4249  0.1975
 1160HK4    C4897358   1.037   3.138  11.131  0.0699 -0.1464  0.1287
 1160HK4    C4797359   0.981   3.238  11.052 -0.2473 -0.0186  0.5167
 1160HK4    H2797360   0.912   3.212  10.972  1.6277 -1.7719 -0.5798
 1160HK4    C4697361   1.009   3.373  11.073  0.1861  0.0197 -0.2965
 1160HK4    H2697362   0.984   3.451  11.000  0.2020  1.5604  1.3227
 1160HK4    C4097363   1.086   3.411  11.184 -0.5853  0.1648  0.1953
 1160HK4    C5097364   1.140   3.306   0.014 -0.6947  0.1258  0.2185
 1160HK4    H3097365   1.202   3.335   0.100 -2.5903  2.4820  0.8579
 1160HK4    C4997366   1.118   3.171  11.239 -0.3565  0.0408  0.3967
 1160HK4    H2997367   1.163   3.092   0.053 -0.3532 -0.6485 -0.4760
 1160HK4     N297368   1.144   3.539  11.189 -0.1332 -0.0372  0.1529
 1160HK4    C3097369   1.168   3.617  11.075  0.6842 -0.4887  0.0120
 1160HK4    C2997370   1.218   3.585  10.950  0.3115  0.2724 -0.3401
 1160HK4    H1597371   1.239   3.479  10.936 -1.1900 -0.1565  0.6260
 1160HK4    C2897372   1.229   3.677  10.846 -0.2714  0.4588 -0.2338
 1160HK4    C2797373   1.178   3.806  10.867  0.2057  0.5132  0.5776
 1160HK4    H1497374   1.177   3.882  10.787  1.8088  0.8925  0.9042
 1160HK4    C3297375   1.136   3.848  10.993 -0.4480 -0.0338  0.5411
 1160HK4    H1697376   1.109   3.951  11.014 -0.7325 -0.3407  1.7592
 1160HK4    C3197377   1.140   3.757  11.099  0.8069 -0.4830  0.1248
 1160HK4    C3497378   1.104   3.763  11.239 -0.0129 -0.2823 -0.0881
 1160HK4    C3397379   1.125   3.631   0.046  0.4929 -0.0519  0.2804
 1160HK4    C3597380   1.147   3.620   0.183  0.3457 -0.3970  0.2776
 1160HK4    H1797381   1.153   3.518   0.221 -2.6607 -0.4212  0.7652
 1160HK4    C3697382   1.157   3.731   0.266  0.7488 -0.0918 -0.1726
 1160HK4    H1897383   1.187   3.725   0.372  1.3668  1.2769 -0.2584
 1160HK4    C3797384   1.132   3.858   0.215  0.7409 -0.2845 -0.6478
 1160HK4    H1997385   1.108   3.941   0.281  1.0774  0.5585 -1.5665
 1160HK4    C3897386   1.104   3.871   0.079  0.3212  0.0772 -0.5256
 1160HK4    H2097387   1.072   3.970   0.046 -2.0403 -0.2318  0.6860
 1160HK4    C1497388   1.302   3.638  10.724  0.5107 -0.2190  0.4396
 1160HK4     C997389   1.360   3.731  10.636  0.0178 -0.0808  0.2609
 1160HK4     C897390   1.382   3.699  10.501 -0.3191  0.0593  0.1706
 1160HK4    C1197391   1.358   3.570  10.455  0.6134 -0.0879  0.0808
 1160HK4     H497392   1.370   3.549  10.347  2.8876  0.0834  0.2783
 1160HK4    C1297393   1.304   3.475  10.541 -0.2451  0.0974 -0.2455
 1160HK4     H597394   1.297   3.373  10.502 -0.8762 -0.1599  0.5230
 1160HK4    C1397395   1.277   3.510  10.673  0.3126  0.0355 -0.1073
 1160HK4     H697396   1.208   3.444  10.728  0.8056 -1.2898 -1.0300
 1160HK4     C797397   1.414   3.805  10.403 -0.0585 -0.1178  0.0626
 1160HK4     O297398   1.451   3.778  10.289 -0.3526 -0.2875  0.0074
 1160HK4     C497399   1.421   3.946  10.448  0.4208 -0.0571 -0.1980
 1160HK4     C397400   1.430   4.052  10.359 -0.5176 -0.2497 -0.5260
 1160HK4     H397401   1.446   4.033  10.252 -0.1631 -0.2395 -0.4737
 1160HK4     C297402   1.433   4.186  10.397 -0.5252 -0.4782  0.2887
 1160HK4     H297403   1.453   4.266  10.324  2.0062 -1.9704 -0.7283
 1160HK4     C197404   1.424   4.211  10.533  0.1139  0.0078  0.2489
 1160HK4     H197405   1.448   4.312  10.568 -0.2768 -0.3099  1.4950
 1160HK4     C697406   1.405   4.109  10.630  0.1865 -0.1719  0.0720
 1160HK4     C597407   1.412   3.977  10.585  0.4208 -0.0709 -0.1932
 1160HK4    C1097408   1.405   3.865  10.683 -0.5872  0.1996  0.0517
 1160HK4     O197409   1.497   3.868  10.765 -0.2208  0.1183 -0.3558
 1160HK4    C1697410   1.311   4.146  10.736  0.4971  0.3795  0.1614
 1160HK4    C1597411   1.199   4.232  10.728  0.0711 -0.1932 -0.0594
 1160HK4     H797412   1.158   4.254  10.628  2.2001  0.1128 -0.8910
 1160HK4    C2097413   1.143   4.296  10.838  0.0453 -0.0791 -0.1396
 1160HK4     H997414   1.051   4.355  10.829 -0.4404 -0.7963  0.0422
 1160HK4    C1997415   1.200   4.272  10.962 -0.4000 -0.7143 -0.0531
 1160HK4    C1897416   1.305   4.174  10.981  0.1341 -0.1730 -0.1816
 1160HK4    C1797417   1.358   4.119  10.864  0.8450  0.1483 -0.0144
 1160HK4     H897418   1.459   4.080  10.873  0.4331 -1.8248 -3.1099
 1160HK4     N197419   1.341   4.161  11.116 -0.0191  0.0314 -0.1211
 1160HK4    C2197420   1.261   4.252  11.189 -0.2246  0.0348 -0.3505
 1160HK4    C2297421   1.175   4.322  11.096  0.0263  0.3415 -0.3520
 1160HK4    C2697422   1.095   4.426  11.139  0.1228  0.4605 -0.4627
 1160HK4    H1397423   1.016   4.457  11.070 -1.5109  0.3070  1.2688
 1160HK4    C2597424   1.091   4.456   0.027  0.0192  0.1362 -0.3940
 1160HK4    H1297425   1.031   4.539   0.063 -2.7346 -2.3533  0.9997
 1160HK4    C2497426   1.170   4.384   0.116  0.7130  0.6332 -0.6039
 1160HK4    H1197427   1.178   4.428   0.217 -0.2703 -2.0829  0.6998
 1160HK4    C2397428   1.256   4.282   0.077  0.0561 -0.0289 -0.3252
 1160HK4    H1097429   1.343   4.275   0.142 -0.4493  1.4542  0.5296
 1160HK4    C3997430   1.454   4.098  11.169  0.0755  0.0035 -0.3608
 1160HK4    C4197431   1.578   4.091  11.101  0.3615  0.6089  0.0937
 1160HK4    H2197432   1.592   4.147  11.008 -1.0801 -1.9168 -1.7372
 1160HK4    C4297433   1.674   3.997  11.135 -0.1124  0.1210  0.1039
 1160HK4    H2297434   1.770   4.003  11.080 -0.2243 -0.7617 -0.1983
 1160HK4    C4397435   1.654   3.900  11.233 -0.2328  0.1355  0.0902
 1160HK4    H2397436   1.739   3.834   0.004 -2.0858 -2.1843  0.5685
 1160HK4    C4497437   1.534   3.908   0.054 -0.0188 -0.0776  0.4879
 1160HK4    H2497438   1.515   3.830   0.129 -1.2273 -0.6934 -0.4550
 1160HK4    C4597439   1.437   4.003   0.023  0.2369 -0.1160 -0.4432
 1160HK4    H2597440   1.343   4.003   0.081  0.6723  2.8503  0.3435
 1161HK4    H2897441   9.555   2.246   7.887  1.4277  2.1540  0.1817
 1161HK4    C4897442   9.642   2.191   7.852  0.0849  0.0657  0.0092
 1161HK4    C4797443   9.753   2.163   7.931  0.1161  0.2765  0.0381
 1161HK4    H2797444   9.757   2.197   8.035  0.4240  1.6354 -0.4116
 1161HK4    C4697445   9.867   2.112   7.869  0.1353  0.2446  0.0950
 1161HK4    H2697446   9.950   2.091   7.939  0.0883 -0.5321 -0.0828
 1161HK4    C4097447   9.876   2.087   7.731  0.0562  0.0098  0.1338
 1161HK4    C5097448   9.764   2.117   7.651 -0.1794 -0.0919  0.4270
 1161HK4    H3097449   9.750   2.069   7.553  0.7802 -0.3457  0.4116
 1161HK4    C4997450   9.653   2.174   7.714 -0.5031 -0.2398 -0.0003
 1161HK4    H2997451   9.561   2.202   7.663  0.5907  2.5699 -0.5243
 1161HK4     N297452   9.989   2.028   7.674  0.0783  0.1260  0.0534
 1161HK4    C3097453  10.035   2.048   7.543 -0.2223 -0.0545 -0.0797
 1161HK4    C2997454   9.997   2.149   7.455 -0.0867  0.0717  0.0039
 1161HK4    H1597455   9.928   2.225   7.491  0.1343  0.1216  0.3224
 1161HK4    C2897456  10.043   2.151   7.324 -0.3320 -0.0169 -0.0848
 1161HK4    C2797457  10.130   2.045   7.290 -0.3494  0.0491 -0.3348
 1161HK4    H1497458  10.158   2.029   7.185  0.3511 -0.9757 -0.0019
 1161HK4    C3297459  10.171   1.944   7.376 -0.2092  0.4198  0.0344
 1161HK4    H1697460  10.211   1.850   7.339 -0.6953 -0.3874  1.5467
 1161HK4    C3197461  10.129   1.942   7.508  0.1765  0.2187  0.1572
 1161HK4    C3497462  10.152   1.864   7.628  0.4402  0.1880  0.0865
 1161HK4    C3397463  10.056   1.914   7.725 -0.1718 -0.1882 -0.3277
 1161HK4    C3597464  10.029   1.847   7.844  0.7174  0.3714  0.1915
 1161HK4    H1797465   9.940   1.866   7.905  0.0858  1.4641 -1.0286
 1161HK4    C3697466  10.109   1.736   7.863  0.6170  0.2229 -0.2365
 1161HK4    H1897467  10.112   1.690   7.964 -0.2775 -0.2332 -0.4096
 1161HK4    C3797468  10.203   1.685   7.774  0.6022  0.3867 -0.3449
 1161HK4    H1997469  10.282   1.614   7.799  0.2278  0.3795  0.8849
 1161HK4    C3897470  10.221   1.746   7.651  0.1494 -0.1237 -0.6613
 1161HK4    H2097471  10.277   1.697   7.571  1.1339  2.0144 -1.3057
 1161HK4    C1497472   9.957   2.208   7.219 -0.9793 -0.6941  0.0726
 1161HK4     C997473   9.958   2.175   7.083  0.3043 -0.0088 -0.0981
 1161HK4     C897474   9.929   2.271   6.983  0.1770  0.2343  0.1682
 1161HK4    C1197475   9.873   2.391   7.023 -0.3329  0.0061  0.1485
 1161HK4     H497476   9.829   2.457   6.947  0.9714  0.9553  0.1860
 1161HK4    C1297477   9.865   2.428   7.157  0.0980  0.0208  0.1721
 1161HK4     H597478   9.854   2.534   7.186  0.2063 -0.3376  1.5328
 1161HK4    C1397479   9.910   2.337   7.252  1.0551  0.1254 -0.1790
 1161HK4     H697480   9.926   2.373   7.355  0.2000 -3.3075  1.1918
 1161HK4     C797481   9.949   2.236   6.841  0.4237 -0.1263  0.2880
 1161HK4     O297482   9.991   2.321   6.762 -0.0130 -0.1158  0.0640
 1161HK4     C497483   9.964   2.095   6.801  0.5474 -0.1002  0.2430
 1161HK4     C397484   9.963   2.063   6.665 -0.5877 -0.0571  0.2378
 1161HK4     H397485   9.917   2.131   6.592 -0.8297  0.5658  0.9655
 1161HK4     C297486  10.017   1.940   6.629 -0.5433 -0.0121  0.1519
 1161HK4     H297487  10.033   1.905   6.526  0.3490  1.2330 -0.1381
 1161HK4     C197488  10.067   1.852   6.725  0.1407 -0.0300 -0.2174
 1161HK4     H197489  10.116   1.762   6.685  2.7451  0.5586  1.5466
 1161HK4     C697490  10.055   1.874   6.864  0.0395 -0.3652 -0.1725
 1161HK4     C597491   9.999   1.998   6.897  0.7003 -0.1494  0.1380
 1161HK4    C1097492   9.972   2.034   7.039  0.2910 -0.0512  0.0364
 1161HK4     O197493   9.898   1.954   7.098 -0.3641  0.1601 -0.4990
 1161HK4    C1697494  10.143   1.797   6.952 -0.1264 -0.3986 -0.0373
 1161HK4    C1597495  10.270   1.757   6.905  0.0683  0.1238  0.0393
 1161HK4     H797496  10.321   1.822   6.832  3.1049 -0.4422  1.5860
 1161HK4    C2097497  10.345   1.661   6.972  0.2210  0.5512  0.4824
 1161HK4     H997498  10.444   1.650   6.930 -0.0503  1.9242 -0.5398
 1161HK4    C1997499  10.296   1.598   7.086 -0.1422 -0.3431 -0.1615
 1161HK4    C1897500  10.160   1.626   7.129 -0.1517 -0.2952 -0.2178
 1161HK4    C1797501  10.092   1.724   7.059 -0.2776 -0.2203  0.0096
 1161HK4     H897502   9.983   1.712   7.059 -0.2417 -0.6562  1.6037
 1161HK4     N197503  10.138   1.565   7.254 -0.3592  0.2931  0.0350
 1161HK4    C2197504  10.254   1.495   7.294 -0.1287  0.6340 -0.0498
 1161HK4    C2297505  10.350   1.509   7.186 -0.2071 -0.5005 -0.2674
 1161HK4    C2697506  10.473   1.446   7.203 -0.0460 -0.0678  0.1758
 1161HK4    H1397507  10.535   1.449   7.113  1.8303 -1.8715  1.3479
 1161HK4    C2597508  10.516   1.384   7.319 -0.3193  0.1016  0.3678
 1161HK4    H1297509  10.623   1.368   7.333 -0.1235  0.0586 -1.1123
 1161HK4    C2497510  10.421   1.383   7.421 -0.4968 -0.3434  0.2017
 1161HK4    H1197511  10.457   1.358   7.522 -0.8551  0.1656  0.4592
 1161HK4    C2397512  10.291   1.430   7.411 -0.4483 -0.3495 -0.4939
 1161HK4    H1097513  10.228   1.440   7.500 -1.0157 -1.3578 -0.7694
 1161HK4    C3997514  10.026   1.586   7.336 -0.6599 -0.3906 -0.1927
 1161HK4    C4197515   9.985   1.489   7.430 -0.2110 -0.0016  0.4060
 1161HK4    H2197516  10.024   1.387   7.431  0.0786  0.1051  0.0899
 1161HK4    C4297517   9.883   1.509   7.522 -0.9509 -0.6516 -0.2658
 1161HK4    H2297518   9.826   1.426   7.566 -1.2982  0.3769  1.2621
 1161HK4    C4397519   9.827   1.636   7.537  0.3188 -0.0923 -0.1880
 1161HK4    H2397520   9.763   1.656   7.623 -0.8287 -0.1252 -1.0161
 1161HK4    C4497521   9.870   1.738   7.453  0.2641  0.2471  0.2004
 1161HK4    H2497522   9.843   1.843   7.471 -1.8063 -0.3776  0.9477
 1161HK4    C4597523   9.959   1.708   7.351 -0.1333 -0.1184 -0.0407
 1161HK4    H2597524   9.980   1.791   7.281  0.8196 -1.4751 -1.3755
 1162HK4    H2897525   0.889   0.357   3.984  1.6768  0.0089 -1.9781
 1162HK4    C4897526   0.893   0.248   3.991 -0.1456  0.0129 -0.3932
 1162HK4    C4797527   0.890   0.200   4.122  0.4200  0.3012 -0.2704
 1162HK4    H2797528   0.877   0.270   4.206  2.9829  0.8535 -0.2941
 1162HK4    C4697529   0.904   0.063   4.136  0.8716  0.3700 -0.0631
 1162HK4    H2697530   0.891   0.028   4.240 -0.7757 -0.3983 -0.5175
 1162HK4    C4097531   0.916  11.217   4.031  0.6783  0.3192 -0.0390
 1162HK4    C5097532   0.903   0.023   3.901  0.2682  0.0176 -0.1224
 1162HK4    H3097533   0.932  11.211   3.813 -0.2019 -0.8759  0.3205
 1162HK4    C4997534   0.894   0.160   3.884  0.5649  0.0045 -0.3839
 1162HK4    H2997535   0.926   0.198   3.786  1.0447  0.7458  0.0588
 1162HK4     N297536   0.971  11.092   4.061 -0.0158  0.1579  0.5738
 1162HK4    C3097537   1.049  11.061   4.174 -0.0783  0.0351  0.5846
 1162HK4    C2997538   1.127  11.146   4.252  0.2940  0.2689 -0.0410
 1162HK4    H1597539   1.105   0.005   4.253 -0.1638  0.1630  1.2999
 1162HK4    C2897540   1.227  11.098   4.336 -0.2760  0.0750  0.5289
 1162HK4    C2797541   1.229  10.958   4.350 -0.8471  0.1266  1.1984
 1162HK4    H1497542   1.311  10.912   4.407  0.1646 -0.4813 -0.6755
 1162HK4    C3297543   1.142  10.870   4.286  0.3213  0.2148 -0.5611
 1162HK4    H1697544   1.161  10.763   4.295 -0.1575  0.3369  2.4471
 1162HK4    C3197545   1.045  10.918   4.200 -0.4767 -0.0219  0.1978
 1162HK4    C3497546   0.958  10.861   4.099 -0.3399  0.3118 -0.1106
 1162HK4    C3397547   0.915  10.971   4.016 -0.4699  0.5015  0.2104
 1162HK4    C3597548   0.847  10.942   3.898 -0.0635  0.0360  0.0893
 1162HK4    H1797549   0.830  11.017   3.821  1.6883  0.1914 -0.1634
 1162HK4    C3697550   0.817  10.810   3.866 -0.2772  0.1354 -0.1486
 1162HK4    H1897551   0.760  10.784   3.776  2.9947  0.3646 -2.3817
 1162HK4    C3797552   0.846  10.709   3.957  0.4456  0.4350 -0.0390
 1162HK4    H1997553   0.806  10.609   3.937  1.6573 -0.0300 -0.1769
 1162HK4    C3897554   0.912  10.732   4.077 -0.1666  0.1691  0.3528
 1162HK4    H2097555   0.932  10.658   4.155 -0.9496  0.2852  0.6635
 1162HK4    C1497556   1.328  11.188   4.392 -0.0522  0.7415 -0.9234
 1162HK4     C997557   1.464  11.158   4.414 -0.4715 -0.3764  0.2224
 1162HK4     C897558   1.545  11.225   4.508 -0.0978 -0.0754 -0.3078
 1162HK4    C1197559   1.485   0.079   4.581  0.1198  0.0426 -0.2946
 1162HK4     H497560   1.543   0.105   4.671  0.2838 -0.2995 -0.2989
 1162HK4    C1297561   1.353   0.119   4.562  0.1903  0.2622 -0.3250
 1162HK4     H597562   1.325   0.210   4.616  1.9359  1.4496 -1.3615
 1162HK4    C1397563   1.276   0.040   4.476  0.1527  0.5153 -0.5234
 1162HK4     H697564   1.167   0.053   4.489 -0.0785 -0.1673 -1.7753
 1162HK4     C797565   1.677  11.173   4.550 -0.1129  0.2207  0.1020
 1162HK4     O297566   1.762  11.244   4.604 -0.0303 -0.0730  0.3513
 1162HK4     C497567   1.717  11.040   4.499 -0.5511  0.0259  0.2744
 1162HK4     C397568   1.827  10.977   4.555 -0.2271  0.0639 -0.3125
 1162HK4     H397569   1.872  11.024   4.644 -0.7860 -0.1556  0.0909
 1162HK4     C297570   1.865  10.851   4.511 -0.4660 -0.3315  0.5921
 1162HK4     H297571   1.964  10.810   4.536 -1.0936 -1.5606  1.0707
 1162HK4     C197572   1.786  10.781   4.421 -0.1122  0.4181 -0.3177
 1162HK4     H197573   1.821  10.679   4.402  1.1178  1.3835 -3.4321
 1162HK4     C697574   1.666  10.839   4.374 -0.1794  0.4229 -0.1445
 1162HK4     C597575   1.638  10.973   4.403 -0.4353  0.3490 -0.0455
 1162HK4    C1097576   1.516  11.037   4.345 -0.5781 -0.1406 -0.2876
 1162HK4     O197577   1.493  11.025   4.225 -0.2769 -0.5332 -0.3076
 1162HK4    C1697578   1.551  10.748   4.362  0.0065  0.1499  0.1249
 1162HK4    C1597579   1.507  10.669   4.470 -0.8844  0.6867  0.1573
 1162HK4     H797580   1.559  10.676   4.567  0.9326 -1.0446 -0.6530
 1162HK4    C2097581   1.411  10.570   4.453 -0.1773 -0.0223  0.2716
 1162HK4     H997582   1.387  10.493   4.526 -0.8688 -1.4930 -1.4709
 1162HK4    C1997583   1.347  10.561   4.330  0.0650 -0.0812  0.1500
 1162HK4    C1897584   1.399  10.637   4.217 -0.1929 -0.0004  0.0848
 1162HK4    C1797585   1.498  10.733   4.235 -0.1766 -0.0415  0.2230
 1162HK4     H897586   1.546  10.781   4.150 -0.3565  0.9602  0.6837
 1162HK4     N197587   1.342  10.598   4.094 -0.1448  0.1869  0.0042
 1162HK4    C2197588   1.266  10.484   4.128  0.2886 -0.1130 -0.0358
 1162HK4    C2297589   1.254  10.466   4.271  0.3684 -0.2574 -0.0474
 1162HK4    C2697590   1.171  10.374   4.334  0.4791 -0.2875  0.0565
 1162HK4    H1397591   1.188  10.347   4.438 -0.6075  0.1687  0.3558
 1162HK4    C2597592   1.095  10.289   4.255 -0.3750 -0.2830  0.8746
 1162HK4    H1297593   1.034  10.216   4.310  0.7897 -0.0703  2.4829
 1162HK4    C2497594   1.109  10.300   4.117 -0.4417 -0.0679  0.8859
 1162HK4    H1197595   1.043  10.235   4.059 -0.3166  0.0883  0.5689
 1162HK4    C2397596   1.187  10.396   4.055  0.0656 -0.5697  0.7436
 1162HK4    H1097597   1.186  10.415   3.947 -0.5986  0.9672  0.9987
 1162HK4    C3997598   1.324  10.676   3.980  0.2699 -0.0228 -0.2050
 1162HK4    C4197599   1.332  10.611   3.855  0.3447 -0.0953 -0.1624
 1162HK4    H2197600   1.375  10.510   3.848  0.8805  0.1209 -0.0580
 1162HK4    C4297601   1.300  10.678   3.738 -0.2729 -0.1652 -0.0354
 1162HK4    H2297602   1.324  10.639   3.638 -1.5381 -1.8385  0.3028
 1162HK4    C4397603   1.262  10.811   3.749  0.2864 -0.0099  0.0504
 1162HK4    H2397604   1.241  10.862   3.655 -0.4590 -2.1030 -0.9473
 1162HK4    C4497605   1.258  10.884   3.868 -0.4390  0.0395  0.0041
 1162HK4    H2497606   1.241  10.992   3.880  4.7965  0.9919  0.3412
 1162HK4    C4597607   1.285  10.812   3.983  0.4522  0.0291 -0.2072
 1162HK4    H2597608   1.293  10.872   4.075 -0.7179  1.3667 -0.9617
 1163HK4    H2897609  10.653   4.590   0.770  0.1831 -0.3410  0.6675
 1163HK4    C4897610  10.575   4.653   0.814  0.1576  0.0226  0.1017
 1163HK4    C4797611  10.461   4.679   0.740  0.0215 -0.7944  0.0110
 1163HK4    H2797612  10.469   4.654   0.633  2.7171  2.7998 -0.7431
 1163HK4    C4697613  10.342   4.717   0.800 -0.3099 -1.2003 -0.3859
 1163HK4    H2697614  10.258   4.758   0.742 -0.2648  0.5618  0.7542
 1163HK4    C4097615  10.339   4.731   0.940  0.2828  0.6207 -0.5456
 1163HK4    C5097616  10.453   4.704   1.018 -0.2733  0.5467  0.2556
 1163HK4    H3097617  10.451   4.717   1.127  1.2142 -1.8790  0.6120
 1163HK4    C4997618  10.567   4.658   0.952 -0.6604 -0.1467  0.0623
 1163HK4    H2997619  10.658   4.649   1.014 -0.0524  0.0686 -0.7843
 1163HK4     N297620  10.223   4.777   1.005 -0.1399 -0.1525 -0.7557
 1163HK4    C3097621  10.140   4.882   0.960 -0.3462 -0.2935 -0.7138
 1163HK4    C2997622  10.181   4.992   0.886  0.0679 -0.3035 -0.5023
 1163HK4    H1597623  10.287   5.011   0.870  0.0661 -0.3579 -0.5730
 1163HK4    C2897624  10.088   5.091   0.856 -0.0318 -0.0414  0.6444
 1163HK4    C2797625   9.959   5.081   0.911 -0.3036  0.6127  0.1361
 1163HK4    H1497626   9.891   5.167   0.904  0.0515  1.0049  1.2978
 1163HK4    C3297627   9.926   4.979   0.999  0.1994  0.4564  0.1465
 1163HK4    H1697628   9.831   4.983   1.052  0.5230 -4.0084  1.3117
 1163HK4    C3197629  10.013   4.875   1.029 -0.0377  0.1877 -0.0867
 1163HK4    C3497630  10.022   4.767   1.125  0.5037 -0.0858 -0.4442
 1163HK4    C3397631  10.147   4.700   1.095  0.3913 -0.3022 -0.4366
 1163HK4    C3597632  10.174   4.593   1.180  0.1782 -0.3826 -0.4676
 1163HK4    H1797633  10.269   4.542   1.161  0.9169  1.0434 -0.6938
 1163HK4    C3697634  10.094   4.551   1.285  0.4028 -0.4125 -0.3081
 1163HK4    H1897635  10.142   4.488   1.361  0.8116  0.3434  0.0621
 1163HK4    C3797636   9.973   4.615   1.307  0.5473  0.0090 -0.7131
 1163HK4    H1997637   9.901   4.571   1.376 -0.0017  2.1169  0.1025
 1163HK4    C3897638   9.938   4.723   1.227  0.1059 -0.2222 -0.8304
 1163HK4    H2097639   9.857   4.789   1.258  0.5778  0.8607 -1.8711
 1163HK4    C1497640  10.133   5.221   0.805  0.2340 -0.1218  0.6774
 1163HK4     C997641  10.083   5.346   0.844 -0.4216 -0.1793  0.0300
 1163HK4     C897642  10.086   5.459   0.759  0.6968  0.2363  0.6057
 1163HK4    C1197643  10.146   5.439   0.636  0.5116  0.6332  0.4514
 1163HK4     H497644  10.129   5.513   0.556 -3.1908  0.3439  0.8394
 1163HK4    C1297645  10.203   5.321   0.590 -0.4922  0.1787  0.3455
 1163HK4     H597646  10.278   5.324   0.510  0.8981  0.0009  1.6255
 1163HK4    C1397647  10.189   5.211   0.675 -0.3453  0.2048  0.4043
 1163HK4     H697648  10.206   5.113   0.630 -2.0135  0.7653 -1.5649
 1163HK4     C797649  10.010   5.582   0.792  0.5302  0.1436  0.5698
 1163HK4     O297650  10.036   5.683   0.728  0.2658  0.0808  0.3668
 1163HK4     C497651   9.933   5.586   0.918 -0.0021  0.0119  0.2476
 1163HK4     C397652   9.844   5.691   0.937  0.0885  0.1223  0.0664
 1163HK4     H397653   9.813   5.745   0.847 -1.0500  0.4003  0.6184
 1163HK4     C297654   9.764   5.694   1.050 -0.0137  0.2715 -0.0106
 1163HK4     H297655   9.716   5.789   1.077 -1.1618 -0.0070 -1.0249
 1163HK4     C197656   9.765   5.588   1.140  0.5971  0.4235  0.1611
 1163HK4     H197657   9.681   5.574   1.209  0.9047 -1.8667  0.1157
 1163HK4     C697658   9.847   5.475   1.120 -0.9060 -0.5384 -0.6807
 1163HK4     C597659   9.932   5.477   1.008 -0.0470 -0.2189 -0.0319
 1163HK4    C1097660  10.030   5.368   0.981  0.2193 -0.0555  0.2630
 1163HK4     O197661  10.103   5.332   1.073 -0.1621 -0.0747  0.5633
 1163HK4    C1697662   9.808   5.351   1.189  0.1242 -0.4069  0.1584
 1163HK4    C1597663   9.672   5.315   1.200  0.0119 -0.1046 -0.1832
 1163HK4     H797664   9.595   5.344   1.127 -0.6911 -1.1161  0.1425
 1163HK4    C2097665   9.624   5.231   1.299 -0.0414  0.2603  0.1028
 1163HK4     H997666   9.521   5.194   1.296 -0.2007  0.7719 -0.7521
 1163HK4    C1997667   9.715   5.172   1.387  0.0966  0.8770  0.3745
 1163HK4    C1897668   9.856   5.203   1.377  0.4262 -0.6158  0.3119
 1163HK4    C1797669   9.896   5.295   1.281 -0.0082 -0.5485  0.1954
 1163HK4     H897670   9.991   5.343   1.302 -0.5744 -0.7812  3.4643
 1163HK4     N197671   9.929   5.139   1.480  0.4378  0.1350  0.7691
 1163HK4    C2197672   9.832   5.078   1.562 -0.3006  0.5256  0.1966
 1163HK4    C2297673   9.700   5.086   1.503  0.0191 -0.5784 -0.6964
 1163HK4    C2697674   9.585   5.054   1.575  0.2312 -0.0904 -0.1346
 1163HK4    H1397675   9.492   5.034   1.522 -0.6988  3.3998  0.0453
 1163HK4    C2597676   9.599   5.020   1.709  0.3046  0.4693  0.0009
 1163HK4    H1297677   9.510   5.019   1.772 -0.7580  0.6853 -1.4657
 1163HK4    C2497678   9.722   5.004   1.771  0.0558  0.3405  0.4700
 1163HK4    H1197679   9.725   4.952   1.868  1.3207  0.5540  0.5552
 1163HK4    C2397680   9.833   5.037   1.695 -0.1910  0.5450  0.2011
 1163HK4    H1097681   9.925   5.011   1.748 -0.6768  0.8282  1.1740
 1163HK4    C3997682  10.065   5.108   1.469  0.2940 -0.2111 -0.0776
 1163HK4    C4197683  10.146   5.076   1.579 -0.1700  0.0630  0.3430
 1163HK4    H2197684  10.127   5.123   1.677 -2.3215 -0.0036 -0.0078
 1163HK4    C4297685  10.266   5.008   1.568 -0.4493 -0.3252 -0.2959
 1163HK4    H2297686  10.316   4.989   1.664 -0.8362 -0.3919 -0.1080
 1163HK4    C4397687  10.319   4.970   1.444 -0.4813 -0.8322 -0.1560
 1163HK4    H2397688  10.400   4.898   1.445  0.4276  0.1760 -0.4748
 1163HK4    C4497689  10.247   5.010   1.332 -0.0518  0.5038  0.0338
 1163HK4    H2497690  10.290   4.989   1.233  1.0788  2.5710  0.0592
 1163HK4    C4597691  10.125   5.076   1.345 -0.5334 -0.2757 -0.4728
 1163HK4    H2597692  10.091   5.117   1.249  1.5206  1.5904 -0.4561
 1164HK4    H2897693  10.960   2.855   2.141  0.1655  0.4028 -0.3749
 1164HK4    C4897694  10.978   2.863   2.248  0.1465  0.0932 -0.3473
 1164HK4    C4797695  10.887   2.928   2.330 -0.0018 -0.1728 -0.2989
 1164HK4    H2797696  10.809   2.991   2.284 -0.0328  0.1944  0.2509
 1164HK4    C4697697  10.900   2.905   2.466 -0.8456 -0.9856 -0.3497
 1164HK4    H2697698  10.836   2.957   2.538 -2.5277  1.1652 -3.3116
 1164HK4    C4097699  11.001   2.824   2.523  0.1524  0.3650 -0.1653
 1164HK4    C5097700  11.087   2.759   2.432 -0.0074 -0.0198 -0.0441
 1164HK4    H3097701  11.158   2.682   2.465 -2.2228 -3.0695 -2.0701
 1164HK4    C4997702  11.084   2.786   2.296 -0.4546 -0.6151 -0.1552
 1164HK4    H2997703  11.162   2.746   2.230  1.0514 -0.9935  1.8180
 1164HK4     N297704  11.039   2.834   2.658 -0.0208  0.3681 -0.1160
 1164HK4    C3097705  11.030   2.951   2.736  0.0252  0.1999  0.1393
 1164HK4    C2997706  11.018   3.087   2.712 -1.1831  0.0200 -0.3208
 1164HK4    H1597707  11.003   3.113   2.607  1.3779  0.6346 -0.5713
 1164HK4    C2897708  11.009   3.183   2.813  0.3161  0.0044 -0.1605
 1164HK4    C2797709  11.028   3.144   2.947  0.4246  0.1486 -0.1338
 1164HK4    H1497710  11.050   3.218   3.025 -1.9449  2.0963 -1.2282
 1164HK4    C3297711  11.041   3.009   2.976 -0.5587  0.0277 -0.2239
 1164HK4    H1697712  11.032   2.974   3.079  0.5699  0.9650  0.2142
 1164HK4    C3197713  11.054   2.914   2.875 -0.3219 -0.2653  0.0785
 1164HK4    C3497714  11.067   2.770   2.881  0.4672 -0.1965  0.0164
 1164HK4    C3397715  11.058   2.724   2.743  0.4730  0.3962 -0.1854
 1164HK4    C3597716  11.072   2.588   2.718 -0.3632  0.2933 -0.1175
 1164HK4    H1797717  11.067   2.564   2.612  0.7484 -0.3686 -0.0230
 1164HK4    C3697718  11.079   2.493   2.820  0.2634  0.3188 -0.1368
 1164HK4    H1897719  11.076   2.385   2.802 -2.1720 -0.1279  2.6377
 1164HK4    C3797720  11.081   2.539   2.951  0.1336  0.2712 -0.1189
 1164HK4    H1997721  11.098   2.468   3.031 -0.7256  0.4295  0.2128
 1164HK4    C3897722  11.074   2.675   2.981  0.3703  0.1740  0.3749
 1164HK4    H2097723  11.081   2.697   3.088 -0.7744 -2.1127  0.9643
 1164HK4    C1497724  10.996   3.324   2.777  0.3814  0.0462 -0.0197
 1164HK4     C997725  11.061   3.432   2.837  0.7899 -0.0577 -0.2768
 1164HK4     C897726  10.991   3.552   2.861  0.0463 -0.5805  0.1798
 1164HK4    C1197727  10.859   3.562   2.818  0.1886 -0.4276 -0.2154
 1164HK4     H497728  10.806   3.645   2.866  0.3666 -0.2401 -0.3410
 1164HK4    C1297729  10.803   3.460   2.742 -0.1422 -0.6326  0.3021
 1164HK4     H597730  10.698   3.467   2.709  0.9138 -1.1600 -3.3991
 1164HK4    C1397731  10.872   3.343   2.711  0.6629  0.0593 -0.5553
 1164HK4     H697732  10.845   3.297   2.615 -0.3897 -0.1050 -0.1907
 1164HK4     C797733  11.059   3.679   2.896 -0.5796 -0.1990  0.0202
 1164HK4     O297734  10.998   3.751   2.975 -0.5608 -0.4744  0.2911
 1164HK4     C497735  11.206   3.684   2.895 -0.5781 -0.2120  0.0455
 1164HK4     C397736   0.027   3.803   2.920 -0.9125  0.2207 -1.0552
 1164HK4     H397737  11.221   3.884   2.971 -1.8345 -0.4254 -0.9890
 1164HK4     C297738   0.163   3.818   2.896 -0.5474 -0.1097  0.7383
 1164HK4     H297739   0.222   3.895   2.947  1.4271  0.9850 -3.0055
 1164HK4     C197740   0.224   3.705   2.842 -0.4136  0.2383  0.1548
 1164HK4     H197741   0.330   3.716   2.814 -0.2636 -2.0817 -0.2284
 1164HK4     C697742   0.162   3.580   2.821  0.0865 -0.0226  0.2157
 1164HK4     C597743   0.025   3.570   2.845  0.1402 -0.0023  0.5225
 1164HK4    C1097744  11.210   3.435   2.847  0.7619 -0.3014  0.1775
 1164HK4     O197745   0.020   3.344   2.907  0.0230 -0.4568  0.6653
 1164HK4    C1697746   0.251   3.474   2.771  0.0581  0.0630 -0.0196
 1164HK4    C1597747   0.390   3.463   2.794  0.0008 -0.4432  0.0872
 1164HK4     H797748   0.431   3.501   2.889 -2.0390  1.6812  0.1712
 1164HK4    C2097749   0.485   3.404   2.712  0.2523 -0.0397  0.0874
 1164HK4     H997750   0.587   3.382   2.743  0.4412 -0.5723 -0.8814
 1164HK4    C1997751   0.436   3.354   2.592 -0.2574 -0.9510  0.6692
 1164HK4    C1897752   0.295   3.363   2.558  0.0277  0.6813 -0.1101
 1164HK4    C1797753   0.209   3.424   2.648 -0.3303 -0.4498  0.3181
 1164HK4     H897754   0.110   3.437   2.606 -0.7381 -3.0805  0.4055
 1164HK4     N197755   0.272   3.300   2.434 -0.1618  0.1051  0.2149
 1164HK4    C2197756   0.398   3.258   2.386 -0.1544  0.4757 -0.0904
 1164HK4    C2297757   0.503   3.283   2.484 -0.1530  0.1947 -0.0199
 1164HK4    C2697758   0.634   3.256   2.449 -0.4035 -0.0045 -0.8291
 1164HK4    H1397759   0.697   3.228   2.534 -0.9427 -1.1517 -0.7885
 1164HK4    C2597760   0.665   3.199   2.326  0.1927 -0.7555 -0.3392
 1164HK4    H1297761   0.766   3.159   2.312 -0.6939 -3.1398 -0.1516
 1164HK4    C2497762   0.564   3.180   2.233  0.1894 -0.5536 -0.3754
 1164HK4    H1197763   0.577   3.123   2.140 -0.5433 -0.7884 -0.3406
 1164HK4    C2397764   0.431   3.211   2.260  0.4269 -0.0647  0.2593
 1164HK4    H1097765   0.350   3.201   2.187 -1.3673  4.4864  1.4607
 1164HK4    C3997766   0.146   3.265   2.386  0.1835 -0.6666 -0.1486
 1164HK4    C4197767   0.114   3.266   2.249 -0.2457 -0.4480 -0.0519
 1164HK4    H2197768   0.161   3.343   2.186  0.0808  1.3452  2.3273
 1164HK4    C4297769   0.009   3.194   2.193 -0.1892 -0.1817 -0.5005
 1164HK4    H2297770   0.001   3.199   2.083  1.0756 -1.1811 -0.6549
 1164HK4    C4397771  11.173   3.124   2.279  0.1661 -0.3495 -0.2918
 1164HK4    H2397772  11.094   3.064   2.235  0.4779 -1.0415  0.0825
 1164HK4    C4497773  11.200   3.123   2.415 -0.3000  1.1575 -0.1838
 1164HK4    H2497774  11.127   3.068   2.477 -2.2884  1.4823 -2.1657
 1164HK4    C4597775   0.058   3.193   2.470  0.4326 -0.3632  0.3745
 1164HK4    H2597776   0.089   3.171   2.573 -1.3471  0.3386  1.0876
 1165HK4    H2897777   5.439   8.159   3.181 -1.3896 -0.9612  0.6993
 1165HK4    C4897778   5.448   8.216   3.274  0.3117 -0.2669  0.1407
 1165HK4    C4797779   5.339   8.280   3.331  0.2122 -0.2255 -0.1008
 1165HK4    H2797780   5.238   8.257   3.295  0.0985  0.5479 -0.2943
 1165HK4    C4697781   5.360   8.376   3.430  0.0491  0.3455 -0.6144
 1165HK4    H2697782   5.274   8.441   3.447 -0.1147  0.0783 -0.4160
 1165HK4    C4097783   5.482   8.389   3.501 -0.3277  0.4582  0.0162
 1165HK4    C5097784   5.589   8.314   3.447 -0.2045  0.2353  0.5778
 1165HK4    H3097785   5.693   8.334   3.477  0.1695 -0.6045 -0.1648
 1165HK4    C4997786   5.571   8.231   3.337  0.1717  0.6726  0.1854
 1165HK4    H2997787   5.654   8.169   3.303 -0.6441 -1.8517  2.6263
 1165HK4     N297788   5.493   8.434   3.632  0.3856  0.4863 -0.0528
 1165HK4    C3097789   5.385   8.423   3.722  0.2475  0.2499 -0.2499
 1165HK4    C2997790   5.280   8.333   3.744  0.0975  0.6107  0.5259
 1165HK4    H1597791   5.268   8.248   3.677 -0.5104  0.1522  1.2082
 1165HK4    C2897792   5.188   8.352   3.846 -0.0787 -0.2439  0.5296
 1165HK4    C2797793   5.206   8.455   3.941 -0.6213  0.0758  0.2897
 1165HK4    H1497794   5.137   8.455   4.027  1.3167 -2.6900  1.9464
 1165HK4    C3297795   5.314   8.542   3.928 -0.6847  0.0774 -0.2013
 1165HK4    H1697796   5.317   8.632   3.988 -2.0251 -1.5148  2.3149
 1165HK4    C3197797   5.398   8.530   3.818  0.1772 -0.4078  0.5054
 1165HK4    C3497798   5.520   8.601   3.784 -0.0521 -0.1189  0.2841
 1165HK4    C3397799   5.582   8.536   3.670 -0.0411  0.9685 -0.3380
 1165HK4    C3597800   5.712   8.572   3.634  0.4362 -0.0221  0.3755
 1165HK4    H1797801   5.747   8.535   3.537  2.2367  1.4993  0.4148
 1165HK4    C3697802   5.786   8.670   3.699  0.1010  0.2692  0.3181
 1165HK4    H1897803   5.883   8.704   3.660 -0.8598  0.9496 -1.5570
 1165HK4    C3797804   5.722   8.733   3.805 -0.9339  0.4330 -0.3970
 1165HK4    H1997805   5.758   8.833   3.827  1.9499 -1.1652  2.5043
 1165HK4    C3897806   5.599   8.692   3.855 -0.1908 -0.3859  0.7802
 1165HK4    H2097807   5.569   8.712   3.958 -0.1930  2.3626  0.2628
 1165HK4    C1497808   5.051   8.315   3.808  0.0623 -0.2136 -0.0108
 1165HK4     C997809   4.939   8.397   3.824  0.0969 -0.2156  0.2539
 1165HK4     C897810   4.823   8.345   3.884 -0.1184 -0.0877 -0.0507
 1165HK4    C1197811   4.815   8.209   3.910 -0.2444  0.1048  0.9141
 1165HK4     H497812   4.737   8.170   3.978 -1.2087  0.2275 -0.1082
 1165HK4    C1297813   4.914   8.119   3.874  0.0244  0.5656  0.5061
 1165HK4     H597814   4.907   8.011   3.896 -2.0108  0.4978 -0.4109
 1165HK4    C1397815   5.027   8.176   3.817  0.3167 -0.2419  0.2590
 1165HK4     H697816   5.106   8.103   3.794  0.8304  0.0687  1.0398
 1165HK4     C797817   4.707   8.436   3.903  0.1107  0.1996 -0.0270
 1165HK4     O297818   4.606   8.385   3.952  0.2149 -0.0818 -0.0993
 1165HK4     C497819   4.707   8.575   3.853 -0.0664  0.3789  0.4689
 1165HK4     C397820   4.598   8.657   3.879 -0.3809  0.0408  0.2277
 1165HK4     H397821   4.495   8.618   3.879 -0.0378 -0.8679 -0.0918
 1165HK4     C297822   4.611   8.795   3.878 -0.3230  0.0347  0.2309
 1165HK4     H297823   4.529   8.858   3.916  0.9999  1.6479  0.4753
 1165HK4     C197824   4.737   8.846   3.847  0.1054 -0.9402  0.3700
 1165HK4     H197825   4.741   8.955   3.851 -2.3770 -0.7207 -1.9445
 1165HK4     C697826   4.850   8.767   3.816  0.2696 -0.2846 -0.7249
 1165HK4     C597827   4.831   8.629   3.813  0.0886 -0.2758  0.0565
 1165HK4    C1097828   4.939   8.536   3.770 -0.0878 -0.3780 -0.1641
 1165HK4     O197829   5.007   8.566   3.672 -0.1426 -0.2945 -0.1767
 1165HK4    C1697830   4.980   8.833   3.835  0.1306 -0.2177  0.0091
 1165HK4    C1597831   4.996   8.923   3.942 -0.1427  0.4876 -0.5392
 1165HK4     H797832   4.957   8.878   4.035  1.5727  1.9731  0.9461
 1165HK4    C2097833   5.080   9.034   3.950  0.1335  0.2190  0.4129
 1165HK4     H997834   5.068   9.097   4.038 -0.3630 -1.0007  1.2299
 1165HK4    C1997835   5.158   9.066   3.839  0.0096 -0.2922  0.1772
 1165HK4    C1897836   5.144   8.976   3.726  0.2323 -0.0006 -0.0811
 1165HK4    C1797837   5.057   8.868   3.724  0.1157  0.0903  0.0952
 1165HK4     H897838   5.044   8.801   3.639 -1.0967  0.6941 -0.2029
 1165HK4     N197839   5.196   9.040   3.612 -0.3990  0.1849 -0.2691
 1165HK4    C2197840   5.240   9.169   3.648 -0.5105  0.2197 -0.2551
 1165HK4    C2297841   5.222   9.187   3.791  0.2019 -0.4893 -0.0736
 1165HK4    C2697842   5.243   9.310   3.852 -0.4606 -0.5090  0.1963
 1165HK4    H1397843   5.191   9.317   3.947  1.0413 -0.1693  1.0058
 1165HK4    C2597844   5.292   9.417   3.778 -0.0454 -1.2280 -0.5707
 1165HK4    H1297845   5.328   9.510   3.820  0.0748  0.0053 -3.2794
 1165HK4    C2497846   5.316   9.391   3.643  0.0380  0.1954 -0.8412
 1165HK4    H1197847   5.372   9.469   3.591  0.2917  0.2431 -0.4981
 1165HK4    C2397848   5.293   9.273   3.572 -0.0587 -0.0810 -0.3532
 1165HK4    H1097849   5.341   9.251   3.477 -0.5516  0.0184 -0.6302
 1165HK4    C3997850   5.259   8.968   3.510 -0.0893 -0.0023  0.0517
 1165HK4    C4197851   5.266   9.018   3.378  0.6835 -0.3069 -0.0272
 1165HK4    H2197852   5.196   9.101   3.360  0.5627 -0.5033 -0.4616
 1165HK4    C4297853   5.326   8.945   3.276  0.3166 -0.2142 -0.3130
 1165HK4    H2297854   5.329   8.996   3.179  0.4266 -2.2082 -1.3872
 1165HK4    C4397855   5.382   8.819   3.295 -0.9746 -0.7096  0.2910
 1165HK4    H2397856   5.427   8.769   3.210 -0.4801  2.1158 -1.1857
 1165HK4    C4497857   5.372   8.766   3.423 -0.1913 -0.4125  0.4803
 1165HK4    H2497858   5.458   8.699   3.439 -0.6858 -0.9213  1.0474
 1165HK4    C4597859   5.311   8.838   3.525 -0.5225 -0.1663  0.1087
 1165HK4    H2597860   5.281   8.777   3.612 -1.4051 -1.4908 -1.1004
 1166HK4    H2897861   0.047   5.743   8.214  0.6527 -0.3932  0.0942
 1166HK4    C4897862   0.020   5.821   8.284 -0.0717 -0.3087 -0.2725
 1166HK4    C4797863  11.134   5.844   8.315  0.0822 -0.0787  0.2222
 1166HK4    H2797864  11.058   5.801   8.248  0.8825 -1.9923  0.5156
 1166HK4    C4697865  11.100   5.928   8.421 -0.1745 -0.2602  0.2832
 1166HK4    H2697866  10.994   5.946   8.443 -0.1978  1.1221 -0.9026
 1166HK4    C4097867  11.202   5.999   8.487 -0.1377 -0.2042  0.1660
 1166HK4    C5097868   0.089   5.985   8.447 -0.2300  0.1913 -0.3001
 1166HK4    H3097869   0.174   6.046   8.480  0.2457 -0.8380  0.4106
 1166HK4    C4997870   0.121   5.889   8.352 -0.3514  0.4478 -0.5982
 1166HK4    H2997871   0.223   5.850   8.341 -0.6684 -0.7503  0.5782
 1166HK4     N297872  11.165   6.051   8.612 -0.0058  0.2014  0.0380
 1166HK4    C3097873  11.234   6.163   8.661  0.5523 -0.0526 -0.1639
 1166HK4    C2997874   0.002   6.285   8.596  0.4053 -0.0152 -0.1284
 1166HK4    H1597875  11.219   6.277   8.492  2.1708  2.8296 -0.9264
 1166HK4    C2897876   0.039   6.406   8.654  0.3345 -0.0061 -0.1037
 1166HK4    C2797877   0.072   6.396   8.790 -0.2460  0.8814  0.1112
 1166HK4    H1497878   0.098   6.486   8.848 -0.9627  0.1942  1.5347
 1166HK4    C3297879   0.065   6.274   8.857  0.1853  0.5337 -0.4748
 1166HK4    H1697880   0.076   6.263   8.964  3.2749 -2.8699 -1.0206
 1166HK4    C3197881   0.021   6.154   8.801 -0.8620  0.5745  0.2444
 1166HK4    C3497882  11.213   6.026   8.839 -0.2859  0.2570  0.0362
 1166HK4    C3397883  11.146   5.968   8.724  0.2390 -0.0573 -0.1096
 1166HK4    C3597884  11.062   5.858   8.741 -0.1799  0.2506 -0.1811
 1166HK4    H1797885  11.019   5.808   8.654  1.4435  2.9002 -2.5967
 1166HK4    C3697886  11.048   5.801   8.867  0.1596  0.3911 -0.0794
 1166HK4    H1897887  10.994   5.705   8.869  2.2507 -0.8119  0.1735
 1166HK4    C3797888  11.117   5.851   8.977 -0.1402  0.4904  0.0652
 1166HK4    H1997889  11.113   5.795   9.070 -1.1631  0.7603  0.1914
 1166HK4    C3897890  11.200   5.962   8.962 -0.0287  0.4186  0.1500
 1166HK4    H2097891   0.013   6.003   9.042  1.7002 -1.9073  0.0891
 1166HK4    C1497892   0.077   6.506   8.552  0.3780 -0.0448 -0.1243
 1166HK4     C997893   0.194   6.583   8.551 -0.0057  0.5625  0.9209
 1166HK4     C897894   0.200   6.709   8.488 -0.0439  0.2985  0.3850
 1166HK4    C1197895   0.089   6.749   8.414 -0.0040 -0.1288  0.0941
 1166HK4     H497896   0.089   6.846   8.362 -0.1520 -0.8189 -1.2243
 1166HK4    C1297897  11.218   6.678   8.408  0.1173 -0.3600  0.4180
 1166HK4     H597898  11.126   6.727   8.374 -0.6275 -2.4664 -0.7409
 1166HK4    C1397899  11.215   6.560   8.483 -0.1515 -0.2991  0.5083
 1166HK4     H697900  11.128   6.493   8.476  0.6861 -1.3815  0.2977
 1166HK4     C797901   0.327   6.784   8.488 -0.0479  0.3095 -0.2346
 1166HK4     O297902   0.316   6.906   8.491  0.3730  0.3388  0.1971
 1166HK4     C497903   0.449   6.717   8.539 -0.1197 -0.0288 -0.5047
 1166HK4     C397904   0.576   6.770   8.519 -0.0259  0.0469  0.2852
 1166HK4     H397905   0.590   6.842   8.437  1.2318  0.3774  0.7791
 1166HK4     C297906   0.686   6.718   8.587 -0.0233  0.6873  0.7917
 1166HK4     H297907   0.783   6.750   8.546 -1.4792  3.3392 -0.7470
 1166HK4     C197908   0.673   6.614   8.678 -0.0100 -0.5473 -0.5915
 1166HK4     H197909   0.766   6.573   8.721  0.8368  1.3080 -0.6210
 1166HK4     C697910   0.545   6.562   8.707 -0.0924 -0.3243 -0.5608
 1166HK4     C597911   0.440   6.607   8.627 -0.1512  0.2313 -0.1761
 1166HK4    C1097912   0.318   6.524   8.610  0.1725 -0.2353 -0.2307
 1166HK4     O197913   0.335   6.403   8.593  0.2443 -0.2369 -0.1513
 1166HK4    C1697914   0.541   6.494   8.837  0.1577  0.0776 -0.3360
 1166HK4    C1597915   0.419   6.498   8.908  0.2944 -0.7353 -0.0460
 1166HK4     H797916   0.349   6.579   8.881 -1.8156 -2.4035  0.2360
 1166HK4    C2097917   0.384   6.420   9.018 -0.0042 -0.1572  0.2711
 1166HK4     H997918   0.289   6.447   9.063 -1.5401  0.7847 -3.3338
 1166HK4    C1997919   0.487   6.342   9.068  0.5705  0.6756  0.4048
 1166HK4    C1897920   0.615   6.339   9.000 -0.4031 -0.5091 -1.4183
 1166HK4    C1797921   0.642   6.410   8.883  0.4827  0.2259 -0.7810
 1166HK4     H897922   0.718   6.377   8.812 -0.7176  0.3961 -2.1712
 1166HK4     N197923   0.698   6.244   9.063 -0.0885  0.7501  0.0956
 1166HK4    C2197924   0.625   6.185   9.168  0.2823  0.2298  0.0665
 1166HK4    C2297925   0.490   6.239   9.170  0.0904 -0.2244 -0.4694
 1166HK4    C2697926   0.405   6.197   9.271  0.3751  0.6253  0.1273
 1166HK4    H1397927   0.307   6.246   9.280  0.3630  0.3390  1.8528
 1166HK4    C2597928   0.427   6.089   9.356 -0.3782  0.1405 -0.2800
 1166HK4    H1297929   0.348   6.031   9.403  1.1404 -1.8817 -0.1941
 1166HK4    C2497930   0.550   6.025   9.344 -0.1211  0.5405  0.1743
 1166HK4    H1197931   0.581   5.954   9.422 -1.2694  1.4158  1.4553
 1166HK4    C2397932   0.643   6.078   9.256 -0.1220 -0.0413 -0.1806
 1166HK4    H1097933   0.745   6.042   9.268  1.0575  3.1261 -0.0988
 1166HK4    C3997934   0.837   6.240   9.053 -0.1178  0.0235 -0.0506
 1166HK4    C4197935   0.908   6.118   9.062 -0.0237  0.0487 -0.3974
 1166HK4    H2197936   0.859   6.028   9.021 -0.4697 -0.2071  0.6789
 1166HK4    C4297937   1.039   6.119   9.106 -0.1986 -0.1379  0.1341
 1166HK4    H2297938   1.093   6.023   9.098  0.4270  0.4338 -3.0696
 1166HK4    C4397939   1.113   6.235   9.125 -0.1367 -0.1882  0.2010
 1166HK4    H2397940   1.204   6.230   9.184  0.3101  1.0329 -0.3689
 1166HK4    C4497941   1.048   6.356   9.102  0.3527  0.1615  0.6423
 1166HK4    H2497942   1.091   6.450   9.138 -2.4139  1.9572 -0.5519
 1166HK4    C4597943   0.912   6.357   9.071  0.5258 -0.3700 -0.1622
 1166HK4    H2597944   0.853   6.450   9.068 -0.3868 -0.8373  2.0130
 1167HK4    H2897945   0.823  11.032   6.709 -0.5494  0.9971  0.6509
 1167HK4    C4897946   0.745  11.046   6.635  0.0387 -0.1787 -0.2014
 1167HK4    C4797947   0.614  11.042   6.680 -0.0195  0.4992 -0.3054
 1167HK4    H2797948   0.583  11.034   6.785  0.0771 -1.4570 -0.3969
 1167HK4    C4697949   0.506  11.060   6.593 -0.3527  0.4894  0.1035
 1167HK4    H2697950   0.410  11.077   6.643 -0.3926 -0.0484  0.2093
 1167HK4    C4097951   0.525  11.089   6.457 -0.2270 -0.5643 -0.1102
 1167HK4    C5097952   0.658  11.109   6.415 -0.2363 -0.5015 -0.1099
 1167HK4    H3097953   0.686  11.157   6.320 -2.8456 -0.4117 -0.8636
 1167HK4    C4997954   0.764  11.086   6.503 -0.0683 -0.4240 -0.2916
 1167HK4    H2997955   0.868  11.080   6.470  0.4745  0.7623  1.1450
 1167HK4     N297956   0.422  11.058   6.367  0.3068 -0.8547 -0.6258
 1167HK4    C3097957   0.307  10.980   6.390 -0.3114  0.0542 -0.6060
 1167HK4    C2997958   0.308  10.852   6.445 -0.1720  0.1314 -0.4294
 1167HK4    H1597959   0.400  10.816   6.492 -0.1694  0.6152 -0.0622
 1167HK4    C2897960   0.197  10.769   6.447  0.1431 -0.2699  0.6376
 1167HK4    C2797961   0.085  10.820   6.377  0.0063 -0.1312  0.9552
 1167HK4    H1497962  11.239  10.764   6.380 -0.6810  1.0701  2.1935
 1167HK4    C3297963   0.082  10.942   6.310  0.5301 -0.5956  0.0656
 1167HK4    H1697964  11.236  10.978   6.267 -0.0855 -1.8247  0.3613
 1167HK4    C3197965   0.197  11.020   6.303 -0.3083  0.6281 -0.3485
 1167HK4    C3497966   0.254  11.114   6.209 -0.0042  0.2628 -0.5321
 1167HK4    C3397967   0.385  11.146   6.263  0.1040 -0.5579 -0.3039
 1167HK4    C3597968   0.454   0.009   6.215 -0.0942 -0.5133 -0.4819
 1167HK4    H1797969   0.554   0.023   6.255  0.2059  0.2223 -1.4624
 1167HK4    C3697970   0.394   0.088   6.117  0.0719  0.2837  0.0616
 1167HK4    H1897971   0.437   0.180   6.075  2.7942 -0.7137  0.5655
 1167HK4    C3797972   0.273   0.054   6.060 -0.4295  0.8137  0.7962
 1167HK4    H1997973   0.254   0.075   5.954  1.2391 -0.9351  0.1256
 1167HK4    C3897974   0.198  11.197   6.113 -0.3340  0.0801 -0.5007
 1167HK4    H2097975   0.103  11.173   6.066  0.2201 -0.3674 -1.4100
 1167HK4    C1497976   0.206  10.638   6.511 -0.2909 -0.6526 -0.0796
 1167HK4     C997977   0.135  10.530   6.457 -0.6598 -0.1764 -0.5563
 1167HK4     C897978   0.060  10.445   6.541  0.2614 -0.2818  0.1685
 1167HK4    C1197979   0.053  10.468   6.678  0.0412 -0.3399  0.1666
 1167HK4     H497980  11.238  10.401   6.738  0.3460 -1.0971 -0.3567
 1167HK4    C1297981   0.139  10.564   6.730  0.0147 -0.0585 -0.2978
 1167HK4     H597982   0.150  10.575   6.839 -0.8710  2.1412 -0.4072
 1167HK4    C1397983   0.220  10.645   6.651  0.3295 -0.2432 -0.1622
 1167HK4     H697984   0.285  10.723   6.693 -1.2363  0.7101  0.5148
 1167HK4     C797985  11.239  10.324   6.490 -0.2201  0.3261 -0.6451
 1167HK4     O297986  11.127  10.298   6.532 -0.1751 -0.0866 -0.7776
 1167HK4     C497987   0.043  10.268   6.363 -0.2169 -0.1408 -0.4365
 1167HK4     C397988  11.236  10.147   6.323 -0.4464 -0.1070 -0.2275
 1167HK4     H397989  11.170  10.096   6.396  0.7303  2.1885  2.5457
 1167HK4     C297990   0.034  10.076   6.213  0.2282  0.4227 -0.2841
 1167HK4     H297991   0.030   9.967   6.213 -1.5501  0.4724 -1.0030
 1167HK4     C197992   0.134  10.137   6.137  0.1389  0.2439 -0.5472
 1167HK4     H197993   0.168  10.086   6.046 -0.6409 -0.3478 -0.5109
 1167HK4     C697994   0.197  10.254   6.186  0.8159 -0.3241 -0.0402
 1167HK4     C597995   0.149  10.329   6.294 -0.0420 -0.3785 -0.3731
 1167HK4    C1097996   0.184  10.469   6.329  0.1395 -0.4895 -0.1031
 1167HK4     O197997   0.212  10.552   6.243  0.0946  0.1455  0.4895
 1167HK4    C1697998   0.319  10.290   6.113  0.5107  0.0780 -0.3572
 1167HK4    C1597999   0.340  10.239   5.983  0.3911  0.0549 -0.3687
 1167HK4     H798000   0.253  10.221   5.919 -1.6888  1.6594  1.8908
 1167HK4    C2098001   0.468  10.214   5.935  0.2394  0.0460 -0.7645
 1167HK4     H998002   0.470  10.176   5.833 -0.7033 -2.6621  0.1998
 1167HK4    C1998003   0.576  10.260   6.009  0.0493 -0.8488  0.0718
 1167HK4    C1898004   0.552  10.341   6.127  0.3741 -0.3046 -0.2330
 1167HK4    C1798005   0.426  10.339   6.186  0.3782  0.1455 -0.2082
 1167HK4     H898006   0.428  10.354   6.295 -3.4208 -0.6433  0.0256
 1167HK4     N198007   0.672  10.404   6.167  0.0542  0.2387 -0.1172
 1167HK4    C2198008   0.764  10.376   6.063 -0.2016 -0.2020 -0.2297
 1167HK4    C2298009   0.714  10.278   5.968 -0.2704  0.1652 -0.5728
 1167HK4    C2698010   0.797  10.234   5.866  0.1512 -0.2682 -0.0529
 1167HK4    H1398011   0.758  10.182   5.778  0.4421 -2.8370  1.2893
 1167HK4    C2598012   0.930  10.272   5.864  0.1569 -0.2959 -0.2938
 1167HK4    H1298013   1.007  10.221   5.806  1.5517  1.3978  0.0112
 1167HK4    C2498014   0.984  10.365   5.953 -0.7572  0.4773 -0.5395
 1167HK4    H1198015   1.093  10.383   5.955 -0.7016  0.0872  0.3382
 1167HK4    C2398016   0.897  10.414   6.049 -0.3873  0.4741 -0.2034
 1167HK4    H1098017   0.931  10.507   6.093  0.2518  1.7127 -3.2176
 1167HK4    C3998018   0.686  10.516   6.248 -0.0529  0.5206 -0.4873
 1167HK4    C4198019   0.806  10.554   6.312 -0.2667 -0.0503  0.2600
 1167HK4    H2198020   0.875  10.477   6.350  2.7963  0.7718 -3.3357
 1167HK4    C4298021   0.847  10.683   6.346  1.1209 -0.2270 -0.7201
 1167HK4    H2298022   0.933  10.715   6.405 -0.4054 -0.9958  1.9759
 1167HK4    C4398023   0.754  10.778   6.305  0.2327 -0.5739  0.4523
 1167HK4    H2398024   0.787  10.881   6.289 -1.6890 -0.3481 -2.3795
 1167HK4    C4498025   0.626  10.753   6.256  0.0629  0.6134  0.2685
 1167HK4    H2498026   0.549  10.830   6.241 -2.1299 -1.6661 -0.4204
 1167HK4    C4598027   0.593  10.621   6.229 -0.1147  0.6318  0.3969
 1167HK4    H2598028   0.496  10.598   6.181  0.2194  0.5474 -0.2410
 1168HK4    H2898029   3.288   2.165   7.580 -0.5888 -0.9659 -1.4604
 1168HK4    C4898030   3.286   2.267   7.539  0.3446 -0.2158  0.3254
 1168HK4    C4798031   3.168   2.339   7.545  0.3137 -0.2143 -0.2752
 1168HK4    H2798032   3.075   2.281   7.536  1.6418 -1.9836 -3.1660
 1168HK4    C4698033   3.169   2.477   7.533 -0.3504 -0.2191 -0.3991
 1168HK4    H2698034   3.075   2.531   7.552 -0.6910 -0.7337 -0.6159
 1168HK4    C4098035   3.287   2.553   7.518 -0.4056 -0.0975 -0.2206
 1168HK4    C5098036   3.405   2.478   7.502 -0.2677  0.0979 -0.1252
 1168HK4    H3098037   3.495   2.527   7.463  0.5652 -0.8491  0.5869
 1168HK4    C4998038   3.402   2.339   7.514  0.0340  0.0798 -0.2587
 1168HK4    H2998039   3.499   2.287   7.517  0.0974  0.1531 -1.0495
 1168HK4     N298040   3.290   2.691   7.495 -0.2074 -0.1642 -0.6016
 1168HK4    C3098041   3.394   2.781   7.529 -0.2877 -0.2381 -0.1604
 1168HK4    C2998042   3.519   2.753   7.583 -0.3603  0.4607  0.3773
 1168HK4    H1598043   3.533   2.671   7.654  0.4139  2.5007  2.6396
 1168HK4    C2898044   3.625   2.841   7.565 -0.2640  0.2596 -0.0462
 1168HK4    C2798045   3.597   2.968   7.512  0.0334  0.0603 -0.6904
 1168HK4    H1498046   3.681   3.030   7.478 -1.6494  2.6240 -0.3758
 1168HK4    C3298047   3.473   3.007   7.462 -0.2337  0.3302  0.1693
 1168HK4    H1698048   3.455   3.105   7.416 -0.4080 -0.5102 -1.6075
 1168HK4    C3198049   3.372   2.911   7.470  0.2211 -0.1821 -0.2211
 1168HK4    C3498050   3.247   2.902   7.397  0.2468 -0.0532 -0.2825
 1168HK4    C3398051   3.206   2.763   7.408 -0.4177  0.1519 -0.1368
 1168HK4    C3598052   3.131   2.715   7.302  0.1041 -0.4310 -0.2478
 1168HK4    H1798053   3.094   2.613   7.297  0.0510 -0.4148 -0.2011
 1168HK4    C3698054   3.082   2.801   7.204 -0.1392 -0.4738 -0.1669
 1168HK4    H1898055   3.018   2.773   7.119  1.9552 -0.9878 -1.6478
 1168HK4    C3798056   3.102   2.938   7.209 -0.5387 -0.4321  0.3064
 1168HK4    H1998057   3.052   3.000   7.134 -1.3290  1.0741  2.0333
 1168HK4    C3898058   3.185   2.988   7.308 -0.3635 -0.1688  0.0285
 1168HK4    H2098059   3.173   3.093   7.336 -1.0126 -0.6240  1.4920
 1168HK4    C1498060   3.747   2.813   7.643 -0.1390  0.5452 -0.1400
 1168HK4     C998061   3.840   2.909   7.684  0.0598  0.1841  0.2532
 1168HK4     C898062   3.978   2.884   7.665 -0.0349  0.0945 -0.3275
 1168HK4    C1198063   4.016   2.759   7.619  0.3286 -0.0101  0.2464
 1168HK4     H498064   4.116   2.718   7.638  0.4660 -0.1822 -0.7942
 1168HK4    C1298065   3.928   2.656   7.587 -0.2876  0.5434  0.1478
 1168HK4     H598066   3.969   2.562   7.546  0.2612  0.9174 -0.1631
 1168HK4    C1398067   3.793   2.687   7.601 -0.3348  0.4812 -0.1647
 1168HK4     H698068   3.721   2.605   7.587  0.3609  0.0126 -1.0598
 1168HK4     C798069   4.073   2.996   7.679 -0.0415  0.0685 -0.0775
 1168HK4     O298070   4.193   2.974   7.659 -0.1180  0.2715 -0.7735
 1168HK4     C498071   4.022   3.132   7.704  0.2805  0.0747  0.5615
 1168HK4     C398072   4.114   3.237   7.710  0.4685 -0.0279 -0.5077
 1168HK4     H398073   4.218   3.215   7.737  0.3696  1.6647  1.4010
 1168HK4     C298074   4.073   3.369   7.715 -0.1606 -0.2114 -0.7791
 1168HK4     H298075   4.141   3.453   7.697  0.5570 -0.0235  2.5051
 1168HK4     C198076   3.936   3.397   7.709 -0.1804  0.0161  0.5836
 1168HK4     H198077   3.898   3.500   7.708  1.3516  0.5998  1.0503
 1168HK4     C698078   3.839   3.295   7.698  0.0728 -0.1922  0.2476
 1168HK4     C598079   3.884   3.163   7.703  0.2353 -0.1365  0.2635
 1168HK4    C1098080   3.795   3.045   7.724 -0.1315  0.1326  0.2155
 1168HK4     O198081   3.722   3.044   7.824  0.5474  0.3962  0.7196
 1168HK4    C1698082   3.712   3.339   7.639  0.3365 -0.3663 -0.4439
 1168HK4    C1598083   3.700   3.442   7.542  0.2158 -0.0016 -0.0452
 1168HK4     H798084   3.798   3.465   7.498  0.5787 -0.8803  0.2859
 1168HK4    C2098085   3.582   3.480   7.480 -0.1766 -0.4501  0.4195
 1168HK4     H998086   3.591   3.542   7.391 -1.4355  1.3247  1.4958
 1168HK4    C1998087   3.465   3.414   7.514 -0.4128 -0.0588  0.3647
 1168HK4    C1898088   3.468   3.312   7.617  0.2703  0.2410  0.6402
 1168HK4    C1798089   3.591   3.280   7.673  0.4428 -0.3703 -0.0799
 1168HK4     H898090   3.586   3.241   7.775  0.4176  0.7813  0.3700
 1168HK4     N198091   3.340   3.288   7.670  0.1452  0.2945  0.3584
 1168HK4    C2198092   3.251   3.359   7.585  0.3180 -0.2398 -0.2681
 1168HK4    C2298093   3.324   3.436   7.486 -0.2404 -0.2942 -0.7234
 1168HK4    C2698094   3.265   3.506   7.382  0.3376  0.3174 -0.6375
 1168HK4    H1398095   3.331   3.554   7.309  0.3468  0.1043 -0.7682
 1168HK4    C2598096   3.128   3.491   7.361  0.2421  0.6089 -0.2247
 1168HK4    H1298097   3.079   3.530   7.272  3.0698 -0.4263 -2.3302
 1168HK4    C2498098   3.052   3.414   7.448  0.4841  0.0389 -0.5185
 1168HK4    H1198099   2.944   3.416   7.426  0.6261  0.4076 -1.2006
 1168HK4    C2398100   3.115   3.355   7.556  0.3139  0.2500 -0.3035
 1168HK4    H1098101   3.060   3.306   7.636 -1.3708  0.3777 -1.3626
 1168HK4    C3998102   3.314   3.192   7.768 -0.0825 -0.2705 -0.2562
 1168HK4    C4198103   3.193   3.194   7.840  0.0215  0.2451 -0.0971
 1168HK4    H2198104   3.162   3.292   7.878 -0.2355 -0.0264  0.3950
 1168HK4    C4298105   3.146   3.087   7.915  0.0788  0.2698 -0.0264
 1168HK4    H2298106   3.072   3.110   7.994 -0.2899 -0.9387 -0.0172
 1168HK4    C4398107   3.212   2.965   7.917  0.1773  0.3282  0.5002
 1168HK4    H2398108   3.189   2.887   7.988 -0.3511  0.3951  0.4018
 1168HK4    C4498109   3.332   2.959   7.845  0.2389 -0.1852  0.6503
 1168HK4    H2498110   3.380   2.861   7.834 -0.2027 -0.1467 -1.7710
 1168HK4    C4598111   3.382   3.068   7.776  0.1065 -0.1072  0.6761
 1168HK4    H2598112   3.480   3.054   7.728 -0.9780  0.7516 -1.8926
 1169HK4    H2898113   1.553   6.600   2.194  1.0445  2.0911  1.2399
 1169HK4    C4898114   1.598   6.628   2.098  0.0067  0.0140  0.1061
 1169HK4    C4798115   1.552   6.736   2.023  0.3083  0.0100 -0.0838
 1169HK4    H2798116   1.474   6.806   2.056  0.3793  0.9096 -1.7390
 1169HK4    C4698117   1.613   6.768   1.902  0.3649  0.3998  0.0497
 1169HK4    H2698118   1.559   6.831   1.830 -0.9633  1.0452  1.5599
 1169HK4    C4098119   1.728   6.697   1.863 -0.1455 -0.4166  0.0355
 1169HK4    C5098120   1.770   6.582   1.934 -0.2701 -0.3666  0.1937
 1169HK4    H3098121   1.854   6.520   1.899 -0.5019 -0.6567  0.1575
 1169HK4    C4998122   1.705   6.552   2.053  0.0616 -0.1124  0.4419
 1169HK4    H2998123   1.737   6.466   2.113 -0.5799 -2.4236 -2.4066
 1169HK4     N298124   1.827   6.762   1.789 -0.6572 -0.0160 -0.3052
 1169HK4    C3098125   1.856   6.899   1.796 -0.2280 -0.1462  0.6596
 1169HK4    C2998126   1.809   6.998   1.882 -1.0411 -0.1709  0.2530
 1169HK4    H1598127   1.740   6.965   1.960 -2.1330 -1.5386 -1.2502
 1169HK4    C2898128   1.862   7.126   1.891 -0.7302 -0.2176 -0.8360
 1169HK4    C2798129   1.957   7.164   1.794  0.0862 -0.2295 -0.0451
 1169HK4    H1498130   2.010   7.260   1.808  2.4469 -1.6495  1.3529
 1169HK4    C3298131   2.006   7.070   1.704  0.7290 -0.3405  0.4141
 1169HK4    H1698132   2.076   7.096   1.625 -1.1041 -2.0565 -1.8552
 1169HK4    C3198133   1.958   6.939   1.701 -1.2790  0.3980 -0.2584
 1169HK4    C3498134   1.995   6.818   1.631 -0.4754  0.3135  0.3072
 1169HK4    C3398135   1.910   6.714   1.686 -0.0825 -0.0770  0.1785
 1169HK4    C3598136   1.909   6.593   1.617 -0.1668  0.2212 -0.3517
 1169HK4    H1798137   1.812   6.543   1.626 -1.3039  1.9385 -2.7698
 1169HK4    C3698138   1.987   6.564   1.507 -0.1205  0.3093 -0.3421
 1169HK4    H1898139   1.986   6.465   1.458  2.1243  0.2645 -0.3721
 1169HK4    C3798140   2.072   6.665   1.465  0.6788 -0.1505  0.1435
 1169HK4    H1998141   2.153   6.652   1.392  3.2545  1.4272  2.6066
 1169HK4    C3898142   2.078   6.791   1.523 -0.6836 -0.1293  0.2547
 1169HK4    H2098143   2.128   6.867   1.462 -0.2929 -0.2321  0.4428
 1169HK4    C1498144   1.789   7.221   1.976 -0.3072 -0.5411 -0.1001
 1169HK4     C998145   1.795   7.357   1.942  0.8924 -0.5317  0.0994
 1169HK4     C898146   1.820   7.453   2.041 -0.1219 -0.1773  0.0195
 1169HK4    C1198147   1.820   7.413   2.174 -0.4923  0.0721  0.0961
 1169HK4     H498148   1.833   7.484   2.257  3.0189 -0.5079  0.1144
 1169HK4    C1298149   1.796   7.281   2.212  0.0309 -0.1681 -0.3853
 1169HK4     H598150   1.783   7.265   2.320  1.4008  1.9185  0.1148
 1169HK4    C1398151   1.783   7.186   2.112 -0.4330 -0.4306 -0.0767
 1169HK4     H698152   1.767   7.082   2.145  1.7414 -0.4745  0.9298
 1169HK4     C798153   1.843   7.595   2.004 -0.6186 -0.1461 -0.1722
 1169HK4     O298154   1.873   7.674   2.093 -0.6433 -0.2203 -0.0986
 1169HK4     C498155   1.835   7.637   1.862  0.3791 -0.0564 -0.2018
 1169HK4     C398156   1.858   7.770   1.829  0.7826 -0.1026 -0.1170
 1169HK4     H398157   1.905   7.832   1.906  1.6401 -0.2240 -0.5429
 1169HK4     C298158   1.828   7.824   1.705  0.3416  0.1819  0.1104
 1169HK4     H298159   1.860   7.924   1.673 -1.0488  0.9083  0.9516
 1169HK4     C198160   1.777   7.735   1.611  0.5492  0.2074 -0.0255
 1169HK4     H198161   1.731   7.773   1.518  0.2216 -0.7006 -0.2407
 1169HK4     C698162   1.755   7.599   1.638 -0.0597  0.3954  0.4247
 1169HK4     C598163   1.788   7.547   1.763  0.2451 -0.2841  0.0684
 1169HK4    C1098164   1.761   7.407   1.806  0.1367 -0.1563  0.4233
 1169HK4     O198165   1.679   7.337   1.745  0.2452  0.0253  0.0661
 1169HK4    C1698166   1.678   7.530   1.533  0.6119  0.4982 -0.1409
 1169HK4    C1598167   1.577   7.598   1.461 -0.1265 -0.5285 -0.0963
 1169HK4     H798168   1.501   7.648   1.523  1.2804  0.0189  1.2504
 1169HK4    C2098169   1.552   7.574   1.327 -0.5563 -1.0570  0.0753
 1169HK4     H998170   1.464   7.616   1.277  0.4647  0.4556 -0.5116
 1169HK4    C1998171   1.622   7.473   1.263 -0.4742 -0.9298 -0.0336
 1169HK4    C1898172   1.715   7.389   1.335  0.4337 -0.1226 -0.2409
 1169HK4    C1798173   1.737   7.422   1.468 -0.6407 -0.2712 -0.0229
 1169HK4     H898174   1.805   7.358   1.524 -2.2768 -1.7260  0.3507
 1169HK4     N198175   1.757   7.275   1.264  0.1267 -0.1676 -0.3516
 1169HK4    C2198176   1.691   7.290   1.140 -0.1218 -0.0248 -0.2014
 1169HK4    C2298177   1.610   7.410   1.133  0.2763  0.2195 -0.6758
 1169HK4    C2698178   1.525   7.433   1.025 -0.7765 -0.1785  0.0636
 1169HK4    H1398179   1.469   7.527   1.020 -1.5980 -0.5620  1.5723
 1169HK4    C2598180   1.518   7.341   0.921 -0.2998  0.2109 -0.3126
 1169HK4    H1298181   1.447   7.345   0.839 -0.4882 -0.7157 -0.1937
 1169HK4    C2498182   1.604   7.232   0.922 -0.9737 -0.3290  1.0095
 1169HK4    H1198183   1.582   7.146   0.857 -0.6414 -2.0844  3.1843
 1169HK4    C2398184   1.687   7.205   1.030  0.1879 -0.4372  0.1051
 1169HK4    H1098185   1.723   7.103   1.042 -0.0012 -0.4445  0.6452
 1169HK4    C3998186   1.796   7.157   1.327  0.8406  0.4828  0.4277
 1169HK4    C4198187   1.877   7.061   1.261 -0.0201 -0.1225  0.2475
 1169HK4    H2198188   1.931   7.090   1.170 -0.4136  2.0575  0.6632
 1169HK4    C4298189   1.874   6.924   1.283  0.6183 -0.2017 -0.1681
 1169HK4    H2298190   1.942   6.862   1.221  0.7536 -0.3478  0.1290
 1169HK4    C4398191   1.791   6.872   1.381  0.6109  0.1097 -0.0090
 1169HK4    H2398192   1.795   6.766   1.405 -0.6777  0.5577  2.3033
 1169HK4    C4498193   1.721   6.963   1.460 -0.0683  0.1467 -0.6405
 1169HK4    H2498194   1.659   6.915   1.536  0.6597 -0.3038 -0.3269
 1169HK4    C4598195   1.723   7.100   1.433 -0.0331  0.2094 -0.3191
 1169HK4    H2598196   1.677   7.172   1.502 -0.7397 -2.1352  1.7412
 1170HK4    H2898197   3.304   7.631   4.788 -1.7674 -1.2267 -0.2371
 1170HK4    C4898198   3.393   7.576   4.758 -0.5491  0.2456  0.6017
 1170HK4    C4798199   3.363   7.461   4.687  0.3400  0.2539  0.2170
 1170HK4    H2798200   3.260   7.426   4.674 -0.3137  1.6948  1.4306
 1170HK4    C4698201   3.469   7.382   4.643  0.1704  0.1748 -0.0520
 1170HK4    H2698202   3.444   7.296   4.578  0.1716  0.7836 -0.8641
 1170HK4    C4098203   3.606   7.410   4.664  0.1545 -0.0425  0.3561
 1170HK4    C5098204   3.631   7.525   4.742 -0.1089  0.1092  0.2170
 1170HK4    H3098205   3.733   7.562   4.758 -0.1742  0.1491  0.5496
 1170HK4    C4998206   3.526   7.605   4.786 -0.3790 -0.3443  0.4000
 1170HK4    H2998207   3.549   7.697   4.842  0.4232 -0.3528  0.0988
 1170HK4     N298208   3.698   7.329   4.597 -0.2918 -0.0642 -0.2442
 1170HK4    C3098209   3.682   7.192   4.565 -0.4295 -0.1597  0.2231
 1170HK4    C2998210   3.603   7.091   4.617  0.0008 -0.2200  0.7730
 1170HK4    H1598211   3.526   7.116   4.690 -2.3828  0.8838 -2.0270
 1170HK4    C2898212   3.619   6.958   4.577  0.0062  0.1769 -0.5695
 1170HK4    C2798213   3.721   6.929   4.484  0.3106  0.0794 -0.2068
 1170HK4    H1498214   3.728   6.822   4.459 -1.4245 -0.1729  0.3294
 1170HK4    C3298215   3.799   7.026   4.424  0.1645  0.4452  0.1899
 1170HK4    H1698216   3.875   7.001   4.349 -0.4118  1.5499 -0.7796
 1170HK4    C3198217   3.782   7.158   4.466 -0.4182  0.4206  0.0292
 1170HK4    C3498218   3.857   7.278   4.436 -0.1206  0.3362  0.4426
 1170HK4    C3398219   3.803   7.382   4.521 -0.0555  0.4025  0.4023
 1170HK4    C3598220   3.874   7.502   4.519 -0.2984  0.5351 -0.5476
 1170HK4    H1798221   3.823   7.590   4.557  0.9768  1.0664 -0.0482
 1170HK4    C3698222   3.989   7.518   4.441  0.3083 -0.0572  0.2167
 1170HK4    H1898223   4.030   7.619   4.429 -0.3441  0.1783 -0.0440
 1170HK4    C3798224   4.046   7.415   4.367 -0.3703 -0.3654  0.1189
 1170HK4    H1998225   4.135   7.436   4.308 -1.1852 -1.4555 -1.5645
 1170HK4    C3898226   3.980   7.293   4.371 -0.1859 -0.4633  0.1223
 1170HK4    H2098227   4.015   7.221   4.297  0.5600  2.7217 -2.7390
 1170HK4    C1498228   3.540   6.852   4.640  0.1837  0.5295  0.2543
 1170HK4     C998229   3.589   6.727   4.681 -0.0521  0.3535 -0.0020
 1170HK4     C898230   3.500   6.628   4.730  0.0431  0.3117  0.0872
 1170HK4    C1198231   3.365   6.659   4.735 -0.0849 -0.2642  0.1614
 1170HK4     H498232   3.303   6.582   4.784  1.9493 -2.4920 -0.6670
 1170HK4    C1298233   3.313   6.775   4.679  0.1722 -0.5300 -0.6345
 1170HK4     H598234   3.204   6.789   4.686  0.2724  0.7951 -1.5359
 1170HK4    C1398235   3.401   6.871   4.631  0.0994 -0.3337 -0.3758
 1170HK4     H698236   3.356   6.960   4.585  1.6471 -0.6889 -2.6621
 1170HK4     C798237   3.554   6.494   4.761 -0.1318  0.3595  0.5951
 1170HK4     O298238   3.500   6.419   4.842 -0.1850 -0.1158  0.1216
 1170HK4     C498239   3.695   6.458   4.734 -0.3654  0.1769 -0.4006
 1170HK4     C398240   3.746   6.331   4.761  1.0011  0.8843  0.4093
 1170HK4     H398241   3.682   6.264   4.821 -0.1074  1.5457 -0.0181
 1170HK4     C298242   3.871   6.286   4.721  0.3467 -0.3227 -0.3049
 1170HK4     H298243   3.917   6.191   4.753  0.4371 -0.7545 -1.6705
 1170HK4     C198244   3.944   6.380   4.650 -0.2611  0.2174 -0.2195
 1170HK4     H198245   4.022   6.334   4.588 -1.0200  1.1026 -1.8542
 1170HK4     C698246   3.913   6.517   4.641 -0.1171  0.2808  0.1828
 1170HK4     C598247   3.785   6.554   4.685 -0.4420  0.1326 -0.6279
 1170HK4    C1098248   3.734   6.694   4.681 -0.0676  0.2811 -0.2059
 1170HK4     O198249   3.801   6.781   4.737  0.6673 -0.4270  0.0111
 1170HK4    C1698250   4.001   6.597   4.554 -0.1015  0.3253  0.2389
 1170HK4    C1598251   4.057   6.536   4.440 -0.5118  0.1741  0.1193
 1170HK4     H798252   4.015   6.442   4.400  1.4105 -0.8604  0.4679
 1170HK4    C2098253   4.160   6.591   4.366 -0.1355 -0.2194  0.3529
 1170HK4     H998254   4.202   6.547   4.274  1.5281  4.0913 -1.0853
 1170HK4    C1998255   4.211   6.713   4.409 -0.2858 -0.1091  0.2195
 1170HK4    C1898256   4.179   6.768   4.539  0.4515  0.0257  0.3451
 1170HK4    C1798257   4.072   6.706   4.603  0.2071  0.1888  0.0939
 1170HK4     H898258   4.053   6.750   4.701 -1.2835  1.0748 -0.5665
 1170HK4     N198259   4.276   6.862   4.579  0.4138 -0.0180  0.5367
 1170HK4    C2198260   4.368   6.869   4.472 -0.5160  0.4760 -0.2340
 1170HK4    C2298261   4.332   6.779   4.364 -0.0948 -0.3771  0.3366
 1170HK4    C2698262   4.420   6.773   4.256 -0.2742 -0.2190  0.1840
 1170HK4    H1398263   4.389   6.720   4.165 -0.1786  1.0824 -0.6215
 1170HK4    C2598264   4.537   6.847   4.246 -0.0398 -0.6339 -0.2039
 1170HK4    H1298265   4.604   6.845   4.160 -0.0927  0.1632 -0.2685
 1170HK4    C2498266   4.579   6.919   4.357 -0.4690 -0.1925 -0.3264
 1170HK4    H1198267   4.678   6.966   4.370 -0.8180  0.4563  0.0391
 1170HK4    C2398268   4.493   6.929   4.466 -0.3062  0.0474 -0.2197
 1170HK4    H1098269   4.524   6.990   4.551  0.1954 -0.5397  0.0196
 1170HK4    C3998270   4.256   6.958   4.678  0.2033  0.2482  0.2384
 1170HK4    C4198271   4.363   7.002   4.759  0.4725  0.3612 -0.1816
 1170HK4    H2198272   4.462   6.956   4.755  0.8197  1.0758  0.0604
 1170HK4    C4298273   4.341   7.119   4.831 -0.4422 -0.1504  0.3876
 1170HK4    H2298274   4.424   7.153   4.894 -1.3149  1.4546  0.6981
 1170HK4    C4398275   4.217   7.180   4.843 -0.4812 -0.1607  0.0495
 1170HK4    H2398276   4.200   7.254   4.921 -2.3125  0.1665 -0.6302
 1170HK4    C4498277   4.113   7.131   4.765 -0.6654  0.2296  0.0489
 1170HK4    H2498278   4.013   7.175   4.767  0.0708  1.9218  0.2216
 1170HK4    C4598279   4.131   7.023   4.678 -0.0260 -0.1908  0.6879
 1170HK4    H2598280   4.047   6.998   4.611  0.6991 -1.1975  0.1437
 1171HK4    H2898281   0.800   0.877   4.237 -0.9083  0.6645  0.2724
 1171HK4    C4898282   0.817   0.933   4.145 -0.0030 -0.3362 -0.1735
 1171HK4    C4798283   0.710   0.955   4.059 -0.1004 -0.2246 -0.0231
 1171HK4    H2798284   0.608   0.919   4.081  0.6683 -1.7760  1.1946
 1171HK4    C4698285   0.726   1.021   3.938 -0.3381  0.4817  0.3279
 1171HK4    H2698286   0.644   1.064   3.880 -0.3003  0.3256  0.1603
 1171HK4    C4098287   0.856   1.045   3.890 -0.2624  0.1509  0.3656
 1171HK4    C5098288   0.966   1.024   3.976 -0.1586  0.9921  0.4449
 1171HK4    H3098289   1.069   1.031   3.940 -0.1795  0.0116  0.1685
 1171HK4    C4998290   0.945   0.968   4.102 -0.1022  0.5795  0.2724
 1171HK4    H2998291   1.034   0.949   4.163 -1.0992  2.2402  2.3088
 1171HK4     N298292   0.883   1.060   3.753 -0.1761 -0.0446  0.3616
 1171HK4    C3098293   0.801   1.016   3.647  0.2633 -0.4733  0.1928
 1171HK4    C2998294   0.696   0.925   3.644  0.0535 -0.2363  0.2783
 1171HK4    H1598295   0.656   0.890   3.739 -2.2510 -1.1271 -0.9957
 1171HK4    C2898296   0.647   0.874   3.525 -0.2799  0.1353  0.2532
 1171HK4    C2798297   0.705   0.917   3.404 -0.0426  0.0273  0.3281
 1171HK4    H1498298   0.685   0.866   3.309  0.2335  1.4536 -0.5149
 1171HK4    C3298299   0.809   1.009   3.400  0.2180 -0.2623  0.4166
 1171HK4    H1698300   0.857   1.030   3.305 -0.6027  0.0365  0.0622
 1171HK4    C3198301   0.855   1.063   3.520 -0.0779  0.2396  0.3067
 1171HK4    C3498302   0.984   1.122   3.552 -0.2696  0.6524  0.3223
 1171HK4    C3398303   0.992   1.130   3.696 -0.1136 -0.1424  0.3599
 1171HK4    C3598304   1.114   1.176   3.745 -0.1544  0.5805 -0.2144
 1171HK4    H1798305   1.109   1.219   3.845 -2.1100  2.1071 -0.9249
 1171HK4    C3698306   1.226   1.188   3.665  0.1106 -0.2710  0.0194
 1171HK4    H1898307   1.324   1.211   3.710  0.1892 -0.4251 -0.0732
 1171HK4    C3798308   1.214   1.174   3.527  0.2094 -1.0508  0.0885
 1171HK4    H1998309   1.298   1.203   3.464 -0.3560  0.1345 -0.1369
 1171HK4    C3898310   1.092   1.144   3.468 -0.0297 -0.5142  0.3079
 1171HK4    H2098311   1.084   1.156   3.360  0.6381 -4.0138 -0.1738
 1171HK4    C1498312   0.568   0.750   3.524 -0.4063  0.2183  0.0194
 1171HK4     C998313   0.573   0.649   3.427  0.0178 -0.0856  0.3555
 1171HK4     C898314   0.460   0.573   3.391  0.1951 -0.1825 -0.0035
 1171HK4    C1198315   0.350   0.581   3.476 -0.2143  0.7489 -0.6211
 1171HK4     H498316   0.265   0.511   3.465 -0.1532  0.1188  2.4922
 1171HK4    C1298317   0.344   0.670   3.582 -0.6584 -0.0544  0.0345
 1171HK4     H598318   0.259   0.678   3.652 -0.1388 -0.2233  0.6897
 1171HK4    C1398319   0.451   0.757   3.603 -0.7997  0.2644 -0.5634
 1171HK4     H698320   0.466   0.799   3.703  1.5760 -0.8533 -0.3954
 1171HK4     C798321   0.457   0.483   3.274  0.3306 -0.0352 -0.1206
 1171HK4     O298322   0.357   0.425   3.232  0.4548 -0.1646 -0.2410
 1171HK4     C498323   0.584   0.462   3.201  0.4663 -0.0920  0.1314
 1171HK4     C398324   0.583   0.377   3.091 -0.9170  0.1833 -0.0719
 1171HK4     H398325   0.490   0.322   3.070 -1.6729  1.8271 -1.1328
 1171HK4     C298326   0.694   0.367   3.009 -0.6237  0.3437  0.3055
 1171HK4     H298327   0.694   0.302   2.920 -2.9596  0.7582 -0.0241
 1171HK4     C198328   0.802   0.451   3.032 -0.0850 -0.1874 -0.2277
 1171HK4     H198329   0.898   0.438   2.980 -0.4015 -0.7098 -0.6735
 1171HK4     C698330   0.802   0.542   3.141 -0.2413 -0.0630 -0.3297
 1171HK4     C598331   0.701   0.531   3.238  0.4571 -0.2115  0.3847
 1171HK4    C1098332   0.702   0.609   3.365 -0.0129 -0.6289  0.6439
 1171HK4     O198333   0.808   0.612   3.428  0.3071  0.5006  0.0657
 1171HK4    C1698334   0.877   0.667   3.122  0.0474 -0.1834  0.0119
 1171HK4    C1598335   0.863   0.740   3.002  0.3652  0.1969  0.2096
 1171HK4     H798336   0.783   0.708   2.935  1.0077  0.6397 -0.7759
 1171HK4    C2098337   0.945   0.850   2.978  0.1932  0.2849  0.0296
 1171HK4     H998338   0.911   0.915   2.897 -1.1207 -0.3249  0.0831
 1171HK4    C1998339   1.045   0.888   3.067  0.9028 -0.1600 -0.5811
 1171HK4    C1898340   1.068   0.805   3.184  0.0034  0.3803 -0.0186
 1171HK4    C1798341   0.980   0.700   3.209  0.4294 -0.0868 -0.4760
 1171HK4     H898342   1.000   0.630   3.291 -1.2813 -1.7213 -1.4107
 1171HK4     N198343   1.178   0.850   3.260  0.2297  0.0099 -0.1274
 1171HK4    C2198344   1.227   0.956   3.182 -0.1080  0.3859  0.1666
 1171HK4    C2298345   1.145   0.993   3.068  0.3144  0.3979 -0.1385
 1171HK4    C2698346   1.181   1.094   2.980  0.4235 -0.0066 -0.5581
 1171HK4    H1398347   1.108   1.131   2.908 -1.2267 -0.9681  0.6006
 1171HK4    C2598348   1.297   1.165   3.011  0.2814 -0.0934  0.1857
 1171HK4    H1298349   1.333   1.222   2.925 -0.5243 -1.3354 -1.0072
 1171HK4    C2498350   1.378   1.136   3.120  0.0658  0.1935  0.4226
 1171HK4    H1198351   1.467   1.200   3.128 -0.4563  0.8676  0.9115
 1171HK4    C2398352   1.344   1.029   3.202  0.2932 -0.2043  0.0040
 1171HK4    H1098353   1.426   0.981   3.255  2.2269  3.5472  0.5774
 1171HK4    C3998354   1.207   0.821   3.394 -0.2859 -0.7376 -0.1738
 1171HK4    C4198355   1.334   0.839   3.452 -0.4958 -1.0627  0.3845
 1171HK4    H2198356   1.418   0.812   3.387 -0.6483  0.5619 -0.5104
 1171HK4    C4298357   1.359   0.862   3.587 -0.2229 -0.3204  0.2088
 1171HK4    H2298358   1.453   0.907   3.624 -0.4122 -1.1890  1.7804
 1171HK4    C4398359   1.252   0.844   3.674 -0.2780 -0.0610  0.1962
 1171HK4    H2398360   1.273   0.824   3.779  1.3022 -2.5589 -0.5372
 1171HK4    C4498361   1.124   0.835   3.621 -0.2637  0.0620  0.1398
 1171HK4    H2498362   1.040   0.847   3.690  1.3149  1.3425  1.8753
 1171HK4    C4598363   1.100   0.816   3.485 -0.0789  0.0551  0.1083
 1171HK4    H2598364   0.996   0.808   3.451 -0.7937 -0.5576  2.3632
 1172HK4    H2898365   9.323   9.047   7.611  0.1222  0.5193  0.1773
 1172HK4    C4898366   9.240   9.088   7.668 -0.1425 -0.1196  0.2499
 1172HK4    C4798367   9.180   9.207   7.630 -0.3164 -0.3194 -0.1028
 1172HK4    H2798368   9.231   9.264   7.550  0.5567  0.5457  1.0557
 1172HK4    C4698369   9.072   9.255   7.703 -0.1304  0.1155 -0.1130
 1172HK4    H2698370   9.015   9.340   7.665 -2.2249 -1.9059 -1.6244
 1172HK4    C4098371   9.027   9.192   7.821 -0.1702  0.7480  0.2106
 1172HK4    C5098372   9.101   9.079   7.861 -0.0064  0.9728  0.5563
 1172HK4    H3098373   9.111   9.055   7.968 -0.6409 -0.6565  0.2712
 1172HK4    C4998374   9.200   9.021   7.783 -0.9818  0.0106  0.0313
 1172HK4    H2998375   9.264   8.939   7.818  0.4906  1.5887  1.0392
 1172HK4     N298376   8.892   9.199   7.856 -0.2155 -0.0813  0.2127
 1172HK4    C3098377   8.776   9.206   7.776 -0.1222 -0.5124  0.0431
 1172HK4    C2998378   8.754   9.233   7.641  0.2244 -0.3678  0.0143
 1172HK4    H1598379   8.835   9.246   7.569 -0.1913  0.9811 -0.2128
 1172HK4    C2898380   8.627   9.241   7.584  0.1806  0.3989  0.2199
 1172HK4    C2798381   8.515   9.213   7.664 -0.2712  0.8347 -0.2574
 1172HK4    H1498382   8.422   9.189   7.611  0.2041 -1.4804 -0.0679
 1172HK4    C3298383   8.529   9.199   7.802  0.3628 -0.1044 -0.4134
 1172HK4    H1698384   8.435   9.200   7.859  1.0891  2.7817  0.7865
 1172HK4    C3198385   8.656   9.190   7.856  0.0356  0.4276  0.4688
 1172HK4    C3498386   8.700   9.179   7.993  0.2238 -0.6552  0.3267
 1172HK4    C3398387   8.845   9.192   7.989  0.1705 -0.0429  0.3538
 1172HK4    C3598388   8.913   9.232   8.103  0.4271  0.2273  0.1102
 1172HK4    H1798389   9.021   9.238   8.105  0.6495 -2.9592  0.2907
 1172HK4    C3698390   8.841   9.230   8.222  0.2270  0.0194 -0.0146
 1172HK4    H1898391   8.892   9.252   8.317  2.6731  0.6324 -1.4274
 1172HK4    C3798392   8.704   9.208   8.229  0.3026 -0.4681  0.0002
 1172HK4    H1998393   8.656   9.180   8.323  0.5151 -2.2304 -0.3937
 1172HK4    C3898394   8.630   9.183   8.114 -0.0031 -0.4446  0.1899
 1172HK4    H2098395   8.522   9.177   8.117  0.0736 -1.7149  0.8627
 1172HK4    C1498396   8.607   9.305   7.453 -0.0330 -0.0883  0.0185
 1172HK4     C998397   8.494   9.380   7.417 -0.1918 -0.2015  0.2719
 1172HK4     C898398   8.454   9.394   7.283 -0.8126 -0.7208  0.4000
 1172HK4    C1198399   8.531   9.344   7.178  0.1861 -0.1303  0.8473
 1172HK4     H498400   8.506   9.368   7.074  1.7631  1.0573  0.7258
 1172HK4    C1298401   8.647   9.275   7.213  0.3735 -0.0243  0.4361
 1172HK4     H598402   8.720   9.264   7.131 -0.0293 -0.4616  0.1372
 1172HK4    C1398403   8.679   9.250   7.345  0.5420 -0.0575  0.3882
 1172HK4     H698404   8.748   9.165   7.356  0.3767 -0.0246  1.7613
 1172HK4     C798405   8.326   9.461   7.251 -0.2988  0.1570  0.1708
 1172HK4     O298406   8.301   9.503   7.138  0.4231 -0.0003 -0.0475
 1172HK4     C498407   8.234   9.486   7.364 -0.2366 -0.7768  0.4244
 1172HK4     C398408   8.097   9.495   7.339 -0.1214 -0.4587 -0.0757
 1172HK4     H398409   8.064   9.500   7.234 -3.5931 -1.7715  0.9022
 1172HK4     C298410   8.007   9.521   7.441 -0.0156 -0.3838 -0.0012
 1172HK4     H298411   7.905   9.556   7.415  0.1431 -0.1827 -0.3663
 1172HK4     C198412   8.054   9.522   7.572 -0.2607  0.6461  0.0866
 1172HK4     H198413   7.982   9.561   7.645  1.8819  1.4932  1.7886
 1172HK4     C698414   8.189   9.499   7.604 -0.3222 -0.0298 -0.1141
 1172HK4     C598415   8.280   9.492   7.497  0.1253  0.0882  0.2602
 1172HK4    C1098416   8.422   9.456   7.524  0.1065  0.0342  0.3053
 1172HK4     O198417   8.481   9.531   7.601 -0.1088 -0.4197  0.9108
 1172HK4    C1698418   8.215   9.434   7.733  0.3935 -0.3129 -0.3974
 1172HK4    C1598419   8.125   9.331   7.766  0.1743  0.0924  0.2639
 1172HK4     H798420   8.067   9.290   7.682 -0.0845  1.5242 -0.2626
 1172HK4    C2098421   8.124   9.268   7.890 -0.5280 -0.3469  0.0384
 1172HK4     H998422   8.055   9.188   7.916  0.3304 -0.9184  0.6076
 1172HK4    C1998423   8.206   9.323   7.988 -0.5960  0.3722 -0.3065
 1172HK4    C1898424   8.281   9.445   7.966 -0.6341  0.4320 -0.1201
 1172HK4    C1798425   8.284   9.496   7.836 -0.3213  0.1776 -0.2142
 1172HK4     H898426   8.327   9.595   7.819 -0.2526 -0.0347 -1.2785
 1172HK4     N198427   8.346   9.491   8.082 -0.0586 -0.1926 -0.1896
 1172HK4    C2198428   8.304   9.407   8.187  0.7490 -0.4604 -0.0804
 1172HK4    C2298429   8.229   9.297   8.129  0.3743  0.0287 -0.5209
 1172HK4    C2698430   8.189   9.193   8.212 -0.0488  0.4685 -0.1716
 1172HK4    H1398431   8.134   9.114   8.162  1.9619 -0.3933 -1.1082
 1172HK4    C2598432   8.225   9.192   8.347 -0.0438  0.1029 -0.1739
 1172HK4    H1298433   8.184   9.112   8.409 -1.7542 -0.1615 -1.5906
 1172HK4    C2498434   8.301   9.291   8.406  0.2633 -0.2261 -0.0115
 1172HK4    H1198435   8.308   9.303   8.515  0.6233 -1.5104  0.1103
 1172HK4    C2398436   8.332   9.398   8.323  0.2845 -0.1997  0.0337
 1172HK4    H1098437   8.349   9.494   8.371  0.7846  0.5186 -1.5327
 1172HK4    C3998438   8.467   9.561   8.078 -0.1073 -0.1073 -0.1281
 1172HK4    C4198439   8.492   9.641   8.191 -0.0570 -0.5306  0.1643
 1172HK4    H2198440   8.398   9.692   8.217  2.2659  2.8427  2.5455
 1172HK4    C4298441   8.621   9.669   8.235 -0.0257 -0.1003 -0.1975
 1172HK4    H2298442   8.644   9.697   8.339 -1.7964 -0.7950  0.3914
 1172HK4    C4398443   8.727   9.622   8.157  0.1657  0.4120 -0.2503
 1172HK4    H2398444   8.828   9.612   8.196 -0.7091 -0.5862  1.8368
 1172HK4    C4498445   8.701   9.552   8.040 -0.5156  0.0713  0.0986
 1172HK4    H2498446   8.783   9.506   7.984  1.5714  1.5732  1.8331
 1172HK4    C4598447   8.573   9.517   7.997 -0.2596 -0.7904  0.0423
 1172HK4    H2598448   8.567   9.436   7.923 -0.5089  0.2411 -1.0756
 1173HK4    H2898449   9.101   0.390   4.310 -1.7042 -1.4638  1.4789
 1173HK4    C4898450   9.131   0.443   4.401 -0.2151  0.1570  0.0883
 1173HK4    C4798451   9.193   0.376   4.506  0.6155  0.2340 -0.3471
 1173HK4    H2798452   9.218   0.269   4.507 -0.8708 -0.1202  0.6716
 1173HK4    C4698453   9.209   0.442   4.628 -0.1170 -0.2951  0.0372
 1173HK4    H2698454   9.291   0.402   4.689  0.0655 -1.9232 -1.2218
 1173HK4    C4098455   9.165   0.575   4.645 -0.0379 -0.2391 -0.1942
 1173HK4    C5098456   9.107   0.636   4.532  0.1563  0.2410 -0.0351
 1173HK4    H3098457   9.063   0.736   4.543  0.0952  0.3027 -0.8321
 1173HK4    C4998458   9.094   0.577   4.407 -0.2549  0.1481  0.0513
 1173HK4    H2998459   9.052   0.620   4.315  0.5251 -0.1742 -0.4571
 1173HK4     N298460   9.137   0.627   4.772  0.4223 -0.1698 -0.1184
 1173HK4    C3098461   9.116   0.763   4.804 -0.8085 -0.2495 -0.5493
 1173HK4    C2998462   9.145   0.880   4.735  0.4874  0.0583  0.4985
 1173HK4    H1598463   9.241   0.884   4.684 -1.2487 -0.9106 -2.9641
 1173HK4    C2898464   9.067   0.993   4.757 -0.2460 -0.1670 -0.8801
 1173HK4    C2798465   8.970   0.994   4.860  0.3423  0.0775 -0.3209
 1173HK4    H1498466   8.886   1.065   4.858 -0.6238 -1.0777 -1.2281
 1173HK4    C3298467   8.956   0.886   4.946  0.6351  0.3400  0.0609
 1173HK4    H1698468   8.880   0.891   5.024  1.2964  1.2306  0.6499
 1173HK4    C3198469   9.031   0.772   4.921 -0.1713 -0.1675 -0.0880
 1173HK4    C3498470   9.015   0.638   4.974 -0.0762 -0.1681 -0.0599
 1173HK4    C3398471   9.092   0.554   4.884  0.3540  0.1175  0.0407
 1173HK4    C3598472   9.121   0.424   4.922 -0.1325 -0.0573 -0.1870
 1173HK4    H1798473   9.163   0.347   4.858  0.9471 -0.1717  0.6370
 1173HK4    C3698474   9.077   0.378   5.046  0.0906 -0.2694 -0.1848
 1173HK4    H1898475   9.088   0.272   5.074  0.4484 -0.3020 -0.4508
 1173HK4    C3798476   8.994   0.452   5.129 -0.0084 -0.4136 -0.1571
 1173HK4    H1998477   8.963   0.422   5.229  0.2567 -0.9930 -0.2479
 1173HK4    C3898478   8.966   0.583   5.091 -0.2134 -0.4893 -0.2668
 1173HK4    H2098479   8.905   0.647   5.155  1.8604  0.2451  1.0128
 1173HK4    C1498480   9.062   1.090   4.647  0.0255  1.0728  0.1813
 1173HK4     C998481   9.178   1.129   4.578  0.3127 -0.0884 -0.0152
 1173HK4     C898482   9.166   1.138   4.438  0.2703 -0.5326 -0.0415
 1173HK4    C1198483   9.043   1.129   4.375  0.0869 -0.5836  0.3234
 1173HK4     H498484   9.030   1.129   4.266  1.0164 -1.4092  0.2079
 1173HK4    C1298485   8.927   1.103   4.447 -0.3391  0.0707 -0.1191
 1173HK4     H598486   8.831   1.088   4.396  1.2259 -0.3818 -3.0361
 1173HK4    C1398487   8.937   1.077   4.583  0.2258  0.4334 -0.0892
 1173HK4     H698488   8.851   1.093   4.649  2.8742  3.4578  2.8379
 1173HK4     C798489   9.285   1.162   4.353  0.2650 -0.1736  0.0546
 1173HK4     O298490   9.296   1.093   4.251 -0.5319 -0.2931  0.0435
 1173HK4     C498491   9.411   1.206   4.418  0.0213  0.4248  0.1273
 1173HK4     C398492   9.514   1.248   4.334 -0.1276  0.7776  0.1196
 1173HK4     H398493   9.509   1.251   4.224 -1.2002 -1.8312  0.0550
 1173HK4     C298494   9.631   1.303   4.386 -0.2082  0.8837  0.1856
 1173HK4     H298495   9.713   1.334   4.319 -0.9631  2.0168 -0.2314
 1173HK4     C198496   9.642   1.308   4.524 -0.1669  0.6392  0.1917
 1173HK4     H198497   9.729   1.361   4.565  0.7801  0.1714 -1.1566
 1173HK4     C698498   9.544   1.259   4.613  0.0352  0.3857  0.2761
 1173HK4     C598499   9.425   1.211   4.558  0.4837 -0.5492  0.1174
 1173HK4    C1098500   9.309   1.164   4.639  0.4856 -0.7590  0.0003
 1173HK4     O198501   9.305   1.196   4.758 -0.0948 -0.4904 -0.0923
 1173HK4    C1698502   9.578   1.281   4.754 -0.1094  0.5311  0.2875
 1173HK4    C1598503   9.650   1.396   4.794  0.4792  0.6619 -1.1315
 1173HK4     H798504   9.626   1.489   4.740  0.9507  0.7485 -1.1880
 1173HK4    C2098505   9.728   1.400   4.909 -0.6751 -0.7502 -0.2643
 1173HK4     H998506   9.770   1.493   4.947  0.8462 -2.0251  1.2468
 1173HK4    C1998507   9.746   1.283   4.981 -0.1575 -0.3059  0.3312
 1173HK4    C1898508   9.682   1.160   4.939 -0.6772 -0.0046  0.2419
 1173HK4    C1798509   9.597   1.166   4.829 -0.6239  0.4002  0.2203
 1173HK4     H898510   9.568   1.072   4.783 -1.4381  1.3032 -1.1397
 1173HK4     N198511   9.723   1.050   5.017  0.0862 -0.0397 -0.2111
 1173HK4    C2198512   9.792   1.104   5.127 -0.0485 -0.3375  0.0207
 1173HK4    C2298513   9.815   1.245   5.103  0.5423 -0.4535 -0.1041
 1173HK4    C2698514   9.892   1.324   5.187 -0.5080 -0.1968  0.6390
 1173HK4    H1398515   9.916   1.427   5.158  0.3629 -0.8038 -0.8205
 1173HK4    C2598516   9.954   1.273   5.301 -0.2990 -0.3392  0.4614
 1173HK4    H1298517  10.022   1.334   5.360  0.8694  0.7623 -1.9310
 1173HK4    C2498518   9.925   1.140   5.328 -0.6887 -0.1340  1.0645
 1173HK4    H1198519   9.957   1.106   5.428  2.1945 -1.2395 -0.1865
 1173HK4    C2398520   9.853   1.057   5.242  0.5777  0.0247 -0.1667
 1173HK4    H1098521   9.841   0.953   5.273 -0.2051  0.3567  0.6760
 1173HK4    C3998522   9.681   0.917   5.001  0.3286 -0.1399 -0.0175
 1173HK4    C4198523   9.766   0.815   5.047  0.2456 -0.2059 -0.0142
 1173HK4    H2198524   9.868   0.846   5.075  0.4232 -1.0983  0.3361
 1173HK4    C4298525   9.730   0.681   5.039 -0.3130 -0.0297 -0.4329
 1173HK4    H2298526   9.792   0.605   5.088 -1.4620 -1.8706 -1.7657
 1173HK4    C4398527   9.608   0.639   4.987 -0.0298 -0.2330 -0.9427
 1173HK4    H2398528   9.595   0.537   4.949 -3.0362 -0.4921  0.6133
 1173HK4    C4498529   9.521   0.740   4.949  0.2210  0.5154  0.4452
 1173HK4    H2498530   9.417   0.719   4.920  0.6576  1.2390 -1.7166
 1173HK4    C4598531   9.553   0.875   4.957  0.0581  0.5770  0.0723
 1173HK4    H2598532   9.481   0.949   4.919  0.8897  0.2353 -2.2304
 1174HK4    H2898533   5.114   2.580   3.115 -2.0323  1.1015  0.3734
 1174HK4    C4898534   5.174   2.660   3.160  0.6290 -0.4258 -0.3366
 1174HK4    C4798535   5.191   2.659   3.298 -0.1364 -0.3230 -0.2394
 1174HK4    H2798536   5.143   2.599   3.377  1.0788  2.7680  2.9991
 1174HK4    C4698537   5.271   2.759   3.352  0.1396 -0.5395 -0.2490
 1174HK4    H2698538   5.259   2.772   3.461 -2.1713  1.3084 -0.6873
 1174HK4    C4098539   5.333   2.854   3.269  0.2722 -0.2158  0.2152
 1174HK4    C5098540   5.304   2.859   3.131  0.6926  0.1893  0.1414
 1174HK4    H3098541   5.323   2.949   3.071 -0.3971  0.4267  0.1459
 1174HK4    C4998542   5.229   2.756   3.076  0.4633  0.2563  0.3316
 1174HK4    H2998543   5.229   2.740   2.968 -0.1654 -0.5828  0.4432
 1174HK4     N298544   5.396   2.970   3.314  0.4281 -0.4602  0.6280
 1174HK4    C3098545   5.369   3.033   3.437  0.0499 -0.4593  0.5448
 1174HK4    C2998546   5.264   3.012   3.526 -0.4831  0.0585  0.0381
 1174HK4    H1598547   5.168   2.982   3.484  0.6979 -2.5321 -0.9203
 1174HK4    C2898548   5.272   3.044   3.661  0.5271 -0.3204  0.0748
 1174HK4    C2798549   5.390   3.110   3.698  0.1428  0.3691  0.0893
 1174HK4    H1498550   5.417   3.110   3.805  3.2959 -2.5091 -0.5874
 1174HK4    C3298551   5.496   3.145   3.614  0.2052  0.1917  0.0928
 1174HK4    H1698552   5.579   3.201   3.656 -0.1016  1.0865 -0.4933
 1174HK4    C3198553   5.488   3.104   3.482  0.0913 -0.3569  0.2695
 1174HK4    C3498554   5.581   3.106   3.371  0.2072 -0.1010  0.3721
 1174HK4    C3398555   5.525   3.012   3.275  0.0214  0.3059  0.0750
 1174HK4    C3598556   5.583   3.011   3.149 -0.0565 -0.3306  0.0400
 1174HK4    H1798557   5.558   2.936   3.074 -1.4911 -1.1545  1.3118
 1174HK4    C3698558   5.684   3.100   3.113 -0.2160 -0.0357  0.3178
 1174HK4    H1898559   5.729   3.095   3.013 -2.2165  0.9703 -0.6568
 1174HK4    C3798560   5.736   3.188   3.206  0.3298 -0.0610  0.0385
 1174HK4    H1998561   5.814   3.263   3.190  0.4459  0.4676  2.8340
 1174HK4    C3898562   5.685   3.191   3.335 -0.1504  0.1218 -0.1553
 1174HK4    H2098563   5.721   3.260   3.412  0.0459  1.0330 -1.0476
 1174HK4    C1498564   5.164   3.050   3.760  0.5723 -0.9123  0.1629
 1174HK4     C998565   5.139   3.136   3.868  0.0365 -0.2517 -0.4819
 1174HK4     C898566   5.043   3.107   3.966  0.1972  0.4082 -0.1204
 1174HK4    C1198567   4.981   2.982   3.962 -0.0530  0.5186  0.3455
 1174HK4     H498568   4.917   2.952   4.047 -0.0078 -0.3478  0.0771
 1174HK4    C1298569   4.982   2.903   3.848 -0.2432  0.4101  0.4187
 1174HK4     H598570   4.918   2.814   3.841  1.0361 -0.6110  1.3805
 1174HK4    C1398571   5.076   2.940   3.753 -0.4412 -0.1112  0.0224
 1174HK4     H698572   5.099   2.862   3.678  2.1557 -0.2384  0.8791
 1174HK4     C798573   5.012   3.206   4.071 -0.0981 -0.0586  0.2375
 1174HK4     O298574   4.911   3.196   4.141 -0.5109 -0.1118 -0.3594
 1174HK4     C498575   5.093   3.329   4.091  0.2727 -0.3010  0.2177
 1174HK4     C398576   5.063   3.422   4.190 -0.2457  0.1318 -0.3464
 1174HK4     H398577   4.967   3.413   4.244  1.3954 -1.2780  2.4366
 1174HK4     C298578   5.147   3.530   4.211 -0.0986  0.0884 -0.7064
 1174HK4     H298579   5.136   3.592   4.301  2.1688 -2.3870  1.3568
 1174HK4     C198580   5.265   3.540   4.138  0.3409 -0.1286 -0.0303
 1174HK4     H198581   5.342   3.609   4.176 -0.6177  0.9479 -0.0107
 1174HK4     C698582   5.304   3.443   4.044  0.0403 -0.1156 -0.1715
 1174HK4     C598583   5.208   3.346   4.012  0.1409 -0.2834  0.0300
 1174HK4    C1098584   5.213   3.264   3.887 -0.5637  0.0569 -0.2272
 1174HK4     O198585   5.225   3.330   3.784  0.2315 -0.6629 -0.6029
 1174HK4    C1698586   5.444   3.458   4.002  0.1552  0.4811  0.4265
 1174HK4    C1598587   5.512   3.347   3.946 -0.1187  0.4490  0.1608
 1174HK4     H798588   5.470   3.248   3.964  0.1127  0.4921  0.9469
 1174HK4    C2098589   5.641   3.356   3.896 -0.2206 -0.0751 -0.1953
 1174HK4     H998590   5.693   3.270   3.855 -0.1498 -0.4317  0.6491
 1174HK4    C1998591   5.709   3.477   3.902 -0.0639 -0.1728  0.0243
 1174HK4    C1898592   5.635   3.597   3.934 -0.1150  0.0950 -1.0625
 1174HK4    C1798593   5.507   3.581   3.986  0.1007  0.3952 -0.4213
 1174HK4     H898594   5.448   3.671   4.006  0.2194 -0.1648  2.6897
 1174HK4     N198595   5.722   3.708   3.944  0.0335 -0.1592  0.6873
 1174HK4    C2198596   5.854   3.662   3.923 -0.1009 -0.1293 -0.2578
 1174HK4    C2298597   5.848   3.519   3.901 -0.0139 -0.3246  0.9792
 1174HK4    C2698598   5.968   3.458   3.867  0.0605 -0.0219  0.7005
 1174HK4    H1398599   5.964   3.349   3.865 -0.5085 -0.0016  0.3838
 1174HK4    C2598600   6.086   3.528   3.849  0.2427 -0.4467  0.2210
 1174HK4    H1298601   6.178   3.477   3.820 -1.2909 -2.4627 -1.1677
 1174HK4    C2498602   6.091   3.666   3.870 -0.0042 -0.3511 -0.3250
 1174HK4    H1198603   6.192   3.709   3.877 -0.1903  0.2355 -1.1491
 1174HK4    C2398604   5.974   3.731   3.907 -0.0543 -0.2877 -0.5955
 1174HK4    H1098605   5.981   3.838   3.925 -0.3203 -0.4401  0.4825
 1174HK4    C3998606   5.681   3.842   3.946 -0.4025 -0.2776  0.0202
 1174HK4    C4198607   5.758   3.943   4.008 -0.3979 -0.4284  0.2641
 1174HK4    H2198608   5.837   3.916   4.079  1.9267  0.3891 -1.9378
 1174HK4    C4298609   5.729   4.079   3.998  0.8079 -0.2311 -0.7232
 1174HK4    H2298610   5.807   4.153   4.017  1.8395 -0.6352 -3.2142
 1174HK4    C4398611   5.615   4.125   3.933  0.1117 -0.1570  0.5297
 1174HK4    H2398612   5.575   4.226   3.947  0.0428  0.1847 -1.9475
 1174HK4    C4498613   5.537   4.024   3.878  0.1516  0.2136 -0.2149
 1174HK4    H2498614   5.433   4.052   3.856  0.2189  0.5517 -0.1033
 1174HK4    C4598615   5.570   3.889   3.874 -0.1739  0.1300 -0.0689
 1174HK4    H2598616   5.532   3.829   3.790 -0.6508  1.7281 -1.0154
 1175HK4    H2898617   2.125   8.524  10.882 -2.0467 -1.9260 -0.7946
 1175HK4    C4898618   2.044   8.577  10.932 -0.0742 -0.2133  0.6683
 1175HK4    C4798619   2.068   8.708  10.972 -0.3981 -0.0884  0.4533
 1175HK4    H2798620   2.170   8.746  10.961 -1.1716  0.9813 -4.3899
 1175HK4    C4698621   1.974   8.802  11.013 -0.1196  0.2285  0.3591
 1175HK4    H2698622   2.004   8.907  11.026  2.1374 -0.3345 -0.0247
 1175HK4    C4098623   1.841   8.758  11.021 -0.0209 -0.0727  0.3295
 1175HK4    C5098624   1.814   8.622  10.993  0.2047 -0.0309 -0.0960
 1175HK4    H3098625   1.716   8.575  11.008  0.1537  0.2503  0.4857
 1175HK4    C4998626   1.912   8.534  10.949 -0.2535 -0.2225 -0.7330
 1175HK4    H2998627   1.883   8.430  10.930 -0.4624  0.0510 -1.9772
 1175HK4     N298628   1.731   8.844  11.016 -0.1598 -0.2853 -0.3063
 1175HK4    C3098629   1.610   8.814  11.081 -0.2464  0.3927 -0.1494
 1175HK4    C2998630   1.581   8.754  11.203 -0.0932  0.3650 -0.1264
 1175HK4    H1598631   1.660   8.692  11.244 -0.2602 -0.5968 -1.2460
 1175HK4    C2898632   1.461   8.765   0.024 -0.2188 -0.4178 -0.2182
 1175HK4    C2798633   1.356   8.835  11.208  0.0792  0.1125 -0.1310
 1175HK4    H1498634   1.263   8.857   0.015  0.3925  1.3115 -0.0776
 1175HK4    C3298635   1.376   8.893  11.084  0.1786  0.9014  0.2486
 1175HK4    H1698636   1.297   8.962  11.055  0.7045  0.6272 -1.9471
 1175HK4    C3198637   1.501   8.890  11.023 -0.1008  0.4764 -0.3144
 1175HK4    C3498638   1.564   8.969  10.919  0.3386 -0.5634 -0.8406
 1175HK4    C3398639   1.707   8.946  10.921  0.4104 -0.0834 -0.2377
 1175HK4    C3598640   1.795   9.037  10.863 -0.1017  0.1605 -0.6377
 1175HK4    H1798641   1.897   9.050  10.900 -0.4414 -1.1678  0.8228
 1175HK4    C3698642   1.743   9.140  10.786 -0.5497  0.2602 -0.1999
 1175HK4    H1898643   1.813   9.194  10.721  1.8266 -1.0238  1.2169
 1175HK4    C3798644   1.605   9.161  10.780 -0.5593  0.0021 -0.8902
 1175HK4    H1998645   1.576   9.257  10.736  2.9608  1.1083 -0.9525
 1175HK4    C3898646   1.517   9.082  10.852  0.2736  0.0153  0.1579
 1175HK4    H2098647   1.410   9.102  10.856  0.2256 -0.0401 -0.7105
 1175HK4    C1498648   1.442   8.696   0.152  0.1580 -0.1306 -0.0054
 1175HK4     C998649   1.322   8.653   0.211 -0.0539  0.1998 -0.1899
 1175HK4     C898650   1.306   8.647   0.351  0.1120 -0.0142 -0.1794
 1175HK4    C1198651   1.415   8.665   0.436 -0.3861  0.4357  0.3661
 1175HK4     H498652   1.397   8.669   0.544 -3.1062 -1.9711  0.0604
 1175HK4    C1298653   1.539   8.688   0.377 -0.4919  0.1533  0.0353
 1175HK4     H598654   1.632   8.692   0.435 -0.0661  1.7713 -0.7378
 1175HK4    C1398655   1.552   8.700   0.239  0.0331  0.5750  0.1239
 1175HK4     H698656   1.653   8.701   0.195  0.0635 -1.5240  0.1216
 1175HK4     C798657   1.175   8.611   0.410  0.2999 -0.1160  0.1771
 1175HK4     O298658   1.156   8.595   0.531  0.1922  0.5721  0.2498
 1175HK4     C498659   1.064   8.581   0.317  0.2056  0.2448  0.1734
 1175HK4     C398660   0.946   8.532   0.372  0.1897 -0.0807 -0.1488
 1175HK4     H398661   0.935   8.510   0.480 -1.4156  1.6427  0.0610
 1175HK4     C298662   0.835   8.511   0.292  0.2165 -0.0811 -0.1847
 1175HK4     H298663   0.741   8.469   0.329  0.5892 -1.5048 -0.8099
 1175HK4     C198664   0.844   8.549   0.158  0.8373 -0.1464 -0.1609
 1175HK4     H198665   0.757   8.514   0.102 -2.0800  2.2243  2.6421
 1175HK4     C698666   0.959   8.607   0.099  0.3647  0.4320 -0.5129
 1175HK4     C598667   1.074   8.604   0.179 -0.0797  0.0476  0.1201
 1175HK4    C1098668   1.210   8.615   0.120 -0.1616  0.1749 -0.0481
 1175HK4     O198669   1.231   8.544   0.023 -0.0368  0.0374  0.0796
 1175HK4    C1698670   0.936   8.700  11.236  0.3467  0.5519 -0.4080
 1175HK4    C1598671   0.802   8.733  11.210  0.2686  0.6474  0.1130
 1175HK4     H798672   0.732   8.739   0.046 -0.6213  0.3179 -0.5953
 1175HK4    C2098673   0.751   8.766  11.084 -0.0827  0.3169  0.1634
 1175HK4     H998674   0.644   8.774  11.067  0.1084  0.8045 -0.8485
 1175HK4    C1998675   0.836   8.777  10.975 -0.1134 -0.3574  0.0724
 1175HK4    C1898676   0.977   8.754  10.998 -0.0182  0.0833 -0.0652
 1175HK4    C1798677   1.020   8.725  11.127  0.6495  0.3962 -0.2112
 1175HK4     H898678   1.126   8.743  11.145  0.5771  1.5914 -0.9874
 1175HK4     N198679   1.050   8.771  10.879  0.3678  0.6470  0.2436
 1175HK4    C2198680   0.960   8.799  10.774  0.0711 -0.6197  0.1489
 1175HK4    C2298681   0.827   8.808  10.833  0.1520  0.2995  0.1972
 1175HK4    C2698682   0.724   8.854  10.753 -0.1282 -0.2342  0.2554
 1175HK4    H1398683   0.624   8.864  10.795 -0.7172  4.8326 -2.0263
 1175HK4    C2598684   0.745   8.899  10.623  0.0018  0.2163  0.4339
 1175HK4    H1298685   0.662   8.943  10.568 -1.3035 -2.9755 -0.2655
 1175HK4    C2498686   0.872   8.894  10.567 -0.1689 -0.4542  0.1001
 1175HK4    H1198687   0.890   8.923  10.463  0.4071 -3.3156 -0.6377
 1175HK4    C2398688   0.976   8.843  10.644 -0.1611 -0.1954  0.2586
 1175HK4    H1098689   1.066   8.815  10.589 -1.2473  0.0330 -1.6932
 1175HK4    C3998690   1.186   8.741  10.866  0.2087 -0.0575  0.1943
 1175HK4    C4198691   1.262   8.810  10.769 -0.2430 -0.4320 -0.4251
 1175HK4    H2198692   1.238   8.912  10.734 -1.7669 -0.0813  1.5561
 1175HK4    C4298693   1.386   8.759  10.733  0.2013 -0.0787  0.5826
 1175HK4    H2298694   1.426   8.788  10.634  1.8832 -0.9096  1.0108
 1175HK4    C4398695   1.437   8.642  10.788  0.6442 -0.0535  0.2238
 1175HK4    H2398696   1.542   8.616  10.776  1.5442  2.8400  1.4170
 1175HK4    C4498697   1.367   8.578  10.889  0.1113 -0.2387 -0.2577
 1175HK4    H2498698   1.410   8.515  10.968 -0.5487  0.5611  0.7615
 1175HK4    C4598699   1.241   8.625  10.924  0.2779 -0.0653  0.1153
 1175HK4    H2598700   1.186   8.578  11.008 -0.1048  0.3794  0.1149
 1176HK4    H2898701   0.466  10.223   9.188  0.1578 -1.6768  0.0481
 1176HK4    C4898702   0.499  10.283   9.273 -0.4235 -0.4432 -0.5811
 1176HK4    C4798703   0.439  10.408   9.291  0.0766 -0.3741  0.6296
 1176HK4    H2798704   0.360  10.447   9.226  1.1855  1.7153  0.4963
 1176HK4    C4698705   0.453  10.475   9.412 -0.6176  0.4538  0.2513
 1176HK4    H2698706   0.412  10.577   9.418  0.2323  0.7290  1.5704
 1176HK4    C4098707   0.523  10.412   9.516 -0.0153  0.2484 -0.2815
 1176HK4    C5098708   0.591  10.290   9.497 -0.3289  0.0566 -0.1706
 1176HK4    H3098709   0.647  10.242   9.579  0.5641 -2.1692 -2.0169
 1176HK4    C4998710   0.573  10.225   9.375  0.5902  0.7026 -0.6553
 1176HK4    H2998711   0.616  10.127   9.349  0.9088  0.5005  0.5901
 1176HK4     N298712   0.521  10.471   9.642  0.2079 -0.4739  0.0699
 1176HK4    C3098713   0.485  10.605   9.668 -0.6183 -0.6598 -0.0853
 1176HK4    C2998714   0.514  10.720   9.594 -0.4264 -0.1447  0.7886
 1176HK4    H1598715   0.558  10.705   9.496 -2.1310  3.9639 -0.7026
 1176HK4    C2898716   0.499  10.850   9.640 -0.0701  0.2552 -0.2196
 1176HK4    C2798717   0.448  10.867   9.770  0.4277 -0.0787  0.0226
 1176HK4    H1498718   0.429  10.968   9.810  0.1144 -0.4815  0.9056
 1176HK4    C3298719   0.418  10.755   9.846 -0.6603  0.2004  0.0156
 1176HK4    H1698720   0.374  10.773   9.945  1.6968  2.5875  0.6874
 1176HK4    C3198721   0.436  10.624   9.803  0.4727  0.3030  0.1807
 1176HK4    C3498722   0.449  10.495   9.868  0.0818  0.3347  0.3155
 1176HK4    C3398723   0.497  10.406   9.765  0.2599  0.2505  0.4701
 1176HK4    C3598724   0.511  10.272   9.800 -0.2618  0.0194 -0.1692
 1176HK4    H1798725   0.551  10.200   9.729 -1.1335 -0.3440 -0.2915
 1176HK4    C3698726   0.476  10.226   9.926 -0.8057  0.0153 -0.3196
 1176HK4    H1898727   0.467  10.118   9.945  1.0807 -0.4524 -1.9409
 1176HK4    C3798728   0.431  10.312  10.026 -0.0799  0.1787 -0.1376
 1176HK4    H1998729   0.451  10.276  10.127 -1.2454  1.2765  0.4858
 1176HK4    C3898730   0.425  10.448   9.997  0.2161  0.2891  0.3216
 1176HK4    H2098731   0.430  10.520  10.079 -0.6607  0.8269 -0.0944
 1176HK4    C1498732   0.566  10.958   9.566 -0.1741  0.1706 -0.4366
 1176HK4     C998733   0.609  11.076   9.628  0.3730 -0.1990 -0.1044
 1176HK4     C898734   0.596  11.200   9.564  0.3258 -0.0742  0.1512
 1176HK4    C1198735   0.567  11.197   9.428  0.1552 -0.6446  0.2012
 1176HK4     H498736   0.534   0.042   9.379  2.5493  0.0188 -0.2367
 1176HK4    C1298737   0.550  11.080   9.354  0.0544 -0.3728 -0.2043
 1176HK4     H598738   0.542  11.078   9.244  0.4280 -0.5162 -0.2317
 1176HK4    C1398739   0.546  10.961   9.426 -0.1986 -0.5141 -0.4543
 1176HK4     H698740   0.533  10.866   9.373 -0.8255 -1.3324  1.1091
 1176HK4     C798741   0.629   0.082   9.627  0.2167  0.2080 -0.3567
 1176HK4     O298742   0.606   0.189   9.572 -0.4274  0.3169  0.1191
 1176HK4     C498743   0.693   0.083   9.761 -0.6487  0.0413  0.0597
 1176HK4     C398744   0.724   0.203   9.824  0.5538 -0.2768  0.0930
 1176HK4     H398745   0.705   0.300   9.776 -0.5902 -0.1550  0.7760
 1176HK4     C298746   0.780   0.198   9.951  0.4510 -0.2855  0.1384
 1176HK4     H298747   0.840   0.284   9.985 -1.0013  1.3899 -1.4293
 1176HK4     C198748   0.774   0.079  10.023  0.7136 -0.3726  0.0124
 1176HK4     H198749   0.814   0.068  10.125  1.7420  0.5728 -0.2802
 1176HK4     C698750   0.715  11.210   9.971  0.1166 -0.0105 -0.1184
 1176HK4     C598751   0.693  11.209   9.832 -0.1720 -0.0383 -0.0716
 1176HK4    C1098752   0.668  11.079   9.765  0.5726 -0.1205 -0.1932
 1176HK4     O198753   0.733  10.981   9.802  0.4559 -0.1430 -0.0448
 1176HK4    C1698754   0.689  11.104  10.068 -0.3298  0.1584 -0.0474
 1176HK4    C1598755   0.563  11.042  10.084  0.0528 -0.6700 -0.1918
 1176HK4     H798756   0.478  11.094  10.037 -0.0028 -1.3842 -0.8943
 1176HK4    C2098757   0.540  10.939  10.173 -0.0527 -0.2613  0.2565
 1176HK4     H998758   0.438  10.901  10.188 -0.5779  1.2626  0.5976
 1176HK4    C1998759   0.648  10.894  10.249  0.2887 -0.4201 -0.3233
 1176HK4    C1898760   0.781  10.946  10.229  0.1203  0.0223 -0.2999
 1176HK4    C1798761   0.795  11.055  10.143 -0.2995  0.3305  0.0172
 1176HK4     H898762   0.896  11.083  10.113  0.0735 -0.9134  0.0729
 1176HK4     N198763   0.872  10.874  10.308  0.1761 -0.1465 -0.5170
 1176HK4    C2198764   0.804  10.769  10.373 -0.0300  0.2328 -0.1214
 1176HK4    C2298765   0.663  10.789  10.348 -0.1020 -0.3795 -0.2179
 1176HK4    C2698766   0.567  10.693  10.380 -0.7869  0.5357  0.4971
 1176HK4    H1398767   0.465  10.716  10.350  0.7823  0.0362 -6.0906
 1176HK4    C2598768   0.607  10.574  10.440  0.1941  0.5435 -0.1160
 1176HK4    H1298769   0.524  10.506  10.461  0.3853  0.9101  1.9936
 1176HK4    C2498770   0.739  10.558  10.479  0.1345 -0.1774 -0.2130
 1176HK4    H1198771   0.772  10.463  10.525 -1.4950 -1.2856 -1.2696
 1176HK4    C2398772   0.835  10.651  10.440 -0.1655  0.0986 -0.2898
 1176HK4    H1098773   0.937  10.620  10.464  0.0683 -1.2475 -2.8436
 1176HK4    C3998774   0.996  10.923  10.352  0.1294 -0.1906 -0.3367
 1176HK4    C4198775   1.035  11.057  10.335  0.0871 -0.0916  0.3012
 1176HK4    H2198776   0.954  11.129  10.316  0.9739  0.8057 -0.1514
 1176HK4    C4298777   1.165  11.104  10.352  0.2367 -0.2463 -0.3961
 1176HK4    H2298778   1.186  11.211  10.351  0.3793 -0.2237  2.1922
 1176HK4    C4398779   1.259  11.014  10.402 -0.4318 -0.2375  0.9078
 1176HK4    H2398780   1.348  11.063  10.440  0.8683 -0.9776 -1.1163
 1176HK4    C4498781   1.224  10.880  10.412 -0.2143 -0.3772 -0.1042
 1176HK4    H2498782   1.305  10.808  10.434 -1.1986 -1.0926  1.2268
 1176HK4    C4598783   1.098  10.831  10.384 -0.4277 -0.4026  0.8793
 1176HK4    H2598784   1.101  10.725  10.352  1.8695  0.5294 -2.2231
 1177HK4    H2898785   8.217   1.509   9.679  0.9415  1.0950 -0.2174
 1177HK4    C4898786   8.263   1.490   9.582  0.3270 -0.1984 -0.2652
 1177HK4    C4798787   8.402   1.485   9.572  0.3280  0.2010 -0.4761
 1177HK4    H2798788   8.474   1.509   9.651 -0.9325 -0.9869  1.0567
 1177HK4    C4698789   8.467   1.454   9.453  0.0435 -0.1463 -0.5369
 1177HK4    H2698790   8.568   1.410   9.458  0.5431  0.9736 -0.7292
 1177HK4    C4098791   8.392   1.430   9.335  0.0632 -0.3806 -0.5025
 1177HK4    C5098792   8.252   1.444   9.346  0.1952  0.0492  0.7847
 1177HK4    H3098793   8.197   1.431   9.252 -2.6086  1.6391  2.1631
 1177HK4    C4998794   8.189   1.470   9.467 -0.6581  0.4344  0.2595
 1177HK4    H2998795   8.080   1.458   9.481 -0.6322  0.7834  0.7735
 1177HK4     N298796   8.455   1.422   9.210  0.3632 -0.0573 -0.3726
 1177HK4    C3098797   8.579   1.478   9.176  0.3350  0.2462  0.0165
 1177HK4    C2998798   8.637   1.592   9.232 -0.5846  0.5874  0.2823
 1177HK4    H1598799   8.596   1.618   9.330 -0.4453  1.8220  0.0200
 1177HK4    C2898800   8.751   1.648   9.176 -0.3489 -0.1896 -0.0308
 1177HK4    C2798801   8.806   1.576   9.069 -0.0021 -0.4082  0.2927
 1177HK4    H1498802   8.910   1.604   9.046 -0.3759  0.4348 -0.3601
 1177HK4    C3298803   8.746   1.468   9.005  0.0631 -0.4579  0.3127
 1177HK4    H1698804   8.788   1.422   8.915 -0.5219 -1.9246  0.7710
 1177HK4    C3198805   8.624   1.421   9.050  0.0012 -0.4097  0.1989
 1177HK4    C3498806   8.521   1.327   9.009 -0.2239 -0.0221 -0.1290
 1177HK4    C3398807   8.416   1.332   9.109  0.0713 -0.5829  0.2064
 1177HK4    C3598808   8.301   1.261   9.079 -0.5180  0.2942  0.4033
 1177HK4    H1798809   8.220   1.281   9.149 -2.2128  0.9307 -1.6653
 1177HK4    C3698810   8.286   1.189   8.961  0.2028  0.1017  0.4237
 1177HK4    H1898811   8.188   1.140   8.946 -0.6560  2.2518 -1.3643
 1177HK4    C3798812   8.382   1.187   8.861 -0.0540 -0.3134  0.1829
 1177HK4    H1998813   8.371   1.109   8.786 -3.7795  0.2377  0.0721
 1177HK4    C3898814   8.498   1.258   8.891 -0.0364 -0.2501 -0.0325
 1177HK4    H2098815   8.581   1.262   8.819  0.2166  1.4458  0.3530
 1177HK4    C1498816   8.789   1.785   9.214  0.3375 -0.4205  0.1259
 1177HK4     C998817   8.853   1.874   9.127  0.0426 -0.3726 -0.0465
 1177HK4     C898818   8.948   1.963   9.183 -0.0524  0.0068 -0.4891
 1177HK4    C1198819   8.964   1.979   9.320  0.5159  0.1281 -0.5675
 1177HK4     H498820   9.022   2.061   9.363  0.4584  0.3308 -0.8815
 1177HK4    C1298821   8.878   1.909   9.404  0.8420 -0.0501 -0.3824
 1177HK4     H598822   8.853   1.957   9.500 -1.3804  0.3583 -1.1376
 1177HK4    C1398823   8.796   1.809   9.353  0.0687  0.3753  0.0099
 1177HK4     H698824   8.719   1.774   9.424  1.1315 -1.4439  0.3056
 1177HK4     C798825   9.014   2.068   9.102 -0.3023  0.2586 -0.3664
 1177HK4     O298826   9.131   2.094   9.127 -0.4416  0.3844  0.1725
 1177HK4     C498827   8.960   2.094   8.967 -0.6252 -0.1923 -0.3265
 1177HK4     C398828   8.982   2.224   8.922 -0.5272 -0.0092  0.2466
 1177HK4     H398829   9.047   2.299   8.970 -1.3418  0.2806  0.9051
 1177HK4     C298830   8.944   2.241   8.789  0.1765 -0.3159 -0.0024
 1177HK4     H298831   8.983   2.335   8.747  0.9056 -1.3313 -1.6363
 1177HK4     C198832   8.893   2.137   8.712 -0.0713 -0.1410 -0.0784
 1177HK4     H198833   8.847   2.160   8.615  0.3186 -1.2649 -0.5330
 1177HK4     C698834   8.886   2.003   8.756 -0.1704 -0.2086 -0.2994
 1177HK4     C598835   8.908   1.986   8.893  0.1792 -0.5356 -0.3931
 1177HK4    C1098836   8.839   1.885   8.979  0.2485 -0.2971 -0.0614
 1177HK4     O198837   8.742   1.832   8.925 -0.0077  0.1666 -0.0619
 1177HK4    C1698838   8.927   1.909   8.651  0.3711  0.3303 -0.5749
 1177HK4    C1598839   9.011   1.951   8.545  0.6265  0.0505 -0.4800
 1177HK4     H798840   9.096   2.017   8.572  0.4900  0.1024 -0.1708
 1177HK4    C2098841   9.021   1.895   8.418  0.3965  0.1831 -0.5561
 1177HK4     H998842   9.103   1.928   8.355 -0.2510  1.4939 -0.7449
 1177HK4    C1998843   8.940   1.787   8.386 -0.5179  0.6309  0.1838
 1177HK4    C1898844   8.849   1.744   8.490 -0.6446  0.2555 -0.0807
 1177HK4    C1798845   8.851   1.797   8.619  0.8032 -0.1466  0.0716
 1177HK4     H898846   8.788   1.760   8.699 -1.0808  1.8688 -0.4504
 1177HK4     N198847   8.759   1.645   8.446 -0.2480 -0.0231 -0.2704
 1177HK4    C2198848   8.788   1.633   8.309  0.7436 -0.4701 -0.0308
 1177HK4    C2298849   8.905   1.709   8.269  0.0918  0.5808  0.0320
 1177HK4    C2698850   8.963   1.679   8.146 -0.0219  0.2651  0.0584
 1177HK4    H1398851   9.067   1.708   8.134  1.1120 -3.4263  0.1989
 1177HK4    C2598852   8.899   1.598   8.053 -0.1208  0.1390  0.2386
 1177HK4    H1298853   8.944   1.581   7.956 -4.2032  0.1340 -1.7801
 1177HK4    C2498854   8.783   1.530   8.089 -0.1023 -0.0152  0.0033
 1177HK4    H1198855   8.736   1.458   8.020 -1.0751 -0.3371  0.9856
 1177HK4    C2398856   8.731   1.546   8.217 -0.2135  0.1719 -0.0649
 1177HK4    H1098857   8.632   1.505   8.236 -0.7481  0.1862 -2.6280
 1177HK4    C3998858   8.650   1.597   8.520 -0.1342  0.4517  0.2095
 1177HK4    C4198859   8.628   1.458   8.516 -0.0445  0.4191  0.7595
 1177HK4    H2198860   8.706   1.381   8.507  0.0557  0.6156 -0.1180
 1177HK4    C4298861   8.504   1.406   8.551  0.0961 -0.6034 -0.2024
 1177HK4    H2298862   8.507   1.299   8.578  1.1988  0.2314  3.3398
 1177HK4    C4398863   8.399   1.486   8.593  0.2862 -0.5541  0.1867
 1177HK4    H2398864   8.298   1.446   8.600  0.5561 -1.3525 -0.4058
 1177HK4    C4498865   8.423   1.623   8.600  0.2188 -0.5136 -0.3623
 1177HK4    H2498866   8.332   1.685   8.608  0.2047 -0.4583 -0.9465
 1177HK4    C4598867   8.545   1.679   8.566  0.0413  0.4629  0.5861
 1177HK4    H2598868   8.573   1.783   8.590 -0.1530  0.1936  2.0546
 1178HK4    H2898869   8.297   7.226   3.225  0.7403  1.2581  1.9494
 1178HK4    C4898870   8.208   7.250   3.284 -0.7642  0.3017  0.1046
 1178HK4    C4798871   8.099   7.163   3.289  0.2685 -0.9865  0.2853
 1178HK4    H2798872   8.074   7.090   3.211  0.3473 -1.0483  0.3174
 1178HK4    C4698873   8.027   7.161   3.408 -0.3274  0.5012 -0.0453
 1178HK4    H2698874   7.954   7.080   3.417  1.0486 -0.9166 -1.2755
 1178HK4    C4098875   8.043   7.254   3.513 -0.0131  0.5605 -0.1454
 1178HK4    C5098876   8.149   7.345   3.499  0.1186  0.3966 -0.2316
 1178HK4    H3098877   8.188   7.408   3.581  1.7588  1.7203 -1.9630
 1178HK4    C4998878   8.231   7.340   3.387  0.3543  0.2009 -0.0514
 1178HK4    H2998879   8.314   7.412   3.382  0.3117  0.2165 -0.6547
 1178HK4     N298880   7.948   7.270   3.615  0.3771  0.0403  0.3051
 1178HK4    C3098881   7.809   7.251   3.608  0.3197  0.4574  0.2400
 1178HK4    C2998882   7.723   7.225   3.502  0.0325  0.2059  0.5327
 1178HK4    H1598883   7.772   7.238   3.405  0.3596  2.0750  0.9288
 1178HK4    C2898884   7.587   7.201   3.522 -0.0608 -0.2787 -0.6550
 1178HK4    C2798885   7.535   7.196   3.653  0.2179 -0.1986 -0.5412
 1178HK4    H1498886   7.431   7.165   3.669  0.0116 -0.1668 -1.7132
 1178HK4    C3298887   7.619   7.226   3.760 -0.6594  0.7344 -0.1035
 1178HK4    H1698888   7.571   7.253   3.854 -0.9332 -1.2732  0.3542
 1178HK4    C3198889   7.755   7.250   3.743 -0.4318 -0.4584 -0.0623
 1178HK4    C3498890   7.866   7.265   3.834 -0.4767  0.0832 -0.0929
 1178HK4    C3398891   7.984   7.268   3.751 -0.0898 -0.8586  0.4147
 1178HK4    C3598892   8.104   7.303   3.813 -0.0966 -0.0699 -0.0153
 1178HK4    H1798893   8.199   7.283   3.764 -1.1280 -2.7174 -1.0535
 1178HK4    C3698894   8.107   7.352   3.943  0.1567  0.2090 -0.1241
 1178HK4    H1898895   8.201   7.388   3.987  0.4391 -1.7459  0.9571
 1178HK4    C3798896   7.989   7.350   4.017 -0.0423  0.9558 -0.4190
 1178HK4    H1998897   7.994   7.367   4.124 -1.5826 -1.8649  0.1523
 1178HK4    C3898898   7.866   7.308   3.966  0.0225  0.5596 -0.2490
 1178HK4    H2098899   7.776   7.302   4.027  0.6804  0.2214  0.7022
 1178HK4    C1498900   7.499   7.212   3.405 -0.4321  0.2494 -0.3262
 1178HK4     C998901   7.367   7.259   3.412 -0.3828  0.3228  0.0857
 1178HK4     C898902   7.266   7.196   3.338  0.1828 -0.2056 -0.2431
 1178HK4    C1198903   7.296   7.103   3.239  0.0247  0.2227 -0.6978
 1178HK4     H498904   7.221   7.065   3.169  2.9317 -1.5980 -2.9379
 1178HK4    C1298905   7.428   7.067   3.216  0.0643 -0.1781  0.1233
 1178HK4     H598906   7.459   6.979   3.157  2.9726  1.1466 -0.4175
 1178HK4    C1398907   7.525   7.120   3.301 -0.0387 -0.5362  0.4623
 1178HK4     H698908   7.629   7.094   3.276 -0.1507 -1.1383  0.5998
 1178HK4     C798909   7.127   7.222   3.384  0.3160  0.5439 -0.2643
 1178HK4     O298910   7.039   7.185   3.306 -0.0251 -0.3498  0.5408
 1178HK4     C498911   7.104   7.300   3.508 -0.2255  0.0203 -0.0384
 1178HK4     C398912   6.978   7.296   3.566 -0.1614 -0.3823  0.0812
 1178HK4     H398913   6.917   7.206   3.551 -0.0837 -0.1774 -1.5645
 1178HK4     C298914   6.936   7.399   3.650  0.1812 -0.1371 -0.0498
 1178HK4     H298915   6.829   7.409   3.672 -0.0641 -1.3786 -0.6693
 1178HK4     C198916   7.024   7.504   3.678  0.3292 -0.2215 -0.2015
 1178HK4     H198917   6.991   7.591   3.737  1.6230 -0.4075  0.8190
 1178HK4     C698918   7.157   7.502   3.633  0.4380  0.0919  0.1085
 1178HK4     C598919   7.194   7.403   3.542 -0.1307 -0.1056  0.0937
 1178HK4    C1098920   7.332   7.381   3.491 -0.1726  0.6934 -0.3863
 1178HK4     O198921   7.413   7.473   3.482  0.6369  0.0314  0.0336
 1178HK4    C1698922   7.249   7.570   3.726  0.3411  0.2389  0.0939
 1178HK4    C1598923   7.220   7.568   3.864 -0.9094  0.1094 -0.1656
 1178HK4     H798924   7.222   7.475   3.922 -1.2489 -0.2514 -0.7257
 1178HK4    C2098925   7.230   7.681   3.945  0.5059 -0.4446  0.4441
 1178HK4     H998926   7.226   7.679   4.054 -2.9966  0.5084  0.3974
 1178HK4    C1998927   7.293   7.792   3.890  0.5575 -0.5851  0.2126
 1178HK4    C1898928   7.349   7.786   3.756 -0.1362  0.1593 -0.1147
 1178HK4    C1798929   7.316   7.680   3.673  0.1192  0.2015 -0.2685
 1178HK4     H898930   7.338   7.687   3.566  1.4007 -1.1252 -0.1132
 1178HK4     N198931   7.395   7.913   3.717 -0.4238  0.2640 -0.1151
 1178HK4    C2198932   7.354   8.007   3.815 -0.9996  0.0328 -0.1321
 1178HK4    C2298933   7.293   7.933   3.924  0.2629 -0.5768  0.1750
 1178HK4    C2698934   7.222   8.008   4.017  0.1910 -0.4568  0.0233
 1178HK4    H1398935   7.209   7.955   4.111 -1.2305  1.7736  1.1224
 1178HK4    C2598936   7.195   8.144   4.004  0.7739 -0.3455 -0.0350
 1178HK4    H1298937   7.118   8.190   4.064 -1.3364 -2.7546 -0.7966
 1178HK4    C2498938   7.255   8.211   3.898  0.1747 -0.0695 -0.1955
 1178HK4    H1198939   7.231   8.315   3.873 -0.4735  0.0760  1.0099
 1178HK4    C2398940   7.338   8.144   3.808  0.0304  0.1424 -0.4894
 1178HK4    H1098941   7.425   8.202   3.778 -1.3453  2.3001 -0.4449
 1178HK4    C3998942   7.480   7.931   3.607 -0.2047 -0.3239 -0.0390
 1178HK4    C4198943   7.483   8.057   3.545  0.0367 -0.2151  0.1930
 1178HK4    H2198944   7.393   8.120   3.551 -0.2283 -0.2797 -2.7477
 1178HK4    C4298945   7.564   8.088   3.436 -0.1067 -0.0693  0.1279
 1178HK4    H2298946   7.573   8.195   3.414 -0.6129  0.1776  1.0820
 1178HK4    C4398947   7.642   7.988   3.380 -0.5800 -0.0823 -0.5076
 1178HK4    H2398948   7.687   8.011   3.283  1.9319 -1.1901  0.3565
 1178HK4    C4498949   7.647   7.861   3.436  0.0328  0.2797  0.2749
 1178HK4    H2498950   7.687   7.781   3.372  1.8892 -0.0993  1.8770
 1178HK4    C4598951   7.568   7.838   3.548 -0.0515 -0.2684  0.1022
 1178HK4    H2598952   7.571   7.736   3.590 -1.7139 -1.3709 -2.3208
 1179HK4    H2898953  10.135   6.756   7.143  0.5217  1.7267  0.6512
 1179HK4    C4898954  10.235   6.733   7.106 -0.3234 -0.0065 -0.6149
 1179HK4    C4798955  10.338   6.826   7.111 -0.1908 -0.2022  0.2008
 1179HK4    H2798956  10.329   6.929   7.150  1.9964 -0.3363  1.1678
 1179HK4    C4698957  10.464   6.780   7.076 -0.1916  0.0903 -0.1930
 1179HK4    H2698958  10.544   6.856   7.078 -0.0603 -0.0303 -0.8208
 1179HK4    C4098959  10.498   6.648   7.042  0.1797  0.0885  0.1728
 1179HK4    C5098960  10.389   6.559   7.043  0.1517  0.1090 -0.6638
 1179HK4    H3098961  10.402   6.461   6.993 -0.6285 -0.0569 -0.5586
 1179HK4    C4998962  10.259   6.600   7.073  0.3658 -0.2175  0.7301
 1179HK4    H2998963  10.177   6.529   7.059 -2.0881  2.4854  1.0275
 1179HK4     N298964  10.625   6.589   7.053 -0.0929 -0.5233  0.1104
 1179HK4    C3098965  10.729   6.627   7.141  0.0941 -0.6938 -0.0399
 1179HK4    C2998966  10.721   6.672   7.272 -0.2062 -0.5163 -0.1190
 1179HK4    H1598967  10.619   6.667   7.312  0.5262 -2.0358  1.6284
 1179HK4    C2898968  10.823   6.687   7.365  0.1126  0.2971 -0.6010
 1179HK4    C2798969  10.949   6.649   7.314  0.2662 -0.0777  0.0583
 1179HK4    H1498970  11.034   6.648   7.385  0.8714 -0.1471 -0.6676
 1179HK4    C3298971  10.965   6.606   7.183 -0.0395 -0.0378  0.0062
 1179HK4    H1698972  11.066   6.595   7.144  0.7509  0.5059  1.8137
 1179HK4    C3198973  10.861   6.592   7.093  0.1118 -0.5659 -0.0857
 1179HK4    C3498974  10.831   6.523   6.969 -0.1878 -0.4129 -0.0979
 1179HK4    C3398975  10.687   6.521   6.947 -0.1461  0.2656 -0.4294
 1179HK4    C3598976  10.638   6.449   6.839  0.1618  0.0036 -0.3976
 1179HK4    H1798977  10.533   6.461   6.813 -0.4362 -0.0761  1.8422
 1179HK4    C3698978  10.728   6.372   6.767  0.2831  0.1147 -0.3642
 1179HK4    H1898979  10.675   6.310   6.693 -1.2772  0.9274  0.0395
 1179HK4    C3798980  10.866   6.371   6.786  0.2777  0.1809 -0.3067
 1179HK4    H1998981  10.930   6.333   6.706 -0.2740  0.2717 -0.8018
 1179HK4    C3898982  10.917   6.456   6.883  0.1415  0.1188 -0.1810
 1179HK4    H2098983  11.023   6.471   6.899  0.4044 -0.5815 -1.1665
 1179HK4    C1498984  10.815   6.781   7.478  0.6487 -0.3775  0.0063
 1179HK4     C998985  10.916   6.871   7.514  0.2024  0.2426 -0.2840
 1179HK4     C898986  10.934   6.918   7.646 -0.3267 -0.1190 -0.0786
 1179HK4    C1198987  10.849   6.866   7.743  0.0559 -0.6262 -0.0123
 1179HK4     H498988  10.878   6.887   7.847  2.6179  1.3241 -1.0597
 1179HK4    C1298989  10.739   6.787   7.711 -0.5499  0.1684  0.0737
 1179HK4     H598990  10.679   6.750   7.795 -0.0640 -0.5444  0.1122
 1179HK4    C1398991  10.720   6.752   7.578  0.4845  0.0037 -0.0375
 1179HK4     H698992  10.627   6.703   7.547  0.4348 -1.6926  2.6774
 1179HK4     C798993  11.058   6.989   7.684  0.0515 -0.8173  0.0127
 1179HK4     O298994  11.049   7.060   7.784 -0.2213 -0.4961 -0.2368
 1179HK4     C498995  11.170   7.003   7.588  0.0624 -0.1560  0.1134
 1179HK4     C398996   0.047   7.042   7.635 -0.0767  0.3477  0.0649
 1179HK4     H398997   0.072   7.083   7.733  1.0813 -2.6313  1.0729
 1179HK4     C298998   0.155   7.015   7.551 -0.2585 -0.1813 -0.0053
 1179HK4     H298999   0.257   7.008   7.593  0.7038 -1.4556 -2.4815
 1179HK4     C199000   0.132   6.972   7.421 -0.3642 -0.0719 -0.0228
 1179HK4     H199001   0.219   6.971   7.354  0.2379 -0.5474  0.7468
 1179HK4     C699002   0.004   6.951   7.366 -0.2986 -0.2651 -0.1020
 1179HK4     C599003  11.145   6.970   7.454 -0.1049  0.5588 -0.0364
 1179HK4    C1099004  11.009   6.926   7.412  0.4469 -0.6742 -0.5534
 1179HK4     O199005  10.965   6.969   7.305  0.3150  0.7503  0.0671
 1179HK4    C1699006   0.008   6.869   7.244  0.5217  0.3264 -0.4815
 1179HK4    C1599007   0.091   6.755   7.232 -0.3317 -0.4028  0.4593
 1179HK4     H799008   0.143   6.714   7.320  1.0537 -2.1749 -1.1358
 1179HK4    C2099009   0.105   6.683   7.114 -0.7252 -0.2670  0.3265
 1179HK4     H999010   0.191   6.616   7.104  0.3852  0.9899  1.2387
 1179HK4    C1999011   0.027   6.711   7.003  0.1457 -0.1420 -0.2652
 1179HK4    C1899012  11.198   6.834   7.012  0.0166 -0.2300 -0.1740
 1179HK4    C1799013  11.193   6.911   7.128 -0.0299 -0.0263 -0.3101
 1179HK4     H899014  11.139   7.005   7.125  0.7704  0.4513  0.0028
 1179HK4     N199015  11.145   6.871   6.887 -0.4127 -0.0322  0.0641
 1179HK4    C2199016  11.176   6.766   6.798 -0.4000 -0.0877  0.1356
 1179HK4    C2299017   0.001   6.662   6.869 -0.1090 -0.1264 -0.2220
 1179HK4    C2699018   0.032   6.544   6.803  0.4401 -0.0560 -0.0881
 1179HK4    H1399019   0.062   6.458   6.862 -1.1460 -0.0259  0.7881
 1179HK4    C2599020  11.242   6.523   6.671  0.5329 -0.1874 -0.0955
 1179HK4    H1299021   0.050   6.445   6.621 -0.9796  0.3106 -2.6523
 1179HK4    C2499022  11.170   6.620   6.601  0.3740 -0.3406 -0.1413
 1179HK4    H1199023  11.149   6.605   6.494 -0.6573 -1.0270  0.1429
 1179HK4    C2399024  11.136   6.736   6.669  0.5686 -0.2974 -0.1175
 1179HK4    H1099025  11.067   6.803   6.616 -1.3806 -0.5595  1.9915
 1179HK4    C3999026  11.036   6.958   6.871 -0.2536  0.1975  0.2104
 1179HK4    C4199027  11.027   7.037   6.755  0.3419 -0.5447 -0.3522
 1179HK4    H2199028  11.115   7.061   6.694  0.2575  1.3863  0.2512
 1179HK4    C4299029  10.901   7.088   6.723  0.2236 -0.4639  0.2186
 1179HK4    H2299030  10.890   7.179   6.663  1.6468 -0.6930 -0.4091
 1179HK4    C4399031  10.788   7.061   6.799 -0.2706  0.3031 -0.2436
 1179HK4    H2399032  10.700   7.124   6.809 -1.4512 -1.4265  0.6703
 1179HK4    C4499033  10.797   6.972   6.906  0.3373  0.5057 -0.1310
 1179HK4    H2499034  10.721   6.957   6.983 -0.8407 -1.5456 -1.6661
 1179HK4    C4599035  10.921   6.922   6.944 -0.0309  0.0825  0.5060
 1179HK4    H2599036  10.920   6.831   7.006  0.0694  0.0687  0.4874
 1180HK4    H2899037   8.804   9.766   2.325  0.4909 -0.3332  0.4013
 1180HK4    C4899038   8.897   9.743   2.274  0.4682  0.3173  0.0590
 1180HK4    C4799039   9.003   9.677   2.335 -0.1986 -0.2073  0.6589
 1180HK4    H2799040   8.988   9.642   2.438  0.1421 -3.7910 -0.4470
 1180HK4    C4699041   9.118   9.652   2.261 -0.6126 -0.0823 -0.0326
 1180HK4    H2699042   9.201   9.614   2.322 -2.4504 -1.1848  1.8637
 1180HK4    C4099043   9.128   9.677   2.122  0.1175  0.8548  0.1886
 1180HK4    C5099044   9.020   9.747   2.065 -0.3153 -0.6271 -0.8135
 1180HK4    H3099045   9.022   9.782   1.961  0.6912 -0.7413 -0.8393
 1180HK4    C4999046   8.909   9.782   2.141 -0.0185 -0.7760 -0.3045
 1180HK4    H2999047   8.826   9.837   2.094 -0.1958  1.9965  3.1123
 1180HK4     N299048   9.255   9.690   2.065  0.3538 -0.9116  0.2967
 1180HK4    C3099049   9.375   9.723   2.132  0.2376  0.4667 -0.1573
 1180HK4    C2999050   9.386   9.825   2.226  0.0479 -0.4292  0.8414
 1180HK4    H1599051   9.290   9.861   2.264 -0.2443 -0.4988  0.1647
 1180HK4    C2899052   9.507   9.880   2.266 -0.0602  0.2627  0.2156
 1180HK4    C2799053   9.621   9.817   2.211 -0.3274  0.0972 -0.1525
 1180HK4    H1499054   9.721   9.849   2.243 -1.5777  1.7540  2.2616
 1180HK4    C3299055   9.614   9.718   2.115  0.6681 -0.4268  0.3073
 1180HK4    H1699056   9.707   9.677   2.074 -0.0145  0.7541 -2.5721
 1180HK4    C3199057   9.493   9.670   2.066  0.3846  0.4845  0.0925
 1180HK4    C3499058   9.437   9.603   1.950 -0.0414 -0.1823  0.6813
 1180HK4    C3399059   9.294   9.623   1.947  0.0521  0.3361 -0.5137
 1180HK4    C3599060   9.223   9.572   1.838  0.2966  0.7237 -0.8554
 1180HK4    H1799061   9.121   9.603   1.818  0.7083  2.2627 -0.6570
 1180HK4    C3699062   9.290   9.510   1.734  0.2559 -0.1633 -0.3591
 1180HK4    H1899063   9.224   9.465   1.658  1.0816 -1.3734 -0.3785
 1180HK4    C3799064   9.428   9.491   1.737  0.2663  0.0377  0.4250
 1180HK4    H1999065   9.470   9.438   1.651 -2.0473 -0.5699 -0.3682
 1180HK4    C3899066   9.501   9.537   1.846  0.0146 -0.0334  0.6246
 1180HK4    H2099067   9.610   9.540   1.835  0.1187  0.7181  1.7829
 1180HK4    C1499068   9.522   9.997   2.354  0.1978  0.0926  0.4022
 1180HK4     C999069   9.639  10.071   2.372 -0.0116  0.6181 -0.3576
 1180HK4     C899070   9.662  10.152   2.486  0.3423 -0.2405  0.1908
 1180HK4    C1199071   9.561  10.159   2.581 -0.0081  0.0671 -0.1969
 1180HK4     H499072   9.560  10.244   2.652  1.4081  0.1900 -0.3102
 1180HK4    C1299073   9.445  10.083   2.571 -0.0952  0.2161 -0.3284
 1180HK4     H599074   9.369  10.105   2.647 -1.3576 -0.8146 -1.2862
 1180HK4    C1399075   9.427  10.005   2.458 -0.3508 -0.0805 -0.0819
 1180HK4     H699076   9.328   9.963   2.436  0.1449 -0.0120 -2.7258
 1180HK4     C799077   9.797  10.206   2.511  0.1460  0.4153 -0.1203
 1180HK4     O299078   9.827  10.270   2.611  0.2905  0.0258  0.0859
 1180HK4     C499079   9.910  10.179   2.418 -0.2761  0.2452 -0.5822
 1180HK4     C399080  10.043  10.208   2.445 -0.3467  0.0639 -0.0163
 1180HK4     H399081  10.068  10.237   2.548  0.7189  1.0746 -0.5539
 1180HK4     C299082  10.147  10.200   2.353 -0.4985  0.1153 -0.1900
 1180HK4     H299083  10.250  10.230   2.380 -0.6154  0.6749 -0.3528
 1180HK4     C199084  10.112  10.151   2.228 -0.2178  0.3315 -0.3552
 1180HK4     H199085  10.177  10.155   2.139  0.2860 -0.0358 -0.0054
 1180HK4     C699086   9.982  10.104   2.199 -0.0573 -0.2148 -0.1856
 1180HK4     C599087   9.879  10.128   2.290 -0.2091 -0.6594 -0.2402
 1180HK4    C1099088   9.737  10.090   2.262 -0.2205 -0.2792 -0.7044
 1180HK4     O199089   9.695  10.109   2.149  0.5105  0.0942 -0.9203
 1180HK4    C1699090   9.988   9.980   2.119  0.0598 -0.3627  0.0460
 1180HK4    C1599091  10.093   9.888   2.136  0.5948  0.1714 -0.3118
 1180HK4     H799092  10.147   9.885   2.232  0.1997  2.7647  0.0119
 1180HK4    C2099093  10.132   9.794   2.041  0.1443 -0.1924 -0.1400
 1180HK4     H999094  10.212   9.724   2.065  0.7949  0.1442 -1.3180
 1180HK4    C1999095  10.064   9.796   1.920  0.1556  0.3846 -0.1396
 1180HK4    C1899096   9.964   9.896   1.892 -0.1526  0.1053 -0.0487
 1180HK4    C1799097   9.929   9.985   1.994  0.4933  0.4639 -0.1351
 1180HK4     H899098   9.867  10.069   1.965  0.6460  0.5270 -0.2707
 1180HK4     N199099   9.945   9.915   1.754  0.1883 -0.2615 -0.1443
 1180HK4    C2199100  10.022   9.815   1.691  0.1073 -0.4014 -0.0212
 1180HK4    C2299101  10.095   9.739   1.790  0.1090 -0.2184  0.1139
 1180HK4    C2699102  10.187   9.641   1.757  0.0572 -0.2505  0.0446
 1180HK4    H1399103  10.232   9.575   1.832  0.7286 -0.8865 -0.8975
 1180HK4    C2599104  10.207   9.618   1.621  0.7929  0.1921  0.0776
 1180HK4    H1299105  10.289   9.555   1.587 -0.4886 -1.6303  0.3069
 1180HK4    C2499106  10.140   9.694   1.525  0.0091 -0.1317  0.3669
 1180HK4    H1199107  10.169   9.674   1.421 -0.8932 -2.5281  0.5492
 1180HK4    C2399108  10.049   9.793   1.556 -0.3088 -0.2711 -0.1249
 1180HK4    H1099109   9.991   9.842   1.478  1.9932  1.2159 -0.9551
 1180HK4    C3999110   9.830   9.975   1.701  0.1573 -0.4985 -0.3529
 1180HK4    C4199111   9.823  10.005   1.564  0.7032 -0.8066 -0.4507
 1180HK4    H2199112   9.919  10.043   1.527  0.8551 -2.0514 -1.3692
 1180HK4    C4299113   9.704   9.996   1.491  0.2767  0.1513  0.1073
 1180HK4    H2299114   9.703  10.016   1.383  0.6510 -1.1439 -0.1495
 1180HK4    C4399115   9.586   9.955   1.552  0.3444 -0.3191 -0.0736
 1180HK4    H2399116   9.490   9.959   1.501  0.4386 -0.3663 -0.2515
 1180HK4    C4499117   9.588   9.920   1.687 -0.2272  0.0007  0.0188
 1180HK4    H2499118   9.501   9.872   1.734 -0.0786 -0.0548  0.2420
 1180HK4    C4599119   9.706   9.939   1.758 -0.0029  0.0276 -0.3632
 1180HK4    H2599120   9.696   9.953   1.867  0.2551 -2.1704 -0.0352
 1181HK4    H2899121   9.976  10.130  10.394  0.4709  1.7472  3.6945
 1181HK4    C4899122  10.045  10.203  10.353 -0.2075  0.3315 -0.2041
 1181HK4    C4799123  10.067  10.320  10.425 -0.1119 -0.0927  0.4584
 1181HK4    H2799124  10.019  10.324  10.524 -0.5101 -2.6468  0.3930
 1181HK4    C4699125  10.157  10.413  10.374  0.1637 -0.2989  0.5702
 1181HK4    H2699126  10.152  10.510  10.425 -0.1855  2.0764 -3.6845
 1181HK4    C4099127  10.219  10.406  10.247 -0.7902  0.5073  0.0495
 1181HK4    C5099128  10.192  10.289  10.174  0.3387 -0.0253  0.4854
 1181HK4    H3099129  10.264  10.265  10.094 -0.2439  1.0284 -0.3708
 1181HK4    C4999130  10.109  10.193  10.230  0.1506 -0.1309  0.0167
 1181HK4    H2999131  10.087  10.104  10.169 -2.0041  0.1228  0.3807
 1181HK4     N299132  10.331  10.485  10.220 -0.4315 -0.0308 -0.0412
 1181HK4    C3099133  10.417  10.530  10.322 -0.4826 -0.0696  0.0191
 1181HK4    C2999134  10.459  10.477  10.443 -0.4059  0.0119  0.0266
 1181HK4    H1599135  10.408  10.384  10.470 -1.3454  0.3030 -0.7330
 1181HK4    C2899136  10.547  10.543  10.528 -0.1372  0.0197 -0.2592
 1181HK4    C2799137  10.604  10.665  10.486 -0.4352  0.1789 -0.1969
 1181HK4    H1499138  10.688  10.713  10.537  0.3888 -1.2013 -0.2374
 1181HK4    C3299139  10.556  10.732  10.373 -0.2525  0.2599 -0.2262
 1181HK4    H1699140  10.589  10.829  10.338 -1.8885  1.1036  0.5177
 1181HK4    C3199141  10.468  10.662  10.291  0.4074 -0.4794 -0.3113
 1181HK4    C3499142  10.418  10.691  10.158 -0.0919 -0.2705 -0.0845
 1181HK4    C3399143  10.330  10.583  10.118 -0.6090  0.0941  0.0780
 1181HK4    C3599144  10.261  10.604   9.999  0.0800 -0.5720 -0.4498
 1181HK4    H1799145  10.189  10.528   9.968 -0.5573 -0.0839 -0.1709
 1181HK4    C3699146  10.285  10.711   9.915  0.1608 -0.0510  0.2301
 1181HK4    H1899147  10.235  10.717   9.817  0.6269  0.5455  0.0183
 1181HK4    C3799148  10.376  10.808   9.956  0.3623 -0.2081  0.1463
 1181HK4    H1999149  10.390  10.893   9.888 -2.6838  1.1243  1.0885
 1181HK4    C3899150  10.440  10.804  10.079 -0.1515  0.0952  0.4206
 1181HK4    H2099151  10.491  10.892  10.119  1.3769 -0.4384 -0.3360
 1181HK4    C1499152  10.557  10.500  10.668  0.0863 -0.1874 -0.3378
 1181HK4     C999153  10.557  10.587  10.777  0.0978 -0.2861 -0.2605
 1181HK4     C899154  10.613  10.553  10.902  0.0235  0.0867 -0.1234
 1181HK4    C1199155  10.660  10.423  10.919  0.5662  0.2870 -0.1003
 1181HK4     H499156  10.669  10.384  11.021 -0.8294 -2.4856 -0.9702
 1181HK4    C1299157  10.658  10.330  10.815 -0.6201 -0.0209  0.1801
 1181HK4     H599158  10.719  10.239  10.823  0.2339  0.5124 -0.1860
 1181HK4    C1399159  10.603  10.369  10.693 -0.0661 -0.1999 -0.1262
 1181HK4     H699160  10.610  10.299  10.608 -1.0674 -1.1478  0.5616
 1181HK4     C799161  10.640  10.658  11.002  0.8882 -0.2886  0.0464
 1181HK4     O299162  10.641  10.631  11.122 -0.1944 -0.7884 -0.0446
 1181HK4     C499163  10.631  10.800  10.961 -0.2659 -0.4113 -0.1354
 1181HK4     C399164  10.674  10.896  11.052 -0.3194 -0.0014 -0.5423
 1181HK4     H399165  10.737  10.881  11.141 -1.5112  1.8341  0.6329
 1181HK4     C299166  10.649  11.030  11.026 -0.7278 -0.0662 -0.5038
 1181HK4     H299167  10.684  11.114  11.087  1.0852 -1.4745  0.4713
 1181HK4     C199168  10.580  11.061  10.909 -0.1701  0.4701 -0.6921
 1181HK4     H199169  10.563  11.166  10.883  0.9578  0.6807 -0.6040
 1181HK4     C699170  10.539  10.969  10.811 -0.3625 -0.0320 -0.1452
 1181HK4     C599171  10.557  10.834  10.845  0.1043  0.0029 -0.2524
 1181HK4    C1099172  10.503  10.724  10.760 -0.0745 -0.2904  0.2401
 1181HK4     O199173  10.384  10.731  10.730 -0.2323  0.2444  0.9603
 1181HK4    C1699174  10.520  11.020  10.674  0.2820  0.5076 -0.0380
 1181HK4    C1599175  10.600  11.123  10.621  0.2089  0.5401 -0.0858
 1181HK4     H799176  10.693  11.149  10.673  0.4143  2.2823 -1.2555
 1181HK4    C2099177  10.561  11.214  10.523 -0.1627  0.1090 -0.3427
 1181HK4     H999178  10.635   0.028  10.472 -0.5827 -0.4945 -1.6996
 1181HK4    C1999179  10.427  11.219  10.488 -0.2464 -0.2044 -0.0513
 1181HK4    C1899180  10.340  11.110  10.529 -0.1973 -0.1790  0.1152
 1181HK4    C1799181  10.390  11.022  10.624  0.2242  0.0253  0.0864
 1181HK4     H899182  10.315  10.951  10.658 -0.2324  0.1330 -0.6872
 1181HK4     N199183  10.205  11.125  10.490 -0.1006 -0.0807 -0.1873
 1181HK4    C2199184  10.206  11.247  10.420 -0.2341  0.0955  0.1111
 1181HK4    C2299185  10.339   0.057  10.411 -0.1157 -0.2161 -0.2171
 1181HK4    C2699186  10.359   0.160  10.321 -0.0093 -0.6063 -0.6478
 1181HK4    H1399187  10.461   0.180  10.288 -0.4102  2.7096 -0.0741
 1181HK4    C2599188  10.252   0.222  10.257  0.1866  0.0549 -0.3466
 1181HK4    H1299189  10.265   0.320  10.211  0.3622  1.2032  2.0679
 1181HK4    C2499190  10.125   0.165  10.259  0.1826  0.0818  0.3222
 1181HK4    H1199191  10.043   0.212  10.203  1.9843  1.0398 -1.6058
 1181HK4    C2399192  10.109   0.048  10.333 -0.2650 -0.0039  0.0937
 1181HK4    H1099193  10.033  11.224  10.303  1.7880 -2.8426  1.4655
 1181HK4    C3999194  10.108  11.024  10.487  0.0199 -0.1851 -0.4812
 1181HK4    C4199195   9.973  11.064  10.497  0.1431  0.1273 -0.0896
 1181HK4    H2199196   9.957  11.135  10.580 -0.0534 -0.6092  0.5017
 1181HK4    C4299197   9.869  10.982  10.456  0.0209  0.0533  0.3845
 1181HK4    H2299198   9.762  11.008  10.460 -0.2926 -0.8816 -1.3913
 1181HK4    C4399199   9.907  10.857  10.411 -0.0690  0.3114 -0.4093
 1181HK4    H2399200   9.833  10.777  10.405  0.7787 -0.4650 -0.6839
 1181HK4    C4499201  10.039  10.819  10.389 -0.0802  0.0265  0.0184
 1181HK4    H2499202  10.049  10.717  10.349  4.3422 -0.2375  1.5573
 1181HK4    C4599203  10.144  10.901  10.427  0.2259 -0.2642 -0.1963
 1181HK4    H2599204  10.249  10.873  10.409  0.0073 -0.4165 -1.2224
 1182HK4    H2899205   2.453   5.056  11.092  0.2161 -0.3831  0.4050
 1182HK4    C4899206   2.438   5.112  11.184  0.4375 -0.3010  0.3906
 1182HK4    C4799207   2.519   5.223  11.201 -0.0964  0.1503  0.0341
 1182HK4    H2799208   2.603   5.230  11.130 -1.1267 -1.6499 -1.4174
 1182HK4    C4699209   2.492   5.318   0.051  0.4396 -0.1633  0.4938
 1182HK4    H2699210   2.563   5.401   0.067 -0.1826  0.3749  0.5167
 1182HK4    C4099211   2.392   5.290   0.146  0.0372 -0.3216  0.0240
 1182HK4    C5099212   2.319   5.170   0.131  0.0513 -0.3415  0.1205
 1182HK4    H3099213   2.239   5.145   0.201 -0.6695 -0.8776 -0.8814
 1182HK4    C4999214   2.338   5.079   0.027 -0.1552 -0.0557 -0.1671
 1182HK4    H2999215   2.279   4.986   0.030 -0.7266  0.2430 -1.5261
 1182HK4     N299216   2.332   5.382   0.232 -0.0123  0.0267 -0.3777
 1182HK4    C3099217   2.333   5.523   0.225 -0.7319  0.0305 -0.4204
 1182HK4    C2999218   2.348   5.596   0.107 -0.3854  0.3122 -0.2026
 1182HK4    H1599219   2.355   5.547   0.010  0.8754 -1.1831  0.6116
 1182HK4    C2899220   2.345   5.735   0.113  0.3105  0.3113  0.1567
 1182HK4    C2799221   2.319   5.794   0.239 -0.1246 -0.1361  0.2794
 1182HK4    H1499222   2.289   5.899   0.227 -0.7326 -0.4857 -1.4057
 1182HK4    C3299223   2.301   5.724   0.357  0.6403 -0.2931  0.3085
 1182HK4    H1699224   2.301   5.773   0.454 -1.8976 -1.3183  0.8833
 1182HK4    C3199225   2.313   5.586   0.354 -0.4967 -0.3892 -0.1797
 1182HK4    C3499226   2.284   5.476   0.444  0.1076 -0.3975  0.0074
 1182HK4    C3399227   2.294   5.355   0.365  0.2708 -0.1605 -0.3338
 1182HK4    C3599228   2.297   5.236   0.438 -0.4185 -0.2453 -0.4426
 1182HK4    H1799229   2.317   5.139   0.394  1.5343 -0.4314  0.8213
 1182HK4    C3699230   2.285   5.231   0.576 -0.2514  0.4730 -0.3966
 1182HK4    H1899231   2.293   5.134   0.628 -2.8109  0.9079  0.9409
 1182HK4    C3799232   2.272   5.349   0.648 -0.5822 -0.0258  0.3730
 1182HK4    H1999233   2.257   5.351   0.756  1.8937  1.9313  0.7391
 1182HK4    C3899234   2.273   5.472   0.583  0.4532 -0.2002  0.0425
 1182HK4    H2099235   2.271   5.569   0.632  0.8447 -0.7695  1.1931
 1182HK4    C1499236   2.367   5.815  11.240 -0.1643  0.2196  0.0091
 1182HK4     C999237   2.405   5.950  11.245  0.4384  0.0632 -0.2624
 1182HK4     C899238   2.332   6.051  11.178 -0.4499 -0.1955  0.2888
 1182HK4    C1199239   2.238   6.012  11.083  0.2590 -0.1750 -0.4386
 1182HK4     H499240   2.206   6.086  11.009  2.0110  1.8660  0.8099
 1182HK4    C1299241   2.209   5.878  11.061 -0.4255 -0.0545 -0.3021
 1182HK4     H599242   2.137   5.851  10.982 -0.6378  1.7307 -0.7230
 1182HK4    C1399243   2.270   5.783  11.143 -0.6226  0.4255  0.3991
 1182HK4     H699244   2.256   5.680  11.108  0.1750  0.4467  0.0097
 1182HK4     C799245   2.336   6.189  11.229 -0.1913 -0.1335  0.1019
 1182HK4     O299246   2.299   6.276  11.151  0.0547 -0.0534  0.0738
 1182HK4     C499247   2.427   6.219   0.095 -0.0762 -0.3030  0.0554
 1182HK4     C399248   2.417   6.342   0.157  0.0805 -0.1321 -0.2522
 1182HK4     H399249   2.327   6.403   0.137 -1.3260 -1.8503  0.5980
 1182HK4     C299250   2.524   6.388   0.234  0.0553  0.0739 -0.3407
 1182HK4     H299251   2.511   6.465   0.311  0.3737 -0.7426  0.5417
 1182HK4     C199252   2.645   6.321   0.220 -0.1601 -0.3752 -0.0655
 1182HK4     H199253   2.728   6.371   0.271  0.0262  0.6235 -1.3271
 1182HK4     C699254   2.663   6.204   0.143  0.7845 -0.2369 -0.0638
 1182HK4     C599255   2.547   6.145   0.093  0.3713  0.4156  0.1114
 1182HK4    C1099256   2.529   6.000   0.063 -0.1125  0.3843  0.5413
 1182HK4     O199257   2.618   5.918   0.085 -0.4368  0.0559  0.6439
 1182HK4    C1699258   2.803   6.176   0.109  0.6750  0.1949 -0.8798
 1182HK4    C1599259   2.912   6.204   0.193  0.0702 -0.2248  0.0475
 1182HK4     H799260   2.887   6.224   0.299 -3.0791 -0.4707 -0.6170
 1182HK4    C2099261   3.047   6.202   0.159  0.1632 -0.4579  0.4127
 1182HK4     H999262   3.120   6.226   0.236  0.6505  0.1179 -0.2216
 1182HK4    C1999263   3.081   6.183   0.025  0.3180 -0.1057  0.4016
 1182HK4    C1899264   2.974   6.145  11.183  0.5289 -0.1490  0.1665
 1182HK4    C1799265   2.842   6.155  11.225  0.1593 -0.0964 -0.9878
 1182HK4     H899266   2.772   6.145  11.142  1.6086 -1.9181 -2.0233
 1182HK4     N199267   3.030   6.139  11.054  0.0153  0.1582 -0.0733
 1182HK4    C2199268   3.167   6.170  11.059  0.1095 -0.3173  0.3459
 1182HK4    C2299269   3.195   6.220  11.192 -0.0503  0.4034  0.1117
 1182HK4    C2699270   3.325   6.265  11.217  0.1206 -0.2856  0.4977
 1182HK4    H1399271   3.356   6.281   0.072 -0.1747  0.5037  0.4736
 1182HK4    C2599272   3.421   6.273  11.116  0.0179 -0.0822  0.4132
 1182HK4    H1299273   3.523   6.296  11.147  0.0927 -1.0696  0.9186
 1182HK4    C2499274   3.393   6.222  10.990  0.6136  0.0071  0.2476
 1182HK4    H1199275   3.448   6.243  10.897  0.4406 -0.6723 -0.0102
 1182HK4    C2399276   3.266   6.173  10.962  0.3920  0.3383  0.6474
 1182HK4    H1099277   3.250   6.111  10.873  2.6433 -0.1529  0.5378
 1182HK4    C3999278   2.976   6.069  10.945 -0.2178  0.0718  0.0994
 1182HK4    C4199279   3.013   6.091  10.811 -0.7771 -0.1721 -0.0995
 1182HK4    H2199280   3.073   6.182  10.791 -2.8753  0.9353 -1.5761
 1182HK4    C4299281   2.988   6.003  10.707 -0.0239 -0.2523 -0.2173
 1182HK4    H2299282   3.031   6.015  10.607 -0.1396 -1.7223 -0.4529
 1182HK4    C4399283   2.922   5.885  10.740 -0.3872 -0.0365 -0.1731
 1182HK4    H2399284   2.929   5.813  10.659  1.1829  2.0402 -1.9537
 1182HK4    C4499285   2.877   5.864  10.870  0.0500 -0.1756 -0.0400
 1182HK4    H2499286   2.813   5.776  10.890  0.2741 -0.4169 -0.3850
 1182HK4    C4599287   2.901   5.953  10.974 -0.4809  0.1638 -0.2069
 1182HK4    H2599288   2.849   5.937  11.069  0.9277  1.5245  0.8017
 1183HK4    H2899289   8.037  10.372   1.579  1.2259 -1.8161 -2.9417
 1183HK4    C4899290   7.946  10.314   1.563 -0.6314 -0.0349  0.5013
 1183HK4    C4799291   7.950  10.179   1.596 -0.2804 -0.0262  0.5041
 1183HK4    H2799292   8.045  10.153   1.645  0.8005  0.7774 -1.1431
 1183HK4    C4699293   7.839  10.098   1.574 -0.2590  0.0949 -0.0379
 1183HK4    H2699294   7.851   9.989   1.577  0.8854  0.2112  0.0804
 1183HK4    C4099295   7.716  10.154   1.534 -0.1639  0.3154 -0.0167
 1183HK4    C5099296   7.714  10.293   1.509 -0.6702  0.3567  0.2388
 1183HK4    H3099297   7.633  10.334   1.447  1.4039 -1.4689 -3.8727
 1183HK4    C4999298   7.829  10.371   1.514 -0.4470  0.0357  0.1496
 1183HK4    H2999299   7.842  10.458   1.447  0.7143  0.1672  0.5397
 1183HK4     N299300   7.603  10.076   1.508 -0.0969  0.2365 -0.0662
 1183HK4    C3099301   7.607   9.937   1.487 -0.1272  0.2216  0.0100
 1183HK4    C2999302   7.697   9.857   1.418 -0.5042 -0.0165 -0.2057
 1183HK4    H1599303   7.780   9.910   1.371 -0.7590  0.6591  0.1029
 1183HK4    C2899304   7.693   9.718   1.414  0.0539 -0.0566  0.4460
 1183HK4    C2799305   7.586   9.659   1.483 -0.4174 -0.3173 -0.5003
 1183HK4    H1499306   7.611   9.555   1.512  0.3880 -0.9660 -3.3812
 1183HK4    C3299307   7.488   9.729   1.552 -0.1180  0.0214 -0.4197
 1183HK4    H1699308   7.401   9.678   1.594 -0.0947 -0.6470 -1.1856
 1183HK4    C3199309   7.500   9.868   1.556 -0.2739  0.0341 -0.4034
 1183HK4    C3499310   7.424   9.974   1.619 -0.0653  0.2996 -0.6044
 1183HK4    C3399311   7.484  10.100   1.580 -0.0307  0.4599 -0.0316
 1183HK4    C3599312   7.416  10.217   1.615 -0.4444  0.1188  0.3196
 1183HK4    H1799313   7.449  10.310   1.569 -0.3292  0.0458  0.2545
 1183HK4    C3699314   7.290  10.217   1.674 -0.7413  0.3741 -0.3149
 1183HK4    H1899315   7.251  10.316   1.701 -0.2385  0.8045 -1.1255
 1183HK4    C3799316   7.234  10.093   1.701  0.5014 -0.2126 -0.3776
 1183HK4    H1999317   7.128  10.089   1.725  0.3863 -0.0352 -0.8656
 1183HK4    C3899318   7.301   9.972   1.683 -0.0023 -0.4737 -0.4993
 1183HK4    H2099319   7.252   9.878   1.707 -0.3694  0.2088  1.4701
 1183HK4    C1499320   7.765   9.650   1.305 -0.2924  0.0473  0.1530
 1183HK4     C999321   7.715   9.537   1.237 -0.1556  0.0976 -0.0312
 1183HK4     C899322   7.802   9.441   1.182 -0.1786  0.0796 -0.0367
 1183HK4    C1199323   7.939   9.461   1.190 -0.1354 -0.2393  0.0503
 1183HK4     H499324   8.012   9.407   1.128 -2.1646 -1.0570 -1.6484
 1183HK4    C1299325   7.989   9.575   1.252 -0.7203  0.1259 -0.1445
 1183HK4     H599326   8.099   9.579   1.253 -0.3093 -3.4335 -6.1790
 1183HK4    C1399327   7.904   9.667   1.313 -0.3152  0.0857  0.4812
 1183HK4     H699328   7.951   9.764   1.336  1.5654 -0.5999 -0.3155
 1183HK4     C799329   7.748   9.320   1.117 -0.1864  0.2011 -0.2573
 1183HK4     O299330   7.818   9.259   1.036  0.0790  0.0073  0.1195
 1183HK4     C499331   7.601   9.299   1.120 -0.1987  0.1353 -1.0548
 1183HK4     C399332   7.554   9.174   1.081  0.5240 -0.4985  0.0703
 1183HK4     H399333   7.627   9.095   1.062  0.7484 -0.9347  2.5219
 1183HK4     C299334   7.421   9.135   1.093  0.1352  0.5878 -0.6186
 1183HK4     H299335   7.397   9.031   1.069  2.5202 -0.3727  0.9775
 1183HK4     C199336   7.342   9.224   1.165 -0.1177  0.0816 -0.2682
 1183HK4     H199337   7.236   9.205   1.187  0.0788 -1.0093 -0.2590
 1183HK4     C699338   7.382   9.351   1.211  0.1503 -0.2943  0.5544
 1183HK4     C599339   7.510   9.393   1.173  0.1434 -0.3678  0.4444
 1183HK4    C1099340   7.568   9.522   1.220 -0.0717  0.2022 -0.8455
 1183HK4     O199341   7.510   9.625   1.187  0.0349  0.3129 -0.6855
 1183HK4    C1699342   7.302   9.399   1.325 -0.3282  0.1829  0.0297
 1183HK4    C1599343   7.241   9.314   1.420  0.0294  0.0925  0.1807
 1183HK4     H799344   7.278   9.211   1.431  1.2239  0.4978  0.0611
 1183HK4    C2099345   7.141   9.356   1.507 -0.5479 -0.2890 -0.2972
 1183HK4     H999346   7.106   9.282   1.579 -0.5260  1.3727  1.4687
 1183HK4    C1999347   7.093   9.487   1.504 -0.2845 -0.1817  0.0337
 1183HK4    C1899348   7.151   9.580   1.409  0.3112 -0.0139  0.5619
 1183HK4    C1799349   7.249   9.527   1.326  0.1885  0.4011  0.1543
 1183HK4     H899350   7.269   9.583   1.234  1.2195 -0.3876 -0.1093
 1183HK4     N199351   7.098   9.710   1.422  0.2195  0.0514 -0.3823
 1183HK4    C2199352   7.021   9.705   1.541  0.9984  0.0217  0.1266
 1183HK4    C2299353   7.011   9.569   1.590  0.2276  0.1197  0.2315
 1183HK4    C2699354   6.964   9.537   1.717 -0.0146 -0.0295  0.1069
 1183HK4    H1399355   6.959   9.436   1.758  1.5740 -1.1101 -2.2643
 1183HK4    C2599356   6.918   9.640   1.799 -0.1757  0.0841 -0.1223
 1183HK4    H1299357   6.880   9.621   1.899 -1.5093 -1.6920 -0.9284
 1183HK4    C2499358   6.929   9.771   1.755  0.0682  0.0960 -0.0259
 1183HK4    H1199359   6.864   9.846   1.802  0.4472  0.3273  0.1326
 1183HK4    C2399360   6.979   9.803   1.630 -0.5862 -0.1995 -0.3665
 1183HK4    H1099361   7.009   9.907   1.611 -0.5422  0.0614  1.0677
 1183HK4    C3999362   7.148   9.825   1.360  0.1064  0.1056 -0.3729
 1183HK4    C4199363   7.080   9.948   1.349 -0.1306 -0.0050 -0.1929
 1183HK4    H2199364   6.981   9.954   1.396  0.1642  1.5356  0.2613
 1183HK4    C4299365   7.134  10.061   1.289 -0.2912  0.3194  0.2761
 1183HK4    H2299366   7.099  10.163   1.309  0.8699  0.5109  1.4262
 1183HK4    C4399367   7.253  10.045   1.219 -0.0415  0.6055  0.6357
 1183HK4    H2399368   7.266  10.111   1.132  0.4953  0.9422  0.9679
 1183HK4    C4499369   7.329   9.929   1.223 -0.2088  0.4536 -0.2468
 1183HK4    H2499370   7.407   9.898   1.152  0.3606 -0.0137  0.5774
 1183HK4    C4599371   7.276   9.827   1.302  0.2411  0.3562 -0.0710
 1183HK4    H2599372   7.360   9.769   1.343  1.8310  2.1554 -0.7290
 1184HK4    H2899373   6.644   5.780  10.398  0.5020  0.2456  0.4283
 1184HK4    C4899374   6.694   5.684  10.409 -0.2535 -0.2161 -0.1435
 1184HK4    C4799375   6.808   5.657  10.333  0.1791  0.3064  0.3226
 1184HK4    H2799376   6.860   5.734  10.274  0.4768 -0.2901 -0.2051
 1184HK4    C4699377   6.869   5.533  10.345  0.0204  0.2000  0.0374
 1184HK4    H2699378   6.976   5.526  10.317 -0.2575 -0.6626 -0.8215
 1184HK4    C4099379   6.819   5.426  10.422  0.2532  0.1682  0.1435
 1184HK4    C5099380   6.708   5.458  10.503  0.1264  0.4664 -0.1461
 1184HK4    H3099381   6.670   5.388  10.578  0.3504  0.0250 -0.4416
 1184HK4    C4999382   6.649   5.583  10.494 -0.2724  0.3277  0.4920
 1184HK4    H2999383   6.555   5.602  10.549 -0.3702  0.2133  0.3636
 1184HK4     N299384   6.847   5.292  10.391  0.0557  0.1926 -0.1476
 1184HK4    C3099385   6.910   5.245  10.274  0.3729 -0.1845  0.1772
 1184HK4    C2999386   6.927   5.310  10.153 -0.4749 -0.6578 -0.2051
 1184HK4    H1599387   6.874   5.401  10.125 -1.2962 -1.4106 -1.1599
 1184HK4    C2899388   7.004   5.254  10.052 -0.3707 -0.5264 -0.1965
 1184HK4    C2799389   7.063   5.128  10.078 -0.5287 -0.5274  0.1580
 1184HK4    H1499390   7.128   5.082  10.003 -0.3359 -0.0615  0.0348
 1184HK4    C3299391   7.042   5.058  10.196 -0.2555 -1.0130 -0.0853
 1184HK4    H1699392   7.113   4.976  10.207  0.1055 -0.7075 -0.1080
 1184HK4    C3199393   6.959   5.110  10.294  0.1324 -0.3174 -0.1198
 1184HK4    C3499394   6.919   5.070  10.428  0.4391  0.4477  0.2088
 1184HK4    C3399395   6.866   5.191  10.487 -0.3459  0.2260 -0.0310
 1184HK4    C3599396   6.858   5.198  10.626 -0.1143 -0.1017  0.0023
 1184HK4    H1799397   6.798   5.277  10.671  0.2717 -0.3748  1.0111
 1184HK4    C3699398   6.904   5.092  10.704  0.0133 -0.1193 -0.1010
 1184HK4    H1899399   6.920   5.110  10.812  0.3352 -1.4567  0.0780
 1184HK4    C3799400   6.957   4.978  10.646  0.2043 -0.0774 -0.0099
 1184HK4    H1999401   7.015   4.913  10.711 -0.4738  0.1691  0.8555
 1184HK4    C3899402   6.963   4.965  10.508 -0.1602  0.0035 -0.0360
 1184HK4    H2099403   6.973   4.868  10.460 -0.9497 -0.7962  1.4019
 1184HK4    C1499404   7.012   5.321   9.921  0.7096 -0.7000 -0.2296
 1184HK4     C999405   7.029   5.255   9.799  0.3830 -0.4869 -0.3929
 1184HK4     C899406   7.102   5.324   9.700  0.6492  0.0467  0.1714
 1184HK4    C1199407   7.150   5.452   9.725  0.2595  0.2322 -0.0277
 1184HK4     H499408   7.216   5.506   9.656  0.7679  0.8100  0.9053
 1184HK4    C1299409   7.124   5.521   9.843 -0.1095 -0.3792  0.2538
 1184HK4     H599410   7.178   5.614   9.864  0.4440 -0.9149  1.2552
 1184HK4    C1399411   7.057   5.452   9.943 -1.0378 -0.1010 -0.1778
 1184HK4     H699412   7.019   5.511  10.029 -2.4007  1.3264 -1.7133
 1184HK4     C799413   7.110   5.265   9.564  0.6401 -0.3545  0.3479
 1184HK4     O299414   7.180   5.319   9.479 -0.3574  0.7976  0.2440
 1184HK4     C499415   7.032   5.144   9.529 -0.5918  0.5598 -0.0755
 1184HK4     C399416   7.042   5.083   9.404  0.5643 -0.1267  0.3490
 1184HK4     H399417   7.130   5.103   9.342  0.7726  0.4246  0.8185
 1184HK4     C299418   6.944   4.995   9.358  0.0507  0.6496 -0.0407
 1184HK4     H299419   6.978   4.911   9.296  1.4236  1.2918 -0.1979
 1184HK4     C199420   6.829   4.977   9.433 -0.3988  0.0005 -0.8803
 1184HK4     H199421   6.752   4.908   9.397 -0.4381 -1.4064  1.7383
 1184HK4     C699422   6.818   5.031   9.563  0.3550 -0.6185 -0.5573
 1184HK4     C599423   6.926   5.105   9.613 -0.5293  0.3520 -0.0920
 1184HK4    C1099424   6.943   5.141   9.757 -0.4308 -0.0108 -0.0113
 1184HK4     O199425   6.900   5.067   9.845 -0.3263  0.0299  0.0739
 1184HK4    C1699426   6.694   5.005   9.638  0.6239  0.3337  0.2231
 1184HK4    C1599427   6.610   4.893   9.620  0.9851  0.1064 -0.0664
 1184HK4     H799428   6.659   4.816   9.559 -2.5526 -1.1678 -1.4088
 1184HK4    C2099429   6.477   4.879   9.655  0.8553  0.4667 -0.4047
 1184HK4     H999430   6.423   4.787   9.629  1.1926  0.2399 -0.3031
 1184HK4    C1999431   6.419   4.984   9.725  0.7202 -0.4086  0.8111
 1184HK4    C1899432   6.498   5.103   9.748  0.2110  0.0486  0.2049
 1184HK4    C1799433   6.628   5.111   9.699  0.1614  0.1245  0.0812
 1184HK4     H899434   6.669   5.212   9.703  1.1464 -0.3317  1.6467
 1184HK4     N199435   6.419   5.198   9.815  0.2807  0.2419  0.0128
 1184HK4    C2199436   6.289   5.144   9.828  0.4282 -0.0594  0.2601
 1184HK4    C2299437   6.290   5.005   9.789 -0.0380  0.2646 -0.9123
 1184HK4    C2699438   6.178   4.926   9.810  0.2726  0.1414  0.2792
 1184HK4    H1399439   6.195   4.819   9.825  1.7834  0.6390  2.3112
 1184HK4    C2599440   6.060   4.983   9.857 -0.1455  0.2386 -0.8783
 1184HK4    H1299441   5.976   4.915   9.873  0.5211 -0.0364  1.5957
 1184HK4    C2499442   6.050   5.119   9.885  0.3089  0.0060  0.4451
 1184HK4    H1199443   5.960   5.160   9.933  0.7603  0.0408  1.2837
 1184HK4    C2399444   6.167   5.193   9.872 -0.0304  0.2573 -1.3403
 1184HK4    H1099445   6.157   5.300   9.890 -2.7799 -0.1143 -0.2309
 1184HK4    C3999446   6.473   5.301   9.894  0.4249  0.4096 -0.3055
 1184HK4    C4199447   6.385   5.406   9.927 -0.7927 -0.7466  0.1812
 1184HK4    H2199448   6.314   5.435   9.848  1.4949 -2.0096 -2.4258
 1184HK4    C4299449   6.400   5.487  10.039  0.2256  0.2199 -0.6468
 1184HK4    H2299450   6.364   5.591  10.032  0.6747  0.5624  1.7059
 1184HK4    C4399451   6.500   5.465  10.133 -0.2766 -0.1356 -0.1928
 1184HK4    H2399452   6.526   5.539  10.209  1.5092  1.3089 -2.1588
 1184HK4    C4499453   6.584   5.358  10.106  0.0067  0.0306  0.0143
 1184HK4    H2499454   6.639   5.327  10.196 -0.9111  2.8819  1.6045
 1184HK4    C4599455   6.572   5.279   9.992  0.0938  0.0949 -0.0407
 1184HK4    H2599456   6.620   5.181   9.989  1.0515  0.5712 -0.5417
 1185HK4    H2899457   6.612   7.096   9.116  1.2349 -0.2166 -0.1237
 1185HK4    C4899458   6.579   7.031   9.197  0.4787  0.1710 -0.1115
 1185HK4    C4799459   6.523   7.083   9.313 -0.0421 -0.1840 -0.2015
 1185HK4    H2799460   6.533   7.192   9.327  0.9435 -0.0247 -1.9640
 1185HK4    C4699461   6.487   7.003   9.420  0.1880 -0.1648 -0.1082
 1185HK4    H2699462   6.452   7.044   9.516  1.5584 -0.4036  0.5027
 1185HK4    C4099463   6.489   6.862   9.410 -0.1856 -0.1799  0.0002
 1185HK4    C5099464   6.543   6.812   9.290  0.0694 -0.4171  0.2129
 1185HK4    H3099465   6.549   6.703   9.273 -2.5552 -0.6165  0.2636
 1185HK4    C4999466   6.593   6.893   9.189 -0.1392  0.0704  0.5019
 1185HK4    H2999467   6.670   6.857   9.118  0.7809  2.9727 -0.0301
 1185HK4     N299468   6.472   6.775   9.518 -0.0138  0.1495  0.2962
 1185HK4    C3099469   6.511   6.800   9.651 -0.0392  0.4127  0.2521
 1185HK4    C2999470   6.600   6.892   9.707  0.2668  0.3998 -0.2083
 1185HK4    H1599471   6.640   6.975   9.648  1.2279 -0.5028 -0.8481
 1185HK4    C2899472   6.634   6.899   9.841 -0.9380  0.9052  0.0788
 1185HK4    C2799473   6.581   6.799   9.925  0.5330 -0.5825 -0.7442
 1185HK4    H1499474   6.611   6.778  10.029 -0.6677 -3.1236 -0.8736
 1185HK4    C3299475   6.497   6.700   9.877 -0.2080 -0.3515  0.0676
 1185HK4    H1699476   6.457   6.617   9.936 -0.5789 -0.4793 -0.3586
 1185HK4    C3199477   6.455   6.704   9.744  0.5116 -0.3172 -0.1600
 1185HK4    C3499478   6.365   6.628   9.660  0.1032 -0.1812  0.1509
 1185HK4    C3399479   6.389   6.661   9.521  0.2039 -0.0111  0.2090
 1185HK4    C3599480   6.355   6.569   9.423 -0.7055  0.5669 -0.0256
 1185HK4    H1799481   6.352   6.599   9.318  0.4834  2.9928  0.5934
 1185HK4    C3699482   6.307   6.444   9.459  0.2446  0.2524  0.1771
 1185HK4    H1899483   6.291   6.361   9.389 -1.5484  0.3591  0.4360
 1185HK4    C3799484   6.277   6.414   9.592 -0.4970  0.4010  0.0496
 1185HK4    H1999485   6.236   6.315   9.611 -1.3382  0.9758  1.2488
 1185HK4    C3899486   6.302   6.508   9.691  0.9547 -0.5252  0.5804
 1185HK4    H2099487   6.265   6.487   9.792  0.1788 -1.7394  0.0539
 1185HK4    C1499488   6.761   6.964   9.878 -0.1543 -0.2763 -0.5082
 1185HK4     C999489   6.843   6.919   9.982 -0.1560  0.1845 -0.3028
 1185HK4     C899490   6.917   7.011  10.059 -0.0636 -0.4354  0.3530
 1185HK4    C1199491   6.919   7.143  10.015  0.2907 -0.4795  0.2358
 1185HK4     H499492   6.988   7.206  10.073  0.4300  0.6830 -1.1605
 1185HK4    C1299493   6.850   7.189   9.904  0.1445 -0.2781  0.4079
 1185HK4     H599494   6.865   7.294   9.874  1.6047 -0.5829  0.0327
 1185HK4    C1399495   6.774   7.097   9.832  0.2141 -0.0982  0.1061
 1185HK4     H699496   6.723   7.129   9.740 -1.3361 -3.6093 -0.3294
 1185HK4     C799497   6.982   6.965  10.184 -0.0555 -0.6003  0.2844
 1185HK4     O299498   7.041   7.050  10.251 -0.7328 -0.0464  0.1846
 1185HK4     C499499   6.975   6.823  10.225 -0.1975 -0.4996  0.6103
 1185HK4     C399500   7.038   6.773  10.338 -0.0995 -0.0377  0.7590
 1185HK4     H399501   7.114   6.838  10.384 -0.0634 -0.1505  0.8619
 1185HK4     C299502   7.019   6.646  10.392 -0.5355 -0.1111  0.4391
 1185HK4     H299503   7.078   6.611  10.478  1.7556  1.6751 -0.3360
 1185HK4     C199504   6.937   6.561  10.319  0.2313 -0.0373 -0.5241
 1185HK4     H199505   6.943   6.453  10.339 -3.4007 -0.4842 -1.3861
 1185HK4     C699506   6.869   6.599  10.201  0.0362 -0.1070 -0.4349
 1185HK4     C599507   6.898   6.728  10.155  0.0111 -0.0385 -0.2539
 1185HK4    C1099508   6.861   6.776  10.019 -0.0821  0.2380 -0.1326
 1185HK4     O199509   6.904   6.710   9.924 -0.1278  0.5781 -0.3923
 1185HK4    C1699510   6.750   6.522  10.162  0.0885 -0.3393 -0.1361
 1185HK4    C1599511   6.667   6.470  10.264  0.3652  0.4612  0.4997
 1185HK4     H799512   6.681   6.497  10.369 -0.3064  0.3119  0.6255
 1185HK4    C2099513   6.563   6.383  10.234  0.8151  0.0526  0.1251
 1185HK4     H999514   6.495   6.347  10.311 -1.0891 -1.6115 -2.2715
 1185HK4    C1999515   6.536   6.351  10.102 -0.3318 -0.1540  0.4083
 1185HK4    C1899516   6.630   6.386   9.998 -0.0198 -0.9023  0.4331
 1185HK4    C1799517   6.732   6.475  10.033 -0.6201  0.0331 -0.1749
 1185HK4     H899518   6.811   6.496   9.961 -1.1599 -0.0147 -0.7898
 1185HK4     N199519   6.602   6.315   9.880  0.0192  0.0643 -0.1658
 1185HK4    C2199520   6.481   6.245   9.903 -0.1109  0.2750 -0.2138
 1185HK4    C2299521   6.446   6.253  10.043 -0.0803 -0.0277 -0.1866
 1185HK4    C2699522   6.326   6.202  10.090 -0.1699  0.1582 -0.2113
 1185HK4    H1399523   6.306   6.213  10.197  1.0297  1.5878 -0.1189
 1185HK4    C2599524   6.228   6.160  10.001 -0.0609 -0.1026 -0.2065
 1185HK4    H1299525   6.120   6.160  10.021  0.5178  1.0752  3.2545
 1185HK4    C2499526   6.265   6.148   9.868 -0.0465  0.0411 -0.2166
 1185HK4    H1199527   6.188   6.149   9.790  2.8837  2.2279 -3.2234
 1185HK4    C2399528   6.389   6.185   9.818 -0.2851  0.6990 -0.3234
 1185HK4    H1099529   6.433   6.149   9.725 -0.4212 -0.9874  0.2603
 1185HK4    C3999530   6.658   6.332   9.753 -0.6232  0.4135 -0.4083
 1185HK4    C4199531   6.651   6.237   9.650 -1.0304  0.4012 -0.3643
 1185HK4    H2199532   6.618   6.137   9.682  2.8453 -0.2074  2.0072
 1185HK4    C4299533   6.669   6.268   9.515  0.3016 -0.4157 -0.3849
 1185HK4    H2299534   6.646   6.189   9.441 -1.2368 -0.6016  0.2665
 1185HK4    C4399535   6.698   6.400   9.484 -0.2296 -0.2003  0.0321
 1185HK4    H2399536   6.696   6.438   9.382  1.6986  0.1334  0.1018
 1185HK4    C4499537   6.712   6.499   9.581 -0.3645  0.3037 -0.4644
 1185HK4    H2499538   6.754   6.596   9.553  0.0998  0.3427  0.3842
 1185HK4    C4599539   6.686   6.465   9.713  0.5987  0.1910 -0.3040
 1185HK4    H2599540   6.700   6.547   9.785 -0.8119 -1.2621  1.6777
 1186HK4    H2899541   0.227   4.358   9.794  0.5513 -0.2520 -2.9604
 1186HK4    C4899542   0.163   4.272   9.808  0.0332  0.5371 -0.3187
 1186HK4    C4799543   0.196   4.143   9.767 -0.2659  0.1785  0.5390
 1186HK4    H2799544   0.278   4.138   9.694 -1.6450 -0.3649 -0.9990
 1186HK4    C4699545   0.130   4.029   9.811 -0.0424 -0.3282 -0.4175
 1186HK4    H2699546   0.156   3.931   9.769  0.9734 -0.6967  1.0266
 1186HK4    C4099547   0.013   4.046   9.888  0.0931 -0.1169 -0.2569
 1186HK4    C5099548  11.223   4.175   9.931  0.4567 -0.2347  0.4228
 1186HK4    H3099549  11.140   4.193  10.000  2.0857  1.5878  1.9718
 1186HK4    C4999550   0.048   4.285   9.885  0.3500 -0.2184  0.2923
 1186HK4    H2999551   0.022   4.383   9.927  0.7766 -0.2649  0.6671
 1186HK4     N299552  11.193   3.935   9.939 -0.0712 -0.1135 -0.4690
 1186HK4    C3099553   0.011   3.820   9.989  0.2313  0.0411 -0.5101
 1186HK4    C2999554   0.139   3.800  10.039  0.0685  0.2395 -0.0210
 1186HK4    H1599555   0.209   3.883  10.027 -0.1486  0.3192 -0.7531
 1186HK4    C2899556   0.187   3.679  10.085  0.6304  0.2789 -0.4979
 1186HK4    C2799557   0.090   3.576  10.088  0.1084  0.7774 -0.2298
 1186HK4    H1499558   0.122   3.482  10.136 -2.6495  0.4264  1.0441
 1186HK4    C3299559  11.206   3.590  10.048  0.0087  0.1103 -0.1305
 1186HK4    H1699560  11.131   3.516  10.077  0.3579 -0.7341 -1.3177
 1186HK4    C3199561  11.165   3.710   9.990  0.1735  0.0930 -0.2850
 1186HK4    C3499562  11.035   3.762   9.952 -0.1816  0.0279  0.8058
 1186HK4    C3399563  11.057   3.903   9.923 -0.2371  0.0115  0.6822
 1186HK4    C3599564  10.951   3.978   9.874  0.0189 -0.0707 -0.0005
 1186HK4    H1799565  10.974   4.081   9.848  5.2582 -1.0694  0.1547
 1186HK4    C3699566  10.821   3.929   9.864 -0.0204  0.0591 -0.1570
 1186HK4    H1899567  10.735   3.997   9.854 -0.5661 -0.2818  1.9478
 1186HK4    C3799568  10.808   3.793   9.890 -0.1363  0.1325  0.1716
 1186HK4    H1999569  10.721   3.747   9.845  0.9734 -1.5589 -0.2985
 1186HK4    C3899570  10.909   3.708   9.935 -0.1747  0.1570  0.3020
 1186HK4    H2099571  10.899   3.599   9.931  1.2747  0.0884 -2.0053
 1186HK4    C1499572   0.330   3.659  10.115  0.5416 -0.0205 -0.2563
 1186HK4     C999573   0.384   3.534  10.085 -0.1073 -0.2727 -0.3802
 1186HK4     C899574   0.483   3.478  10.168 -0.0738  0.4903  0.0948
 1186HK4    C1199575   0.529   3.554  10.275 -0.0160  0.4209  0.1189
 1186HK4     H499576   0.601   3.505  10.342  0.8420  0.7404 -0.5642
 1186HK4    C1299577   0.481   3.682  10.299  0.3355  0.5991 -0.1312
 1186HK4     H599578   0.540   3.750  10.362  0.5522 -0.1176  0.4408
 1186HK4    C1399579   0.386   3.740  10.216  0.2839  0.2419 -0.3194
 1186HK4     H699580   0.379   3.850  10.216  2.1062  0.3850 -0.0220
 1186HK4     C799581   0.553   3.355  10.124 -0.1998  0.3959  0.1589
 1186HK4     O299582   0.635   3.310  10.203  0.0043  0.2374 -0.1413
 1186HK4     C499583   0.507   3.286  10.001  0.4078  0.3002 -0.0154
 1186HK4     C399584   0.575   3.170   9.966 -0.7851 -0.2481 -0.5009
 1186HK4     H399585   0.656   3.126  10.026 -1.0808 -0.5302 -0.3052
 1186HK4     C299586   0.528   3.095   9.858  0.2523 -0.6206 -0.6995
 1186HK4     H299587   0.582   3.001   9.839  1.6734  0.1232 -0.4270
 1186HK4     C199588   0.415   3.137   9.789  0.0496 -0.0116 -0.0003
 1186HK4     H199589   0.386   3.076   9.702  0.2541  0.6573 -0.5421
 1186HK4     C699590   0.339   3.250   9.824  0.2763  0.2534 -0.3731
 1186HK4     C599591   0.398   3.329   9.923  0.9860  0.3016 -0.8280
 1186HK4    C1099592   0.353   3.467   9.955 -0.3692 -0.2504 -0.3278
 1186HK4     O199593   0.341   3.543   9.859  0.4619  0.2144 -0.0650
 1186HK4    C1699594   0.194   3.234   9.807  0.1646  0.1765  0.6477
 1186HK4    C1599595   0.128   3.110   9.812 -0.0850  0.2653 -0.2403
 1186HK4     H799596   0.182   3.014   9.821  0.2810  0.4401 -0.5946
 1186HK4    C2099597  11.238   3.099   9.798 -0.1199 -0.2141  0.4438
 1186HK4     H999598  11.181   3.019   9.845  0.2696 -0.2258  0.9019
 1186HK4    C1999599  11.166   3.212   9.762  0.1597 -0.2553 -0.2444
 1186HK4    C1899600  11.232   3.337   9.729  0.1196 -0.2557 -0.3231
 1186HK4    C1799601   0.120   3.342   9.758  0.0882 -0.2454 -0.1759
 1186HK4     H899602   0.177   3.423   9.713 -0.9585 -0.9817 -2.8949
 1186HK4     N199603  11.151   3.447   9.697  0.2709 -0.0795 -0.0953
 1186HK4    C2199604  11.022   3.391   9.711  0.1462  0.2042 -0.0689
 1186HK4    C2299605  11.027   3.253   9.756  0.2313 -0.1230 -1.0794
 1186HK4    C2699606  10.909   3.185   9.783  0.1909  0.5201  0.3906
 1186HK4    H1399607  10.916   3.079   9.811  0.3926  0.1298 -1.1102
 1186HK4    C2599608  10.787   3.250   9.770  0.0095  0.1953  0.4484
 1186HK4    H1299609  10.697   3.189   9.774 -1.2178  2.0348  1.9324
 1186HK4    C2499610  10.781   3.384   9.733 -0.4189  0.0112 -0.1493
 1186HK4    H1199611  10.682   3.420   9.701 -0.8750 -0.2317  0.9599
 1186HK4    C2399612  10.898   3.451   9.698 -0.1573 -0.4366 -0.1457
 1186HK4    H1099613  10.892   3.557   9.673 -0.3910 -0.6932 -1.2113
 1186HK4    C3999614  11.185   3.547   9.606  0.5721  0.1652  0.2885
 1186HK4    C4199615  11.129   3.677   9.605  0.2012  0.0028  0.0901
 1186HK4    H2199616  11.113   3.723   9.703  1.6495  0.7539 -0.0022
 1186HK4    C4299617  11.112   3.752   9.489  0.2008  0.1729  0.2003
 1186HK4    H2299618  11.039   3.835   9.490 -1.4269 -1.2212 -0.1430
 1186HK4    C4399619  11.168   3.704   9.371 -0.1391 -0.0153  0.1171
 1186HK4    H2399620  11.144   3.746   9.273 -0.7445 -1.0294 -0.1743
 1186HK4    C4499621  11.239   3.585   9.371 -0.3351 -0.1315 -0.0463
 1186HK4    H2499622   0.017   3.529   9.280 -0.1055 -1.7736  1.0155
 1186HK4    C4599623  11.242   3.504   9.484 -0.5090 -0.2021 -0.0926
 1186HK4    H2599624   0.024   3.402   9.455  1.1090  0.2429 -0.0427
 1187HK4    H2899625   0.409   9.664   7.966  1.0752  0.1634 -0.6976
 1187HK4    C4899626   0.337   9.640   7.887  0.0896  0.4640  0.0967
 1187HK4    C4799627   0.377   9.629   7.755  0.2842 -0.7098  0.2481
 1187HK4    H2799628   0.483   9.642   7.728 -0.0489  0.3314 -0.6014
 1187HK4    C4699629   0.284   9.594   7.657 -0.0997  0.0838  0.3248
 1187HK4    H2699630   0.323   9.563   7.559 -3.0668 -1.5043 -0.3910
 1187HK4    C4099631   0.154   9.552   7.692  0.0855 -0.4199  0.4085
 1187HK4    C5099632   0.118   9.561   7.828  0.1298 -0.4325  0.4219
 1187HK4    H3099633   0.017   9.532   7.858  0.3233 -1.2369  0.3289
 1187HK4    C4999634   0.208   9.605   7.924 -0.0288  0.8049  0.0031
 1187HK4    H2999635   0.180   9.583   8.028 -1.5211  1.1426 -0.3137
 1187HK4     N299636   0.062   9.506   7.597  0.0045 -0.2340  0.3947
 1187HK4    C3099637   0.068   9.528   7.458  0.7982 -0.4794  0.3885
 1187HK4    C2999638   0.113   9.640   7.389 -0.1735 -0.3172  0.0164
 1187HK4    H1599639   0.149   9.725   7.446  2.0550 -2.1156  1.3673
 1187HK4    C2899640   0.102   9.652   7.250 -0.0366 -0.0457  0.0285
 1187HK4    C2799641   0.053   9.543   7.176  0.5743 -0.1615 -0.2049
 1187HK4    H1499642   0.064   9.538   7.066 -0.1449 -0.3364 -0.2721
 1187HK4    C3299643   0.012   9.427   7.241  0.5681  0.2681  0.5601
 1187HK4    H1699644  11.211   9.348   7.184 -0.7848  0.4949  1.3755
 1187HK4    C3199645   0.014   9.419   7.379 -0.5951  0.0684  0.5749
 1187HK4    C3499646  11.212   9.323   7.476 -0.6690 -0.1362  0.3346
 1187HK4    C3399647  11.247   9.380   7.604 -0.1571 -0.1633  0.2043
 1187HK4    C3599648  11.199   9.314   7.717 -1.1293  0.1435 -0.0235
 1187HK4    H1799649  11.214   9.358   7.816 -1.4219  3.2684 -1.3184
 1187HK4    C3699650  11.116   9.203   7.707 -0.7687 -0.1787  0.5351
 1187HK4    H1899651  11.093   9.157   7.804  2.0307  1.6379  2.1178
 1187HK4    C3799652  11.074   9.154   7.584  0.3021  0.3941 -0.0676
 1187HK4    H1999653  11.008   9.067   7.588 -1.7652  1.9550  0.7576
 1187HK4    C3899654  11.128   9.213   7.470 -0.3149 -0.3566 -0.7478
 1187HK4    H2099655  11.108   9.154   7.380 -1.5081 -0.0716 -0.6836
 1187HK4    C1499656   0.123   9.787   7.196  0.3186 -0.2505 -0.3566
 1187HK4     C999657   0.063   9.828   7.076 -0.3628  0.4927  0.2312
 1187HK4     C899658   0.135   9.913   6.990  0.2157 -0.3644 -0.1393
 1187HK4    C1199659   0.263   9.954   7.026  0.1664 -0.0687 -0.3043
 1187HK4     H499660   0.326  10.005   6.952  0.8566 -0.4974 -0.0116
 1187HK4    C1299661   0.316   9.935   7.153 -0.1183  0.5282 -0.0902
 1187HK4     H599662   0.419   9.974   7.161  1.0971 -2.2719 -1.0871
 1187HK4    C1399663   0.245   9.847   7.233 -0.0871  0.4473 -0.1475
 1187HK4     H699664   0.301   9.824   7.325  1.1571 -0.1696 -1.0528
 1187HK4     C799665   0.072   9.947   6.860 -0.3600 -0.0602  0.2175
 1187HK4     O299666   0.121  10.041   6.798  0.3501 -0.5960 -0.0484
 1187HK4     C499667  11.187   9.899   6.819 -0.3738  0.0568  0.1267
 1187HK4     C399668  11.130   9.919   6.694 -0.0932 -0.2102 -0.0442
 1187HK4     H399669  11.164   9.993   6.619  0.4830  0.6677  1.0797
 1187HK4     C299670  11.013   9.858   6.652  0.0016 -0.3106 -0.1669
 1187HK4     H299671  10.963   9.885   6.558 -1.2235  0.9495  0.8197
 1187HK4     C199672  10.957   9.761   6.734 -0.8583 -0.3117 -0.7452
 1187HK4     H199673  10.854   9.728   6.715 -1.0283  0.9653 -2.0920
 1187HK4     C699674  11.022   9.722   6.853 -0.1156  0.3691 -0.9264
 1187HK4     C599675  11.124   9.804   6.903  0.1237 -0.4450 -0.0647
 1187HK4    C1099676  11.173   9.782   7.042 -0.1438 -0.0631  0.0907
 1187HK4     O199677  11.091   9.785   7.134  0.1513 -0.0127  0.3520
 1187HK4    C1699678  11.009   9.580   6.887 -0.3189  0.5565 -0.1877
 1187HK4    C1599679  11.042   9.486   6.787 -0.1266 -0.1649  0.5487
 1187HK4     H799680  11.080   9.523   6.691  0.6115 -1.2381  0.4138
 1187HK4    C2099681  11.017   9.351   6.810  0.8308 -0.4869 -0.2588
 1187HK4     H999682  11.027   9.278   6.729 -0.7742 -0.8079 -0.1766
 1187HK4    C1999683  10.968   9.304   6.931  0.9958 -0.0252 -0.0161
 1187HK4    C1899684  10.932   9.400   7.034  0.5441 -0.2267  0.0104
 1187HK4    C1799685  10.952   9.535   7.006  0.4968 -0.2382 -0.0959
 1187HK4     H899686  10.902   9.610   7.067  0.1672  0.3887 -1.1193
 1187HK4     N199687  10.889   9.335   7.151 -0.0951 -0.1135 -0.1589
 1187HK4    C2199688  10.905   9.196   7.130  0.0964 -0.1153 -0.0270
 1187HK4    C2299689  10.952   9.175   6.995 -0.6482  0.0209 -0.3111
 1187HK4    C2699690  10.996   9.046   6.967 -0.5605 -0.0832  0.2995
 1187HK4    H1399691  11.034   9.018   6.869  2.8568 -0.4172  1.6566
 1187HK4    C2599692  10.997   8.942   7.059 -0.9435  0.0172  0.4194
 1187HK4    H1299693  11.054   8.855   7.027  1.1013  2.2947 -2.3929
 1187HK4    C2499694  10.952   8.969   7.188 -0.1677  0.2226  0.6542
 1187HK4    H1199695  10.987   8.895   7.261  0.6786  0.9344  0.9759
 1187HK4    C2399696  10.901   9.093   7.223 -0.1659  0.2905  0.4150
 1187HK4    H1099697  10.860   9.114   7.322  2.5889 -0.9906  1.8898
 1187HK4    C3999698  10.864   9.400   7.273  0.3870 -0.4392  0.1151
 1187HK4    C4199699  10.780   9.339   7.367 -0.7063  0.3718 -0.3197
 1187HK4    H2199700  10.696   9.274   7.340 -0.0273 -1.5852  2.0221
 1187HK4    C4299701  10.776   9.377   7.501  0.4773 -0.0466 -0.1581
 1187HK4    H2299702  10.737   9.300   7.570 -0.1454  0.0884 -0.3547
 1187HK4    C4399703  10.846   9.487   7.547  0.4615 -0.0315 -0.1637
 1187HK4    H2399704  10.864   9.510   7.652  1.4313  0.7521 -0.4906
 1187HK4    C4499705  10.920   9.560   7.455  0.6124 -0.0295 -0.0402
 1187HK4    H2499706  10.986   9.645   7.480  0.5576  0.6240 -1.9715
 1187HK4    C4599707  10.930   9.514   7.324  0.1883 -0.2793  0.0128
 1187HK4    H2599708  11.009   9.555   7.260 -0.4897 -0.0674 -0.6928
 1188HK4    H2899709   3.862   4.124   6.052 -1.1935  1.8165 -0.6887
 1188HK4    C4899710   3.951   4.186   6.062 -0.3889  0.5223  0.2828
 1188HK4    C4799711   4.020   4.230   5.950  0.0035  0.2771  0.4240
 1188HK4    H2799712   3.966   4.216   5.855 -1.8552  0.3808  1.4432
 1188HK4    C4699713   4.151   4.274   5.962 -0.0760  0.6534 -0.0497
 1188HK4    H2699714   4.206   4.305   5.872  1.0328  0.0496  0.4081
 1188HK4    C4099715   4.225   4.266   6.082  0.2797 -0.4009 -0.3377
 1188HK4    C5099716   4.154   4.220   6.195  0.3189  0.2916 -0.0249
 1188HK4    H3099717   4.204   4.213   6.293  0.5689  1.0967 -0.0939
 1188HK4    C4999718   4.019   4.188   6.184  0.2598  0.5628 -0.0795
 1188HK4    H2999719   3.969   4.180   6.281  1.1906 -0.5731  0.3198
 1188HK4     N299720   4.341   4.342   6.100  0.1064 -0.2113  0.0022
 1188HK4    C3099721   4.441   4.314   6.195 -0.4515  0.1386  0.6924
 1188HK4    C2999722   4.496   4.197   6.246 -0.3475 -0.0962  0.0441
 1188HK4    H1599723   4.431   4.110   6.257 -1.6917  0.7732 -0.8838
 1188HK4    C2899724   4.622   4.192   6.305 -0.1960  0.0707 -0.2636
 1188HK4    C2799725   4.698   4.310   6.316  0.1372 -0.1410 -0.2944
 1188HK4    H1499726   4.808   4.310   6.324  0.1891  0.2327 -0.9509
 1188HK4    C3299727   4.635   4.430   6.288 -0.3103 -0.1143  0.7865
 1188HK4    H1699728   4.657   4.519   6.348 -0.1955  0.6261 -0.3339
 1188HK4    C3199729   4.515   4.437   6.218  0.1966 -0.0941 -0.1013
 1188HK4    C3499730   4.467   4.542   6.130 -0.3065  0.3029  0.6392
 1188HK4    C3399731   4.364   4.473   6.055 -0.1279  0.0440  0.6295
 1188HK4    C3599732   4.307   4.543   5.948 -0.0974  0.0887  0.6399
 1188HK4    H1799733   4.214   4.508   5.905  0.6987 -0.5388 -0.6197
 1188HK4    C3699734   4.344   4.674   5.921 -0.3471  0.1452  0.5788
 1188HK4    H1899735   4.286   4.727   5.844 -1.0974 -1.3506  0.0963
 1188HK4    C3799736   4.439   4.737   6.000  0.6462  0.0214 -0.5005
 1188HK4    H1999737   4.454   4.845   5.986  1.4029  0.1352  1.1242
 1188HK4    C3899738   4.506   4.672   6.103  0.0973  0.0206 -0.1417
 1188HK4    H2099739   4.569   4.731   6.169 -1.3168  0.4443  0.8546
 1188HK4    C1499740   4.667   4.066   6.366  0.5512  0.1946 -0.5604
 1188HK4     C999741   4.770   4.060   6.461  0.2409  0.3027 -0.2136
 1188HK4     C899742   4.860   3.951   6.454  0.0623  0.1599 -0.2960
 1188HK4    C1199743   4.833   3.842   6.372 -0.3690  0.1472 -0.1373
 1188HK4     H499744   4.893   3.751   6.382  1.4234  1.3130  0.0193
 1188HK4    C1299745   4.732   3.846   6.277 -0.2363 -0.2182 -0.2954
 1188HK4     H599746   4.737   3.790   6.183 -2.0026  1.3099 -1.3362
 1188HK4    C1399747   4.654   3.961   6.273  0.1334  0.0320 -0.3149
 1188HK4     H699748   4.574   3.976   6.199 -1.9574  3.1029  2.3997
 1188HK4     C799749   4.983   3.949   6.537 -0.0446 -0.3152 -0.1476
 1188HK4     O299750   5.087   3.900   6.494  0.3549  0.6159 -0.2478
 1188HK4     C499751   4.990   4.048   6.646 -0.2412 -0.1793 -0.2570
 1188HK4     C399752   5.081   4.027   6.749  0.1058  0.1059 -0.5020
 1188HK4     H399753   5.121   3.926   6.768  1.7568  1.4731  3.9267
 1188HK4     C299754   5.115   4.128   6.838 -0.1314 -0.3764  0.1425
 1188HK4     H299755   5.165   4.114   6.935 -1.3790  1.8192  1.1409
 1188HK4     C199756   5.065   4.254   6.807  1.0941 -0.1848 -1.0841
 1188HK4     H199757   5.110   4.335   6.866  0.3885 -1.1060  0.7303
 1188HK4     C699758   4.967   4.280   6.709 -0.1584  0.1016  0.2495
 1188HK4     C599759   4.923   4.171   6.633  0.1385  0.0703  0.1247
 1188HK4    C1099760   4.793   4.168   6.560  0.3304  0.2989 -0.2304
 1188HK4     O199761   4.699   4.213   6.626  0.4123  0.2268 -0.0645
 1188HK4    C1699762   4.923   4.419   6.693 -0.1191  0.1177  0.2823
 1188HK4    C1599763   4.919   4.508   6.802  0.3798 -0.2384  0.5910
 1188HK4     H799764   4.903   4.466   6.902 -0.2902 -2.7699 -0.5340
 1188HK4    C2099765   4.911   4.646   6.786  0.8240 -0.2746  0.0304
 1188HK4     H999766   4.919   4.711   6.873  0.4242 -0.2676  0.0633
 1188HK4    C1999767   4.900   4.704   6.660  0.0382 -0.3629  0.0524
 1188HK4    C1899768   4.903   4.614   6.546 -0.2388 -0.0154 -0.2295
 1188HK4    C1799769   4.915   4.477   6.566 -0.2935  0.0516  0.2625
 1188HK4     H899770   4.894   4.416   6.479 -1.1897  2.1560 -1.0382
 1188HK4     N199771   4.882   4.679   6.423 -0.0422  0.2507 -0.1229
 1188HK4    C2199772   4.858   4.815   6.456  0.5650  0.2583  0.3140
 1188HK4    C2299773   4.883   4.833   6.597  0.3570 -0.1465  0.4055
 1188HK4    C2699774   4.890   4.961   6.650  0.4011  0.1912 -0.4108
 1188HK4    H1399775   4.913   4.971   6.756  0.0246  0.5695 -0.3616
 1188HK4    C2599776   4.875   5.073   6.569  0.3359  0.5876  0.1441
 1188HK4    H1299777   4.852   5.172   6.609 -2.4745  0.2010 -0.4509
 1188HK4    C2499778   4.857   5.060   6.432 -0.0765 -0.0766  0.2587
 1188HK4    H1199779   4.809   5.144   6.380  2.1327  0.4990 -0.9572
 1188HK4    C2399780   4.853   4.931   6.380  0.6375  0.0241 -0.0535
 1188HK4    H1099781   4.860   4.915   6.273  0.2129 -1.9165  0.1898
 1188HK4    C3999782   4.926   4.637   6.297  0.1420  0.1157 -0.0134
 1188HK4    C4199783   4.861   4.672   6.177  0.0478  0.0191  0.0109
 1188HK4    H2199784   4.771   4.735   6.172  0.0772 -0.0333 -1.1975
 1188HK4    C4299785   4.895   4.618   6.053  0.1855  0.6979 -0.2442
 1188HK4    H2299786   4.857   4.668   5.963 -0.8486  1.2160  0.4650
 1188HK4    C4399787   4.998   4.525   6.045 -0.2663  0.1342  0.3534
 1188HK4    H2399788   5.002   4.464   5.955  0.7712  1.4055 -0.4935
 1188HK4    C4499789   5.069   4.497   6.160  0.6159  1.1199  0.0649
 1188HK4    H2499790   5.128   4.404   6.159  0.4503  1.0241 -1.6051
 1188HK4    C4599791   5.035   4.548   6.285 -0.0107 -0.1365  0.4232
 1188HK4    H2599792   5.098   4.520   6.371  0.0905  1.0058  0.7326
 1189HK4    H2899793   3.088   5.720   1.611  0.1853  1.5351  0.8272
 1189HK4    C4899794   2.982   5.701   1.595  0.4534  0.3354  0.4449
 1189HK4    C4799795   2.933   5.677   1.467  0.2776  0.3234  0.5142
 1189HK4    H2799796   2.995   5.706   1.381 -5.0329  0.3172 -3.5376
 1189HK4    C4699797   2.804   5.628   1.451  0.1927  0.4611  0.7694
 1189HK4    H2699798   2.784   5.585   1.351  2.6791 -0.2918  0.5509
 1189HK4    C4099799   2.718   5.608   1.561 -0.7959  0.3217 -0.0142
 1189HK4    C5099800   2.770   5.640   1.688  0.2844 -0.7602 -0.1766
 1189HK4    H3099801   2.706   5.658   1.776  0.4526  0.7244 -0.3474
 1189HK4    C4999802   2.901   5.683   1.707  0.1435 -0.4444  0.1017
 1189HK4    H2999803   2.936   5.691   1.811  0.9395  0.5355 -0.2363
 1189HK4     N299804   2.590   5.556   1.543 -0.8110  0.1621  0.5523
 1189HK4    C3099805   2.518   5.564   1.422 -0.2421  0.5152  0.2371
 1189HK4    C2999806   2.509   5.673   1.337 -0.0009  0.3247 -0.0336
 1189HK4    H1599807   2.565   5.760   1.374  0.8457 -0.6033  0.9048
 1189HK4    C2899808   2.434   5.661   1.220 -0.4328 -0.1120  0.2885
 1189HK4    C2799809   2.376   5.538   1.186  0.2767 -0.3297 -0.1465
 1189HK4    H1499810   2.330   5.522   1.088  2.3799 -3.7409 -0.6897
 1189HK4    C3299811   2.375   5.429   1.273 -0.3555  0.1900  0.5105
 1189HK4    H1699812   2.304   5.347   1.261  0.7647 -0.6483 -0.6046
 1189HK4    C3199813   2.439   5.446   1.395 -0.5125  0.6280  0.5327
 1189HK4    C3499814   2.449   5.360   1.512  0.7110 -0.1357 -0.1215
 1189HK4    C3399815   2.537   5.437   1.597  0.4527 -0.4534  0.4363
 1189HK4    C3599816   2.543   5.409   1.733  0.5937 -0.4146  0.4388
 1189HK4    H1799817   2.597   5.472   1.804  3.0587 -1.5890 -0.3451
 1189HK4    C3699818   2.476   5.298   1.784  0.3755 -0.5735 -0.1907
 1189HK4    H1899819   2.513   5.256   1.878  0.1594 -1.6618 -0.5865
 1189HK4    C3799820   2.396   5.222   1.700  0.2735 -0.1686 -0.4641
 1189HK4    H1999821   2.343   5.141   1.750 -3.0846  0.4700 -2.7841
 1189HK4    C3899822   2.379   5.252   1.565  0.6876 -0.3405 -0.5560
 1189HK4    H2099823   2.327   5.183   1.499 -0.1394 -1.0092  0.7573
 1189HK4    C1499824   2.406   5.783   1.142 -0.3508 -0.3695 -0.1403
 1189HK4     C999825   2.302   5.796   1.049 -0.2396  0.2489 -0.1748
 1189HK4     C899826   2.312   5.880   0.937  0.1927  0.2767 -0.1191
 1189HK4    C1199827   2.413   5.975   0.929  0.4290  0.0144 -0.2290
 1189HK4     H499828   2.424   6.053   0.853 -0.7547  1.0469  0.6300
 1189HK4    C1299829   2.515   5.968   1.023  0.1828 -0.6982 -0.0119
 1189HK4     H599830   2.595   6.044   1.018  1.2686 -1.9173 -1.7582
 1189HK4    C1399831   2.513   5.873   1.124  0.1324 -0.9658 -0.2642
 1189HK4     H699832   2.600   5.862   1.191 -0.7641  0.1584  1.0961
 1189HK4     C799833   2.216   5.866   0.824  0.1561 -0.1309 -0.0384
 1189HK4     O299834   2.204   5.948   0.733  0.0620 -0.4141 -0.2820
 1189HK4     C499835   2.118   5.756   0.828 -0.6072  0.5396  0.0001
 1189HK4     C399836   2.067   5.714   0.705 -0.3233  0.3589 -0.0573
 1189HK4     H399837   2.096   5.756   0.608  0.3827  0.5568  0.2365
 1189HK4     C299838   1.967   5.618   0.705  0.1436 -0.1272  0.3431
 1189HK4     H299839   1.936   5.580   0.607  0.5316 -1.3697  0.6814
 1189HK4     C199840   1.939   5.553   0.825 -0.1851 -0.3298  0.1566
 1189HK4     H199841   1.856   5.481   0.825 -1.7519  1.3834 -2.7107
 1189HK4     C699842   1.996   5.589   0.949 -0.4382  0.4100  0.0581
 1189HK4     C599843   2.083   5.698   0.951  0.0970 -0.0147 -0.0578
 1189HK4    C1099844   2.169   5.732   1.068 -0.2002  0.2445  0.0826
 1189HK4     O199845   2.099   5.753   1.168  0.2802 -0.0822  0.4900
 1189HK4    C1699846   2.005   5.475   1.042 -0.0741  0.1393 -0.3086
 1189HK4    C1599847   2.035   5.343   1.002 -0.3739  0.0153 -0.1307
 1189HK4     H799848   2.070   5.327   0.898  2.6334  3.2544  0.2716
 1189HK4    C2099849   2.028   5.233   1.085 -0.6525  0.1809  0.0655
 1189HK4     H999850   2.049   5.129   1.060  1.2068  0.6265 -0.3122
 1189HK4    C1999851   1.982   5.247   1.216  0.5246  0.1862  0.4921
 1189HK4    C1899852   1.962   5.383   1.260 -0.2184  0.3404 -0.2878
 1189HK4    C1799853   1.964   5.492   1.174  0.1387  0.3478 -0.2695
 1189HK4     H899854   1.926   5.587   1.212 -0.4744  0.7556 -1.8587
 1189HK4     N199855   1.952   5.383   1.401  0.1498 -0.0367 -0.2619
 1189HK4    C2199856   1.976   5.251   1.445  0.4480  0.1055  0.0021
 1189HK4    C2299857   1.988   5.161   1.332  0.5780 -0.1627  0.2314
 1189HK4    C2699858   2.031   5.030   1.350 -0.6068 -0.7063 -0.8001
 1189HK4    H1399859   2.002   4.952   1.280 -2.0396 -0.0508 -0.9426
 1189HK4    C2599860   2.070   4.987   1.476  0.1036  0.3546 -0.6516
 1189HK4    H1299861   2.097   4.883   1.496  0.1731 -0.1922 -3.4323
 1189HK4    C2499862   2.058   5.075   1.583 -0.6887 -0.2824 -0.2100
 1189HK4    H1199863   2.077   5.035   1.684  3.5106  0.7624 -0.4637
 1189HK4    C2399864   2.002   5.202   1.572  0.3021  0.1831  0.0621
 1189HK4    H1099865   1.988   5.265   1.660  0.2761  0.0050  0.1852
 1189HK4    C3999866   1.988   5.492   1.481 -0.1301  0.1640 -0.4063
 1189HK4    C4199867   1.933   5.496   1.611 -0.0548  0.2615 -0.3773
 1189HK4    H2199868   1.836   5.445   1.625 -0.7383  1.4243 -0.8203
 1189HK4    C4299869   1.995   5.569   1.712  0.5359 -0.4587 -0.2165
 1189HK4    H2299870   1.967   5.564   1.818  1.1921  1.6046  0.0776
 1189HK4    C4399871   2.116   5.633   1.691  0.4999 -0.2520  0.2049
 1189HK4    H2399872   2.142   5.711   1.762 -1.7490  2.4770 -1.8402
 1189HK4    C4499873   2.175   5.626   1.565 -0.1131 -0.2087 -0.0841
 1189HK4    H2499874   2.277   5.664   1.550 -0.1468  0.0058  0.2490
 1189HK4    C4599875   2.109   5.560   1.461  0.1291 -0.2422 -0.2180
 1189HK4    H2599876   2.136   5.595   1.360  2.4241  0.7817  0.7073
 1190HK4    H2899877   0.766   6.230   3.773  0.1435 -0.8579 -0.2440
 1190HK4    C4899878   0.662   6.217   3.803  0.0553  0.1305 -0.1131
 1190HK4    C4799879   0.647   6.237   3.940 -0.0010  0.8178 -0.2174
 1190HK4    H2799880   0.741   6.231   3.997 -0.1285  0.9322  0.0037
 1190HK4    C4699881   0.522   6.248   4.000  0.0143  0.1159 -0.0519
 1190HK4    H2699882   0.510   6.263   4.108  1.3754  0.5336  0.0564
 1190HK4    C4099883   0.407   6.232   3.920 -0.0500  0.4972 -0.0383
 1190HK4    C5099884   0.426   6.218   3.781 -0.5147  0.7609 -0.1303
 1190HK4    H3099885   0.343   6.217   3.709  0.6659  2.2141 -1.5370
 1190HK4    C4999886   0.550   6.204   3.721 -0.3160  0.5802  0.3208
 1190HK4    H2999887   0.559   6.200   3.612 -0.5066  1.1680  0.2826
 1190HK4     N299888   0.293   6.175   3.980  0.0798 -0.1116 -0.3619
 1190HK4    C3099889   0.283   6.091   4.093 -0.0371 -0.3759 -0.5687
 1190HK4    C2999890   0.369   5.994   4.141  0.2016  0.1187  0.0203
 1190HK4    H1599891   0.472   5.988   4.104  0.8860 -1.7172  2.1297
 1190HK4    C2899892   0.334   5.901   4.238  0.4522  0.0989  0.0924
 1190HK4    C2799893   0.200   5.905   4.284  0.2419 -0.1248 -0.4987
 1190HK4    H1499894   0.168   5.843   4.369  0.4543  1.2767  0.6300
 1190HK4    C3299895   0.107   5.996   4.236  0.0619  0.0041  0.0903
 1190HK4    H1699896   0.006   5.999   4.275 -0.8759 -0.8486 -2.1884
 1190HK4    C3199897   0.145   6.089   4.140  0.1982  0.0061  0.1453
 1190HK4    C3499898   0.069   6.174   4.051 -0.2962 -0.3338  0.2461
 1190HK4    C3399899   0.165   6.229   3.957 -0.1956 -0.4954  0.2532
 1190HK4    C3599900   0.111   6.280   3.840 -0.0997 -0.0456  0.4055
 1190HK4    H1799901   0.180   6.336   3.776  0.0174  0.4113  0.9278
 1190HK4    C3699902  11.225   6.268   3.805 -0.1077  0.5506  0.2217
 1190HK4    H1899903  11.183   6.288   3.705  0.4654  3.8019  0.5582
 1190HK4    C3799904  11.134   6.207   3.891  0.2573 -0.3981 -0.0540
 1190HK4    H1999905  11.033   6.192   3.853  0.7494 -2.5386 -0.5934
 1190HK4    C3899906  11.184   6.160   4.012 -0.2089 -0.6328  0.0461
 1190HK4    H2099907  11.111   6.125   4.084 -1.5292 -0.1149 -1.0102
 1190HK4    C1499908   0.422   5.786   4.260 -0.0410 -0.2591  0.2131
 1190HK4     C999909   0.386   5.654   4.289 -0.3245 -0.0899  0.6202
 1190HK4     C899910   0.464   5.578   4.379  0.0753 -0.1030  0.2623
 1190HK4    C1199911   0.589   5.626   4.416  0.3726 -0.6194 -0.0709
 1190HK4     H499912   0.607   5.608   4.523  0.7306 -1.5871 -0.2881
 1190HK4    C1299913   0.643   5.744   4.368 -0.3883 -0.2624 -0.0550
 1190HK4     H599914   0.747   5.772   4.389  0.4889 -1.1038 -3.0314
 1190HK4    C1399915   0.552   5.825   4.299  0.0853 -0.0378 -0.4190
 1190HK4     H699916   0.585   5.928   4.281 -1.1937  0.4174 -0.2148
 1190HK4     C799917   0.416   5.444   4.420 -0.1408 -0.1526 -0.1525
 1190HK4     O299918   0.462   5.389   4.519 -0.3408  0.2487  0.1646
 1190HK4     C499919   0.320   5.376   4.331 -0.3954  0.1394 -0.1014
 1190HK4     C399920   0.271   5.254   4.376 -0.0796  0.0845  0.0841
 1190HK4     H399921   0.291   5.222   4.480  0.5880  1.1417  0.2871
 1190HK4     C299922   0.183   5.186   4.293  0.0225 -0.2426  0.2396
 1190HK4     H299923   0.129   5.101   4.338  1.9212 -1.2289  0.6883
 1190HK4     C199924   0.158   5.232   4.164  0.1292  0.1441  0.3564
 1190HK4     H199925   0.109   5.158   4.099 -0.6725  0.7473  0.2646
 1190HK4     C699926   0.210   5.353   4.114  0.1074 -0.1951 -0.4864
 1190HK4     C599927   0.281   5.431   4.207  0.0630 -0.2389 -0.4152
 1190HK4    C1099928   0.294   5.579   4.199  0.1726 -0.2132  0.2177
 1190HK4     O199929   0.200   5.637   4.144 -0.0616 -0.7569  0.0431
 1190HK4    C1699930   0.164   5.392   3.980  0.1956  0.3118 -0.3709
 1190HK4    C1599931   0.040   5.350   3.929 -0.0557  0.6536 -0.0359
 1190HK4     H799932  11.208   5.326   4.001 -0.1713 -0.9394 -0.6868
 1190HK4    C2099933   0.001   5.371   3.797 -0.2548 -0.2764 -0.1251
 1190HK4     H999934  11.152   5.334   3.765 -1.7788  2.4970  1.1789
 1190HK4    C1999935   0.086   5.437   3.709 -0.3992 -0.1867 -0.1974
 1190HK4    C1899936   0.211   5.489   3.761 -0.5978  0.3903 -0.2873
 1190HK4    C1799937   0.244   5.467   3.894  0.2968 -0.0266 -0.5743
 1190HK4     H899938   0.331   5.521   3.932  0.2280  0.2098 -0.7546
 1190HK4     N199939   0.275   5.557   3.656 -0.3570  0.5279 -0.0517
 1190HK4    C2199940   0.187   5.565   3.546  0.2171 -0.7864 -0.6135
 1190HK4    C2299941   0.065   5.491   3.576 -0.1153 -0.0783 -0.1977
 1190HK4    C2699942  11.204   5.498   3.490 -0.4587  0.0757  0.2513
 1190HK4    H1399943  11.104   5.473   3.525 -0.7587  2.4451  1.1729
 1190HK4    C2599944  11.213   5.579   3.377 -0.1173 -0.0538  0.1851
 1190HK4    H1299945  11.137   5.572   3.299  1.2416 -0.6633 -1.1077
 1190HK4    C2499946   0.080   5.649   3.342 -0.0873 -0.2876 -0.1834
 1190HK4    H1199947   0.072   5.728   3.266  1.1004 -0.5841 -0.6367
 1190HK4    C2399948   0.191   5.631   3.424 -0.0552  0.1379 -0.1307
 1190HK4    H1099949   0.288   5.672   3.394  0.3470 -0.7423 -0.0700
 1190HK4    C3999950   0.399   5.622   3.669 -0.2479  0.3378 -0.1376
 1190HK4    C4199951   0.478   5.634   3.553 -0.1226  0.1326 -0.0726
 1190HK4    H2199952   0.494   5.545   3.490  1.9843  0.7147 -0.3937
 1190HK4    C4299953   0.559   5.745   3.533 -0.7626  0.5406 -0.4425
 1190HK4    H2299954   0.604   5.769   3.436  2.8022  1.9269  1.4405
 1190HK4    C4399955   0.574   5.841   3.633 -0.8496  0.0733  0.0206
 1190HK4    H2399956   0.614   5.940   3.612 -1.4854  0.6992  1.6817
 1190HK4    C4499957   0.512   5.820   3.756 -0.8901 -0.3151 -0.0661
 1190HK4    H2499958   0.537   5.889   3.837  2.2872 -1.8276  0.3209
 1190HK4    C4599959   0.425   5.712   3.774 -0.0727 -0.8306  0.8306
 1190HK4    H2599960   0.347   5.719   3.851 -0.1787 -0.1095  0.6647
 1191HK4    H2899961   1.300   6.165   6.161  1.5623 -0.0517 -3.3191
 1191HK4    C4899962   1.328   6.061   6.181  0.8878  0.4200  0.4554
 1191HK4    C4799963   1.379   5.987   6.076 -0.6124  0.3375 -0.2201
 1191HK4    H2799964   1.405   6.041   5.984 -1.4120 -0.4505 -0.9208
 1191HK4    C4699965   1.395   5.850   6.098 -0.9531  0.2599 -0.4392
 1191HK4    H2699966   1.449   5.801   6.017 -0.5490 -1.3665  0.7993
 1191HK4    C4099967   1.355   5.776   6.211  0.3731 -0.2187 -0.2853
 1191HK4    C5099968   1.291   5.856   6.308  0.3347 -0.1614 -0.3585
 1191HK4    H3099969   1.234   5.801   6.383  0.6023  2.2228  1.6709
 1191HK4    C4999970   1.280   5.994   6.293  0.4500 -0.1186 -0.0498
 1191HK4    H2999971   1.209   6.046   6.359 -1.4883  0.6576 -2.6750
 1191HK4     N299972   1.348   5.637   6.222  0.1689 -0.1725  0.2078
 1191HK4    C3099973   1.338   5.545   6.115 -0.3612 -0.2216  0.2982
 1191HK4    C2999974   1.304   5.568   5.982  0.4958  0.4987  0.1906
 1191HK4    H1599975   1.264   5.666   5.957 -1.3803 -0.4669 -0.6964
 1191HK4    C2899976   1.312   5.475   5.879  0.1294  0.2895  0.3495
 1191HK4    C2799977   1.347   5.343   5.914  0.1010  0.0620 -0.4620
 1191HK4    H1499978   1.329   5.253   5.854 -0.7185  0.5435 -0.9339
 1191HK4    C3299979   1.378   5.317   6.047  0.3173  0.4981 -0.4266
 1191HK4    H1699980   1.425   5.221   6.068  1.4657  0.5935 -2.4649
 1191HK4    C3199981   1.372   5.409   6.151  0.2188 -0.1252  0.1224
 1191HK4    C3499982   1.410   5.416   6.291 -0.1626  0.0618  0.2160
 1191HK4    C3399983   1.394   5.555   6.328 -0.5126 -0.0714  0.5831
 1191HK4    C3599984   1.433   5.591   6.456  0.3169  0.0992  0.2854
 1191HK4    H1799985   1.411   5.692   6.490 -1.0008  0.3785 -1.3733
 1191HK4    C3699986   1.496   5.497   6.537  0.6848  0.1591  0.0693
 1191HK4    H1899987   1.534   5.519   6.637 -1.1352  1.3507  0.5275
 1191HK4    C3799988   1.515   5.364   6.500 -0.1663  0.1858 -0.4659
 1191HK4    H1999989   1.594   5.312   6.553 -0.5521  1.1219  1.0355
 1191HK4    C3899990   1.460   5.321   6.379 -0.1242 -0.3833 -0.2820
 1191HK4    H2099991   1.462   5.212   6.369  2.4183 -0.7411  3.1929
 1191HK4    C1499992   1.212   5.500   5.774 -0.1118 -0.1819  0.4636
 1191HK4     C999993   1.121   5.402   5.732 -0.4413  0.4258 -0.2528
 1191HK4     C899994   1.110   5.380   5.594 -0.4378  0.5063 -0.2666
 1191HK4    C1199995   1.150   5.479   5.504 -0.4063  0.3813 -0.3885
 1191HK4     H499996   1.141   5.472   5.395  1.3618 -0.6988 -0.4785
 1191HK4    C1299997   1.222   5.589   5.550  0.8417 -0.5394 -0.1055
 1191HK4     H599998   1.259   5.661   5.475 -0.9486  0.0700 -0.4314
 1191HK4    C1399999   1.262   5.595   5.683  0.3129 -0.7729  0.0699
 1191HK4     H6    0   1.329   5.673   5.723 -1.2519  0.6824 -0.1106
 1191HK4     C7    1   1.056   5.248   5.556  0.0838  0.1827  0.1037
 1191HK4     O2    2   1.060   5.200   5.443  0.0474 -0.7456  0.4894
 1191HK4     C4    3   0.995   5.161   5.659 -0.0390  0.0514 -0.0803
 1191HK4     C3    4   0.955   5.033   5.622  0.4023 -0.0073 -0.3550
 1191HK4     H3    5   0.978   4.988   5.524  0.3934  0.5865 -0.6342
 1191HK4     C2    6   0.884   4.956   5.713 -0.4310  0.5579 -0.5244
 1191HK4     H2    7   0.867   4.849   5.694 -1.4791  0.8226 -1.1219
 1191HK4     C1    8   0.829   5.017   5.825 -0.5215  0.3730 -0.4671
 1191HK4     H1    9   0.759   4.963   5.890  2.2604 -1.8612  0.7382
 1191HK4     C6   10   0.857   5.151   5.860 -0.1123  0.0867  0.3084
 1191HK4     C5   11   0.955   5.215   5.783 -0.0183 -0.3194  0.0877
 1191HK4    C10   12   1.029   5.336   5.829  0.1633 -0.3274 -0.1847
 1191HK4     O1   13   1.030   5.366   5.948 -0.7723 -0.0398 -0.2451
 1191HK4    C16   14   0.802   5.201   5.987 -0.3163 -0.1345  0.3079
 1191HK4    C15   15   0.801   5.121   6.103 -0.2790 -0.3482  0.1636
 1191HK4     H7   16   0.866   5.032   6.102  0.2115  0.0042 -1.4495
 1191HK4    C20   17   0.731   5.153   6.219 -0.1368  0.1971  0.1011
 1191HK4     H9   18   0.730   5.087   6.306  0.8258  2.0415  1.5281
 1191HK4    C19   19   0.660   5.272   6.218 -0.0481  0.2484 -0.2714
 1191HK4    C18   20   0.649   5.352   6.098  0.4252  0.0437 -0.4496
 1191HK4    C17   21   0.722   5.314   5.985 -0.4132 -0.2145 -0.9096
 1191HK4     H8   22   0.734   5.379   5.899 -0.5836 -1.2456 -1.7170
 1191HK4     N1   23   0.547   5.449   6.108 -0.2417 -0.6499 -0.4353
 1191HK4    C21   24   0.503   5.436   6.241  0.4082  0.2887 -0.1199
 1191HK4    C22   25   0.565   5.327   6.314 -0.1081 -0.0385 -0.1625
 1191HK4    C26   26   0.550   5.320   6.452 -0.6216  0.0080 -0.2161
 1191HK4    H13   27   0.599   5.238   6.504 -1.3789 -0.2992  0.0056
 1191HK4    C25   28   0.475   5.416   6.518 -0.0699  0.1567  0.2018
 1191HK4    H12   29   0.442   5.412   6.622 -1.9505 -0.0361 -0.3861
 1191HK4    C24   30   0.423   5.525   6.449 -0.4497 -0.3138 -0.2549
 1191HK4    H11   31   0.360   5.598   6.500 -0.2835 -0.0717 -0.3968
 1191HK4    C23   32   0.430   5.532   6.310 -0.2795 -0.1458 -0.2363
 1191HK4    H10   33   0.374   5.612   6.261 -1.3633  0.1499  1.4398
 1191HK4    C39   34   0.528   5.560   6.026  0.3602  0.3538  0.7629
 1191HK4    C41   35   0.398   5.612   6.006  0.4029  0.0811 -0.2616
 1191HK4    H21   36   0.308   5.557   6.037  0.3447 -0.2217 -0.9474
 1191HK4    C42   37   0.377   5.734   5.944  0.1892  0.0619 -0.2245
 1191HK4    H22   38   0.281   5.787   5.952 -1.0451 -2.2078  0.5342
 1191HK4    C43   39   0.488   5.799   5.891  0.1039  0.3792 -0.0181
 1191HK4    H23   40   0.484   5.877   5.816 -0.4517  1.0466  0.6996
 1191HK4    C44   41   0.617   5.753   5.911  0.0764  0.1588 -0.3473
 1191HK4    H24   42   0.702   5.800   5.859  0.9114 -0.5442  0.3580
 1191HK4    C45   43   0.639   5.633   5.979  0.0375  0.2307 -0.2049
 1191HK4    H25   44   0.738   5.589   5.999  0.4472  0.4334 -1.7199
 1192HK4    H28   45   2.211   1.652   6.551  0.6388 -0.4148 -0.2476
 1192HK4    C48   46   2.195   1.560   6.494  0.3174 -0.5710  0.0931
 1192HK4    C47   47   2.066   1.517   6.468  0.3003 -0.5267  0.1024
 1192HK4    H27   48   1.983   1.559   6.528  0.5943  0.3771 -0.1176
 1192HK4    C46   49   2.044   1.422   6.369 -0.1901 -0.0866 -0.2099
 1192HK4    H26   50   1.943   1.420   6.324 -1.5257  0.5611  2.6089
 1192HK4    C40   51   2.151   1.364   6.298 -0.0213  0.0327 -0.0546
 1192HK4    C50   52   2.279   1.412   6.332  0.0368  0.3658 -0.7384
 1192HK4    H30   53   2.366   1.366   6.283  0.3613  0.6675 -0.4473
 1192HK4    C49   54   2.305   1.512   6.425  0.2327  0.1115 -0.5196
 1192HK4    H29   55   2.408   1.549   6.438  0.7631 -0.7022 -2.2573
 1192HK4     N2   56   2.129   1.242   6.232 -0.0989 -0.0451  0.1147
 1192HK4    C30   57   2.024   1.152   6.258  0.2735 -0.5626 -0.1595
 1192HK4    C29   58   1.973   1.117   6.382  0.2768  0.2470  0.0799
 1192HK4    H15   59   1.981   1.186   6.466  1.6549 -0.3041  0.4230
 1192HK4    C28   60   1.903   0.998   6.398  0.1428  0.2916 -0.1808
 1192HK4    C27   61   1.893   0.908   6.289  0.6610  0.1757 -0.1287
 1192HK4    H14   62   1.836   0.817   6.309  0.8415  0.0478 -0.1941
 1192HK4    C32   63   1.938   0.951   6.165  0.0430  0.2603 -0.3255
 1192HK4    H16   64   1.908   0.886   6.083 -0.6399  1.2040 -0.8263
 1192HK4    C31   65   1.999   1.073   6.139  0.0791  0.1814 -0.6160
 1192HK4    C34   66   2.097   1.111   6.040  0.3749 -0.0361 -0.4054
 1192HK4    C33   67   2.178   1.214   6.103  0.2048 -0.3232  0.2894
 1192HK4    C35   68   2.287   1.261   6.031  0.0145 -0.4709 -0.0968
 1192HK4    H17   69   2.362   1.313   6.090  0.1312 -0.1439 -0.5295
 1192HK4    C36   70   2.321   1.215   5.904  0.2219 -0.2906 -0.1082
 1192HK4    H18   71   2.404   1.257   5.846 -0.2422  0.9864  0.1580
 1192HK4    C37   72   2.239   1.119   5.846 -0.0179 -0.1333 -0.0270
 1192HK4    H19   73   2.273   1.062   5.760  1.4768 -0.4297  0.7538
 1192HK4    C38   74   2.131   1.063   5.914 -0.0771 -0.4410 -0.3725
 1192HK4    H20   75   2.057   0.994   5.873 -1.0439  0.1028  0.4455
 1192HK4    C14   76   1.878   0.957   6.537  0.2985 -0.0098 -0.2393
 1192HK4     C9   77   1.904   0.827   6.580 -0.1138 -0.0013  0.0348
 1192HK4     C8   78   1.831   0.772   6.688 -0.0479  0.1082  0.1342
 1192HK4    C11   79   1.747   0.857   6.759 -0.2552 -0.0024  0.0224
 1192HK4     H4   80   1.714   0.826   6.859 -2.2603  1.1018 -0.2566
 1192HK4    C12   81   1.721   0.988   6.720  0.0206  0.0715  0.0844
 1192HK4     H5   82   1.643   1.042   6.776  1.9324  0.4804  2.4227
 1192HK4    C13   83   1.790   1.039   6.611 -0.1521 -0.4672 -0.2743
 1192HK4     H6   84   1.755   1.138   6.579  1.9310  0.0288 -1.0612
 1192HK4     C7   85   1.844   0.631   6.732  0.5354  0.1346  0.0541
 1192HK4     O2   86   1.753   0.578   6.795  0.5981 -0.0274  0.0060
 1192HK4     C4   87   1.937   0.544   6.657  0.2934 -0.2503  0.2009
 1192HK4     C3   88   1.944   0.410   6.691 -0.6042 -0.4506 -0.3846
 1192HK4     H3   89   1.876   0.373   6.770 -0.2991 -3.5806 -1.4866
 1192HK4     C2   90   2.030   0.327   6.620 -0.1668 -0.0277 -0.3429
 1192HK4     H2   91   2.029   0.219   6.640 -0.1185 -0.0639 -0.5293
 1192HK4     C1   92   2.108   0.377   6.516  0.2912  0.0435  0.0314
 1192HK4     H1   93   2.199   0.320   6.491 -0.9092 -1.7297 -0.3811
 1192HK4     C6   94   2.095   0.509   6.468 -0.6094 -0.1603 -0.2892
 1192HK4     C5   95   2.014   0.590   6.548 -0.1935  0.0079 -0.0364
 1192HK4    C10   96   2.010   0.738   6.526  0.0834  0.0660  0.3079
 1192HK4     O1   97   2.122   0.789   6.525 -0.0280  0.3181  0.7280
 1192HK4    C16   98   2.110   0.530   6.323 -0.4793  0.4864 -0.1847
 1192HK4    C15   99   2.088   0.414   6.247  0.4060  0.2642 -0.1178
 1192HK4     H7  100   2.041   0.319   6.277  2.9963 -0.8566  0.4951
 1192HK4    C20  101   2.149   0.398   6.123  1.1309 -0.2482  0.2996
 1192HK4     H9  102   2.114   0.319   6.057 -0.2371 -0.7828  1.6247
 1192HK4    C19  103   2.237   0.493   6.073  0.2941  0.2648 -0.2229
 1192HK4    C18  104   2.267   0.611   6.152  0.5513 -0.3747  0.6348
 1192HK4    C17  105   2.197   0.625   6.272  0.1341  0.2076  0.3189
 1192HK4     H8  106   2.219   0.710   6.337 -1.9511  1.0326  0.0039
 1192HK4     N1  107   2.385   0.679   6.118 -0.0995  0.3602 -0.1424
 1192HK4    C21  108   2.429   0.612   6.002 -0.1163 -0.0971  0.1188
 1192HK4    C22  109   2.347   0.494   5.978  0.3901 -0.4024 -0.1237
 1192HK4    C26  110   2.386   0.398   5.886  0.4847 -0.5034  0.0210
 1192HK4    H13  111   2.329   0.305   5.896  0.8988 -0.5950  1.6937
 1192HK4    C25  112   2.496   0.418   5.803  0.0444  0.1440 -0.4141
 1192HK4    H12  113   2.516   0.346   5.724 -1.0235 -0.0236 -0.5339
 1192HK4    C24  114   2.565   0.538   5.815  0.1300  0.0096  0.5386
 1192HK4    H11  115   2.640   0.570   5.740  1.8399 -0.6847  1.9219
 1192HK4    C23  116   2.533   0.632   5.912 -0.0659  0.2370  0.2526
 1192HK4    H10  117   2.585   0.728   5.913  0.9930 -0.2962 -1.6984
 1192HK4    C39  118   2.434   0.800   6.169 -0.0885  0.3498 -0.1291
 1192HK4    C41  119   2.573   0.821   6.172  0.0005 -0.2738  0.1591
 1192HK4    H21  120   2.635   0.731   6.164 -2.0556 -1.8398  1.4618
 1192HK4    C42  121   2.619   0.950   6.198 -0.0644 -0.2283  0.0501
 1192HK4    H22  122   2.724   0.959   6.231  0.3354 -2.6574 -0.4759
 1192HK4    C43  123   2.532   1.052   6.234  0.1297 -0.1800  0.3874
 1192HK4    H23  124   2.576   1.145   6.270  1.4170 -1.3467  1.9124
 1192HK4    C44  125   2.395   1.029   6.248  0.0910  0.0187  0.3296
 1192HK4    H24  126   2.338   1.097   6.313  0.8463 -2.2030  3.4335
 1192HK4    C45  127   2.348   0.903   6.213 -0.2390  0.3492 -0.4225
 1192HK4    H25  128   2.241   0.886   6.232  0.0785 -0.3363  0.8168
 1193HK4    H28  129   0.918   8.016   1.482 -1.2527 -0.1154  0.7643
 1193HK4    C48  130   0.879   8.080   1.403 -0.5548 -0.3517  0.2254
 1193HK4    C47  131   0.814   8.196   1.443  0.0934 -0.1495  0.7112
 1193HK4    H27  132   0.814   8.223   1.550  0.9099 -0.9419  0.9213
 1193HK4    C46  133   0.775   8.289   1.348  0.8686 -0.3034  0.2371
 1193HK4    H26  134   0.733   8.384   1.385  2.0140 -0.1809  1.2480
 1193HK4    C40  135   0.797   8.268   1.210 -0.5282 -0.8055  0.0770
 1193HK4    C50  136   0.874   8.156   1.176  0.0050 -0.3574 -0.2050
 1193HK4    H30  137   0.874   8.130   1.069 -0.8568 -0.0188 -0.2838
 1193HK4    C49  138   0.911   8.059   1.269  0.9904  0.6174  0.4285
 1193HK4    H29  139   0.956   7.963   1.241 -1.8576 -0.6929  0.2024
 1193HK4     N2  140   0.721   8.330   1.110 -0.1304  0.3243  0.4568
 1193HK4    C30  141   0.601   8.397   1.138 -0.6077 -0.2289 -0.2321
 1193HK4    C29  142   0.496   8.370   1.226 -0.2042 -0.1579  0.2727
 1193HK4    H15  143   0.503   8.289   1.298  0.9501 -1.2900 -1.0736
 1193HK4    C28  144   0.382   8.449   1.235 -0.1238 -0.0234  0.1307
 1193HK4    C27  145   0.375   8.566   1.157  0.6008 -0.1026 -0.0592
 1193HK4    H14  146   0.295   8.641   1.166 -0.0723 -0.8945  0.6595
 1193HK4    C32  147   0.476   8.598   1.068  0.2967  0.2779 -0.2668
 1193HK4    H16  148   0.485   8.688   1.006 -3.6994  0.7565 -0.2904
 1193HK4    C31  149   0.584   8.512   1.051  0.0976 -0.0026 -0.0819
 1193HK4    C34  150   0.706   8.518   0.973  0.1388 -0.3165 -0.0419
 1193HK4    C33  151   0.775   8.392   0.995 -0.6289 -0.8126 -0.4053
 1193HK4    C35  152   0.879   8.357   0.910 -0.0565  0.5572 -0.2824
 1193HK4    H17  153   0.929   8.262   0.929 -2.9304 -0.7848  0.8553
 1193HK4    C36  154   0.914   8.444   0.808  0.1926  0.2502 -0.4615
 1193HK4    H18  155   1.003   8.425   0.746  0.0187 -2.6372  0.1081
 1193HK4    C37  156   0.857   8.569   0.786  0.1588  0.4301  0.6202
 1193HK4    H19  157   0.906   8.634   0.714 -1.3962  0.7446 -0.1715
 1193HK4    C38  158   0.751   8.600   0.871 -0.3336  0.1394  0.1158
 1193HK4    H20  159   0.690   8.686   0.843  0.8886  1.3086  0.9425
 1193HK4    C14  160   0.262   8.389   1.295 -0.0012 -0.1975  0.2029
 1193HK4     C9  161   0.129   8.403   1.252  0.1019  0.2782  0.0430
 1193HK4     C8  162   0.026   8.403   1.348  0.1814 -0.6390  0.1291
 1193HK4    C11  163   0.054   8.375   1.481 -0.1863 -0.2462  0.2902
 1193HK4     H4  164  11.216   8.351   1.545 -0.0017 -2.9801 -0.4454
 1193HK4    C12  165   0.183   8.340   1.521 -0.0415 -0.2424 -0.1672
 1193HK4     H5  166   0.196   8.302   1.623  0.8383 -0.4942 -0.3714
 1193HK4    C13  167   0.287   8.355   1.430  0.2280 -0.3557  0.1209
 1193HK4     H6  168   0.386   8.349   1.477 -1.8126 -1.8338  4.4927
 1193HK4     C7  169  11.132   8.422   1.308  0.4146  0.4841 -0.1774
 1193HK4     O2  170  11.041   8.402   1.388  0.3488  0.3076 -0.2964
 1193HK4     C4  171  11.099   8.445   1.166 -0.1567  0.3962 -0.0591
 1193HK4     C3  172  10.965   8.448   1.131 -0.0303  0.6374 -0.5265
 1193HK4     H3  173  10.888   8.482   1.202 -1.1547 -0.1881 -1.3240
 1193HK4     C2  174  10.928   8.457   0.998  0.0982 -0.1637 -0.6162
 1193HK4     H2  175  10.828   8.421   0.970 -0.1342  0.3022 -0.3906
 1193HK4     C1  176  11.023   8.496   0.904  0.4820 -0.4284 -0.3333
 1193HK4     H1  177  10.994   8.552   0.815  0.4407 -0.7297 -0.5075
 1193HK4     C6  178  11.161   8.499   0.936  0.3821  0.3282  0.0682
 1193HK4     C5  179  11.197   8.462   1.066  0.0750  0.3145  0.1496
 1193HK4    C10  180   0.085   8.422   1.111 -0.2327 -0.9166 -0.0117
 1193HK4     O1  181   0.171   8.389   1.029  0.3696  0.0980  0.2117
 1193HK4    C16  182   0.003   8.563   0.840 -0.1763  0.5737 -0.2912
 1193HK4    C15  183   0.115   8.639   0.881 -0.2682  0.6221 -0.1316
 1193HK4     H7  184   0.114   8.698   0.974  2.7649  0.4576  0.0567
 1193HK4    C20  185   0.211   8.664   0.785 -0.1267  0.6230  0.0088
 1193HK4     H9  186   0.305   8.713   0.811  0.3550 -0.3140  0.0490
 1193HK4    C19  187   0.200   8.615   0.655 -0.4397  0.3150  0.1536
 1193HK4    C18  188   0.088   8.533   0.612 -0.2738  0.1121  0.1108
 1193HK4    C17  189  11.239   8.515   0.710 -0.2551 -0.3228  0.0506
 1193HK4     H8  190  11.154   8.449   0.691  0.0946 -0.1201 -2.3113
 1193HK4     N1  191   0.103   8.480   0.482 -0.1165  0.2093  0.0896
 1193HK4    C21  192   0.223   8.538   0.435  0.0165  0.1974  0.4144
 1193HK4    C22  193   0.284   8.620   0.538 -0.1053  0.3152  0.3937
 1193HK4    C26  194   0.413   8.672   0.524 -0.1114  0.1493 -0.2925
 1193HK4    H13  195   0.464   8.687   0.619 -0.6841 -1.5181  0.3038
 1193HK4    C25  196   0.482   8.656   0.404  0.4505 -1.0810  0.1864
 1193HK4    H12  197   0.582   8.695   0.392  0.4438 -1.0688  0.1710
 1193HK4    C24  198   0.420   8.589   0.299 -0.2196 -0.1931  0.0072
 1193HK4    H11  199   0.468   8.587   0.199 -0.3659  0.5900 -0.0842
 1193HK4    C23  200   0.300   8.523   0.321 -0.5976  0.4744 -0.0383
 1193HK4    H10  201   0.269   8.449   0.247  0.0361  1.0364 -0.8785
 1193HK4    C39  202   0.059   8.353   0.442  0.3915 -0.0937  0.4721
 1193HK4    C41  203   0.041   8.332   0.304 -0.1358  0.3455  0.4720
 1193HK4    H21  204   0.084   8.406   0.235  0.3636  0.0193  0.4288
 1193HK4    C42  205  11.238   8.209   0.265 -0.8116  0.5634  0.6643
 1193HK4    H22  206  11.233   8.174   0.161 -0.5573 -1.1289  1.1973
 1193HK4    C43  207  11.209   8.111   0.359  0.1295 -0.4570 -0.0868
 1193HK4    H23  208  11.139   8.030   0.338 -1.7268  0.8001  1.0219
 1193HK4    C44  209  11.234   8.131   0.495  0.2281 -0.0294 -0.1692
 1193HK4    H24  210  11.204   8.050   0.562 -2.2075 -0.1247 -1.3205
 1193HK4    C45  211   0.039   8.252   0.538  0.5397 -0.3193  0.2636
 1193HK4    H25  212   0.095   8.254   0.633  1.5877  5.1930 -0.3278
 1194HK4    H28  213   3.413   0.720  11.231 -2.1905  1.5029  3.2375
 1194HK4    C48  214   3.503   0.710   0.044  0.0514 -0.5809 -0.2132
 1194HK4    C47  215   3.578   0.593   0.044  0.3416 -0.3948 -0.1495
 1194HK4    H27  216   3.555   0.515  11.218  0.2052  1.8572 -2.5482
 1194HK4    C46  217   3.690   0.583   0.126  0.2244  0.3192  0.1026
 1194HK4    H26  218   3.747   0.489   0.135  1.4447  1.2209  2.1079
 1194HK4    C40  219   3.730   0.697   0.199  0.2799  0.3854 -0.0302
 1194HK4    C50  220   3.655   0.816   0.190 -0.3517 -0.0355 -0.4299
 1194HK4    H30  221   3.685   0.914   0.231  3.2338 -0.6178 -1.5145
 1194HK4    C49  222   3.544   0.827   0.107 -0.9301 -0.4877  0.2768
 1194HK4    H29  223   3.475   0.912   0.107  0.4926  0.6808  0.8054
 1194HK4     N2  224   3.840   0.683   0.284 -0.1496 -0.0820  0.4565
 1194HK4    C30  225   3.881   0.560   0.338 -0.3878 -0.5348 -0.3990
 1194HK4    C29  226   3.801   0.457   0.388 -0.8964 -0.1322 -0.3773
 1194HK4    H15  227   3.695   0.478   0.400 -0.7176 -0.9881  3.0605
 1194HK4    C28  228   3.859   0.338   0.430  0.1141  0.3035 -0.5144
 1194HK4    C27  229   3.999   0.323   0.423  0.1656  0.0590  0.7836
 1194HK4    H14  230   4.044   0.225   0.443 -0.7920 -0.2923  1.2262
 1194HK4    C32  231   4.084   0.427   0.386 -0.0897 -0.0954 -0.2642
 1194HK4    H16  232   4.192   0.419   0.400 -0.5231 -0.4331  3.4772
 1194HK4    C31  233   4.025   0.547   0.350 -0.3975 -0.1031  0.2088
 1194HK4    C34  234   4.069   0.682   0.320 -0.3754  0.0455  0.9058
 1194HK4    C33  235   3.955   0.765   0.284 -0.0626 -0.1986 -0.6927
 1194HK4    C35  236   3.962   0.903   0.296  0.0769 -0.2560 -0.0771
 1194HK4    H17  237   3.873   0.963   0.278 -1.1849 -2.0098  0.2839
 1194HK4    C36  238   4.088   0.954   0.324  0.1625  0.0674 -1.0292
 1194HK4    H18  239   4.097   1.063   0.312 -0.2437  0.0347 -1.6942
 1194HK4    C37  240   4.204   0.878   0.340 -0.1089 -0.2416 -0.5188
 1194HK4    H19  241   4.298   0.933   0.344 -1.5098  2.1504  0.9101
 1194HK4    C38  242   4.193   0.740   0.340 -0.1779 -0.2395  0.5061
 1194HK4    H20  243   4.282   0.678   0.326 -0.5343 -0.4334 -1.0730
 1194HK4    C14  244   3.774   0.240   0.500  0.8340 -0.1823 -0.3085
 1194HK4     C9  245   3.822   0.141   0.586 -0.0757 -0.1358  0.2579
 1194HK4     C8  246   3.778   0.007   0.577  0.3176 -0.2190 -0.4374
 1194HK4    C11  247   3.670  11.220   0.497 -0.0464  0.4355 -0.2340
 1194HK4     H4  248   3.642  11.114   0.490 -1.6382  0.8431 -0.3089
 1194HK4    C12  249   3.611   0.073   0.423  0.0464  0.1214 -0.7311
 1194HK4     H5  250   3.515   0.052   0.372  0.0445 -0.6373 -0.4212
 1194HK4    C13  251   3.658   0.204   0.428  0.4311 -0.0541  0.2772
 1194HK4     H6  252   3.593   0.286   0.394  0.8591 -1.2292 -3.5773
 1194HK4     C7  253   3.835  11.159   0.674  0.5884 -0.1167 -0.4947
 1194HK4     O2  254   3.826  11.040   0.643 -0.1824 -0.1684 -0.0801
 1194HK4     C4  255   3.921  11.195   0.789  0.1030 -0.1243 -0.1278
 1194HK4     C3  256   3.942  11.101   0.888  0.3501  0.4544  0.3763
 1194HK4     H3  257   3.886  11.005   0.886 -0.2547  0.7886 -3.9011
 1194HK4     C2  258   4.018  11.139   0.998  1.4100 -0.1883 -0.1271
 1194HK4     H2  259   4.002  11.094   1.097 -0.9184 -0.7511 -0.7240
 1194HK4     C1  260   4.094   0.006   0.982  1.0588 -0.0397 -0.7328
 1194HK4     H1  261   4.154   0.039   1.067 -1.3780 -1.6465  1.6837
 1194HK4     C6  262   4.086   0.094   0.872  0.1035 -0.0230 -0.6528
 1194HK4     C5  263   3.979   0.076   0.783 -0.5629  0.1899  0.0949
 1194HK4    C10  264   3.918   0.177   0.693  0.3491  0.3899 -0.3007
 1194HK4     O1  265   3.907   0.286   0.749 -0.1699  0.4091 -0.4392
 1194HK4    C16  266   4.207   0.176   0.855  0.2332 -0.1138 -0.1708
 1194HK4    C15  267   4.324   0.149   0.929  0.3497 -0.1018 -0.3470
 1194HK4     H7  268   4.335   0.051   0.978  1.1111 -0.3283 -0.9505
 1194HK4    C20  269   4.426   0.240   0.955  0.4350 -0.2038 -0.3262
 1194HK4     H9  270   4.509   0.209   1.018 -1.2468 -1.3658  1.3643
 1194HK4    C19  271   4.409   0.373   0.916 -0.3460 -0.0961  0.3686
 1194HK4    C18  272   4.291   0.404   0.839  0.0213  0.0611 -0.1295
 1194HK4    C17  273   4.200   0.305   0.804 -0.0363  0.0069  0.1701
 1194HK4     H8  274   4.155   0.316   0.705  0.0067 -0.9385  0.0426
 1194HK4     N1  275   4.292   0.538   0.797  0.0132  0.3764  0.8703
 1194HK4    C21  276   4.414   0.591   0.843  0.6593 -0.2951 -0.0359
 1194HK4    C22  277   4.490   0.493   0.918  0.3943 -0.5822 -0.1455
 1194HK4    C26  278   4.622   0.522   0.949 -0.0020  0.5001  0.5579
 1194HK4    H13  279   4.681   0.440   0.990 -0.4205 -1.2054 -2.1202
 1194HK4    C25  280   4.680   0.647   0.925  0.2487  0.2544 -0.1209
 1194HK4    H12  281   4.776   0.658   0.975  0.6222 -1.7747 -0.3198
 1194HK4    C24  282   4.607   0.748   0.864  0.1035 -0.1182 -0.5734
 1194HK4    H11  283   4.647   0.851   0.859  0.6920 -0.2918  0.4039
 1194HK4    C23  284   4.477   0.715   0.829 -0.0960  0.0905 -0.0258
 1194HK4    H10  285   4.413   0.793   0.789  0.6352  1.1603  0.8707
 1194HK4    C39  286   4.181   0.610   0.753  0.2978  0.4343  0.2383
 1194HK4    C41  287   4.193   0.711   0.655  0.4253 -0.1839 -0.3882
 1194HK4    H21  288   4.294   0.715   0.612  0.7820 -0.9667  0.3647
 1194HK4    C42  289   4.080   0.789   0.630 -0.0562 -0.6002  0.4790
 1194HK4    H22  290   4.083   0.878   0.566  0.9439 -1.4365 -0.6690
 1194HK4    C43  291   3.957   0.778   0.694  0.1642  0.8171  1.1546
 1194HK4    H23  292   3.866   0.823   0.655 -0.2813  0.2851  1.5671
 1194HK4    C44  293   3.943   0.675   0.786 -0.3435 -0.0295  0.1301
 1194HK4    H24  294   3.844   0.641   0.820  0.7811 -2.0454  1.5004
 1194HK4    C45  295   4.055   0.599   0.817  0.1962  0.7525  0.0996
 1194HK4    H25  296   4.044   0.526   0.898 -1.0967  0.1847 -0.5661
 1195HK4    H28  297   9.247   1.129   2.679  0.2607 -0.1274 -0.2129
 1195HK4    C48  298   9.249   1.022   2.658 -0.1438 -0.2528  0.3671
 1195HK4    C47  299   9.126   0.960   2.675 -0.3045  0.0239  0.2227
 1195HK4    H27  300   9.049   1.014   2.731 -0.8293  1.4069 -1.8088
 1195HK4    C46  301   9.108   0.828   2.635  0.2124 -0.2728  0.9482
 1195HK4    H26  302   9.012   0.782   2.662  0.4940 -0.0612  2.3289
 1195HK4    C40  303   9.214   0.759   2.572 -0.3377 -0.0357 -0.2610
 1195HK4    C50  304   9.341   0.819   2.558 -0.3946  0.3323  0.7831
 1195HK4    H30  305   9.416   0.774   2.491 -2.0542  0.0625 -0.9263
 1195HK4    C49  306   9.356   0.948   2.609  0.2424  0.6213 -0.1289
 1195HK4    H29  307   9.452   0.991   2.641  1.3577 -1.4069 -0.6821
 1195HK4     N2  308   9.186   0.636   2.512  0.3063 -0.1213 -0.3959
 1195HK4    C30  309   9.060   0.582   2.477 -0.0886  0.5027  0.0456
 1195HK4    C29  310   8.944   0.651   2.445 -0.4279  0.0006  0.1958
 1195HK4    H15  311   8.954   0.759   2.432 -0.0054 -0.0718 -0.0855
 1195HK4    C28  312   8.827   0.585   2.409 -0.2664  0.2165 -0.7185
 1195HK4    C27  313   8.830   0.445   2.391  0.4608  0.1823 -0.3428
 1195HK4    H14  314   8.738   0.394   2.359  0.4813 -0.9624  1.3667
 1195HK4    C32  315   8.941   0.367   2.423  0.4607  0.2815 -0.0996
 1195HK4    H16  316   8.940   0.259   2.435  1.4493  0.1863 -0.7690
 1195HK4    C31  317   9.052   0.438   2.467  0.1103  0.4594  0.4968
 1195HK4    C34  318   9.191   0.400   2.485  0.2536  0.4066 -0.6882
 1195HK4    C33  319   9.264   0.519   2.525  0.4522  0.0265  0.0961
 1195HK4    C35  320   9.400   0.501   2.548  0.4564 -0.1859 -0.1033
 1195HK4    H17  321   9.461   0.584   2.583  2.1633 -1.3419 -0.2775
 1195HK4    C36  322   9.463   0.378   2.533  0.1179 -0.3591 -0.1440
 1195HK4    H18  323   9.572   0.370   2.552  0.1450  0.2615 -0.0088
 1195HK4    C37  324   9.387   0.267   2.500 -0.2183 -0.1651 -0.0323
 1195HK4    H19  325   9.443   0.174   2.486 -0.3329 -0.2353 -0.0248
 1195HK4    C38  326   9.250   0.275   2.478 -0.1989  0.1537 -0.0403
 1195HK4    H20  327   9.191   0.183   2.472 -3.3304  2.1921 -1.4092
 1195HK4    C14  328   8.699   0.653   2.428  0.1765  0.7634  0.3422
 1195HK4     C9  329   8.576   0.594   2.463  0.4420  0.3329  0.5378
 1195HK4     C8  330   8.455   0.649   2.417  0.1071  0.2768  1.3424
 1195HK4    C11  331   8.449   0.770   2.347 -0.1643 -0.4981 -0.0042
 1195HK4     H4  332   8.360   0.809   2.296 -0.5903 -0.9613  0.3661
 1195HK4    C12  333   8.567   0.840   2.331 -0.3278 -0.1791  0.1691
 1195HK4     H5  334   8.563   0.943   2.293 -2.2704 -0.7539 -1.2587
 1195HK4    C13  335   8.687   0.781   2.368  0.1633  0.3553 -0.5320
 1195HK4     H6  336   8.777   0.843   2.354 -0.6240  1.3278 -1.2918
 1195HK4     C7  337   8.336   0.561   2.410  0.1016  0.3675  0.1787
 1195HK4     O2  338   8.228   0.612   2.440 -0.1142  0.1760 -0.2599
 1195HK4     C4  339   8.360   0.416   2.428  0.3333  0.2923 -0.7085
 1195HK4     C3  340   8.267   0.319   2.392  0.3033 -0.0064  0.1525
 1195HK4     H3  341   8.187   0.361   2.329  2.0159  2.0857 -0.7082
 1195HK4     C2  342   8.269   0.184   2.422  0.4150 -0.1138 -0.3303
 1195HK4     H2  343   8.204   0.115   2.366  0.6194  0.3763 -1.1736
 1195HK4     C1  344   8.376   0.141   2.500 -0.2806 -0.5661  0.3929
 1195HK4     H1  345   8.388   0.036   2.529 -0.1136 -0.6968 -0.1317
 1195HK4     C6  346   8.477   0.231   2.539 -0.6573 -0.2327  0.6053
 1195HK4     C5  347   8.465   0.367   2.508 -0.3468 -0.3933 -0.2287
 1195HK4    C10  348   8.572   0.466   2.538 -0.7050 -0.0336 -0.1327
 1195HK4     O1  349   8.631   0.460   2.646 -0.0220  0.7309 -0.4585
 1195HK4    C16  350   8.564   0.158   2.632 -0.1254  0.3684  0.5793
 1195HK4    C15  351   8.703   0.179   2.616  0.0260 -0.6777  0.4769
 1195HK4     H7  352   8.745   0.213   2.521 -2.3267 -0.7698 -0.6214
 1195HK4    C20  353   8.797   0.147   2.713  0.6420  0.5864  0.3006
 1195HK4     H9  354   8.899   0.185   2.715  0.4581  1.0585  1.4753
 1195HK4    C19  355   8.751   0.083   2.828  0.1150 -0.1923 -0.3357
 1195HK4    C18  356   8.610   0.064   2.853  0.1789 -0.0011  0.1879
 1195HK4    C17  357   8.522   0.106   2.754 -0.0933  0.3351  0.5763
 1195HK4     H8  358   8.418   0.123   2.782 -0.9943 -0.2717 -2.2431
 1195HK4     N1  359   8.586  11.242   2.973 -0.0217 -0.0778  0.1032
 1195HK4    C21  360   8.709  11.234   3.041 -0.0753  0.2658  0.2344
 1195HK4    C22  361   8.810   0.045   2.955 -0.1875 -0.1480 -0.1808
 1195HK4    C26  362   8.944   0.034   2.992 -0.3118 -0.2810  0.2230
 1195HK4    H13  363   9.013   0.060   2.912  0.1472  1.9784  1.3020
 1195HK4    C25  364   8.983  11.198   3.096  0.8004  0.5347  0.4654
 1195HK4    H12  365   9.088  11.190   3.123  1.3995 -0.9277 -2.0787
 1195HK4    C24  366   8.889  11.141   3.180  0.1395  0.8778 -0.0343
 1195HK4    H11  367   8.920  11.081   3.267 -1.3707  0.4291  0.2055
 1195HK4    C23  368   8.755  11.160   3.149  0.0016 -0.2652 -0.1646
 1195HK4    H10  369   8.686  11.098   3.206  0.6481  0.5284  1.5265
 1195HK4    C39  370   8.478  11.153   2.980  0.0267 -0.1170  0.3776
 1195HK4    C41  371   8.426  11.124   3.108  0.1398  0.0288  0.4565
 1195HK4    H21  372   8.462  11.189   3.190  3.5498 -0.2923 -0.6945
 1195HK4    C42  373   8.317  11.039   3.123  0.0070  0.1188  0.0303
 1195HK4    H22  374   8.295  10.997   3.222 -0.2057 -0.0827 -0.1040
 1195HK4    C43  375   8.264  10.981   3.009  0.2615 -0.3181  0.1367
 1195HK4    H23  376   8.165  10.937   3.022 -0.0608  1.1656  2.9780
 1195HK4    C44  377   8.319  11.001   2.883 -0.0470 -0.1097  0.0368
 1195HK4    H24  378   8.259  10.966   2.797 -0.1680  0.3513 -0.0643
 1195HK4    C45  379   8.432  11.080   2.868 -0.5734  0.6649  0.1113
 1195HK4    H25  380   8.495  11.069   2.779  0.9054  0.3942  1.1565
 1196HK4    H28  381   5.594   1.960   0.832  0.9780 -2.1445  0.6528
 1196HK4    C48  382   5.674   2.027   0.863 -0.4277 -0.2724  0.3094
 1196HK4    C47  383   5.643   2.128   0.954 -0.1336  0.3110 -0.2308
 1196HK4    H27  384   5.544   2.127   1.003 -0.4974  0.8733 -0.9523
 1196HK4    C46  385   5.735   2.223   0.995 -0.0393  0.1143  0.0157
 1196HK4    H26  386   5.700   2.306   1.058  0.1557  0.6755 -0.6118
 1196HK4    C40  387   5.871   2.215   0.959 -0.1434 -0.3806 -0.2752
 1196HK4    C50  388   5.896   2.111   0.868  0.3869 -0.3275 -0.1945
 1196HK4    H30  389   5.988   2.125   0.810  0.6685  0.5430  0.4488
 1196HK4    C49  390   5.806   2.016   0.822 -0.3629  0.0836  0.4155
 1196HK4    H29  391   5.835   1.943   0.745 -0.9722 -0.2757  0.5190
 1196HK4     N2  392   5.974   2.302   0.997 -0.1366 -0.4044 -0.2444
 1196HK4    C30  393   5.961   2.437   1.037 -0.3639 -0.3676 -0.4409
 1196HK4    C29  394   5.870   2.532   0.992 -0.4747  0.2096  0.9651
 1196HK4    H15  395   5.790   2.498   0.926 -0.8270 -1.1393  2.0523
 1196HK4    C28  396   5.881   2.667   1.022  0.6108  0.4290 -0.3773
 1196HK4    C27  397   5.989   2.711   1.101  0.3775  0.1829  0.0794
 1196HK4    H14  398   5.991   2.812   1.144  0.7445  0.7267 -1.2094
 1196HK4    C32  399   6.086   2.621   1.144  0.0846 -0.3013 -0.2629
 1196HK4    H16  400   6.153   2.646   1.227  2.7104 -0.5061 -2.2698
 1196HK4    C31  401   6.075   2.487   1.111 -0.4271 -0.2162 -0.4461
 1196HK4    C34  402   6.168   2.375   1.108 -0.1697 -0.0057 -0.4011
 1196HK4    C33  403   6.109   2.271   1.026 -0.1908 -0.3630  0.0613
 1196HK4    C35  404   6.184   2.159   0.992 -0.4429 -0.5215  0.0225
 1196HK4    H17  405   6.136   2.073   0.946 -0.2466 -1.0135  0.7304
 1196HK4    C36  406   6.317   2.157   1.031 -0.3799  0.2008 -0.1385
 1196HK4    H18  407   6.376   2.069   1.000 -2.6325 -1.4692  0.2610
 1196HK4    C37  408   6.378   2.255   1.109  0.2385  0.2735 -0.7105
 1196HK4    H19  409   6.466   2.230   1.169 -1.9057  1.9228  3.2442
 1196HK4    C38  410   6.300   2.364   1.147 -0.0177  0.1451 -0.8671
 1196HK4    H20  411   6.341   2.452   1.196 -3.2423  1.8842 -1.2469
 1196HK4    C14  412   5.801   2.766   0.949 -0.0248  0.0314 -0.2206
 1196HK4     C9  413   5.839   2.898   0.922  0.1086 -0.0050 -0.2117
 1196HK4     C8  414   5.757   3.010   0.950  0.2271 -0.1035  0.5249
 1196HK4    C11  415   5.624   2.986   0.985  0.1231 -0.3509 -0.0316
 1196HK4     H4  416   5.552   3.065   0.961 -0.1205  0.1779  2.3545
 1196HK4    C12  417   5.581   2.855   0.998 -0.1790 -0.3656 -1.1325
 1196HK4     H5  418   5.472   2.843   1.007  0.0220 -1.6120 -0.0721
 1196HK4    C13  419   5.666   2.745   0.984  0.2475 -0.2862  0.6723
 1196HK4     H6  420   5.623   2.644   0.986  0.6346 -0.4657  0.1764
 1196HK4     C7  421   5.807   3.148   0.936 -0.1585 -0.0012  0.1565
 1196HK4     O2  422   5.733   3.245   0.949  0.2040  0.4358 -0.9377
 1196HK4     C4  423   5.951   3.167   0.905 -0.0998 -0.1661  0.3208
 1196HK4     C3  424   6.005   3.294   0.891 -0.5401  0.0302  0.4051
 1196HK4     H3  425   5.945   3.385   0.876 -0.2226  0.5146  2.0151
 1196HK4     C2  426   6.142   3.316   0.881 -0.5559 -0.0616 -0.0080
 1196HK4     H2  427   6.196   3.408   0.906  0.4834 -0.9002  0.8716
 1196HK4     C1  428   6.219   3.201   0.873 -0.3343  0.0469  0.5354
 1196HK4     H1  429   6.322   3.213   0.836 -0.7787 -1.2440 -1.1997
 1196HK4     C6  430   6.173   3.068   0.877  0.4053 -0.2418 -0.4154
 1196HK4     C5  431   6.034   3.055   0.884  0.3425  0.3286 -0.5972
 1196HK4    C10  432   5.973   2.921   0.862  0.1800  0.2939  0.0599
 1196HK4     O1  433   5.993   2.859   0.758 -0.4822  0.0214  0.0966
 1196HK4    C16  434   6.271   2.972   0.930  0.6159 -0.0381 -0.4354
 1196HK4    C15  435   6.379   3.008   1.014  0.3684  0.1661 -0.2023
 1196HK4     H7  436   6.362   3.108   1.056 -0.2198  0.8619 -2.0676
 1196HK4    C20  437   6.498   2.941   1.039  0.2758  0.1516  0.1992
 1196HK4     H9  438   6.553   2.967   1.129 -0.4867  0.1560  0.6704
 1196HK4    C19  439   6.507   2.813   0.984 -0.0132  0.3846 -0.3875
 1196HK4    C18  440   6.396   2.761   0.906  0.0163 -0.0430 -0.1424
 1196HK4    C17  441   6.286   2.842   0.882 -0.2177 -0.3086  0.0260
 1196HK4     H8  442   6.220   2.806   0.802 -2.5120 -1.0390  2.1839
 1196HK4     N1  443   6.417   2.626   0.874  0.0693 -0.0480 -0.0884
 1196HK4    C21  444   6.541   2.597   0.934  0.0934  0.2410  0.0036
 1196HK4    C22  445   6.610   2.712   0.990 -0.0011  0.4057 -0.2192
 1196HK4    C26  446   6.734   2.696   1.050 -0.2619 -0.5923  0.0621
 1196HK4    H13  447   6.799   2.783   1.062  0.5975 -1.3010  0.6674
 1196HK4    C25  448   6.801   2.574   1.062  0.1616 -0.3417  0.2230
 1196HK4    H12  449   6.908   2.568   1.080  0.0123 -0.6437  1.0490
 1196HK4    C24  450   6.730   2.465   1.015 -0.0423  0.0769 -0.4445
 1196HK4    H11  451   6.747   2.371   1.071  0.0751 -0.1523 -0.8658
 1196HK4    C23  452   6.605   2.475   0.955 -0.0720  0.0873 -0.3840
 1196HK4    H10  453   6.551   2.382   0.940  0.7317 -0.6179  1.0495
 1196HK4    C39  454   6.331   2.533   0.814 -0.0129 -0.1882  0.2500
 1196HK4    C41  455   6.382   2.417   0.752 -0.0910 -0.1859  0.1825
 1196HK4    H21  456   6.491   2.408   0.735 -0.1943  0.8840 -1.1581
 1196HK4    C42  457   6.301   2.330   0.681  0.2932 -0.0856 -0.3837
 1196HK4    H22  458   6.340   2.239   0.633 -0.6725  0.0091 -1.3778
 1196HK4    C43  459   6.166   2.359   0.664  0.2798 -0.1145 -0.3272
 1196HK4    H23  460   6.103   2.303   0.595 -0.3524  0.8234 -0.5225
 1196HK4    C44  461   6.110   2.471   0.724  0.0675 -0.2295 -0.3097
 1196HK4    H24  462   6.006   2.503   0.711  0.2947  1.4945  1.6312
 1196HK4    C45  463   6.192   2.555   0.800 -0.0397 -0.4666  0.0689
 1196HK4    H25  464   6.152   2.633   0.866  0.8063 -0.3381  0.4300
 1197HK4    H28  465   9.674   9.435   0.159 -0.0614 -0.5482 -1.0455
 1197HK4    C48  466   9.572   9.423   0.198  0.0679  0.8981 -0.2199
 1197HK4    C47  467   9.520   9.500   0.302 -0.4067  0.0213  0.1915
 1197HK4    H27  468   9.576   9.589   0.334  0.2432 -0.6339  0.9155
 1197HK4    C46  469   9.388   9.481   0.339 -0.3655  0.3205  0.5044
 1197HK4    H26  470   9.356   9.538   0.427  1.8302  1.2418  0.7235
 1197HK4    C40  471   9.310   9.383   0.273  0.2854  0.0585  0.1291
 1197HK4    C50  472   9.367   9.310   0.167  0.0805  0.0557  0.0233
 1197HK4    H30  473   9.320   9.215   0.135  1.1770 -0.1179 -1.1220
 1197HK4    C49  474   9.498   9.329   0.128  0.5712 -0.6545  1.2948
 1197HK4    H29  475   9.545   9.248   0.068  1.5465 -0.3895  1.6852
 1197HK4     N2  476   9.210   9.320   0.348  0.0868  0.2561  0.0333
 1197HK4    C30  477   9.191   9.341   0.486 -0.1954 -0.3627  0.0904
 1197HK4    C29  478   9.283   9.330   0.591 -0.1467 -0.2985  0.0540
 1197HK4    H15  479   9.384   9.363   0.566  0.1156 -1.7261 -0.8333
 1197HK4    C28  480   9.244   9.308   0.722 -0.6263  0.3066  0.0188
 1197HK4    C27  481   9.106   9.295   0.747 -0.6361  0.6080  0.1152
 1197HK4    H14  482   9.065   9.289   0.849 -1.0732 -0.6640 -0.1290
 1197HK4    C32  483   9.012   9.307   0.646 -0.3046 -0.0918 -0.2818
 1197HK4    H16  484   8.906   9.295   0.672 -0.1649 -0.5741  0.0838
 1197HK4    C31  485   9.050   9.330   0.514 -0.3207  0.4389 -0.1950
 1197HK4    C34  486   8.983   9.311   0.387 -0.0240  0.2489 -0.3201
 1197HK4    C33  487   9.086   9.296   0.286  0.2299 -0.5445  0.0540
 1197HK4    C35  488   9.044   9.269   0.156 -0.4529  0.8749 -0.0275
 1197HK4    H17  489   9.112   9.268   0.071 -1.7732  2.3524 -1.1223
 1197HK4    C36  490   8.910   9.243   0.129 -0.4377  1.0639 -0.2932
 1197HK4    H18  491   8.870   9.226   0.027 -3.4434 -1.5529  1.2227
 1197HK4    C37  492   8.817   9.236   0.232 -0.2255 -0.0863 -0.1701
 1197HK4    H19  493   8.718   9.205   0.198  0.1748 -0.4107 -1.0554
 1197HK4    C38  494   8.850   9.282   0.358  0.0043  0.0884 -0.2940
 1197HK4    H20  495   8.777   9.259   0.435  1.6602 -1.3842  0.8789
 1197HK4    C14  496   9.332   9.254   0.827 -0.9659  0.1583  0.2262
 1197HK4     C9  497   9.304   9.159   0.926 -0.2769 -0.4525 -0.1687
 1197HK4     C8  498   9.349   9.177   1.059 -0.2762  0.2478 -0.2632
 1197HK4    C11  499   9.431   9.287   1.080  0.3794 -0.2756 -0.0417
 1197HK4     H4  500   9.488   9.287   1.174  1.8884  0.2091 -0.9419
 1197HK4    C12  501   9.474   9.374   0.980  0.4963 -0.4324 -0.1301
 1197HK4     H5  502   9.549   9.450   1.008 -2.3169  2.1809  0.6454
 1197HK4    C13  503   9.422   9.359   0.852 -0.0018 -0.6356  0.0931
 1197HK4     H6  504   9.450   9.430   0.772  1.4032  0.7906  1.8007
 1197HK4     C7  505   9.338   9.078   1.169  0.2018  0.0528 -0.3913
 1197HK4     O2  506   9.401   9.088   1.274  0.7574  0.6266 -0.7739
 1197HK4     C4  507   9.265   8.954   1.134  0.5636 -0.2272 -0.1608
 1197HK4     C3  508   9.230   8.866   1.236  0.3298  0.0920  0.0335
 1197HK4     H3  509   9.245   8.900   1.339 -0.9890  0.3970  0.1399
 1197HK4     C2  510   9.183   8.739   1.204 -0.3546  0.2918  0.2364
 1197HK4     H2  511   9.143   8.661   1.271  0.3997 -1.8611 -1.7658
 1197HK4     C1  512   9.185   8.697   1.072  0.2763  0.3370  0.2322
 1197HK4     H1  513   9.128   8.605   1.053 -0.7745  0.2176  3.7107
 1197HK4     C6  514   9.224   8.782   0.966  0.0572 -0.2556 -0.3233
 1197HK4     C5  515   9.248   8.916   1.000 -0.1545 -0.2812 -0.0576
 1197HK4    C10  516   9.249   9.024   0.897  0.4948 -0.7029 -0.5051
 1197HK4     O1  517   9.173   9.010   0.801  0.1508 -0.0618 -0.3291
 1197HK4    C16  518   9.256   8.719   0.837 -0.1031  0.1697 -0.5727
 1197HK4    C15  519   9.228   8.583   0.812  0.6692 -0.1278  0.1747
 1197HK4     H7  520   9.123   8.555   0.831 -0.3466  3.9830  0.9519
 1197HK4    C20  521   9.311   8.490   0.751  0.1698 -0.3205 -0.2159
 1197HK4     H9  522   9.301   8.381   0.751  1.7771 -0.4905  1.2798
 1197HK4    C19  523   9.428   8.542   0.696  0.3852 -0.4393  0.1314
 1197HK4    C18  524   9.449   8.686   0.692 -0.8699 -0.2573 -0.3982
 1197HK4    C17  525   9.365   8.768   0.766  0.0492  0.4635 -0.1350
 1197HK4     H8  526   9.402   8.868   0.785  1.2321  0.4369 -2.1498
 1197HK4     N1  527   9.563   8.726   0.619 -0.1889  0.3048  0.9654
 1197HK4    C21  528   9.630   8.603   0.604 -0.0208  0.4645  0.3808
 1197HK4    C22  529   9.553   8.488   0.648  0.3551 -0.0773 -0.3727
 1197HK4    C26  530   9.604   8.358   0.647 -0.2685 -0.3214 -0.3584
 1197HK4    H13  531   9.552   8.276   0.697  1.7779 -0.0962  2.2344
 1197HK4    C25  532   9.729   8.334   0.590  0.1571 -0.1748  0.5099
 1197HK4    H12  533   9.754   8.231   0.567 -2.3540 -0.6747 -0.1592
 1197HK4    C24  534   9.808   8.444   0.557 -0.0492 -0.3870 -0.6937
 1197HK4    H11  535   9.906   8.422   0.512  1.0976  1.9091  0.6125
 1197HK4    C23  536   9.761   8.574   0.570 -0.1997 -0.5520  0.5095
 1197HK4    H10  537   9.833   8.657   0.567 -1.4631  0.5799  0.9564
 1197HK4    C39  538   9.571   8.836   0.533 -0.2368  0.1736  0.7954
 1197HK4    C41  539   9.461   8.893   0.467  0.3437  0.2177 -0.1400
 1197HK4    H21  540   9.363   8.845   0.485  1.3807 -1.4268  1.2678
 1197HK4    C42  541   9.476   9.007   0.389  0.5303  0.1618 -0.1818
 1197HK4    H22  542   9.392   9.042   0.328 -0.6300 -0.3328  1.1161
 1197HK4    C43  543   9.603   9.063   0.379  0.6155  0.0450  0.2009
 1197HK4    H23  544   9.616   9.161   0.331  1.4024  0.6691  1.6566
 1197HK4    C44  545   9.716   9.008   0.437  0.4012 -0.0001  0.5754
 1197HK4    H24  546   9.814   9.057   0.425  0.4671 -0.7701 -2.3323
 1197HK4    C45  547   9.698   8.895   0.515 -0.1501 -0.2089  0.1503
 1197HK4    H25  548   9.781   8.872   0.583  2.4213  1.1493 -2.4198
 1198HK4    H28  549   3.410   4.182   1.351 -0.8377  0.1012 -0.6556
 1198HK4    C48  550   3.409   4.085   1.300  0.5286 -0.1408 -0.2392
 1198HK4    C47  551   3.363   4.087   1.169  0.1283  0.0689 -0.0953
 1198HK4    H27  552   3.331   4.183   1.127  1.9565  0.5415 -0.4175
 1198HK4    C46  553   3.348   3.971   1.093  0.2240 -0.1006  0.1411
 1198HK4    H26  554   3.326   3.972   0.985  2.9953  2.2446 -0.4733
 1198HK4    C40  555   3.364   3.843   1.150  0.6215 -0.1562 -0.0938
 1198HK4    C50  556   3.399   3.842   1.287  0.4794 -0.2028 -0.0580
 1198HK4    H30  557   3.402   3.752   1.349  0.8642  0.4687  0.9095
 1198HK4    C49  558   3.419   3.960   1.359  0.0221 -0.1080 -0.0817
 1198HK4    H29  559   3.442   3.956   1.466 -0.4095  2.1791  0.1114
 1198HK4     N2  560   3.307   3.722   1.110 -0.3229  0.2914 -0.1117
 1198HK4    C30  561   3.177   3.704   1.056 -0.6223 -0.0339  0.7040
 1198HK4    C29  562   3.066   3.786   1.072 -0.2841  0.5213  0.2173
 1198HK4    H15  563   3.086   3.893   1.082 -2.7659  1.1135 -0.7643
 1198HK4    C28  564   2.937   3.741   1.050 -0.1669  0.3565 -0.1467
 1198HK4    C27  565   2.918   3.613   0.993  0.0216  0.2118  0.1101
 1198HK4    H14  566   2.820   3.581   0.954  0.5430  0.5910 -1.5857
 1198HK4    C32  567   3.027   3.528   0.979  0.0236  0.3245 -0.6326
 1198HK4    H16  568   3.014   3.422   0.956  1.6097 -0.1435  0.5343
 1198HK4    C31  569   3.156   3.569   1.008 -0.0432  0.1509 -0.0849
 1198HK4    C34  570   3.284   3.503   1.024 -0.0479  0.0760 -0.3622
 1198HK4    C33  571   3.373   3.599   1.087 -0.5840  0.0375  0.4619
 1198HK4    C35  572   3.506   3.561   1.098 -0.6638 -0.3233  0.1838
 1198HK4    H17  573   3.580   3.624   1.147 -0.5505 -0.2256 -0.1170
 1198HK4    C36  574   3.549   3.433   1.064 -0.4102 -0.1137 -0.2734
 1198HK4    H18  575   3.648   3.406   1.104 -0.2877  1.7931  0.8050
 1198HK4    C37  576   3.460   3.340   1.013 -0.2956 -0.3310 -0.0778
 1198HK4    H19  577   3.486   3.242   0.973 -1.3050 -0.1211 -1.2819
 1198HK4    C38  578   3.326   3.374   0.993 -0.2188 -0.0451 -0.0922
 1198HK4    H20  579   3.252   3.300   0.964  1.3851 -0.8571 -2.2245
 1198HK4    C14  580   2.825   3.815   1.110 -0.2340 -0.4029  0.6841
 1198HK4     C9  581   2.705   3.749   1.136 -0.6030 -0.2917 -0.7081
 1198HK4     C8  582   2.581   3.806   1.100 -0.3908  0.6620  0.0488
 1198HK4    C11  583   2.582   3.930   1.037 -0.4832  0.3871 -0.5067
 1198HK4     H4  584   2.493   3.965   0.982 -0.7690  0.0113 -0.2866
 1198HK4    C12  585   2.699   4.005   1.028 -0.2273  0.1024  0.4123
 1198HK4     H5  586   2.695   4.111   0.999  0.0294 -0.3874 -1.4574
 1198HK4    C13  587   2.821   3.949   1.065 -0.3535 -0.8149 -0.5409
 1198HK4     H6  588   2.903   4.017   1.090 -1.0765  0.2534 -1.0226
 1198HK4     C7  589   2.457   3.733   1.134  0.2169 -0.6310 -0.4500
 1198HK4     O2  590   2.350   3.790   1.111  0.2073 -0.0837  0.9187
 1198HK4     C4  591   2.466   3.600   1.198 -0.2234 -0.1554  0.6071
 1198HK4     C3  592   2.351   3.536   1.243 -0.2594 -0.7610 -0.3502
 1198HK4     H3  593   2.257   3.591   1.246 -0.8784 -1.6379 -2.4129
 1198HK4     C2  594   2.358   3.406   1.292  0.4115 -0.2219  1.0038
 1198HK4     H2  595   2.269   3.351   1.324  0.5600 -1.4356 -0.6106
 1198HK4     C1  596   2.476   3.333   1.279  0.2823 -0.1871 -0.3774
 1198HK4     H1  597   2.483   3.230   1.316 -2.2267 -0.3862 -0.3716
 1198HK4     C6  598   2.596   3.393   1.233  0.2594  0.1236 -0.0299
 1198HK4     C5  599   2.588   3.530   1.205 -0.0306  0.1087 -0.0256
 1198HK4    C10  600   2.709   3.616   1.203  0.0966 -0.0782 -0.3286
 1198HK4     O1  601   2.797   3.604   1.288  0.2053  0.3513 -0.3821
 1198HK4    C16  602   2.686   3.308   1.154 -0.1398 -0.5198  0.1958
 1198HK4    C15  603   2.632   3.188   1.102 -0.0355 -0.5265  0.1017
 1198HK4     H7  604   2.533   3.190   1.056  1.3210  0.9910 -2.8735
 1198HK4    C20  605   2.712   3.076   1.083  0.2849 -0.3116  0.1603
 1198HK4     H9  606   2.662   2.983   1.057  2.0986 -1.2060 -0.2011
 1198HK4    C19  607   2.848   3.080   1.112  0.4314 -0.2198 -0.5399
 1198HK4    C18  608   2.907   3.205   1.155 -0.3463 -0.1425  0.3338
 1198HK4    C17  609   2.823   3.315   1.173 -0.2388 -0.1355  0.7767
 1198HK4     H8  610   2.879   3.408   1.181 -0.5192 -0.0628  2.0088
 1198HK4     N1  611   3.038   3.192   1.205 -0.1209 -0.0185 -0.2160
 1198HK4    C21  612   3.071   3.056   1.190  0.1460  0.0773 -0.5060
 1198HK4    C22  613   2.955   2.986   1.138  0.0096 -0.4245  0.4711
 1198HK4    C26  614   2.953   2.847   1.131 -0.1551 -0.4092  0.2122
 1198HK4    H13  615   2.875   2.794   1.076 -0.4720 -3.1436  3.1548
 1198HK4    C25  616   3.065   2.781   1.181 -0.2738 -0.4357  0.4428
 1198HK4    H12  617   3.063   2.673   1.197 -0.1587 -0.3547  1.0318
 1198HK4    C24  618   3.180   2.847   1.222 -0.3321 -0.0478 -0.0183
 1198HK4    H11  619   3.267   2.784   1.247 -0.7697 -0.4884  0.4129
 1198HK4    C23  620   3.183   2.986   1.231 -0.2494 -0.0724  0.3326
 1198HK4    H10  621   3.269   3.041   1.269 -1.0358  1.0002  0.5557
 1198HK4    C39  622   3.099   3.279   1.297 -0.2791 -0.4490  0.2991
 1198HK4    C41  623   3.240   3.287   1.299 -0.2573 -0.7187  0.0627
 1198HK4    H21  624   3.302   3.242   1.221  1.3374  0.4023  0.6513
 1198HK4    C42  625   3.303   3.357   1.402 -0.4275 -0.1318 -0.2270
 1198HK4    H22  626   3.411   3.371   1.389 -0.0332 -1.0947  1.7167
 1198HK4    C43  627   3.227   3.424   1.497  0.0980  0.0791  0.0512
 1198HK4    H23  628   3.280   3.472   1.579  1.0109 -0.6718 -0.0858
 1198HK4    C44  629   3.088   3.432   1.484  0.0979  0.2139  0.1411
 1198HK4    H24  630   3.028   3.501   1.544  0.8298  0.1367  0.9744
 1198HK4    C45  631   3.024   3.354   1.389  0.1379  0.3741 -0.0203
 1198HK4    H25  632   2.914   3.353   1.390  0.0991  1.9617 -1.2838
 1199HK4    H28  633   7.897   2.704   3.239 -2.8133 -1.0853  2.1482
 1199HK4    C48  634   7.956   2.623   3.282  0.9253  0.4139  0.1157
 1199HK4    C47  635   7.980   2.621   3.419 -0.0805 -0.1292  0.2944
 1199HK4    H27  636   7.991   2.722   3.460  0.9028  0.2554 -0.8582
 1199HK4    C46  637   8.032   2.510   3.484  0.2005 -0.1486  0.0386
 1199HK4    H26  638   8.070   2.531   3.585  0.6818  1.8343 -0.5312
 1199HK4    C40  639   8.058   2.396   3.405  0.1728  0.1806 -0.4453
 1199HK4    C50  640   8.037   2.408   3.266  0.0868 -0.5089 -0.4916
 1199HK4    H30  641   8.079   2.333   3.198 -0.8329 -0.8185 -0.7308
 1199HK4    C49  642   7.978   2.514   3.198  0.2888  0.1235  0.3186
 1199HK4    H29  643   7.941   2.510   3.095  2.2168  2.1019 -0.4981
 1199HK4     N2  644   8.139   2.290   3.447  0.0960  0.4194  0.3026
 1199HK4    C30  645   8.252   2.293   3.532 -0.1237  0.7816  0.5844
 1199HK4    C29  646   8.320   2.403   3.582  0.3351  0.5655  0.4320
 1199HK4    H15  647   8.307   2.500   3.535 -0.3236  0.6038  0.6900
 1199HK4    C28  648   8.423   2.393   3.675  1.0794 -0.3614 -0.4740
 1199HK4    C27  649   8.443   2.266   3.733  0.2177 -0.1642  0.2692
 1199HK4    H14  650   8.508   2.259   3.821  1.4343  0.1350 -0.5923
 1199HK4    C32  651   8.376   2.152   3.690 -0.0529  0.2031 -0.2963
 1199HK4    H16  652   8.407   2.060   3.740 -0.0160 -0.0868 -0.8503
 1199HK4    C31  653   8.285   2.162   3.585 -0.7003  0.5097  0.2905
 1199HK4    C34  654   8.185   2.075   3.528 -0.3082  0.2280  0.0377
 1199HK4    C33  655   8.097   2.155   3.446 -0.1410  0.4929  0.1169
 1199HK4    C35  656   8.003   2.091   3.367 -0.2615  0.3006  0.4217
 1199HK4    H17  657   7.934   2.156   3.313  1.4812  1.0840 -0.8832
 1199HK4    C36  658   8.000   1.953   3.348  0.2671  0.2872  0.4312
 1199HK4    H18  659   7.930   1.912   3.274  0.3131  0.0337  0.5266
 1199HK4    C37  660   8.094   1.880   3.420  0.3333 -0.2130 -0.1571
 1199HK4    H19  661   8.108   1.776   3.391 -2.3796 -1.1151  1.5801
 1199HK4    C38  662   8.182   1.937   3.512 -0.1990  0.2181  0.0951
 1199HK4    H20  663   8.256   1.879   3.567 -1.0666 -1.0052 -0.0075
 1199HK4    C14  664   8.520   2.502   3.695  0.0698  0.4336  0.1559
 1199HK4     C9  665   8.653   2.482   3.734  0.0271 -0.0631  0.0485
 1199HK4     C8  666   8.720   2.578   3.814 -0.3214  0.3766 -0.1853
 1199HK4    C11  667   8.663   2.703   3.829 -0.0978  0.4415  0.1143
 1199HK4     H4  668   8.727   2.787   3.861  0.2686  1.0616 -2.1285
 1199HK4    C12  669   8.542   2.735   3.767 -0.1458  0.2635  0.1169
 1199HK4     H5  670   8.528   2.835   3.724  1.9181 -0.8915 -3.4431
 1199HK4    C13  671   8.468   2.632   3.711 -0.0400  0.4551 -0.3754
 1199HK4     H6  672   8.371   2.659   3.665 -1.0650 -0.6278  1.0916
 1199HK4     C7  673   8.848   2.546   3.880  0.0239  0.5234 -0.7822
 1199HK4     O2  674   8.901   2.624   3.958  0.0870  0.2204 -0.5217
 1199HK4     C4  675   8.922   2.421   3.850  0.2629  0.5113 -0.1446
 1199HK4     C3  676   9.049   2.403   3.901  0.7257  0.9604 -1.1164
 1199HK4     H3  677   9.097   2.479   3.964  0.1955 -0.1555  0.6724
 1199HK4     C2  678   9.123   2.293   3.857 -0.0156 -0.0433  0.1081
 1199HK4     H2  679   9.221   2.278   3.904  0.9968 -1.7074 -2.4505
 1199HK4     C1  680   9.063   2.189   3.788 -0.1227  0.1562 -0.0994
 1199HK4     H1  681   9.135   2.115   3.751 -0.8884 -0.0353 -1.2636
 1199HK4     C6  682   8.929   2.204   3.746 -0.0719  0.3413 -0.1944
 1199HK4     C5  683   8.863   2.327   3.763  0.3293  0.5654 -0.2456
 1199HK4    C10  684   8.737   2.366   3.693 -0.3263 -0.4294  0.3555
 1199HK4     O1  685   8.731   2.333   3.575 -0.1222  0.7036  0.0243
 1199HK4    C16  686   8.868   2.081   3.693  0.4009  0.1589 -0.3132
 1199HK4    C15  687   8.731   2.056   3.712  0.5462 -0.2684  0.1799
 1199HK4     H7  688   8.673   2.124   3.775  0.9809 -0.2209  0.5317
 1199HK4    C20  689   8.671   1.949   3.646 -0.2956  0.0437  0.4397
 1199HK4     H9  690   8.568   1.924   3.673 -1.7047  2.4573 -2.3823
 1199HK4    C19  691   8.745   1.863   3.566 -0.0358  0.3770  0.3233
 1199HK4    C18  692   8.887   1.890   3.552  0.0652 -0.1123  0.3919
 1199HK4    C17  693   8.947   2.001   3.611  0.7077 -0.6659  0.7849
 1199HK4     H8  694   9.051   2.021   3.586  0.0530  0.0773 -1.4498
 1199HK4     N1  695   8.956   1.777   3.504 -0.2349 -0.1359  0.0125
 1199HK4    C21  696   8.856   1.679   3.484 -0.1539 -0.1595 -0.2845
 1199HK4    C22  697   8.724   1.728   3.519  0.2536  0.1357  0.8818
 1199HK4    C26  698   8.611   1.648   3.505  0.5580 -0.2219  0.4001
 1199HK4    H13  699   8.508   1.684   3.514  0.5994 -0.1332  0.5158
 1199HK4    C25  700   8.622   1.518   3.457  0.1584 -0.1139  0.0067
 1199HK4    H12  701   8.535   1.453   3.447  0.5380 -0.6559  0.1868
 1199HK4    C24  702   8.747   1.469   3.421  0.0431 -0.1376 -0.3657
 1199HK4    H11  703   8.756   1.374   3.367 -2.7975 -0.3602 -0.4874
 1199HK4    C23  704   8.860   1.549   3.436  0.0562 -0.1980 -0.1600
 1199HK4    H10  705   8.956   1.515   3.397  0.3274 -0.1273  0.4337
 1199HK4    C39  706   9.071   1.787   3.425 -0.1576 -0.5552  0.0732
 1199HK4    C41  707   9.147   1.668   3.419  0.1843 -0.3550  0.3669
 1199HK4    H21  708   9.137   1.601   3.505 -1.8735  0.5360  0.8602
 1199HK4    C42  709   9.215   1.629   3.304 -0.0336 -0.0373  0.1275
 1199HK4    H22  710   9.228   1.520   3.298  0.3072  0.0180 -0.1648
 1199HK4    C43  711   9.215   1.709   3.191 -0.1038  0.1208  0.2399
 1199HK4    H23  712   9.229   1.666   3.092 -2.1103 -1.2251  0.5172
 1199HK4    C44  713   9.150   1.832   3.199 -0.0871  0.1672 -0.3435
 1199HK4    H24  714   9.143   1.888   3.104  2.0498 -1.5407 -1.5657
 1199HK4    C45  715   9.082   1.871   3.313 -0.4495 -0.8804 -0.1991
 1199HK4    H25  716   9.004   1.948   3.302 -0.1630 -0.7042 -1.0389
 1200HK4    H28  717   9.292   6.688   8.917 -2.2233  0.5886  1.3101
 1200HK4    C48  718   9.321   6.792   8.932 -0.0370  0.2034  0.0558
 1200HK4    C47  719   9.450   6.816   8.977 -0.2014 -0.1599  0.7263
 1200HK4    H27  720   9.523   6.740   9.009  2.3731  1.9073 -0.0313
 1200HK4    C46  721   9.492   6.948   8.979  0.4458 -0.3389 -0.3816
 1200HK4    H26  722   9.600   6.969   8.984  0.1831  0.7838  1.0565
 1200HK4    C40  723   9.412   7.056   8.938  0.1478 -0.4046  0.0293
 1200HK4    C50  724   9.283   7.026   8.889  0.3512 -0.1440 -0.6727
 1200HK4    H30  725   9.215   7.108   8.861  1.2381  1.0121  0.4543
 1200HK4    C49  726   9.237   6.895   8.891 -0.0496 -0.0010 -0.4342
 1200HK4    H29  727   9.135   6.872   8.858  0.6048 -0.0558 -2.5048
 1200HK4     N2  728   9.449   7.191   8.952  0.1453 -0.4036  0.0258
 1200HK4    C30  729   9.536   7.243   9.050  0.1312  0.2275 -0.2964
 1200HK4    C29  730   9.570   7.196   9.176  0.0233  0.6140 -0.1195
 1200HK4    H15  731   9.546   7.092   9.197  0.0326  0.8069  0.8611
 1200HK4    C28  732   9.638   7.264   9.277 -0.2174  0.5819  0.0585
 1200HK4    C27  733   9.697   7.383   9.230 -0.6402  0.7437 -0.0609
 1200HK4    H14  734   9.773   7.439   9.286  0.4842 -1.0077  0.2053
 1200HK4    C32  735   9.677   7.438   9.103 -0.4302  0.6308 -0.1444
 1200HK4    H16  736   9.755   7.510   9.078  3.5752 -2.2932  3.1665
 1200HK4    C31  737   9.593   7.371   9.015 -0.1974  0.4024 -0.1941
 1200HK4    C34  738   9.548   7.399   8.880 -0.2302  0.0564 -0.2553
 1200HK4    C33  739   9.460   7.287   8.850  0.3742 -0.4837 -0.0257
 1200HK4    C35  740   9.401   7.282   8.724  0.3052  0.3083 -0.0284
 1200HK4    H17  741   9.366   7.184   8.692  0.2932  0.1183  0.5591
 1200HK4    C36  742   9.428   7.384   8.634 -0.0060  0.4000 -0.0184
 1200HK4    H18  743   9.383   7.380   8.534  0.9858 -1.4564 -0.4297
 1200HK4    C37  744   9.505   7.493   8.673  0.5578  0.1542 -0.4349
 1200HK4    H19  745   9.493   7.590   8.624 -2.2810 -0.0748 -0.2513
 1200HK4    C38  746   9.571   7.506   8.795 -0.1727  0.2166 -0.0369
 1200HK4    H20  747   9.644   7.584   8.817 -1.0828  1.1904 -0.4360
 1200HK4    C14  748   9.616   7.253   9.421 -0.2768 -0.0689  0.0070
 1200HK4     C9  749   9.626   7.361   9.510  0.2652 -0.0043 -0.1334
 1200HK4     C8  750   9.672   7.336   9.641  0.2606  0.1740 -0.0953
 1200HK4    C11  751   9.690   7.203   9.679  0.2356  0.1959 -0.0021
 1200HK4     H4  752   9.713   7.183   9.785  0.8368 -0.5347 -0.2631
 1200HK4    C12  753   9.676   7.094   9.594  0.4476  0.1414  0.0327
 1200HK4     H5  754   9.733   7.005   9.624 -0.1396 -0.3067 -0.1763
 1200HK4    C13  755   9.636   7.120   9.463  0.1677  0.0271  0.0923
 1200HK4     H6  756   9.642   7.035   9.393  0.2309  0.7699 -0.8048
 1200HK4     C7  757   9.702   7.447   9.734 -0.8707  0.2255  0.2135
 1200HK4     O2  758   9.689   7.425   9.855 -0.2018 -0.2167  0.2092
 1200HK4     C4  759   9.704   7.586   9.685 -1.0242  0.1929  0.1162
 1200HK4     C3  760   9.759   7.685   9.766 -0.5008 -0.0551  0.0601
 1200HK4     H3  761   9.780   7.659   9.871  1.2626  0.3546 -0.1747
 1200HK4     C2  762   9.783   7.813   9.719  0.6074 -0.3517 -0.1926
 1200HK4     H2  763   9.817   7.900   9.779  0.0976 -1.1542  1.2893
 1200HK4     C1  764   9.754   7.835   9.585 -0.7453 -0.1025  0.1391
 1200HK4     H1  765   9.783   7.930   9.537  1.2464 -0.1589  1.1785
 1200HK4     C6  766   9.702   7.736   9.499  0.4375 -0.2216 -0.4437
 1200HK4     C5  767   9.665   7.612   9.552 -0.3420  0.1555 -0.0923
 1200HK4    C10  768   9.598   7.503   9.476  0.2881 -0.0538 -0.3568
 1200HK4     O1  769   9.483   7.526   9.438  0.1568 -0.1187  0.0010
 1200HK4    C16  770   9.747   7.745   9.359  0.2707 -0.1557 -0.4899
 1200HK4    C15  771   9.880   7.784   9.336  0.3151  0.0805  0.1196
 1200HK4     H7  772   9.955   7.761   9.413  0.2817 -0.0083  0.1217
 1200HK4    C20  773   9.939   7.819   9.214 -0.4698  1.0490  0.0165
 1200HK4     H9  774  10.047   7.824   9.201 -0.5900 -0.4492 -1.6726
 1200HK4    C19  775   9.847   7.812   9.110 -0.0531 -0.4914 -0.2485
 1200HK4    C18  776   9.705   7.788   9.130 -0.1535 -0.0972 -0.4916
 1200HK4    C17  777   9.655   7.760   9.256  0.1202  0.3109 -0.2882
 1200HK4     H8  778   9.547   7.752   9.271  0.2459  0.7401  0.8949
 1200HK4     N1  779   9.631   7.799   9.011 -0.1586  0.1339 -0.4670
 1200HK4    C21  780   9.727   7.826   8.911  0.2712 -0.3911 -0.1969
 1200HK4    C22  781   9.860   7.838   8.968  0.1934  0.1129 -0.1165
 1200HK4    C26  782   9.968   7.849   8.880  0.0552  0.6093 -0.2268
 1200HK4    H13  783  10.068   7.873   8.916  0.2400  0.9608 -0.9815
 1200HK4    C25  784   9.953   7.851   8.742 -0.3591  0.2110 -0.1914
 1200HK4    H12  785  10.040   7.848   8.677 -1.0119  2.9368 -1.2500
 1200HK4    C24  786   9.824   7.833   8.694 -0.2169 -0.5463 -0.3031
 1200HK4    H11  787   9.820   7.780   8.598 -1.1898 -1.8851  0.4681
 1200HK4    C23  788   9.711   7.819   8.773 -0.1694 -0.1092 -0.1587
 1200HK4    H10  789   9.613   7.797   8.730 -0.2820 -0.4261  0.2570
 1200HK4    C39  790   9.504   7.857   8.998 -0.1444  0.3159  0.2022
 1200HK4    C41  791   9.412   7.825   8.896 -0.3343 -0.0693  0.4953
 1200HK4    H21  792   9.425   7.734   8.836  3.1893  1.3134 -0.9856
 1200HK4    C42  793   9.299   7.903   8.873  0.1087  0.3614 -0.2326
 1200HK4    H22  794   9.220   7.874   8.802 -0.0701  0.2421  0.0179
 1200HK4    C43  795   9.278   8.015   8.953  0.4375  0.3973 -0.1960
 1200HK4    H23  796   9.177   8.057   8.949 -0.4851 -1.6194  1.3197
 1200HK4    C44  797   9.362   8.048   9.058  0.0334  0.7857  0.0070
 1200HK4    H24  798   9.348   8.143   9.113 -4.0809  0.7886 -0.8768
 1200HK4    C45  799   9.474   7.969   9.079  0.4174  1.1377 -0.7111
 1200HK4    H25  800   9.544   8.008   9.154  1.2694 -3.0491  0.8230
 1201HK4    H28  801  11.237   6.728   3.578  1.6626  0.9326 -0.7765
 1201HK4    C48  802  11.203   6.731   3.474  0.1646 -0.3701 -0.3411
 1201HK4    C47  803  11.146   6.621   3.411  0.0776 -0.5380  0.0272
 1201HK4    H27  804  11.140   6.520   3.453  0.9628 -0.8188 -0.5214
 1201HK4    C46  805  11.092   6.638   3.284  0.0022 -0.4824  0.0676
 1201HK4    H26  806  11.041   6.552   3.237  0.6416 -1.0191  0.3532
 1201HK4    C40  807  11.099   6.757   3.209  0.2795 -0.4688  0.1144
 1201HK4    C50  808  11.158   6.865   3.280  0.5939 -0.3288 -0.3568
 1201HK4    H30  809  11.154   6.963   3.232  1.4589 -0.1400 -0.0563
 1201HK4    C49  810  11.208   6.853   3.409  0.0351 -0.2527 -0.1333
 1201HK4    H29  811   0.026   6.933   3.446 -0.1188 -0.6983  1.1273
 1201HK4     N2  812  11.081   6.755   3.070  0.1866  0.2956  0.1118
 1201HK4    C30  813  11.085   6.636   2.995  0.3018  0.5362 -0.2664
 1201HK4    C29  814  11.185   6.539   3.003 -0.3328 -0.1083 -0.0461
 1201HK4    H15  815   0.001   6.525   3.090 -0.5207  3.2239  0.7158
 1201HK4    C28  816  11.197   6.449   2.898  0.1859 -0.5623  0.4025
 1201HK4    C27  817  11.104   6.451   2.792  0.1822 -0.4682  0.4084
 1201HK4    H14  818  11.088   6.352   2.746  0.4627 -0.6608  0.7284
 1201HK4    C32  819  11.006   6.550   2.778  0.2961 -0.3640  0.3325
 1201HK4    H16  820  10.952   6.559   2.684 -0.0275 -0.9509  0.4569
 1201HK4    C31  821  10.998   6.644   2.880 -0.1621 -0.0830  0.0350
 1201HK4    C34  822  10.945   6.779   2.884  0.1181  0.0354 -0.1302
 1201HK4    C33  823  11.004   6.848   2.998  0.0497  0.0241 -0.0880
 1201HK4    C35  824  10.964   6.980   3.014 -0.0633 -0.0336  0.1108
 1201HK4    H17  825  11.001   7.035   3.101  1.5606 -1.5580  0.4267
 1201HK4    C36  826  10.886   7.052   2.925  0.5220  0.1213 -0.2814
 1201HK4    H18  827  10.865   7.158   2.941 -0.7339 -0.2609  0.7392
 1201HK4    C37  828  10.831   6.979   2.819 -0.5097  0.4469  0.0237
 1201HK4    H19  829  10.759   7.030   2.755 -0.9139  1.1048  0.9883
 1201HK4    C38  830  10.861   6.846   2.796  0.0415  0.5204  0.3070
 1201HK4    H20  831  10.806   6.788   2.722  1.4563 -0.8192  0.2682
 1201HK4    C14  832   0.082   6.395   2.867  0.4843  0.0436  0.6451
 1201HK4     C9  833   0.154   6.399   2.747 -0.4111 -0.0573  0.1022
 1201HK4     C8  834   0.243   6.296   2.708 -0.4498 -0.0329 -0.0551
 1201HK4    C11  835   0.280   6.204   2.805 -0.8851  0.1836  0.3195
 1201HK4     H4  836   0.331   6.110   2.780 -0.3425  1.1067 -2.1612
 1201HK4    C12  837   0.227   6.211   2.934  0.4182  0.4010  0.8460
 1201HK4     H5  838   0.290   6.174   3.016  0.8121  3.7766  2.1383
 1201HK4    C13  839   0.123   6.299   2.961 -0.6798 -0.7377  0.3607
 1201HK4     H6  840   0.065   6.291   3.055 -0.5793 -0.0199  0.4877
 1201HK4     C7  841   0.295   6.282   2.570 -0.0163 -0.1889  0.1228
 1201HK4     O2  842   0.371   6.193   2.535  0.2050  0.1829 -0.3475
 1201HK4     C4  843   0.245   6.380   2.470  0.0775  0.0261  0.2851
 1201HK4     C3  844   0.269   6.357   2.335  0.3408  0.1475  0.3113
 1201HK4     H3  845   0.331   6.272   2.303  2.3477  0.9574  1.8735
 1201HK4     C2  846   0.214   6.436   2.235 -0.5939 -0.5693  0.2564
 1201HK4     H2  847   0.251   6.434   2.132 -2.7851 -0.5540 -0.5588
 1201HK4     C1  848   0.135   6.542   2.279  0.4967  0.3142  0.1272
 1201HK4     H1  849   0.091   6.603   2.199  0.3713  0.4778  0.3224
 1201HK4     C6  850   0.109   6.576   2.413  0.0044 -0.1179  0.1459
 1201HK4     C5  851   0.167   6.491   2.508 -0.2935 -0.2181  0.2369
 1201HK4    C10  852   0.139   6.513   2.653 -0.0297  0.1036  0.2381
 1201HK4     O1  853   0.159   6.624   2.703 -0.3375  0.2493  0.0319
 1201HK4    C16  854  11.247   6.672   2.426 -0.3115 -0.5196  0.4877
 1201HK4    C15  855  11.133   6.662   2.344  0.1304  0.0955 -0.2096
 1201HK4     H7  856  11.105   6.567   2.296  0.6967  0.4387 -1.2604
 1201HK4    C20  857  11.029   6.753   2.353  0.0354 -0.0388  0.0686
 1201HK4     H9  858  10.943   6.734   2.290 -0.2416 -1.0341  0.7464
 1201HK4    C19  859  11.038   6.857   2.446 -0.2394  0.2361 -0.2133
 1201HK4    C18  860  11.164   6.882   2.513 -0.3228  0.0825  0.0007
 1201HK4    C17  861   0.017   6.786   2.504 -0.2164  0.2549 -0.6631
 1201HK4     H8  862   0.119   6.820   2.519 -0.3606  1.2711 -1.8420
 1201HK4     N1  863  11.166   7.005   2.581 -0.0642 -0.1943  0.4912
 1201HK4    C21  864  11.037   7.056   2.556  0.0272 -0.2616 -0.1295
 1201HK4    C22  865  10.951   6.968   2.480 -0.4561 -0.0604  0.1888
 1201HK4    C26  866  10.821   7.002   2.443 -0.3174  0.3739  0.1034
 1201HK4    H13  867  10.758   6.928   2.394  0.6342 -0.4766  0.1573
 1201HK4    C25  868  10.777   7.131   2.473 -0.4921  0.3236  0.0578
 1201HK4    H12  869  10.678   7.163   2.442 -0.5955  0.9394  1.0177
 1201HK4    C24  870  10.858   7.215   2.548 -0.0639  0.0336 -0.0737
 1201HK4    H11  871  10.814   7.315   2.560  0.6361  0.3756 -0.3059
 1201HK4    C23  872  10.986   7.180   2.590 -0.3753 -0.5665  0.3838
 1201HK4    H10  873  11.054   7.252   2.636  1.1209 -1.6323 -0.1207
 1201HK4    C39  874  11.245   7.027   2.695  0.7746 -0.2778 -0.0675
 1201HK4    C41  875   0.033   7.159   2.727  0.2919 -0.1895  0.1218
 1201HK4    H21  876   0.017   7.239   2.653  2.2456 -1.0271 -1.2477
 1201HK4    C42  877   0.087   7.191   2.851  0.1331  0.2658  0.0772
 1201HK4    H22  878   0.118   7.295   2.862 -0.1767  0.2442  1.2139
 1201HK4    C43  879   0.106   7.094   2.950  0.4255 -0.0495 -0.2870
 1201HK4    H23  880   0.165   7.104   3.040  1.7797 -0.6553 -1.1031
 1201HK4    C44  881   0.071   6.964   2.917  0.3383 -0.0859 -0.0555
 1201HK4    H24  882   0.124   6.880   2.965  0.0409 -0.2908 -0.0810
 1201HK4    C45  883   0.016   6.928   2.794  0.0656 -0.2399  0.1104
 1201HK4    H25  884  11.219   6.828   2.789  1.7301 -0.9190 -1.5172
 1202HK4    H28  885   9.791   0.656   1.323 -1.8224 -1.8332  2.6940
 1202HK4    C48  886   9.809   0.743   1.386 -0.0476  0.2303 -0.4600
 1202HK4    C47  887   9.886   0.849   1.340  0.6158 -0.1536 -0.2373
 1202HK4    H27  888   9.932   0.842   1.241  0.6600  2.4568 -0.4380
 1202HK4    C46  889   9.894   0.958   1.426 -0.6189 -0.0550 -0.2423
 1202HK4    H26  890   9.925   1.051   1.375  0.3700 -0.7402 -0.8988
 1202HK4    C40  891   9.832   0.964   1.552 -0.0566 -0.1466  0.0388
 1202HK4    C50  892   9.764   0.847   1.592 -0.2443 -0.0274  0.0721
 1202HK4    H30  893   9.721   0.841   1.693  0.0449 -0.0830  0.1923
 1202HK4    C49  894   9.752   0.733   1.513  0.5626  0.0765 -0.1987
 1202HK4    H29  895   9.721   0.637   1.557  1.8649 -0.0805  0.4135
 1202HK4     N2  896   9.874   1.063   1.641  0.0255 -0.2169  0.0779
 1202HK4    C30  897  10.002   1.122   1.647 -0.0064 -0.1030 -0.3641
 1202HK4    C29  898  10.124   1.066   1.609  0.1106 -0.1176  0.0252
 1202HK4    H15  899  10.133   0.958   1.603 -0.8919 -0.2711  1.1446
 1202HK4    C28  900  10.243   1.138   1.618 -0.2541  0.5061 -0.0945
 1202HK4    C27  901  10.230   1.270   1.664  0.1154  0.3952  0.3280
 1202HK4    H14  902  10.302   1.337   1.616  0.9943 -0.2247  0.7848
 1202HK4    C32  903  10.115   1.326   1.721 -0.4879  0.0558 -0.5491
 1202HK4    H16  904  10.100   1.426   1.760 -0.1324  0.8827 -2.4519
 1202HK4    C31  905  10.000   1.248   1.717 -0.2817 -0.2779 -0.0555
 1202HK4    C34  906   9.866   1.258   1.771 -0.1493 -0.1629  0.2461
 1202HK4    C33  907   9.791   1.145   1.721  0.0032 -0.1486 -0.0161
 1202HK4    C35  908   9.667   1.123   1.779 -0.1340  0.2068 -0.1696
 1202HK4    H17  909   9.642   1.017   1.772  2.6475 -0.5865  1.3132
 1202HK4    C36  910   9.615   1.213   1.872 -0.0325 -0.5110  0.5908
 1202HK4    H18  911   9.516   1.192   1.916  0.0366 -2.4754 -0.0931
 1202HK4    C37  912   9.688   1.320   1.920  0.4131 -0.5935  0.1038
 1202HK4    H19  913   9.645   1.373   2.006  0.0583 -0.3190 -0.2360
 1202HK4    C38  914   9.816   1.342   1.870  0.0641  0.6035 -0.2895
 1202HK4    H20  915   9.878   1.410   1.928 -0.8110  1.4270 -0.2962
 1202HK4    C14  916  10.373   1.069   1.610 -0.4094  0.1821  0.1149
 1202HK4     C9  917  10.488   1.105   1.680 -0.2368  0.1441 -0.1468
 1202HK4     C8  918  10.620   1.088   1.635 -0.1670  0.2708  0.0099
 1202HK4    C11  919  10.639   1.013   1.520  0.2464  0.3194  0.0420
 1202HK4     H4  920  10.737   1.013   1.471 -0.9929  0.2941 -2.5710
 1202HK4    C12  921  10.531   0.966   1.445  0.2103  0.6128 -0.0905
 1202HK4     H5  922  10.549   0.925   1.344  1.6861  0.1712  0.3421
 1202HK4    C13  923  10.404   0.998   1.492  0.2467  0.3412  0.1927
 1202HK4     H6  924  10.331   0.952   1.425  1.4882 -0.1309 -0.8465
 1202HK4     C7  925  10.734   1.150   1.707  0.1449  0.1580 -0.3817
 1202HK4     O2  926  10.846   1.158   1.657  0.3034 -0.1378 -0.0765
 1202HK4     C4  927  10.711   1.229   1.831 -0.3063  0.2772 -0.5382
 1202HK4     C3  928  10.818   1.283   1.902 -0.2544  0.0329 -0.4343
 1202HK4     H3  929  10.921   1.257   1.875 -0.6780 -1.5921 -0.5663
 1202HK4     C2  930  10.799   1.363   2.014  0.0070  0.3148 -0.5914
 1202HK4     H2  931  10.887   1.412   2.059 -1.4013  0.6864  1.8572
 1202HK4     C1  932  10.668   1.385   2.054  0.0164 -0.5551 -0.0537
 1202HK4     H1  933  10.656   1.445   2.146  3.0589  2.4816 -1.5088
 1202HK4     C6  934  10.556   1.337   1.984 -0.1773 -0.3478  0.1126
 1202HK4     C5  935  10.580   1.247   1.879 -0.2189  0.0089 -0.2055
 1202HK4    C10  936  10.472   1.168   1.815 -0.4269  0.3356 -0.2584
 1202HK4     O1  937  10.415   1.091   1.893  0.1502 -0.3940 -0.5503
 1202HK4    C16  938  10.427   1.407   1.997  0.1109  0.2206 -0.0490
 1202HK4    C15  939  10.426   1.548   1.996 -0.3120  0.2231  0.4834
 1202HK4     H7  940  10.516   1.602   1.964 -1.1142  1.4158  0.1964
 1202HK4    C20  941  10.314   1.624   2.027 -0.0272  0.6758  0.3944
 1202HK4     H9  942  10.322   1.733   2.034  1.3909  0.6894 -0.9064
 1202HK4    C19  943  10.199   1.559   2.070 -0.1167  0.3912 -0.2585
 1202HK4    C18  944  10.202   1.415   2.078 -0.1420  0.4025 -0.0319
 1202HK4    C17  945  10.315   1.340   2.045  0.0674  0.5633  0.3143
 1202HK4     H8  946  10.317   1.239   2.084  0.3161  0.7182  0.7105
 1202HK4     N1  947  10.092   1.371   2.154 -0.2226 -0.2283 -0.5025
 1202HK4    C21  948  10.012   1.484   2.180 -0.0392 -0.1669 -0.2028
 1202HK4    C22  949  10.083   1.605   2.144  0.1048 -0.0749  0.3792
 1202HK4    C26  950  10.022   1.729   2.134 -0.1036 -0.2191 -0.1896
 1202HK4    H13  951  10.087   1.814   2.113 -0.7293  0.0971 -0.8343
 1202HK4    C25  952   9.887   1.744   2.162 -0.0793  0.2469 -0.2899
 1202HK4    H12  953   9.827   1.833   2.143 -2.7333 -1.6048 -0.8939
 1202HK4    C24  954   9.817   1.626   2.188  0.6297 -0.1514 -0.1959
 1202HK4    H11  955   9.710   1.634   2.213  0.7070  1.1059 -0.2607
 1202HK4    C23  956   9.875   1.500   2.200 -0.1204 -0.5228 -0.4592
 1202HK4    H10  957   9.816   1.414   2.231 -0.5206 -0.4884 -1.1270
 1202HK4    C39  958  10.043   1.240   2.168 -0.6277 -0.0120  0.1059
 1202HK4    C41  959   9.954   1.211   2.274  0.3899 -0.2043  0.9104
 1202HK4    H21  960   9.969   1.262   2.370  0.4715 -0.6907  1.1598
 1202HK4    C42  961   9.861   1.109   2.255  0.5802 -0.1585 -0.3154
 1202HK4    H22  962   9.792   1.082   2.336 -1.2224  3.5742 -0.4803
 1202HK4    C43  963   9.864   1.033   2.139 -0.0513 -0.0286 -0.4174
 1202HK4    H23  964   9.816   0.935   2.134 -1.8765  0.8217 -0.0683
 1202HK4    C44  965   9.951   1.057   2.033  0.1586  0.1436 -0.2052
 1202HK4    H24  966   9.951   0.986   1.949  0.7200 -0.4575  0.2995
 1202HK4    C45  967  10.041   1.162   2.051  0.1048  0.1582 -0.0246
 1202HK4    H25  968  10.096   1.185   1.959 -1.3975 -0.5496 -1.1269
 1203HK4    H28  969   1.367   7.135   2.813  2.1104 -2.0568 -0.0433
 1203HK4    C48  970   1.319   7.107   2.719  0.5295 -0.0031  0.1121
 1203HK4    C47  971   1.233   6.997   2.718 -0.1788  0.5504 -0.0664
 1203HK4    H27  972   1.170   6.968   2.803  0.1183 -0.7182 -0.2675
 1203HK4    C46  973   1.227   6.923   2.601  0.2769  0.2247  0.1116
 1203HK4    H26  974   1.160   6.836   2.594 -0.4651  0.7007  1.2370
 1203HK4    C40  975   1.297   6.960   2.484  0.4470  0.0974  0.1734
 1203HK4    C50  976   1.370   7.080   2.487  0.1705  0.2854 -0.4362
 1203HK4    H30  977   1.437   7.111   2.405 -0.2735  0.6678 -0.6592
 1203HK4    C49  978   1.382   7.154   2.604  0.1483 -0.1524 -0.1585
 1203HK4    H29  979   1.432   7.251   2.611  1.3918 -0.7015 -1.2817
 1203HK4     N2  980   1.296   6.883   2.367 -0.6069 -0.0926  0.3006
 1203HK4    C30  981   1.268   6.745   2.368  0.7933 -0.3797  0.0474
 1203HK4    C29  982   1.309   6.638   2.447 -0.1817 -0.1575  0.8557
 1203HK4    H15  983   1.372   6.662   2.533  1.0182  0.7979 -0.2648
 1203HK4    C28  984   1.297   6.504   2.412 -0.3537 -0.0605  0.5432
 1203HK4    C27  985   1.226   6.482   2.292 -0.1610  0.4179  0.3397
 1203HK4    H14  986   1.179   6.384   2.273  4.1947 -1.7013  0.0135
 1203HK4    C32  987   1.172   6.582   2.211 -0.7910  0.0296  0.2704
 1203HK4    H16  988   1.103   6.570   2.128 -1.1470 -0.8470  0.6903
 1203HK4    C31  989   1.205   6.714   2.241 -0.0163 -0.1912  0.4008
 1203HK4    C34  990   1.210   6.827   2.152  0.2245 -0.4160  0.1289
 1203HK4    C33  991   1.258   6.932   2.240  0.4333 -0.3203 -0.0984
 1203HK4    C35  992   1.263   7.058   2.182  0.4693 -0.1940  0.1800
 1203HK4    H17  993   1.303   7.146   2.233  3.3874 -1.4062  0.0498
 1203HK4    C36  994   1.231   7.081   2.048 -0.1400 -0.2869  0.3072
 1203HK4    H18  995   1.255   7.183   2.013 -0.4185  0.1139  1.2643
 1203HK4    C37  996   1.193   6.977   1.964  0.0764 -0.2192  0.1224
 1203HK4    H19  997   1.170   7.002   1.860  1.0027 -0.4015 -0.1286
 1203HK4    C38  998   1.182   6.849   2.017 -0.0732 -0.1597  0.2340
 1203HK4    H20  999   1.125   6.773   1.965  1.3330 -2.2232  1.6656
 1203HK4    C14 1000   1.365   6.397   2.486  0.1910  0.1046  0.2848
 1203HK4     C9 1001   1.393   6.272   2.429  0.8134  0.2599  0.2517
 1203HK4     C8 1002   1.376   6.150   2.497 -0.2862  0.1582 -0.2029
 1203HK4    C11 1003   1.343   6.166   2.631 -0.5278  0.2733 -0.2753
 1203HK4     H4 1004   1.322   6.070   2.680  0.1444 -0.6939 -1.8154
 1203HK4    C12 1005   1.318   6.286   2.696 -0.2707  0.1488  0.0625
 1203HK4     H5 1006   1.278   6.286   2.798 -3.0491 -0.0880 -0.9854
 1203HK4    C13 1007   1.335   6.403   2.623 -0.4475  0.2247  0.1430
 1203HK4     H6 1008   1.312   6.501   2.668  1.1521  0.7613 -0.1800
 1203HK4     C7 1009   1.410   6.016   2.444 -0.9924 -0.1230  0.0333
 1203HK4     O2 1010   1.373   5.915   2.503  0.4510 -0.9193 -0.4027
 1203HK4     C4 1011   1.461   6.004   2.305  1.2157  0.3182  0.7774
 1203HK4     C3 1012   1.500   5.876   2.267 -0.0184  0.2090 -0.1624
 1203HK4     H3 1013   1.494   5.790   2.336  0.2659  2.0619  2.2374
 1203HK4     C2 1014   1.536   5.859   2.134  0.4308 -0.4442  0.0401
 1203HK4     H2 1015   1.575   5.760   2.105  2.0940  0.0850  0.4485
 1203HK4     C1 1016   1.539   5.970   2.051 -0.3201 -0.0949  0.4744
 1203HK4     H1 1017   1.561   5.955   1.945 -1.1672 -1.4290  0.4743
 1203HK4     C6 1018   1.492   6.097   2.091  0.7018  0.4366 -0.0086
 1203HK4     C5 1019   1.470   6.121   2.227 -0.6012 -0.1166 -0.1161
 1203HK4    C10 1020   1.453   6.253   2.294 -0.0357 -0.0575 -0.0865
 1203HK4     O1 1021   1.522   6.345   2.250 -0.4700  0.3697  0.1394
 1203HK4    C16 1022   1.450   6.184   1.980 -0.1543  0.1392  0.0758
 1203HK4    C15 1023   1.357   6.286   2.009 -0.3939 -0.3233  0.9389
 1203HK4     H7 1024   1.287   6.267   2.091 -1.6976  0.8076  0.1200
 1203HK4    C20 1025   1.348   6.400   1.929 -0.1819 -1.2806 -0.4795
 1203HK4     H9 1026   1.281   6.478   1.965 -0.7304 -2.4404  1.0713
 1203HK4    C19 1027   1.432   6.415   1.820  0.3179  0.3246  0.1114
 1203HK4    C18 1028   1.519   6.306   1.780 -0.3977 -0.2119  0.0198
 1203HK4    C17 1029   1.529   6.197   1.866 -0.1619 -0.1778  0.0346
 1203HK4     H8 1030   1.621   6.139   1.855 -1.1199 -1.3564 -1.9452
 1203HK4     N1 1031   1.583   6.331   1.657  0.6654 -0.3921  0.5359
 1203HK4    C21 1032   1.540   6.459   1.617  0.7920 -0.3924  0.4038
 1203HK4    C22 1033   1.444   6.511   1.712  0.3340 -0.0664 -0.2355
 1203HK4    C26 1034   1.384   6.635   1.693  0.7670  0.1214 -0.3967
 1203HK4    H13 1035   1.307   6.670   1.762  0.7233 -0.2613 -0.2511
 1203HK4    C25 1036   1.422   6.713   1.584 -0.1792 -0.3627 -1.0744
 1203HK4    H12 1037   1.363   6.800   1.555  0.6504  1.1094  1.4762
 1203HK4    C24 1038   1.510   6.657   1.493  0.3701  0.0178 -0.7760
 1203HK4    H11 1039   1.545   6.736   1.424  0.4370 -1.1889 -2.1479
 1203HK4    C23 1040   1.577   6.537   1.507  0.1674  0.0540  0.5072
 1203HK4    H10 1041   1.656   6.518   1.434 -1.4870  0.7737 -1.4980
 1203HK4    C39 1042   1.629   6.229   1.573  0.4302  0.0132 -0.0899
 1203HK4    C41 1043   1.723   6.259   1.473  0.4451  0.1406 -0.0372
 1203HK4    H21 1044   1.774   6.357   1.467 -1.1384  1.0398  0.8168
 1203HK4    C42 1045   1.754   6.167   1.374 -0.5470 -0.0011 -0.2213
 1203HK4    H22 1046   1.823   6.190   1.291  1.2983 -0.7165  1.0701
 1203HK4    C43 1047   1.687   6.045   1.366 -0.1133 -0.2781  0.3073
 1203HK4    H23 1048   1.689   5.991   1.271  1.0081  1.4462 -0.6825
 1203HK4    C44 1049   1.589   6.012   1.458 -0.0643 -0.0759  0.4328
 1203HK4    H24 1050   1.523   5.927   1.434  0.4544 -0.7512  1.3519
 1203HK4    C45 1051   1.567   6.103   1.561  0.0219  0.1822  0.2224
 1203HK4    H25 1052   1.499   6.080   1.644  1.7005 -3.7470  0.6386
 1204HK4    H28 1053   1.484  10.205  10.484  0.7645 -4.3576  0.7622
 1204HK4    C48 1054   1.585  10.208  10.443  0.5415  0.9759  0.3487
 1204HK4    C47 1055   1.609  10.272  10.321 -0.0117  0.7978  0.1394
 1204HK4    H27 1056   1.554  10.365  10.304 -0.8380  0.1999 -0.4788
 1204HK4    C46 1057   1.721  10.231  10.249 -0.4563 -0.1344 -0.0271
 1204HK4    H26 1058   1.732  10.249  10.141  1.7503  2.4841  0.5822
 1204HK4    C40 1059   1.824  10.156  10.308  0.0056  0.5054 -0.0130
 1204HK4    C50 1060   1.800  10.099  10.435 -0.3087  0.4611 -0.0949
 1204HK4    H30 1061   1.885  10.046  10.480  0.5100 -0.0677 -2.2112
 1204HK4    C49 1062   1.681  10.128  10.502 -0.1676  0.0950  0.3135
 1204HK4    H29 1063   1.675  10.111  10.610 -0.7431  0.0541  0.2771
 1204HK4     N2 1064   1.936  10.121  10.232 -0.0326  1.0646 -0.3254
 1204HK4    C30 1065   1.940  10.093  10.094 -0.1093 -0.3808 -0.0354
 1204HK4    C29 1066   1.843  10.036  10.011 -0.3456  0.0773 -0.0754
 1204HK4    H15 1067   1.766   9.987  10.070 -0.8755 -0.7105 -1.4119
 1204HK4    C28 1068   1.864  10.019   9.875 -0.2550  0.6660 -0.1378
 1204HK4    C27 1069   1.993  10.043   9.822 -0.0556 -0.0328  0.0171
 1204HK4    H14 1070   2.018  10.035   9.716 -1.4818  1.2353 -0.4312
 1204HK4    C32 1071   2.100  10.078   9.904  0.0569  0.5771 -0.3885
 1204HK4    H16 1072   2.201  10.084   9.864 -0.3883  0.4558 -1.5518
 1204HK4    C31 1073   2.074  10.097  10.039 -0.2073 -0.4882 -0.2825
 1204HK4    C34 1074   2.158  10.130  10.153 -0.1115 -0.3989 -0.3816
 1204HK4    C33 1075   2.072  10.136  10.269  0.0296  0.4637 -0.3143
 1204HK4    C35 1076   2.132  10.139  10.395 -0.1612 -0.5153 -0.1962
 1204HK4    H17 1077   2.075  10.145  10.487  1.1817  0.6556  0.5675
 1204HK4    C36 1078   2.271  10.138  10.405 -0.1225 -0.5401 -0.7176
 1204HK4    H18 1079   2.319  10.161  10.501 -0.4570  2.0190 -1.1132
 1204HK4    C37 1080   2.353  10.131  10.293  0.0384 -0.5123 -0.6015
 1204HK4    H19 1081   2.461  10.142  10.292 -0.1009  0.9982 -0.5986
 1204HK4    C38 1082   2.296  10.132  10.166 -0.0944 -0.6106 -0.5436
 1204HK4    H20 1083   2.350  10.148  10.073  0.8726  0.2839  0.1549
 1204HK4    C14 1084   1.766   9.945   9.794  0.2754  0.2154 -0.3766
 1204HK4     C9 1085   1.804   9.840   9.709  0.4066  0.3020 -0.4276
 1204HK4     C8 1086   1.735   9.810   9.590 -0.1948  0.1171 -0.0313
 1204HK4    C11 1087   1.621   9.886   9.565 -0.4546 -0.2423  0.0634
 1204HK4     H4 1088   1.580   9.899   9.464  1.4283  0.6093 -0.6100
 1204HK4    C12 1089   1.575   9.980   9.656 -0.1273 -0.0455  0.0260
 1204HK4     H5 1090   1.491  10.038   9.616  0.2927 -0.0829 -0.9207
 1204HK4    C13 1091   1.643  10.012   9.773  0.0111 -0.1615 -0.0208
 1204HK4     H6 1092   1.602  10.089   9.840 -0.6498  1.3222 -2.1129
 1204HK4     C7 1093   1.789   9.720   9.486  0.1518  0.9641 -0.5921
 1204HK4     O2 1094   1.720   9.673   9.396 -0.0328  0.1477 -0.0386
 1204HK4     C4 1095   1.925   9.664   9.500 -0.2575  0.0783 -0.1051
 1204HK4     C3 1096   1.989   9.594   9.398 -0.0947 -0.0050  0.0523
 1204HK4     H3 1097   1.925   9.563   9.314  1.0977 -1.1874 -0.4387
 1204HK4     C2 1098   2.127   9.575   9.399 -0.0752  0.1511  0.2775
 1204HK4     H2 1099   2.187   9.541   9.314 -2.4477 -0.6836 -1.1043
 1204HK4     C1 1100   2.195   9.612   9.514 -0.3531  0.4627  0.3402
 1204HK4     H1 1101   2.300   9.582   9.515 -0.2675  0.7616  0.3796
 1204HK4     C6 1102   2.130   9.671   9.625 -0.1886 -0.2068  0.7992
 1204HK4     C5 1103   1.992   9.690   9.621 -0.1407 -0.0217 -0.1453
 1204HK4    C10 1104   1.926   9.759   9.736 -0.0092 -0.1712  0.0193
 1204HK4     O1 1105   1.933   9.705   9.847 -0.5143  0.0481  0.1604
 1204HK4    C16 1106   2.217   9.769   9.692  0.4722 -0.1090 -0.1880
 1204HK4    C15 1107   2.300   9.860   9.623 -0.3521  0.9713  0.2279
 1204HK4     H7 1108   2.271   9.897   9.524 -0.2649 -2.7415 -1.2605
 1204HK4    C20 1109   2.402   9.926   9.692  0.0689  0.6025 -0.0446
 1204HK4     H9 1110   2.449  10.008   9.639 -0.3724  0.2919 -0.9302
 1204HK4    C19 1111   2.431   9.887   9.822 -0.1395 -0.1207 -0.2106
 1204HK4    C18 1112   2.345   9.799   9.898 -0.0007  0.2442  0.3765
 1204HK4    C17 1113   2.243   9.738   9.825  0.2070  0.3707 -0.0195
 1204HK4     H8 1114   2.207   9.639   9.853  0.5788 -0.2558 -1.7006
 1204HK4     N1 1115   2.380   9.781  10.033  0.0316 -0.4497  0.2805
 1204HK4    C21 1116   2.490   9.868  10.049 -0.2518  0.0204 -0.3126
 1204HK4    C22 1117   2.533   9.919   9.920 -0.1554  0.0731 -0.2600
 1204HK4    C26 1118   2.659   9.973   9.901  0.2552 -0.7282  0.1762
 1204HK4    H13 1119   2.687   9.980   9.796 -1.9133 -1.1910 -0.4483
 1204HK4    C25 1120   2.747   9.995  10.007 -0.4496 -0.0956  0.6343
 1204HK4    H12 1121   2.846  10.041   9.999 -1.0793  0.8012 -2.8774
 1204HK4    C24 1122   2.703   9.952  10.131 -0.0886 -0.1011  0.7598
 1204HK4    H11 1123   2.770   9.966  10.217 -0.2670  2.6140  0.4760
 1204HK4    C23 1124   2.584   9.883  10.150 -0.2688 -0.0832 -0.2826
 1204HK4    H10 1125   2.571   9.849  10.253 -0.8016 -0.5012 -0.4816
 1204HK4    C39 1126   2.304   9.728  10.137 -0.1448  0.2887  0.5264
 1204HK4    C41 1127   2.356   9.676  10.258  0.0885 -0.1261  0.2516
 1204HK4    H21 1128   2.464   9.666  10.271  0.1548  1.8713  1.5620
 1204HK4    C42 1129   2.274   9.642  10.365  0.5011 -0.3354  0.4975
 1204HK4    H22 1130   2.327   9.597  10.451  0.7741  0.3449  0.6874
 1204HK4    C43 1131   2.136   9.651  10.363  0.5499  0.2032 -0.3419
 1204HK4    H23 1132   2.077   9.614  10.447 -1.5823  1.1655 -1.3630
 1204HK4    C44 1133   2.083   9.698  10.243  0.0222 -0.0652 -0.2146
 1204HK4    H24 1134   1.973   9.698  10.231 -0.2452  0.2804  1.9410
 1204HK4    C45 1135   2.163   9.732  10.135 -0.1448 -0.0934 -0.3475
 1204HK4    H25 1136   2.107   9.777  10.052 -0.9987 -0.6797 -0.0990
 1205HK4    H28 1137   8.075   7.609   5.623  0.8651 -0.9267  0.1233
 1205HK4    C48 1138   8.017   7.677   5.560  0.5768 -0.5460  0.7922
 1205HK4    C47 1139   7.922   7.761   5.617  0.1305 -0.1948 -0.4546
 1205HK4    H27 1140   7.918   7.767   5.727  2.2401  0.0028 -0.3633
 1205HK4    C46 1141   7.833   7.828   5.534 -0.0069  0.4981  0.2524
 1205HK4    H26 1142   7.757   7.890   5.584 -0.0327  0.6083  0.0761
 1205HK4    C40 1143   7.842   7.829   5.394  0.2076  0.0061  0.2609
 1205HK4    C50 1144   7.944   7.751   5.336 -0.8243 -1.0292 -0.1923
 1205HK4    H30 1145   7.977   7.754   5.231  0.9611 -0.1714  0.3687
 1205HK4    C49 1146   8.020   7.671   5.421 -0.0769  0.6207  0.7214
 1205HK4    H29 1147   8.089   7.594   5.383  0.7006  0.9067  1.5294
 1205HK4     N2 1148   7.772   7.922   5.316  0.0927 -0.0759  0.2644
 1205HK4    C30 1149   7.719   8.046   5.359  0.1676  0.0470  0.0034
 1205HK4    C29 1150   7.750   8.122   5.471 -0.2697  0.3105 -0.0526
 1205HK4    H15 1151   7.836   8.098   5.534  0.3862 -0.6302 -1.2667
 1205HK4    C28 1152   7.682   8.239   5.500 -0.5302  0.1573 -0.0378
 1205HK4    C27 1153   7.579   8.280   5.413 -0.0642  0.1422 -0.5973
 1205HK4    H14 1154   7.512   8.361   5.445 -2.0558 -0.3804 -3.3122
 1205HK4    C32 1155   7.539   8.207   5.302  0.3493 -0.1093 -0.5843
 1205HK4    H16 1156   7.447   8.230   5.248 -0.6527 -0.3516  1.0005
 1205HK4    C31 1157   7.612   8.093   5.273 -0.1608 -0.5981  0.0606
 1205HK4    C34 1158   7.599   7.989   5.172  0.7491  0.0329 -0.7161
 1205HK4    C33 1159   7.697   7.886   5.203  0.9239  0.2904 -0.4047
 1205HK4    C35 1160   7.698   7.771   5.124 -0.5693 -0.3031  0.4200
 1205HK4    H17 1161   7.768   7.691   5.147  2.1997  1.4682 -1.4734
 1205HK4    C36 1162   7.610   7.761   5.018 -0.1879  0.1458  0.0568
 1205HK4    H18 1163   7.609   7.672   4.952 -1.1868 -0.3269  0.7030
 1205HK4    C37 1164   7.527   7.866   4.980 -0.5643 -0.1930 -0.0623
 1205HK4    H19 1165   7.466   7.866   4.890  1.1424 -0.8905 -1.2395
 1205HK4    C38 1166   7.525   7.983   5.055  0.5145  0.1599 -0.5734
 1205HK4    H20 1167   7.462   8.067   5.025 -1.2028 -0.0713  2.2234
 1205HK4    C14 1168   7.666   8.277   5.641 -0.0666  0.3760 -0.0452
 1205HK4     C9 1169   7.543   8.304   5.702 -0.3815  0.3504 -0.6729
 1205HK4     C8 1170   7.531   8.392   5.811 -0.1078 -0.6322  0.1568
 1205HK4    C11 1171   7.649   8.450   5.855 -0.5500  0.6570 -0.3489
 1205HK4     H4 1172   7.641   8.510   5.947  1.8769  1.3480 -0.5516
 1205HK4    C12 1173   7.777   8.420   5.808 -0.5192  0.4727 -0.1502
 1205HK4     H5 1174   7.862   8.484   5.836  1.0191 -1.6728  0.1439
 1205HK4    C13 1175   7.782   8.331   5.701 -0.0242 -0.5139  0.6862
 1205HK4     H6 1176   7.875   8.311   5.646  0.7153 -0.1003  1.7628
 1205HK4     C7 1177   7.402   8.445   5.860  0.3527  0.9183 -0.2904
 1205HK4     O2 1178   7.387   8.503   5.967  0.1215 -0.4686  0.4299
 1205HK4     C4 1179   7.279   8.410   5.784  0.0680  0.7621  0.2445
 1205HK4     C3 1180   7.165   8.487   5.797 -0.0632  0.5930  0.0837
 1205HK4     H3 1181   7.170   8.580   5.856  0.0321  0.6327  0.0125
 1205HK4     C2 1182   7.057   8.467   5.712  0.3076  0.3048 -0.3204
 1205HK4     H2 1183   6.964   8.526   5.720  0.7313  0.7909  1.0207
 1205HK4     C1 1184   7.062   8.371   5.612  0.3104 -0.1786  0.1403
 1205HK4     H1 1185   6.976   8.359   5.544  1.0192 -1.4406 -0.5592
 1205HK4     C6 1186   7.177   8.292   5.592  0.3210 -0.1817  0.2081
 1205HK4     C5 1187   7.284   8.316   5.680 -0.0509  0.4862  0.4860
 1205HK4    C10 1188   7.413   8.246   5.655 -0.4278 -0.0131 -0.1050
 1205HK4     O1 1189   7.424   8.126   5.633 -0.0306 -0.0124  0.0686
 1205HK4    C16 1190   7.194   8.262   5.449  0.1328 -0.2077  0.1922
 1205HK4    C15 1191   7.165   8.349   5.341 -0.1299 -0.3873  0.1190
 1205HK4     H7 1192   7.148   8.456   5.354  2.4457 -0.0140  0.7210
 1205HK4    C20 1193   7.147   8.298   5.213  0.2613 -0.1115 -0.0458
 1205HK4     H9 1194   7.104   8.355   5.130  0.1400 -1.4066 -0.8773
 1205HK4    C19 1195   7.166   8.164   5.184  0.0401 -0.0910 -0.2880
 1205HK4    C18 1196   7.210   8.074   5.288  0.1661 -0.0351 -0.2938
 1205HK4    C17 1197   7.220   8.130   5.415 -1.0616 -0.3938 -0.0371
 1205HK4     H8 1198   7.227   8.060   5.499  2.5146  1.0779  0.9774
 1205HK4     N1 1199   7.209   7.941   5.241 -0.4216 -0.0946 -0.1180
 1205HK4    C21 1200   7.181   7.954   5.103  0.0411  0.4107 -0.1665
 1205HK4    C22 1201   7.146   8.088   5.061 -0.2632  0.2462 -0.4467
 1205HK4    C26 1202   7.133   8.117   4.926  0.1945  0.1558 -0.5108
 1205HK4    H13 1203   7.083   8.209   4.897 -1.5953 -0.1635  1.4186
 1205HK4    C25 1204   7.151   8.019   4.829  0.9636  0.0681 -0.2819
 1205HK4    H12 1205   7.105   8.038   4.732 -2.2441  1.5873  1.4764
 1205HK4    C24 1206   7.187   7.891   4.870 -0.7039 -0.3749 -0.1686
 1205HK4    H11 1207   7.241   7.825   4.801  1.5407  0.0390  1.1643
 1205HK4    C23 1208   7.203   7.859   5.005 -0.3073  0.2275 -0.0667
 1205HK4    H10 1209   7.255   7.764   5.020 -0.5303  0.0817 -0.2124
 1205HK4    C39 1210   7.250   7.833   5.320  0.0660  0.0457 -0.1752
 1205HK4    C41 1211   7.217   7.703   5.275 -0.5586 -0.1753  0.9278
 1205HK4    H21 1212   7.133   7.682   5.207 -0.7741  0.5988  0.9513
 1205HK4    C42 1213   7.310   7.601   5.288 -0.1170  0.1045 -0.0098
 1205HK4    H22 1214   7.298   7.500   5.245  0.1790 -0.4686  1.2382
 1205HK4    C43 1215   7.432   7.619   5.352 -0.0862 -0.3990  0.0702
 1205HK4    H23 1216   7.491   7.533   5.385 -0.9114 -1.4482 -1.1394
 1205HK4    C44 1217   7.467   7.745   5.400 -0.3289 -0.2624 -0.1109
 1205HK4    H24 1218   7.558   7.769   5.457 -0.4846 -1.1556  0.5302
 1205HK4    C45 1219   7.378   7.849   5.378  0.4425  0.2096 -1.0323
 1205HK4    H25 1220   7.411   7.948   5.414 -2.0536  0.4848  0.7053
 1206HK4    H28 1221   0.826   0.671   0.545 -1.6095  1.2897 -1.8026
 1206HK4    C48 1222   0.740   0.684   0.611 -0.3724 -0.1179  0.1045
 1206HK4    C47 1223   0.755   0.791   0.698  0.4682  0.1294 -0.3382
 1206HK4    H27 1224   0.815   0.873   0.657  1.9040 -0.9174 -0.3795
 1206HK4    C46 1225   0.654   0.822   0.789  0.6231 -0.0474 -0.1051
 1206HK4    H26 1226   0.669   0.902   0.863 -1.2307  0.5971 -0.4077
 1206HK4    C40 1227   0.531   0.753   0.792  0.4743  0.2419  0.5670
 1206HK4    C50 1228   0.522   0.639   0.709  0.1851  0.5769  0.1361
 1206HK4    H30 1229   0.427   0.586   0.692  0.2046  0.4924  0.2917
 1206HK4    C49 1230   0.626   0.605   0.624 -0.1910 -0.3887  0.0572
 1206HK4    H29 1231   0.648   0.503   0.587  0.1467 -0.3354  0.1057
 1206HK4     N2 1232   0.410   0.814   0.827  0.1527 -0.0114 -0.0902
 1206HK4    C30 1233   0.383   0.952   0.833 -0.3471 -0.1063 -0.1202
 1206HK4    C29 1234   0.449   1.063   0.780 -0.1271 -0.1423  0.0750
 1206HK4    H15 1235   0.542   1.047   0.726 -0.8443  0.4409 -1.3438
 1206HK4    C28 1236   0.401   1.191   0.804 -0.4582 -0.1455 -0.5504
 1206HK4    C27 1237   0.282   1.204   0.880 -0.0891  0.2183 -0.0348
 1206HK4    H14 1238   0.239   1.303   0.902 -1.5947 -0.0974 -1.4966
 1206HK4    C32 1239   0.205   1.096   0.921 -0.2937  0.4470  0.1838
 1206HK4    H16 1240   0.110   1.116   0.971 -0.2144 -0.8167  0.8606
 1206HK4    C31 1241   0.259   0.969   0.906 -0.0301  0.5479  0.2708
 1206HK4    C34 1242   0.212   0.837   0.942  0.3125  0.4232  0.2659
 1206HK4    C33 1243   0.309   0.741   0.892  0.3133  0.2976  0.5089
 1206HK4    C35 1244   0.294   0.610   0.937  0.7854  0.0220 -0.1426
 1206HK4    H17 1245   0.383   0.548   0.928  0.7308  0.3819 -4.3392
 1206HK4    C36 1246   0.198   0.572   1.030  0.0666  0.5257 -0.6677
 1206HK4    H18 1247   0.180   0.466   1.053  2.2294  0.2253 -0.2414
 1206HK4    C37 1248   0.115   0.666   1.089 -0.5419 -0.4882  0.0952
 1206HK4    H19 1249   0.049   0.637   1.171  1.3003 -3.4033  0.6092
 1206HK4    C38 1250   0.122   0.795   1.039  1.0488 -0.3634  0.6195
 1206HK4    H20 1251   0.067   0.876   1.088 -0.3052 -0.9576  0.1152
 1206HK4    C14 1252   0.462   1.309   0.743 -0.5202  0.1873  0.0216
 1206HK4     C9 1253   0.459   1.439   0.793 -0.2923 -0.0126  0.5547
 1206HK4     C8 1254   0.458   1.556   0.714 -0.0652 -0.3130  0.1100
 1206HK4    C11 1255   0.488   1.539   0.579 -0.0417  0.3226  0.0358
 1206HK4     H4 1256   0.492   1.620   0.504  1.5945  0.5074  0.2977
 1206HK4    C12 1257   0.497   1.411   0.527  0.1855  0.4097 -0.1441
 1206HK4     H5 1258   0.519   1.400   0.420 -1.1073  2.7284 -0.6704
 1206HK4    C13 1259   0.483   1.296   0.604 -0.6975  0.5764 -0.0426
 1206HK4     H6 1260   0.474   1.198   0.554  0.7718  0.3882  0.0279
 1206HK4     C7 1261   0.418   1.687   0.769  0.0627 -0.2389  0.0276
 1206HK4     O2 1262   0.377   1.776   0.694  0.0913 -0.3228 -0.0870
 1206HK4     C4 1263   0.401   1.696   0.915  0.0179 -0.0003  0.0074
 1206HK4     C3 1264   0.369   1.822   0.965 -0.1172  0.1247 -0.3915
 1206HK4     H3 1265   0.364   1.907   0.895  2.3950  0.9321  0.3515
 1206HK4     C2 1266   0.365   1.842   1.103  0.2323 -0.3955 -0.3078
 1206HK4     H2 1267   0.366   1.942   1.148 -0.3960 -0.4441 -0.1912
 1206HK4     C1 1268   0.382   1.731   1.185  0.5741 -0.0806  0.0478
 1206HK4     H1 1269   0.406   1.749   1.291  1.3988  1.5063 -0.3862
 1206HK4     C6 1270   0.400   1.599   1.138  0.0692 -0.1130 -0.0556
 1206HK4     C5 1271   0.419   1.585   1.000  0.2216 -0.0088 -0.0463
 1206HK4    C10 1272   0.473   1.460   0.940 -0.0740 -0.4443  0.5946
 1206HK4     O1 1273   0.575   1.412   0.989  0.3230  0.4224  0.6098
 1206HK4    C16 1274   0.342   1.498   1.227 -0.2336 -0.4816 -0.6745
 1206HK4    C15 1275   0.390   1.366   1.213  0.1416 -0.3685 -0.4507
 1206HK4     H7 1276   0.499   1.357   1.213  0.3581  1.8950 -1.6268
 1206HK4    C20 1277   0.324   1.251   1.257  0.0263 -0.0505  0.2191
 1206HK4     H9 1278   0.369   1.152   1.249  0.7633  0.2452  0.6025
 1206HK4    C19 1279   0.204   1.272   1.323 -0.2356 -0.0444 -0.2570
 1206HK4    C18 1280   0.160   1.407   1.352  0.0864  0.0263 -0.0922
 1206HK4    C17 1281   0.228   1.518   1.305  0.2566 -0.0670 -0.0646
 1206HK4     H8 1282   0.187   1.616   1.326 -2.1119 -1.1617  0.5394
 1206HK4     N1 1283   0.029   1.410   1.404  0.0762  0.2796 -0.1352
 1206HK4    C21 1284  11.233   1.276   1.397 -0.0076  0.2517  0.7794
 1206HK4    C22 1285   0.091   1.186   1.355 -0.0355  0.1350  0.9574
 1206HK4    C26 1286   0.071   1.050   1.340 -0.3253  0.2468  0.2995
 1206HK4    H13 1287   0.144   0.979   1.301 -2.2061 -0.6806 -1.6282
 1206HK4    C25 1288  11.197   0.990   1.372 -0.1742 -0.0323  0.3573
 1206HK4    H12 1289  11.195   0.887   1.338 -1.8166 -0.3765  1.4206
 1206HK4    C24 1290  11.098   1.075   1.419 -0.3699 -0.3659  0.5414
 1206HK4    H11 1291  11.002   1.033   1.453 -0.4467  0.4860  1.4080
 1206HK4    C23 1292  11.113   1.213   1.428  0.1538 -0.3959  0.0905
 1206HK4    H10 1293  11.045   1.261   1.497  1.1860 -0.5367  1.2286
 1206HK4    C39 1294  11.231   1.507   1.495 -0.0676 -0.0153  0.1071
 1206HK4    C41 1295  11.093   1.509   1.525 -0.0609  0.5106  0.1071
 1206HK4    H21 1296  11.024   1.515   1.440 -1.3063  0.3779  1.1030
 1206HK4    C42 1297  11.044   1.523   1.654  0.3177 -0.8115  0.4022
 1206HK4    H22 1298  10.939   1.503   1.681  0.6338 -1.8575  0.8719
 1206HK4    C43 1299  11.134   1.560   1.753  0.5416  0.1918 -0.1634
 1206HK4    H23 1300  11.091   1.604   1.844  0.2813 -0.5818  0.0924
 1206HK4    C44 1301   0.021   1.572   1.724  0.4229  0.4919 -0.5961
 1206HK4    H24 1302   0.089   1.594   1.807  0.6245 -0.6306 -0.4497
 1206HK4    C45 1303   0.072   1.540   1.599  0.5102  0.6898 -0.6102
 1206HK4    H25 1304   0.168   1.585   1.567  0.9880  0.6700  0.7521
 1207HK4    H28 1305   0.087   3.324   0.578 -1.6016 -0.1284  1.1137
 1207HK4    C48 1306   0.039   3.414   0.540 -0.6292 -0.2878 -0.5368
 1207HK4    C47 1307   0.095   3.476   0.429  0.3047  0.0424  0.1151
 1207HK4    H27 1308   0.173   3.424   0.373 -0.7854 -0.8533 -0.5909
 1207HK4    C46 1309   0.071   3.611   0.405  0.1370 -0.0062  0.0076
 1207HK4    H26 1310   0.101   3.651   0.307 -1.1150 -1.7703 -1.1400
 1207HK4    C40 1311  11.244   3.695   0.490 -0.3911  0.0466 -0.5052
 1207HK4    C50 1312  11.195   3.626   0.603 -0.4163  0.2764 -0.3744
 1207HK4    H30 1313  11.153   3.685   0.686 -0.6865  0.5439 -0.6967
 1207HK4    C49 1314  11.208   3.489   0.626  0.5707  0.4262 -0.0670
 1207HK4    H29 1315  11.172   3.439   0.717 -1.0257 -0.8188 -1.3818
 1207HK4     N2 1316  11.242   3.835   0.481 -0.2604  0.1067  0.3502
 1207HK4    C30 1317   0.094   3.913   0.421  0.2072 -0.2117  0.7120
 1207HK4    C29 1318   0.230   3.886   0.407  0.2079  0.2542 -0.2692
 1207HK4    H15 1319   0.268   3.804   0.468 -1.1985 -0.9033 -0.9385
 1207HK4    C28 1320   0.316   3.962   0.329  0.2415  0.2088 -0.2766
 1207HK4    C27 1321   0.258   4.076   0.268 -0.1710 -0.0743 -0.4194
 1207HK4    H14 1322   0.326   4.148   0.219 -1.5312  1.4639 -0.0833
 1207HK4    C32 1323   0.127   4.114   0.292 -0.0630 -0.3437  0.6251
 1207HK4    H16 1324   0.098   4.213   0.257 -0.3606 -0.4328  0.6174
 1207HK4    C31 1325   0.040   4.036   0.367 -0.1606 -0.5446  0.3078
 1207HK4    C34 1326  11.145   4.032   0.389 -0.2157 -0.0248  0.0472
 1207HK4    C33 1327  11.124   3.909   0.462 -0.2710  0.0336  0.1277
 1207HK4    C35 1328  11.008   3.895   0.539 -0.3642 -0.0750 -0.0304
 1207HK4    H17 1329  10.986   3.803   0.593  1.0583  0.3559  1.3381
 1207HK4    C36 1330  10.920   4.002   0.543  0.2769  0.4408  0.2950
 1207HK4    H18 1331  10.827   3.983   0.597  1.1372 -0.2353  1.5609
 1207HK4    C37 1332  10.931   4.116   0.464 -0.2965 -0.1660 -0.6606
 1207HK4    H19 1333  10.858   4.196   0.472  0.4596  0.4053  0.5457
 1207HK4    C38 1334  11.044   4.128   0.384 -0.2450 -0.0868 -0.5759
 1207HK4    H20 1335  11.048   4.211   0.313 -0.8727 -0.1699 -0.7136
 1207HK4    C14 1336   0.460   3.936   0.332  0.1985  0.0567  0.4697
 1207HK4     C9 1337   0.560   4.033   0.316  0.0028  0.0737 -0.6881
 1207HK4     C8 1338   0.681   4.012   0.247  0.4439 -0.1948  0.1629
 1207HK4    C11 1339   0.707   3.880   0.211 -0.5976 -0.3880  0.1107
 1207HK4     H4 1340   0.804   3.848   0.171 -0.7844 -0.9501  0.1108
 1207HK4    C12 1341   0.617   3.777   0.237  0.2006 -1.1237 -0.0395
 1207HK4     H5 1342   0.633   3.685   0.178 -0.2753 -1.1119 -0.1847
 1207HK4    C13 1343   0.493   3.804   0.292  0.5183  0.2784  0.0019
 1207HK4     H6 1344   0.443   3.725   0.349  1.6605 -0.4930 -0.0781
 1207HK4     C7 1345   0.771   4.123   0.208 -0.1161  0.0923 -0.3124
 1207HK4     O2 1346   0.892   4.103   0.196 -0.1886 -0.4279 -0.2012
 1207HK4     C4 1347   0.721   4.259   0.239  0.4991  0.1120  0.6068
 1207HK4     C3 1348   0.795   4.362   0.182 -0.7920  0.4532 -0.4850
 1207HK4     H3 1349   0.870   4.347   0.103  0.1101 -1.3651  0.6849
 1207HK4     C2 1350   0.785   4.490   0.237 -0.6136  0.2288  0.0715
 1207HK4     H2 1351   0.802   4.576   0.170 -0.0652 -1.1436 -1.5927
 1207HK4     C1 1352   0.712   4.509   0.354 -0.4720  0.1089  0.1811
 1207HK4     H1 1353   0.727   4.607   0.401 -2.2515 -0.2023  1.4735
 1207HK4     C6 1354   0.647   4.401   0.417 -0.8066 -0.0853 -0.4845
 1207HK4     C5 1355   0.640   4.278   0.352 -0.5582 -0.3168 -0.0683
 1207HK4    C10 1356   0.554   4.162   0.390  0.1533 -0.6406  0.5893
 1207HK4     O1 1357   0.479   4.170   0.487 -0.3269  0.2491  0.1505
 1207HK4    C16 1358   0.608   4.419   0.558  0.1837 -0.0795 -0.2122
 1207HK4    C15 1359   0.574   4.543   0.617  0.2873 -0.4011  0.5327
 1207HK4     H7 1360   0.510   4.602   0.549  0.9891  0.7325  0.8483
 1207HK4    C20 1361   0.603   4.592   0.743  0.0537  0.1237  0.3835
 1207HK4     H9 1362   0.556   4.686   0.773 -2.1980 -0.7161 -0.3954
 1207HK4    C19 1363   0.673   4.509   0.830  0.3200  0.1622  0.2048
 1207HK4    C18 1364   0.700   4.375   0.783  0.0174  0.2701 -0.2835
 1207HK4    C17 1365   0.665   4.336   0.654 -0.7679 -0.3596  0.1109
 1207HK4     H8 1366   0.698   4.235   0.633  0.3616 -0.0010  0.1087
 1207HK4     N1 1367   0.777   4.305   0.878 -0.1881 -0.0029 -0.3167
 1207HK4    C21 1368   0.817   4.399   0.976 -0.1060 -0.1251 -0.2316
 1207HK4    C22 1369   0.751   4.525   0.952  0.4397  0.2277  0.1196
 1207HK4    C26 1370   0.768   4.633   1.038  0.4623 -0.0345  0.4432
 1207HK4    H13 1371   0.714   4.726   1.019 -0.0083 -0.7025 -1.5852
 1207HK4    C25 1372   0.853   4.623   1.147  0.8316  0.0440  0.1636
 1207HK4    H12 1373   0.830   4.690   1.230  1.0758  1.1355 -0.6340
 1207HK4    C24 1374   0.925   4.505   1.163  0.3284 -0.2927 -0.0577
 1207HK4    H11 1375   0.981   4.500   1.258  0.7810  1.1674 -0.2280
 1207HK4    C23 1376   0.909   4.395   1.080  0.2236  0.0677 -0.5157
 1207HK4    H10 1377   0.981   4.314   1.083 -1.0502 -1.0555  0.5647
 1207HK4    C39 1378   0.758   4.167   0.894 -0.2525 -0.0101 -0.4639
 1207HK4    C41 1379   0.860   4.096   0.962 -0.6880  0.0891  0.2992
 1207HK4    H21 1380   0.964   4.111   0.929 -0.8585 -0.3210 -0.4250
 1207HK4    C42 1381   0.842   3.990   1.049 -0.5624 -0.3923 -0.2572
 1207HK4    H22 1382   0.932   3.940   1.090  0.1072  0.3159 -0.8540
 1207HK4    C43 1383   0.712   3.949   1.073 -0.5716 -0.4305 -0.3715
 1207HK4    H23 1384   0.690   3.878   1.153 -0.4853  0.4778  0.4669
 1207HK4    C44 1385   0.610   4.014   1.005 -0.0498 -0.2381 -0.9649
 1207HK4    H24 1386   0.512   3.967   1.023  0.2638 -1.1194 -1.5522
 1207HK4    C45 1387   0.627   4.119   0.915 -0.4407  0.7272  0.0715
 1207HK4    H25 1388   0.546   4.143   0.845 -0.3991  0.0197 -0.2212
 1208HK4    H28 1389   2.460  11.160   5.678 -3.1029  0.4799  0.6132
 1208HK4    C48 1390   2.430  11.235   5.605 -0.2578  0.4715 -0.6094
 1208HK4    C47 1391   2.308  11.231   5.538 -0.6944  0.4676  0.1796
 1208HK4    H27 1392   2.246  11.141   5.552  0.7447 -0.9565 -2.0261
 1208HK4    C46 1393   2.270   0.080   5.447 -0.4196  0.3894 -0.0229
 1208HK4    H26 1394   2.181   0.066   5.384 -0.5075 -0.5944  0.3235
 1208HK4    C40 1395   2.347   0.195   5.420  0.1646 -0.1227 -0.5530
 1208HK4    C50 1396   2.468   0.196   5.493  0.0823  0.3411 -0.4227
 1208HK4    H30 1397   2.522   0.292   5.490  0.2585  0.1867 -2.2667
 1208HK4    C49 1398   2.512   0.097   5.580 -0.1878  0.5457 -0.0478
 1208HK4    H29 1399   2.609   0.115   5.628 -0.6991  1.9371  0.4787
 1208HK4     N2 1400   2.298   0.309   5.355  0.1700  0.4987  0.5247
 1208HK4    C30 1401   2.160   0.326   5.334  0.1456 -0.2619  0.0624
 1208HK4    C29 1402   2.043   0.288   5.400 -0.0083 -0.0427 -0.0843
 1208HK4    H15 1403   2.052   0.245   5.499 -0.4072  1.1243  0.4689
 1208HK4    C28 1404   1.917   0.335   5.367  0.0569  0.0964 -0.1397
 1208HK4    C27 1405   1.912   0.423   5.257  0.2540 -0.3684 -0.5199
 1208HK4    H14 1406   1.819   0.476   5.235 -0.9573 -1.8190  0.9719
 1208HK4    C32 1407   2.022   0.464   5.182  0.1369  0.7034 -0.0992
 1208HK4    H16 1408   2.015   0.522   5.089  0.9841  0.1657 -0.4989
 1208HK4    C31 1409   2.146   0.422   5.226 -0.2685 -0.5978 -0.1858
 1208HK4    C34 1410   2.278   0.473   5.195 -0.4050  0.0127  0.2303
 1208HK4    C33 1411   2.373   0.398   5.275 -0.0623  0.3405  0.1370
 1208HK4    C35 1412   2.507   0.432   5.267 -0.0053  0.0236 -0.3099
 1208HK4    H17 1413   2.588   0.370   5.304 -0.5454 -0.4398  0.1013
 1208HK4    C36 1414   2.548   0.540   5.190  0.4411  0.6536  0.7957
 1208HK4    H18 1415   2.656   0.561   5.198  0.2036  1.5758  1.5422
 1208HK4    C37 1416   2.455   0.607   5.111  0.4359 -0.1756  0.0916
 1208HK4    H19 1417   2.485   0.698   5.058  0.5843 -0.2245  0.0898
 1208HK4    C38 1418   2.320   0.576   5.110  0.5372 -0.6167 -0.0718
 1208HK4    H20 1419   2.244   0.633   5.057 -1.8809 -2.2024  1.5472
 1208HK4    C14 1420   1.802   0.280   5.440 -0.2514  0.3334 -0.4464
 1208HK4     C9 1421   1.675   0.258   5.383 -0.3802 -0.6481  0.2111
 1208HK4     C8 1422   1.553   0.281   5.449 -0.3129 -0.0100  0.1220
 1208HK4    C11 1423   1.555   0.293   5.588 -0.0324 -0.6064  0.1692
 1208HK4     H4 1424   1.463   0.306   5.646  0.1057 -2.6049  0.8741
 1208HK4    C12 1425   1.679   0.307   5.648  0.0537  0.0450 -0.1561
 1208HK4     H5 1426   1.665   0.313   5.757 -0.4044  1.7804 -0.2929
 1208HK4    C13 1427   1.799   0.313   5.577 -0.2043  0.7083 -0.5347
 1208HK4     H6 1428   1.889   0.345   5.631 -0.9878  1.3268  0.4222
 1208HK4     C7 1429   1.425   0.289   5.375 -0.0614  0.2107 -0.2926
 1208HK4     O2 1430   1.331   0.348   5.428 -0.2508 -0.1669 -0.2013
 1208HK4     C4 1431   1.426   0.254   5.232 -0.4293  0.4828 -0.3635
 1208HK4     C3 1432   1.307   0.243   5.161 -0.3271  0.3683 -0.5165
 1208HK4     H3 1433   1.218   0.222   5.223  1.6727 -1.6674  1.7371
 1208HK4     C2 1434   1.297   0.225   5.024 -0.2136  0.0468 -0.4825
 1208HK4     H2 1435   1.198   0.226   4.976 -0.6617  0.0211  0.4349
 1208HK4     C1 1436   1.417   0.217   4.954  0.0474  1.0660 -0.1581
 1208HK4     H1 1437   1.420   0.181   4.850 -0.0413  0.1614  0.1464
 1208HK4     C6 1438   1.540   0.241   5.018  0.0841  0.3058  0.0628
 1208HK4     C5 1439   1.546   0.243   5.157 -0.2154 -0.2160  0.0843
 1208HK4    C10 1440   1.666   0.216   5.241 -0.3958 -0.6391  0.2097
 1208HK4     O1 1441   1.732   0.119   5.205  0.3988  0.0726 -0.2888
 1208HK4    C16 1442   1.644   0.297   4.929 -0.0006 -0.4145 -0.4985
 1208HK4    C15 1443   1.609   0.354   4.805 -0.3596 -0.1556 -0.2794
 1208HK4     H7 1444   1.503   0.382   4.793 -0.8299 -2.1427 -1.0287
 1208HK4    C20 1445   1.697   0.384   4.702  0.0980 -0.1274  0.1173
 1208HK4     H9 1446   1.653   0.386   4.602  0.3436  0.2055  0.0163
 1208HK4    C19 1447   1.831   0.360   4.727  0.1613 -0.2494 -0.3396
 1208HK4    C18 1448   1.875   0.310   4.856 -0.0303 -0.4255 -0.3411
 1208HK4    C17 1449   1.780   0.284   4.955 -0.0107  0.0670 -0.1893
 1208HK4     H8 1450   1.819   0.283   5.056 -0.2680 -0.8535 -0.0969
 1208HK4     N1 1451   2.013   0.287   4.856  0.0828  0.2057  0.1297
 1208HK4    C21 1452   2.058   0.328   4.728  0.1193  0.0006  0.0764
 1208HK4    C22 1453   1.947   0.357   4.640  0.3228  0.1254 -0.1389
 1208HK4    C26 1454   1.960   0.367   4.502 -0.1745  0.4527 -0.1650
 1208HK4    H13 1455   1.881   0.381   4.429 -0.1939  1.1669 -0.0142
 1208HK4    C25 1456   2.088   0.348   4.450 -0.2528  0.3645 -0.3256
 1208HK4    H12 1457   2.090   0.341   4.341 -1.0497 -2.0506 -0.2067
 1208HK4    C24 1458   2.196   0.336   4.536 -0.3092 -0.3779 -0.3584
 1208HK4    H11 1459   2.296   0.351   4.491 -0.8042  0.3990 -1.2214
 1208HK4    C23 1460   2.186   0.327   4.674 -0.0487 -0.1496 -0.3259
 1208HK4    H10 1461   2.275   0.325   4.738 -1.2439 -0.5783  1.3753
 1208HK4    C39 1462   2.080   0.202   4.945 -0.0796 -0.3225 -0.2430
 1208HK4    C41 1463   2.217   0.228   4.967 -0.3271  0.3650  0.5069
 1208HK4    H21 1464   2.261   0.328   4.952 -0.2721 -0.1248 -2.8248
 1208HK4    C42 1465   2.300   0.125   5.011 -0.2463 -0.0762 -0.6627
 1208HK4    H22 1466   2.408   0.142   5.016  0.0425 -2.0398  0.1879
 1208HK4    C43 1467   2.246   0.004   5.053  0.2006 -0.1610 -0.3395
 1208HK4    H23 1468   2.301  11.190   5.124 -0.0291  1.5938  1.4205
 1208HK4    C44 1469   2.111  11.226   5.034  0.1309  0.2762 -0.4501
 1208HK4    H24 1470   2.068  11.125   5.043  1.4562 -0.3301 -0.6420
 1208HK4    C45 1471   2.028   0.077   4.984 -0.5197 -0.1040 -0.1282
 1208HK4    H25 1472   1.919   0.070   4.995 -0.5463  1.8786  1.1402
 1209HK4    H28 1473   5.570   4.429   8.795  1.5822 -2.9156  1.6124
 1209HK4    C48 1474   5.651   4.501   8.803 -0.4072 -0.4002  0.0562
 1209HK4    C47 1475   5.762   4.482   8.884  0.0099 -0.2932 -0.4854
 1209HK4    H27 1476   5.759   4.409   8.966  0.6199 -0.9800 -1.0663
 1209HK4    C46 1477   5.876   4.562   8.879 -0.3499  0.2310 -0.3365
 1209HK4    H26 1478   5.947   4.557   8.963 -1.1526 -0.1389  0.3325
 1209HK4    C40 1479   5.885   4.675   8.795  0.2257  0.0665 -0.4993
 1209HK4    C50 1480   5.768   4.697   8.720  0.4016 -0.6163 -0.9764
 1209HK4    H30 1481   5.768   4.782   8.650  1.2222  0.1097 -0.1115
 1209HK4    C49 1482   5.659   4.611   8.718 -0.1996  0.0791  0.6926
 1209HK4    H29 1483   5.578   4.633   8.647  1.3308 -1.5937 -1.7044
 1209HK4     N2 1484   6.002   4.729   8.740  0.2118  0.2066 -0.3890
 1209HK4    C30 1485   6.130   4.670   8.732  0.0207 -0.2156 -0.3307
 1209HK4    C29 1486   6.174   4.538   8.719  0.1914 -0.1738 -0.1751
 1209HK4    H15 1487   6.109   4.469   8.772 -1.9680  1.2980 -0.8245
 1209HK4    C28 1488   6.302   4.496   8.686  0.2799  0.1256 -0.2238
 1209HK4    C27 1489   6.400   4.597   8.675  0.1248  0.2875 -0.1407
 1209HK4    H14 1490   6.508   4.576   8.670  0.7316  3.5439 -1.3546
 1209HK4    C32 1491   6.366   4.730   8.692  0.2282  0.2991 -0.0214
 1209HK4    H16 1492   6.448   4.801   8.702  0.9450 -0.8351  2.7192
 1209HK4    C31 1493   6.234   4.769   8.715  0.0200 -0.2149 -0.3230
 1209HK4    C34 1494   6.170   4.899   8.703  0.1541 -0.0937  0.2374
 1209HK4    C33 1495   6.030   4.865   8.717  0.0292  0.3024 -0.0595
 1209HK4    C35 1496   5.943   4.965   8.674 -0.2688  0.0872  0.0436
 1209HK4    H17 1497   5.841   4.954   8.710  0.0144 -0.4813  0.6898
 1209HK4    C36 1498   5.983   5.082   8.610  0.4147 -0.2437 -0.1427
 1209HK4    H18 1499   5.902   5.137   8.561  1.5151 -1.7007 -3.7184
 1209HK4    C37 1500   6.117   5.114   8.592  0.3809  0.0410  0.1116
 1209HK4    H19 1501   6.150   5.189   8.519 -0.1289  0.8984  0.7595
 1209HK4    C38 1502   6.204   5.020   8.644  0.1968 -0.4151 -0.4019
 1209HK4    H20 1503   6.311   5.041   8.642  0.3585 -1.2800 -0.9972
 1209HK4    C14 1504   6.327   4.354   8.656  0.3156  0.0915 -0.0316
 1209HK4     C9 1505   6.455   4.299   8.644  0.3303  0.1409 -0.0952
 1209HK4     C8 1506   6.475   4.209   8.538 -0.4550  0.3280 -0.4054
 1209HK4    C11 1507   6.374   4.170   8.451  0.3836  0.2670 -1.3639
 1209HK4     H4 1508   6.393   4.106   8.364 -1.2584 -1.0045 -0.8041
 1209HK4    C12 1509   6.242   4.208   8.472  0.4469 -0.3252  0.0854
 1209HK4     H5 1510   6.159   4.169   8.411  0.7520  0.3004 -0.7307
 1209HK4    C13 1511   6.226   4.301   8.574  0.5749  0.4038 -0.5578
 1209HK4     H6 1512   6.124   4.343   8.580  0.4016  0.2575 -2.2226
 1209HK4     C7 1513   6.604   4.136   8.531 -0.2007  0.7648 -0.2568
 1209HK4     O2 1514   6.624   4.057   8.439 -0.3326  0.2310  0.1684
 1209HK4     C4 1515   6.713   4.170   8.625 -0.1991 -0.4223  0.1800
 1209HK4     C3 1516   6.840   4.117   8.605  0.1904  0.1920  0.9713
 1209HK4     H3 1517   6.866   4.038   8.532  0.6487  0.0677  1.2687
 1209HK4     C2 1518   6.951   4.153   8.680  0.6868  0.1657  0.2556
 1209HK4     H2 1519   7.051   4.121   8.647  0.9344  0.1188  1.0319
 1209HK4     C1 1520   6.933   4.245   8.783 -0.0634  0.5972 -0.2551
 1209HK4     H1 1521   7.025   4.280   8.832  0.4943  2.1340 -2.3054
 1209HK4     C6 1522   6.808   4.305   8.808 -0.2085  0.0298  0.3978
 1209HK4     C5 1523   6.700   4.265   8.729  0.2958  0.3971 -0.4912
 1209HK4    C10 1524   6.564   4.322   8.744  0.3135  0.3404 -0.1241
 1209HK4     O1 1525   6.530   4.355   8.858 -0.1487  0.5376 -0.3165
 1209HK4    C16 1526   6.806   4.390   8.928  0.1880  0.4421  0.1184
 1209HK4    C15 1527   6.896   4.362   9.033 -0.0126 -0.7402 -0.0118
 1209HK4     H7 1528   6.892   4.261   9.076 -0.4333 -1.2201 -1.1710
 1209HK4    C20 1529   6.973   4.463   9.091 -0.2979 -0.4645 -0.1071
 1209HK4     H9 1530   7.047   4.429   9.164  2.0225 -1.3512 -2.7533
 1209HK4    C19 1531   6.966   4.593   9.042 -0.0029 -0.4309 -0.0672
 1209HK4    C18 1532   6.859   4.626   8.951  0.0447  0.0799  0.0651
 1209HK4    C17 1533   6.787   4.523   8.892 -0.6611  0.3906  0.3621
 1209HK4     H8 1534   6.721   4.552   8.810 -2.8650 -3.8349  0.5038
 1209HK4     N1 1535   6.864   4.760   8.906  0.4379 -0.0944 -0.4163
 1209HK4    C21 1536   6.971   4.815   8.979 -0.1439 -0.2629  0.5726
 1209HK4    C22 1537   7.046   4.714   9.051 -0.0537 -0.4224  0.2552
 1209HK4    C26 1538   7.172   4.737   9.104 -0.0278  0.1180 -0.0448
 1209HK4    H13 1539   7.223   4.647   9.138  1.0569  1.7430  2.8556
 1209HK4    C25 1540   7.231   4.862   9.089  0.1221  0.0198 -0.2627
 1209HK4    H12 1541   7.335   4.876   9.120  0.8883 -2.3309 -1.6202
 1209HK4    C24 1542   7.161   4.959   9.018 -0.0167 -0.0374 -0.2057
 1209HK4    H11 1543   7.206   5.059   9.005  0.0337 -0.0728 -0.2914
 1209HK4    C23 1544   7.034   4.938   8.967  0.0824 -0.4568 -0.2806
 1209HK4    H10 1545   6.969   5.024   8.949 -0.4790 -0.4834  1.5035
 1209HK4    C39 1546   6.750   4.838   8.882  0.5653  0.2321  0.0335
 1209HK4    C41 1547   6.635   4.832   8.963  0.2475 -0.2069 -0.4502
 1209HK4    H21 1548   6.624   4.754   9.041  0.7354 -1.0893 -1.2433
 1209HK4    C42 1549   6.526   4.916   8.945  0.4096  0.1179  0.0720
 1209HK4    H22 1550   6.454   4.926   9.027  2.2232  0.6784  1.6176
 1209HK4    C43 1551   6.542   5.015   8.849  0.1474  0.3279  0.2426
 1209HK4    H23 1552   6.476   5.102   8.841  0.9002  0.9082  0.3568
 1209HK4    C44 1553   6.650   5.026   8.762 -0.5061  0.0625 -0.6155
 1209HK4    H24 1554   6.659   5.094   8.676  3.2844  1.7617  1.0214
 1209HK4    C45 1555   6.753   4.934   8.779 -0.5829  0.0553 -0.1711
 1209HK4    H25 1556   6.849   4.940   8.726 -0.0476  0.2824  0.8063
 1210HK4    H28 1557   8.884  10.877   3.660 -0.0548 -0.7862  0.9320
 1210HK4    C48 1558   8.991  10.885   3.645 -0.3413  0.2712 -0.5362
 1210HK4    C47 1559   9.060  11.006   3.658 -0.3776  0.2293  0.0563
 1210HK4    H27 1560   9.013  11.093   3.707  0.0860  0.8286 -0.5579
 1210HK4    C46 1561   9.198  11.009   3.645 -0.3920 -0.6395 -0.3363
 1210HK4    H26 1562   9.250  11.098   3.683  0.0202 -1.3734  0.8397
 1210HK4    C40 1563   9.269  10.889   3.623  0.4055 -0.2490  0.0859
 1210HK4    C50 1564   9.200  10.766   3.616 -0.2856  0.1345  0.1488
 1210HK4    H30 1565   9.248  10.671   3.592  0.1088  0.7171 -1.4067
 1210HK4    C49 1566   9.061  10.767   3.621 -0.2808  0.1305  0.3388
 1210HK4    H29 1567   9.007  10.672   3.605 -0.2631 -0.4712  3.4379
 1210HK4     N2 1568   9.404  10.896   3.590  0.2758  0.2150 -0.3532
 1210HK4    C30 1569   9.507  10.803   3.616  0.0480  0.0558 -0.0095
 1210HK4    C29 1570   9.516  10.714   3.723  0.2252 -0.0399 -0.1048
 1210HK4    H15 1571   9.421  10.691   3.771 -0.1536  0.5750 -0.5522
 1210HK4    C28 1572   9.622  10.626   3.740  0.2257 -0.0716 -0.2675
 1210HK4    C27 1573   9.724  10.638   3.644  0.4480  1.0034  0.0839
 1210HK4    H14 1574   9.817  10.579   3.648 -0.4517 -0.2817  3.9383
 1210HK4    C32 1575   9.722  10.724   3.535  0.2696  0.1740 -0.5800
 1210HK4    H16 1576   9.803  10.735   3.463  2.4793 -0.4153  1.7231
 1210HK4    C31 1577   9.616  10.813   3.521  0.0602  0.0168  0.0023
 1210HK4    C34 1578   9.582  10.934   3.448  0.2810  0.0563 -0.0342
 1210HK4    C33 1579   9.450  10.980   3.486  0.1999  0.1551 -0.4328
 1210HK4    C35 1580   9.412  11.111   3.463 -0.2446  0.1519  0.2576
 1210HK4    H17 1581   9.307  11.132   3.440 -0.3960 -0.2332  0.6054
 1210HK4    C36 1582   9.507  11.195   3.406 -0.3570 -0.4255 -0.7826
 1210HK4    H18 1583   9.482   0.054   3.397 -0.4130 -0.2616  1.2849
 1210HK4    C37 1584   9.634  11.151   3.368 -0.4388 -1.0294 -0.3591
 1210HK4    H19 1585   9.709  11.219   3.330 -2.2395  0.9208 -0.5252
 1210HK4    C38 1586   9.671  11.018   3.383  0.5718 -0.7839 -0.7263
 1210HK4    H20 1587   9.773  10.988   3.355  0.9239 -0.1084 -0.1947
 1210HK4    C14 1588   9.633  10.553   3.867 -0.0322 -0.7893 -0.6589
 1210HK4     C9 1589   9.750  10.514   3.932 -0.6060 -0.0658  0.8553
 1210HK4     C8 1590   9.765  10.386   3.990  0.2926 -0.0171  0.7465
 1210HK4    C11 1591   9.653  10.303   3.987  0.2925  0.0031 -0.2739
 1210HK4     H4 1592   9.659  10.207   4.041  0.4027  0.6261  0.8435
 1210HK4    C12 1593   9.530  10.340   3.936  0.3081 -0.0250 -0.3329
 1210HK4     H5 1594   9.452  10.264   3.924  0.0295 -0.0164  1.3362
 1210HK4    C13 1595   9.521  10.469   3.883 -0.7417  0.4241  0.9245
 1210HK4     H6 1596   9.424  10.505   3.846 -0.5387  1.9675  1.8229
 1210HK4     C7 1597   9.904  10.356   4.030  0.4920  0.2526  0.2675
 1210HK4     O2 1598   9.923  10.254   4.096  0.2412  0.0159 -0.0203
 1210HK4     C4 1599  10.020  10.442   4.002  0.4538  0.1998 -0.0515
 1210HK4     C3 1600  10.147  10.388   4.015  0.3416 -0.0552  0.0012
 1210HK4     H3 1601  10.172  10.285   4.047  2.6608  0.4001 -0.2688
 1210HK4     C2 1602  10.258  10.464   3.980  0.0038 -0.0025 -0.9385
 1210HK4     H2 1603  10.361  10.428   3.987 -0.4907 -1.1579  0.6191
 1210HK4     C1 1604  10.231  10.585   3.917 -0.0843  0.5351  0.1124
 1210HK4     H1 1605  10.314  10.642   3.873  0.5267 -0.2337  0.2758
 1210HK4     C6 1606  10.103  10.639   3.890 -0.2502  0.2328  0.2754
 1210HK4     C5 1607   9.996  10.570   3.947 -0.1909  0.3082  0.4739
 1210HK4    C10 1608   9.856  10.619   3.931 -0.3212 -0.3558 -0.5251
 1210HK4     O1 1609   9.830  10.727   3.985  0.4182 -0.4072 -0.0573
 1210HK4    C16 1610  10.096  10.724   3.770  0.3225  0.4125  0.3681
 1210HK4    C15 1611  10.190  10.708   3.666  0.1902  0.3177  0.2655
 1210HK4     H7 1612  10.266  10.630   3.674 -0.8632 -0.6339  1.2159
 1210HK4    C20 1613  10.186  10.796   3.558 -0.1676 -0.1260 -0.0858
 1210HK4     H9 1614  10.254  10.779   3.474  0.4024 -0.5838  0.4627
 1210HK4    C19 1615  10.102  10.907   3.551 -0.1720 -0.1467 -0.4386
 1210HK4    C18 1616  10.015  10.929   3.665  0.2995  0.0662 -0.1218
 1210HK4    C17 1617  10.013  10.836   3.768  0.1825  0.3043  0.0897
 1210HK4     H8 1618   9.977  10.882   3.859 -1.9794 -1.0850 -0.0317
 1210HK4     N1 1619   9.947  11.053   3.662 -0.1209 -0.1629 -0.0440
 1210HK4    C21 1620  10.002  11.115   3.548 -0.3397  0.1128  0.0006
 1210HK4    C22 1621  10.103  11.034   3.482 -0.3769  0.0759 -0.0174
 1210HK4    C26 1622  10.190  11.089   3.388 -0.2551 -0.3333 -0.1438
 1210HK4    H13 1623  10.271  11.030   3.345  0.3451 -0.1619  0.7326
 1210HK4    C25 1624  10.187  11.222   3.350  0.2808 -0.1453  0.4597
 1210HK4    H12 1625  10.256   0.031   3.288  2.5049 -0.4346  2.5977
 1210HK4    C24 1626  10.075   0.045   3.394  0.1641 -0.3800  0.5350
 1210HK4    H11 1627  10.049   0.141   3.347  1.9462 -0.1612 -0.0493
 1210HK4    C23 1628   9.991  11.241   3.492 -0.0239  0.5274  0.8578
 1210HK4    H10 1629   9.909   0.058   3.522 -0.2308  1.8927 -2.4395
 1210HK4    C39 1630   9.836  11.092   3.739 -0.3553 -0.2771 -0.3259
 1210HK4    C41 1631   9.802  11.228   3.747  0.4474 -0.0874 -0.0785
 1210HK4    H21 1632   9.881   0.056   3.738  1.5925 -1.5306 -2.6796
 1210HK4    C42 1633   9.677   0.026   3.787  0.1452 -1.0347  0.0680
 1210HK4    H22 1634   9.664   0.133   3.808 -1.2026 -0.8395 -1.6584
 1210HK4    C43 1635   9.577  11.185   3.825 -0.3939 -0.4157  0.1108
 1210HK4    H23 1636   9.479  11.208   3.866  0.3876 -0.4000  2.0322
 1210HK4    C44 1637   9.613  11.051   3.827 -0.5026 -0.4438  0.1325
 1210HK4    H24 1638   9.544  10.973   3.864  0.4945 -2.5214 -2.2298
 1210HK4    C45 1639   9.734  11.003   3.779 -0.2233 -0.0764  0.4636
 1210HK4    H25 1640   9.751  10.895   3.764  0.2859 -0.0083  0.5225
 1211HK4    H28 1641   5.295   4.392   7.024  0.4401 -0.8252 -0.0254
 1211HK4    C48 1642   5.359   4.305   7.007  0.5789 -0.7792  0.2519
 1211HK4    C47 1643   5.358   4.205   7.103 -0.2544 -0.6384  0.3982
 1211HK4    H27 1644   5.292   4.211   7.190 -2.0751 -2.0913 -0.8451
 1211HK4    C46 1645   5.411   4.078   7.082 -0.2437 -0.6244  0.3509
 1211HK4    H26 1646   5.396   3.997   7.154  0.4418 -1.5220 -0.4946
 1211HK4    C40 1647   5.471   4.058   6.956  0.2978  0.1188  0.4800
 1211HK4    C50 1648   5.478   4.163   6.862  0.1507 -0.4265 -0.1520
 1211HK4    H30 1649   5.561   4.170   6.790  0.6724  1.7675  0.6000
 1211HK4    C49 1650   5.420   4.287   6.883 -0.3134 -0.6330 -0.2134
 1211HK4    H29 1651   5.404   4.360   6.802  0.1395  0.3971  0.6108
 1211HK4     N2 1652   5.556   3.950   6.927 -0.2369 -0.1939  0.0557
 1211HK4    C30 1653   5.630   3.875   7.020 -0.6875 -0.3828  0.2638
 1211HK4    C29 1654   5.668   3.905   7.151  0.2086 -0.2141 -0.0286
 1211HK4    H15 1655   5.622   3.988   7.205  1.3582  0.8446 -0.6608
 1211HK4    C28 1656   5.754   3.822   7.221  0.4371  0.1692  0.1420
 1211HK4    C27 1657   5.805   3.708   7.156 -0.5580 -0.3281  0.2248
 1211HK4    H14 1658   5.880   3.649   7.211 -0.5235 -0.5090 -0.0128
 1211HK4    C32 1659   5.775   3.677   7.024  0.3792 -0.1287 -0.0394
 1211HK4    H16 1660   5.821   3.592   6.972  0.4701  0.3819 -0.8156
 1211HK4    C31 1661   5.683   3.756   6.956  0.2388  0.0025  0.3047
 1211HK4    C34 1662   5.641   3.764   6.818 -0.1275 -0.2564  0.4030
 1211HK4    C33 1663   5.563   3.885   6.802  0.0686 -0.1714  0.0608
 1211HK4    C35 1664   5.493   3.907   6.684  0.4432  0.3161 -0.0682
 1211HK4    H17 1665   5.425   3.991   6.668  0.6212  0.0983 -2.1321
 1211HK4    C36 1666   5.492   3.806   6.589 -0.5841 -0.0819  0.3712
 1211HK4    H18 1667   5.415   3.801   6.511 -0.0395  1.6732 -0.2964
 1211HK4    C37 1668   5.563   3.688   6.608 -0.2438  0.0691  0.0378
 1211HK4    H19 1669   5.571   3.610   6.533 -0.9986 -0.1109  0.1383
 1211HK4    C38 1670   5.643   3.665   6.720 -0.2175  0.1128  0.0282
 1211HK4    H20 1671   5.667   3.560   6.739  0.0957  0.1392 -0.2305
 1211HK4    C14 1672   5.822   3.885   7.336  0.1551  0.1541  0.3182
 1211HK4     C9 1673   5.960   3.871   7.358  0.1158 -0.3064  0.2812
 1211HK4     C8 1674   6.015   3.878   7.487  0.1428 -0.2936  0.2711
 1211HK4    C11 1675   5.928   3.919   7.588 -0.0544 -0.2838  0.0991
 1211HK4     H4 1676   5.971   3.955   7.683 -1.5645  1.0823  0.2685
 1211HK4    C12 1677   5.793   3.945   7.569 -0.2161 -1.1953 -0.0044
 1211HK4     H5 1678   5.734   3.984   7.653 -0.3836 -0.0599 -0.6328
 1211HK4    C13 1679   5.739   3.925   7.442 -0.4164  0.2188 -0.1506
 1211HK4     H6 1680   5.631   3.939   7.427 -0.7567  0.7279  2.5538
 1211HK4     C7 1681   6.153   3.834   7.514  0.2380 -0.1153  0.0733
 1211HK4     O2 1682   6.193   3.839   7.630  0.2881  0.1862  0.0438
 1211HK4     C4 1683   6.235   3.791   7.398 -0.3410 -0.0705 -0.3550
 1211HK4     C3 1684   6.363   3.741   7.421 -0.4625 -0.0535  0.3846
 1211HK4     H3 1685   6.393   3.715   7.524 -0.9731 -1.3600  0.2114
 1211HK4     C2 1686   6.454   3.716   7.320 -0.4362 -0.7096  0.5664
 1211HK4     H2 1687   6.561   3.702   7.344  0.3891 -0.6439 -2.8082
 1211HK4     C1 1688   6.403   3.714   7.190  0.1065 -0.1276  0.3397
 1211HK4     H1 1689   6.473   3.679   7.114  0.0383 -1.3286  0.8196
 1211HK4     C6 1690   6.268   3.747   7.163  0.0310 -0.6629  0.0677
 1211HK4     C5 1691   6.188   3.797   7.266 -0.0368  0.3019 -0.4502
 1211HK4    C10 1692   6.050   3.849   7.241 -0.3282 -0.2834 -0.0704
 1211HK4     O1 1693   6.040   3.935   7.155  0.5199  0.0479  0.1542
 1211HK4    C16 1694   6.212   3.675   7.048  0.1341 -0.0224 -0.3869
 1211HK4    C15 1695   6.242   3.542   7.013 -0.3245 -0.3337  0.3714
 1211HK4     H7 1696   6.294   3.480   7.088 -0.5701 -0.0071  0.8116
 1211HK4    C20 1697   6.207   3.488   6.889 -0.1687 -0.1393  0.2428
 1211HK4     H9 1698   6.246   3.388   6.868 -0.4574  0.0170 -1.0888
 1211HK4    C19 1699   6.135   3.562   6.796  0.3125 -0.3128 -0.2676
 1211HK4    C18 1700   6.130   3.705   6.818 -0.0700 -0.4009  0.2284
 1211HK4    C17 1701   6.158   3.752   6.946 -0.0129  0.3276 -0.0486
 1211HK4     H8 1702   6.160   3.860   6.954  1.1466  0.3807 -0.8782
 1211HK4     N1 1703   6.077   3.774   6.707 -0.0284  0.0736  0.5053
 1211HK4    C21 1704   6.041   3.675   6.614 -0.4935  0.0678  0.6881
 1211HK4    C22 1705   6.077   3.543   6.664  0.2075 -0.1020 -0.2499
 1211HK4    C26 1706   6.022   3.426   6.613  0.1278  0.0111 -0.4257
 1211HK4    H13 1707   6.062   3.330   6.646 -0.6165  0.0621  0.6811
 1211HK4    C25 1708   5.925   3.438   6.514  0.0856  0.0376 -0.3809
 1211HK4    H12 1709   5.875   3.349   6.476  1.5556 -1.4383  1.0577
 1211HK4    C24 1710   5.882   3.562   6.468 -0.3771  0.2021  0.4856
 1211HK4    H11 1711   5.804   3.580   6.392 -2.8853 -4.3034  1.7793
 1211HK4    C23 1712   5.943   3.677   6.515  0.3299  0.0810 -0.1339
 1211HK4    H10 1713   5.922   3.773   6.469  1.0822 -0.7965 -2.3973
 1211HK4    C39 1714   6.019   3.902   6.714  0.2947  0.2416  0.0836
 1211HK4    C41 1715   6.011   3.988   6.602 -0.2842  0.2570  0.1382
 1211HK4    H21 1716   6.052   3.960   6.504  0.3300  1.9644 -0.1128
 1211HK4    C42 1717   5.936   4.105   6.610  0.2609  0.6264 -0.1358
 1211HK4    H22 1718   5.914   4.162   6.518 -1.9202  3.1827  1.9089
 1211HK4    C43 1719   5.878   4.146   6.729 -0.2193  0.0166 -0.1541
 1211HK4    H23 1720   5.849   4.251   6.741 -0.8975 -0.3368  1.3732
 1211HK4    C44 1721   5.887   4.065   6.841 -0.1280  0.1748 -0.0466
 1211HK4    H24 1722   5.871   4.108   6.941  2.2188 -0.7831  0.7703
 1211HK4    C45 1723   5.948   3.940   6.829  0.3640  0.4020  0.0723
 1211HK4    H25 1724   5.943   3.874   6.916  1.6187  0.6797  0.3595
 1212HK4    H28 1725   6.116   1.473   6.305 -3.6026 -1.8873 -3.7861
 1212HK4    C48 1726   6.169   1.379   6.293  0.1661 -0.4190  0.3014
 1212HK4    C47 1727   6.190   1.311   6.413  0.4264  0.2262  0.6279
 1212HK4    H27 1728   6.164   1.361   6.508  1.0836 -0.4725  1.1724
 1212HK4    C46 1729   6.254   1.188   6.412 -0.9497 -0.5107  0.2950
 1212HK4    H26 1730   6.285   1.143   6.508  1.4467  0.7514  0.1654
 1212HK4    C40 1731   6.293   1.126   6.292  0.3993  0.3256  0.2863
 1212HK4    C50 1732   6.274   1.201   6.174  0.3099 -0.0258  0.0762
 1212HK4    H30 1733   6.309   1.167   6.076  1.7552  1.4989  0.0549
 1212HK4    C49 1734   6.217   1.327   6.173  0.1273 -0.1072  0.1511
 1212HK4    H29 1735   6.233   1.391   6.085  1.8721  0.6660  1.0093
 1212HK4     N2 1736   6.378   1.014   6.285 -0.2237 -0.1673  0.5409
 1212HK4    C30 1737   6.480   0.997   6.381  0.4700  0.1707 -0.1304
 1212HK4    C29 1738   6.528   1.081   6.481  0.2525 -0.2116  0.2994
 1212HK4    H15 1739   6.490   1.183   6.486  1.9125  0.5662 -1.8809
 1212HK4    C28 1740   6.622   1.042   6.576  0.0827 -0.5070  0.3480
 1212HK4    C27 1741   6.673   0.911   6.563  0.7984 -0.2445  0.4759
 1212HK4    H14 1742   6.754   0.879   6.629 -0.5941  0.3692  2.5525
 1212HK4    C32 1743   6.632   0.832   6.456  0.0435  0.4303  0.2581
 1212HK4    H16 1744   6.664   0.728   6.459  1.8188  0.9728  1.1989
 1212HK4    C31 1745   6.541   0.867   6.357 -0.0957 -0.1573  0.1761
 1212HK4    C34 1746   6.479   0.810   6.239 -0.4103 -0.0904  0.3099
 1212HK4    C33 1747   6.375   0.903   6.198 -0.2566  0.0568  0.2542
 1212HK4    C35 1748   6.280   0.856   6.109  0.2055 -0.0001 -0.2108
 1212HK4    H17 1749   6.198   0.922   6.082  1.2971  0.7686 -1.7126
 1212HK4    C36 1750   6.291   0.730   6.051  0.1558 -0.1926  0.1990
 1212HK4    H18 1751   6.218   0.703   5.974 -2.6272 -1.0469  3.0195
 1212HK4    C37 1752   6.394   0.643   6.088  0.1857 -0.3197 -0.1863
 1212HK4    H19 1753   6.371   0.539   6.068 -0.1342 -0.6435  1.7924
 1212HK4    C38 1754   6.489   0.684   6.181  0.2923  0.3756 -0.5957
 1212HK4    H20 1755   6.571   0.620   6.213 -0.5245 -1.0725 -1.3387
 1212HK4    C14 1756   6.690   1.145   6.656 -0.1827 -0.2222  0.2074
 1212HK4     C9 1757   6.820   1.136   6.707 -0.1500 -0.4806  0.0857
 1212HK4     C8 1758   6.857   1.199   6.828 -0.2452  0.0180 -0.1429
 1212HK4    C11 1759   6.762   1.279   6.889  0.5103  0.7254  0.1076
 1212HK4     H4 1760   6.786   1.343   6.976  0.4849 -1.0154  1.4298
 1212HK4    C12 1761   6.635   1.295   6.835  0.3927 -0.2345  0.0977
 1212HK4     H5 1762   6.553   1.351   6.882 -1.3239 -1.9022 -0.8392
 1212HK4    C13 1763   6.597   1.230   6.718  0.0068  0.1094  0.0342
 1212HK4     H6 1764   6.502   1.249   6.665  0.0423 -3.4466 -1.4263
 1212HK4     C7 1765   6.995   1.185   6.881 -0.1241 -0.2925 -0.5350
 1212HK4     O2 1766   7.012   1.223   6.997 -0.0907  0.2534 -0.7176
 1212HK4     C4 1767   7.097   1.107   6.807  0.0166 -0.4617 -0.1656
 1212HK4     C3 1768   7.224   1.106   6.862  0.1331  0.6163 -0.3903
 1212HK4     H3 1769   7.241   1.148   6.962  1.4657  0.4110 -0.5139
 1212HK4     C2 1770   7.324   1.026   6.807 -0.0515  0.1276 -0.0160
 1212HK4     H2 1771   7.431   1.026   6.835  0.9677  1.6603 -3.6034
 1212HK4     C1 1772   7.283   0.938   6.708  0.2081 -0.2496  0.2089
 1212HK4     H1 1773   7.368   0.911   6.643  1.0933  0.2031  1.1585
 1212HK4     C6 1774   7.152   0.931   6.656  0.4332  0.4350 -0.4592
 1212HK4     C5 1775   7.062   1.031   6.694 -0.3381 -0.3862 -0.1083
 1212HK4    C10 1776   6.927   1.062   6.636 -0.4121 -0.6902 -0.0945
 1212HK4     O1 1777   6.934   1.082   6.515  0.6232  0.3797  0.1292
 1212HK4    C16 1778   7.120   0.799   6.600 -0.3425  0.1169  0.7238
 1212HK4    C15 1779   7.001   0.776   6.529  0.1953  0.2523 -0.2251
 1212HK4     H7 1780   6.958   0.845   6.454  2.3367  1.3617 -0.4474
 1212HK4    C20 1781   6.955   0.646   6.516  0.4710  0.1924 -0.5989
 1212HK4     H9 1782   6.863   0.630   6.459  0.6210 -4.7120  0.3221
 1212HK4    C19 1783   7.019   0.536   6.572 -0.3583  0.1084  0.1866
 1212HK4    C18 1784   7.151   0.555   6.629 -0.0029 -0.3274 -0.4917
 1212HK4    C17 1785   7.191   0.688   6.643 -0.1277 -0.2742 -0.6280
 1212HK4     H8 1786   7.294   0.699   6.678 -0.9572  2.5309  1.0186
 1212HK4     N1 1787   7.212   0.432   6.661  0.1397 -0.1464 -0.0745
 1212HK4    C21 1788   7.113   0.337   6.628 -0.0973 -0.0306  0.2965
 1212HK4    C22 1789   6.991   0.394   6.574  0.0037  0.0379  0.1419
 1212HK4    C26 1790   6.875   0.318   6.575  0.3581 -0.5153 -0.0951
 1212HK4    H13 1791   6.783   0.356   6.530 -0.3046 -1.1478  0.7059
 1212HK4    C25 1792   6.873   0.190   6.628  0.7005 -0.7177 -0.5664
 1212HK4    H12 1793   6.782   0.130   6.631  1.2170 -1.5867 -1.8703
 1212HK4    C24 1794   6.987   0.136   6.686  0.3724 -0.1258  0.6595
 1212HK4    H11 1795   6.976   0.043   6.744  2.0782 -0.6249  0.2417
 1212HK4    C23 1796   7.106   0.208   6.680  0.2534  0.0620  0.5797
 1212HK4    H10 1797   7.196   0.157   6.714 -1.8441 -2.6733  2.2596
 1212HK4    C39 1798   7.351   0.416   6.669  0.1584  0.2173  0.3647
 1212HK4    C41 1799   7.402   0.309   6.745  0.2682 -0.1802 -0.2679
 1212HK4    H21 1800   7.332   0.265   6.818  0.4859  1.1248  0.7367
 1212HK4    C42 1801   7.537   0.280   6.755  0.2919  0.1741  0.4505
 1212HK4    H22 1802   7.579   0.185   6.792 -1.7654 -0.9780 -0.1015
 1212HK4    C43 1803   7.624   0.371   6.697  0.3691 -0.0858  0.1577
 1212HK4    H23 1804   7.732   0.361   6.711  0.1824  0.2912  2.1582
 1212HK4    C44 1805   7.580   0.483   6.628  0.2496 -0.1607  0.1127
 1212HK4    H24 1806   7.650   0.539   6.564 -2.5269  2.1211 -1.0269
 1212HK4    C45 1807   7.444   0.508   6.616  0.2654 -0.2300 -0.2157
 1212HK4    H25 1808   7.416   0.581   6.539 -0.0852  0.4663  0.5704
 1213HK4    H28 1809   3.361   7.726   0.946  0.7909 -1.7123  0.2559
 1213HK4    C48 1810   3.410   7.760   1.037  0.6592 -0.3848 -0.1674
 1213HK4    C47 1811   3.529   7.703   1.081  0.4730 -0.8889 -0.3173
 1213HK4    H27 1812   3.578   7.625   1.021 -0.4993 -0.0302 -2.2866
 1213HK4    C46 1813   3.598   7.759   1.188  0.2592 -0.3971 -0.4337
 1213HK4    H26 1814   3.702   7.724   1.201  0.9060  2.2024  1.8122
 1213HK4    C40 1815   3.561   7.875   1.259 -0.2110 -0.4947 -0.5158
 1213HK4    C50 1816   3.445   7.935   1.207 -0.4408 -0.0366  0.5176
 1213HK4    H30 1817   3.403   8.023   1.258 -0.0392  1.1468 -1.1259
 1213HK4    C49 1818   3.372   7.876   1.105  0.3770 -0.7910  0.3667
 1213HK4    H29 1819   3.269   7.911   1.087  1.2184  0.6908 -1.7372
 1213HK4     N2 1820   3.576   7.889   1.397 -0.8288  0.0461 -0.5029
 1213HK4    C30 1821   3.578   7.777   1.483 -0.3202  0.2070 -0.3050
 1213HK4    C29 1822   3.548   7.642   1.470  0.0378  0.1054 -0.1079
 1213HK4    H15 1823   3.498   7.604   1.381 -0.8909 -0.5217  0.6689
 1213HK4    C28 1824   3.566   7.546   1.568 -0.2910  0.1080 -0.0436
 1213HK4    C27 1825   3.624   7.582   1.691  0.0931 -0.0997 -0.1616
 1213HK4    H14 1826   3.635   7.514   1.777  1.6099  0.3331 -0.0043
 1213HK4    C32 1827   3.651   7.718   1.708 -0.1448 -0.0591 -0.0971
 1213HK4    H16 1828   3.675   7.738   1.813  0.2211 -4.0669  0.6695
 1213HK4    C31 1829   3.630   7.816   1.613 -0.4512 -0.1670 -0.1400
 1213HK4    C34 1830   3.660   7.958   1.600 -0.2195 -0.1905  0.1243
 1213HK4    C33 1831   3.622   8.002   1.468 -0.2600 -0.5119  0.0278
 1213HK4    C35 1832   3.631   8.138   1.438  0.0541 -0.5034  0.1636
 1213HK4    H17 1833   3.586   8.175   1.346 -0.7663  1.0484  1.1707
 1213HK4    C36 1834   3.672   8.229   1.534 -0.3492 -0.2681  0.1165
 1213HK4    H18 1835   3.694   8.332   1.501  0.3756 -1.3627 -2.9942
 1213HK4    C37 1836   3.715   8.188   1.660  0.1765 -0.1389 -0.0195
 1213HK4    H19 1837   3.733   8.258   1.741 -0.8182 -0.6316  0.6297
 1213HK4    C38 1838   3.712   8.052   1.689 -1.4694  0.0306  0.6301
 1213HK4    H20 1839   3.753   8.005   1.778 -1.3006  2.0751  1.6445
 1213HK4    C14 1840   3.496   7.418   1.547 -0.1064  0.0375 -0.2351
 1213HK4     C9 1841   3.439   7.347   1.654  0.2808  0.3768  0.2009
 1213HK4     C8 1842   3.473   7.211   1.667 -0.1709  0.2022 -0.3751
 1213HK4    C11 1843   3.536   7.143   1.563  0.5689  0.4361 -0.0870
 1213HK4     H4 1844   3.550   7.034   1.575  0.0810  0.3255 -0.5125
 1213HK4    C12 1845   3.567   7.205   1.443 -0.3288 -0.2313 -0.6706
 1213HK4     H5 1846   3.603   7.154   1.352 -0.4612 -0.1883 -0.7469
 1213HK4    C13 1847   3.555   7.343   1.444 -0.0816 -0.2101 -0.0431
 1213HK4     H6 1848   3.581   7.398   1.352  0.8197  0.1378  0.4145
 1213HK4     C7 1849   3.423   7.130   1.781  0.2302  0.2504 -0.1642
 1213HK4     O2 1850   3.490   7.035   1.821 -0.4247 -0.4543 -0.7409
 1213HK4     C4 1851   3.320   7.188   1.871  0.0260  0.1205 -0.3156
 1213HK4     C3 1852   3.274   7.117   1.981  0.7114 -0.0162 -0.1171
 1213HK4     H3 1853   3.311   7.017   2.007 -1.0508 -0.1262  2.1027
 1213HK4     C2 1854   3.173   7.169   2.061  0.4995 -0.1980 -0.2670
 1213HK4     H2 1855   3.134   7.117   2.150  0.6374  2.2846  1.2774
 1213HK4     C1 1856   3.103   7.280   2.017  0.9456  0.3574  0.4105
 1213HK4     H1 1857   3.033   7.334   2.082 -2.9469 -1.1711 -2.3322
 1213HK4     C6 1858   3.135   7.342   1.894 -0.1240 -0.0386 -0.0782
 1213HK4     C5 1859   3.252   7.304   1.828  0.1403  0.3605  0.1565
 1213HK4    C10 1860   3.320   7.393   1.730  0.1686  0.2680  0.0921
 1213HK4     O1 1861   3.325   7.514   1.755 -0.4687  0.2256  0.4275
 1213HK4    C16 1862   3.042   7.443   1.840  0.7136  0.6121 -0.3104
 1213HK4    C15 1863   2.948   7.505   1.925  0.1041 -0.4689 -0.1826
 1213HK4     H7 1864   2.966   7.519   2.032  0.3151  1.4546 -0.4451
 1213HK4    C20 1865   2.852   7.594   1.876  0.2467 -0.1066  0.2001
 1213HK4     H9 1866   2.767   7.624   1.937  0.0338  0.8353 -0.5642
 1213HK4    C19 1867   2.854   7.628   1.742  0.1348  0.3859  0.3225
 1213HK4    C18 1868   2.935   7.551   1.649  0.1756  0.6413  0.1461
 1213HK4    C17 1869   3.024   7.460   1.704 -0.6684 -0.4598 -0.2763
 1213HK4     H8 1870   3.049   7.377   1.637  0.8608 -0.6280  0.4900
 1213HK4     N1 1871   2.898   7.574   1.515  0.3136  0.0004 -0.0028
 1213HK4    C21 1872   2.813   7.685   1.526  0.3229  0.0028  0.0465
 1213HK4    C22 1873   2.780   7.723   1.662 -0.1126 -0.0981 -0.0302
 1213HK4    C26 1874   2.684   7.819   1.694 -0.3844 -0.2883 -0.2684
 1213HK4    H13 1875   2.640   7.822   1.794 -1.8929 -0.7063 -0.9078
 1213HK4    C25 1876   2.611   7.887   1.598  0.0904  0.5679 -0.0274
 1213HK4    H12 1877   2.533   7.958   1.624 -0.4972  0.9714 -2.6882
 1213HK4    C24 1878   2.642   7.855   1.466  0.3532 -0.1115  0.1975
 1213HK4    H11 1879   2.574   7.887   1.386  0.7704 -0.7917 -0.4265
 1213HK4    C23 1880   2.743   7.765   1.436  0.7571  0.3900  0.0538
 1213HK4    H10 1881   2.777   7.760   1.332 -2.4474  1.1009 -1.0769
 1213HK4    C39 1882   2.974   7.537   1.403 -0.3701 -0.0364 -0.4557
 1213HK4    C41 1883   2.913   7.533   1.276 -0.3877  0.5260 -0.4646
 1213HK4    H21 1884   2.805   7.515   1.271  0.0052 -3.1569  2.6491
 1213HK4    C42 1885   2.996   7.516   1.165  0.2328  0.6083 -0.0185
 1213HK4    H22 1886   2.957   7.528   1.063 -1.1306 -2.8278  0.0194
 1213HK4    C43 1887   3.134   7.520   1.179  0.2252  0.3910  0.1140
 1213HK4    H23 1888   3.196   7.500   1.092 -0.0024  0.2363 -0.0125
 1213HK4    C44 1889   3.194   7.529   1.304  0.4386 -0.1656  0.0503
 1213HK4    H24 1890   3.302   7.549   1.312  0.3502  0.0516  0.7575
 1213HK4    C45 1891   3.114   7.539   1.417 -0.3558 -1.2073 -0.4117
 1213HK4    H25 1892   3.150   7.582   1.512 -2.0688 -2.4026  0.8028
 1214HK4    H28 1893   4.167   1.417   5.100  1.5153  3.2027  1.3663
 1214HK4    C48 1894   4.176   1.372   5.199 -0.2656 -0.1572  0.0590
 1214HK4    C47 1895   4.245   1.251   5.200  0.1504  0.0740 -0.4296
 1214HK4    H27 1896   4.268   1.205   5.103 -1.2065  1.0783 -1.2448
 1214HK4    C46 1897   4.286   1.199   5.322  0.3865  0.0683 -0.5089
 1214HK4    H26 1898   4.336   1.101   5.322 -0.0799 -0.1768  0.3462
 1214HK4    C40 1899   4.265   1.257   5.449 -0.4040 -0.6818 -0.2837
 1214HK4    C50 1900   4.176   1.365   5.434 -0.0962 -0.3953 -0.0613
 1214HK4    H30 1901   4.143   1.408   5.530  0.2190 -1.4418  0.5261
 1214HK4    C49 1902   4.131   1.427   5.318 -0.5796 -0.4677  0.0845
 1214HK4    H29 1903   4.073   1.520   5.315  0.6626  0.3787  1.4527
 1214HK4     N2 1904   4.318   1.209   5.569 -0.3670  0.1926  0.0581
 1214HK4    C30 1905   4.367   1.079   5.598 -0.5931  0.1385  0.1980
 1214HK4    C29 1906   4.356   0.957   5.532  0.0565  0.0595  0.2340
 1214HK4    H15 1907   4.276   0.952   5.459  0.1005  1.4732  0.0633
 1214HK4    C28 1908   4.421   0.843   5.576  0.1678  0.0422  0.0249
 1214HK4    C27 1909   4.507   0.852   5.687  0.1989 -0.3039  0.0298
 1214HK4    H14 1910   4.561   0.761   5.720  0.2773 -1.2383 -2.6024
 1214HK4    C32 1911   4.522   0.971   5.758  1.0561  0.1734 -0.9425
 1214HK4    H16 1912   4.590   0.970   5.843 -3.2735  0.0466  2.7165
 1214HK4    C31 1913   4.452   1.083   5.715  0.3144 -0.1001 -0.4450
 1214HK4    C34 1914   4.446   1.220   5.762  0.1187 -0.2471 -0.0368
 1214HK4    C33 1915   4.366   1.297   5.668 -0.1441 -0.1552  0.2611
 1214HK4    C35 1916   4.343   1.429   5.704  0.9073  0.0247  0.2726
 1214HK4    H17 1917   4.300   1.500   5.632  1.6344 -0.0279 -0.2209
 1214HK4    C36 1918   4.379   1.482   5.827  0.0388 -0.1310  0.5940
 1214HK4    H18 1919   4.355   1.585   5.857 -1.4169 -0.3919  0.3717
 1214HK4    C37 1920   4.460   1.409   5.913  1.0330  0.1325 -0.1153
 1214HK4    H19 1921   4.497   1.456   6.003  1.2686  0.0281 -0.1569
 1214HK4    C38 1922   4.489   1.277   5.881  0.4167  0.0355 -0.2776
 1214HK4    H20 1923   4.551   1.219   5.950  0.6912  0.4852 -0.1468
 1214HK4    C14 1924   4.372   0.713   5.526 -0.0421  0.2923 -0.4232
 1214HK4     C9 1925   4.361   0.607   5.617  0.5096  0.2920 -0.3505
 1214HK4     C8 1926   4.401   0.477   5.583 -0.0319  0.0416 -0.0462
 1214HK4    C11 1927   4.442   0.455   5.451  0.9492  0.4663  0.1838
 1214HK4     H4 1928   4.477   0.357   5.417  0.7540  0.2094  0.7037
 1214HK4    C12 1929   4.435   0.557   5.357 -0.3198  0.2442  0.0201
 1214HK4     H5 1930   4.458   0.530   5.253  2.4038  0.4559  0.5221
 1214HK4    C13 1931   4.405   0.688   5.391  0.6234  0.5576 -0.3153
 1214HK4     H6 1932   4.394   0.760   5.308  0.0198 -2.1487 -2.6552
 1214HK4     C7 1933   4.395   0.364   5.678  0.5509  0.0170 -0.0346
 1214HK4     O2 1934   4.403   0.251   5.629  0.6139  0.0789 -0.1691
 1214HK4     C4 1935   4.348   0.394   5.815  0.3820  0.0375 -0.0970
 1214HK4     C3 1936   4.342   0.288   5.905 -0.3003  0.1144 -0.0484
 1214HK4     H3 1937   4.349   0.184   5.870  0.4220 -0.2403  1.1549
 1214HK4     C2 1938   4.304   0.311   6.036  0.0372 -0.3482  0.1362
 1214HK4     H2 1939   4.281   0.225   6.099  2.5154 -1.6045 -0.6319
 1214HK4     C1 1940   4.278   0.440   6.082  0.0976 -0.1790 -0.3064
 1214HK4     H1 1941   4.248   0.451   6.187  1.0993 -0.3419  0.0029
 1214HK4     C6 1942   4.288   0.550   5.994  0.1774 -0.1584 -0.2710
 1214HK4     C5 1943   4.315   0.524   5.859 -0.2650 -0.0278 -0.3860
 1214HK4    C10 1944   4.301   0.627   5.752 -0.1688 -0.2073 -0.5743
 1214HK4     O1 1945   4.213   0.713   5.762  0.4673  0.4157 -0.2697
 1214HK4    C16 1946   4.281   0.681   6.059 -0.0268 -0.0008 -0.6092
 1214HK4    C15 1947   4.344   0.796   6.005 -0.4070  0.4392 -0.1188
 1214HK4     H7 1948   4.435   0.783   5.946 -0.7649  0.1935 -0.6225
 1214HK4    C20 1949   4.296   0.925   6.026 -0.1753  0.6560 -0.9330
 1214HK4     H9 1950   4.357   1.013   6.006  0.4499  0.8357  1.6167
 1214HK4    C19 1951   4.188   0.946   6.110  0.0957 -0.6294 -0.2445
 1214HK4    C18 1952   4.130   0.833   6.180 -0.0432 -0.0521  0.5892
 1214HK4    C17 1953   4.182   0.707   6.154 -0.4276  0.1163 -1.0526
 1214HK4     H8 1954   4.152   0.623   6.217  0.2982  0.4384 -0.2663
 1214HK4     N1 1955   4.048   0.876   6.286  0.1329  0.3197  0.5734
 1214HK4    C21 1956   4.049   1.017   6.281  0.0502  0.2765 -0.6076
 1214HK4    C22 1957   4.126   1.065   6.168  0.1582 -0.3293 -0.7900
 1214HK4    C26 1958   4.121   1.198   6.130 -0.2156 -0.0622  0.1865
 1214HK4    H13 1959   4.179   1.218   6.039  1.2161 -0.9101  0.9039
 1214HK4    C25 1960   4.049   1.292   6.203 -0.0085 -0.0144  0.3247
 1214HK4    H12 1961   4.061   1.399   6.191  1.1238 -0.1335  0.3240
 1214HK4    C24 1962   3.979   1.245   6.314 -0.1098  0.2266  0.3638
 1214HK4    H11 1963   3.924   1.314   6.379 -0.5244  0.4294 -0.1916
 1214HK4    C23 1964   3.970   1.110   6.347  0.0366  0.0473 -0.3026
 1214HK4    H10 1965   3.896   1.077   6.420  2.1344 -2.9986  0.5354
 1214HK4    C39 1966   3.959   0.787   6.348  0.4978  0.1112  0.7985
 1214HK4    C41 1967   3.924   0.809   6.482  0.6357 -0.3060  0.9063
 1214HK4    H21 1968   3.979   0.885   6.540  1.7128 -0.1997 -0.2442
 1214HK4    C42 1969   3.810   0.746   6.531  0.4259 -0.3358  0.3778
 1214HK4    H22 1970   3.775   0.753   6.635 -1.6809 -0.9902 -0.2577
 1214HK4    C43 1971   3.736   0.651   6.461 -0.4857  0.4738  0.2161
 1214HK4    H23 1972   3.636   0.626   6.496 -0.5297 -0.8254 -0.8013
 1214HK4    C44 1973   3.774   0.621   6.331  0.3112  0.2990  0.4819
 1214HK4    H24 1974   3.728   0.538   6.275  0.8212  0.2857  0.0774
 1214HK4    C45 1975   3.882   0.691   6.279  0.5350  0.1331  0.7261
 1214HK4    H25 1976   3.883   0.680   6.169 -2.5322 -0.6598  0.7505
 1215HK4    H28 1977   3.700   6.925  11.013  0.7129 -3.3435  1.9782
 1215HK4    C48 1978   3.805   6.956  11.025  0.0996  0.0784 -0.5333
 1215HK4    C47 1979   3.846   7.080  10.978  0.4591  0.3778  0.5684
 1215HK4    H27 1980   3.774   7.152  10.936  0.0925 -0.5050 -0.3399
 1215HK4    C46 1981   3.979   7.115  10.998  0.3993  0.7623  0.2910
 1215HK4    H26 1982   4.014   7.209  10.952  1.3636 -0.0338 -0.6155
 1215HK4    C40 1983   4.068   7.033  11.069  0.1898  0.1057 -0.2045
 1215HK4    C50 1984   4.020   6.907  11.111 -0.3927  0.3857 -0.0255
 1215HK4    H30 1985   4.096   6.845  11.162 -2.3088 -1.9528  0.0817
 1215HK4    C49 1986   3.889   6.866  11.090 -0.3184  0.1024  0.0545
 1215HK4    H29 1987   3.858   6.776  11.145 -0.8470  0.1125 -0.2292
 1215HK4     N2 1988   4.206   7.055  11.074  0.1613  0.2129  0.1866
 1215HK4    C30 1989   4.284   7.115  10.973  0.3566 -0.1871  0.1033
 1215HK4    C29 1990   4.272   7.115  10.834 -0.0819 -0.0015  0.1411
 1215HK4    H15 1991   4.198   7.048  10.789 -1.5120  0.6711  1.4541
 1215HK4    C28 1992   4.359   7.178  10.746 -0.0417 -0.1148  0.1014
 1215HK4    C27 1993   4.465   7.249  10.803  0.3757 -0.4561 -0.2431
 1215HK4    H14 1994   4.504   7.335  10.746  0.8379  0.4459  1.4048
 1215HK4    C32 1995   4.495   7.239  10.939 -0.0037  0.1383 -0.1143
 1215HK4    H16 1996   4.591   7.282  10.967 -0.2330  1.1914 -0.8911
 1215HK4    C31 1997   4.403   7.180  11.025  0.0157  0.4246  0.1035
 1215HK4    C34 1998   4.396   7.149  11.166 -0.4433  0.2086  0.0346
 1215HK4    C33 1999   4.278   7.070  11.194  0.1094 -0.5277  0.3133
 1215HK4    C35 2000   4.233   7.057   0.077 -0.2482 -0.5072  0.1928
 1215HK4    H17 2001   4.134   7.013   0.093 -1.6022  2.3258 -0.0840
 1215HK4    C36 2002   4.309   7.106   0.183 -0.6407  0.5494 -0.0066
 1215HK4    H18 2003   4.276   7.092   0.287  0.1510  0.3768  0.2210
 1215HK4    C37 2004   4.427   7.175   0.159 -0.0072 -0.2994  0.6452
 1215HK4    H19 2005   4.503   7.186   0.236  0.5063  0.0985  0.0873
 1215HK4    C38 2006   4.468   7.195   0.028 -0.8881  0.0129  0.4136
 1215HK4    H20 2007   4.570   7.232   0.018 -1.5493  1.9640  0.7187
 1215HK4    C14 2008   4.357   7.145  10.602 -0.3575  0.3572 -0.0047
 1215HK4     C9 2009   4.471   7.149  10.521 -0.2029  0.4744  0.2216
 1215HK4     C8 2010   4.468   7.190  10.386  0.1765 -0.1714  0.0129
 1215HK4    C11 2011   4.344   7.217  10.331  0.0563  0.3330  0.5253
 1215HK4     H4 2012   4.336   7.236  10.223 -0.2299  2.2700  0.8604
 1215HK4    C12 2013   4.226   7.195  10.402 -0.5664 -0.0306 -0.6170
 1215HK4     H5 2014   4.125   7.211  10.360 -0.3091  0.0375 -1.2129
 1215HK4    C13 2015   4.234   7.158  10.535 -0.0233 -0.8777 -0.8747
 1215HK4     H6 2016   4.140   7.158  10.594  0.0934  3.9588 -0.5395
 1215HK4     C7 2017   4.594   7.217  10.313  0.0541  0.4188  0.0186
 1215HK4     O2 2018   4.599   7.233  10.191 -0.3072 -0.5148 -0.1218
 1215HK4     C4 2019   4.723   7.193  10.381  0.0392 -0.2266 -0.1782
 1215HK4     C3 2020   4.840   7.231  10.318  0.3576  0.1715  0.6455
 1215HK4     H3 2021   4.836   7.277  10.218 -1.3386 -1.4984 -0.0801
 1215HK4     C2 2022   4.962   7.210  10.381  0.2274  0.4780  1.0005
 1215HK4     H2 2023   5.054   7.261  10.346 -0.3211 -0.1753 -1.4928
 1215HK4     C1 2024   4.967   7.151  10.507  0.3670 -0.9291  0.3421
 1215HK4     H1 2025   5.064   7.135  10.556  0.7135 -2.4050 -0.7669
 1215HK4     C6 2026   4.851   7.116  10.579 -0.1824  0.0098 -0.0818
 1215HK4     C5 2027   4.731   7.129  10.507 -0.2510  0.2394  0.0770
 1215HK4    C10 2028   4.600   7.093  10.568 -0.2816 -0.0162 -0.1405
 1215HK4     O1 2029   4.589   6.977  10.606  0.3757 -0.1830 -0.4373
 1215HK4    C16 2030   4.855   7.133  10.725 -0.2459  0.1430 -0.0910
 1215HK4    C15 2031   4.942   7.225  10.786  0.2613 -0.1219 -0.4092
 1215HK4     H7 2032   4.940   7.322  10.736  0.2253 -0.7730 -1.6846
 1215HK4    C20 2033   4.988   7.209  10.917 -0.0625  0.0609 -0.2726
 1215HK4     H9 2034   5.089   7.243  10.938 -0.5622  0.6335  1.2586
 1215HK4    C19 2035   4.938   7.112  11.003 -0.1674  0.2433 -0.1252
 1215HK4    C18 2036   4.846   7.017  10.942  0.1301 -0.1187 -0.0083
 1215HK4    C17 2037   4.814   7.028  10.807  0.4132 -0.0989 -0.0738
 1215HK4     H8 2038   4.771   6.937  10.764  0.8524 -0.1789 -0.3439
 1215HK4     N1 2039   4.793   6.939  11.046  0.3401 -0.0464  0.1542
 1215HK4    C21 2040   4.841   6.987  11.170  0.3237  0.0843  0.1111
 1215HK4    C22 2041   4.931   7.099  11.147  0.3932 -0.0183 -0.1208
 1215HK4    C26 2042   4.975   7.178   0.005 -0.0026  0.3408 -0.2233
 1215HK4    H13 2043   5.022   7.273  11.228 -0.8883  0.7001 -0.5467
 1215HK4    C25 2044   4.935   7.145   0.134  0.1038 -0.4679 -0.3977
 1215HK4    H12 2045   4.961   7.218   0.210 -2.3270  1.0807 -1.0203
 1215HK4    C24 2046   4.858   7.031   0.155  0.6888 -0.7625  0.1460
 1215HK4    H11 2047   4.848   7.002   0.261  1.3644 -0.4534  0.3006
 1215HK4    C23 2048   4.813   6.949   0.052 -0.3694  0.0577 -0.0452
 1215HK4    H10 2049   4.736   6.876   0.076 -0.7871  0.4766 -0.0836
 1215HK4    C39 2050   4.693   6.842  11.026  0.0467  0.3594 -0.3383
 1215HK4    C41 2051   4.683   6.723  11.100 -0.1912  0.6131  0.0359
 1215HK4    H21 2052   4.772   6.687  11.154  0.8147  0.7125 -1.5463
 1215HK4    C42 2053   4.562   6.656  11.111  0.1381  0.0118 -0.0134
 1215HK4    H22 2054   4.555   6.554  11.150 -1.7267  0.7486  1.6331
 1215HK4    C43 2055   4.449   6.698  11.042 -0.1028  0.7436  0.8222
 1215HK4    H23 2056   4.360   6.637  11.060  0.5046  0.4141  2.7880
 1215HK4    C44 2057   4.457   6.806  10.955 -0.4738  0.0900 -0.0277
 1215HK4    H24 2058   4.369   6.841  10.899 -0.7978 -3.5690 -1.9598
 1215HK4    C45 2059   4.575   6.878  10.957 -0.6070  0.2858  0.7432
 1215HK4    H25 2060   4.577   6.976  10.907  0.6533  1.4384  2.9302
 1216HK4    H28 2061   0.956   5.237   1.492  0.3699  0.1269 -1.5897
 1216HK4    C48 2062   0.852   5.235   1.459 -0.0095 -0.5411 -0.3893
 1216HK4    C47 2063   0.817   5.278   1.331 -0.0022 -0.3514 -0.3291
 1216HK4    H27 2064   0.897   5.290   1.256  0.5558 -1.7382  0.0146
 1216HK4    C46 2065   0.687   5.314   1.296  0.0714  0.2668  0.0376
 1216HK4    H26 2066   0.665   5.353   1.196 -0.3476 -0.1040 -0.0125
 1216HK4    C40 2067   0.578   5.289   1.381 -0.1115  0.7050 -0.0704
 1216HK4    C50 2068   0.615   5.241   1.508  0.4147  0.3089 -0.3748
 1216HK4    H30 2069   0.539   5.198   1.575 -0.4824  0.0684 -1.5343
 1216HK4    C49 2070   0.746   5.215   1.546  0.2129 -0.2588 -0.0548
 1216HK4    H29 2071   0.767   5.177   1.647  2.6360 -1.4722 -0.9837
 1216HK4     N2 2072   0.442   5.283   1.348 -0.1300 -0.2204  0.1520
 1216HK4    C30 2073   0.398   5.278   1.214  0.3833 -0.0202 -0.0268
 1216HK4    C29 2074   0.457   5.213   1.107  0.1603 -0.7598  0.2931
 1216HK4    H15 2075   0.548   5.156   1.125 -0.1971 -1.5498 -0.3455
 1216HK4    C28 2076   0.396   5.189   0.984 -0.1353 -0.1115  0.3140
 1216HK4    C27 2077   0.262   5.230   0.969 -0.1678 -0.3058  0.0756
 1216HK4    H14 2078   0.210   5.198   0.877 -0.4221  1.8391 -0.5442
 1216HK4    C32 2079   0.195   5.296   1.072 -0.0898 -0.1470  0.0233
 1216HK4    H16 2080   0.097   5.338   1.049 -1.3168 -1.4140  2.6861
 1216HK4    C31 2081   0.261   5.321   1.191  0.3732 -0.1588 -0.2293
 1216HK4    C34 2082   0.227   5.362   1.326 -0.0443 -0.3425 -0.2772
 1216HK4    C33 2083   0.332   5.332   1.422 -0.1686 -0.0149 -0.0383
 1216HK4    C35 2084   0.301   5.345   1.557  0.3700  0.7532  0.0153
 1216HK4    H17 2085   0.378   5.337   1.634  1.0670 -1.3893 -0.8371
 1216HK4    C36 2086   0.174   5.383   1.599  0.1650  0.1794 -0.0759
 1216HK4    H18 2087   0.148   5.348   1.699  2.0884 -0.4969  0.2130
 1216HK4    C37 2088   0.072   5.409   1.508  0.0595 -0.1503 -0.0532
 1216HK4    H19 2089  11.226   5.451   1.546 -0.4936 -1.1626 -0.3009
 1216HK4    C38 2090   0.101   5.397   1.373  0.0939 -0.1550 -0.0456
 1216HK4    H20 2091   0.019   5.408   1.302  0.4257 -2.8519 -0.8758
 1216HK4    C14 2092   0.469   5.139   0.867 -0.5218 -0.1158  0.0738
 1216HK4     C9 2093   0.434   5.161   0.733 -0.4702 -0.1412  0.0558
 1216HK4     C8 2094   0.443   5.060   0.636  0.5239 -0.0697  0.0699
 1216HK4    C11 2095   0.520   4.949   0.670 -0.1399 -0.3848  0.5781
 1216HK4     H4 2096   0.568   4.893   0.588 -0.4251 -0.0278  0.1680
 1216HK4    C12 2097   0.585   4.943   0.793  0.1024  0.1132  0.4782
 1216HK4     H5 2098   0.658   4.863   0.813 -2.4072 -1.9489  1.7516
 1216HK4    C13 2099   0.556   5.032   0.896  0.3558  0.6064  0.1222
 1216HK4     H6 2100   0.608   5.022   0.992  0.0045  2.1842  0.4936
 1216HK4     C7 2101   0.398   5.077   0.496  0.3583 -0.2052  0.1066
 1216HK4     O2 2102   0.357   4.975   0.440  0.3702 -0.1539  0.0046
 1216HK4     C4 2103   0.377   5.215   0.447 -1.2858 -0.4229  0.1639
 1216HK4     C3 2104   0.361   5.242   0.312 -0.6697 -0.3328  0.1048
 1216HK4     H3 2105   0.390   5.167   0.237  0.7264  0.2247  0.0700
 1216HK4     C2 2106   0.319   5.366   0.263 -0.0905 -0.2016 -0.0659
 1216HK4     H2 2107   0.323   5.396   0.158  2.6265  1.1736  0.4038
 1216HK4     C1 2108   0.281   5.461   0.357  0.2688 -0.2047  0.0825
 1216HK4     H1 2109   0.220   5.542   0.316 -0.9017 -1.8860 -1.5663
 1216HK4     C6 2110   0.296   5.436   0.495  0.4481 -0.2116  0.0623
 1216HK4     C5 2111   0.356   5.318   0.541  0.0180 -0.3238  0.3543
 1216HK4    C10 2112   0.396   5.296   0.683 -0.3938  0.0616  0.5304
 1216HK4     O1 2113   0.422   5.391   0.756 -0.0616 -0.2789  0.8506
 1216HK4    C16 2114   0.231   5.532   0.586  0.2823  0.0558 -0.3407
 1216HK4    C15 2115   0.141   5.485   0.683  0.0485  0.5482 -0.3152
 1216HK4     H7 2116   0.115   5.378   0.688  1.8319  0.1659  1.9333
 1216HK4    C20 2117   0.082   5.577   0.769 -0.2208 -0.0332  0.1265
 1216HK4     H9 2118   0.005   5.548   0.841 -0.7943  1.5301  0.1617
 1216HK4    C19 2119   0.120   5.710   0.762  0.1919 -0.1282  0.4942
 1216HK4    C18 2120   0.221   5.755   0.668 -0.0109 -0.1629  0.2558
 1216HK4    C17 2121   0.273   5.664   0.577 -0.0832  0.1870 -0.1298
 1216HK4     H8 2122   0.315   5.698   0.482 -0.9120  3.3814  0.5619
 1216HK4     N1 2123   0.259   5.890   0.688  0.0705 -0.1854  0.2628
 1216HK4    C21 2124   0.163   5.939   0.778  0.0911 -0.1702  0.2763
 1216HK4    C22 2125   0.074   5.833   0.823 -0.2847 -0.0102 -0.0917
 1216HK4    C26 2126  11.212   5.859   0.903 -0.4505 -0.4057 -0.1904
 1216HK4    H13 2127  11.177   5.776   0.964 -3.8832  0.6826 -0.5426
 1216HK4    C25 2128  11.186   5.990   0.943  0.3019 -0.2481 -0.2199
 1216HK4    H12 2129  11.113   6.017   1.019 -1.2983 -0.6537 -1.5882
 1216HK4    C24 2130   0.020   6.092   0.896  0.7286 -0.2341  0.5428
 1216HK4    H11 2131   0.003   6.193   0.937  1.1160  0.5576 -1.1970
 1216HK4    C23 2132   0.129   6.069   0.813  0.5581 -0.0470  0.2654
 1216HK4    H10 2133   0.192   6.150   0.776 -0.5766  0.1403 -1.2805
 1216HK4    C39 2134   0.390   5.940   0.687  0.0700 -0.1850  0.1902
 1216HK4    C41 2135   0.409   6.074   0.649  0.3893 -0.1046  0.6304
 1216HK4    H21 2136   0.337   6.114   0.576 -0.1014 -1.2226  0.4992
 1216HK4    C42 2137   0.529   6.138   0.675  0.1854  0.4897  0.1251
 1216HK4    H22 2138   0.544   6.246   0.655  0.7548  0.2795 -0.6190
 1216HK4    C43 2139   0.628   6.071   0.745 -0.0178 -0.4346 -0.4735
 1216HK4    H23 2140   0.712   6.125   0.789  1.2528 -2.9189  0.2591
 1216HK4    C44 2141   0.613   5.935   0.769  0.5228 -0.3491  0.3852
 1216HK4    H24 2142   0.688   5.875   0.823  1.5644  0.5414 -0.0604
 1216HK4    C45 2143   0.493   5.866   0.749  0.1079  0.2803  0.6880
 1216HK4    H25 2144   0.463   5.771   0.795  0.2940 -0.1300 -0.0201
 1217HK4    H28 2145   5.746   7.805   2.227  1.5066  0.1406  0.3361
 1217HK4    C48 2146   5.756   7.725   2.154 -0.0946  0.1714  0.0487
 1217HK4    C47 2147   5.808   7.762   2.030 -0.0417 -0.0973 -0.0122
 1217HK4    H27 2148   5.835   7.866   2.005 -0.1251 -0.1150 -0.1738
 1217HK4    C46 2149   5.796   7.669   1.928  0.7794 -0.6718  0.4102
 1217HK4    H26 2150   5.841   7.686   1.830  0.4296 -2.0615 -0.0098
 1217HK4    C40 2151   5.719   7.551   1.937  0.0950 -0.2705 -0.1435
 1217HK4    C50 2152   5.670   7.518   2.065  0.0424 -0.5284 -0.2293
 1217HK4    H30 2153   5.608   7.428   2.076 -1.3037  0.6002  1.7324
 1217HK4    C49 2154   5.697   7.601   2.174  0.0697 -0.0157 -0.6217
 1217HK4    H29 2155   5.678   7.561   2.275 -2.1257 -0.1897 -1.0706
 1217HK4     N2 2156   5.660   7.484   1.829 -1.1282 -0.0420  0.3762
 1217HK4    C30 2157   5.637   7.542   1.702  0.0687 -0.4544 -0.0299
 1217HK4    C29 2158   5.614   7.674   1.665  0.7102 -0.4477 -0.4313
 1217HK4    H15 2159   5.622   7.746   1.747  1.2725 -0.1404 -0.7578
 1217HK4    C28 2160   5.575   7.715   1.538 -0.1213  0.3854  0.0836
 1217HK4    C27 2161   5.554   7.616   1.440 -0.2450  0.2455  0.2504
 1217HK4    H14 2162   5.517   7.645   1.340  0.5170  0.6149  0.0754
 1217HK4    C32 2163   5.572   7.482   1.474  0.1883  0.1402 -0.3782
 1217HK4    H16 2164   5.544   7.411   1.397  1.7328  1.3425 -2.0865
 1217HK4    C31 2165   5.618   7.442   1.599 -0.1530 -0.1029 -0.3300
 1217HK4    C34 2166   5.636   7.315   1.668  0.3711  0.2434  0.1723
 1217HK4    C33 2167   5.664   7.345   1.807 -0.1828 -0.0118  0.3378
 1217HK4    C35 2168   5.707   7.239   1.885  0.5250 -0.0552 -0.1107
 1217HK4    H17 2169   5.729   7.261   1.990 -2.9609  0.9974  0.4672
 1217HK4    C36 2170   5.700   7.104   1.851  0.0605 -0.0519 -0.0350
 1217HK4    H18 2171   5.704   7.019   1.920 -0.0288 -1.0182 -1.1876
 1217HK4    C37 2172   5.667   7.080   1.718 -0.0145 -0.2180  0.0147
 1217HK4    H19 2173   5.687   6.980   1.678  1.3256 -1.3429  3.3580
 1217HK4    C38 2174   5.638   7.182   1.628  0.5828  0.2068  0.3044
 1217HK4    H20 2175   5.643   7.169   1.520 -1.0757 -1.5992  0.4240
 1217HK4    C14 2176   5.505   7.844   1.530  0.1449  0.5226 -0.0199
 1217HK4     C9 2177   5.399   7.870   1.443  0.4163 -0.4659 -0.6545
 1217HK4     C8 2178   5.389   7.995   1.379  0.5042 -0.2514 -0.2477
 1217HK4    C11 2179   5.470   8.100   1.420 -0.0572 -0.0296  0.2946
 1217HK4     H4 2180   5.462   8.201   1.377 -0.1829  0.8030  2.2180
 1217HK4    C12 2181   5.564   8.079   1.520  0.1784  0.1134  0.1053
 1217HK4     H5 2182   5.624   8.163   1.558 -1.3096 -0.3179  3.5719
 1217HK4    C13 2183   5.590   7.950   1.567  0.5266  0.1806  0.0998
 1217HK4     H6 2184   5.685   7.935   1.620  0.1117 -1.2562  0.4646
 1217HK4     C7 2185   5.304   8.012   1.258  0.4532 -0.1598 -0.1983
 1217HK4     O2 2186   5.269   8.118   1.207  0.3655 -0.1199 -0.0582
 1217HK4     C4 2187   5.245   7.889   1.203  0.2562 -0.2453  0.2070
 1217HK4     C3 2188   5.203   7.888   1.071  0.1818  0.1375  0.2277
 1217HK4     H3 2189   5.229   7.974   1.007  2.1780  0.0206  0.8425
 1217HK4     C2 2190   5.143   7.777   1.012  0.7258  0.2165 -0.4870
 1217HK4     H2 2191   5.101   7.798   0.913  1.0151  1.3522 -0.3802
 1217HK4     C1 2192   5.144   7.659   1.085 -0.4338  0.3496 -0.2450
 1217HK4     H1 2193   5.113   7.569   1.030  0.6618  0.0384 -0.3615
 1217HK4     C6 2194   5.186   7.653   1.219 -0.8149 -0.2103 -0.1474
 1217HK4     C5 2195   5.225   7.773   1.281 -0.5330 -0.3234 -0.1057
 1217HK4    C10 2196   5.298   7.765   1.410  0.0317 -0.1707 -0.4160
 1217HK4     O1 2197   5.240   7.725   1.511 -0.0765 -0.2305 -0.5024
 1217HK4    C16 2198   5.247   7.523   1.252  0.5952  0.3923 -0.3375
 1217HK4    C15 2199   5.317   7.442   1.161 -0.2836  0.0655 -0.7221
 1217HK4     H7 2200   5.329   7.484   1.060 -1.8171 -1.9114 -1.7722
 1217HK4    C20 2201   5.366   7.315   1.189 -0.3373  0.2881  0.4003
 1217HK4     H9 2202   5.433   7.273   1.113 -1.0912  1.3616 -0.8754
 1217HK4    C19 2203   5.346   7.260   1.315 -0.3735 -0.2367  0.1669
 1217HK4    C18 2204   5.271   7.340   1.410  0.3708  0.5994  0.0507
 1217HK4    C17 2205   5.219   7.464   1.375  0.2001  0.3976 -0.4237
 1217HK4     H8 2206   5.131   7.496   1.430 -0.3211 -2.1644  0.2917
 1217HK4     N1 2207   5.263   7.268   1.531  0.0587  0.0512 -0.2941
 1217HK4    C21 2208   5.323   7.144   1.505  0.4040  0.1140  0.1941
 1217HK4    C22 2209   5.387   7.135   1.375  0.6390  0.1613  0.3058
 1217HK4    C26 2210   5.447   7.016   1.333  0.0312 -0.1772  0.3812
 1217HK4    H13 2211   5.508   7.014   1.242 -0.1667 -3.1727  0.2676
 1217HK4    C25 2212   5.432   6.905   1.415  0.1026 -0.1027  0.4943
 1217HK4    H12 2213   5.443   6.803   1.377 -0.1542  0.4230 -1.0265
 1217HK4    C24 2214   5.368   6.908   1.538 -0.2788 -0.3542  0.3038
 1217HK4    H11 2215   5.374   6.816   1.598  0.4324 -1.2444 -1.1226
 1217HK4    C23 2216   5.316   7.029   1.583  0.3849  0.0230  0.0604
 1217HK4    H10 2217   5.267   7.032   1.681 -1.5025 -0.4362 -0.8408
 1217HK4    C39 2218   5.245   7.330   1.655 -0.1400 -0.2625 -0.1676
 1217HK4    C41 2219   5.193   7.260   1.766  0.6137 -0.5032  0.0357
 1217HK4    H21 2220   5.139   7.167   1.742  1.0586 -0.9700  0.8487
 1217HK4    C42 2221   5.198   7.301   1.899 -0.0304  0.2113 -0.1493
 1217HK4    H22 2222   5.153   7.239   1.978  0.0787  0.3523  0.0229
 1217HK4    C43 2223   5.260   7.423   1.921  0.0893  0.1476 -0.1279
 1217HK4    H23 2224   5.276   7.466   2.020 -1.8722  0.0827  0.2310
 1217HK4    C44 2225   5.297   7.506   1.815  0.3052 -0.2933 -0.3999
 1217HK4    H24 2226   5.320   7.609   1.843  0.6235 -0.7262  0.9727
 1217HK4    C45 2227   5.288   7.461   1.684 -0.7267 -0.0074 -0.4293
 1217HK4    H25 2228   5.340   7.519   1.607  0.2882 -0.8742 -0.3975
 1218HK4    H28 2229   2.169   6.446   1.705 -1.1885  0.7556  0.4974
 1218HK4    C48 2230   2.242   6.523   1.728 -0.0268 -0.0894 -0.2719
 1218HK4    C47 2231   2.226   6.592   1.848 -0.5030 -0.0499 -0.3579
 1218HK4    H27 2232   2.157   6.557   1.927  2.0128  0.1194  1.9805
 1218HK4    C46 2233   2.317   6.692   1.880 -0.5175 -0.2030  0.1642
 1218HK4    H26 2234   2.298   6.739   1.978  0.6249 -0.6175  0.5911
 1218HK4    C40 2235   2.414   6.740   1.790 -0.3480 -0.0382  0.4324
 1218HK4    C50 2236   2.429   6.663   1.672  0.2885 -0.4168  0.7598
 1218HK4    H30 2237   2.483   6.709   1.588 -0.0527 -0.2372  0.6370
 1218HK4    C49 2238   2.339   6.563   1.637  0.1684 -0.0350 -0.0399
 1218HK4    H29 2239   2.321   6.532   1.534  0.3701  0.6708 -0.2927
 1218HK4     N2 2240   2.481   6.862   1.802  0.1168 -0.2608  0.0942
 1218HK4    C30 2241   2.438   6.974   1.875  0.3048  0.1120 -0.3644
 1218HK4    C29 2242   2.317   6.997   1.940  0.2713 -0.5399 -0.2000
 1218HK4    H15 2243   2.232   6.933   1.917  0.8395 -1.0568 -0.8847
 1218HK4    C28 2244   2.304   7.105   2.026  0.1475 -0.3097 -0.5091
 1218HK4    C27 2245   2.411   7.195   2.039  0.1082 -0.4030  0.4640
 1218HK4    H14 2246   2.402   7.276   2.114 -1.0701  1.3795 -1.5487
 1218HK4    C32 2247   2.534   7.173   1.977 -0.1139  0.2077 -0.2002
 1218HK4    H16 2248   2.610   7.246   2.005  2.2690 -2.4202  0.3711
 1218HK4    C31 2249   2.549   7.066   1.889  0.2170  0.1792 -0.1078
 1218HK4    C34 2250   2.658   7.013   1.810 -0.1475 -0.0160 -0.4824
 1218HK4    C33 2251   2.618   6.879   1.771 -0.1463  0.1029 -0.8857
 1218HK4    C35 2252   2.719   6.788   1.745  0.0510  0.1954 -0.4373
 1218HK4    H17 2253   2.695   6.694   1.696  0.9680  0.5925 -1.6744
 1218HK4    C36 2254   2.851   6.832   1.745  0.2164 -0.2790  0.3575
 1218HK4    H18 2255   2.927   6.757   1.720  0.3514  0.4377 -1.4447
 1218HK4    C37 2256   2.889   6.965   1.765 -0.5216  0.0259 -0.2306
 1218HK4    H19 2257   2.994   6.996   1.764 -0.9752  1.6063  0.8455
 1218HK4    C38 2258   2.790   7.055   1.803 -0.1689  0.1940  0.2950
 1218HK4    H20 2259   2.820   7.160   1.807  1.6440 -0.2192 -1.4884
 1218HK4    C14 2260   2.184   7.141   2.103  0.3283 -0.0162 -0.3642
 1218HK4     C9 2261   2.166   7.267   2.163  0.0939 -0.2935  0.1522
 1218HK4     C8 2262   2.115   7.277   2.294 -0.4398  0.0634 -0.0832
 1218HK4    C11 2263   2.056   7.166   2.353 -0.6025  0.1294 -0.1181
 1218HK4     H4 2264   2.025   7.152   2.458 -0.4872  2.3787  0.2392
 1218HK4    C12 2265   2.046   7.052   2.274  0.4469 -0.1507  0.1435
 1218HK4     H5 2266   2.015   6.956   2.318 -1.1194  0.3685  0.1910
 1218HK4    C13 2267   2.104   7.035   2.149  0.2823  0.1840  0.0201
 1218HK4     H6 2268   2.067   6.960   2.077 -1.1299  0.5336  0.3510
 1218HK4     C7 2269   2.125   7.406   2.366 -0.3246  0.1696 -0.2855
 1218HK4     O2 2270   2.051   7.427   2.461 -0.2461  0.0036 -0.1889
 1218HK4     C4 2271   2.210   7.510   2.303  0.4793 -0.4459 -0.2283
 1218HK4     C3 2272   2.245   7.617   2.384 -0.3933 -0.0965 -0.3022
 1218HK4     H3 2273   2.222   7.625   2.492  2.6535 -0.2887  0.4257
 1218HK4     C2 2274   2.311   7.727   2.331  0.2099 -0.3233 -0.0298
 1218HK4     H2 2275   2.341   7.813   2.393  0.8643  0.3213 -1.2120
 1218HK4     C1 2276   2.326   7.736   2.193  0.5257 -0.1653  0.0156
 1218HK4     H1 2277   2.376   7.827   2.156 -1.3161  0.5169 -0.8518
 1218HK4     C6 2278   2.276   7.639   2.104 -0.7614  0.4340  0.0781
 1218HK4     C5 2279   2.221   7.524   2.163  0.6762 -0.4069 -0.2082
 1218HK4    C10 2280   2.185   7.398   2.094 -1.4512 -0.0334  0.1958
 1218HK4     O1 2281   2.142   7.403   1.979  0.0622  0.3971 -0.3598
 1218HK4    C16 2282   2.242   7.688   1.970 -0.7195 -0.0567 -0.1129
 1218HK4    C15 2283   2.209   7.823   1.947 -0.8841 -0.2061 -0.7852
 1218HK4     H7 2284   2.169   7.872   2.038  1.7759 -3.4771  2.3163
 1218HK4    C20 2285   2.229   7.897   1.831  0.3731  0.0053 -0.4377
 1218HK4     H9 2286   2.218   8.004   1.815 -0.4295 -0.1249 -0.7779
 1218HK4    C19 2287   2.268   7.823   1.720  0.4800 -0.4997 -0.0674
 1218HK4    C18 2288   2.308   7.685   1.738 -0.4812 -0.7834 -0.0748
 1218HK4    C17 2289   2.294   7.621   1.860  0.1280 -0.1396  0.3369
 1218HK4     H8 2290   2.318   7.514   1.863  1.4025  0.1465  0.3895
 1218HK4     N1 2291   2.359   7.632   1.618  0.1843 -0.2571 -0.0246
 1218HK4    C21 2292   2.341   7.734   1.522  0.3376 -0.1387  0.0729
 1218HK4    C22 2293   2.285   7.854   1.579 -0.8352 -0.5308 -0.2421
 1218HK4    C26 2294   2.254   7.963   1.499  0.5510 -0.2420 -0.3858
 1218HK4    H13 2295   2.180   8.030   1.542  1.4623  0.0158  0.8203
 1218HK4    C25 2296   2.284   7.956   1.363  0.4511 -0.1669 -0.4119
 1218HK4    H12 2297   2.276   8.041   1.296  0.1589 -1.1599 -1.6474
 1218HK4    C24 2298   2.329   7.837   1.306  0.4250 -0.2882 -0.1781
 1218HK4    H11 2299   2.343   7.842   1.198  1.5725 -0.2286 -0.0275
 1218HK4    C23 2300   2.365   7.729   1.385  0.3082 -0.1485  0.0682
 1218HK4    H10 2301   2.398   7.634   1.342 -0.8345 -0.9633  0.9304
 1218HK4    C39 2302   2.381   7.496   1.590  0.0150 -0.2658 -0.1161
 1218HK4    C41 2303   2.311   7.392   1.654  0.0901 -0.1679  0.1272
 1218HK4    H21 2304   2.213   7.418   1.695 -1.4106 -1.6438 -2.4096
 1218HK4    C42 2305   2.366   7.265   1.669 -0.4123 -0.4866 -0.6720
 1218HK4    H22 2306   2.323   7.190   1.737  1.2037  1.3566  2.5325
 1218HK4    C43 2307   2.485   7.233   1.605  0.2375  0.0287  0.2503
 1218HK4    H23 2308   2.523   7.131   1.605 -1.4630 -0.6534 -2.5414
 1218HK4    C44 2309   2.553   7.328   1.530 -0.3011 -0.1942 -0.5301
 1218HK4    H24 2310   2.650   7.302   1.486  0.2333 -2.8847  2.0643
 1218HK4    C45 2311   2.501   7.457   1.528  0.0862 -0.0290 -0.1248
 1218HK4    H25 2312   2.564   7.536   1.483 -1.1329 -0.3189 -2.3859
 1219HK4    H28 2313   3.344   7.816   7.127  0.1497 -1.0929 -1.1290
 1219HK4    C48 2314   3.446   7.787   7.149  0.0061 -0.1191  0.9942
 1219HK4    C47 2315   3.546   7.882   7.134  0.1534 -0.2752  0.9813
 1219HK4    H27 2316   3.530   7.991   7.128 -0.8351 -0.5385 -1.7757
 1219HK4    C46 2317   3.679   7.845   7.150  0.3654  0.0153 -0.1189
 1219HK4    H26 2318   3.755   7.914   7.109  0.6389  0.8964  1.8468
 1219HK4    C40 2319   3.714   7.721   7.206 -0.0861 -0.1709 -0.2458
 1219HK4    C50 2320   3.609   7.628   7.222  0.2129 -0.4904 -0.1428
 1219HK4    H30 2321   3.636   7.533   7.271  0.4081  0.2346  1.1858
 1219HK4    C49 2322   3.478   7.658   7.190  0.2648 -0.4958 -0.3638
 1219HK4    H29 2323   3.393   7.593   7.217  0.0684 -0.6263 -1.2733
 1219HK4     N2 2324   3.838   7.691   7.263 -0.0919  0.2046 -0.0343
 1219HK4    C30 2325   3.897   7.565   7.288 -0.2678  0.1843  0.2756
 1219HK4    C29 2326   3.869   7.442   7.229 -0.1138  0.1154  0.3460
 1219HK4    H15 2327   3.805   7.447   7.141 -2.0895  2.8437  1.8768
 1219HK4    C28 2328   3.909   7.321   7.285  0.0427  0.0294  0.0492
 1219HK4    C27 2329   3.991   7.330   7.399 -0.1411  0.1267  0.1750
 1219HK4    H14 2330   4.012   7.241   7.461 -1.4288 -0.5023 -0.2656
 1219HK4    C32 2331   4.043   7.450   7.447 -0.2272  0.0288  0.5200
 1219HK4    H16 2332   4.115   7.462   7.527 -0.1607  0.6402  0.3719
 1219HK4    C31 2333   3.994   7.569   7.395 -0.0059 -0.0851  0.0485
 1219HK4    C34 2334   4.014   7.709   7.427  0.0180 -0.1833  0.4773
 1219HK4    C33 2335   3.915   7.776   7.345  0.0752 -0.2872  0.3253
 1219HK4    C35 2336   3.924   7.915   7.345 -0.5074 -0.2466  0.4426
 1219HK4    H17 2337   3.839   7.968   7.301  0.3086  0.5838 -0.1416
 1219HK4    C36 2338   4.017   7.994   7.411 -0.7923 -0.0018  0.5514
 1219HK4    H18 2339   4.007   8.104   7.409 -0.1559  0.0200 -1.7601
 1219HK4    C37 2340   4.112   7.924   7.484 -0.2672  0.2981  0.1532
 1219HK4    H19 2341   4.188   7.971   7.546 -0.0591  1.1985 -0.7887
 1219HK4    C38 2342   4.109   7.785   7.494  0.3379  0.2397 -0.4490
 1219HK4    H20 2343   4.177   7.741   7.567 -1.8836 -1.7320  0.5015
 1219HK4    C14 2344   3.873   7.193   7.221 -0.2915  0.0317  0.2293
 1219HK4     C9 2345   3.865   7.076   7.297  0.5166 -0.0024  0.2640
 1219HK4     C8 2346   3.902   6.954   7.236  0.2328  0.0501 -0.0160
 1219HK4    C11 2347   3.935   6.947   7.101 -0.7680 -0.6037 -0.2389
 1219HK4     H4 2348   3.945   6.850   7.050  2.7976 -0.5235  0.1306
 1219HK4    C12 2349   3.937   7.064   7.025  0.3080 -0.3449  0.1694
 1219HK4     H5 2350   3.969   7.053   6.920 -1.0643 -0.5790 -0.2258
 1219HK4    C13 2351   3.910   7.186   7.086 -0.8062 -0.5644  0.1196
 1219HK4     H6 2352   3.911   7.281   7.031 -1.7376 -1.5397 -1.6749
 1219HK4     C7 2353   3.901   6.828   7.313 -0.5921 -0.1249 -0.3093
 1219HK4     O2 2354   3.947   6.726   7.263 -0.2552 -0.4120  0.5686
 1219HK4     C4 2355   3.854   6.833   7.454  0.0182 -0.0235 -0.1127
 1219HK4     C3 2356   3.856   6.710   7.519  0.4629  0.0637  0.0484
 1219HK4     H3 2357   3.909   6.624   7.477  1.3626  0.7853 -0.2884
 1219HK4     C2 2358   3.818   6.709   7.653 -0.0705  0.2770 -0.0987
 1219HK4     H2 2359   3.829   6.615   7.709 -2.9925  0.1881  0.4343
 1219HK4     C1 2360   3.778   6.825   7.719 -0.0135  0.2323  0.0136
 1219HK4     H1 2361   3.754   6.816   7.826  3.2413 -0.7676  0.6960
 1219HK4     C6 2362   3.774   6.950   7.655  0.3036  0.0908 -0.2858
 1219HK4     C5 2363   3.811   6.949   7.520 -0.5689 -0.0092 -0.5252
 1219HK4    C10 2364   3.807   7.071   7.434 -0.2566  0.3364 -0.0528
 1219HK4     O1 2365   3.714   7.148   7.458 -0.5412 -0.1199  0.3056
 1219HK4    C16 2366   3.717   7.055   7.741  0.0601 -0.1898 -0.1089
 1219HK4    C15 2367   3.636   7.027   7.853  0.8528 -0.8203  0.3157
 1219HK4     H7 2368   3.560   6.950   7.836  0.6948 -0.6982  0.4592
 1219HK4    C20 2369   3.649   7.096   7.973 -0.4410  0.4185 -0.2300
 1219HK4     H9 2370   3.584   7.071   8.057 -0.6916 -1.2945 -0.9174
 1219HK4    C19 2371   3.741   7.199   7.987  0.0415 -0.0411  0.0111
 1219HK4    C18 2372   3.800   7.253   7.865  0.4968 -0.2122  0.1526
 1219HK4    C17 2373   3.786   7.175   7.751  0.0269 -0.1975  0.1991
 1219HK4     H8 2374   3.831   7.211   7.659 -0.3990  0.2502  0.1595
 1219HK4     N1 2375   3.878   7.366   7.897  0.3670 -0.0441 -0.1252
 1219HK4    C21 2376   3.891   7.368   8.037  0.6064 -0.5305 -0.1376
 1219HK4    C22 2377   3.802   7.271   8.097  0.4322 -0.3043 -0.0316
 1219HK4    C26 2378   3.811   7.245   8.233  0.1038 -0.1598  0.0227
 1219HK4    H13 2379   3.738   7.184   8.286 -1.3631  0.9048 -0.7460
 1219HK4    C25 2380   3.910   7.307   8.309 -0.2301 -0.1227  0.4291
 1219HK4    H12 2381   3.913   7.283   8.415 -0.2789 -2.3417 -0.0422
 1219HK4    C24 2382   3.999   7.397   8.251 -0.0168 -0.3084  0.4756
 1219HK4    H11 2383   4.075   7.446   8.314  0.9222  0.6461 -1.3646
 1219HK4    C23 2384   3.989   7.427   8.116  0.0453 -0.3818  0.4518
 1219HK4    H10 2385   4.066   7.482   8.061  0.2859 -0.2325  0.9333
 1219HK4    C39 2386   3.880   7.482   7.819  0.2712 -0.3865 -0.6452
 1219HK4    C41 2387   3.984   7.578   7.826  0.2671 -0.4051 -0.3308
 1219HK4    H21 2388   4.085   7.554   7.862  0.7400  3.8779  1.3982
 1219HK4    C42 2389   3.967   7.708   7.781  0.1050 -0.3679 -0.1660
 1219HK4    H22 2390   4.043   7.788   7.785 -2.0240  1.7467 -0.7632
 1219HK4    C43 2391   3.847   7.746   7.721  0.0458  0.0969  0.2432
 1219HK4    H23 2392   3.846   7.841   7.669  1.1464 -0.2010 -0.3321
 1219HK4    C44 2393   3.749   7.648   7.704  0.0766 -0.0095  0.6759
 1219HK4    H24 2394   3.656   7.677   7.654  0.3506  0.8696  0.6666
 1219HK4    C45 2395   3.762   7.518   7.751  0.0549 -0.3510 -0.2511
 1219HK4    H25 2396   3.693   7.440   7.715 -3.9319  1.4103  3.0648
 1220HK4    H28 2397   5.438   9.015   0.501 -1.2157 -0.7706 -0.1126
 1220HK4    C48 2398   5.375   9.074   0.568 -0.0010 -0.1007  0.4507
 1220HK4    C47 2399   5.239   9.095   0.548  0.1286  0.0327 -0.3051
 1220HK4    H27 2400   5.187   9.037   0.471 -0.3675 -0.0852  0.1154
 1220HK4    C46 2401   5.164   9.167   0.640  0.6734  0.3861 -0.1290
 1220HK4    H26 2402   5.080   9.224   0.597 -0.5606 -1.4517 -0.2231
 1220HK4    C40 2403   5.222   9.212   0.761  0.4799  0.2532  0.0156
 1220HK4    C50 2404   5.357   9.181   0.785  0.4770  0.4789  0.3246
 1220HK4    H30 2405   5.405   9.194   0.883 -1.3460  0.0388  1.2756
 1220HK4    C49 2406   5.433   9.119   0.686  0.0699 -0.2430  0.4690
 1220HK4    H29 2407   5.538   9.089   0.696  0.6556  0.3597 -3.3139
 1220HK4     N2 2408   5.155   9.282   0.861 -0.1901  0.2343 -0.4149
 1220HK4    C30 2409   5.015   9.286   0.878 -0.2229 -0.0856 -0.5975
 1220HK4    C29 2410   4.916   9.197   0.837 -0.6066  0.0280  0.0904
 1220HK4    H15 2411   4.948   9.106   0.789  2.2615 -0.0019  1.9450
 1220HK4    C28 2412   4.782   9.214   0.871 -0.4797 -0.0996  0.6672
 1220HK4    C27 2413   4.750   9.313   0.966 -0.3250  0.3332  0.2649
 1220HK4    H14 2414   4.646   9.316   1.002 -1.3564 -0.8363 -2.4765
 1220HK4    C32 2415   4.842   9.411   1.001  0.0507  0.1085 -0.0825
 1220HK4    H16 2416   4.816   9.479   1.083  0.9049  3.0851 -2.1806
 1220HK4    C31 2417   4.971   9.404   0.951  0.2048 -0.5435  0.4060
 1220HK4    C34 2418   5.093   9.480   0.975  0.2306 -0.6022  0.4495
 1220HK4    C33 2419   5.202   9.400   0.922  0.2821  0.0699 -0.4581
 1220HK4    C35 2420   5.329   9.430   0.969  0.2056  0.1866 -0.3234
 1220HK4    H17 2421   5.422   9.398   0.923  1.5041  2.0630  0.8983
 1220HK4    C36 2422   5.352   9.526   1.068  0.0222 -0.0650 -0.0346
 1220HK4    H18 2423   5.450   9.518   1.118 -1.2204 -2.6363  2.1044
 1220HK4    C37 2424   5.248   9.604   1.117 -0.0017  0.0226 -0.2210
 1220HK4    H19 2425   5.261   9.641   1.219 -1.1410  2.2914 -0.8693
 1220HK4    C38 2426   5.120   9.579   1.067 -0.1502 -0.4292  0.3790
 1220HK4    H20 2427   5.047   9.659   1.081  0.1071 -0.0626 -0.3945
 1220HK4    C14 2428   4.680   9.118   0.826 -0.4043  0.1166  0.0330
 1220HK4     C9 2429   4.679   9.064   0.697 -0.3754  0.3000 -0.0444
 1220HK4     C8 2430   4.655   8.926   0.679  0.1111  0.1875  0.1812
 1220HK4    C11 2431   4.623   8.844   0.786 -0.0740 -0.3234 -0.2647
 1220HK4     H4 2432   4.628   8.735   0.773  2.3658 -0.2579 -0.0184
 1220HK4    C12 2433   4.606   8.898   0.913 -0.3572  0.4325 -0.6246
 1220HK4     H5 2434   4.570   8.836   0.996  0.7286  0.1310 -0.3722
 1220HK4    C13 2435   4.635   9.033   0.929  0.1658  0.2013  0.3505
 1220HK4     H6 2436   4.630   9.060   1.035 -1.9493 -0.9599  0.5616
 1220HK4     C7 2437   4.640   8.864   0.545 -0.3961 -0.1847  0.4096
 1220HK4     O2 2438   4.694   8.756   0.522  0.3420  0.1833  0.3945
 1220HK4     C4 2439   4.627   8.956   0.430  0.0555 -0.1216  0.4086
 1220HK4     C3 2440   4.574   8.905   0.312 -0.0595  0.4734  0.1978
 1220HK4     H3 2441   4.538   8.801   0.311  0.1736  0.3946 -0.0252
 1220HK4     C2 2442   4.564   8.979   0.195 -0.2102 -0.1327 -0.1768
 1220HK4     H2 2443   4.499   8.941   0.116 -1.2245 -0.4250  0.7823
 1220HK4     C1 2444   4.613   9.109   0.202  0.1904 -0.3004  0.2609
 1220HK4     H1 2445   4.633   9.164   0.108 -1.9014  0.4760  0.2504
 1220HK4     C6 2446   4.661   9.169   0.320 -0.1214  0.3225  0.0727
 1220HK4     C5 2447   4.661   9.093   0.438  0.1661 -0.1139 -0.2087
 1220HK4    C10 2448   4.683   9.149   0.574  0.3897 -0.0488 -0.2694
 1220HK4     O1 2449   4.643   9.264   0.593  0.2037 -0.1836  0.1825
 1220HK4    C16 2450   4.684   9.313   0.308  0.0053  0.2876 -0.0901
 1220HK4    C15 2451   4.621   9.401   0.217  0.3579 -0.0017 -0.6165
 1220HK4     H7 2452   4.526   9.370   0.171  0.8903 -2.0244 -0.4199
 1220HK4    C20 2453   4.666   9.530   0.193  0.1533  0.0843 -0.5437
 1220HK4     H9 2454   4.603   9.590   0.127 -1.0552 -2.6084 -1.9024
 1220HK4    C19 2455   4.780   9.579   0.255 -0.1900  0.1103  0.0640
 1220HK4    C18 2456   4.852   9.489   0.343  0.2774  0.0575 -0.3714
 1220HK4    C17 2457   4.802   9.361   0.364 -0.1155  0.2980  0.1536
 1220HK4     H8 2458   4.852   9.307   0.444  2.5817 -0.1691 -1.7912
 1220HK4     N1 2459   4.929   9.565   0.433  0.1873 -0.4621  0.1483
 1220HK4    C21 2460   4.903   9.702   0.412  0.3438 -0.4918 -0.2183
 1220HK4    C22 2461   4.821   9.713   0.292 -0.3833  0.0959  0.3324
 1220HK4    C26 2462   4.774   9.838   0.252  0.2560  0.0954 -0.4243
 1220HK4    H13 2463   4.687   9.839   0.186 -0.9788 -1.9570  1.0748
 1220HK4    C25 2464   4.802   9.947   0.333 -0.5806 -0.5619  0.7574
 1220HK4    H12 2465   4.740  10.035   0.322 -1.6174 -1.1645  1.6143
 1220HK4    C24 2466   4.878   9.942   0.450  0.4525 -1.1284  0.0645
 1220HK4    H11 2467   4.896  10.034   0.508 -0.3342 -0.0955 -1.2871
 1220HK4    C23 2468   4.930   9.818   0.484  0.5926 -0.9630  0.4459
 1220HK4    H10 2469   5.015   9.819   0.552 -0.2792  0.8353  1.5617
 1220HK4    C39 2470   5.041   9.525   0.506  0.5549  0.1695 -0.0626
 1220HK4    C41 2471   5.074   9.588   0.628 -0.0499  0.3345  0.0154
 1220HK4    H21 2472   4.993   9.626   0.692 -1.7293 -2.9703  0.0017
 1220HK4    C42 2473   5.208   9.597   0.662 -0.0848 -0.3718  0.3706
 1220HK4    H22 2474   5.243   9.666   0.740  1.0259  1.4870 -1.6878
 1220HK4    C43 2475   5.311   9.544   0.586 -0.1820 -0.0762  0.0279
 1220HK4    H23 2476   5.408   9.538   0.636 -0.3958 -2.9270  0.2157
 1220HK4    C44 2477   5.276   9.460   0.480 -0.1209  0.0860 -0.1201
 1220HK4    H24 2478   5.343   9.376   0.459 -1.4488 -0.7013 -1.3135
 1220HK4    C45 2479   5.143   9.455   0.439  0.0803  0.1607 -0.7760
 1220HK4    H25 2480   5.109   9.375   0.372  1.3106 -1.9014  0.9823
 1221HK4    H28 2481   7.425   7.960   4.315 -0.7378 -2.1414 -1.4222
 1221HK4    C48 2482   7.495   8.013   4.250 -0.6993 -0.3454  0.0437
 1221HK4    C47 2483   7.597   7.940   4.191 -0.4995 -0.1680  0.1686
 1221HK4    H27 2484   7.596   7.830   4.199  1.9423 -0.0961  2.2010
 1221HK4    C46 2485   7.703   8.004   4.127 -0.3064 -0.5733  0.0800
 1221HK4    H26 2486   7.786   7.947   4.085  0.0431  0.3811 -0.5346
 1221HK4    C40 2487   7.703   8.143   4.105  0.0267 -0.7040 -0.7526
 1221HK4    C50 2488   7.599   8.213   4.169  0.3080 -0.9217 -0.0517
 1221HK4    H30 2489   7.605   8.323   4.177  2.3025 -1.2116  3.6338
 1221HK4    C49 2490   7.499   8.152   4.245 -0.4252 -0.3729 -0.5636
 1221HK4    H29 2491   7.445   8.212   4.319  0.6897 -1.8709  1.5260
 1221HK4     N2 2492   7.752   8.213   3.994 -0.4473  0.2819 -0.3423
 1221HK4    C30 2493   7.760   8.163   3.863 -0.8553 -0.0217 -0.2518
 1221HK4    C29 2494   7.806   8.039   3.819  0.6569  0.1663  0.7665
 1221HK4    H15 2495   7.785   7.950   3.878  1.2213 -0.9108 -0.6444
 1221HK4    C28 2496   7.866   8.017   3.696 -0.2468  0.5910  0.2492
 1221HK4    C27 2497   7.877   8.132   3.615  0.3484  0.1493 -0.3042
 1221HK4    H14 2498   7.934   8.122   3.521 -1.6938 -0.5823 -1.4872
 1221HK4    C32 2499   7.828   8.259   3.646  0.2539  0.0537 -0.0546
 1221HK4    H16 2500   7.823   8.342   3.575  1.1676  0.6234  0.5495
 1221HK4    C31 2501   7.783   8.277   3.776  0.0035 -0.0941 -0.1206
 1221HK4    C34 2502   7.800   8.393   3.861 -0.1130  0.0629 -0.3087
 1221HK4    C33 2503   7.793   8.348   3.998  0.2825  0.0595 -0.2899
 1221HK4    C35 2504   7.837   8.432   4.100  0.4452 -0.3990  0.0174
 1221HK4    H17 2505   7.840   8.388   4.200  1.2644 -3.5041 -1.3195
 1221HK4    C36 2506   7.888   8.559   4.074  0.6376 -0.4722  0.0168
 1221HK4    H18 2507   7.943   8.603   4.158 -0.0730  0.5791 -0.0634
 1221HK4    C37 2508   7.876   8.610   3.945 -0.5795 -0.0120  0.3087
 1221HK4    H19 2509   7.918   8.709   3.928 -0.7487  0.4023  2.1448
 1221HK4    C38 2510   7.833   8.527   3.842  0.0798  0.0527 -0.0209
 1221HK4    H20 2511   7.835   8.563   3.739  1.0673 -1.7747 -0.6663
 1221HK4    C14 2512   7.958   7.902   3.686 -0.6564  0.3037 -0.2306
 1221HK4     C9 2513   8.079   7.907   3.617 -0.7350  0.2104 -0.3740
 1221HK4     C8 2514   8.124   7.795   3.543  0.1562  0.1704  0.2187
 1221HK4    C11 2515   8.043   7.682   3.536  0.0638  0.2203  0.4388
 1221HK4     H4 2516   8.075   7.593   3.481 -1.9010 -0.9820  1.2006
 1221HK4    C12 2517   7.925   7.670   3.607  0.1905 -0.0093  0.6118
 1221HK4     H5 2518   7.884   7.570   3.625 -1.1344  0.7895  2.2624
 1221HK4    C13 2519   7.888   7.780   3.685 -0.0182 -0.0731  0.6025
 1221HK4     H6 2520   7.787   7.774   3.727 -0.2331 -1.1091 -0.0375
 1221HK4     C7 2521   8.249   7.804   3.464  0.2112  0.1438  0.3050
 1221HK4     O2 2522   8.296   7.705   3.408  0.4361  0.4767 -0.0956
 1221HK4     C4 2523   8.319   7.934   3.469  0.9666 -0.2691  0.5938
 1221HK4     C3 2524   8.415   7.960   3.372  0.5800 -0.3349  0.1910
 1221HK4     H3 2525   8.412   7.907   3.276  1.3397  0.7955 -0.4622
 1221HK4     C2 2526   8.509   8.061   3.388  0.0150  0.1895  0.2346
 1221HK4     H2 2527   8.569   8.089   3.300 -0.8009  0.3916 -0.2623
 1221HK4     C1 2528   8.514   8.125   3.512  0.8516 -0.2328  0.4234
 1221HK4     H1 2529   8.598   8.195   3.524 -1.0075  2.5421 -1.8934
 1221HK4     C6 2530   8.422   8.097   3.614 -0.1172  0.0919 -0.3544
 1221HK4     C5 2531   8.314   8.013   3.585 -0.0539 -0.3213  0.5897
 1221HK4    C10 2532   8.181   8.011   3.652 -0.2390 -0.4709  0.2203
 1221HK4     O1 2533   8.154   8.100   3.733  0.2779 -0.0255 -0.0961
 1221HK4    C16 2534   8.445   8.150   3.749 -0.3288  0.4555 -0.4596
 1221HK4    C15 2535   8.545   8.249   3.767 -0.2024  0.2219  0.1486
 1221HK4     H7 2536   8.535   8.324   3.688 -0.7886  1.2645  1.1999
 1221HK4    C20 2537   8.606   8.278   3.889  0.1895 -0.2856  0.0758
 1221HK4     H9 2538   8.676   8.361   3.896  0.0116 -0.2670  1.8097
 1221HK4    C19 2539   8.571   8.209   4.004 -0.3911  0.1196  0.1435
 1221HK4    C18 2540   8.470   8.107   3.985  0.1929 -0.4056 -0.1675
 1221HK4    C17 2541   8.414   8.074   3.862  0.6505  0.0176 -0.4839
 1221HK4     H8 2542   8.372   7.975   3.845 -0.3035  0.3426 -0.0433
 1221HK4     N1 2543   8.450   8.029   4.101  0.1052  0.2537  0.2591
 1221HK4    C21 2544   8.544   8.081   4.193  0.6523 -0.1100 -0.0923
 1221HK4    C22 2545   8.628   8.184   4.135 -0.0254  0.5294  0.0626
 1221HK4    C26 2546   8.754   8.223   4.181  0.2070  0.1164 -0.2288
 1221HK4    H13 2547   8.807   8.310   4.144 -0.1855  0.7617  0.7060
 1221HK4    C25 2548   8.801   8.152   4.291 -0.1011  0.0589 -0.1330
 1221HK4    H12 2549   8.896   8.186   4.334  0.4788 -2.0454  0.3237
 1221HK4    C24 2550   8.721   8.059   4.356  0.3824 -0.0792  0.2659
 1221HK4    H11 2551   8.745   8.034   4.460 -0.8108 -0.2288  0.5061
 1221HK4    C23 2552   8.595   8.026   4.310  0.3199  0.2222  0.2104
 1221HK4    H10 2553   8.530   7.979   4.383  1.9646  1.0516  2.2386
 1221HK4    C39 2554   8.335   7.953   4.124 -0.0078  0.2597 -0.2737
 1221HK4    C41 2555   8.220   7.964   4.045 -0.2111  0.2954  0.0282
 1221HK4    H21 2556   8.181   8.060   4.006 -2.1830 -0.4112  0.1986
 1221HK4    C42 2557   8.135   7.855   4.032  0.2582 -0.0807  0.1208
 1221HK4    H22 2558   8.043   7.869   3.972  0.9169  0.6384 -0.7508
 1221HK4    C43 2559   8.155   7.730   4.088  0.1324 -0.2801 -0.2726
 1221HK4    H23 2560   8.092   7.643   4.071 -1.4472  0.3059  2.3094
 1221HK4    C44 2561   8.269   7.718   4.167 -0.0263  0.0572  0.0104
 1221HK4    H24 2562   8.285   7.627   4.227  1.4933 -0.4590 -1.1564
 1221HK4    C45 2563   8.353   7.827   4.186 -0.4899  0.3934  0.1421
 1221HK4    H25 2564   8.446   7.811   4.243 -0.6609 -3.0335 -0.4562
 1222HK4    H28 2565   7.692   7.675   7.764  0.8246 -1.2141 -2.2922
 1222HK4    C48 2566   7.590   7.646   7.742 -0.0822  0.0469  0.0948
 1222HK4    C47 2567   7.562   7.549   7.646  0.0387  0.4762 -0.3771
 1222HK4    H27 2568   7.648   7.502   7.596 -1.0336 -2.5954  0.5118
 1222HK4    C46 2569   7.435   7.497   7.626  0.2160 -0.4191  0.7649
 1222HK4    H26 2570   7.420   7.421   7.548 -0.8918  1.6716 -1.1166
 1222HK4    C40 2571   7.323   7.539   7.700 -0.1219 -0.3795  0.2315
 1222HK4    C50 2572   7.356   7.638   7.795  0.0623 -0.2356  0.0149
 1222HK4    H30 2573   7.283   7.671   7.871 -0.6132  2.7858 -1.8230
 1222HK4    C49 2574   7.479   7.701   7.806 -0.2414  0.4805 -0.5424
 1222HK4    H29 2575   7.502   7.802   7.843 -2.2474  1.1604 -1.1122
 1222HK4     N2 2576   7.194   7.543   7.645 -0.0548  0.8009  0.1513
 1222HK4    C30 2577   7.155   7.526   7.511  0.0202 -0.3132  0.2694
 1222HK4    C29 2578   7.222   7.558   7.393 -0.1706  0.3043  0.3282
 1222HK4    H15 2579   7.292   7.641   7.400 -2.6255  2.6000 -1.4128
 1222HK4    C28 2580   7.166   7.533   7.269  0.2943 -0.4610  0.2720
 1222HK4    C27 2581   7.034   7.482   7.263 -0.1620  0.8130 -0.6679
 1222HK4    H14 2582   7.008   7.460   7.158  2.4285 -3.3045 -0.5403
 1222HK4    C32 2583   6.963   7.451   7.378  0.1605  0.5730 -0.5325
 1222HK4    H16 2584   6.854   7.443   7.372  0.1174 -1.5771  2.2351
 1222HK4    C31 2585   7.018   7.480   7.502  0.0937 -0.4336 -0.2669
 1222HK4    C34 2586   6.968   7.481   7.638  0.1167  0.5258 -0.2612
 1222HK4    C33 2587   7.081   7.513   7.723  0.3131 -0.9198  0.0430
 1222HK4    C35 2588   7.068   7.507   7.862 -0.1881  0.8330  0.0856
 1222HK4    H17 2589   7.147   7.550   7.924  0.3933 -0.1809  0.0638
 1222HK4    C36 2590   6.945   7.473   7.917  0.1540  0.2682  0.5063
 1222HK4    H18 2591   6.931   7.488   8.025 -0.0568  0.2729  0.4772
 1222HK4    C37 2592   6.835   7.443   7.838  0.3302 -0.6354  0.5957
 1222HK4    H19 2593   6.757   7.380   7.882 -0.0580 -1.7568 -1.6305
 1222HK4    C38 2594   6.849   7.443   7.700  0.8793 -0.4255  0.6497
 1222HK4    H20 2595   6.774   7.385   7.646 -2.6395  3.3943  1.2210
 1222HK4    C14 2596   7.232   7.595   7.153  0.4061  0.0504  0.6095
 1222HK4     C9 2597   7.172   7.656   7.042  0.1790 -0.3925  0.4876
 1222HK4     C8 2598   7.230   7.640   6.914 -0.3994  0.4983  0.1054
 1222HK4    C11 2599   7.350   7.570   6.901 -0.8788 -0.2883 -0.1678
 1222HK4     H4 2600   7.403   7.570   6.805 -1.1049 -1.1350 -0.2968
 1222HK4    C12 2601   7.415   7.519   7.013 -0.5393 -0.4988 -0.4630
 1222HK4     H5 2602   7.519   7.484   7.005 -0.4780 -0.3522 -0.3156
 1222HK4    C13 2603   7.361   7.540   7.139  0.2602 -0.0939 -0.1787
 1222HK4     H6 2604   7.426   7.539   7.228 -0.3190  0.3256  0.2567
 1222HK4     C7 2605   7.164   7.700   6.797  0.1525  0.1016 -0.4136
 1222HK4     O2 2606   7.223   7.710   6.689 -0.5617  0.4484 -0.7762
 1222HK4     C4 2607   7.041   7.779   6.821 -0.0090 -0.1996 -0.2499
 1222HK4     C3 2608   6.980   7.834   6.709 -0.4930 -0.1352  0.0416
 1222HK4     H3 2609   7.028   7.813   6.612 -0.2242  1.2022 -0.1242
 1222HK4     C2 2610   6.861   7.904   6.710  0.0324  0.7665 -0.1444
 1222HK4     H2 2611   6.823   7.968   6.628 -3.0390 -0.2238  0.4413
 1222HK4     C1 2612   6.795   7.890   6.831  0.3523 -0.1961 -0.0803
 1222HK4     H1 2613   6.693   7.931   6.837 -0.1246 -1.4180  0.2715
 1222HK4     C6 2614   6.838   7.824   6.948  0.5232  0.4371  0.2141
 1222HK4     C5 2615   6.973   7.786   6.944  0.4570  0.2257 -0.0132
 1222HK4    C10 2616   7.055   7.746   7.062 -0.1282 -0.7002  0.0896
 1222HK4     O1 2617   7.051   7.820   7.160  0.1684 -0.2126 -0.2603
 1222HK4    C16 2618   6.733   7.773   7.038  0.4777  0.1118 -0.0251
 1222HK4    C15 2619   6.602   7.753   6.992  0.4267  0.0674  0.1397
 1222HK4     H7 2620   6.588   7.738   6.884 -0.7105 -1.5866  0.4891
 1222HK4    C20 2621   6.493   7.729   7.075  0.5022 -0.5677  0.0582
 1222HK4     H9 2622   6.392   7.722   7.034  0.3872 -0.6641  0.3590
 1222HK4    C19 2623   6.508   7.705   7.211 -0.2873 -0.8061  0.1070
 1222HK4    C18 2624   6.640   7.728   7.266 -0.5688  0.5060  0.2591
 1222HK4    C17 2625   6.740   7.761   7.176 -0.6391  0.1263  0.0388
 1222HK4     H8 2626   6.834   7.764   7.231 -0.3344  1.4319 -0.5297
 1222HK4     N1 2627   6.636   7.704   7.405 -0.4671  0.3443  0.2345
 1222HK4    C21 2628   6.503   7.665   7.432 -0.2038 -0.5147  0.2781
 1222HK4    C22 2629   6.414   7.681   7.319 -0.1923 -0.3612  0.2916
 1222HK4    C26 2630   6.283   7.635   7.312 -0.1515 -0.3887 -0.3700
 1222HK4    H13 2631   6.222   7.662   7.226  0.6219 -0.3115 -0.8987
 1222HK4    C25 2632   6.227   7.596   7.433 -0.4117 -0.9525 -0.6695
 1222HK4    H12 2633   6.122   7.566   7.432 -0.0218 -2.4789  0.8950
 1222HK4    C24 2634   6.305   7.594   7.548 -0.4444  0.5598 -0.6209
 1222HK4    H11 2635   6.264   7.550   7.640  3.2493  2.9812  2.3579
 1222HK4    C23 2636   6.441   7.625   7.549 -0.2817 -0.1622  0.3555
 1222HK4    H10 2637   6.496   7.606   7.641 -0.4533 -1.7939  0.1397
 1222HK4    C39 2638   6.718   7.771   7.497 -0.2132  0.1651  0.1363
 1222HK4    C41 2639   6.801   7.882   7.467 -0.5966  0.4052 -0.0374
 1222HK4    H21 2640   6.776   7.942   7.379  0.9114 -0.1223 -0.8260
 1222HK4    C42 2641   6.901   7.925   7.553 -0.6624 -0.2494  0.3742
 1222HK4    H22 2642   6.974   8.001   7.523  1.0398 -1.8106  0.4709
 1222HK4    C43 2643   6.919   7.863   7.676  0.6501  0.0987  0.3621
 1222HK4    H23 2644   7.016   7.864   7.726  0.0449  2.3581  1.5816
 1222HK4    C44 2645   6.826   7.769   7.718  0.5090 -0.3671 -0.9659
 1222HK4    H24 2646   6.835   7.710   7.811 -1.4395  0.7104 -0.0630
 1222HK4    C45 2647   6.736   7.717   7.626 -0.6584 -0.1837  0.0540
 1222HK4    H25 2648   6.695   7.616   7.642  0.1817 -0.8744 -1.9965
 1223HK4    H28 2649   8.655   1.085  10.956 -1.0866  1.0823  0.8834
 1223HK4    C48 2650   8.695   1.000  11.012  0.2612  0.4394 -1.0191
 1223HK4    C47 2651   8.801   1.019  11.101 -0.2947 -0.0517 -0.2444
 1223HK4    H27 2652   8.803   1.112  11.159 -0.5097 -1.1748  1.6097
 1223HK4    C46 2653   8.879   0.907  11.129  0.3553  0.4044 -0.2415
 1223HK4    H26 2654   8.970   0.919  11.189 -0.5717  1.5945  0.9549
 1223HK4    C40 2655   8.856   0.779  11.075  0.4969  0.4817 -0.4877
 1223HK4    C50 2656   8.738   0.765  10.999 -0.1585  0.0609  0.5986
 1223HK4    H30 2657   8.707   0.662  10.973  2.1045 -0.3629 -0.5638
 1223HK4    C49 2658   8.661   0.875  10.963  0.1688  0.0801 -0.0450
 1223HK4    H29 2659   8.576   0.856  10.896  1.6537 -1.7433 -1.4565
 1223HK4     N2 2660   8.964   0.691  11.060 -0.0788 -0.1833 -0.7735
 1223HK4    C30 2661   9.100   0.719  11.035  0.0853  0.1023  0.4190
 1223HK4    C29 2662   9.149   0.843  10.994  0.4852 -0.2387 -0.1325
 1223HK4    H15 2663   9.078   0.920  10.962  0.4090 -0.2305  0.0567
 1223HK4    C28 2664   9.285   0.867  10.988  0.4849 -0.1823  0.0237
 1223HK4    C27 2665   9.371   0.759  11.020  0.2115 -0.4185 -0.0461
 1223HK4    H14 2666   9.480   0.770  11.032  0.2433 -1.8268  1.1407
 1223HK4    C32 2667   9.323   0.633  11.053  0.0996 -0.2097  0.5993
 1223HK4    H16 2668   9.389   0.556  11.095  2.1360  2.5102  2.5915
 1223HK4    C31 2669   9.187   0.606  11.059  0.0369  0.1369  0.7518
 1223HK4    C34 2670   9.099   0.498  11.097  0.0055  0.0629  0.4646
 1223HK4    C33 2671   8.966   0.556  11.098 -0.0166  0.0312 -0.0090
 1223HK4    C35 2672   8.871   0.484  11.171 -0.2410  0.1685 -0.1707
 1223HK4    H17 2673   8.770   0.520  11.190 -1.3684 -2.7263 -0.4324
 1223HK4    C36 2674   8.897   0.364  11.235 -0.2469 -0.0179 -0.5141
 1223HK4    H18 2675   8.809   0.309   0.023  0.0053 -0.1563 -0.1015
 1223HK4    C37 2676   9.020   0.300  11.224 -0.0366  0.2519  0.2660
 1223HK4    H19 2677   9.044   0.227   0.053 -2.5002  0.5935  1.3977
 1223HK4    C38 2678   9.117   0.373  11.156  0.0829 -0.1393  0.0159
 1223HK4    H20 2679   9.216   0.330  11.143 -0.9419 -2.7648  0.5014
 1223HK4    C14 2680   9.337   0.979  10.908 -0.0358 -0.2116 -0.3530
 1223HK4     C9 2681   9.467   0.981  10.857  0.1033 -0.1656 -0.0032
 1223HK4     C8 2682   9.541   1.099  10.879 -0.5218  0.2077  0.0968
 1223HK4    C11 2683   9.477   1.214  10.926 -0.0562  0.3280  0.4330
 1223HK4     H4 2684   9.543   1.293  10.965 -1.8410  1.6576  0.7753
 1223HK4    C12 2685   9.345   1.218  10.967 -0.1821 -0.3897  0.0989
 1223HK4     H5 2686   9.304   1.302  11.024  1.6306  0.3390  0.3265
 1223HK4    C13 2687   9.275   1.098  10.950 -0.1541 -0.3907 -0.0124
 1223HK4     H6 2688   9.173   1.098  10.989  0.7859  0.0157  2.5571
 1223HK4     C7 2689   9.669   1.126  10.809 -0.5567  0.5899  0.1790
 1223HK4     O2 2690   9.753   1.192  10.870 -0.6435  0.3534  0.5542
 1223HK4     C4 2691   9.696   1.040  10.692  0.1076  0.2603  0.5689
 1223HK4     C3 2692   9.817   1.048  10.625 -0.1586 -0.3978  0.0037
 1223HK4     H3 2693   9.905   1.106  10.657  1.7937 -2.2104 -1.8927
 1223HK4     C2 2694   9.845   0.981  10.506  0.1412  0.0936 -0.2067
 1223HK4     H2 2695   9.944   0.977  10.458  1.0684  1.1114  1.5749
 1223HK4     C1 2696   9.740   0.912  10.447  0.3349 -0.2791 -0.1168
 1223HK4     H1 2697   9.756   0.853  10.355 -0.6528 -0.9239  0.1194
 1223HK4     C6 2698   9.614   0.897  10.508  0.3459 -0.0438 -0.0324
 1223HK4     C5 2699   9.600   0.954  10.636  0.6413  0.0633 -0.0449
 1223HK4    C10 2700   9.499   0.903  10.734  0.1279  0.4319 -0.3752
 1223HK4     O1 2701   9.443   0.794  10.728 -0.0441  0.4863  0.2727
 1223HK4    C16 2702   9.509   0.815  10.446 -0.0724  0.4730 -0.0062
 1223HK4    C15 2703   9.546   0.699  10.376 -0.2472  0.1107  0.5015
 1223HK4     H7 2704   9.648   0.661  10.396 -1.2751 -2.4259  1.2315
 1223HK4    C20 2705   9.467   0.639  10.279 -0.0500  0.4818  0.1130
 1223HK4     H9 2706   9.522   0.569  10.216 -0.4232  1.5508 -1.4307
 1223HK4    C19 2707   9.338   0.687  10.258 -0.1557  0.2732  0.2697
 1223HK4    C18 2708   9.292   0.798  10.339  0.0559  0.3552  0.2781
 1223HK4    C17 2709   9.380   0.863  10.424 -0.1922  0.3950  0.5054
 1223HK4     H8 2710   9.351   0.957  10.471 -3.2341  0.7527 -1.9028
 1223HK4     N1 2711   9.163   0.842  10.301 -0.0486 -0.0886  0.1152
 1223HK4    C21 2712   9.139   0.768  10.183  0.0768 -0.1546  0.1341
 1223HK4    C22 2713   9.233   0.659  10.163  0.4714  0.2850 -0.4337
 1223HK4    C26 2714   9.233   0.594  10.040  0.0504 -0.6612  0.0637
 1223HK4    H13 2715   9.313   0.521  10.022 -0.6944 -0.9230 -2.3010
 1223HK4    C25 2716   9.153   0.631   9.933  0.1183 -0.0593  0.2171
 1223HK4    H12 2717   9.156   0.571   9.843  0.0859  0.3886 -0.0832
 1223HK4    C24 2718   9.065   0.737   9.951  0.2818  0.1560 -0.2412
 1223HK4    H11 2719   9.013   0.772   9.861 -1.2029  0.1622  0.5942
 1223HK4    C23 2720   9.062   0.804  10.073  0.3946 -0.1252 -0.0865
 1223HK4    H10 2721   8.997   0.892  10.084 -0.4641 -0.8221  0.5075
 1223HK4    C39 2722   9.065   0.887  10.389  0.0192  0.2480  0.0186
 1223HK4    C41 2723   8.938   0.935  10.350 -0.0823  0.0975  0.1717
 1223HK4    H21 2724   8.911   0.942  10.243 -0.6280 -1.6759  0.1718
 1223HK4    C42 2725   8.841   0.973  10.442 -0.0709 -0.2363  0.3205
 1223HK4    H22 2726   8.747   1.008  10.398 -0.2269 -0.0786  0.7749
 1223HK4    C43 2727   8.868   0.964  10.579 -0.0247 -0.0609  0.3251
 1223HK4    H23 2728   8.799   1.010  10.649  0.7744 -0.3081  1.2934
 1223HK4    C44 2729   8.994   0.920  10.616  0.2007  0.0291 -0.3206
 1223HK4    H24 2730   9.010   0.910  10.725  0.8628  0.7388 -0.3420
 1223HK4    C45 2731   9.096   0.891  10.526  0.5200  0.4770 -0.1021
 1223HK4    H25 2732   9.193   0.849  10.557  1.9280  1.5348 -2.8348
 1224HK4    H28 2733   9.859   3.346  10.504  0.3876 -0.2164  0.2443
 1224HK4    C48 2734   9.856   3.322  10.397  0.2808  0.5312  0.0757
 1224HK4    C47 2735   9.981   3.309  10.338  0.1648 -0.1650 -0.0204
 1224HK4    H27 2736  10.072   3.345  10.389 -1.6123  1.9836  1.7631
 1224HK4    C46 2737   9.987   3.255  10.210  0.2394  0.7820 -0.4230
 1224HK4    H26 2738  10.083   3.245  10.157  0.4551 -2.2939  0.4177
 1224HK4    C40 2739   9.870   3.201  10.152  0.4251 -0.8445  0.6703
 1224HK4    C50 2740   9.745   3.205  10.217  0.1654 -0.2221  0.1346
 1224HK4    H30 2741   9.668   3.136  10.179 -0.7055  1.2157 -0.7998
 1224HK4    C49 2742   9.742   3.266  10.342  0.6004 -0.1812  0.1254
 1224HK4    H29 2743   9.642   3.305  10.370  2.0506  1.5243  3.1624
 1224HK4     N2 2744   9.893   3.130  10.034 -0.4181 -0.1049  0.0568
 1224HK4    C30 2745   9.793   3.102   9.939 -0.0691  0.0674 -0.3686
 1224HK4    C29 2746   9.674   3.169   9.911 -0.0745  0.2108 -0.0085
 1224HK4    H15 2747   9.674   3.276   9.929 -1.9941  0.6109 -2.1362
 1224HK4    C28 2748   9.583   3.119   9.819  0.0782  0.1721 -0.1360
 1224HK4    C27 2749   9.616   3.003   9.745 -0.4776 -0.1941  0.1886
 1224HK4    H14 2750   9.551   2.958   9.669 -0.9258  0.6166  0.0831
 1224HK4    C32 2751   9.740   2.942   9.762 -0.1171  0.3054 -0.6098
 1224HK4    H16 2752   9.761   2.851   9.706  0.0404 -0.1435  0.1701
 1224HK4    C31 2753   9.828   2.986   9.859 -0.4680 -0.3033 -0.0098
 1224HK4    C34 2754   9.953   2.937   9.914 -0.2948  0.1765  0.0190
 1224HK4    C33 2755   9.992   3.032  10.016 -0.0947  0.2482 -0.1229
 1224HK4    C35 2756  10.104   2.996  10.091 -0.2046 -0.1471 -0.1508
 1224HK4    H17 2757  10.138   3.060  10.172 -2.3676  0.9960 -0.1091
 1224HK4    C36 2758  10.181   2.885  10.055  0.2131  0.2108 -0.3647
 1224HK4    H18 2759  10.267   2.853  10.116 -0.2584 -0.4150 -0.0248
 1224HK4    C37 2760  10.145   2.799   9.952 -0.5756  0.5665 -0.3959
 1224HK4    H19 2761  10.193   2.701   9.944  0.6830  1.0028  1.3901
 1224HK4    C38 2762  10.025   2.822   9.885 -0.5626  0.1500 -0.5598
 1224HK4    H20 2763   9.978   2.738   9.835  1.4854 -1.6229  0.3927
 1224HK4    C14 2764   9.448   3.177   9.816 -0.0692 -0.1697 -0.1541
 1224HK4     C9 2765   9.334   3.097   9.801 -0.5121  0.3674  0.3318
 1224HK4     C8 2766   9.234   3.135   9.709 -0.0669  0.2546 -0.2063
 1224HK4    C11 2767   9.238   3.264   9.657  0.5918  0.3583  0.0929
 1224HK4     H4 2768   9.169   3.286   9.574 -0.4496 -0.0952  0.8191
 1224HK4    C12 2769   9.339   3.354   9.689  0.5490  0.5056 -0.1869
 1224HK4     H5 2770   9.332   3.454   9.644 -0.9153 -0.1743 -1.5089
 1224HK4    C13 2771   9.445   3.309   9.768 -0.0737  0.0229  0.3786
 1224HK4     H6 2772   9.528   3.378   9.785 -0.8429  0.6123  1.8756
 1224HK4     C7 2773   9.114   3.050   9.694  0.2924 -0.2561 -0.1614
 1224HK4     O2 2774   9.040   3.067   9.597 -0.0444  0.2837  0.1859
 1224HK4     C4 2775   9.086   2.939   9.788  0.0655  0.0126  0.0887
 1224HK4     C3 2776   8.972   2.861   9.780  0.5683 -0.7080 -0.0805
 1224HK4     H3 2777   8.931   2.845   9.679  2.0493  0.1551 -0.8244
 1224HK4     C2 2778   8.928   2.772   9.878 -0.1509 -0.0429  0.2117
 1224HK4     H2 2779   8.843   2.704   9.865  0.0893 -0.2527 -0.3155
 1224HK4     C1 2780   9.005   2.767   9.994 -0.4601  0.2587  0.4249
 1224HK4     H1 2781   8.970   2.707  10.079 -1.6227 -0.2107 -0.3637
 1224HK4     C6 2782   9.122   2.845  10.007  0.2528 -0.6124 -0.6744
 1224HK4     C5 2783   9.167   2.926   9.903 -0.1401  0.9075  0.3323
 1224HK4    C10 2784   9.303   2.986   9.895  0.2135  0.1014  0.2635
 1224HK4     O1 2785   9.389   2.919   9.951  0.5495 -0.4064 -0.8595
 1224HK4    C16 2786   9.185   2.839  10.140  0.0744  0.4250 -0.5401
 1224HK4    C15 2787   9.165   2.727  10.223  0.7106  0.3978 -0.4252
 1224HK4     H7 2788   9.138   2.630  10.179 -0.6012  1.5238 -2.1447
 1224HK4    C20 2789   9.192   2.735  10.359  0.0657 -0.0296 -0.2739
 1224HK4     H9 2790   9.152   2.654  10.422 -0.4268  0.1588 -0.3432
 1224HK4    C19 2791   9.245   2.852  10.412  0.0259  0.0858 -0.4899
 1224HK4    C18 2792   9.276   2.964  10.326  0.1897  0.2984 -0.1570
 1224HK4    C17 2793   9.234   2.958  10.194 -0.5445  0.4024  0.0715
 1224HK4     H8 2794   9.220   3.048  10.134 -0.7019  0.9293  0.8942
 1224HK4     N1 2795   9.338   3.071  10.394 -0.2231  0.1013  0.5362
 1224HK4    C21 2796   9.350   3.028  10.527 -0.0665 -0.7145  0.2576
 1224HK4    C22 2797   9.300   2.892  10.540  0.6503 -1.0481 -0.3899
 1224HK4    C26 2798   9.315   2.826  10.662 -0.5153 -0.1342  0.2653
 1224HK4    H13 2799   9.248   2.743  10.684 -0.8831 -0.1319 -0.7977
 1224HK4    C25 2800   9.383   2.883  10.769  0.5755 -0.0213 -0.4881
 1224HK4    H12 2801   9.391   2.837  10.867 -1.3447  1.1778  0.2430
 1224HK4    C24 2802   9.440   3.008  10.750  0.4531  0.0803 -0.1845
 1224HK4    H11 2803   9.500   3.049  10.832  0.5915 -1.6275  0.5853
 1224HK4    C23 2804   9.425   3.080  10.632  0.1666 -0.0590 -0.2371
 1224HK4    H10 2805   9.488   3.168  10.616 -0.2876  0.0588 -1.4510
 1224HK4    C39 2806   9.386   3.189  10.335 -0.5894  0.1612  0.3544
 1224HK4    C41 2807   9.389   3.306  10.414  0.2100 -0.2603  0.9519
 1224HK4    H21 2808   9.378   3.295  10.523  2.3281 -0.9769  1.1124
 1224HK4    C42 2809   9.417   3.430  10.360 -0.4165 -0.6960 -0.3866
 1224HK4    H22 2810   9.417   3.517  10.428  0.4166 -1.4404  0.5702
 1224HK4    C43 2811   9.441   3.446  10.224 -0.4769  0.0546 -0.3150
 1224HK4    H23 2812   9.432   3.545  10.180 -1.2276  1.4112  2.7832
 1224HK4    C44 2813   9.437   3.332  10.144 -0.1996  0.1315 -0.4378
 1224HK4    H24 2814   9.461   3.340  10.037 -0.8167  0.7551 -0.5308
 1224HK4    C45 2815   9.416   3.206  10.199 -0.0924  0.5181  0.5018
 1224HK4    H25 2816   9.466   3.124  10.145 -0.8932 -0.0994  0.6875
 1225HK4    H28 2817   3.582   5.485   7.684 -2.0663  0.9721 -0.4320
 1225HK4    C48 2818   3.544   5.392   7.643 -0.0486 -0.2488  0.3913
 1225HK4    C47 2819   3.532   5.373   7.506 -0.6039  0.7815  0.2951
 1225HK4    H27 2820   3.576   5.448   7.439  0.6884  0.2347  0.5197
 1225HK4    C46 2821   3.470   5.263   7.446  0.5249  0.2287  0.1347
 1225HK4    H26 2822   3.452   5.262   7.338  3.4341 -2.6408 -0.3902
 1225HK4    C40 2823   3.415   5.159   7.522  0.5534 -0.2740 -0.5330
 1225HK4    C50 2824   3.437   5.172   7.661 -0.0590  0.5938 -0.5210
 1225HK4    H30 2825   3.362   5.118   7.721 -1.5358  0.7567 -2.1734
 1225HK4    C49 2826   3.501   5.282   7.717  0.0536 -0.0843  0.6920
 1225HK4    H29 2827   3.534   5.259   7.820  0.3997  0.0137  0.6051
 1225HK4     N2 2828   3.318   5.073   7.469 -0.0319 -0.2345  0.4499
 1225HK4    C30 2829   3.231   5.112   7.365  0.7708  0.2205 -0.0520
 1225HK4    C29 2830   3.179   5.233   7.319  0.1240 -0.1793 -0.3716
 1225HK4    H15 2831   3.186   5.316   7.388 -0.3341  0.8256 -1.5247
 1225HK4    C28 2832   3.097   5.249   7.208 -0.2166  0.3325 -0.0437
 1225HK4    C27 2833   3.059   5.130   7.143  0.7297  0.2524 -0.4582
 1225HK4    H14 2834   3.001   5.134   7.050  1.0992  0.7594 -0.6691
 1225HK4    C32 2835   3.102   5.006   7.188  0.3152  0.3680  0.2658
 1225HK4    H16 2836   3.073   4.918   7.130 -0.3996  1.7570 -1.5362
 1225HK4    C31 2837   3.187   4.992   7.297  0.0247  0.2004  0.4685
 1225HK4    C34 2838   3.246   4.878   7.363 -0.3789 -0.0283  0.4386
 1225HK4    C33 2839   3.325   4.932   7.472  0.0409 -0.2353  0.2378
 1225HK4    C35 2840   3.389   4.847   7.562  0.1804 -0.0036  0.3590
 1225HK4    H17 2841   3.454   4.885   7.641  2.0599 -0.8979 -0.7421
 1225HK4    C36 2842   3.376   4.710   7.548 -0.1022  0.0220  0.3555
 1225HK4    H18 2843   3.407   4.642   7.629 -0.9404 -3.5673 -2.1883
 1225HK4    C37 2844   3.308   4.658   7.439 -0.6414  0.2118  0.6030
 1225HK4    H19 2845   3.314   4.551   7.418 -0.4610  0.0524  1.4375
 1225HK4    C38 2846   3.238   4.739   7.350 -0.2227 -0.0061  0.0693
 1225HK4    H20 2847   3.175   4.699   7.271  2.0086  1.1750 -2.3701
 1225HK4    C14 2848   3.040   5.379   7.169 -0.3983  0.4636  0.6567
 1225HK4     C9 2849   2.922   5.395   7.095 -0.1435 -0.3145  0.0739
 1225HK4     C8 2850   2.924   5.506   7.007 -0.0359 -0.3837 -0.0108
 1225HK4    C11 2851   3.034   5.591   7.001 -0.2404 -0.1095  0.1777
 1225HK4     H4 2852   3.046   5.655   6.912 -1.1774  1.1199  0.9154
 1225HK4    C12 2853   3.138   5.584   7.092 -0.2792  0.1067  0.2398
 1225HK4     H5 2854   3.222   5.656   7.089  2.7064 -3.2351 -0.9411
 1225HK4    C13 2855   3.140   5.478   7.182 -0.0570  0.1673  0.3099
 1225HK4     H6 2856   3.225   5.470   7.252 -1.1875 -1.1925  1.5541
 1225HK4     C7 2857   2.798   5.541   6.940 -0.0464 -0.5111 -0.0568
 1225HK4     O2 2858   2.799   5.633   6.858 -0.1812 -0.0534  0.4564
 1225HK4     C4 2859   2.672   5.464   6.950 -0.2268 -0.2351 -0.2074
 1225HK4     C3 2860   2.549   5.506   6.899 -0.3753 -0.1926  0.1814
 1225HK4     H3 2861   2.540   5.606   6.853  0.0054  0.6017  1.8064
 1225HK4     C2 2862   2.433   5.431   6.910 -0.4602 -0.0780  0.0717
 1225HK4     H2 2863   2.339   5.473   6.871 -0.5210 -0.0410  0.2631
 1225HK4     C1 2864   2.433   5.322   6.996 -0.4314 -0.0797  0.0698
 1225HK4     H1 2865   2.335   5.279   7.021 -0.4493  0.5276  1.0669
 1225HK4     C6 2866   2.553   5.274   7.052 -0.2582  0.3675  0.0830
 1225HK4     C5 2867   2.667   5.355   7.038 -0.2412  0.4356  0.6256
 1225HK4    C10 2868   2.791   5.328   7.117 -0.4135  0.4656  0.9084
 1225HK4     O1 2869   2.776   5.270   7.224  0.0433  0.2244  0.8425
 1225HK4    C16 2870   2.563   5.128   7.046 -0.8329  0.3202  0.3313
 1225HK4    C15 2871   2.518   5.062   6.930  0.1784 -0.4447  0.3681
 1225HK4     H7 2872   2.485   5.124   6.846 -1.8626 -0.2713  1.2786
 1225HK4    C20 2873   2.516   4.924   6.916 -0.0416 -0.3916 -0.1345
 1225HK4     H9 2874   2.486   4.876   6.822  1.4004  1.7088 -1.6937
 1225HK4    C19 2875   2.565   4.842   7.017 -0.1665 -0.1938  0.0860
 1225HK4    C18 2876   2.606   4.903   7.142 -0.2480  0.3710 -0.1620
 1225HK4    C17 2877   2.596   5.042   7.150 -0.2090  0.3537  0.1620
 1225HK4     H8 2878   2.617   5.085   7.248  0.7518  0.1006  0.0754
 1225HK4     N1 2879   2.631   4.811   7.245  0.0404  0.3322 -0.2628
 1225HK4    C21 2880   2.603   4.685   7.188 -0.3965  0.1026  0.4587
 1225HK4    C22 2881   2.561   4.701   7.051  0.1113 -0.1575  0.2719
 1225HK4    C26 2882   2.526   4.586   6.981 -0.2064 -0.1524  0.4272
 1225HK4    H13 2883   2.478   4.594   6.884 -0.0675  0.1593  0.3843
 1225HK4    C25 2884   2.524   4.461   7.043 -0.3617 -0.4514 -0.1735
 1225HK4    H12 2885   2.498   4.368   6.993 -1.7657  0.2248 -0.7192
 1225HK4    C24 2886   2.558   4.453   7.178 -0.0663 -0.4381 -0.2479
 1225HK4    H11 2887   2.538   4.359   7.232  0.4830 -1.6245 -2.0573
 1225HK4    C23 2888   2.605   4.561   7.252 -0.2209 -0.3080 -0.3408
 1225HK4    H10 2889   2.636   4.539   7.354 -0.7609  2.1993  0.3977
 1225HK4    C39 2890   2.708   4.837   7.359  0.2336  0.0344 -0.3240
 1225HK4    C41 2891   2.686   4.772   7.482  0.1883  0.6309 -0.0169
 1225HK4    H21 2892   2.598   4.708   7.494  0.6428 -0.1761 -0.9188
 1225HK4    C42 2893   2.759   4.797   7.598 -0.0974 -0.4379  0.4023
 1225HK4    H22 2894   2.715   4.758   7.691 -1.3557  0.0019  0.0010
 1225HK4    C43 2895   2.848   4.904   7.595 -1.1053  0.4079  0.2749
 1225HK4    H23 2896   2.896   4.938   7.687 -1.6677  1.0455  0.3389
 1225HK4    C44 2897   2.875   4.972   7.477  0.4195 -0.1644  0.2906
 1225HK4    H24 2898   2.966   5.031   7.458  0.0389 -0.3762 -2.3884
 1225HK4    C45 2899   2.804   4.940   7.362  0.5739 -0.2949  0.2306
 1225HK4    H25 2900   2.818   4.994   7.267  0.2601 -0.5448  0.0416
 1226HK4    H28 2901   7.654   2.132   9.221  0.2877 -1.2593  2.1093
 1226HK4    C48 2902   7.565   2.193   9.243  0.1627 -0.5470 -0.2446
 1226HK4    C47 2903   7.542   2.321   9.195 -0.1309 -0.2910  0.5723
 1226HK4    H27 2904   7.621   2.385   9.153 -0.7002 -0.0711 -0.1775
 1226HK4    C46 2905   7.417   2.375   9.225 -0.0598  0.4154 -0.3625
 1226HK4    H26 2906   7.386   2.468   9.176  1.2738  0.8699 -0.3857
 1226HK4    C40 2907   7.316   2.309   9.298  0.5266  0.6266  0.6627
 1226HK4    C50 2908   7.346   2.182   9.351  0.1884  0.3288  0.1473
 1226HK4    H30 2909   7.284   2.138   9.431 -2.6627  1.6205 -1.2705
 1226HK4    C49 2910   7.472   2.130   9.323  0.0599  0.0466  0.0995
 1226HK4    H29 2911   7.494   2.026   9.353  0.1317 -0.6763 -2.4015
 1226HK4     N2 2912   7.202   2.376   9.345 -0.2821  0.0967 -0.4963
 1226HK4    C30 2913   7.200   2.515   9.373 -0.0191  0.1695 -0.8302
 1226HK4    C29 2914   7.297   2.614   9.382  0.2269 -0.0748 -0.7981
 1226HK4    H15 2915   7.403   2.588   9.378  0.2899 -0.0151  0.2212
 1226HK4    C28 2916   7.269   2.748   9.406  0.0942 -0.1177 -0.7095
 1226HK4    C27 2917   7.139   2.780   9.451  0.1654  0.6425 -1.0368
 1226HK4    H14 2918   7.124   2.881   9.492  3.6379  1.9107 -2.7223
 1226HK4    C32 2919   7.043   2.679   9.456  0.8178  0.0525 -0.1178
 1226HK4    H16 2920   6.948   2.700   9.506  1.8395  2.9651  0.7038
 1226HK4    C31 2921   7.065   2.549   9.413  0.1084 -0.0427 -0.1962
 1226HK4    C34 2922   6.984   2.429   9.402 -0.0426  0.0162  0.2742
 1226HK4    C33 2923   7.072   2.324   9.353 -0.2036 -0.0179  0.0635
 1226HK4    C35 2924   7.023   2.200   9.313 -0.3575  0.1356 -0.2287
 1226HK4    H17 2925   7.089   2.116   9.290  1.6760  1.9706 -1.2664
 1226HK4    C36 2926   6.886   2.177   9.321 -0.3261 -0.0676 -0.2603
 1226HK4    H18 2927   6.845   2.080   9.290 -0.9245 -0.5399  1.9062
 1226HK4    C37 2928   6.799   2.278   9.359 -0.0200  0.1265 -0.0752
 1226HK4    H19 2929   6.692   2.266   9.348 -0.0681  1.1727 -0.8346
 1226HK4    C38 2930   6.848   2.401   9.402 -0.0700  0.1413 -0.0613
 1226HK4    H20 2931   6.774   2.477   9.425 -1.8604 -1.8175  0.8407
 1226HK4    C14 2932   7.367   2.855   9.385  0.2785 -0.0788  0.3192
 1226HK4     C9 2933   7.357   2.985   9.437 -0.1095  0.0171  0.0098
 1226HK4     C8 2934   7.390   3.093   9.354  0.7548 -0.1819  0.0939
 1226HK4    C11 2935   7.443   3.070   9.228 -0.2478 -0.3407 -0.3064
 1226HK4     H4 2936   7.440   3.155   9.158  0.4327  1.6701  2.0230
 1226HK4    C12 2937   7.472   2.942   9.181  0.9830 -0.1320 -0.1402
 1226HK4     H5 2938   7.527   2.929   9.087  1.7597  1.4395  0.0837
 1226HK4    C13 2939   7.435   2.836   9.263  0.5920  0.4279  0.4101
 1226HK4     H6 2940   7.489   2.742   9.248  0.3301  0.4124 -0.5021
 1226HK4     C7 2941   7.393   3.230   9.412 -0.2246  0.0707 -0.4355
 1226HK4     O2 2942   7.393   3.327   9.337 -0.1230  0.5982  0.2475
 1226HK4     C4 2943   7.379   3.247   9.558 -0.4583  0.2477 -0.4787
 1226HK4     C3 2944   7.405   3.365   9.627 -1.0626  0.1705 -0.1154
 1226HK4     H3 2945   7.469   3.436   9.574 -1.1930 -1.2691 -2.2593
 1226HK4     C2 2946   7.368   3.396   9.758 -0.1592 -0.2222  0.2404
 1226HK4     H2 2947   7.408   3.482   9.814 -0.9523  0.0550  0.3826
 1226HK4     C1 2948   7.288   3.301   9.819 -0.4654  0.0209  0.2159
 1226HK4     H1 2949   7.229   3.335   9.906 -2.7821 -0.8957 -0.9325
 1226HK4     C6 2950   7.259   3.178   9.756  0.1004  0.0300 -0.0640
 1226HK4     C5 2951   7.314   3.146   9.632  0.5816  0.0312  0.1479
 1226HK4    C10 2952   7.330   3.006   9.583  0.5872  0.0356  0.1372
 1226HK4     O1 2953   7.380   2.927   9.663  0.4550 -0.5496 -0.3502
 1226HK4    C16 2954   7.165   3.093   9.830  0.5653  0.0420  0.5468
 1226HK4    C15 2955   7.079   3.005   9.761  0.3027  0.3075  0.5384
 1226HK4     H7 2956   7.091   3.009   9.652 -0.5507 -1.6038  0.3639
 1226HK4    C20 2957   7.010   2.901   9.823 -0.1813  0.4360  0.2207
 1226HK4     H9 2958   6.948   2.831   9.767 -0.0215 -0.2486  0.8908
 1226HK4    C19 2959   7.044   2.873   9.954 -0.7838  0.2780  0.3457
 1226HK4    C18 2960   7.157   2.939  10.018 -0.4365 -0.1079  0.1349
 1226HK4    C17 2961   7.202   3.056   9.959 -0.0334  0.0305  0.7169
 1226HK4     H8 2962   7.247   3.138  10.016 -0.4991  0.9915 -0.2787
 1226HK4     N1 2963   7.199   2.878  10.138 -0.3576 -0.0389  0.1413
 1226HK4    C21 2964   7.125   2.758  10.148 -0.4481  0.0331  0.3328
 1226HK4    C22 2965   7.024   2.761  10.044 -0.2322 -0.0054  0.1210
 1226HK4    C26 2966   6.932   2.656  10.047 -0.0469 -0.1712 -0.0307
 1226HK4    H13 2967   6.839   2.676   9.994 -0.4871  2.5327  1.6681
 1226HK4    C25 2968   6.937   2.543  10.128 -0.1495 -0.0686  0.1181
 1226HK4    H12 2969   6.870   2.457  10.122  0.8325 -0.9213  1.2420
 1226HK4    C24 2970   7.042   2.536  10.218 -0.0922  0.3352  0.0857
 1226HK4    H11 2971   7.061   2.443  10.273  0.9788 -0.4650 -1.5739
 1226HK4    C23 2972   7.127   2.645  10.229  0.3628 -0.0289  0.2288
 1226HK4    H10 2973   7.210   2.635  10.299  0.1408  1.1410  0.6700
 1226HK4    C39 2974   7.329   2.879  10.188 -0.0599 -0.6898 -0.5964
 1226HK4    C41 2975   7.353   2.850  10.324  0.5012  0.5963 -0.4172
 1226HK4    H21 2976   7.269   2.846  10.395  1.3964 -0.2151  0.6193
 1226HK4    C42 2977   7.483   2.833  10.373  0.2232 -1.2207 -0.2818
 1226HK4    H22 2978   7.502   2.827  10.481 -1.5394 -0.3417  0.0944
 1226HK4    C43 2979   7.591   2.842  10.286  0.0642 -0.3972 -0.3989
 1226HK4    H23 2980   7.693   2.839  10.324  0.5049  1.2197 -1.4043
 1226HK4    C44 2981   7.572   2.877  10.153  0.2665  0.2542 -0.2550
 1226HK4    H24 2982   7.650   2.891  10.077  0.2524 -1.5279 -0.6120
 1226HK4    C45 2983   7.442   2.897  10.106  0.1734 -0.1342 -0.1610
 1226HK4    H25 2984   7.428   2.936  10.004 -0.4978 -1.9866 -0.8043
 1227HK4    H28 2985   5.629  10.633   6.211 -1.8184 -1.3696  0.4892
 1227HK4    C48 2986   5.555  10.699   6.257 -0.1912  0.5442  0.4570
 1227HK4    C47 2987   5.569  10.747   6.386  0.2328 -0.2276  0.7011
 1227HK4    H27 2988   5.660  10.717   6.440 -1.1984 -0.9091  2.8297
 1227HK4    C46 2989   5.465  10.820   6.442 -0.1043 -0.1359 -0.0455
 1227HK4    H26 2990   5.475  10.862   6.543 -0.5756  1.8380 -0.7939
 1227HK4    C40 2991   5.346  10.848   6.371 -0.1776  0.0486  0.1470
 1227HK4    C50 2992   5.336  10.796   6.240 -0.2612  0.3776  0.0240
 1227HK4    H30 2993   5.249  10.823   6.178 -1.0277  1.7825  1.6527
 1227HK4    C49 2994   5.439  10.721   6.184 -0.1017  0.4086  0.2735
 1227HK4    H29 2995   5.431  10.688   6.080  0.8003 -1.5021  0.7800
 1227HK4     N2 2996   5.257  10.948   6.411 -0.4350 -0.0771 -0.1096
 1227HK4    C30 2997   5.290  11.065   6.482 -0.0361 -0.2009 -0.0853
 1227HK4    C29 2998   5.415  11.122   6.505 -0.1377 -0.2202  0.5032
 1227HK4    H15 2999   5.503  11.077   6.461 -0.5225  0.5270 -1.0478
 1227HK4    C28 3000   5.426  11.243   6.574 -0.2924  0.0210  0.1102
 1227HK4    C27 3001   5.309   0.066   6.608 -0.3024 -0.0209  0.1569
 1227HK4    H14 3002   5.316   0.173   6.634  1.2849 -0.0697  0.0110
 1227HK4    C32 3003   5.181   0.013   6.593 -0.4115  0.3402 -0.2030
 1227HK4    H16 3004   5.091   0.048   6.642 -0.5768 -1.4354  0.7772
 1227HK4    C31 3005   5.175  11.133   6.538  0.3126  0.1113  0.2494
 1227HK4    C34 3006   5.062  11.048   6.508  0.1337  0.2579  0.5093
 1227HK4    C33 3007   5.119  10.936   6.437 -0.3837  0.1429  0.2760
 1227HK4    C35 3008   5.045  10.819   6.425  0.1173 -0.1555  0.0557
 1227HK4    H17 3009   5.078  10.748   6.348  1.6061 -0.1683  0.6880
 1227HK4    C36 3010   4.920  10.809   6.485  0.2944 -0.4400  0.3782
 1227HK4    H18 3011   4.876  10.708   6.494  1.3910 -0.7181  3.1752
 1227HK4    C37 3012   4.862  10.915   6.553  0.2274 -0.2527  0.0263
 1227HK4    H19 3013   4.768  10.914   6.610  1.5807 -0.0832  2.3316
 1227HK4    C38 3014   4.934  11.033   6.561  0.2249 -0.2837  0.5855
 1227HK4    H20 3015   4.882  11.120   6.600  0.2910 -0.2842  0.6689
 1227HK4    C14 3016   5.542  11.244   6.664  0.0719 -0.1813 -0.3510
 1227HK4     C9 3017   5.533   0.055   6.791  0.0620 -0.3112 -0.2914
 1227HK4     C8 3018   5.638   0.140   6.830  0.0371 -0.6309  0.4859
 1227HK4    C11 3019   5.755   0.146   6.756 -0.0028 -0.6051  0.4251
 1227HK4     H4 3020   5.831   0.219   6.788 -2.0793  0.5051  3.0331
 1227HK4    C12 3021   5.773   0.068   6.643  0.0071  0.0528 -0.0346
 1227HK4     H5 3022   5.865   0.070   6.583 -0.2623  0.5068 -0.4303
 1227HK4    C13 3023   5.669  11.233   6.603  0.2588 -0.3163  0.0588
 1227HK4     H6 3024   5.695  11.156   6.529  0.6929  0.4560 -0.5993
 1227HK4     C7 3025   5.612   0.231   6.944  0.1589  0.0846 -0.0522
 1227HK4     O2 3026   5.709   0.252   7.017 -0.1186 -0.0256  0.3469
 1227HK4     C4 3027   5.474   0.244   6.996  0.0394  0.1695 -0.3829
 1227HK4     C3 3028   5.443   0.349   7.082  0.2168  0.0243 -0.1394
 1227HK4     H3 3029   5.519   0.424   7.105  1.4093 -1.4130  0.6651
 1227HK4     C2 3030   5.323   0.356   7.152  0.3702  0.3563  0.0916
 1227HK4     H2 3031   5.296   0.440   7.219 -0.9432 -1.2297  1.5827
 1227HK4     C1 3032   5.229   0.255   7.135 -0.1345  0.8402 -0.0086
 1227HK4     H1 3033   5.152   0.258   7.214 -1.4902  1.9088 -1.3506
 1227HK4     C6 3034   5.251   0.151   7.044  0.2544  0.5751  0.3846
 1227HK4     C5 3035   5.374   0.146   6.978  0.2020 -0.1362  0.3295
 1227HK4    C10 3036   5.413   0.042   6.879  0.0955  0.2785 -0.1555
 1227HK4     O1 3037   5.377  11.173   6.893  0.0086  0.2538 -0.5792
 1227HK4    C16 3038   5.125   0.094   6.993  0.2333  0.3626  0.6738
 1227HK4    C15 3039   5.012   0.176   6.972  0.1988  0.1581  0.0615
 1227HK4     H7 3040   5.029   0.282   6.947  1.6849 -0.1655 -0.3721
 1227HK4    C20 3041   4.886   0.117   6.967  0.3029 -0.1308  0.8402
 1227HK4     H9 3042   4.802   0.184   6.988 -0.0149 -0.5151  0.7833
 1227HK4    C19 3043   4.870  11.228   6.957  0.1356 -0.0400 -0.1380
 1227HK4    C18 3044   4.985  11.141   6.974 -0.1117 -0.2426  0.4926
 1227HK4    C17 3045   5.105  11.205   7.002 -0.3597  0.4052  0.0878
 1227HK4     H8 3046   5.186  11.145   7.045  0.1012 -0.3255 -1.7714
 1227HK4     N1 3047   4.955  11.005   6.949 -0.2566 -0.1959  0.3848
 1227HK4    C21 3048   4.815  11.006   6.938 -0.2446  0.1704  0.2616
 1227HK4    C22 3049   4.757  11.139   6.938 -0.1079  0.2330  0.0555
 1227HK4    C26 3050   4.620  11.155   6.957 -0.0220  0.4861  0.4764
 1227HK4    H13 3051   4.578   0.002   6.992  1.8219  1.4128  0.2304
 1227HK4    C25 3052   4.536  11.045   6.946  0.1377  0.3188  0.9641
 1227HK4    H12 3053   4.428  11.056   6.954  0.3442  2.5755  0.9873
 1227HK4    C24 3054   4.592  10.917   6.941 -0.5274  0.0640  0.0078
 1227HK4    H11 3055   4.533  10.827   6.961  0.7825 -1.4965 -2.7617
 1227HK4    C23 3056   4.729  10.898   6.951 -0.5328  0.4781  0.9460
 1227HK4    H10 3057   4.762  10.795   6.966  0.7788  0.8213  0.4966
 1227HK4    C39 3058   5.038  10.902   6.904 -0.3124 -0.1389  0.1578
 1227HK4    C41 3059   5.159  10.938   6.841 -0.4682  0.5254  0.2362
 1227HK4    H21 3060   5.161  11.033   6.785 -1.0154  1.3743  1.6284
 1227HK4    C42 3061   5.270  10.855   6.832 -0.3732  0.6078  0.6688
 1227HK4    H22 3062   5.350  10.878   6.759  0.6513 -3.2277  0.4882
 1227HK4    C43 3063   5.266  10.735   6.902 -0.2191 -0.1226 -0.5564
 1227HK4    H23 3064   5.354  10.673   6.913 -1.5962 -1.7175  1.9433
 1227HK4    C44 3065   5.153  10.695   6.973 -0.2764  0.2137 -0.4519
 1227HK4    H24 3066   5.157  10.618   7.052 -0.9485 -0.9663 -1.5433
 1227HK4    C45 3067   5.039  10.774   6.964 -0.5357 -0.0596  0.3367
 1227HK4    H25 3068   4.942  10.740   7.002 -1.6584 -1.1914 -3.3273
 1228HK4    H28 3069   8.693   7.551   1.035 -0.2523  0.9886 -1.4237
 1228HK4    C48 3070   8.605   7.495   1.002  0.0625 -0.3068 -0.1163
 1228HK4    C47 3071   8.569   7.492   0.868  0.0322  0.0335 -0.1156
 1228HK4    H27 3072   8.620   7.559   0.796 -0.6506 -1.1022 -1.6785
 1228HK4    C46 3073   8.449   7.434   0.831  0.0611 -0.0438 -0.0965
 1228HK4    H26 3074   8.424   7.434   0.724 -2.2188  0.9562  0.3857
 1228HK4    C40 3075   8.359   7.370   0.919  0.2806  0.5406  0.5551
 1228HK4    C50 3076   8.407   7.367   1.052  0.1105  0.3047  0.6117
 1228HK4    H30 3077   8.353   7.304   1.124 -0.2855 -0.3202 -0.2224
 1228HK4    C49 3078   8.522   7.432   1.094  0.2709  0.1638  0.3945
 1228HK4    H29 3079   8.547   7.437   1.201  0.3213  1.8201  0.3274
 1228HK4     N2 3080   8.220   7.368   0.903  0.3619 -0.0441 -0.0690
 1228HK4    C30 3081   8.139   7.457   0.830  0.1717 -0.1164  0.0560
 1228HK4    C29 3082   8.159   7.588   0.789 -0.5831  0.0923  0.3301
 1228HK4    H15 3083   8.255   7.636   0.811 -1.5088  1.7776  0.7348
 1228HK4    C28 3084   8.068   7.653   0.706 -0.2104 -0.1418 -0.2607
 1228HK4    C27 3085   7.951   7.585   0.669 -0.0730 -0.5120 -0.0271
 1228HK4    H14 3086   7.877   7.637   0.606  2.1414  0.3383 -1.9522
 1228HK4    C32 3087   7.925   7.455   0.713 -0.1849 -0.5060 -0.0785
 1228HK4    H16 3088   7.852   7.396   0.657 -1.1787 -0.6383  1.3423
 1228HK4    C31 3089   8.015   7.390   0.797  0.3164 -0.1762 -0.3501
 1228HK4    C34 3090   8.023   7.256   0.852 -0.5158  0.2471  0.8300
 1228HK4    C33 3091   8.150   7.247   0.921 -0.1812  0.3155  0.2349
 1228HK4    C35 3092   8.177   7.133   0.997 -0.3659  0.1518  0.0559
 1228HK4    H17 3093   8.279   7.125   1.033 -0.6632 -0.5227  0.7715
 1228HK4    C36 3094   8.086   7.028   1.001  0.4224 -0.5429 -0.2502
 1228HK4    H18 3095   8.117   6.938   1.057  1.5098  1.4822  2.5550
 1228HK4    C37 3096   7.968   7.035   0.928 -0.0605  0.2790  0.5968
 1228HK4    H19 3097   7.904   6.946   0.930  1.9944 -1.2451  3.5707
 1228HK4    C38 3098   7.936   7.147   0.853 -0.0734 -0.1179  0.0077
 1228HK4    H20 3099   7.837   7.156   0.808  0.0811  1.0606 -0.1059
 1228HK4    C14 3100   8.091   7.791   0.662  0.0131 -0.0635  0.0911
 1228HK4     C9 3101   7.986   7.868   0.612 -0.0525 -0.3350 -0.1926
 1228HK4     C8 3102   8.010   7.950   0.500  0.2534 -0.1503  0.0096
 1228HK4    C11 3103   8.137   7.949   0.442  0.2248 -0.4683 -0.0492
 1228HK4     H4 3104   8.156   8.011   0.353  0.1863 -0.0900  0.2029
 1228HK4    C12 3105   8.246   7.897   0.511  0.0986 -0.0811  0.4491
 1228HK4     H5 3106   8.341   7.940   0.477 -0.4984  1.5410  0.8254
 1228HK4    C13 3107   8.224   7.819   0.624  0.1367 -0.9064 -0.1014
 1228HK4     H6 3108   8.305   7.794   0.694  1.1953  0.6278 -0.7459
 1228HK4     C7 3109   7.895   8.027   0.447  0.1481 -0.2396  0.1085
 1228HK4     O2 3110   7.922   8.105   0.355 -0.3152  0.6977  0.7631
 1228HK4     C4 3111   7.758   8.018   0.501 -0.1300  0.0635 -0.5412
 1228HK4     C3 3112   7.650   8.070   0.429 -0.2139 -0.4006 -0.7526
 1228HK4     H3 3113   7.666   8.095   0.324 -0.4762  0.0875 -0.6770
 1228HK4     C2 3114   7.521   8.048   0.476  0.0873 -0.3554  0.1065
 1228HK4     H2 3115   7.432   8.093   0.432 -0.7592 -1.5447  0.5595
 1228HK4     C1 3116   7.503   7.966   0.588 -0.3904  0.2063  0.4413
 1228HK4     H1 3117   7.409   7.913   0.604 -0.3008 -0.2878 -0.6490
 1228HK4     C6 3118   7.609   7.917   0.668  0.1242  1.2026  0.3834
 1228HK4     C5 3119   7.737   7.946   0.620  0.0519  0.5635 -0.2077
 1228HK4    C10 3120   7.857   7.887   0.685 -0.1179  0.0131 -0.3951
 1228HK4     O1 3121   7.866   7.906   0.806  0.1398  0.1275 -0.4327
 1228HK4    C16 3122   7.567   7.835   0.782 -0.4828 -0.1449 -0.7927
 1228HK4    C15 3123   7.438   7.861   0.834  0.2946  0.5374  0.8308
 1228HK4     H7 3124   7.395   7.961   0.818 -0.1605 -0.1295 -2.4524
 1228HK4    C20 3125   7.365   7.771   0.910 -0.0064  0.4861  0.4858
 1228HK4     H9 3126   7.270   7.808   0.949 -0.8392 -1.9183  0.8020
 1228HK4    C19 3127   7.419   7.646   0.939 -0.1206  0.3850  0.2497
 1228HK4    C18 3128   7.559   7.625   0.906 -0.1101  0.2653  0.3673
 1228HK4    C17 3129   7.622   7.712   0.818 -0.0011  0.4850  0.6637
 1228HK4     H8 3130   7.715   7.679   0.774 -0.7337 -2.0313  0.9554
 1228HK4     N1 3131   7.607   7.513   0.977  0.0266  0.3411  0.3951
 1228HK4    C21 3132   7.494   7.451   1.033 -0.2631  0.2112 -0.3271
 1228HK4    C22 3133   7.377   7.535   1.022 -0.2545  0.2712  0.0317
 1228HK4    C26 3134   7.251   7.481   1.049 -0.0643 -0.1757  0.0346
 1228HK4    H13 3135   7.164   7.540   1.079 -1.5423 -1.1868 -2.2157
 1228HK4    C25 3136   7.240   7.345   1.073 -0.4707 -0.2672 -0.6574
 1228HK4    H12 3137   7.143   7.316   1.113  0.1186  0.4498  1.3549
 1228HK4    C24 3138   7.350   7.260   1.079 -0.0954  0.2439 -0.1500
 1228HK4    H11 3139   7.334   7.155   1.109  0.0403 -0.1109 -1.2919
 1228HK4    C23 3140   7.476   7.315   1.059 -0.0183  0.3598  0.6438
 1228HK4    H10 3141   7.565   7.258   1.082  0.3021 -0.8653 -3.3130
 1228HK4    C39 3142   7.734   7.516   1.036  0.0937  0.0368  0.2658
 1228HK4    C41 3143   7.805   7.401   1.076  0.0218 -0.2805 -0.4981
 1228HK4    H21 3144   7.781   7.302   1.035 -0.4490  0.2021 -1.4040
 1228HK4    C42 3145   7.920   7.411   1.154 -0.3352  0.5449 -0.0606
 1228HK4    H22 3146   7.961   7.314   1.184 -0.4170 -0.1960 -2.2614
 1228HK4    C43 3147   7.968   7.534   1.198 -0.4175  0.5046  0.1360
 1228HK4    H23 3148   8.058   7.528   1.260 -0.4536  0.1438  0.1550
 1228HK4    C44 3149   7.906   7.650   1.155 -0.0712  0.4479 -0.5362
 1228HK4    H24 3150   7.957   7.747   1.167 -0.6695  0.6201  0.7558
 1228HK4    C45 3151   7.793   7.638   1.075 -0.6034  0.3899  0.2164
 1228HK4    H25 3152   7.753   7.735   1.040  1.3153  1.0171 -0.3014
 1229HK4    H28 3153   7.962   9.918   3.579  0.6698 -0.9541 -1.9557
 1229HK4    C48 3154   8.071   9.923   3.586  0.5294  0.0004  0.1217
 1229HK4    C47 3155   8.137   9.835   3.500  0.0874  0.2492 -0.4817
 1229HK4    H27 3156   8.070   9.765   3.449 -1.6198  0.0826  1.8763
 1229HK4    C46 3157   8.276   9.839   3.506  0.0781 -0.0485 -0.1238
 1229HK4    H26 3158   8.322   9.750   3.459 -2.0580 -1.2315 -0.0358
 1229HK4    C40 3159   8.352   9.919   3.594  0.1712 -0.7356  0.4320
 1229HK4    C50 3160   8.275   9.997   3.682 -0.1461 -0.2172 -0.2973
 1229HK4    H30 3161   8.327  10.074   3.742 -1.6023  0.5011  0.0688
 1229HK4    C49 3162   8.136  10.002   3.679 -0.1470  0.2498  0.3858
 1229HK4    H29 3163   8.077  10.044   3.762 -1.8697 -0.0450 -0.6601
 1229HK4     N2 3164   8.482   9.964   3.568 -0.2724  0.3386  0.0532
 1229HK4    C30 3165   8.545   9.972   3.442 -0.0229 -0.0562  0.1557
 1229HK4    C29 3166   8.500   9.953   3.312 -0.0563  0.2021  0.1307
 1229HK4    H15 3167   8.392   9.940   3.307 -0.4472  2.0326  2.5646
 1229HK4    C28 3168   8.582   9.952   3.200 -0.2447 -0.1143 -0.0044
 1229HK4    C27 3169   8.719   9.977   3.222 -0.0924 -0.9622  0.0255
 1229HK4    H14 3170   8.792   9.981   3.141 -0.4435 -2.6917 -0.3920
 1229HK4    C32 3171   8.769   9.997   3.351 -0.4905 -0.5189  0.1115
 1229HK4    H16 3172   8.861  10.054   3.353 -1.0474  0.4848 -1.4271
 1229HK4    C31 3173   8.688   9.991   3.464 -0.0430 -0.2012  0.4513
 1229HK4    C34 3174   8.709   9.987   3.607 -0.1622 -0.0909  0.4715
 1229HK4    C33 3175   8.579   9.970   3.670 -0.2845 -0.4529  0.1185
 1229HK4    C35 3176   8.577   9.990   3.807  0.1799 -0.1601  0.0864
 1229HK4    H17 3177   8.489   9.971   3.869  1.2340 -0.8907  1.3982
 1229HK4    C36 3178   8.689  10.006   3.887  0.1793 -0.4287  0.1456
 1229HK4    H18 3179   8.678   9.988   3.995 -2.2993  0.9570  0.1671
 1229HK4    C37 3180   8.812  10.014   3.823  0.1367 -0.7500  0.0285
 1229HK4    H19 3181   8.898  10.042   3.884 -0.5988  3.3638 -0.6994
 1229HK4    C38 3182   8.822  10.010   3.684  0.1756 -0.1983  0.0129
 1229HK4    H20 3183   8.912  10.039   3.630  1.5552 -1.4521  1.5582
 1229HK4    C14 3184   8.547   9.858   3.093 -0.2892 -0.6232  0.4566
 1229HK4     C9 3185   8.643   9.774   3.035  0.1289  0.2881 -0.1830
 1229HK4     C8 3186   8.646   9.748   2.896 -0.4392 -0.4667 -0.0585
 1229HK4    C11 3187   8.544   9.803   2.819  0.0266 -0.1554 -0.4512
 1229HK4     H4 3188   8.536   9.769   2.715 -0.5512  0.6023 -0.6574
 1229HK4    C12 3189   8.444   9.885   2.870  0.8432  0.5504  0.0197
 1229HK4     H5 3190   8.377   9.938   2.801  0.3471 -0.3672 -0.2131
 1229HK4    C13 3191   8.443   9.902   3.008  0.2042 -0.1453  0.1045
 1229HK4     H6 3192   8.351   9.939   3.055 -0.9582 -2.7055 -0.1192
 1229HK4     C7 3193   8.769   9.693   2.834 -0.3040 -0.0521 -0.1657
 1229HK4     O2 3194   8.762   9.659   2.716  0.1399 -0.7311  0.0036
 1229HK4     C4 3195   8.883   9.647   2.915 -0.8302 -0.2984  0.4388
 1229HK4     C3 3196   9.000   9.611   2.849 -0.5385  0.5862  0.4630
 1229HK4     H3 3197   8.989   9.586   2.742 -0.7246  0.9203  0.4031
 1229HK4     C2 3198   9.123   9.595   2.912 -0.3186 -0.4955 -0.2047
 1229HK4     H2 3199   9.214   9.572   2.855 -1.0012 -1.0363 -1.0832
 1229HK4     C1 3200   9.117   9.631   3.047  0.0277  0.8275 -0.5326
 1229HK4     H1 3201   9.211   9.625   3.103  0.6275 -1.9276 -1.7684
 1229HK4     C6 3202   9.003   9.667   3.122 -0.0473 -0.2985 -0.0988
 1229HK4     C5 3203   8.881   9.672   3.054 -0.3996 -0.5921  0.5015
 1229HK4    C10 3204   8.750   9.708   3.114 -0.1889  0.4247  0.3597
 1229HK4     O1 3205   8.707   9.645   3.211  0.7982 -0.0891  0.4615
 1229HK4    C16 3206   9.024   9.752   3.240  0.0375  0.0907 -0.3921
 1229HK4    C15 3207   9.123   9.853   3.242 -0.0776  0.2001 -0.1806
 1229HK4     H7 3208   9.167   9.893   3.150 -1.5097 -0.6228 -1.2340
 1229HK4    C20 3209   9.167   9.905   3.363 -0.6207  0.3548 -0.0492
 1229HK4     H9 3210   9.249   9.976   3.363 -2.2221  2.3725  3.2895
 1229HK4    C19 3211   9.113   9.864   3.485 -0.1222 -0.2157 -0.0233
 1229HK4    C18 3212   9.016   9.757   3.484  0.0584 -0.3842  0.0351
 1229HK4    C17 3213   8.974   9.706   3.361 -0.2995  0.7100 -0.2968
 1229HK4     H8 3214   8.882   9.648   3.355 -1.1533  1.9207  0.8503
 1229HK4     N1 3215   8.997   9.705   3.614 -0.0223  0.0028  0.1779
 1229HK4    C21 3216   9.075   9.784   3.701  0.4590 -0.3487  0.0718
 1229HK4    C22 3217   9.147   9.884   3.624 -0.2909  0.1209 -0.0309
 1229HK4    C26 3218   9.230   9.968   3.698  0.6477 -0.0485 -0.8888
 1229HK4    H13 3219   9.266  10.054   3.641 -1.6815  1.1433 -0.6177
 1229HK4    C25 3220   9.240   9.959   3.836  0.5545 -0.7719 -0.9224
 1229HK4    H12 3221   9.308  10.024   3.893 -1.8672  1.3204 -0.3048
 1229HK4    C24 3222   9.169   9.867   3.912  0.3049 -0.0083 -0.2146
 1229HK4    H11 3223   9.181   9.864   4.021  0.5168  2.8899 -0.1338
 1229HK4    C23 3224   9.089   9.779   3.839 -0.1026  0.0655  0.1472
 1229HK4    H10 3225   9.045   9.698   3.896  0.8750  1.0208  2.3334
 1229HK4    C39 3226   8.884   9.630   3.649 -0.1671 -0.1064 -0.5105
 1229HK4    C41 3227   8.900   9.539   3.756 -0.0810 -0.3288 -0.7100
 1229HK4    H21 3228   9.002   9.507   3.781 -0.5825 -1.3208  0.1013
 1229HK4    C42 3229   8.799   9.473   3.825 -0.2644  0.5534 -0.1306
 1229HK4    H22 3230   8.825   9.387   3.888 -1.8008 -0.8324 -1.3461
 1229HK4    C43 3231   8.669   9.499   3.783 -0.4776 -0.2765 -0.0003
 1229HK4    H23 3232   8.585   9.461   3.841 -0.9192  2.7952  1.4934
 1229HK4    C44 3233   8.649   9.587   3.677 -0.2432  0.2237  0.3668
 1229HK4    H24 3234   8.550   9.576   3.630 -0.1544 -1.0468  0.4648
 1229HK4    C45 3235   8.751   9.654   3.611 -0.3069  0.0134  0.0575
 1229HK4    H25 3236   8.736   9.713   3.519 -2.3054 -0.3134  0.1507
 1230HK4    H28 3237   1.644   6.778   8.013 -0.1523  0.8568  1.0135
 1230HK4    C48 3238   1.553   6.742   8.060 -0.6343  0.8688  0.0995
 1230HK4    C47 3239   1.530   6.773   8.194 -0.1353  0.2598  0.3278
 1230HK4    H27 3240   1.613   6.794   8.263 -2.8711  1.1618  3.4576
 1230HK4    C46 3241   1.404   6.747   8.246 -0.1844 -0.0313  0.0648
 1230HK4    H26 3242   1.371   6.802   8.335  0.1830 -0.7740  0.6630
 1230HK4    C40 3243   1.304   6.673   8.179 -0.2357 -0.0131  0.1205
 1230HK4    C50 3244   1.343   6.638   8.048 -0.0836  0.6935 -0.0282
 1230HK4    H30 3245   1.272   6.571   7.998  0.6886 -0.2373  0.1028
 1230HK4    C49 3246   1.458   6.678   7.981 -0.0349  0.3134 -0.1762
 1230HK4    H29 3247   1.463   6.698   7.873  0.1715  0.6541 -0.1062
 1230HK4     N2 3248   1.189   6.618   8.236 -0.2451  0.3675  0.4674
 1230HK4    C30 3249   1.168   6.589   8.373  0.0668  0.1801  0.4761
 1230HK4    C29 3250   1.259   6.567   8.476  0.1818 -0.5286  0.2285
 1230HK4    H15 3251   1.366   6.585   8.461  0.0321  0.0189 -0.2111
 1230HK4    C28 3252   1.213   6.524   8.600 -0.3851  0.2546  0.2932
 1230HK4    C27 3253   1.076   6.506   8.625 -0.3448 -0.3471  0.0876
 1230HK4    H14 3254   1.048   6.474   8.727  0.3412 -0.2573  0.3048
 1230HK4    C32 3255   0.985   6.530   8.524 -0.2055  0.6319  0.1846
 1230HK4    H16 3256   0.884   6.489   8.536 -0.3071 -0.0513 -2.5245
 1230HK4    C31 3257   1.026   6.571   8.398  0.0154 -0.0217  0.0432
 1230HK4    C34 3258   0.962   6.593   8.269 -0.1491  0.7759  0.2590
 1230HK4    C33 3259   1.065   6.620   8.170 -0.1765  1.2476  0.3619
 1230HK4    C35 3260   1.027   6.661   8.043  0.6956  0.4137 -0.1762
 1230HK4    H17 3261   1.096   6.714   7.978 -0.1494  0.7456 -0.8164
 1230HK4    C36 3262   0.892   6.680   8.012  0.4388 -0.9034  0.1247
 1230HK4    H18 3263   0.862   6.731   7.920 -0.0513  0.6628  1.1323
 1230HK4    C37 3264   0.799   6.645   8.110  0.2713 -0.7341  0.0253
 1230HK4    H19 3265   0.698   6.672   8.080  0.6903  0.2313 -0.5545
 1230HK4    C38 3266   0.828   6.591   8.235 -0.1529 -0.3191  0.2984
 1230HK4    H20 3267   0.754   6.556   8.307 -0.6052  0.7594  0.3780
 1230HK4    C14 3268   1.312   6.446   8.675 -0.1035 -0.2087 -0.5498
 1230HK4     C9 3269   1.296   6.316   8.724  0.3262  0.0466  0.2925
 1230HK4     C8 3270   1.357   6.276   8.844  0.3481 -0.5342  0.0930
 1230HK4    C11 3271   1.443   6.363   8.911 -0.2249 -0.0783  0.2491
 1230HK4     H4 3272   1.444   6.350   9.020 -1.5058  2.1313  0.5566
 1230HK4    C12 3273   1.475   6.485   8.854 -0.3308 -0.0330  0.2920
 1230HK4     H5 3274   1.546   6.556   8.900 -0.1394  1.4592 -2.2184
 1230HK4    C13 3275   1.412   6.525   8.737  0.0718 -0.7300 -0.1649
 1230HK4     H6 3276   1.449   6.615   8.687 -0.4283  0.5128  1.6623
 1230HK4     C7 3277   1.335   6.140   8.898  0.1953 -0.5770 -0.0802
 1230HK4     O2 3278   1.373   6.109   9.011  0.1652  0.5052  0.2320
 1230HK4     C4 3279   1.245   6.048   8.825  0.2853 -0.5670 -0.2070
 1230HK4     C3 3280   1.223   5.918   8.868  0.0397 -0.2497  0.6412
 1230HK4     H3 3281   1.298   5.863   8.928  0.4168  0.3187  0.6937
 1230HK4     C2 3282   1.117   5.838   8.827  0.0131  0.2836 -0.3293
 1230HK4     H2 3283   1.099   5.742   8.877 -1.0293  1.5852  1.8690
 1230HK4     C1 3284   1.027   5.898   8.740 -0.1930  0.2269 -0.1541
 1230HK4     H1 3285   0.951   5.833   8.694  2.3231 -1.5903 -1.8292
 1230HK4     C6 3286   1.037   6.033   8.702 -0.1441  0.4306  0.5593
 1230HK4     C5 3287   1.158   6.099   8.727  0.4331 -0.3280 -0.2130
 1230HK4    C10 3288   1.200   6.224   8.657  0.6059 -0.1629  0.1787
 1230HK4     O1 3289   1.217   6.205   8.536 -0.2356  0.2621 -0.0099
 1230HK4    C16 3290   0.930   6.080   8.612  0.1205  0.0643  0.0490
 1230HK4    C15 3291   0.883   6.212   8.627 -0.2303 -0.1046  0.4601
 1230HK4     H7 3292   0.926   6.270   8.710 -0.3586 -1.8763  1.7882
 1230HK4    C20 3293   0.773   6.256   8.555  0.0413 -0.1865  0.0003
 1230HK4     H9 3294   0.713   6.337   8.597  0.0762  0.2052 -0.6855
 1230HK4    C19 3295   0.714   6.179   8.455  0.5052 -0.2489 -0.2279
 1230HK4    C18 3296   0.770   6.048   8.429  0.4589 -0.2075 -0.5372
 1230HK4    C17 3297   0.872   6.003   8.512 -0.1376 -0.0450  0.2841
 1230HK4     H8 3298   0.919   5.909   8.483 -0.3122 -0.7097  2.0854
 1230HK4     N1 3299   0.707   5.988   8.318 -0.3111 -0.3463 -0.0261
 1230HK4    C21 3300   0.590   6.063   8.294  0.1323  0.2686 -0.2629
 1230HK4    C22 3301   0.602   6.190   8.363  0.2622  0.0576  0.1006
 1230HK4    C26 3302   0.500   6.283   8.351  0.4180  0.1589 -0.4519
 1230HK4    H13 3303   0.519   6.390   8.359  0.4766  0.0537  0.8561
 1230HK4    C25 3304   0.378   6.251   8.293  0.2336 -0.1566  0.1092
 1230HK4    H12 3305   0.293   6.318   8.305  0.6652  0.5616 -0.7763
 1230HK4    C24 3306   0.359   6.121   8.247  0.3975 -0.0375 -0.3037
 1230HK4    H11 3307   0.262   6.082   8.215 -0.2312  0.9019  0.4243
 1230HK4    C23 3308   0.464   6.030   8.245  0.1938 -0.2776 -0.0536
 1230HK4    H10 3309   0.446   5.923   8.229 -0.0952 -0.2723  0.2254
 1230HK4    C39 3310   0.767   5.906   8.221  0.0802 -0.2957  0.1723
 1230HK4    C41 3311   0.694   5.849   8.115 -0.3586 -0.4324  0.5475
 1230HK4    H21 3312   0.597   5.893   8.086 -0.5420 -0.6979  0.7577
 1230HK4    C42 3313   0.737   5.751   8.026  0.0165  0.0541  0.1965
 1230HK4    H22 3314   0.678   5.731   7.936 -0.2890  1.3750  0.0916
 1230HK4    C43 3315   0.871   5.715   8.038  0.0745  0.2001 -0.0211
 1230HK4    H23 3316   0.910   5.629   7.984  0.3112  2.0000 -2.8766
 1230HK4    C44 3317   0.947   5.772   8.139 -0.1372  0.1660  0.1567
 1230HK4    H24 3318   1.048   5.730   8.145 -0.6752 -1.3150 -0.8475
 1230HK4    C45 3319   0.900   5.862   8.234  0.2477  0.2341  0.2840
 1230HK4    H25 3320   0.970   5.912   8.303 -0.6960 -1.0904  2.2672
 1231HK4    H28 3321   2.274  10.080   6.792 -0.1995 -1.3017  0.1541
 1231HK4    C48 3322   2.277  10.070   6.684 -0.7408 -0.4316  0.0519
 1231HK4    C47 3323   2.267   9.938   6.640  0.2440 -0.4751 -0.0392
 1231HK4    H27 3324   2.286   9.861   6.716  1.0794  1.4169  1.7396
 1231HK4    C46 3325   2.254   9.905   6.506 -0.2144  0.2683 -0.1815
 1231HK4    H26 3326   2.296   9.812   6.465  2.4627  0.7749  1.2989
 1231HK4    C40 3327   2.241  10.010   6.413  0.2694  0.1764 -0.3535
 1231HK4    C50 3328   2.249  10.143   6.461 -0.2024 -0.0330  0.3150
 1231HK4    H30 3329   2.231  10.224   6.388  1.7183  0.6796  0.6056
 1231HK4    C49 3330   2.264  10.176   6.595 -0.0581 -0.1195  0.3199
 1231HK4    H29 3331   2.258  10.278   6.635 -1.4268  0.3596 -1.0534
 1231HK4     N2 3332   2.222   9.983   6.277 -0.2393  0.4186 -0.3316
 1231HK4    C30 3333   2.182   9.856   6.231 -0.4290  0.3804 -0.0678
 1231HK4    C29 3334   2.076   9.779   6.279 -0.0473 -0.0603  0.0723
 1231HK4    H15 3335   2.037   9.797   6.380 -1.6924 -0.1116 -0.5408
 1231HK4    C28 3336   2.017   9.680   6.202  0.4317 -0.3493  0.0726
 1231HK4    C27 3337   2.068   9.663   6.072  0.3691 -0.0607  0.0089
 1231HK4    H14 3338   2.006   9.615   5.994 -0.2922  1.8942 -0.6953
 1231HK4    C32 3339   2.179   9.728   6.020  0.3083 -0.0195 -0.0688
 1231HK4    H16 3340   2.216   9.718   5.918 -1.2525  2.5622 -0.9311
 1231HK4    C31 3341   2.231   9.831   6.097 -0.2734  0.2103  0.0220
 1231HK4    C34 3342   2.312   9.945   6.058  0.0268 -0.1886 -0.5470
 1231HK4    C33 3343   2.305  10.032   6.174  0.0154 -0.2944 -0.4700
 1231HK4    C35 3344   2.381  10.148   6.171 -0.4029  0.0083  0.4322
 1231HK4    H17 3345   2.396  10.212   6.258  2.5007 -1.4458  1.0847
 1231HK4    C36 3346   2.462  10.177   6.061 -0.4296 -0.0845  0.3864
 1231HK4    H18 3347   2.550  10.239   6.083  0.3200 -1.6709  2.0777
 1231HK4    C37 3348   2.471  10.084   5.958 -0.0476  0.0586  0.2888
 1231HK4    H19 3349   2.535  10.116   5.875 -0.3290  1.1198  0.4620
 1231HK4    C38 3350   2.399   9.966   5.952  0.0078  0.0623 -0.5143
 1231HK4    H20 3351   2.410   9.896   5.869 -0.4033  0.3506 -0.8092
 1231HK4    C14 3352   1.929   9.577   6.260 -0.3259 -0.0129 -0.4757
 1231HK4     C9 3353   1.910   9.444   6.220 -0.4658 -0.1267 -0.0216
 1231HK4     C8 3354   1.794   9.375   6.259 -0.6904  0.1080 -0.2762
 1231HK4    C11 3355   1.696   9.436   6.337  0.0408  0.1281  0.6346
 1231HK4     H4 3356   1.602   9.389   6.372 -0.3633  1.9149  2.0287
 1231HK4    C12 3357   1.718   9.564   6.388 -0.0463  0.4505 -0.1377
 1231HK4     H5 3358   1.648   9.613   6.457 -0.3620 -0.6658  0.3469
 1231HK4    C13 3359   1.832   9.632   6.347  0.1573  0.1648 -0.0456
 1231HK4     H6 3360   1.831   9.741   6.355  0.4197  0.0062  2.7401
 1231HK4     C7 3361   1.776   9.234   6.221 -0.0403  0.0246 -0.2738
 1231HK4     O2 3362   1.683   9.167   6.265 -0.2619  0.3201 -0.2922
 1231HK4     C4 3363   1.871   9.163   6.132  0.1084 -0.0156 -0.0820
 1231HK4     C3 3364   1.850   9.031   6.093 -0.2633  0.1857 -0.5682
 1231HK4     H3 3365   1.767   8.969   6.129  0.4524 -1.0909 -1.0739
 1231HK4     C2 3366   1.940   8.972   6.005  0.1809 -0.2706  0.1850
 1231HK4     H2 3367   1.913   8.871   5.971 -0.8081  0.2395 -0.5732
 1231HK4     C1 3368   2.048   9.043   5.953 -0.1860  0.2042  0.0666
 1231HK4     H1 3369   2.110   8.998   5.875 -2.4748 -0.1425 -1.6121
 1231HK4     C6 3370   2.060   9.180   5.985 -0.3882  0.1623  0.3208
 1231HK4     C5 3371   1.984   9.236   6.089  0.2735  0.2333  0.7668
 1231HK4    C10 3372   2.015   9.371   6.144  0.2688  0.3267  0.5382
 1231HK4     O1 3373   2.134   9.390   6.167  0.3067  0.1564  0.4828
 1231HK4    C16 3374   2.144   9.265   5.900  0.1663 -0.3681  0.3393
 1231HK4    C15 3375   2.105   9.392   5.854  0.0390 -0.3451  0.5224
 1231HK4     H7 3376   2.006   9.433   5.879 -0.7267 -2.0796  0.3612
 1231HK4    C20 3377   2.197   9.478   5.795 -0.2942  0.1513  0.7115
 1231HK4     H9 3378   2.167   9.575   5.756 -1.3931  0.1108  1.4419
 1231HK4    C19 3379   2.327   9.432   5.777 -0.4001  0.2227 -0.3086
 1231HK4    C18 3380   2.371   9.300   5.820 -0.6715 -0.0725 -0.9386
 1231HK4    C17 3381   2.273   9.218   5.876  0.1758 -0.2894  0.2311
 1231HK4     H8 3382   2.305   9.132   5.934  3.3291  1.4085  1.1494
 1231HK4     N1 3383   2.505   9.272   5.786 -0.2559 -0.0360  0.6439
 1231HK4    C21 3384   2.552   9.395   5.739 -0.3433 -0.1259  0.3169
 1231HK4    C22 3385   2.449   9.497   5.734 -0.2937 -0.1174 -0.5220
 1231HK4    C26 3386   2.472   9.615   5.664 -0.2228  0.0456 -0.2243
 1231HK4    H13 3387   2.411   9.703   5.685  3.3518  2.1225  1.9143
 1231HK4    C25 3388   2.577   9.631   5.574  0.0471 -0.3604  0.0166
 1231HK4    H12 3389   2.594   9.729   5.529 -1.0274  1.6624  3.7472
 1231HK4    C24 3390   2.672   9.530   5.568 -0.3144 -0.6717 -0.4655
 1231HK4    H11 3391   2.769   9.546   5.519 -0.3194 -0.1357 -0.3017
 1231HK4    C23 3392   2.661   9.423   5.657 -0.1445  0.2652  0.7082
 1231HK4    H10 3393   2.742   9.350   5.653 -0.6001 -0.2304  0.4207
 1231HK4    C39 3394   2.581   9.174   5.851  0.1023 -0.4244 -0.3533
 1231HK4    C41 3395   2.683   9.110   5.778  0.6673  0.1599 -0.0846
 1231HK4    H21 3396   2.673   9.107   5.669 -2.0888  1.8319  0.0781
 1231HK4    C42 3397   2.778   9.031   5.842 -0.2728 -0.5409  0.4576
 1231HK4    H22 3398   2.871   9.005   5.790 -0.8935  0.0983 -0.9837
 1231HK4    C43 3399   2.764   9.000   5.977 -0.0067  0.5001  0.7287
 1231HK4    H23 3400   2.814   8.909   6.010 -0.6485  0.2327  0.9845
 1231HK4    C44 3401   2.659   9.057   6.048 -0.2818  0.5956  0.2476
 1231HK4    H24 3402   2.652   9.023   6.152 -2.5003 -0.5489 -0.2392
 1231HK4    C45 3403   2.572   9.148   5.990 -0.6256 -0.1051 -0.3413
 1231HK4    H25 3404   2.511   9.210   6.058  0.8034 -0.2168  1.0617
 1232HK4    H28 3405   2.662   5.430   9.647 -0.6885 -0.0727  0.4658
 1232HK4    C48 3406   2.623   5.411   9.547  0.0173 -0.6789  0.3043
 1232HK4    C47 3407   2.486   5.428   9.531  0.2006  0.3460 -0.2130
 1232HK4    H27 3408   2.426   5.440   9.622 -0.9100 -0.1424 -0.8787
 1232HK4    C46 3409   2.432   5.422   9.403 -0.1647 -0.4854 -0.0193
 1232HK4    H26 3410   2.322   5.424   9.395 -0.2695 -0.9733  1.1682
 1232HK4    C40 3411   2.512   5.384   9.293  0.0597  0.0410 -0.0380
 1232HK4    C50 3412   2.649   5.358   9.314  0.0273 -0.1695 -0.0911
 1232HK4    H30 3413   2.707   5.322   9.228 -1.7067 -0.7363 -1.0409
 1232HK4    C49 3414   2.705   5.377   9.440 -0.1684 -0.1655 -0.0030
 1232HK4    H29 3415   2.814   5.385   9.436  0.0247 -2.5325 -0.3170
 1232HK4     N2 3416   2.460   5.398   9.164  0.3078 -0.0893 -0.1515
 1232HK4    C30 3417   2.510   5.337   9.047 -0.7004 -0.6725 -0.2835
 1232HK4    C29 3418   2.576   5.216   9.025  0.7734  0.0250  0.2163
 1232HK4    H15 3419   2.613   5.167   9.115  0.6167  1.3288  1.0125
 1232HK4    C28 3420   2.614   5.162   8.903 -0.0176 -0.1825  0.0632
 1232HK4    C27 3421   2.574   5.239   8.792  0.4509  0.0879  0.0814
 1232HK4    H14 3422   2.604   5.203   8.693  2.9591  0.9472  0.4756
 1232HK4    C32 3423   2.509   5.361   8.806  0.4704  0.0975  0.0935
 1232HK4    H16 3424   2.487   5.417   8.715  4.0059 -2.3055 -2.3752
 1232HK4    C31 3425   2.472   5.412   8.929  0.1356  0.1541 -0.0293
 1232HK4    C34 3426   2.403   5.531   8.974  0.1344  0.1259  0.0373
 1232HK4    C33 3427   2.398   5.516   9.118 -0.4888 -0.4581 -0.0378
 1232HK4    C35 3428   2.358   5.629   9.188 -0.1701 -0.2610 -0.1742
 1232HK4    H17 3429   2.379   5.636   9.295 -0.0135  0.2676 -0.2359
 1232HK4    C36 3430   2.308   5.741   9.122 -0.0169 -0.3419 -0.4252
 1232HK4    H18 3431   2.245   5.806   9.185 -0.5942  0.0124 -1.3662
 1232HK4    C37 3432   2.303   5.747   8.983  0.1060 -0.4300 -0.4341
 1232HK4    H19 3433   2.258   5.835   8.939 -0.1098  0.3035  1.1920
 1232HK4    C38 3434   2.354   5.642   8.907  0.0283 -0.3241 -0.6292
 1232HK4    H20 3435   2.364   5.656   8.799  1.3074  0.7288 -0.3899
 1232HK4    C14 3436   2.738   5.084   8.890 -0.0862 -0.2397 -0.2504
 1232HK4     C9 3437   2.842   5.104   8.798  0.5766  0.2844  0.6126
 1232HK4     C8 3438   2.939   5.005   8.771 -0.0155 -0.0679 -0.2573
 1232HK4    C11 3439   2.942   4.894   8.855  0.0914  0.4646  0.4541
 1232HK4     H4 3440   3.022   4.820   8.842  0.9780  1.4696  0.1225
 1232HK4    C12 3441   2.840   4.871   8.946 -0.1477  0.3023  0.1477
 1232HK4     H5 3442   2.830   4.772   8.992 -1.4824  0.8652  1.1130
 1232HK4    C13 3443   2.738   4.964   8.964 -0.2239  0.1692  0.4035
 1232HK4     H6 3444   2.680   4.963   9.058 -1.3590  0.5068 -0.2845
 1232HK4     C7 3445   3.015   5.001   8.645  0.0044 -0.1224 -0.2446
 1232HK4     O2 3446   3.077   4.899   8.617  0.1741 -0.1196  0.1184
 1232HK4     C4 3447   3.000   5.119   8.556  0.1142 -0.0552 -0.1712
 1232HK4     C3 3448   3.039   5.102   8.424 -0.2336 -1.0210 -0.1582
 1232HK4     H3 3449   3.073   5.002   8.394  1.0885 -0.4344 -0.6760
 1232HK4     C2 3450   3.024   5.204   8.330  0.4044 -0.3633  0.4469
 1232HK4     H2 3451   3.042   5.198   8.222 -2.4426 -0.2696 -0.0781
 1232HK4     C1 3452   2.968   5.323   8.375 -0.4775 -0.4689 -0.3445
 1232HK4     H1 3453   2.956   5.400   8.297 -0.2962  2.1580  2.1279
 1232HK4     C6 3454   2.917   5.342   8.505  0.1186  0.3746 -0.2284
 1232HK4     C5 3455   2.936   5.238   8.596 -0.7033 -0.2737 -0.7881
 1232HK4    C10 3456   2.874   5.233   8.731  0.8689 -0.1285 -0.0476
 1232HK4     O1 3457   2.904   5.326   8.806 -0.4803  0.1221  0.2083
 1232HK4    C16 3458   2.790   5.415   8.518  0.2186  0.4725  0.1889
 1232HK4    C15 3459   2.682   5.404   8.428  0.0267  0.2680  0.4450
 1232HK4     H7 3460   2.679   5.315   8.363 -0.9935  1.1774 -0.7584
 1232HK4    C20 3461   2.583   5.500   8.416 -0.0649  0.1427  0.1868
 1232HK4     H9 3462   2.502   5.475   8.348  0.1562  0.0907 -0.0541
 1232HK4    C19 3463   2.576   5.607   8.505  0.1197 -0.0406  0.4213
 1232HK4    C18 3464   2.685   5.624   8.600  0.1965  0.3417  0.2699
 1232HK4    C17 3465   2.785   5.527   8.600  0.1963  0.3414  0.3657
 1232HK4     H8 3466   2.869   5.548   8.667  1.2133 -0.6954 -0.5600
 1232HK4     N1 3467   2.656   5.732   8.685 -0.4570  0.2317  0.1868
 1232HK4    C21 3468   2.535   5.788   8.639 -0.3201  0.1019 -0.3344
 1232HK4    C22 3469   2.475   5.706   8.535 -0.0197  0.1049 -0.5088
 1232HK4    C26 3470   2.358   5.756   8.478 -0.5010  0.0188  0.3919
 1232HK4    H13 3471   2.297   5.690   8.417 -0.8715  1.3341 -0.6747
 1232HK4    C25 3472   2.308   5.881   8.514 -0.1992  0.1625  0.3122
 1232HK4    H12 3473   2.229   5.919   8.450 -0.9960  0.1068  1.2615
 1232HK4    C24 3474   2.372   5.965   8.604  0.0364 -0.1110  0.4024
 1232HK4    H11 3475   2.359   6.074   8.593  0.0800  0.1066  2.3981
 1232HK4    C23 3476   2.483   5.913   8.670  0.3899  0.2862  0.1312
 1232HK4    H10 3477   2.502   5.963   8.765  0.2509  0.5324  0.0309
 1232HK4    C39 3478   2.705   5.750   8.815 -0.1511 -0.3745  0.1597
 1232HK4    C41 3479   2.699   5.878   8.873 -0.4610 -0.1891 -0.2788
 1232HK4    H21 3480   2.727   5.966   8.813  0.1636  0.5382  1.0388
 1232HK4    C42 3481   2.692   5.897   9.011 -0.5857 -0.1050 -0.2938
 1232HK4    H22 3482   2.715   5.994   9.056 -1.5152 -0.8012  1.7439
 1232HK4    C43 3483   2.697   5.787   9.097 -0.2437 -0.3280 -0.6005
 1232HK4    H23 3484   2.686   5.798   9.205 -0.2401 -2.3362 -0.3791
 1232HK4    C44 3485   2.708   5.658   9.046 -0.1911 -0.4941 -0.1637
 1232HK4    H24 3486   2.714   5.570   9.112 -0.9221  0.0967  0.7083
 1232HK4    C45 3487   2.710   5.645   8.908 -0.7403 -0.6801 -0.1583
 1232HK4    H25 3488   2.714   5.541   8.869  2.0395 -0.9824  0.8544
 1233HK4    H28 3489  10.871   2.099   6.663 -0.6905  1.4300 -2.5426
 1233HK4    C48 3490  10.913   2.009   6.618  0.1566  0.2080  0.5225
 1233HK4    C47 3491  11.044   1.964   6.627 -0.0695 -0.4209  0.7238
 1233HK4    H27 3492  11.120   2.016   6.687 -0.0430  0.0410  0.2989
 1233HK4    C46 3493  11.090   1.866   6.540  0.4230  0.5319 -0.0995
 1233HK4    H26 3494  11.185   1.813   6.557  0.6610  0.6223 -1.1000
 1233HK4    C40 3495  11.011   1.811   6.436  0.2836  0.1509  0.2072
 1233HK4    C50 3496  10.876   1.853   6.439  0.1793 -0.2069  0.4417
 1233HK4    H30 3497  10.803   1.820   6.365 -0.9718 -0.1935  1.5590
 1233HK4    C49 3498  10.828   1.954   6.522  0.4040 -0.1608  0.5170
 1233HK4    H29 3499  10.733   2.004   6.499  0.3168  0.1515  1.5101
 1233HK4     N2 3500  11.057   1.792   6.305 -0.1407 -0.2592  0.1140
 1233HK4    C30 3501  11.154   1.867   6.235 -0.1278 -0.0385  0.3654
 1233HK4    C29 3502  11.213   1.991   6.258  0.0636 -0.0591 -0.0112
 1233HK4    H15 3503  11.165   2.057   6.330 -0.3710  0.0274 -0.3772
 1233HK4    C28 3504   0.072   2.036   6.182 -0.3622 -0.1097 -0.6455
 1233HK4    C27 3505   0.118   1.944   6.085  0.5071 -0.0875 -0.2609
 1233HK4    H14 3506   0.197   1.976   6.015 -1.1272 -1.6861 -2.9340
 1233HK4    C32 3507   0.061   1.822   6.052  0.0077  0.0405  0.1139
 1233HK4    H16 3508   0.090   1.769   5.961 -1.3334 -1.0029  0.2741
 1233HK4    C31 3509  11.198   1.782   6.126 -0.0460  0.2702  0.1574
 1233HK4    C34 3510  11.113   1.665   6.118  0.1959  0.1463 -0.6026
 1233HK4    C33 3511  11.031   1.672   6.237  0.0127  0.1819 -0.7278
 1233HK4    C35 3512  10.933   1.575   6.256  0.0859  0.1933 -0.2966
 1233HK4    H17 3513  10.867   1.567   6.342 -0.3368 -1.2381 -0.7444
 1233HK4    C36 3514  10.908   1.487   6.151  0.3081 -0.1697 -0.0440
 1233HK4    H18 3515  10.854   1.395   6.176 -2.2334  1.6834  1.5014
 1233HK4    C37 3516  10.988   1.478   6.037  0.6001 -0.3531  0.1726
 1233HK4    H19 3517  10.968   1.407   5.957 -1.4537  0.5310 -0.1358
 1233HK4    C38 3518  11.092   1.568   6.021  0.2028 -0.0044 -0.4530
 1233HK4    H20 3519  11.141   1.583   5.925 -0.8483 -1.4212 -1.2261
 1233HK4    C14 3520   0.090   2.182   6.181 -0.0641 -0.1456 -0.4293
 1233HK4     C9 3521   0.113   2.254   6.063  0.0242  0.2606 -0.1656
 1233HK4     C8 3522   0.209   2.356   6.050  0.1054  0.1653 -0.3177
 1233HK4    C11 3523   0.279   2.394   6.164  0.3835 -0.6195 -0.2260
 1233HK4     H4 3524   0.348   2.479   6.161 -0.9046  0.5201  1.5301
 1233HK4    C12 3525   0.247   2.333   6.285 -0.5105  0.3059  0.0098
 1233HK4     H5 3526   0.296   2.365   6.377 -0.8903  2.6555 -0.5644
 1233HK4    C13 3527   0.155   2.228   6.297  0.0564 -0.2500 -0.4544
 1233HK4     H6 3528   0.150   2.168   6.389 -0.1014 -0.2137 -0.4400
 1233HK4     C7 3529   0.224   2.435   5.926 -0.1038 -0.1024 -0.5125
 1233HK4     O2 3530   0.297   2.534   5.932 -0.2709 -0.0110 -0.0052
 1233HK4     C4 3531   0.140   2.408   5.807  0.1519  0.1989 -0.7640
 1233HK4     C3 3532   0.152   2.497   5.701 -0.1389  0.8465 -0.2596
 1233HK4     H3 3533   0.206   2.592   5.704  1.4760 -0.0810  1.1326
 1233HK4     C2 3534   0.086   2.462   5.584 -0.1962  0.1179 -0.0133
 1233HK4     H2 3535   0.104   2.527   5.497  2.7548  3.6436  3.0793
 1233HK4     C1 3536   0.031   2.335   5.574 -0.6166  0.2894  0.1301
 1233HK4     H1 3537  11.220   2.321   5.481 -1.6629 -0.6339  0.9127
 1233HK4     C6 3538   0.018   2.246   5.683 -0.7129  0.0186 -0.1014
 1233HK4     C5 3539   0.060   2.291   5.808  0.4169  0.0193 -0.4767
 1233HK4    C10 3540   0.036   2.224   5.939  0.4324  0.1652 -0.4003
 1233HK4     O1 3541  11.169   2.183   5.953  0.2543  0.7113 -0.2487
 1233HK4    C16 3542  11.237   2.108   5.639 -0.1117 -0.3493  0.6584
 1233HK4    C15 3543   0.065   2.000   5.688  0.0954 -0.2725  0.5114
 1233HK4     H7 3544   0.155   2.017   5.748  0.3599  0.3870 -0.0711
 1233HK4    C20 3545   0.020   1.870   5.668 -0.0701 -0.2417  0.6815
 1233HK4     H9 3546   0.076   1.784   5.705  1.5489 -0.0369 -1.2658
 1233HK4    C19 3547  11.142   1.848   5.613  0.1446  0.1991  0.0199
 1233HK4    C18 3548  11.056   1.961   5.582 -0.0256 -0.1532 -0.8013
 1233HK4    C17 3549  11.109   2.089   5.591  0.2306 -0.2908 -0.2872
 1233HK4     H8 3550  11.049   2.175   5.557  1.7603 -0.2881 -3.1545
 1233HK4     N1 3551  10.923   1.920   5.562 -0.3464  0.1749  0.6396
 1233HK4    C21 3552  10.925   1.782   5.590  0.3378 -0.0031 -0.2955
 1233HK4    C22 3553  11.059   1.730   5.605  0.3423  0.0683 -0.0790
 1233HK4    C26 3554  11.087   1.593   5.610  0.0350  0.0240  0.4979
 1233HK4    H13 3555  11.188   1.553   5.600  1.3740  3.1963  0.4230
 1233HK4    C25 3556  10.982   1.503   5.605  0.2371 -0.1914  0.0917
 1233HK4    H12 3557  10.992   1.397   5.629 -0.9022  0.2220  2.5808
 1233HK4    C24 3558  10.850   1.546   5.591  0.3776  0.0770 -0.4121
 1233HK4    H11 3559  10.773   1.485   5.542 -0.5516  0.7146  0.2469
 1233HK4    C23 3560  10.828   1.683   5.598  0.3324  0.0423  0.1524
 1233HK4    H10 3561  10.722   1.710   5.606  0.5802  0.5362  1.8276
 1233HK4    C39 3562  10.804   1.993   5.580 -0.3263  0.4419 -0.2802
 1233HK4    C41 3563  10.701   1.968   5.488 -0.0991  0.8624 -0.6538
 1233HK4    H21 3564  10.713   1.902   5.401 -1.1388 -2.2044  1.4445
 1233HK4    C42 3565  10.569   1.992   5.524 -0.0927  0.2002 -0.1669
 1233HK4    H22 3566  10.494   1.976   5.445  1.1770 -0.3225 -1.2759
 1233HK4    C43 3567  10.544   2.052   5.647  0.2468  0.5114 -0.2516
 1233HK4    H23 3568  10.441   2.073   5.674 -0.0164 -0.9115 -0.1440
 1233HK4    C44 3569  10.643   2.082   5.740  0.2971 -0.6127  0.0568
 1233HK4    H24 3570  10.610   2.129   5.833  0.3912  0.1692 -0.3006
 1233HK4    C45 3571  10.774   2.052   5.705  0.4346 -0.1815  0.2052
 1233HK4    H25 3572  10.853   2.038   5.780  2.7891  0.6480 -2.0316
 1234HK4    H28 3573   5.934   7.909   4.288 -0.7562  0.4232  0.5482
 1234HK4    C48 3574   5.848   7.847   4.261 -0.2849  0.1719 -0.4307
 1234HK4    C47 3575   5.878   7.714   4.234  0.0072  0.1255  0.1124
 1234HK4    H27 3576   5.968   7.672   4.281  0.0820  1.5536  1.3036
 1234HK4    C46 3577   5.782   7.629   4.181  0.0901 -0.3554  0.7360
 1234HK4    H26 3578   5.807   7.524   4.159 -0.7891 -0.6103  0.9124
 1234HK4    C40 3579   5.651   7.671   4.149  0.4917  0.1478 -0.2714
 1234HK4    C50 3580   5.629   7.807   4.177 -0.2825  0.0883 -0.5891
 1234HK4    H30 3581   5.528   7.849   4.166 -1.4369 -1.5598  3.0094
 1234HK4    C49 3582   5.723   7.897   4.225 -0.4764 -0.0080 -0.0203
 1234HK4    H29 3583   5.704   8.005   4.230 -1.4749 -0.1998  0.4354
 1234HK4     N2 3584   5.572   7.603   4.055  0.2326  0.7705 -0.5028
 1234HK4    C30 3585   5.617   7.515   3.954  0.1571  0.2527 -0.0892
 1234HK4    C29 3586   5.742   7.509   3.894  0.0182  1.1413 -0.4766
 1234HK4    H15 3587   5.830   7.548   3.945  0.4001 -0.2074 -0.0918
 1234HK4    C28 3588   5.760   7.428   3.783 -0.0731  0.0542  0.2961
 1234HK4    C27 3589   5.643   7.373   3.725  0.0459  0.1553 -0.0410
 1234HK4    H14 3590   5.647   7.333   3.623 -0.5808 -1.5641  0.5855
 1234HK4    C32 3591   5.518   7.368   3.784 -0.0290  0.3145 -0.1841
 1234HK4    H16 3592   5.449   7.285   3.768  2.4188 -2.1067  1.4855
 1234HK4    C31 3593   5.504   7.443   3.901  0.2318  0.0700  0.0023
 1234HK4    C34 3594   5.386   7.481   3.977  0.1951  0.0049 -0.0216
 1234HK4    C33 3595   5.433   7.583   4.068  0.4568 -0.3546  0.2512
 1234HK4    C35 3596   5.340   7.648   4.148 -0.2219 -0.4001 -0.4952
 1234HK4    H17 3597   5.377   7.692   4.241  1.6351  0.3357 -1.5530
 1234HK4    C36 3598   5.203   7.630   4.131 -0.3768  0.4721 -0.1492
 1234HK4    H18 3599   5.130   7.684   4.194 -0.5803 -1.4072  1.2826
 1234HK4    C37 3600   5.160   7.535   4.040  0.5144 -0.3660  0.2937
 1234HK4    H19 3601   5.053   7.534   4.019 -0.5568 -1.8976  4.9673
 1234HK4    C38 3602   5.250   7.459   3.966  0.2626 -0.5039  0.1285
 1234HK4    H20 3603   5.213   7.390   3.890  0.1498 -3.0135  2.3837
 1234HK4    C14 3604   5.887   7.419   3.710 -0.2202  0.6726 -0.0423
 1234HK4     C9 3605   5.893   7.368   3.580 -0.0422 -0.2498  0.3236
 1234HK4     C8 3606   5.979   7.259   3.550  0.3294  0.1803 -0.1914
 1234HK4    C11 3607   6.065   7.210   3.647  0.6361  0.5365 -0.2815
 1234HK4     H4 3608   6.095   7.105   3.634 -0.0019  0.5834 -2.2015
 1234HK4    C12 3609   6.083   7.275   3.769 -0.5901 -0.0363  0.2109
 1234HK4     H5 3610   6.164   7.247   3.838 -0.5651  1.2196  0.6941
 1234HK4    C13 3611   5.992   7.378   3.794 -0.8800 -0.3134  0.3066
 1234HK4     H6 3612   5.995   7.432   3.890 -1.3482 -0.7520  0.5743
 1234HK4     C7 3613   5.985   7.211   3.410  0.4255  0.0520 -0.1431
 1234HK4     O2 3614   6.003   7.090   3.393  0.3675  0.0046  0.1129
 1234HK4     C4 3615   5.935   7.292   3.298  0.2154  0.1298  0.0075
 1234HK4     C3 3616   5.956   7.255   3.166  0.5056 -0.0854  0.1142
 1234HK4     H3 3617   5.945   7.150   3.133 -1.6549  0.2644 -0.4145
 1234HK4     C2 3618   5.971   7.343   3.060 -0.0870  0.2152  0.2746
 1234HK4     H2 3619   5.993   7.308   2.957 -1.4820  3.3263 -1.1515
 1234HK4     C1 3620   5.969   7.478   3.094  0.3350  0.2920  0.0042
 1234HK4     H1 3621   6.008   7.547   3.018  1.5644  1.8328  1.9847
 1234HK4     C6 3622   5.938   7.519   3.225 -0.0303 -0.1122  0.0460
 1234HK4     C5 3623   5.908   7.428   3.326  0.6795  0.1253  0.4765
 1234HK4    C10 3624   5.859   7.456   3.465 -0.2990 -0.4399  0.2530
 1234HK4     O1 3625   5.781   7.549   3.482  0.0584 -0.2102  0.6144
 1234HK4    C16 3626   5.905   7.661   3.243  0.0210 -0.0600 -0.2737
 1234HK4    C15 3627   5.840   7.745   3.150 -0.2745  0.2005  0.1658
 1234HK4     H7 3628   5.817   7.697   3.054  1.0304 -0.8477  0.3596
 1234HK4    C20 3629   5.838   7.884   3.153 -0.2731  0.2037  0.0187
 1234HK4     H9 3630   5.762   7.932   3.091  0.9203  1.6095 -0.3988
 1234HK4    C19 3631   5.910   7.952   3.250  0.2355  0.1895 -0.3460
 1234HK4    C18 3632   5.982   7.874   3.349 -0.7029 -0.2693 -0.0290
 1234HK4    C17 3633   5.976   7.735   3.337 -0.0105 -0.2950 -0.0639
 1234HK4     H8 3634   6.042   7.682   3.405  2.7256  0.9734 -1.6164
 1234HK4     N1 3635   6.026   7.956   3.455 -0.0529 -0.6278 -0.0248
 1234HK4    C21 3636   5.996   8.086   3.411  0.5160 -0.4918 -0.0217
 1234HK4    C22 3637   5.914   8.091   3.292  0.2681  0.0349  0.1671
 1234HK4    C26 3638   5.895   8.213   3.228 -0.2133 -0.1152  0.0220
 1234HK4    H13 3639   5.866   8.204   3.123  0.8171  0.9570 -0.3768
 1234HK4    C25 3640   5.963   8.323   3.280 -0.2628 -0.2426  0.3651
 1234HK4    H12 3641   5.967   8.416   3.221  2.7764 -1.2876 -1.2057
 1234HK4    C24 3642   6.040   8.322   3.395  0.2390  0.0521  0.0333
 1234HK4    H11 3643   6.089   8.414   3.431 -2.6278  1.1629  1.2417
 1234HK4    C23 3644   6.056   8.201   3.462 -0.5682  0.0024  0.1371
 1234HK4    H10 3645   6.076   8.212   3.568  1.2687 -0.6583 -0.1312
 1234HK4    C39 3646   6.018   7.924   3.591  0.5425 -0.3232  0.0858
 1234HK4    C41 3647   6.099   7.987   3.687  0.1091 -0.0812  0.2924
 1234HK4    H21 3648   6.203   8.019   3.669  0.6821 -2.4503 -0.9238
 1234HK4    C42 3649   6.062   7.977   3.821  0.2700 -0.6010  0.3003
 1234HK4    H22 3650   6.126   8.019   3.899  0.5023  0.4384 -0.4414
 1234HK4    C43 3651   5.951   7.906   3.866 -0.3276  0.0764 -0.0801
 1234HK4    H23 3652   5.932   7.897   3.973  1.5142 -1.7667  0.1383
 1234HK4    C44 3653   5.869   7.844   3.773 -0.3276  0.1239 -0.1111
 1234HK4    H24 3654   5.782   7.784   3.803 -0.0310  0.3261  1.1709
 1234HK4    C45 3655   5.906   7.853   3.639 -0.0263  0.5070 -0.0031
 1234HK4    H25 3656   5.845   7.812   3.558  0.0861  1.5885 -0.6427
 1235HK4    H28 3657   7.584   6.807   1.019  1.2422  1.0809 -2.0253
 1235HK4    C48 3658   7.643   6.870   1.085 -0.1757  0.5954 -0.2560
 1235HK4    C47 3659   7.769   6.826   1.126 -0.5402 -0.1616  0.0576
 1235HK4    H27 3660   7.825   6.742   1.084  0.7084 -0.0503  1.4750
 1235HK4    C46 3661   7.837   6.900   1.221 -0.0520  0.1676 -0.5444
 1235HK4    H26 3662   7.945   6.876   1.226 -0.3228 -0.8072  1.2281
 1235HK4    C40 3663   7.783   7.016   1.280  0.1300  0.1074 -0.2525
 1235HK4    C50 3664   7.662   7.064   1.225  0.5013  0.5524 -0.6841
 1235HK4    H30 3665   7.622   7.163   1.253 -1.1153 -0.4828  0.7316
 1235HK4    C49 3666   7.590   6.990   1.132 -0.4452  0.2803  0.2509
 1235HK4    H29 3667   7.496   7.025   1.087 -1.2399 -1.1461  0.7691
 1235HK4     N2 3668   7.815   7.052   1.411  0.6164  0.1822 -0.3915
 1235HK4    C30 3669   7.881   6.973   1.508  0.1283  0.3006  0.0396
 1235HK4    C29 3670   7.901   6.836   1.509 -0.0383  0.2660 -0.6868
 1235HK4    H15 3671   7.886   6.776   1.420 -0.8923  0.5662 -0.7454
 1235HK4    C28 3672   7.941   6.769   1.625 -0.1590  0.2568 -0.6504
 1235HK4    C27 3673   7.948   6.840   1.747 -0.0988 -0.4129 -0.2631
 1235HK4    H14 3674   7.953   6.785   1.842  0.3095 -1.2281 -0.7582
 1235HK4    C32 3675   7.933   6.978   1.755  0.1559 -0.3872 -0.2118
 1235HK4    H16 3676   7.967   7.037   1.840  2.6526  0.8719 -2.0030
 1235HK4    C31 3677   7.901   7.040   1.635  0.4646  0.2320  0.0245
 1235HK4    C34 3678   7.844   7.171   1.609 -0.0145  0.0931  0.3654
 1235HK4    C33 3679   7.800   7.178   1.471 -0.4031 -0.3388  0.4655
 1235HK4    C35 3680   7.772   7.305   1.422  0.0826 -0.2228  0.4892
 1235HK4    H17 3681   7.725   7.316   1.324  0.5833 -0.1173  0.2556
 1235HK4    C36 3682   7.781   7.420   1.500  0.0050  0.1608 -0.0577
 1235HK4    H18 3683   7.774   7.520   1.455  1.8086 -0.5965 -2.0719
 1235HK4    C37 3684   7.831   7.411   1.629 -0.1443 -0.0237 -0.0122
 1235HK4    H19 3685   7.854   7.500   1.688 -2.9336  0.3747  0.5262
 1235HK4    C38 3686   7.857   7.286   1.686  0.4405  0.1759  0.1658
 1235HK4    H20 3687   7.907   7.288   1.783  1.2324  0.5322 -0.2432
 1235HK4    C14 3688   7.986   6.630   1.617  0.3571  0.3774  0.0771
 1235HK4     C9 3689   8.012   6.550   1.729 -0.2172  0.1485  0.0443
 1235HK4     C8 3690   8.137   6.488   1.749  0.1025  0.8311  0.1832
 1235HK4    C11 3691   8.223   6.476   1.641 -0.4724  0.2579 -0.2132
 1235HK4     H4 3692   8.325   6.433   1.646 -0.9048 -0.9001 -1.0904
 1235HK4    C12 3693   8.188   6.535   1.520 -0.1445  0.1830 -0.3485
 1235HK4     H5 3694   8.243   6.513   1.428  0.5863 -1.1670  0.3982
 1235HK4    C13 3695   8.067   6.603   1.504 -0.2328  0.0419 -0.2718
 1235HK4     H6 3696   8.030   6.616   1.402  2.2971  0.1366 -1.2295
 1235HK4     C7 3697   8.170   6.433   1.882  0.0919  0.5279  0.0595
 1235HK4     O2 3698   8.282   6.390   1.909 -0.2512 -0.3258  0.1561
 1235HK4     C4 3699   8.070   6.452   1.990 -0.3290  0.1351 -0.2635
 1235HK4     C3 3700   8.109   6.440   2.123 -0.2370 -0.9092 -0.3846
 1235HK4     H3 3701   8.214   6.428   2.151 -0.0981 -0.7906 -0.8401
 1235HK4     C2 3702   8.011   6.430   2.221  0.1872 -0.4559  0.0844
 1235HK4     H2 3703   8.030   6.484   2.315  1.0374 -0.5424 -0.0288
 1235HK4     C1 3704   7.879   6.405   2.184  0.1084 -0.2492  0.2266
 1235HK4     H1 3705   7.800   6.404   2.261 -0.9425  0.5870 -0.8319
 1235HK4     C6 3706   7.838   6.403   2.049  0.0268 -0.1347  0.2507
 1235HK4     C5 3707   7.933   6.444   1.956 -0.4728  0.7843  0.1355
 1235HK4    C10 3708   7.907   6.521   1.831 -0.5019  0.1637 -0.2449
 1235HK4     O1 3709   7.792   6.548   1.796 -0.6360 -0.0887 -0.0013
 1235HK4    C16 3710   7.695   6.371   2.034 -0.0901  0.4518  0.1160
 1235HK4    C15 3711   7.597   6.391   2.133 -0.2305  0.1801  0.0308
 1235HK4     H7 3712   7.614   6.469   2.209 -1.6636 -1.0863  1.7050
 1235HK4    C20 3713   7.469   6.336   2.123  0.0180 -0.3326 -0.3621
 1235HK4     H9 3714   7.390   6.357   2.195  2.0389 -1.2589  2.2434
 1235HK4    C19 3715   7.438   6.262   2.010 -0.1195 -0.9569  0.0790
 1235HK4    C18 3716   7.532   6.244   1.902 -0.1690 -0.2116 -0.0961
 1235HK4    C17 3717   7.661   6.290   1.926 -0.3386 -0.1074  0.6113
 1235HK4     H8 3718   7.734   6.227   1.876  1.9247  2.0577  1.0852
 1235HK4     N1 3719   7.475   6.176   1.792  0.2894 -0.8470  0.0510
 1235HK4    C21 3720   7.339   6.170   1.828  0.1841  0.0866 -0.1745
 1235HK4    C22 3721   7.313   6.203   1.967 -0.2975 -0.4273 -0.1409
 1235HK4    C26 3722   7.187   6.177   2.021 -0.2419  0.5857  0.4830
 1235HK4    H13 3723   7.191   6.174   2.130  0.9014  0.2473  0.4401
 1235HK4    C25 3724   7.089   6.115   1.945  0.7193 -0.3838  0.0035
 1235HK4    H12 3725   7.007   6.068   2.001 -0.7990  2.1242 -0.0281
 1235HK4    C24 3726   7.110   6.096   1.809 -0.1794  0.1277 -0.2135
 1235HK4    H11 3727   7.024   6.066   1.747 -2.1840  1.0937  1.9965
 1235HK4    C23 3728   7.231   6.129   1.750 -0.1504  0.5157  0.0637
 1235HK4    H10 3729   7.230   6.141   1.642  0.1839 -1.4694 -0.1638
 1235HK4    C39 3730   7.537   6.150   1.670  0.1235 -0.5690 -0.0940
 1235HK4    C41 3731   7.494   6.038   1.595  0.0172 -0.7297  0.2060
 1235HK4    H21 3732   7.398   5.984   1.604  0.3303 -1.4599 -0.7320
 1235HK4    C42 3733   7.566   6.001   1.482  0.3517 -0.1858  0.2365
 1235HK4    H22 3734   7.530   5.917   1.420 -1.3321  0.7601 -0.0954
 1235HK4    C43 3735   7.677   6.065   1.429  0.0236  0.1664 -0.0259
 1235HK4    H23 3736   7.718   6.038   1.332  0.8691  1.9746 -0.1829
 1235HK4    C44 3737   7.713   6.179   1.499 -0.7965  0.4974 -0.1303
 1235HK4    H24 3738   7.807   6.231   1.474 -0.2351 -0.2769  0.3244
 1235HK4    C45 3739   7.645   6.221   1.612 -0.3576  0.3861  0.1795
 1235HK4    H25 3740   7.658   6.327   1.639  3.3892  0.1293 -0.4505
 1236HK4    H28 3741   0.693   6.065   9.810  1.0811 -0.9582 -0.6331
 1236HK4    C48 3742   0.638   5.978   9.846  0.2789  0.0346  0.5638
 1236HK4    C47 3743   0.681   5.913   9.961 -0.1408  0.2888  0.8639
 1236HK4    H27 3744   0.781   5.936  10.000  0.5988 -1.5775  0.1006
 1236HK4    C46 3745   0.602   5.813  10.017 -0.0594 -0.2617  0.0087
 1236HK4    H26 3746   0.628   5.763  10.112  0.4215  2.3456  1.2958
 1236HK4    C40 3747   0.482   5.771   9.957 -0.3126  0.1423  0.2329
 1236HK4    C50 3748   0.451   5.832   9.834  0.1981  0.2428  0.1513
 1236HK4    H30 3749   0.368   5.793   9.772 -1.1032 -2.8521  3.6647
 1236HK4    C49 3750   0.521   5.941   9.782  0.8864 -0.4095 -0.3040
 1236HK4    H29 3751   0.486   5.995   9.693  1.3875  0.9094  0.2860
 1236HK4     N2 3752   0.425   5.646   9.980  0.3727 -0.1367  0.4211
 1236HK4    C30 3753   0.497   5.542  10.044 -0.1055 -0.6071  0.2000
 1236HK4    C29 3754   0.634   5.519  10.045  0.0612  0.3305 -0.0084
 1236HK4    H15 3755   0.698   5.570   9.972 -1.2102  2.5973  0.4211
 1236HK4    C28 3756   0.685   5.407  10.109  0.0206  0.3474  0.0563
 1236HK4    C27 3757   0.600   5.326  10.187  0.1116  0.6322  0.4496
 1236HK4    H14 3758   0.644   5.238  10.236 -0.4959 -0.4873 -0.9546
 1236HK4    C32 3759   0.463   5.346  10.186 -0.0003 -0.1334  0.1696
 1236HK4    H16 3760   0.391   5.270  10.218  0.2910 -0.0626  0.9957
 1236HK4    C31 3761   0.408   5.447  10.107 -0.4227 -0.2070  0.3662
 1236HK4    C34 3762   0.274   5.489  10.071 -0.0858  0.3858 -0.2009
 1236HK4    C33 3763   0.290   5.608   9.989  0.1726  0.4621 -0.0399
 1236HK4    C35 3764   0.179   5.654   9.918 -0.1451 -0.6963 -0.3066
 1236HK4    H17 3765   0.174   5.749   9.865  1.4079 -1.1693 -1.3373
 1236HK4    C36 3766   0.065   5.575   9.924 -0.3447 -0.3295  0.7039
 1236HK4    H18 3767  11.228   5.608   9.861  0.3695  0.1333 -0.0314
 1236HK4    C37 3768   0.043   5.465  10.006 -0.1674 -0.3548  0.7191
 1236HK4    H19 3769  11.188   5.432  10.008  0.5473 -2.8572 -1.7336
 1236HK4    C38 3770   0.155   5.417  10.073  0.2832 -0.2201  0.0691
 1236HK4    H20 3771   0.167   5.312  10.100  1.5829  0.3720  1.9759
 1236HK4    C14 3772   0.829   5.375  10.104 -0.0667 -0.1545  0.7169
 1236HK4     C9 3773   0.879   5.245  10.116 -0.4693 -0.3511  0.2937
 1236HK4     C8 3774   1.003   5.221  10.178 -0.5081  0.3823  0.6578
 1236HK4    C11 3775   1.080   5.332  10.212 -0.3379  0.3445  0.3954
 1236HK4     H4 3776   1.176   5.319  10.263 -0.4369  0.0173  0.4993
 1236HK4    C12 3777   1.047   5.464  10.184  0.1650  0.4997  0.5286
 1236HK4     H5 3778   1.127   5.539  10.189 -1.1088  2.1359 -2.0959
 1236HK4    C13 3779   0.919   5.480  10.130  0.2223 -0.2600  0.1548
 1236HK4     H6 3780   0.892   5.584  10.108 -1.5403 -0.0094  3.2512
 1236HK4     C7 3781   1.038   5.080  10.208 -0.3934  0.3625  0.4287
 1236HK4     O2 3782   1.138   5.066  10.277  0.1494  0.4767 -0.3203
 1236HK4     C4 3783   0.948   4.972  10.161  0.2052  0.1233 -0.1864
 1236HK4     C3 3784   0.994   4.847  10.201  0.2530  0.2094  0.0309
 1236HK4     H3 3785   1.101   4.823  10.189  0.3018  0.2085  0.4822
 1236HK4     C2 3786   0.907   4.740  10.194 -0.3056  0.6671 -0.0649
 1236HK4     H2 3787   0.946   4.640  10.218  1.3052  1.3835  0.3815
 1236HK4     C1 3788   0.773   4.759  10.160 -0.3994  0.0949 -0.0232
 1236HK4     H1 3789   0.710   4.675  10.191 -0.6213 -0.3819 -1.6966
 1236HK4     C6 3790   0.725   4.885  10.121 -0.2597  0.0676 -0.2942
 1236HK4     C5 3791   0.816   4.991  10.116  0.0855 -0.2123  0.0195
 1236HK4    C10 3792   0.794   5.131  10.069 -0.6473 -0.2256  0.3116
 1236HK4     O1 3793   0.732   5.143   9.964 -0.1395 -0.7612 -0.0536
 1236HK4    C16 3794   0.582   4.907  10.152 -0.2623 -0.5515  0.1417
 1236HK4    C15 3795   0.514   4.837  10.254 -0.1517 -0.0504  0.5613
 1236HK4     H7 3796   0.574   4.788  10.332  0.2539  0.6243  0.6858
 1236HK4    C20 3797   0.376   4.831  10.268 -0.1987  0.3499  0.2817
 1236HK4     H9 3798   0.340   4.756  10.338 -1.2834  0.3732 -0.2579
 1236HK4    C19 3799   0.297   4.908  10.183 -0.0396  0.5082  0.2760
 1236HK4    C18 3800   0.364   4.980  10.077 -0.3133 -0.8403 -0.8302
 1236HK4    C17 3801   0.502   4.970  10.058 -0.1137 -0.1724  0.2702
 1236HK4     H8 3802   0.531   4.968   9.953 -2.8163 -1.0221 -0.5013
 1236HK4     N1 3803   0.262   5.032   9.994 -0.2960  0.5315 -0.0013
 1236HK4    C21 3804   0.137   5.006  10.054 -0.2305  0.2733  0.0213
 1236HK4    C22 3805   0.154   4.931  10.176 -0.0640  0.2821  0.0055
 1236HK4    C26 3806   0.049   4.920  10.266  0.2525  0.3096  0.3816
 1236HK4    H13 3807   0.058   4.841  10.340 -1.8454 -1.5240 -1.2500
 1236HK4    C25 3808  11.172   4.980  10.251  0.1878  0.1262  0.1899
 1236HK4    H12 3809  11.089   4.942  10.311  1.3372 -1.4309  0.8164
 1236HK4    C24 3810  11.157   5.051  10.133  0.0969 -0.1567  0.0285
 1236HK4    H11 3811  11.071   5.118  10.118  0.1012 -0.6191 -2.1907
 1236HK4    C23 3812   0.010   5.061  10.038 -0.2872  0.0373 -0.3580
 1236HK4    H10 3813  11.241   5.130   9.956 -0.9148 -0.4865 -0.6757
 1236HK4    C39 3814   0.290   5.087   9.869 -0.1468  0.2763 -0.0828
 1236HK4    C41 3815   0.201   5.078   9.759 -0.3241  0.4232  0.0479
 1236HK4    H21 3816   0.117   5.008   9.770 -0.2484  0.5346  1.3662
 1236HK4    C42 3817   0.216   5.158   9.647  0.6032  0.0526 -0.0994
 1236HK4    H22 3818   0.149   5.133   9.564  0.8509  0.3058 -0.3789
 1236HK4    C43 3819   0.326   5.243   9.633  0.5591  0.0450 -0.5024
 1236HK4    H23 3820   0.333   5.309   9.546 -1.3368 -0.3761 -0.9971
 1236HK4    C44 3821   0.417   5.253   9.737 -0.0090 -0.4888  0.0467
 1236HK4    H24 3822   0.508   5.309   9.711  1.0033 -1.9259  0.3704
 1236HK4    C45 3823   0.396   5.178   9.853 -0.0263  0.2454  0.5256
 1236HK4    H25 3824   0.453   5.209   9.941  1.8852 -1.0253 -0.2261
 1237HK4    H28 3825   0.694   7.663   4.570  0.7686 -1.3050 -1.1817
 1237HK4    C48 3826   0.721   7.600   4.655 -0.6105 -0.4680 -0.1048
 1237HK4    C47 3827   0.658   7.627   4.776  0.2060 -0.2043  0.2641
 1237HK4    H27 3828   0.583   7.707   4.773  0.5392  0.1441  1.2680
 1237HK4    C46 3829   0.683   7.550   4.888 -0.0280 -0.0847  0.3979
 1237HK4    H26 3830   0.665   7.585   4.991  0.1360  1.9221 -0.2433
 1237HK4    C40 3831   0.766   7.435   4.879 -0.2389 -0.2108  0.0893
 1237HK4    C50 3832   0.818   7.406   4.751 -0.5279  0.0426 -0.0891
 1237HK4    H30 3833   0.875   7.312   4.746  2.5140  1.6725  2.2894
 1237HK4    C49 3834   0.811   7.495   4.644  0.2803  0.2712  0.0431
 1237HK4    H29 3835   0.881   7.494   4.560  0.2406  1.5317 -0.0150
 1237HK4     N2 3836   0.849   7.394   4.983 -0.3183  0.0834  0.2688
 1237HK4    C30 3837   0.924   7.476   5.069  0.2723 -0.2555  0.0765
 1237HK4    C29 3838   0.969   7.606   5.047 -0.1999 -0.1364 -0.1922
 1237HK4    H15 3839   0.956   7.647   4.947  0.2051  0.2068 -0.1037
 1237HK4    C28 3840   1.052   7.663   5.143  0.3675 -0.2083 -0.6388
 1237HK4    C27 3841   1.092   7.588   5.256  0.3292 -0.2517 -0.6545
 1237HK4    H14 3842   1.152   7.643   5.329  1.0066 -0.9254 -0.6994
 1237HK4    C32 3843   1.048   7.459   5.285 -0.6497  0.3663  0.6715
 1237HK4    H16 3844   1.101   7.392   5.353  0.6596  2.3511  1.6716
 1237HK4    C31 3845   0.963   7.405   5.189  0.3894 -0.2125  0.0635
 1237HK4    C34 3846   0.908   7.271   5.176 -0.0756 -0.0021 -0.1339
 1237HK4    C33 3847   0.846   7.267   5.045  0.1321 -0.1653 -0.2264
 1237HK4    C35 3848   0.793   7.151   4.989  0.4258 -0.1719 -0.4892
 1237HK4    H17 3849   0.728   7.158   4.902  1.8180  2.5846 -1.3665
 1237HK4    C36 3850   0.802   7.034   5.063 -0.4411  0.1992  0.2069
 1237HK4    H18 3851   0.744   6.944   5.034  0.0706 -0.3933  0.9947
 1237HK4    C37 3852   0.856   7.033   5.191  0.0739  0.4715 -0.0089
 1237HK4    H19 3853   0.875   6.934   5.233  1.4932  1.0859  0.8331
 1237HK4    C38 3854   0.899   7.153   5.247  0.8416  0.1106  0.1798
 1237HK4    H20 3855   0.941   7.149   5.348 -0.4251 -0.6186  0.7030
 1237HK4    C14 3856   1.115   7.792   5.111 -0.2692  0.3045  0.1558
 1237HK4     C9 3857   1.242   7.839   5.144 -0.4153  0.4138  0.5665
 1237HK4     C8 3858   1.264   7.978   5.158  0.2672  0.3430  0.2116
 1237HK4    C11 3859   1.173   8.075   5.117 -0.0108  0.0016  0.0197
 1237HK4     H4 3860   1.191   8.183   5.119  1.2353 -0.1815 -0.5499
 1237HK4    C12 3861   1.051   8.028   5.070  0.0357 -0.0074 -0.0921
 1237HK4     H5 3862   0.968   8.101   5.068 -0.3053 -0.3413  1.6397
 1237HK4    C13 3863   1.024   7.892   5.069 -0.7952  0.1419  0.9011
 1237HK4     H6 3864   0.922   7.860   5.042 -1.4320  2.1270  0.8812
 1237HK4     C7 3865   1.400   8.024   5.192  0.3865  0.1389  0.0154
 1237HK4     O2 3866   1.410   8.115   5.274 -0.2965  0.1231  0.1155
 1237HK4     C4 3867   1.512   7.931   5.164  0.0967 -0.1925 -0.0351
 1237HK4     C3 3868   1.637   7.990   5.162 -0.1411  0.3044 -0.5248
 1237HK4     H3 3869   1.650   8.100   5.161 -0.7516  0.4019  1.0009
 1237HK4     C2 3870   1.749   7.911   5.185 -0.3286  0.3187  0.4637
 1237HK4     H2 3871   1.852   7.949   5.193 -0.2282 -0.0309  0.9031
 1237HK4     C1 3872   1.727   7.777   5.216 -0.4616  0.2113 -0.0840
 1237HK4     H1 3873   1.811   7.706   5.211 -0.8772 -0.2850  0.0027
 1237HK4     C6 3874   1.601   7.715   5.218 -0.3479 -0.0200 -0.0792
 1237HK4     C5 3875   1.492   7.792   5.175 -0.3980 -0.1320 -0.1575
 1237HK4    C10 3876   1.354   7.741   5.149 -0.5562  0.2185 -0.0099
 1237HK4     O1 3877   1.343   7.634   5.089 -0.2339 -0.3522  0.9438
 1237HK4    C16 3878   1.590   7.613   5.323  0.4862 -0.3834 -0.3405
 1237HK4    C15 3879   1.665   7.621   5.442 -0.1882 -0.1116  0.0722
 1237HK4     H7 3880   1.695   7.721   5.479  0.5529  0.0008 -0.8018
 1237HK4    C20 3881   1.684   7.515   5.530 -0.7183  0.1193  0.4692
 1237HK4     H9 3882   1.708   7.534   5.635  0.4503  0.2206  0.1904
 1237HK4    C19 3883   1.644   7.387   5.494 -0.1663  0.0157  0.2248
 1237HK4    C18 3884   1.581   7.372   5.364  0.2978 -0.0768  0.0068
 1237HK4    C17 3885   1.551   7.485   5.288  0.0438 -0.2883 -0.2052
 1237HK4     H8 3886   1.516   7.462   5.187  1.4989 -1.6942 -0.4112
 1237HK4     N1 3887   1.582   7.238   5.319 -0.0628 -0.2126  0.3963
 1237HK4    C21 3888   1.649   7.170   5.423  0.2246 -0.3112  0.1436
 1237HK4    C22 3889   1.680   7.253   5.537  0.2501  0.0177 -0.1036
 1237HK4    C26 3890   1.759   7.204   5.640  0.0665  0.1774  0.1149
 1237HK4    H13 3891   1.789   7.268   5.723  0.8927 -1.3653  1.0214
 1237HK4    C25 3892   1.804   7.072   5.644  0.1609  0.1973 -0.2432
 1237HK4    H12 3893   1.876   7.040   5.719 -1.0664 -0.4231  0.6870
 1237HK4    C24 3894   1.778   6.997   5.530 -0.0873  0.0609 -0.0965
 1237HK4    H11 3895   1.789   6.888   5.543  0.2915 -0.1097 -1.7674
 1237HK4    C23 3896   1.704   7.042   5.422 -0.2262 -0.5043 -0.2377
 1237HK4    H10 3897   1.719   6.993   5.326  0.9174 -1.7430  0.5551
 1237HK4    C39 3898   1.484   7.179   5.239  0.0423  0.0748  0.0582
 1237HK4    C41 3899   1.522   7.076   5.150  0.4267  0.0863  0.2077
 1237HK4    H21 3900   1.620   7.074   5.099  0.0775 -1.1981 -0.4251
 1237HK4    C42 3901   1.432   6.980   5.106  0.3229  0.0871  0.4204
 1237HK4    H22 3902   1.476   6.888   5.066  1.2431  1.2388 -1.2717
 1237HK4    C43 3903   1.299   6.994   5.145  0.1424 -0.0082 -0.1576
 1237HK4    H23 3904   1.224   6.920   5.115  0.6405 -0.9365  0.8471
 1237HK4    C44 3905   1.257   7.093   5.233  0.0549 -0.2617  0.0922
 1237HK4    H24 3906   1.152   7.118   5.256  0.2314 -0.0963  0.7119
 1237HK4    C45 3907   1.349   7.187   5.279  0.0585 -0.3130  0.1867
 1237HK4    H25 3908   1.313   7.274   5.334 -3.7984 -1.1412 -0.8904
 1238HK4    H28 3909   5.555   9.957   9.875 -1.4416 -1.1200  1.2341
 1238HK4    C48 3910   5.617   9.873   9.843 -0.0767  0.3207 -0.0488
 1238HK4    C47 3911   5.557   9.747   9.837  0.4615  0.0783 -0.3615
 1238HK4    H27 3912   5.448   9.731   9.833  0.5441 -0.7380  0.6526
 1238HK4    C46 3913   5.636   9.635   9.817 -0.0816 -0.4220  0.2771
 1238HK4    H26 3914   5.579   9.547   9.782 -0.5048  0.2092 -0.6517
 1238HK4    C40 3915   5.775   9.643   9.799 -0.1932 -0.0446 -0.4471
 1238HK4    C50 3916   5.831   9.772   9.805 -0.3693  0.0350 -0.5146
 1238HK4    H30 3917   5.931   9.790   9.764 -0.3470 -2.1495 -1.4776
 1238HK4    C49 3918   5.754   9.886   9.830 -0.0382  0.1175  0.1384
 1238HK4    H29 3919   5.806   9.980   9.804  2.5334 -1.1149  0.6281
 1238HK4     N2 3920   5.852   9.531   9.835 -0.0470  0.1500 -0.1604
 1238HK4    C30 3921   5.809   9.428   9.921 -0.1225  0.2262 -0.1060
 1238HK4    C29 3922   5.728   9.429  10.034 -0.1347 -0.0096 -0.1121
 1238HK4    H15 3923   5.644   9.499  10.028 -0.7948 -0.6286  1.5714
 1238HK4    C28 3924   5.717   9.327  10.127 -0.3066  0.0662 -0.0486
 1238HK4    C27 3925   5.780   9.206  10.092  0.2929  0.3471  0.0752
 1238HK4    H14 3926   5.744   9.122  10.152 -2.4426  1.3418 -0.1056
 1238HK4    C32 3927   5.861   9.202   9.978 -0.7281 -0.2296 -0.6356
 1238HK4    H16 3928   5.908   9.106   9.959 -2.3270 -1.1956  0.1967
 1238HK4    C31 3929   5.881   9.307   9.889 -0.2757  0.1384 -0.1109
 1238HK4    C34 3930   5.981   9.343   9.790 -0.2460 -0.3335 -0.2536
 1238HK4    C33 3931   5.965   9.485   9.764 -0.1640 -0.2868 -0.0604
 1238HK4    C35 3932   6.062   9.540   9.682 -0.7131 -0.4157 -0.8088
 1238HK4    H17 3933   6.066   9.648   9.671 -0.9685 -0.2318  0.8738
 1238HK4    C36 3934   6.178   9.474   9.641 -0.3962 -0.7939  0.6678
 1238HK4    H18 3935   6.245   9.534   9.577 -0.2998 -0.4011  1.1373
 1238HK4    C37 3936   6.191   9.339   9.670  0.7765 -0.7517  0.3388
 1238HK4    H19 3937   6.288   9.290   9.656  0.0850 -1.9886 -0.1631
 1238HK4    C38 3938   6.090   9.274   9.739  0.1793  0.0119  0.1937
 1238HK4    H20 3939   6.079   9.169   9.765  0.5612 -0.3726 -1.1799
 1238HK4    C14 3940   5.700   9.366  10.268  0.3970  0.3314 -0.0305
 1238HK4     C9 3941   5.745   9.289  10.376 -0.0327  0.6585  0.3809
 1238HK4     C8 3942   5.664   9.276  10.491 -0.3542  0.1072  0.0957
 1238HK4    C11 3943   5.544   9.346  10.503  0.0649  0.7156  0.7539
 1238HK4     H4 3944   5.484   9.334  10.594 -2.0046 -2.4655 -0.9588
 1238HK4    C12 3945   5.513   9.443  10.409 -0.4627 -0.0207  0.1677
 1238HK4     H5 3946   5.428   9.510  10.427 -0.2953 -0.4090  2.4803
 1238HK4    C13 3947   5.591   9.452  10.294 -0.0400 -0.3542  0.4276
 1238HK4     H6 3948   5.567   9.523  10.214  1.6561  0.4207  0.5772
 1238HK4     C7 3949   5.710   9.186  10.599 -0.0535  0.0868 -0.0484
 1238HK4     O2 3950   5.634   9.149  10.688  0.1965 -0.7098 -0.1599
 1238HK4     C4 3951   5.848   9.132  10.591 -0.0895  0.0204 -0.2165
 1238HK4     C3 3952   5.896   9.046  10.689 -0.0052  0.7687  0.4059
 1238HK4     H3 3953   5.841   9.036  10.784  1.4024 -1.8467  1.0013
 1238HK4     C2 3954   6.012   8.971  10.677 -0.3219  0.4360 -0.6465
 1238HK4     H2 3955   6.048   8.900  10.752  1.9035  0.4880 -1.6153
 1238HK4     C1 3956   6.085   8.987  10.559  0.7193 -0.4673 -0.1390
 1238HK4     H1 3957   6.171   8.920  10.548  0.0276 -1.4407  0.2814
 1238HK4     C6 3958   6.044   9.073  10.455  0.0915 -0.1544  0.3657
 1238HK4     C5 3959   5.928   9.148  10.476  0.1608  0.0694 -0.0360
 1238HK4    C10 3960   5.889   9.254  10.379 -0.1826  0.0164  0.0453
 1238HK4     O1 3961   5.972   9.341  10.352 -0.2550 -0.0136 -0.2806
 1238HK4    C16 3962   6.071   9.032  10.316  0.2735 -0.4300  0.4791
 1238HK4    C15 3963   6.054   8.899  10.274  0.5732 -0.3191  0.0068
 1238HK4     H7 3964   5.972   8.843  10.323  0.8544 -0.7970 -0.0614
 1238HK4    C20 3965   6.109   8.842  10.159  0.1682 -0.0713 -0.3093
 1238HK4     H9 3966   6.122   8.735  10.150  0.7508 -0.0414  0.1531
 1238HK4    C19 3967   6.174   8.930  10.073 -0.2719  0.1124 -0.4589
 1238HK4    C18 3968   6.196   9.066  10.118 -0.1404 -0.0268 -0.0967
 1238HK4    C17 3969   6.146   9.118  10.237  0.0426 -0.4983  0.1864
 1238HK4     H8 3970   6.175   9.219  10.267  1.6506 -1.0052  0.3963
 1238HK4     N1 3971   6.283   9.128  10.027  0.0639 -0.1033  0.0460
 1238HK4    C21 3972   6.316   9.035   9.926 -0.9900  0.1400 -0.5379
 1238HK4    C22 3973   6.244   8.911   9.947  0.0417 -0.4099 -0.2036
 1238HK4    C26 3974   6.214   8.833   9.836 -0.7159 -0.0445 -0.2595
 1238HK4    H13 3975   6.151   8.746   9.852  0.9809 -1.2908 -0.2114
 1238HK4    C25 3976   6.263   8.866   9.710  0.3402 -0.3885  0.0576
 1238HK4    H12 3977   6.247   8.795   9.629 -0.6378 -0.3037  0.1737
 1238HK4    C24 3978   6.344   8.978   9.695 -0.8925  0.5461  0.3212
 1238HK4    H11 3979   6.370   9.008   9.593  1.2072  2.1737  1.2964
 1238HK4    C23 3980   6.369   9.064   9.801  0.7607  0.2098  0.2107
 1238HK4    H10 3981   6.440   9.142   9.773  1.2677  0.3088  1.7180
 1238HK4    C39 3982   6.318   9.264  10.028  0.4126 -0.1926  0.0775
 1238HK4    C41 3983   6.442   9.313   9.983  0.2883 -0.1806 -0.2578
 1238HK4    H21 3984   6.522   9.238   9.971 -0.4709 -0.7411 -2.0675
 1238HK4    C42 3985   6.467   9.446   9.952  0.0684 -0.2408 -0.7072
 1238HK4    H22 3986   6.560   9.474   9.900  0.8280  0.9134  1.2389
 1238HK4    C43 3987   6.366   9.541   9.955 -0.2512 -0.5966 -0.2527
 1238HK4    H23 3988   6.375   9.620   9.881 -1.3326 -1.6462 -1.5265
 1238HK4    C44 3989   6.245   9.493  10.004 -0.0603 -0.6092  0.2161
 1238HK4    H24 3990   6.158   9.556   9.977  0.8280  1.0354  1.1032
 1238HK4    C45 3991   6.217   9.362  10.038 -0.1095 -0.7017 -0.1827
 1238HK4    H25 3992   6.115   9.324  10.059 -0.3853  0.5523  0.7448
 1239HK4    H28 3993   3.813   9.608   9.408 -0.7439  0.2012 -1.5867
 1239HK4    C48 3994   3.764   9.513   9.388 -0.2874 -0.1862 -0.9133
 1239HK4    C47 3995   3.846   9.416   9.330  0.4319 -0.2596  0.2104
 1239HK4    H27 3996   3.931   9.446   9.268  1.2508 -3.0535 -0.0612
 1239HK4    C46 3997   3.794   9.288   9.313 -0.1020 -0.0699  0.3859
 1239HK4    H26 3998   3.869   9.210   9.293 -0.5840 -0.6333  0.7854
 1239HK4    C40 3999   3.662   9.254   9.346 -0.5254  0.2396 -0.9512
 1239HK4    C50 4000   3.584   9.358   9.403  0.1313 -0.0596  0.5037
 1239HK4    H30 4001   3.477   9.342   9.423 -0.2164 -0.1962 -1.3549
 1239HK4    C49 4002   3.633   9.486   9.426 -0.0062  0.0401  0.2450
 1239HK4    H29 4003   3.555   9.560   9.449 -2.1373 -2.4935  1.5040
 1239HK4     N2 4004   3.604   9.130   9.318 -0.5366  0.1155 -0.3774
 1239HK4    C30 4005   3.646   9.047   9.212 -0.3486 -0.1279 -0.1154
 1239HK4    C29 4006   3.728   9.071   9.103  0.2286  0.0283  0.3542
 1239HK4    H15 4007   3.750   9.177   9.088 -1.2002  0.1430 -1.0415
 1239HK4    C28 4008   3.757   8.977   9.004 -0.0825  0.3391 -0.0289
 1239HK4    C27 4009   3.702   8.849   9.025 -0.1088  0.2653 -0.5521
 1239HK4    H14 4010   3.746   8.756   8.985  1.0591 -0.0117  1.2753
 1239HK4    C32 4011   3.608   8.822   9.124  0.3391  0.1352 -0.1585
 1239HK4    H16 4012   3.557   8.727   9.123  1.3307 -0.3981 -1.9119
 1239HK4    C31 4013   3.579   8.918   9.221 -0.4927 -0.0584 -0.2168
 1239HK4    C34 4014   3.486   8.925   9.332 -0.3018 -0.2388 -0.0454
 1239HK4    C33 4015   3.509   9.056   9.391 -0.3918 -0.0715 -0.3807
 1239HK4    C35 4016   3.430   9.092   9.499 -0.3288  0.2504 -0.4410
 1239HK4    H17 4017   3.459   9.177   9.561 -0.8293 -0.0070  0.1590
 1239HK4    C36 4018   3.337   9.004   9.555  0.2629 -0.2249 -0.2015
 1239HK4    H18 4019   3.276   9.013   9.645  0.8398 -1.3692  0.3072
 1239HK4    C37 4020   3.319   8.877   9.502  0.4292 -0.1941 -0.3353
 1239HK4    H19 4021   3.245   8.809   9.544 -0.1235  0.1593 -0.7278
 1239HK4    C38 4022   3.392   8.841   9.389 -0.0951 -0.7694 -0.4871
 1239HK4    H20 4023   3.356   8.750   9.339 -0.8150  0.3945 -2.1379
 1239HK4    C14 4024   3.808   9.018   8.873  0.0280 -0.0575 -0.1114
 1239HK4     C9 4025   3.781   8.950   8.753  0.4195 -0.0938 -0.1797
 1239HK4     C8 4026   3.876   8.935   8.649 -0.2524  0.4682 -0.8790
 1239HK4    C11 4027   4.002   8.991   8.665 -0.1718  0.1048 -0.2126
 1239HK4     H4 4028   4.076   8.981   8.585 -0.4793 -1.1176 -0.3437
 1239HK4    C12 4029   4.030   9.064   8.781  0.3983 -0.6503  0.1242
 1239HK4     H5 4030   4.113   9.136   8.778  1.3792 -1.4752  4.3744
 1239HK4    C13 4031   3.934   9.080   8.880 -0.0016  0.0348 -0.3708
 1239HK4     H6 4032   3.960   9.144   8.965  3.6120 -2.8739  0.8633
 1239HK4     C7 4033   3.847   8.848   8.533 -0.8581 -0.4080 -0.0786
 1239HK4     O2 4034   3.928   8.858   8.441  0.3236  1.2951  1.1179
 1239HK4     C4 4035   3.723   8.767   8.534 -0.6324 -0.7566 -0.0922
 1239HK4     C3 4036   3.708   8.665   8.441  0.4733 -0.6700 -0.3704
 1239HK4     H3 4037   3.782   8.651   8.360  0.2966 -1.2415 -0.4364
 1239HK4     C2 4038   3.605   8.572   8.452  0.1339 -0.2028  0.4167
 1239HK4     H2 4039   3.579   8.507   8.367  1.0462  1.4274 -1.1680
 1239HK4     C1 4040   3.519   8.580   8.560 -0.2278  0.2832  0.0987
 1239HK4     H1 4041   3.437   8.508   8.571  0.7275 -1.0041 -1.0621
 1239HK4     C6 4042   3.522   8.688   8.651 -0.0824  0.3904 -0.0312
 1239HK4     C5 4043   3.624   8.783   8.633  0.2393  0.1791  0.6423
 1239HK4    C10 4044   3.646   8.891   8.733  0.0881  0.4804  0.3536
 1239HK4     O1 4045   3.555   8.971   8.750 -0.3936  0.0596 -0.2296
 1239HK4    C16 4046   3.464   8.665   8.784  0.0504 -0.0784 -0.0514
 1239HK4    C15 4047   3.489   8.541   8.848  0.3573  0.0509  0.0818
 1239HK4     H7 4048   3.569   8.475   8.810 -0.1107  0.0099 -0.8468
 1239HK4    C20 4049   3.422   8.506   8.964  0.5042  0.3274  0.2487
 1239HK4     H9 4050   3.435   8.403   8.998 -0.7974 -0.3418 -1.2141
 1239HK4    C19 4051   3.328   8.594   9.018 -0.2119 -0.0694 -0.3405
 1239HK4    C18 4052   3.303   8.720   8.953 -0.4846 -0.1894 -0.4630
 1239HK4    C17 4053   3.367   8.750   8.833 -0.0484 -0.0979 -0.2137
 1239HK4     H8 4054   3.334   8.839   8.780  0.6252  1.5504  2.0396
 1239HK4     N1 4055   3.218   8.800   9.033  0.3400  0.1305  0.0962
 1239HK4    C21 4056   3.193   8.722   9.148 -0.3274 -0.1127 -0.2085
 1239HK4    C22 4057   3.257   8.592   9.145 -0.1463 -0.0223 -0.3009
 1239HK4    C26 4058   3.238   8.501   9.247 -1.1040  0.1796 -0.3007
 1239HK4    H13 4059   3.256   8.396   9.222  1.3180  1.1865 -2.9313
 1239HK4    C25 4060   3.155   8.527   9.356  0.4661  0.1333  0.9170
 1239HK4    H12 4061   3.153   8.462   9.444 -0.1183 -0.6194  0.3531
 1239HK4    C24 4062   3.090   8.649   9.354  0.0907 -0.0876 -0.8416
 1239HK4    H11 4063   3.003   8.661   9.420 -1.9797  1.3592 -3.6914
 1239HK4    C23 4064   3.113   8.749   9.259 -0.3592  0.4715 -0.3703
 1239HK4    H10 4065   3.069   8.846   9.280  2.7905  1.5834  1.3299
 1239HK4    C39 4066   3.139   8.900   8.977 -0.6761 -0.2333  0.8663
 1239HK4    C41 4067   3.116   9.019   9.050 -0.1409  0.2709  0.2265
 1239HK4    H21 4068   3.148   9.034   9.154  0.3839 -0.1725  0.1335
 1239HK4    C42 4069   3.017   9.110   9.016 -0.3749 -0.1210 -0.1511
 1239HK4    H22 4070   3.012   9.210   9.062  0.7750  0.9106 -2.1979
 1239HK4    C43 4071   2.941   9.093   8.901 -0.0087 -0.0897 -0.4019
 1239HK4    H23 4072   2.875   9.172   8.866 -0.7227  0.5444  2.2334
 1239HK4    C44 4073   2.958   8.975   8.830  0.5458 -0.0969 -0.2593
 1239HK4    H24 4074   2.884   8.956   8.750 -0.5949 -1.5333  1.1022
 1239HK4    C45 4075   3.052   8.879   8.868  0.5943 -0.0218 -0.1954
 1239HK4    H25 4076   3.068   8.788   8.809 -0.7757 -0.4191  0.0398
 1240HK4    H28 4077   3.354   4.542   6.332 -0.8629  1.4960  0.4162
 1240HK4    C48 4078   3.279   4.503   6.264  0.4437 -0.5949  0.0946
 1240HK4    C47 4079   3.234   4.580   6.157  0.0094 -0.0707  0.6470
 1240HK4    H27 4080   3.310   4.651   6.121  0.9082 -0.6587  1.3959
 1240HK4    C46 4081   3.117   4.555   6.085  0.4179 -0.3303  0.0645
 1240HK4    H26 4082   3.081   4.620   6.004  1.9176  0.0400 -0.3182
 1240HK4    C40 4083   3.027   4.456   6.131  0.0307  0.0205  0.0651
 1240HK4    C50 4084   3.073   4.383   6.242 -0.4117 -0.4803 -0.0818
 1240HK4    H30 4085   3.001   4.317   6.292  0.6477  1.0464  3.6586
 1240HK4    C49 4086   3.197   4.399   6.304 -0.1517 -0.4076 -0.6130
 1240HK4    H29 4087   3.237   4.322   6.372 -1.4539 -0.5766 -0.0099
 1240HK4     N2 4088   2.904   4.430   6.071  0.3551  0.1863 -0.6828
 1240HK4    C30 4089   2.820   4.521   6.002  0.6214  0.3805 -0.7513
 1240HK4    C29 4090   2.796   4.654   6.035 -0.0014  0.1431 -0.2369
 1240HK4    H15 4091   2.853   4.688   6.121  0.3621  1.0872 -0.8461
 1240HK4    C28 4092   2.703   4.734   5.970 -0.0410  0.2666 -0.0260
 1240HK4    C27 4093   2.632   4.678   5.862  0.0474 -0.0348  0.0728
 1240HK4    H14 4094   2.576   4.741   5.792  0.9331  0.4208 -0.2259
 1240HK4    C32 4095   2.652   4.544   5.829 -0.2694 -0.0446 -0.0804
 1240HK4    H16 4096   2.587   4.505   5.751 -0.3731 -1.5521  0.7366
 1240HK4    C31 4097   2.737   4.460   5.899  0.0968  0.2034 -0.2280
 1240HK4    C34 4098   2.765   4.320   5.921  0.1804  0.2572  0.0146
 1240HK4    C33 4099   2.874   4.304   6.015 -0.0727 -0.1236  0.2451
 1240HK4    C35 4100   2.904   4.175   6.055 -0.1977 -0.1095  0.3866
 1240HK4    H17 4101   2.957   4.167   6.150  1.4670 -0.2684 -0.5541
 1240HK4    C36 4102   2.839   4.064   6.001 -0.1147  0.1448 -0.2388
 1240HK4    H18 4103   2.846   3.970   6.058 -0.1641 -0.1250 -0.6791
 1240HK4    C37 4104   2.739   4.078   5.905  0.0374  0.0249 -0.4156
 1240HK4    H19 4105   2.711   3.994   5.843  0.5869  0.6799 -1.5613
 1240HK4    C38 4106   2.700   4.207   5.871 -0.2056  0.2215  0.5927
 1240HK4    H20 4107   2.622   4.224   5.796  2.3297  1.5068 -1.8247
 1240HK4    C14 4108   2.642   4.844   6.046 -0.2106  0.2408 -0.1208
 1240HK4     C9 4109   2.504   4.867   6.053 -0.2756 -0.2675  0.2293
 1240HK4     C8 4110   2.460   5.000   6.058 -0.0224 -0.1572 -0.3740
 1240HK4    C11 4111   2.553   5.099   6.086 -0.0751 -0.0396 -0.6116
 1240HK4     H4 4112   2.522   5.204   6.091  1.0369  0.3449 -1.5426
 1240HK4    C12 4113   2.689   5.074   6.100 -0.1247 -0.0898 -0.2258
 1240HK4     H5 4114   2.760   5.145   6.146 -1.5428  2.3351 -1.6470
 1240HK4    C13 4115   2.736   4.945   6.078  0.0810 -0.0424 -0.0831
 1240HK4     H6 4116   2.844   4.929   6.071 -0.2460 -2.5453  0.2395
 1240HK4     C7 4117   2.324   5.033   6.010  0.1422  0.0513 -0.6939
 1240HK4     O2 4118   2.289   5.150   5.993  0.0876  0.0101 -0.8647
 1240HK4     C4 4119   2.235   4.923   5.966 -0.0537  0.1091 -0.4479
 1240HK4     C3 4120   2.114   4.960   5.908 -0.2888  0.0985  0.0352
 1240HK4     H3 4121   2.078   5.064   5.908 -2.1098 -0.5212  0.7336
 1240HK4     C2 4122   2.028   4.871   5.845 -0.6913 -0.1094  0.8715
 1240HK4     H2 4123   1.926   4.902   5.818 -1.2194 -2.1460  0.4679
 1240HK4     C1 4124   2.070   4.739   5.852  0.0436  0.1166  0.7069
 1240HK4     H1 4125   1.996   4.660   5.836 -1.0006  0.2750  4.3712
 1240HK4     C6 4126   2.194   4.693   5.902  0.3641  0.0891 -0.1065
 1240HK4     C5 4127   2.274   4.787   5.967 -0.0495  0.1159  0.3658
 1240HK4    C10 4128   2.405   4.758   6.032  0.1589 -0.5531 -0.3545
 1240HK4     O1 4129   2.419   4.656   6.099 -0.3705 -0.5172 -0.1853
 1240HK4    C16 4130   2.243   4.570   5.839 -0.3658 -0.0701 -0.3731
 1240HK4    C15 4131   2.224   4.539   5.702  0.0513  0.4734 -0.5561
 1240HK4     H7 4132   2.210   4.628   5.640  0.4958  0.6546 -0.4012
 1240HK4    C20 4133   2.240   4.413   5.644  0.2043  0.1432  0.1919
 1240HK4     H9 4134   2.248   4.413   5.536 -0.8060 -1.2381  0.1135
 1240HK4    C19 4135   2.273   4.310   5.731 -0.5451 -0.1674  0.1093
 1240HK4    C18 4136   2.280   4.331   5.875 -0.1234  0.0317  0.0598
 1240HK4    C17 4137   2.262   4.460   5.922  0.2912  0.1806 -0.1901
 1240HK4     H8 4138   2.242   4.472   6.028 -0.3023 -0.9611 -0.1716
 1240HK4     N1 4139   2.336   4.217   5.937 -0.3504 -0.0774  0.0656
 1240HK4    C21 4140   2.365   4.128   5.832  0.4444  0.1555  0.0787
 1240HK4    C22 4141   2.317   4.175   5.704  0.0032 -0.0063  0.1829
 1240HK4    C26 4142   2.306   4.094   5.591  0.2846 -0.1592  0.2631
 1240HK4    H13 4143   2.267   4.124   5.493  1.5926 -0.6024 -0.3944
 1240HK4    C25 4144   2.362   3.968   5.603 -0.3148 -0.4509  0.0454
 1240HK4    H12 4145   2.360   3.895   5.523  0.7908 -2.5086  1.8407
 1240HK4    C24 4146   2.409   3.919   5.724 -0.0842 -0.2764  0.0259
 1240HK4    H11 4147   2.418   3.809   5.735  0.7284 -0.3255 -1.0084
 1240HK4    C23 4148   2.409   3.996   5.840 -0.3163 -0.1117 -0.0831
 1240HK4    H10 4149   2.451   3.953   5.930 -0.9959 -1.3947 -0.3664
 1240HK4    C39 4150   2.311   4.178   6.069 -0.2161  0.2470  0.1881
 1240HK4    C41 4151   2.405   4.113   6.152 -0.1171 -0.0472 -0.1567
 1240HK4    H21 4152   2.512   4.120   6.129  0.0356 -1.9449 -0.1198
 1240HK4    C42 4153   2.371   4.041   6.266  0.1014 -0.1096 -0.1312
 1240HK4    H22 4154   2.449   4.018   6.340  2.2080  2.5702 -1.4361
 1240HK4    C43 4155   2.236   4.027   6.294  0.1200 -0.0297  0.0011
 1240HK4    H23 4156   2.213   3.985   6.392 -0.5342  1.0614  0.3296
 1240HK4    C44 4157   2.138   4.087   6.215 -0.4600 -0.6016  0.2868
 1240HK4    H24 4158   2.033   4.082   6.248 -0.1582  0.2682  1.4117
 1240HK4    C45 4159   2.176   4.165   6.107  0.0078  0.0901  0.9483
 1240HK4    H25 4160   2.097   4.221   6.054  0.5060 -1.8010 -1.9008
 1241HK4    H28 4161   4.763   4.960  10.252  0.1301  0.9412 -0.0059
 1241HK4    C48 4162   4.871   4.950  10.267  0.0166  0.1583  0.3024
 1241HK4    C47 4163   4.916   4.848  10.350  0.2371 -0.3939 -0.4871
 1241HK4    H27 4164   4.834   4.779  10.374 -2.7017  2.3899 -2.0934
 1241HK4    C46 4165   5.052   4.831  10.375  0.2510  0.1781 -0.1609
 1241HK4    H26 4166   5.087   4.745  10.434  2.2378  0.9668 -0.1449
 1241HK4    C40 4167   5.146   4.915  10.312  0.4658 -0.2211 -0.3780
 1241HK4    C50 4168   5.100   5.030  10.244 -0.0331  0.2094  0.6611
 1241HK4    H30 4169   5.167   5.116  10.231 -1.7682  1.6616  1.3093
 1241HK4    C49 4170   4.965   5.040  10.216  0.0540  0.0428  0.1659
 1241HK4    H29 4171   4.923   5.105  10.138 -0.7136 -0.8833 -0.2058
 1241HK4     N2 4172   5.284   4.894  10.322  0.3876 -0.3897  0.4011
 1241HK4    C30 4173   5.356   4.830  10.425  0.3945 -0.2607  0.4752
 1241HK4    C29 4174   5.317   4.793  10.553  0.0602  0.5410  0.6077
 1241HK4    H15 4175   5.219   4.828  10.585  0.1953  2.0664 -0.6128
 1241HK4    C28 4176   5.402   4.741  10.650  0.0030  0.1355  0.4371
 1241HK4    C27 4177   5.535   4.720  10.609 -0.0429  0.4814  0.1191
 1241HK4    H14 4178   5.604   4.664  10.673  0.1087  0.6206  0.0767
 1241HK4    C32 4179   5.581   4.747  10.480 -0.1891  0.3201  0.0312
 1241HK4    H16 4180   5.677   4.719  10.438  0.6713  0.3999  1.8830
 1241HK4    C31 4181   5.493   4.802  10.388  0.2308  0.1679 -0.4561
 1241HK4    C34 4182   5.502   4.842  10.249 -0.2600  0.2229 -0.4769
 1241HK4    C33 4183   5.371   4.892  10.212 -0.4038  0.0270 -0.2384
 1241HK4    C35 4184   5.347   4.901  10.075  0.4007 -0.3088 -0.4023
 1241HK4    H17 4185   5.255   4.949  10.042  0.3614 -0.8418 -1.0717
 1241HK4    C36 4186   5.439   4.861   9.979  0.4233 -0.2183 -0.4188
 1241HK4    H18 4187   5.400   4.844   9.878  0.4741  1.9232 -0.8338
 1241HK4    C37 4188   5.564   4.816  10.021  0.2409 -0.2064  0.1471
 1241HK4    H19 4189   5.637   4.783   9.947  1.0946 -1.1984  1.4087
 1241HK4    C38 4190   5.599   4.808  10.155  0.2465 -0.0724  0.1538
 1241HK4    H20 4191   5.699   4.792  10.196  0.1381 -1.2183 -0.0125
 1241HK4    C14 4192   5.346   4.715  10.784 -0.3422  0.2699  0.3257
 1241HK4     C9 4193   5.423   4.731  10.900  0.2216 -0.1547  0.0115
 1241HK4     C8 4194   5.414   4.636  11.005 -0.2143 -0.3837 -0.2297
 1241HK4    C11 4195   5.316   4.539  10.995 -0.3694 -0.3134  0.6438
 1241HK4     H4 4196   5.301   4.464  11.075 -0.6416  0.8236  1.6718
 1241HK4    C12 4197   5.225   4.539  10.890  0.3813  0.1870 -0.0109
 1241HK4     H5 4198   5.135   4.476  10.898 -0.0770  1.0195  1.7873
 1241HK4    C13 4199   5.241   4.622  10.780  0.5791 -0.7520 -0.7008
 1241HK4     H6 4200   5.163   4.630  10.703  0.9474  3.4539 -0.7789
 1241HK4     C7 4201   5.538   4.612  11.081 -0.0637  0.4463 -0.2049
 1241HK4     O2 4202   5.530   4.536  11.178 -0.5957 -0.2146 -0.7671
 1241HK4     C4 4203   5.664   4.682  11.046 -0.1539  0.8915  0.3362
 1241HK4     C3 4204   5.785   4.637  11.099  0.0547  0.0196 -0.8478
 1241HK4     H3 4205   5.783   4.552  11.169 -3.3532  0.8856  0.2284
 1241HK4     C2 4206   5.903   4.710  11.101 -0.2237  0.4545  0.4673
 1241HK4     H2 4207   5.975   4.704  11.184  0.8708 -0.7232 -0.5381
 1241HK4     C1 4208   5.892   4.835  11.040  0.4258 -0.0095 -0.6209
 1241HK4     H1 4209   5.987   4.888  11.023  1.5466 -1.0647  2.1467
 1241HK4     C6 4210   5.777   4.883  10.974 -0.1298 -0.1684  0.2304
 1241HK4     C5 4211   5.660   4.806  10.980 -0.6227  0.5347 -0.3166
 1241HK4    C10 4212   5.531   4.832  10.909 -0.3646  0.5496 -0.7763
 1241HK4     O1 4213   5.491   4.948  10.902  0.3048  0.8535  0.2858
 1241HK4    C16 4214   5.794   5.013  10.908 -0.7843 -0.1655  0.0643
 1241HK4    C15 4215   5.889   5.105  10.959 -0.5195 -0.5673  0.2983
 1241HK4     H7 4216   5.933   5.092  11.059 -0.7321  0.0441  0.4737
 1241HK4    C20 4217   5.923   5.217  10.884 -0.2967 -1.0314 -0.3017
 1241HK4     H9 4218   6.014   5.273  10.903  0.0031 -1.8014  0.5698
 1241HK4    C19 4219   5.851   5.251  10.770  0.5118 -0.4961 -0.6598
 1241HK4    C18 4220   5.764   5.151  10.710 -0.4673  0.2513 -0.4862
 1241HK4    C17 4221   5.742   5.034  10.781 -0.5950  0.6311  0.1143
 1241HK4     H8 4222   5.710   4.948  10.723  0.1267  0.2884  0.2084
 1241HK4     N1 4223   5.704   5.196  10.591 -0.1067 -0.2968 -0.8701
 1241HK4    C21 4224   5.766   5.320  10.566  0.1358 -0.3450 -0.5035
 1241HK4    C22 4225   5.858   5.358  10.672 -0.3373 -0.0227 -0.2053
 1241HK4    C26 4226   5.924   5.480  10.675 -0.5393  0.0752  0.3380
 1241HK4    H13 4227   5.982   5.493  10.766  2.0705 -2.3995 -0.9039
 1241HK4    C25 4228   5.902   5.557  10.561 -0.5055  0.2259  0.4345
 1241HK4    H12 4229   5.927   5.662  10.574 -2.2470  0.7238 -0.0935
 1241HK4    C24 4230   5.818   5.523  10.456  0.1884  0.0279 -0.0579
 1241HK4    H11 4231   5.816   5.589  10.368 -1.8897 -1.5327 -1.2242
 1241HK4    C23 4232   5.743   5.406  10.459 -0.2836  0.3336  0.1246
 1241HK4    H10 4233   5.654   5.385  10.400  0.9572 -3.2468 -0.5972
 1241HK4    C39 4234   5.581   5.149  10.543 -0.4779 -0.3074  0.1020
 1241HK4    C41 4235   5.565   5.153  10.403  0.3365 -0.2696  0.0084
 1241HK4    H21 4236   5.625   5.089  10.337  2.0212  1.4136 -0.1727
 1241HK4    C42 4237   5.448   5.207  10.351  0.1975 -0.4531  0.1352
 1241HK4    H22 4238   5.430   5.223  10.244 -1.6598 -0.5352  0.4322
 1241HK4    C43 4239   5.345   5.250  10.434  0.1111 -0.4230  0.0165
 1241HK4    H23 4240   5.258   5.301  10.393 -0.3392 -0.8648  0.4220
 1241HK4    C44 4241   5.351   5.228  10.571  0.2633  0.4774  0.1528
 1241HK4    H24 4242   5.261   5.245  10.632 -1.8850 -1.5871 -2.3020
 1241HK4    C45 4243   5.467   5.172  10.623 -0.0229  0.2895  0.5874
 1241HK4    H25 4244   5.467   5.138  10.728  1.6073 -0.4481  0.3682
 1242HK4    H28 4245   8.606   2.414   6.729  0.0992  1.0882 -0.1807
 1242HK4    C48 4246   8.617   2.451   6.627  0.5161 -0.1417 -0.5941
 1242HK4    C47 4247   8.572   2.372   6.522 -0.0707  0.1742 -0.5818
 1242HK4    H27 4248   8.538   2.270   6.545 -0.1671  0.2306 -0.4755
 1242HK4    C46 4249   8.571   2.430   6.395  0.1842 -0.1540 -0.7338
 1242HK4    H26 4250   8.504   2.378   6.325  0.1356 -0.2483 -0.6172
 1242HK4    C40 4251   8.621   2.559   6.368 -0.1832  0.0807 -0.2991
 1242HK4    C50 4252   8.660   2.634   6.481 -0.1160 -0.4609  0.0391
 1242HK4    H30 4253   8.654   2.743   6.466  1.3758 -0.6240 -1.9936
 1242HK4    C49 4254   8.657   2.583   6.610  0.7552 -0.1098  0.2018
 1242HK4    H29 4255   8.703   2.635   6.695  0.8735 -0.4161  0.3255
 1242HK4     N2 4256   8.660   2.586   6.236 -0.3621 -0.3714 -0.4471
 1242HK4    C30 4257   8.713   2.501   6.136  0.3818  0.0390 -0.4029
 1242HK4    C29 4258   8.752   2.368   6.147  0.1857  0.0653  0.7497
 1242HK4    H15 4259   8.786   2.335   6.245 -0.2600 -1.2552  0.4583
 1242HK4    C28 4260   8.803   2.301   6.036 -0.1074  0.4330  0.3898
 1242HK4    C27 4261   8.822   2.374   5.917 -0.1945 -0.2091 -0.0185
 1242HK4    H14 4262   8.883   2.334   5.834  0.7017 -0.8408  0.9184
 1242HK4    C32 4263   8.778   2.504   5.901 -0.1726 -0.1647  0.2857
 1242HK4    H16 4264   8.794   2.561   5.809  1.9115  1.6335  1.7072
 1242HK4    C31 4265   8.719   2.569   6.008  0.0710  0.6762 -0.0815
 1242HK4    C34 4266   8.654   2.697   6.030 -0.0847  0.5199  0.3828
 1242HK4    C33 4267   8.617   2.703   6.170 -0.6691 -0.0877  0.2553
 1242HK4    C35 4268   8.565   2.825   6.211 -0.0324  0.1337  0.4070
 1242HK4    H17 4269   8.525   2.825   6.312 -0.7215  0.6197  0.1373
 1242HK4    C36 4270   8.549   2.933   6.125 -0.1090 -0.0902  0.1388
 1242HK4    H18 4271   8.509   3.026   6.166 -0.5721 -0.5855  0.8138
 1242HK4    C37 4272   8.592   2.925   5.993 -0.1599 -0.1570  0.1265
 1242HK4    H19 4273   8.571   2.993   5.910 -0.5328  1.1100  1.2353
 1242HK4    C38 4274   8.653   2.809   5.947 -0.3248 -0.0441 -0.3854
 1242HK4    H20 4275   8.708   2.819   5.854  0.2771 -2.3820 -0.3213
 1242HK4    C14 4276   8.845   2.161   6.056  0.1185  0.4565  0.0860
 1242HK4     C9 4277   8.939   2.096   5.976 -0.2214 -0.3846  0.3683
 1242HK4     C8 4278   8.924   1.960   5.939  0.3974 -0.5800  0.8286
 1242HK4    C11 4279   8.819   1.891   5.997 -0.3536 -0.1639 -0.0170
 1242HK4     H4 4280   8.798   1.789   5.960 -2.3267 -0.6320  2.2392
 1242HK4    C12 4281   8.734   1.948   6.092 -0.2244 -0.0892  0.0538
 1242HK4     H5 4282   8.664   1.891   6.153 -1.3540  0.3716 -0.7905
 1242HK4    C13 4283   8.746   2.084   6.121  0.0514  0.0169 -0.5393
 1242HK4     H6 4284   8.684   2.139   6.192  1.7439  1.8153 -0.4207
 1242HK4     C7 4285   9.032   1.894   5.863  0.1918  0.1832 -0.1428
 1242HK4     O2 4286   8.999   1.811   5.778 -0.6560  0.0833  0.2802
 1242HK4     C4 4287   9.168   1.953   5.862  0.2390  0.0656 -0.5603
 1242HK4     C3 4288   9.271   1.871   5.819 -0.1089 -0.1098 -1.0784
 1242HK4     H3 4289   9.243   1.769   5.787  0.9284 -0.9492  0.5600
 1242HK4     C2 4290   9.394   1.927   5.787  0.0096  0.2221 -0.0603
 1242HK4     H2 4291   9.474   1.870   5.737  0.9909  1.6414 -0.1419
 1242HK4     C1 4292   9.396   2.065   5.804  0.2445  0.1351  0.6317
 1242HK4     H1 4293   9.500   2.102   5.796  1.3804 -3.0901 -0.2404
 1242HK4     C6 4294   9.296   2.156   5.843  0.0142  0.0169  0.3133
 1242HK4     C5 4295   9.177   2.093   5.880 -0.0804  0.0138  0.0089
 1242HK4    C10 4296   9.071   2.163   5.958 -0.2748 -0.3553  0.0769
 1242HK4     O1 4297   9.108   2.247   6.039 -0.4544 -0.4132  0.2209
 1242HK4    C16 4298   9.328   2.299   5.843 -0.1791  0.0604  0.3129
 1242HK4    C15 4299   9.236   2.398   5.801 -0.1535  0.1522  0.4830
 1242HK4     H7 4300   9.142   2.367   5.755  0.6437 -0.6505 -0.6264
 1242HK4    C20 4301   9.253   2.536   5.810  0.5696  0.1093 -0.1730
 1242HK4     H9 4302   9.166   2.601   5.809 -0.7594 -1.6237 -2.0685
 1242HK4    C19 4303   9.371   2.579   5.870  0.0005  0.2721  0.8386
 1242HK4    C18 4304   9.466   2.484   5.924 -0.2250 -0.2522  0.3190
 1242HK4    C17 4305   9.442   2.348   5.906  0.0606 -0.2785  0.1498
 1242HK4     H8 4306   9.520   2.276   5.933  0.9580  0.5161 -0.2965
 1242HK4     N1 4307   9.575   2.541   5.992 -0.5290  0.0378  0.5645
 1242HK4    C21 4308   9.554   2.679   5.973 -0.4078  0.0184  0.2844
 1242HK4    C22 4309   9.447   2.702   5.878 -0.3169  0.5063  0.2999
 1242HK4    C26 4310   9.429   2.831   5.829 -0.2835  0.2149 -0.4787
 1242HK4    H13 4311   9.352   2.849   5.753  0.4403 -0.0996 -1.2968
 1242HK4    C25 4312   9.509   2.942   5.856  0.0058 -0.0832 -0.1177
 1242HK4    H12 4313   9.500   3.045   5.823 -0.3502 -0.2342 -0.4969
 1242HK4    C24 4314   9.608   2.911   5.949 -0.4628 -0.4967  0.2520
 1242HK4    H11 4315   9.689   2.985   5.946  1.1920 -2.2498  0.7778
 1242HK4    C23 4316   9.635   2.787   6.005  0.1931 -0.3940  0.1549
 1242HK4    H10 4317   9.692   2.787   6.098  0.6385  0.3806 -0.1128
 1242HK4    C39 4318   9.637   2.490   6.106  0.3477 -0.4384 -0.1151
 1242HK4    C41 4319   9.763   2.537   6.148 -0.0605  0.4700  0.0893
 1242HK4    H21 4320   9.824   2.606   6.087  1.1596  0.3434  1.1259
 1242HK4    C42 4321   9.806   2.520   6.279 -0.0673  0.0714  0.0391
 1242HK4    H22 4322   9.896   2.568   6.321  0.4107 -0.4479 -0.3878
 1242HK4    C43 4323   9.722   2.453   6.367  0.1188 -0.0839  0.0957
 1242HK4    H23 4324   9.767   2.425   6.463 -1.8380 -0.8925  0.8186
 1242HK4    C44 4325   9.596   2.404   6.335  0.1524  0.1523 -0.4008
 1242HK4    H24 4326   9.535   2.355   6.412 -0.9615  0.9813 -0.7334
 1242HK4    C45 4327   9.556   2.428   6.204 -0.1245 -0.2640 -0.3923
 1242HK4    H25 4328   9.448   2.413   6.196 -0.4944  1.5703  1.0091
 1243HK4    H28 4329   8.525   3.746   0.174  0.9440 -0.1634  1.4899
 1243HK4    C48 4330   8.450   3.775   0.247 -0.0811  0.5845  0.1853
 1243HK4    C47 4331   8.340   3.690   0.252  0.0928  0.3752  0.4084
 1243HK4    H27 4332   8.359   3.590   0.210 -1.4567 -0.0766  0.7398
 1243HK4    C46 4333   8.212   3.726   0.292 -0.0842  0.4585 -0.2041
 1243HK4    H26 4334   8.137   3.651   0.320  1.3306 -1.0116 -0.3228
 1243HK4    C40 4335   8.198   3.862   0.329 -0.2027  0.4702 -0.2961
 1243HK4    C50 4336   8.311   3.946   0.332 -0.0502  0.2552  0.0091
 1243HK4    H30 4337   8.297   4.051   0.359  0.4421 -0.2198  2.1823
 1243HK4    C49 4338   8.438   3.906   0.293  0.0716  0.6714 -0.0214
 1243HK4    H29 4339   8.529   3.954   0.332 -1.1741  2.0434  1.2668
 1243HK4     N2 4340   8.070   3.919   0.329 -0.3994  0.0349  0.1181
 1243HK4    C30 4341   7.965   3.875   0.245 -0.2889  0.4365 -0.2311
 1243HK4    C29 4342   7.972   3.815   0.120  0.1923  0.8325 -0.3954
 1243HK4    H15 4343   8.065   3.781   0.075  0.3531  1.2958 -0.4204
 1243HK4    C28 4344   7.858   3.797   0.044  0.1054  0.1632 -0.1092
 1243HK4    C27 4345   7.737   3.843   0.098 -0.0398 -0.3524  0.0083
 1243HK4    H14 4346   7.645   3.835   0.038  0.3842  0.3009 -0.7373
 1243HK4    C32 4347   7.728   3.907   0.222 -0.1645  0.3750 -0.3760
 1243HK4    H16 4348   7.630   3.952   0.237  0.5258  0.9382  2.5848
 1243HK4    C31 4349   7.842   3.929   0.298 -0.2714  0.4971 -0.2525
 1243HK4    C34 4350   7.873   4.009   0.415 -0.1902 -0.0047  0.0686
 1243HK4    C33 4351   8.016   3.996   0.434 -0.1713  0.2318  0.0896
 1243HK4    C35 4352   8.079   4.084   0.522  0.0584 -0.2512  0.4107
 1243HK4    H17 4353   8.186   4.077   0.539 -0.2525 -0.0530  2.6561
 1243HK4    C36 4354   8.009   4.186   0.586  0.5209  0.6323 -0.4851
 1243HK4    H18 4355   8.071   4.260   0.639  0.0515  1.9741 -1.7799
 1243HK4    C37 4356   7.874   4.201   0.561  0.2252 -0.1448  0.6038
 1243HK4    H19 4357   7.829   4.294   0.597 -0.6691 -0.5447  0.5504
 1243HK4    C38 4358   7.805   4.106   0.486  0.2254  0.5886 -0.3438
 1243HK4    H20 4359   7.696   4.099   0.483  0.0557 -0.4379  3.8331
 1243HK4    C14 4360   7.870   3.762  11.149  0.0809  0.1253 -0.1011
 1243HK4     C9 4361   7.780   3.807  11.052  0.1429  0.5440  0.0363
 1243HK4     C8 4362   7.752   3.730  10.938  0.3496  0.1119  0.2788
 1243HK4    C11 4363   7.817   3.607  10.928 -0.6400 -0.3917 -0.1054
 1243HK4     H4 4364   7.800   3.549  10.836 -2.0051  1.1625 -0.8755
 1243HK4    C12 4365   7.919   3.568  11.014 -0.4003  0.2271 -0.1025
 1243HK4     H5 4366   7.992   3.490  10.991  1.4770  2.1309 -0.7492
 1243HK4    C13 4367   7.947   3.646  11.126  0.0561  0.1157 -0.1378
 1243HK4     H6 4368   8.036   3.628  11.188  0.9980 -0.7284 -1.7063
 1243HK4     C7 4369   7.637   3.761  10.849  0.3256 -0.4588  0.1047
 1243HK4     O2 4370   7.659   3.739  10.730 -0.2659 -0.3023 -0.0330
 1243HK4     C4 4371   7.535   3.856  10.900  0.3917 -0.1621 -0.3157
 1243HK4     C3 4372   7.407   3.842  10.849  0.1313 -0.1163  0.3362
 1243HK4     H3 4373   7.386   3.765  10.774  2.7784 -0.1881 -0.3501
 1243HK4     C2 4374   7.304   3.921  10.901  0.3157  0.0061  0.5130
 1243HK4     H2 4375   7.203   3.919  10.858  0.1180 -0.9918  0.9957
 1243HK4     C1 4376   7.341   4.026  10.984 -0.2314  0.6284 -0.0320
 1243HK4     H1 4377   7.257   4.084  11.026 -0.6714 -1.0494  1.4610
 1243HK4     C6 4378   7.475   4.053  11.019 -0.1161  0.3173 -0.2327
 1243HK4     C5 4379   7.574   3.959  10.988 -0.4507 -0.1227  0.0163
 1243HK4    C10 4380   7.701   3.933  11.063 -0.5268  0.1064  0.2243
 1243HK4     O1 4381   7.764   4.034  11.093 -0.4256  0.1853 -0.2457
 1243HK4    C16 4382   7.494   4.180  11.089 -0.0650  0.1728  0.0112
 1243HK4    C15 4383   7.389   4.236  11.165 -0.1953 -0.3964  0.2566
 1243HK4     H7 4384   7.332   4.163  11.223  0.1243 -0.1231  0.9165
 1243HK4    C20 4385   7.369   4.373  11.180  0.2441 -0.3348  0.2782
 1243HK4     H9 4386   7.284   4.420  11.229 -0.4922  2.0589 -3.1286
 1243HK4    C19 4387   7.470   4.458  11.136 -0.1520 -0.1158 -0.2010
 1243HK4    C18 4388   7.580   4.406  11.057 -0.2939  0.1742 -0.5946
 1243HK4    C17 4389   7.585   4.270  11.033 -0.4437  0.1734 -0.6143
 1243HK4     H8 4390   7.658   4.231  10.962  0.3853 -0.2597  0.4521
 1243HK4     N1 4391   7.669   4.511  11.024  0.0439 -0.0222 -0.3094
 1243HK4    C21 4392   7.616   4.625  11.088  0.1186  0.0909 -0.4516
 1243HK4    C22 4393   7.492   4.600  11.160  0.1920 -0.1372 -0.4020
 1243HK4    C26 4394   7.404   4.698  11.204  0.2911 -0.2074 -0.0532
 1243HK4    H13 4395   7.331   4.678   0.034  0.5599  1.0810  0.5387
 1243HK4    C25 4396   7.437   4.828  11.168 -0.3006 -0.0816 -0.1508
 1243HK4    H12 4397   7.372   4.911  11.193  0.0304  0.3781 -0.7971
 1243HK4    C24 4398   7.554   4.860  11.098 -0.3465  0.3731 -0.0246
 1243HK4    H11 4399   7.584   4.965  11.087 -0.9688  0.7679  1.7448
 1243HK4    C23 4400   7.639   4.758  11.056 -0.2679  0.3261  0.2492
 1243HK4    H10 4401   7.729   4.785  11.001  0.7132  0.9381  2.1195
 1243HK4    C39 4402   7.802   4.496  10.982  0.0523  0.1242 -0.3389
 1243HK4    C41 4403   7.867   4.605  10.920 -0.0843  0.3305 -0.1193
 1243HK4    H21 4404   7.810   4.638  10.833  1.0036 -1.9802 -1.7601
 1243HK4    C42 4405   8.006   4.614  10.931 -0.0765  0.3357 -0.2155
 1243HK4    H22 4406   8.048   4.688  10.861 -1.4247 -1.4917 -3.0951
 1243HK4    C43 4407   8.085   4.516  10.988 -0.6365  0.2069  0.3503
 1243HK4    H23 4408   8.182   4.558  11.017 -0.0064 -1.3885  0.6635
 1243HK4    C44 4409   8.022   4.403  11.038  0.5799 -0.4961  0.3319
 1243HK4    H24 4410   8.084   4.318  11.069  0.1242 -0.6467  0.8277
 1243HK4    C45 4411   7.883   4.395  11.037  0.5282  0.4279 -0.4816
 1243HK4    H25 4412   7.840   4.300  11.073  0.6876  1.1379  1.6272
 1244HK4    H28 4413   3.527   9.079   8.434 -0.5691  0.6561  0.1132
 1244HK4    C48 4414   3.478   9.080   8.336  0.0313 -0.0195 -0.1966
 1244HK4    C47 4415   3.440   8.961   8.275  0.1080 -0.1751  0.0522
 1244HK4    H27 4416   3.454   8.866   8.328 -0.0618  0.9041  2.0436
 1244HK4    C46 4417   3.376   8.955   8.151  0.2462  0.3407 -0.0448
 1244HK4    H26 4418   3.337   8.858   8.117  2.0710 -0.7808  0.9940
 1244HK4    C40 4419   3.347   9.076   8.086  0.2690  0.1936 -0.3258
 1244HK4    C50 4420   3.383   9.198   8.147  0.0619  0.2014 -0.2246
 1244HK4    H30 4421   3.355   9.298   8.111 -0.4218 -0.6506 -2.2575
 1244HK4    C49 4422   3.444   9.198   8.272 -0.2627 -0.0302 -0.0649
 1244HK4    H29 4423   3.433   9.290   8.331  0.9649 -1.8156  3.1030
 1244HK4     N2 4424   3.296   9.075   7.956  0.1066  0.1149 -0.2637
 1244HK4    C30 4425   3.334   8.983   7.856  0.1841  0.0502 -0.1738
 1244HK4    C29 4426   3.457   8.926   7.824  0.0670 -0.1834 -0.2024
 1244HK4    H15 4427   3.524   8.922   7.910  0.4294 -0.6900 -0.5095
 1244HK4    C28 4428   3.490   8.872   7.700  0.3435 -0.5171  0.0148
 1244HK4    C27 4429   3.381   8.847   7.614 -0.0942 -0.4421  0.5448
 1244HK4    H14 4430   3.385   8.797   7.516 -0.6668  2.0126 -0.7723
 1244HK4    C32 4431   3.256   8.901   7.642  0.1804  0.6236 -0.2436
 1244HK4    H16 4432   3.180   8.902   7.564  0.1642 -0.6025 -0.2619
 1244HK4    C31 4433   3.228   8.973   7.758 -0.0619 -0.0185  0.1016
 1244HK4    C34 4434   3.128   9.073   7.789 -0.0818  0.0928 -0.3266
 1244HK4    C33 4435   3.176   9.135   7.911  0.1654  0.1089 -0.4328
 1244HK4    C35 4436   3.123   9.259   7.943  0.2894  0.0666 -0.0636
 1244HK4    H17 4437   3.171   9.307   8.029 -1.1800 -1.1696  1.4998
 1244HK4    C36 4438   3.035   9.327   7.860 -0.2196 -0.0265  0.3880
 1244HK4    H18 4439   3.005   9.430   7.883 -0.3968 -0.2195  1.0159
 1244HK4    C37 4440   2.987   9.260   7.748 -0.1010  0.2381  0.1777
 1244HK4    H19 4441   2.924   9.313   7.676 -0.2955  0.5749  0.5953
 1244HK4    C38 4442   3.027   9.132   7.713  0.1536  0.4602 -0.3551
 1244HK4    H20 4443   2.961   9.073   7.649 -0.9846  2.5533 -1.1492
 1244HK4    C14 4444   3.623   8.901   7.645  0.4066  0.1763  0.5226
 1244HK4     C9 4445   3.656   8.934   7.513 -0.5206 -0.0608  0.2218
 1244HK4     C8 4446   3.781   8.896   7.460 -0.7894 -0.2549 -0.2718
 1244HK4    C11 4447   3.874   8.832   7.542 -0.0713  0.5195 -0.4733
 1244HK4     H4 4448   3.967   8.790   7.501  1.9681  2.1120  2.3396
 1244HK4    C12 4449   3.851   8.822   7.679  0.0984  0.8658 -0.4203
 1244HK4     H5 4450   3.941   8.818   7.742 -0.0394  1.4936 -0.1788
 1244HK4    C13 4451   3.725   8.853   7.729  0.1167 -0.4963  0.4976
 1244HK4     H6 4452   3.702   8.832   7.834 -0.9150  1.8398  0.7663
 1244HK4     C7 4453   3.832   8.936   7.327 -0.3731 -0.6183 -0.2260
 1244HK4     O2 4454   3.931   8.885   7.275  0.1366  0.1099  0.0326
 1244HK4     C4 4455   3.751   9.033   7.250 -0.0431 -0.1635  0.0010
 1244HK4     C3 4456   3.794   9.088   7.129 -0.5208  0.0719 -0.0637
 1244HK4     H3 4457   3.898   9.071   7.097 -0.4904  0.0962  0.0185
 1244HK4     C2 4458   3.711   9.160   7.045 -0.1600  0.3906 -0.1503
 1244HK4     H2 4459   3.758   9.224   6.970 -0.8245 -0.3706 -1.2465
 1244HK4     C1 4460   3.578   9.184   7.079 -0.0300  0.5518  0.2356
 1244HK4     H1 4461   3.516   9.253   7.021  1.3031  2.4103  0.9628
 1244HK4     C6 4462   3.532   9.132   7.202  0.3664 -0.1115  0.1066
 1244HK4     C5 4463   3.620   9.066   7.289  0.0889 -0.1035  0.3928
 1244HK4    C10 4464   3.577   9.025   7.426 -0.5464 -0.1151  0.1909
 1244HK4     O1 4465   3.510   9.110   7.485 -0.1854  0.2139  0.1288
 1244HK4    C16 4466   3.387   9.150   7.219  0.4854  0.1710  0.8629
 1244HK4    C15 4467   3.314   9.041   7.270  0.0208  0.4745  0.8447
 1244HK4     H7 4468   3.362   8.943   7.284  0.5520  0.7550  0.9643
 1244HK4    C20 4469   3.185   9.051   7.322 -0.2737 -0.2924  0.2743
 1244HK4     H9 4470   3.133   8.970   7.374  1.1762 -0.3720  1.6704
 1244HK4    C19 4471   3.122   9.175   7.320 -0.2730 -0.3015 -0.2284
 1244HK4    C18 4472   3.203   9.291   7.290 -0.3613 -0.1303  0.1911
 1244HK4    C17 4473   3.326   9.274   7.226 -0.1258 -0.1192  0.6441
 1244HK4     H8 4474   3.380   9.363   7.194 -0.9301  0.2342  0.2353
 1244HK4     N1 4475   3.149   9.410   7.343 -0.0604  0.0808  0.0309
 1244HK4    C21 4476   3.020   9.373   7.388  0.0609 -0.2433  0.1072
 1244HK4    C22 4477   2.995   9.232   7.360 -0.0977 -0.2452  0.2487
 1244HK4    C26 4478   2.868   9.180   7.346 -0.3175  0.0806  1.0011
 1244HK4    H13 4479   2.851   9.079   7.308  0.0565  1.1204 -2.0664
 1244HK4    C25 4480   2.760   9.266   7.362 -0.1082  0.4543  0.4061
 1244HK4    H12 4481   2.664   9.216   7.374  0.1158  0.0188  0.3450
 1244HK4    C24 4482   2.777   9.400   7.397  0.1268  0.4577  0.2866
 1244HK4    H11 4483   2.689   9.465   7.386  0.3281  0.4905 -1.2539
 1244HK4    C23 4484   2.907   9.450   7.409  0.2849  0.1364 -0.0758
 1244HK4    H10 4485   2.916   9.554   7.440 -0.4636 -0.3664  1.8797
 1244HK4    C39 4486   3.217   9.518   7.399  0.0437  0.2329 -0.3798
 1244HK4    C41 4487   3.157   9.644   7.420 -0.5014 -0.1186  0.2106
 1244HK4    H21 4488   3.069   9.676   7.361 -0.3899 -2.5180 -1.3396
 1244HK4    C42 4489   3.235   9.744   7.479  0.1847 -0.5818  0.0917
 1244HK4    H22 4490   3.191   9.840   7.508 -1.6073 -1.0952 -0.8405
 1244HK4    C43 4491   3.361   9.723   7.532 -0.1073 -0.0604  0.9829
 1244HK4    H23 4492   3.403   9.792   7.606  0.3649 -0.6290  1.2538
 1244HK4    C44 4493   3.422   9.600   7.509 -0.3971  0.0198 -0.2444
 1244HK4    H24 4494   3.507   9.570   7.572 -1.0839 -2.0569 -0.2687
 1244HK4    C45 4495   3.347   9.500   7.450 -0.4369 -0.4563  0.6107
 1244HK4    H25 4496   3.394   9.401   7.437  0.2638 -0.0049 -0.2821
 1245HK4    H28 4497   9.049  10.767  11.105  0.8803 -1.6115 -0.6377
 1245HK4    C48 4498   9.111  10.805  11.024  0.4077 -0.0161 -0.2713
 1245HK4    C47 4499   9.227  10.740  10.983  0.1686 -0.7854  0.2429
 1245HK4    H27 4500   9.259  10.652  11.041  2.5855 -0.2650 -0.2361
 1245HK4    C46 4501   9.316  10.803  10.897 -0.6312  0.0919  0.0583
 1245HK4    H26 4502   9.392  10.749  10.838  0.5673  1.0925  0.6619
 1245HK4    C40 4503   9.292  10.935  10.854  0.1072  0.0222 -0.5887
 1245HK4    C50 4504   9.172  10.995  10.898  0.3267  0.0285  0.0064
 1245HK4    H30 4505   9.158  11.099  10.865  3.3884  0.5187  0.1091
 1245HK4    C49 4506   9.082  10.935  10.985  0.5078  0.1820  0.3008
 1245HK4    H29 4507   8.986  10.973  11.023  0.0312 -2.1358  1.5317
 1245HK4     N2 4508   9.398  11.017  10.814  0.2862  0.2933  0.4273
 1245HK4    C30 4509   9.535  11.002  10.844  0.4341  0.0835 -0.3400
 1245HK4    C29 4510   9.585  10.962  10.967 -0.2536  0.5783  0.1058
 1245HK4    H15 4511   9.514  10.907  11.029  1.7024 -0.5805  1.4052
 1245HK4    C28 4512   9.713  10.996  11.010  0.0432 -0.1864 -0.1740
 1245HK4    C27 4513   9.796  11.065  10.920 -0.1186 -0.0559 -0.2245
 1245HK4    H14 4514   9.904  11.046  10.923 -0.6152 -2.8544  0.9512
 1245HK4    C32 4515   9.754  11.105  10.793  0.3913  0.0051 -0.3724
 1245HK4    H16 4516   9.819  11.170  10.734 -0.7275  0.4263 -1.1498
 1245HK4    C31 4517   9.624  11.076  10.756  0.2418  0.4685 -0.2107
 1245HK4    C34 4518   9.532  11.139  10.663 -0.2527 -0.3324 -0.2721
 1245HK4    C33 4519   9.397  11.106  10.704 -0.1963  0.5169  0.6097
 1245HK4    C35 4520   9.296  11.123  10.611  0.5612  0.6361 -0.1977
 1245HK4    H17 4521   9.195  11.085  10.627  1.5333 -2.4279 -0.9688
 1245HK4    C36 4522   9.317  11.172  10.482 -0.5828  0.0114 -0.6265
 1245HK4    H18 4523   9.233  11.187  10.413 -0.6257  2.9445  0.0187
 1245HK4    C37 4524   9.448  11.208  10.452 -0.4418 -0.0384 -0.0692
 1245HK4    H19 4525   9.467  11.245  10.352  1.3445 -1.4946 -0.2952
 1245HK4    C38 4526   9.556  11.196  10.538 -0.3091 -0.3201 -0.2747
 1245HK4    H20 4527   9.655  11.222  10.502 -0.6696  1.0722 -0.2878
 1245HK4    C14 4528   9.768  10.977  11.145 -0.0377  0.2402 -0.0846
 1245HK4     C9 4529   9.882  11.036  11.201 -0.2937  0.6187  0.0436
 1245HK4     C8 4530   9.967  10.979   0.050 -0.3120  0.1652 -0.2055
 1245HK4    C11 4531   9.934  10.852   0.095 -0.3367  0.3982  0.4263
 1245HK4     H4 4532  10.003  10.808   0.168 -0.0230 -0.7577 -0.5548
 1245HK4    C12 4533   9.815  10.798   0.048 -0.2025  0.3072  0.1873
 1245HK4     H5 4534   9.809  10.689   0.063  0.4243  0.4727  1.6745
 1245HK4    C13 4535   9.727  10.856  11.205  0.1379  0.0765 -0.2938
 1245HK4     H6 4536   9.628  10.811  11.186 -1.3201  1.4145  3.5064
 1245HK4     C7 4537  10.102  11.036   0.070 -0.0258 -0.4476 -0.3770
 1245HK4     O2 4538  10.169  10.997   0.166 -0.1746  0.6230  0.1677
 1245HK4     C4 4539  10.146  11.153  11.238  0.4362 -0.0735  0.4107
 1245HK4     C3 4540  10.276  11.201   0.003  0.3340  0.2285  0.3063
 1245HK4     H3 4541  10.341  11.166   0.084  0.7237 -3.8559 -1.6209
 1245HK4     C2 4542  10.320   0.054  11.166 -0.1027 -0.2541 -0.4979
 1245HK4     H2 4543  10.410   0.114  11.184  0.0092 -0.0541 -1.6910
 1245HK4     C1 4544  10.231   0.108  11.074 -0.2796  0.0070 -0.1757
 1245HK4     H1 4545  10.253   0.193  11.008 -1.3613  1.9386  1.8880
 1245HK4     C6 4546  10.094   0.074  11.066 -0.5490  0.8432  0.8184
 1245HK4     C5 4547  10.055  11.223  11.157  0.4649  0.4691  0.8501
 1245HK4    C10 4548   9.914  11.175  11.158  0.5414  0.1955 -0.7153
 1245HK4     O1 4549   9.829   0.000  11.207  0.2295 -0.4332 -0.3231
 1245HK4    C16 4550  10.027   0.089  10.936  0.3385  0.3419  0.2983
 1245HK4    C15 4551  10.098   0.091  10.814  0.1620 -0.4434  0.1821
 1245HK4     H7 4552  10.196   0.042  10.810  1.1169  1.5272 -2.0344
 1245HK4    C20 4553  10.047   0.144  10.696  0.0300 -0.0075  0.4360
 1245HK4     H9 4554  10.101   0.137  10.602  0.6582  1.0375  0.7081
 1245HK4    C19 4555   9.918   0.194  10.683 -0.0244 -0.2725 -0.1184
 1245HK4    C18 4556   9.844   0.189  10.808  0.2519 -0.1597  0.0450
 1245HK4    C17 4557   9.901   0.147  10.928  0.0899 -0.2277  0.0992
 1245HK4     H8 4558   9.844   0.186  11.012  0.0082  1.5376 -0.7441
 1245HK4     N1 4559   9.712   0.236  10.794  0.3474  0.1675  0.2158
 1245HK4    C21 4560   9.709   0.271  10.657  0.0498 -0.5567  0.0361
 1245HK4    C22 4561   9.836   0.266  10.587 -0.0224 -0.2624 -0.1143
 1245HK4    C26 4562   9.854   0.296  10.453  0.4251  0.5275  0.1167
 1245HK4    H13 4563   9.952   0.288  10.405 -0.2739 -1.0937 -1.1100
 1245HK4    C25 4564   9.744   0.342  10.382 -0.2184 -0.3482  0.5364
 1245HK4    H12 4565   9.737   0.343  10.274 -0.5384 -2.7956  0.5148
 1245HK4    C24 4566   9.623   0.353  10.450 -0.1430  0.3902  0.5524
 1245HK4    H11 4567   9.542   0.413  10.405 -0.7185 -0.1307  0.8910
 1245HK4    C23 4568   9.602   0.320  10.583 -0.1777 -0.6545  0.2956
 1245HK4    H10 4569   9.505   0.342  10.627  0.2804 -2.5660  2.3351
 1245HK4    C39 4570   9.603   0.217  10.880  0.3167 -0.4044  0.0520
 1245HK4    C41 4571   9.497   0.310  10.877  0.4299 -0.2754  0.0622
 1245HK4    H21 4572   9.521   0.417  10.867 -1.7950  0.3349  0.9469
 1245HK4    C42 4573   9.370   0.274  10.920  0.3851 -0.4809 -0.2481
 1245HK4    H22 4574   9.282   0.335  10.896  0.0757 -1.7244 -2.3534
 1245HK4    C43 4575   9.342   0.153  10.983 -0.1092 -0.2727 -0.0673
 1245HK4    H23 4576   9.239   0.133  11.013 -0.6255 -2.2526 -2.9973
 1245HK4    C44 4577   9.449   0.066  10.999 -0.0586 -0.1998 -0.0290
 1245HK4    H24 4578   9.422  11.218  11.044 -1.5600  1.0273  1.7547
 1245HK4    C45 4579   9.575   0.097  10.948 -0.1579 -0.6276 -0.5372
 1245HK4    H25 4580   9.663   0.032  10.963 -0.0116 -0.3520 -0.2064
 1246HK4    H28 4581   7.551   5.518   3.054  0.7318  0.3951  0.7528
 1246HK4    C48 4582   7.542   5.411   3.072 -0.2177  0.4273  0.5097
 1246HK4    C47 4583   7.661   5.347   3.107 -0.0600  0.4031 -0.0630
 1246HK4    H27 4584   7.741   5.412   3.145 -0.2679  0.8694 -0.4059
 1246HK4    C46 4585   7.661   5.208   3.099 -0.1065  0.4128 -0.2041
 1246HK4    H26 4586   7.745   5.158   3.150 -0.5599 -0.4950 -0.3433
 1246HK4    C40 4587   7.554   5.128   3.055  0.1694  0.1028 -0.3073
 1246HK4    C50 4588   7.436   5.201   3.032 -0.0360  0.1470  0.8451
 1246HK4    H30 4589   7.343   5.147   3.008 -0.3032 -0.1296  2.4455
 1246HK4    C49 4590   7.428   5.340   3.036  0.0312  0.1741  0.2181
 1246HK4    H29 4591   7.335   5.396   3.023  0.0216  0.1256  0.0793
 1246HK4     N2 4592   7.580   5.011   2.981  0.3229  0.0047 -0.1010
 1246HK4    C30 4593   7.691   4.983   2.898  0.6992 -0.2109  0.4764
 1246HK4    C29 4594   7.783   5.072   2.843  0.0150  0.1319 -0.1256
 1246HK4    H15 4595   7.796   5.171   2.887  2.1739 -0.4011  0.5025
 1246HK4    C28 4596   7.875   5.038   2.745  0.6817  0.0343  0.5311
 1246HK4    C27 4597   7.865   4.906   2.697 -0.5066  0.4807 -0.4487
 1246HK4    H14 4598   7.947   4.876   2.631 -1.5742 -1.3038 -1.0112
 1246HK4    C32 4599   7.771   4.814   2.744  0.4245 -0.0516  0.3743
 1246HK4    H16 4600   7.786   4.710   2.716 -1.0382 -0.2301  0.2447
 1246HK4    C31 4601   7.688   4.847   2.850 -0.1145  0.0007 -0.0667
 1246HK4    C34 4602   7.592   4.780   2.935 -0.1183  0.5106  0.3331
 1246HK4    C33 4603   7.518   4.886   3.000 -0.5909  0.4557 -0.1063
 1246HK4    C35 4604   7.429   4.853   3.101  0.2345 -0.0602  0.4578
 1246HK4    H17 4605   7.367   4.931   3.146  0.5433  0.0811  0.6363
 1246HK4    C36 4606   7.412   4.719   3.135 -0.7918 -0.1706 -0.4648
 1246HK4    H18 4607   7.353   4.687   3.221 -0.7495  0.6446 -0.1274
 1246HK4    C37 4608   7.482   4.617   3.070  0.3415  0.2852  0.0172
 1246HK4    H19 4609   7.462   4.516   3.106  2.0659 -0.3843 -0.8667
 1246HK4    C38 4610   7.574   4.646   2.970 -0.0262  0.3238 -0.3138
 1246HK4    H20 4611   7.611   4.574   2.898  0.9942 -0.7804  1.2780
 1246HK4    C14 4612   7.925   5.142   2.654 -0.4123  0.0079 -0.1100
 1246HK4     C9 4613   7.936   5.131   2.515 -0.0884  0.3886 -0.1161
 1246HK4     C8 4614   8.049   5.182   2.447 -0.1371  0.0749 -0.4367
 1246HK4    C11 4615   8.133   5.265   2.520 -0.5915  0.0666  0.1092
 1246HK4     H4 4616   8.229   5.303   2.479 -0.1656 -0.4566  0.6291
 1246HK4    C12 4617   8.125   5.281   2.658  0.5079 -0.5650  0.2551
 1246HK4     H5 4618   8.216   5.317   2.707 -0.1750  1.8143 -0.1924
 1246HK4    C13 4619   8.017   5.223   2.724 -0.2647  0.0972 -0.4060
 1246HK4     H6 4620   8.007   5.238   2.832  0.8060 -0.6937 -0.1868
 1246HK4     C7 4621   8.085   5.126   2.316  0.2365 -0.3268 -0.1625
 1246HK4     O2 4622   8.143   5.196   2.234  0.0653  0.0942  0.0772
 1246HK4     C4 4623   8.011   5.004   2.275  0.4103 -0.6137  0.3875
 1246HK4     C3 4624   8.063   4.932   2.168  0.0702 -0.2970  0.0121
 1246HK4     H3 4625   8.172   4.928   2.158  0.1353 -1.8316  1.1279
 1246HK4     C2 4626   7.990   4.833   2.104  0.3706 -0.1341 -0.5844
 1246HK4     H2 4627   8.023   4.780   2.014  0.7377  1.2879 -1.3099
 1246HK4     C1 4628   7.864   4.804   2.156  0.4444 -0.3920 -0.5505
 1246HK4     H1 4629   7.809   4.724   2.104  0.4682  0.1090 -1.3418
 1246HK4     C6 4630   7.809   4.861   2.273  0.4695 -0.1994 -0.6328
 1246HK4     C5 4631   7.882   4.970   2.322  0.1770 -0.2784 -0.0127
 1246HK4    C10 4632   7.836   5.052   2.438  0.3603 -0.5149  0.2267
 1246HK4     O1 4633   7.730   5.113   2.426  0.5157 -0.2015  0.4785
 1246HK4    C16 4634   7.711   4.780   2.346  0.3722  0.2581 -0.2540
 1246HK4    C15 4635   7.701   4.639   2.336  0.5058  0.2365 -0.1069
 1246HK4     H7 4636   7.758   4.585   2.258 -0.7103 -1.3274  0.0716
 1246HK4    C20 4637   7.625   4.552   2.413  0.3023  0.4205 -0.1000
 1246HK4     H9 4638   7.635   4.445   2.397 -0.0422  0.3136  0.4200
 1246HK4    C19 4639   7.531   4.615   2.494 -0.2897 -0.1642 -0.3294
 1246HK4    C18 4640   7.522   4.759   2.502 -0.2870 -0.1751 -0.1563
 1246HK4    C17 4641   7.613   4.834   2.429 -0.4953 -0.5105 -0.7600
 1246HK4     H8 4642   7.572   4.931   2.400 -0.8570 -0.7704 -1.1111
 1246HK4     N1 4643   7.420   4.801   2.589 -0.1642 -0.1126 -0.0402
 1246HK4    C21 4644   7.369   4.681   2.643 -0.1800 -0.1658 -0.1699
 1246HK4    C22 4645   7.434   4.564   2.589 -0.1378 -0.1452 -0.1622
 1246HK4    C26 4646   7.407   4.439   2.643 -0.5177 -0.1267 -0.3073
 1246HK4    H13 4647   7.446   4.352   2.590  0.2978  0.5738 -0.8597
 1246HK4    C25 4648   7.313   4.420   2.743 -1.2536 -0.4999 -1.0655
 1246HK4    H12 4649   7.259   4.329   2.770  0.9990 -1.7741 -0.7982
 1246HK4    C24 4650   7.259   4.534   2.802 -0.3827 -0.1886 -0.8575
 1246HK4    H11 4651   7.198   4.524   2.893  0.5825  2.0655  0.0497
 1246HK4    C23 4652   7.285   4.661   2.752  0.0487  0.0815  0.0513
 1246HK4    H10 4653   7.246   4.747   2.807 -1.2905 -1.9309  2.3966
 1246HK4    C39 4654   7.390   4.933   2.623  0.4126  0.1751 -0.6508
 1246HK4    C41 4655   7.258   4.971   2.656  0.3796  0.0786 -0.6711
 1246HK4    H21 4656   7.184   4.892   2.641  0.2018  0.1771 -0.3267
 1246HK4    C42 4657   7.215   5.100   2.683 -0.1472 -0.1613 -0.3462
 1246HK4    H22 4658   7.106   5.114   2.691 -0.1508 -1.1576  1.3933
 1246HK4    C43 4659   7.311   5.201   2.691 -0.5575  0.1896  0.1510
 1246HK4    H23 4660   7.284   5.300   2.727  0.8814  0.5243  0.3185
 1246HK4    C44 4661   7.443   5.166   2.666 -0.6883  0.1539 -0.5046
 1246HK4    H24 4662   7.519   5.246   2.670 -0.0704 -0.4715  0.6055
 1246HK4    C45 4663   7.485   5.037   2.636  0.1960  0.2772  0.1514
 1246HK4    H25 4664   7.591   5.009   2.631  0.1729  0.2618 -0.2987
 1247HK4    H28 4665   2.173   1.438   1.923 -2.0995  1.0465 -0.9976
 1247HK4    C48 4666   2.132   1.347   1.879  0.2301 -0.1600 -0.7550
 1247HK4    C47 4667   2.159   1.225   1.940 -0.1900  0.0920 -0.0559
 1247HK4    H27 4668   2.214   1.214   2.035  0.7079 -0.6118 -0.6448
 1247HK4    C46 4669   2.116   1.108   1.880  0.2812  0.1966 -0.6074
 1247HK4    H26 4670   2.095   1.021   1.945  0.2054  2.2719  2.2173
 1247HK4    C40 4671   2.064   1.111   1.749  0.1094 -0.1855 -0.5487
 1247HK4    C50 4672   2.043   1.236   1.689  0.1140 -0.0385 -0.2457
 1247HK4    H30 4673   2.027   1.237   1.580  0.3419  2.4736 -0.2948
 1247HK4    C49 4674   2.072   1.356   1.754  0.2036  0.2009 -0.7183
 1247HK4    H29 4675   2.019   1.450   1.734  1.4447  1.0830  0.0656
 1247HK4     N2 4676   2.046   0.987   1.685 -0.5835 -0.1735 -0.3862
 1247HK4    C30 4677   2.108   0.866   1.721 -0.0334  0.3295  0.3938
 1247HK4    C29 4678   2.231   0.841   1.780 -0.1242 -0.3366  0.3082
 1247HK4    H15 4679   2.304   0.917   1.811  0.0093 -0.6311  0.7301
 1247HK4    C28 4680   2.273   0.711   1.806  0.0606 -0.3387 -0.0066
 1247HK4    C27 4681   2.190   0.603   1.771 -0.4100 -0.0822  0.3102
 1247HK4    H14 4682   2.205   0.501   1.810  0.5325  0.7418  2.1705
 1247HK4    C32 4683   2.066   0.625   1.712 -0.3967 -0.1675  0.2492
 1247HK4    H16 4684   1.992   0.545   1.711  0.8686 -1.3740  1.2347
 1247HK4    C31 4685   2.028   0.753   1.677  0.4352  0.0694  0.2027
 1247HK4    C34 4686   1.921   0.807   1.595 -0.1075 -0.4893  0.5431
 1247HK4    C33 4687   1.930   0.951   1.614 -0.2774 -0.2988 -0.8174
 1247HK4    C35 4688   1.832   1.029   1.554 -0.5877  0.0419  0.1345
 1247HK4    H17 4689   1.818   1.134   1.579  1.7075  0.5811 -0.7222
 1247HK4    C36 4690   1.739   0.967   1.470 -0.5565 -0.1279  0.2247
 1247HK4    H18 4691   1.675   1.027   1.404 -0.2582  0.9551  0.8966
 1247HK4    C37 4692   1.725   0.829   1.463 -0.3777 -0.1369  0.0405
 1247HK4    H19 4693   1.641   0.779   1.415  0.9472 -2.3505 -0.0468
 1247HK4    C38 4694   1.818   0.746   1.525 -0.4215  0.1242  0.4609
 1247HK4    H20 4695   1.799   0.640   1.543 -1.3138  0.1023 -0.5488
 1247HK4    C14 4696   2.415   0.689   1.839  0.1848 -0.1900 -0.4401
 1247HK4     C9 4697   2.494   0.579   1.805  0.5212 -0.0508 -0.1024
 1247HK4     C8 4698   2.610   0.546   1.879  0.3004  0.0961  0.3078
 1247HK4    C11 4699   2.651   0.629   1.983  0.5050  0.2318  0.1175
 1247HK4     H4 4700   2.732   0.602   2.051 -1.1393 -0.2660  1.9177
 1247HK4    C12 4701   2.574   0.737   2.025  0.4645  0.2571 -0.0218
 1247HK4     H5 4702   2.606   0.800   2.109 -2.2433  1.0230  0.4830
 1247HK4    C13 4703   2.460   0.763   1.950  0.4910 -0.5282 -0.3377
 1247HK4     H6 4704   2.418   0.864   1.963  1.3542 -0.2582  0.3360
 1247HK4     C7 4705   2.664   0.410   1.861  0.1830  0.0996 -0.0646
 1247HK4     O2 4706   2.750   0.367   1.937  0.2478 -0.0867 -0.2415
 1247HK4     C4 4707   2.611   0.320   1.756 -0.2392 -0.2768  0.4685
 1247HK4     C3 4708   2.652   0.188   1.747  0.5063 -0.0471  0.4720
 1247HK4     H3 4709   2.752   0.164   1.786  0.5794 -0.8384 -0.1921
 1247HK4     C2 4710   2.568   0.091   1.695  0.2418  0.2333  0.3784
 1247HK4     H2 4711   2.600  11.234   1.689 -1.2529 -0.3915  2.7157
 1247HK4     C1 4712   2.444   0.126   1.641  0.0248  0.2353  0.8741
 1247HK4     H1 4713   2.380   0.046   1.602  0.7676  0.5749 -1.1252
 1247HK4     C6 4714   2.408   0.262   1.632  0.1492  0.2035 -0.1720
 1247HK4     C5 4715   2.497   0.358   1.682  0.4345  0.0656 -0.4108
 1247HK4    C10 4716   2.461   0.503   1.681 -0.0532 -0.0526  0.0556
 1247HK4     O1 4717   2.468   0.559   1.573 -0.0812 -0.2032 -0.0251
 1247HK4    C16 4718   2.263   0.281   1.613  0.0322 -0.0073  0.4950
 1247HK4    C15 4719   2.175   0.196   1.682 -0.0261 -0.0301  0.3921
 1247HK4     H7 4720   2.220   0.124   1.753  1.0995 -0.8724 -1.1488
 1247HK4    C20 4721   2.040   0.200   1.652  0.0178  0.8879  0.3145
 1247HK4     H9 4722   1.974   0.138   1.714  0.7377 -0.3679 -0.1656
 1247HK4    C19 4723   1.991   0.286   1.554 -0.3159  0.4578  0.1001
 1247HK4    C18 4724   2.086   0.359   1.473 -0.0505 -0.0551 -0.0544
 1247HK4    C17 4725   2.222   0.357   1.504 -0.2058  0.0457  0.6232
 1247HK4     H8 4726   2.292   0.404   1.436 -1.9077 -0.0815 -1.2676
 1247HK4     N1 4727   2.021   0.433   1.371 -0.1019  0.1123  0.0996
 1247HK4    C21 4728   1.882   0.418   1.392 -0.1110  0.1486  0.0657
 1247HK4    C22 4729   1.862   0.334   1.509 -0.3448  0.6342  0.3725
 1247HK4    C26 4730   1.732   0.320   1.556 -0.2759  0.3125  0.4700
 1247HK4    H13 4731   1.719   0.273   1.653 -0.1634 -1.6630 -0.4433
 1247HK4    C25 4732   1.623   0.377   1.491 -0.0146  0.0238 -0.2278
 1247HK4    H12 4733   1.524   0.354   1.532  1.1254 -0.2220  2.5164
 1247HK4    C24 4734   1.645   0.452   1.376  0.1024  0.3503  0.0079
 1247HK4    H11 4735   1.561   0.507   1.330  1.3432  2.8120  0.6283
 1247HK4    C23 4736   1.773   0.473   1.327  0.0006 -0.3644 -0.5551
 1247HK4    H10 4737   1.770   0.528   1.233  2.5357  2.4867  0.9885
 1247HK4    C39 4738   2.085   0.529   1.293  0.0598 -0.1108 -0.0455
 1247HK4    C41 4739   2.204   0.600   1.317  0.0677 -0.0781 -0.1828
 1247HK4    H21 4740   2.240   0.614   1.420 -1.0318 -1.5904  0.4200
 1247HK4    C42 4741   2.279   0.664   1.219  0.5799 -0.3071  0.0592
 1247HK4    H22 4742   2.361   0.732   1.248 -1.6566  2.4279  0.1693
 1247HK4    C43 4743   2.235   0.652   1.088 -0.3442 -0.2803  0.3639
 1247HK4    H23 4744   2.297   0.697   1.010 -0.2896 -1.2925 -0.1865
 1247HK4    C44 4745   2.126   0.572   1.054 -0.3011  0.2083 -0.9570
 1247HK4    H24 4746   2.099   0.549   0.950  0.9070  0.5039 -1.3443
 1247HK4    C45 4747   2.051   0.516   1.157  0.6502  0.2530 -0.2298
 1247HK4    H25 4748   1.965   0.452   1.131  0.6616  0.1121  0.0796
 1248HK4    H28 4749   2.895   4.849   8.419  1.0024  3.0298  0.7281
 1248HK4    C48 4750   2.794   4.873   8.453  0.1340  0.2994  0.2371
 1248HK4    C47 4751   2.702   4.955   8.388  0.0373 -0.1652 -0.2149
 1248HK4    H27 4752   2.742   5.007   8.299  1.2124  0.6195  0.7483
 1248HK4    C46 4753   2.569   4.964   8.425  0.0069  0.1104 -0.3886
 1248HK4    H26 4754   2.494   5.009   8.358 -0.0355 -0.3331 -0.6462
 1248HK4    C40 4755   2.524   4.887   8.535  0.1278  0.1785 -0.2913
 1248HK4    C50 4756   2.622   4.816   8.607 -0.1541 -0.0102 -0.0968
 1248HK4    H30 4757   2.593   4.770   8.703  0.6682 -1.9929 -0.7594
 1248HK4    C49 4758   2.756   4.809   8.570 -0.1602 -0.1382 -0.0923
 1248HK4    H29 4759   2.831   4.769   8.640  3.2592 -1.1218 -4.1546
 1248HK4     N2 4760   2.390   4.858   8.559  0.3043 -0.5028 -0.1223
 1248HK4    C30 4761   2.286   4.851   8.463 -0.0780  0.4263  0.2123
 1248HK4    C29 4762   2.295   4.809   8.331 -0.2192  0.3928  0.2130
 1248HK4    H15 4763   2.395   4.798   8.289  0.7857  1.7603  2.1665
 1248HK4    C28 4764   2.185   4.780   8.251  0.0861 -0.5365  0.1191
 1248HK4    C27 4765   2.059   4.795   8.311 -0.0581 -0.4456 -0.2077
 1248HK4    H14 4766   1.970   4.752   8.261 -0.5726 -1.5049  1.5974
 1248HK4    C32 4767   2.040   4.846   8.439 -0.2091  0.0279 -0.4162
 1248HK4    H16 4768   1.941   4.853   8.483  0.7131  1.1166  1.5281
 1248HK4    C31 4769   2.153   4.874   8.515 -0.3256  0.0157 -0.2406
 1248HK4    C34 4770   2.173   4.900   8.657 -0.1908 -0.1978 -0.2182
 1248HK4    C33 4771   2.316   4.887   8.676 -0.1664 -0.2912 -0.4649
 1248HK4    C35 4772   2.363   4.932   8.799 -0.3714 -0.4790 -0.3180
 1248HK4    H17 4773   2.450   4.882   8.842  0.8168  0.1419 -1.9246
 1248HK4    C36 4774   2.276   4.988   8.892 -0.1076 -0.5748 -0.0119
 1248HK4    H18 4775   2.321   5.053   8.969  1.5620 -2.3424  0.5500
 1248HK4    C37 4776   2.139   5.002   8.878 -0.0046  0.4194 -0.0696
 1248HK4    H19 4777   2.075   5.023   8.964  0.2214  0.3503  0.1152
 1248HK4    C38 4778   2.092   4.956   8.755  0.0785 -0.7676  0.3337
 1248HK4    H20 4779   1.991   4.981   8.723  0.9160 -0.2656 -2.0625
 1248HK4    C14 4780   2.206   4.757   8.107  0.2563  0.2427  0.0161
 1248HK4     C9 4781   2.116   4.805   8.012 -0.2426 -0.0024  0.3620
 1248HK4     C8 4782   2.074   4.718   7.909  0.0342 -0.0033  0.2461
 1248HK4    C11 4783   2.123   4.588   7.902  0.1016  0.0387 -0.0313
 1248HK4     H4 4784   2.062   4.520   7.841  0.7598  0.4051 -1.1126
 1248HK4    C12 4785   2.225   4.545   7.986 -0.1011  0.1785  0.2882
 1248HK4     H5 4786   2.288   4.460   7.956  0.5211  1.2699 -1.5435
 1248HK4    C13 4787   2.266   4.631   8.087  0.3885  0.3102 -0.0210
 1248HK4     H6 4788   2.347   4.598   8.153  0.5681 -0.1894 -0.4939
 1248HK4     C7 4789   1.965   4.756   7.817  0.2933  0.0830 -0.0255
 1248HK4     O2 4790   1.955   4.698   7.709  0.0874  0.2863 -0.1182
 1248HK4     C4 4791   1.879   4.872   7.849  0.2750 -0.0935  0.5847
 1248HK4     C3 4792   1.758   4.878   7.782  0.5035 -0.4764  0.1380
 1248HK4     H3 4793   1.747   4.837   7.680 -0.9779 -0.8658  0.4394
 1248HK4     C2 4794   1.660   4.966   7.828  0.3209 -0.4819 -0.2375
 1248HK4     H2 4795   1.562   4.977   7.778  0.4596  2.2037  0.0317
 1248HK4     C1 4796   1.691   5.049   7.934  0.2546  0.0018 -0.5991
 1248HK4     H1 4797   1.620   5.127   7.965 -0.3676 -0.8971  0.2707
 1248HK4     C6 4798   1.818   5.050   7.996  0.0489  0.1095 -0.1788
 1248HK4     C5 4799   1.916   4.960   7.953  0.3635  0.2331  0.2798
 1248HK4    C10 4800   2.047   4.937   8.022  0.5062  0.4170  0.0677
 1248HK4     O1 4801   2.127   5.029   8.032  0.2734  0.6194  0.0786
 1248HK4    C16 4802   1.855   5.173   8.067  0.1070  0.2111 -0.3853
 1248HK4    C15 4803   1.801   5.296   8.023 -0.1517  0.1847 -0.1353
 1248HK4     H7 4804   1.782   5.314   7.917 -0.6531  1.1003  0.1081
 1248HK4    C20 4805   1.799   5.408   8.106 -0.4336 -0.2226  0.4158
 1248HK4     H9 4806   1.750   5.499   8.072 -0.0350  0.8634  2.6888
 1248HK4    C19 4807   1.851   5.398   8.234  0.3140 -0.1071  0.1264
 1248HK4    C18 4808   1.904   5.272   8.284  0.3841  0.0287  0.3967
 1248HK4    C17 4809   1.896   5.162   8.200 -0.5012  0.5087 -0.1662
 1248HK4     H8 4810   1.880   5.065   8.247 -1.7406  1.3349  1.1438
 1248HK4     N1 4811   1.970   5.291   8.407 -0.2133 -0.2264  0.7579
 1248HK4    C21 4812   1.958   5.429   8.433  0.3292 -0.0117 -0.1144
 1248HK4    C22 4813   1.888   5.501   8.329  0.6480  0.1151 -0.2435
 1248HK4    C26 4814   1.863   5.637   8.337 -0.0729 -0.0083 -0.3356
 1248HK4    H13 4815   1.815   5.695   8.258  1.1068  1.4886  0.0176
 1248HK4    C25 4816   1.921   5.709   8.441 -0.9038 -0.3960  0.4047
 1248HK4    H12 4817   1.922   5.818   8.439 -0.3867 -0.4161 -0.9131
 1248HK4    C24 4818   1.992   5.643   8.541  0.1746 -0.0741 -0.1413
 1248HK4    H11 4819   2.056   5.706   8.605  0.4661  0.4573 -0.9403
 1248HK4    C23 4820   2.007   5.505   8.539  0.1214 -0.0817  0.0329
 1248HK4    H10 4821   2.029   5.464   8.637  0.7872 -1.7461 -0.7973
 1248HK4    C39 4822   2.088   5.223   8.438  0.2587  0.3186  0.1554
 1248HK4    C41 4823   2.126   5.235   8.574 -0.3266  0.4787  0.3056
 1248HK4    H21 4824   2.044   5.240   8.647 -1.0070  2.8467 -0.5733
 1248HK4    C42 4825   2.260   5.250   8.605 -0.1097 -0.7298 -0.0423
 1248HK4    H22 4826   2.287   5.245   8.711 -0.0715  0.5977  0.0178
 1248HK4    C43 4827   2.363   5.250   8.511  0.1375 -0.3061  0.2310
 1248HK4    H23 4828   2.469   5.258   8.536  0.1994 -0.0043 -0.1427
 1248HK4    C44 4829   2.326   5.234   8.378 -0.2452 -0.4598  0.3504
 1248HK4    H24 4830   2.399   5.219   8.297  0.7682  0.9098  0.9882
 1248HK4    C45 4831   2.193   5.219   8.343 -0.1338 -0.0851 -0.2571
 1248HK4    H25 4832   2.175   5.199   8.237  0.1703  2.0612 -0.7201
 1249HK4    H28 4833   1.992  10.589  10.215 -2.0372  0.3666  0.5946
 1249HK4    C48 4834   1.993  10.575  10.107  0.0425  0.0113  0.6472
 1249HK4    C47 4835   2.003  10.685  10.022  0.6772 -0.6809 -0.1908
 1249HK4    H27 4836   2.027  10.785  10.060 -0.9734 -0.3613  0.0284
 1249HK4    C46 4837   1.960  10.673   9.891  0.0582 -0.1384 -0.0401
 1249HK4    H26 4838   1.986  10.748   9.815 -1.2997  0.5293  0.1407
 1249HK4    C40 4839   1.896  10.557   9.842 -0.5767  0.1633  0.0663
 1249HK4    C50 4840   1.895  10.450   9.934  0.1200  0.3038  0.2432
 1249HK4    H30 4841   1.831  10.365   9.906 -0.0229 -0.0716  1.6756
 1249HK4    C49 4842   1.939  10.454  10.066  0.2527  0.0654  0.2062
 1249HK4    H29 4843   1.936  10.368  10.134 -2.7092  0.9684  1.3185
 1249HK4     N2 4844   1.828  10.551   9.720 -0.4383 -0.1228  0.0029
 1249HK4    C30 4845   1.791  10.669   9.653  0.5014  0.2206  0.0905
 1249HK4    C29 4846   1.754  10.793   9.703 -0.0252  0.0147  0.2265
 1249HK4    H15 4847   1.774  10.820   9.807  1.4074  1.1534 -0.3276
 1249HK4    C28 4848   1.691  10.883   9.618 -0.0151 -0.1161  0.0819
 1249HK4    C27 4849   1.662  10.846   9.485 -1.0366  0.1643  0.2270
 1249HK4    H14 4850   1.605  10.909   9.415 -1.5765 -0.1952  0.3443
 1249HK4    C32 4851   1.693  10.720   9.435  0.0047  0.3157  0.4840
 1249HK4    H16 4852   1.632  10.684   9.352 -1.4493  0.4330  1.4815
 1249HK4    C31 4853   1.760  10.630   9.517 -0.2081  0.0081  0.3099
 1249HK4    C34 4854   1.777  10.487   9.502 -0.3910 -0.0266  0.4037
 1249HK4    C33 4855   1.828  10.442   9.630  0.7646 -0.0651 -0.0618
 1249HK4    C35 4856   1.844  10.306   9.652  0.7189 -0.0588  0.0011
 1249HK4    H17 4857   1.923  10.283   9.723  0.9696  1.3023  0.1804
 1249HK4    C36 4858   1.809  10.215   9.553  0.0352 -0.1122  0.2865
 1249HK4    H18 4859   1.796  10.109   9.580  0.4833 -0.2941 -0.2143
 1249HK4    C37 4860   1.761  10.257   9.429  0.2097 -0.3282  0.1467
 1249HK4    H19 4861   1.729  10.185   9.353  1.0340 -1.3906  0.7937
 1249HK4    C38 4862   1.746  10.393   9.404  0.3037 -0.2661  0.4111
 1249HK4    H20 4863   1.704  10.429   9.310 -1.2879 -1.0041  0.8175
 1249HK4    C14 4864   1.626  11.000   9.678 -0.4086 -0.6514  0.6984
 1249HK4     C9 4865   1.508  11.060   9.632  0.6371  0.2775 -0.8132
 1249HK4     C8 4866   1.483  11.195   9.660 -0.0892  0.0252 -0.2329
 1249HK4    C11 4867   1.564   0.025   9.742 -0.1226  0.1868 -0.3534
 1249HK4     H4 4868   1.538   0.127   9.773  0.7422 -0.0561  1.2180
 1249HK4    C12 4869   1.678  11.214   9.797 -0.1423  0.2541 -0.2387
 1249HK4     H5 4870   1.762   0.024   9.839 -0.6881 -0.0069  1.2492
 1249HK4    C13 4871   1.699  11.080   9.769  0.0036  0.3270 -0.4803
 1249HK4     H6 4872   1.764  11.021   9.836 -0.2507  1.8291  1.1296
 1249HK4     C7 4873   1.390   0.016   9.568 -0.0740 -0.0782 -0.3256
 1249HK4     O2 4874   1.348   0.130   9.589  0.2295  0.0591 -0.4659
 1249HK4     C4 4875   1.322  11.188   9.461 -0.6001 -0.1123  0.0304
 1249HK4     C3 4876   1.253   0.013   9.365  0.1840  0.1182 -0.3691
 1249HK4     H3 4877   1.239   0.122   9.361 -3.6078 -0.2559  0.1667
 1249HK4     C2 4878   1.177  11.194   9.270 -0.0808  0.0646 -0.1200
 1249HK4     H2 4879   1.131   0.008   9.192 -0.8617  0.1893  0.4433
 1249HK4     C1 4880   1.183  11.055   9.264 -0.5089  0.0310  0.2531
 1249HK4     H1 4881   1.113  11.009   9.192  0.0984  1.6115 -1.3773
 1249HK4     C6 4882   1.257  10.975   9.354  0.2356  0.2457 -0.1677
 1249HK4     C5 4883   1.322  11.047   9.455 -0.4052 -0.1344  0.5178
 1249HK4    C10 4884   1.411  10.979   9.552  0.0914 -0.0227  0.1440
 1249HK4     O1 4885   1.376  10.876   9.610  0.0516 -0.0676  0.0401
 1249HK4    C16 4886   1.315  10.850   9.302  0.8325  0.3514  0.2400
 1249HK4    C15 4887   1.362  10.852   9.169  0.2657 -0.0611  0.0311
 1249HK4     H7 4888   1.371  10.951   9.123  0.3734 -0.0846 -0.0006
 1249HK4    C20 4889   1.402  10.742   9.094  0.2121  0.0892 -0.2164
 1249HK4     H9 4890   1.439  10.762   8.993  1.1351  2.4866  0.5378
 1249HK4    C19 4891   1.402  10.620   9.160  0.7905  0.4073  0.3773
 1249HK4    C18 4892   1.355  10.608   9.297  0.6126 -0.0953  0.2764
 1249HK4    C17 4893   1.310  10.724   9.359 -0.3983 -0.0018 -0.6093
 1249HK4     H8 4894   1.230  10.711   9.432  0.4439 -1.3834  0.1005
 1249HK4     N1 4895   1.366  10.479   9.351  0.2361 -0.1840  0.1544
 1249HK4    C21 4896   1.414  10.408   9.239 -0.1890  0.4752 -0.4504
 1249HK4    C22 4897   1.451  10.488   9.124 -0.0128  0.3373 -0.4913
 1249HK4    C26 4898   1.529  10.444   9.018 -0.2716 -0.1121 -0.4905
 1249HK4    H13 4899   1.551  10.516   8.939  0.9904 -1.6726 -1.5877
 1249HK4    C25 4900   1.560  10.308   9.018  0.4914  0.0592  0.5479
 1249HK4    H12 4901   1.614  10.271   8.931  3.5122  1.1893  1.8789
 1249HK4    C24 4902   1.526  10.231   9.128  0.5444  0.0454  0.5550
 1249HK4    H11 4903   1.553  10.125   9.128  2.2749  0.4645  0.1933
 1249HK4    C23 4904   1.460  10.277   9.242  0.1423  0.5983  0.0995
 1249HK4    H10 4905   1.465  10.222   9.336 -1.3840 -0.2495 -0.2940
 1249HK4    C39 4906   1.354  10.435   9.484 -0.0184  0.4732  0.3458
 1249HK4    C41 4907   1.311  10.308   9.525  0.3928  0.4051  0.5746
 1249HK4    H21 4908   1.287  10.235   9.446  2.2880  1.4707 -1.0093
 1249HK4    C42 4909   1.327  10.254   9.652 -0.4103 -0.3052  0.3837
 1249HK4    H22 4910   1.317  10.145   9.660 -1.0123 -0.3975 -1.4238
 1249HK4    C43 4911   1.393  10.331   9.747  0.4570 -0.0151 -0.4500
 1249HK4    H23 4912   1.431  10.298   9.844  3.5092 -0.0323 -1.6069
 1249HK4    C44 4913   1.437  10.460   9.718  1.0849 -0.0581  0.2751
 1249HK4    H24 4914   1.475  10.528   9.795  4.6315  0.5426 -1.8961
 1249HK4    C45 4915   1.419  10.505   9.588 -0.0201  0.2177  0.5188
 1249HK4    H25 4916   1.476  10.596   9.563  1.4851 -1.1994 -1.4378
 1250HK4    H28 4917   6.669   7.784  11.019  0.7295  0.1030 -0.0668
 1250HK4    C48 4918   6.715   7.758  10.924  0.2455 -0.0793 -0.2578
 1250HK4    C47 4919   6.698   7.649  10.840  0.3005 -0.0449 -0.3107
 1250HK4    H27 4920   6.652   7.562  10.889 -0.0532  0.1187 -0.3552
 1250HK4    C46 4921   6.740   7.648  10.707  0.1494  0.1054 -0.3632
 1250HK4    H26 4922   6.699   7.572  10.640 -1.0403  1.8920 -1.7023
 1250HK4    C40 4923   6.819   7.749  10.648  0.4131  0.0829 -0.0515
 1250HK4    C50 4924   6.846   7.857  10.735 -0.1054  0.5161 -0.4256
 1250HK4    H30 4925   6.913   7.935  10.698  0.7736  0.7804  1.6928
 1250HK4    C49 4926   6.794   7.856  10.864 -0.2971  0.2079 -0.5019
 1250HK4    H29 4927   6.801   7.946  10.927  1.5016 -1.7905  2.2732
 1250HK4     N2 4928   6.892   7.735  10.529  0.3213 -0.4430 -0.0483
 1250HK4    C30 4929   6.942   7.613  10.480 -0.6008 -0.8874  0.0908
 1250HK4    C29 4930   6.975   7.499  10.552 -0.0114 -0.4345  0.5436
 1250HK4    H15 4931   6.964   7.497  10.660  1.5214 -1.0836  0.7060
 1250HK4    C28 4932   7.029   7.388  10.487  0.1105 -0.0908  0.0506
 1250HK4    C27 4933   7.054   7.401  10.349  0.8685  0.6998  0.2590
 1250HK4    H14 4934   7.109   7.318  10.303  1.0611  0.1083  1.5285
 1250HK4    C32 4935   7.019   7.512  10.274 -0.1115  0.2809  0.0896
 1250HK4    H16 4936   7.004   7.499  10.167 -3.4999 -0.9269  0.6714
 1250HK4    C31 4937   6.963   7.623  10.336 -0.3173  0.1157  0.1987
 1250HK4    C34 4938   6.912   7.754  10.301 -0.3972 -0.0318 -0.2305
 1250HK4    C33 4939   6.877   7.825  10.422  0.0226 -0.3450  0.0773
 1250HK4    C35 4940   6.793   7.936  10.414  0.3817 -0.0672  0.1353
 1250HK4    H17 4941   6.755   7.993  10.500  0.4882 -0.4272  0.4214
 1250HK4    C36 4942   6.746   7.979  10.291 -0.3382 -0.9816  0.0897
 1250HK4    H18 4943   6.672   8.060  10.283  0.2428 -0.5817 -1.5682
 1250HK4    C37 4944   6.785   7.920  10.171  0.2561 -0.3683 -0.0211
 1250HK4    H19 4945   6.748   7.954  10.074  2.7219  0.6214 -0.6559
 1250HK4    C38 4946   6.872   7.812  10.181  0.0405 -0.6008 -0.6579
 1250HK4    H20 4947   6.910   7.772  10.087  2.3363 -2.5334  1.0304
 1250HK4    C14 4948   7.084   7.279  10.569  0.1045 -0.3449 -0.2884
 1250HK4     C9 4949   7.200   7.205  10.545  0.2274 -0.2495  0.0001
 1250HK4     C8 4950   7.204   7.067  10.576  0.2728 -0.2970 -0.2270
 1250HK4    C11 4951   7.090   7.009  10.629  0.6760 -0.4992  0.4127
 1250HK4     H4 4952   7.075   6.900  10.629 -2.7929 -0.0776 -1.0727
 1250HK4    C12 4953   6.985   7.090  10.671  0.4579 -0.2428 -0.6269
 1250HK4     H5 4954   6.891   7.046  10.709 -1.0724  1.7534 -1.9653
 1250HK4    C13 4955   6.987   7.228  10.657 -0.2725 -0.2290 -0.6323
 1250HK4     H6 4956   6.923   7.292  10.720 -1.9560 -0.0305 -2.5213
 1250HK4     C7 4957   7.331   6.990  10.579  0.0958 -0.5841 -0.0340
 1250HK4     O2 4958   7.324   6.871  10.550 -0.0219 -0.5927  0.0308
 1250HK4     C4 4959   7.456   7.069  10.583 -0.0840 -0.3059  0.1347
 1250HK4     C3 4960   7.571   6.994  10.602 -0.0161 -0.3819 -0.5751
 1250HK4     H3 4961   7.566   6.884  10.598  0.8067 -0.4202 -0.5740
 1250HK4     C2 4962   7.696   7.054  10.602 -0.4214  0.4606 -0.0248
 1250HK4     H2 4963   7.790   6.997  10.602  0.0238  1.1626  0.9934
 1250HK4     C1 4964   7.695   7.190  10.573  0.0409  0.5097  0.1841
 1250HK4     H1 4965   7.797   7.232  10.574  0.8781 -1.4031 -2.1588
 1250HK4     C6 4966   7.581   7.272  10.563 -0.2052  0.0804 -0.5187
 1250HK4     C5 4967   7.457   7.208  10.555 -0.0579 -0.3008  0.1701
 1250HK4    C10 4968   7.329   7.275  10.518  0.1084  0.0743  0.2753
 1250HK4     O1 4969   7.340   7.374  10.446  0.2280 -0.3698 -0.3234
 1250HK4    C16 4970   7.614   7.409  10.523  0.4364  0.1934  0.3966
 1250HK4    C15 4971   7.728   7.445  10.449 -0.1391  0.3111 -0.4349
 1250HK4     H7 4972   7.773   7.369  10.382 -2.3049 -1.9818  0.6220
 1250HK4    C20 4973   7.789   7.569  10.455  0.2276  0.1268 -0.3218
 1250HK4     H9 4974   7.898   7.570  10.447  0.2065 -0.1347 -0.6208
 1250HK4    C19 4975   7.729   7.663  10.538  0.1618 -0.4185  0.2451
 1250HK4    C18 4976   7.608   7.633  10.613 -0.1114  0.1763  0.0481
 1250HK4    C17 4977   7.561   7.502  10.612 -0.3645  0.2690 -0.1597
 1250HK4     H8 4978   7.498   7.477  10.698  0.3569 -1.2723 -0.0755
 1250HK4     N1 4979   7.568   7.743  10.691 -0.0510 -0.0475  0.3935
 1250HK4    C21 4980   7.666   7.844  10.679 -0.1904  0.0120 -0.2392
 1250HK4    C22 4981   7.763   7.797  10.582 -0.3154 -0.1178 -0.3032
 1250HK4    C26 4982   7.858   7.888  10.539 -0.4299  0.0827 -0.1298
 1250HK4    H13 4983   7.938   7.857  10.471  1.4314  1.3288  1.4252
 1250HK4    C25 4984   7.866   8.017  10.590  0.1247  0.0451 -0.1187
 1250HK4    H12 4985   7.952   8.079  10.562  1.3625 -1.7753 -0.4344
 1250HK4    C24 4986   7.771   8.063  10.679 -0.0755 -0.2667 -0.1700
 1250HK4    H11 4987   7.763   8.167  10.716 -0.6354 -0.8052  1.2773
 1250HK4    C23 4988   7.673   7.975  10.724  0.1277 -0.2152  0.3728
 1250HK4    H10 4989   7.590   8.023  10.776  0.0657  1.4961 -1.2466
 1250HK4    C39 4990   7.445   7.755  10.757 -0.0957 -0.1387  0.3289
 1250HK4    C41 4991   7.428   7.845  10.864  0.2723  0.2814  0.0347
 1250HK4    H21 4992   7.517   7.871  10.922  1.0523  0.2069 -1.1084
 1250HK4    C42 4993   7.303   7.879  10.914  0.1410  0.6159 -0.5205
 1250HK4    H22 4994   7.299   7.948  11.000 -0.4432 -0.0534 -0.0133
 1250HK4    C43 4995   7.185   7.831  10.858  0.0330  0.0512  0.2015
 1250HK4    H23 4996   7.096   7.893  10.866  0.2317  0.4107 -0.4048
 1250HK4    C44 4997   7.198   7.737  10.756 -0.3034  0.1507  0.0649
 1250HK4    H24 4998   7.100   7.707  10.716  0.1646 -1.2593 -0.0552
 1250HK4    C45 4999   7.323   7.702  10.709 -0.2204  0.2603  0.2077
 1250HK4    H25 5000   7.336   7.629  10.627 -1.3626  0.0640  0.1994
 1251HK4    H28 5001   2.786   0.620   2.251 -2.6751  0.0927 -0.0259
 1251HK4    C48 5002   2.784   0.583   2.353  0.2436  0.1104  0.0879
 1251HK4    C47 5003   2.670   0.600   2.433 -0.1939 -0.6664 -0.3693
 1251HK4    H27 5004   2.579   0.637   2.384 -1.7278 -0.0012  2.9204
 1251HK4    C46 5005   2.672   0.567   2.568  0.0908 -0.0144 -0.2125
 1251HK4    H26 5006   2.577   0.570   2.622  1.4861  2.5533  2.2259
 1251HK4    C40 5007   2.788   0.517   2.630  0.3503  1.2025  0.3077
 1251HK4    C50 5008   2.898   0.503   2.544  0.1779  0.1645  0.2425
 1251HK4    H30 5009   2.996   0.486   2.591  1.8068  1.2557 -2.6442
 1251HK4    C49 5010   2.900   0.530   2.407  0.1882  0.1394  0.2377
 1251HK4    H29 5011   3.003   0.539   2.370 -0.0564  1.7549 -0.0812
 1251HK4     N2 5012   2.791   0.491   2.768 -0.1907 -0.3267  0.0466
 1251HK4    C30 5013   2.703   0.540   2.866 -0.0640  0.5429 -0.2707
 1251HK4    C29 5014   2.634   0.660   2.874 -0.2739  0.4043  0.0083
 1251HK4    H15 5015   2.636   0.719   2.782 -0.2761 -2.6906 -2.0373
 1251HK4    C28 5016   2.555   0.688   2.986  0.1745  0.4166  0.3231
 1251HK4    C27 5017   2.542   0.598   3.093  0.1940 -0.3299 -0.2964
 1251HK4    H14 5018   2.466   0.610   3.172 -0.1317 -2.7150 -0.2048
 1251HK4    C32 5019   2.626   0.487   3.095  0.3435 -0.2114  0.1925
 1251HK4    H16 5020   2.633   0.422   3.182 -1.3912  0.1254  0.6019
 1251HK4    C31 5021   2.710   0.461   2.987  0.0843  0.6311 -0.2222
 1251HK4    C34 5022   2.812   0.360   2.962 -0.4635  0.0280 -0.0259
 1251HK4    C33 5023   2.856   0.379   2.825  0.3793  0.1090  0.2575
 1251HK4    C35 5024   2.956   0.292   2.782  0.3849  0.3586 -0.2358
 1251HK4    H17 5025   2.994   0.301   2.680 -1.9577 -1.9985 -1.3640
 1251HK4    C36 5026   2.997   0.187   2.863 -0.0539 -0.1324 -0.6490
 1251HK4    H18 5027   3.048   0.096   2.828  0.1191 -0.0639 -0.5707
 1251HK4    C37 5028   2.961   0.171   2.996 -1.0616 -0.5376 -0.9649
 1251HK4    H19 5029   3.014   0.095   3.054 -1.2888 -0.0542 -0.1216
 1251HK4    C38 5030   2.863   0.259   3.041  0.4693  0.6221  0.1364
 1251HK4    H20 5031   2.809   0.237   3.134 -0.7549 -1.4086 -1.0185
 1251HK4    C14 5032   2.522   0.829   3.013 -0.1688  0.3263  0.3677
 1251HK4     C9 5033   2.501   0.886   3.139 -0.3059  0.3101  0.3526
 1251HK4     C8 5034   2.423   1.003   3.148 -0.3431  0.3333 -0.2375
 1251HK4    C11 5035   2.376   1.072   3.037 -0.2758  0.1987 -0.3489
 1251HK4     H4 5036   2.310   1.159   3.049  0.3831  0.9504 -1.9799
 1251HK4    C12 5037   2.411   1.026   2.911 -0.6487 -0.3596 -0.2490
 1251HK4     H5 5038   2.369   1.068   2.819  1.7823  3.6621  0.3643
 1251HK4    C13 5039   2.479   0.904   2.902  0.0386 -0.0030  0.0607
 1251HK4     H6 5040   2.526   0.886   2.805  2.2797 -3.5372  1.7029
 1251HK4     C7 5041   2.392   1.058   3.282  0.4793  0.5990 -0.1543
 1251HK4     O2 5042   2.332   1.165   3.288 -0.2103  0.2169 -0.1272
 1251HK4     C4 5043   2.444   0.988   3.402  0.3828 -0.0391 -0.4788
 1251HK4     C3 5044   2.395   1.031   3.526 -0.0229 -0.2835 -0.5519
 1251HK4     H3 5045   2.333   1.121   3.535  0.7310  0.1472  0.3688
 1251HK4     C2 5046   2.434   0.965   3.642  0.6791  0.7289 -0.2069
 1251HK4     H2 5047   2.375   0.985   3.733 -0.4664  0.4239 -0.8630
 1251HK4     C1 5048   2.518   0.855   3.641 -0.2229  0.0271 -0.1671
 1251HK4     H1 5049   2.549   0.806   3.734 -1.0720  1.0566  0.6736
 1251HK4     C6 5050   2.566   0.807   3.517  0.6078 -0.0651  0.1842
 1251HK4     C5 5051   2.529   0.876   3.401  0.5312  0.0623  0.2847
 1251HK4    C10 5052   2.569   0.839   3.263  0.0379  0.1696  0.1096
 1251HK4     O1 5053   2.691   0.832   3.254 -0.0104  0.4488 -0.8114
 1251HK4    C16 5054   2.605   0.666   3.525  0.1822 -0.1749  0.3610
 1251HK4    C15 5055   2.527   0.580   3.604 -0.0573 -0.0621  0.2460
 1251HK4     H7 5056   2.426   0.615   3.633  0.8347 -0.6602  4.4570
 1251HK4    C20 5057   2.561   0.451   3.643  0.0585 -0.1094 -0.0174
 1251HK4     H9 5058   2.502   0.398   3.718 -1.2787  1.0031 -0.2637
 1251HK4    C19 5059   2.678   0.403   3.585 -0.0310 -0.0524 -0.2490
 1251HK4    C18 5060   2.768   0.486   3.507 -0.0229 -0.1843 -0.3793
 1251HK4    C17 5061   2.729   0.618   3.484  0.5128  0.2050  0.9089
 1251HK4     H8 5062   2.795   0.688   3.432  1.9264 -2.4049 -0.9233
 1251HK4     N1 5063   2.885   0.412   3.482  0.2006  0.0310  0.0317
 1251HK4    C21 5064   2.874   0.285   3.541  0.0097  0.1391  0.2291
 1251HK4    C22 5065   2.748   0.279   3.613 -0.1139 -0.0430 -0.0010
 1251HK4    C26 5066   2.703   0.163   3.675  0.0691 -0.0276  0.1609
 1251HK4    H13 5067   2.608   0.155   3.729  0.2613 -2.4561  0.1912
 1251HK4    C25 5068   2.780   0.048   3.662 -0.0747 -0.0198 -0.7750
 1251HK4    H12 5069   2.751  11.207   3.718 -0.5476  0.1522 -0.7513
 1251HK4    C24 5070   2.904   0.047   3.598  0.4437  0.0834  0.2098
 1251HK4    H11 5071   2.976  11.221   3.636 -0.3262 -0.4051  0.7529
 1251HK4    C23 5072   2.944   0.165   3.537  0.0889  0.1879  0.1747
 1251HK4    H10 5073   3.039   0.150   3.485 -1.7702 -1.1511 -2.9378
 1251HK4    C39 5074   2.983   0.457   3.393 -0.0389 -0.2676 -0.3843
 1251HK4    C41 5075   3.116   0.411   3.407  0.0108  0.0916  0.3649
 1251HK4    H21 5076   3.144   0.352   3.495  0.4733 -0.4942 -0.1662
 1251HK4    C42 5077   3.206   0.423   3.302 -0.5036 -0.2096 -0.1154
 1251HK4    H22 5078   3.310   0.390   3.318  0.5491  2.4821 -1.2293
 1251HK4    C43 5079   3.167   0.487   3.185  0.3843  0.0752 -0.2642
 1251HK4    H23 5080   3.234   0.492   3.100 -0.2271  1.6572 -0.6540
 1251HK4    C44 5081   3.037   0.532   3.164  0.4150  0.3149  0.0605
 1251HK4    H24 5082   3.003   0.571   3.067  2.0044  1.6182 -0.0081
 1251HK4    C45 5083   2.948   0.515   3.270  0.0004 -0.2323 -0.3785
 1251HK4    H25 5084   2.841   0.521   3.243  0.2692  0.6572 -1.2735
 1252HK4    H28 5085   1.382   5.574   7.100 -2.0349 -0.4281  1.2522
 1252HK4    C48 5086   1.458   5.511   7.147 -0.3771  0.2011 -0.5325
 1252HK4    C47 5087   1.580   5.492   7.084 -0.0145 -0.0358  0.2396
 1252HK4    H27 5088   1.592   5.527   6.981  0.8714 -0.4799  0.1865
 1252HK4    C46 5089   1.681   5.427   7.154 -0.1647 -0.8100 -0.2522
 1252HK4    H26 5090   1.776   5.422   7.099 -0.5005 -1.3656 -0.7810
 1252HK4    C40 5091   1.671   5.373   7.284 -0.5569 -0.2599 -0.0503
 1252HK4    C50 5092   1.550   5.410   7.345 -0.7236 -0.5794 -0.1857
 1252HK4    H30 5093   1.531   5.381   7.450  1.1360  0.9015  0.5960
 1252HK4    C49 5094   1.446   5.477   7.281  0.1414  0.5964 -0.3826
 1252HK4    H29 5095   1.372   5.521   7.349 -0.0583  1.4360 -1.1393
 1252HK4     N2 5096   1.728   5.253   7.329 -0.4644 -0.1341  0.1710
 1252HK4    C30 5097   1.760   5.149   7.239 -0.5185 -0.2899  0.3312
 1252HK4    C29 5098   1.691   5.101   7.129  0.0603 -0.4874  0.0600
 1252HK4    H15 5099   1.584   5.123   7.124  0.2188  0.3311  0.2177
 1252HK4    C28 5100   1.741   5.001   7.046  0.1637 -0.1388 -0.2988
 1252HK4    C27 5101   1.858   4.934   7.089  0.4185  0.3053 -0.2962
 1252HK4    H14 5102   1.909   4.861   7.025 -1.8027 -1.2953 -0.2911
 1252HK4    C32 5103   1.914   4.962   7.213 -0.1080  0.3383 -0.0605
 1252HK4    H16 5104   1.972   4.882   7.259 -1.5102 -1.3040 -1.0906
 1252HK4    C31 5105   1.872   5.071   7.288 -0.1262  0.1692  0.1745
 1252HK4    C34 5106   1.905   5.121   7.419  0.1906 -0.6252  0.3985
 1252HK4    C33 5107   1.811   5.229   7.440  0.2195 -0.4417 -0.4030
 1252HK4    C35 5108   1.820   5.302   7.559 -0.6880 -0.8439 -0.0847
 1252HK4    H17 5109   1.771   5.400   7.555  1.2411  0.2036  1.5572
 1252HK4    C36 5110   1.916   5.272   7.653  0.1033  0.2597 -0.5282
 1252HK4    H18 5111   1.925   5.336   7.742  0.5819 -0.8251  0.2185
 1252HK4    C37 5112   2.000   5.162   7.637  0.0216  0.1226 -0.0180
 1252HK4    H19 5113   2.088   5.152   7.701 -0.9103  1.9884  1.6225
 1252HK4    C38 5114   1.994   5.087   7.521  0.4747 -0.3346  0.2475
 1252HK4    H20 5115   2.025   4.982   7.523 -0.8382 -0.7392 -0.0970
 1252HK4    C14 5116   1.671   4.970   6.920 -0.0866 -0.4497 -0.0829
 1252HK4     C9 5117   1.708   4.862   6.841  0.4183 -0.2911 -0.0664
 1252HK4     C8 5118   1.681   4.861   6.702  0.4043  0.0851 -0.0662
 1252HK4    C11 5119   1.613   4.970   6.649  0.0418 -0.1935 -0.1700
 1252HK4     H4 5120   1.598   4.976   6.540 -1.3350 -2.4304 -0.1541
 1252HK4    C12 5121   1.563   5.074   6.727  0.5778 -0.1786  0.1558
 1252HK4     H5 5122   1.496   5.148   6.681 -1.7939 -1.4356  1.4924
 1252HK4    C13 5123   1.590   5.071   6.863 -0.3147 -0.3945  0.3338
 1252HK4     H6 5124   1.551   5.148   6.931  0.3359 -2.9623  3.8008
 1252HK4     C7 5125   1.749   4.762   6.616  0.3392  0.0680 -0.0962
 1252HK4     O2 5126   1.737   4.769   6.494 -0.0778 -0.0170 -0.0595
 1252HK4     C4 5127   1.828   4.652   6.675 -0.2018 -0.3677 -0.1736
 1252HK4     C3 5128   1.897   4.563   6.594 -0.3372 -0.3112 -0.3486
 1252HK4     H3 5129   1.883   4.564   6.485  1.5287  0.9950 -0.5959
 1252HK4     C2 5130   1.979   4.459   6.635  0.5887  0.5744  0.0577
 1252HK4     H2 5131   2.023   4.394   6.558 -2.7694  0.1717 -1.5929
 1252HK4     C1 5132   1.987   4.446   6.774 -0.1582  0.0536  0.0507
 1252HK4     H1 5133   2.078   4.397   6.810  0.5155  0.4107 -1.1539
 1252HK4     C6 5134   1.909   4.524   6.862  0.2605  0.3564  0.1510
 1252HK4     C5 5135   1.833   4.631   6.814 -0.0906 -0.0126 -0.1225
 1252HK4    C10 5136   1.758   4.732   6.895 -0.2265 -0.4066  0.2496
 1252HK4     O1 5137   1.702   4.691   6.996  0.1275 -0.5825  0.3764
 1252HK4    C16 5138   1.947   4.516   7.004  0.2145  0.2083  0.1549
 1252HK4    C15 5139   2.083   4.517   7.040  0.2878  0.1525 -0.1182
 1252HK4     H7 5140   2.154   4.564   6.970 -1.7731  3.5831 -0.0116
 1252HK4    C20 5141   2.128   4.466   7.161  0.0323  0.0753 -0.0573
 1252HK4     H9 5142   2.232   4.436   7.177 -1.1022 -3.9238  0.4284
 1252HK4    C19 5143   2.036   4.413   7.252  0.0363  0.0410 -0.0726
 1252HK4    C18 5144   1.895   4.421   7.221  0.0634  0.4814 -0.0840
 1252HK4    C17 5145   1.856   4.462   7.094 -0.0415  0.0885 -0.1765
 1252HK4     H8 5146   1.757   4.436   7.055  0.5290 -2.2741 -0.1601
 1252HK4     N1 5147   1.808   4.375   7.322 -0.0475  0.0296 -0.3872
 1252HK4    C21 5148   1.899   4.336   7.422  0.0612  0.3836 -0.3488
 1252HK4    C22 5149   2.038   4.352   7.383  0.1711 -0.5610 -0.3555
 1252HK4    C26 5150   2.145   4.334   7.469  0.1817  0.8869 -0.0535
 1252HK4    H13 5151   2.250   4.337   7.440 -0.0086 -0.1178 -0.8801
 1252HK4    C25 5152   2.111   4.299   7.599  0.1062 -0.6331 -0.4739
 1252HK4    H12 5153   2.185   4.304   7.679 -0.0683 -1.4533 -0.2543
 1252HK4    C24 5154   1.981   4.277   7.642  0.1754 -0.1727 -0.0205
 1252HK4    H11 5155   1.966   4.247   7.746  0.2562 -1.1814 -0.2969
 1252HK4    C23 5156   1.875   4.294   7.553  0.4428  0.6820 -0.1804
 1252HK4    H10 5157   1.778   4.257   7.585  1.0780 -0.5765  0.3243
 1252HK4    C39 5158   1.674   4.414   7.332  0.1208  0.4756  0.1281
 1252HK4    C41 5159   1.589   4.333   7.410 -0.1230  0.0600 -0.5626
 1252HK4    H21 5160   1.602   4.225   7.421  0.6297  0.2879  0.8842
 1252HK4    C42 5161   1.481   4.387   7.478  0.2530  0.3236 -0.1674
 1252HK4    H22 5162   1.419   4.330   7.549  0.4074 -0.4090 -0.6142
 1252HK4    C43 5163   1.439   4.517   7.450 -0.4424  0.0757 -0.2856
 1252HK4    H23 5164   1.353   4.564   7.497 -0.3087 -0.2054  0.2440
 1252HK4    C44 5165   1.523   4.595   7.373  0.0928  0.0185  0.2407
 1252HK4    H24 5166   1.499   4.703   7.374 -1.2490 -0.2531 -1.0166
 1252HK4    C45 5167   1.641   4.550   7.315  0.1428  0.4636 -0.0084
 1252HK4    H25 5168   1.708   4.619   7.260  1.5347 -0.7540  0.1311
 1253HK4    H28 5169   5.630   9.932   1.324 -1.0113  0.7460  0.2821
 1253HK4    C48 5170   5.583   9.866   1.397 -0.0198 -0.1722  0.1174
 1253HK4    C47 5171   5.458   9.811   1.373 -0.1650  0.2778 -0.1673
 1253HK4    H27 5172   5.396   9.848   1.290 -0.7187  0.4899  0.3349
 1253HK4    C46 5173   5.406   9.723   1.467  0.5370 -0.1382 -0.1654
 1253HK4    H26 5174   5.301   9.689   1.462  0.8167 -1.3139  1.5111
 1253HK4    C40 5175   5.483   9.692   1.581 -0.3809  0.4653  0.6336
 1253HK4    C50 5176   5.613   9.745   1.598 -0.1633  0.1378  0.0144
 1253HK4    H30 5177   5.668   9.726   1.691 -0.2663  0.1716  0.0825
 1253HK4    C49 5178   5.665   9.834   1.505  0.4295 -0.5815 -0.3492
 1253HK4    H29 5179   5.739   9.906   1.543 -0.5076 -0.8465  2.0505
 1253HK4     N2 5180   5.442   9.601   1.679 -0.1461 -0.1429  0.1737
 1253HK4    C30 5181   5.372   9.481   1.656  0.2737 -0.3297 -0.1303
 1253HK4    C29 5182   5.323   9.424   1.539  0.2229  0.1648 -0.3527
 1253HK4    H15 5183   5.362   9.464   1.446 -0.2463  1.5091  0.0285
 1253HK4    C28 5184   5.254   9.304   1.526  0.2129  0.1337 -0.0469
 1253HK4    C27 5185   5.249   9.238   1.650 -0.4702  0.3223  0.0310
 1253HK4    H14 5186   5.227   9.130   1.652  1.5748 -0.1131  0.1447
 1253HK4    C32 5187   5.280   9.291   1.775  0.2224  0.1337 -0.0557
 1253HK4    H16 5188   5.243   9.240   1.864 -1.0637 -0.8882 -1.1564
 1253HK4    C31 5189   5.335   9.418   1.782 -0.0717  0.2584  0.0635
 1253HK4    C34 5190   5.390   9.507   1.882 -0.7023  0.4741  0.2197
 1253HK4    C33 5191   5.454   9.620   1.819 -0.6702  0.4168  0.1451
 1253HK4    C35 5192   5.487   9.733   1.893  0.3680  0.2741 -0.0820
 1253HK4    H17 5193   5.522   9.825   1.846 -0.2962  0.4599 -0.2261
 1253HK4    C36 5194   5.452   9.738   2.027  0.0012 -0.1733 -0.1578
 1253HK4    H18 5195   5.460   9.832   2.084  0.2020  0.6203 -1.4737
 1253HK4    C37 5196   5.388   9.633   2.091  0.0317  0.0457  0.2360
 1253HK4    H19 5197   5.343   9.645   2.189  0.0595 -0.0739  0.2647
 1253HK4    C38 5198   5.363   9.517   2.018 -1.4958  0.4720  0.0644
 1253HK4    H20 5199   5.315   9.432   2.066 -0.7971 -0.1751 -0.3604
 1253HK4    C14 5200   5.153   9.286   1.420  0.0401  0.1707  0.1111
 1253HK4     C9 5201   5.022   9.237   1.426  0.1916 -0.1967  0.4989
 1253HK4     C8 5202   4.968   9.150   1.329  0.0789 -0.2609  0.6233
 1253HK4    C11 5203   5.054   9.122   1.224 -0.1841  0.3891  0.2350
 1253HK4     H4 5204   5.030   9.047   1.147  1.6205 -0.0807  0.0923
 1253HK4    C12 5205   5.181   9.178   1.209 -0.0758  0.0623 -0.0558
 1253HK4     H5 5206   5.240   9.151   1.120  1.4707  1.6333  0.4709
 1253HK4    C13 5207   5.228   9.269   1.302 -0.3563  0.3150 -0.1610
 1253HK4     H6 5208   5.314   9.334   1.279 -0.0816  0.1978  0.5239
 1253HK4     C7 5209   4.844   9.074   1.357 -0.4411  0.3589  0.0055
 1253HK4     O2 5210   4.787   9.007   1.271  0.0804  0.1636 -0.1814
 1253HK4     C4 5211   4.789   9.078   1.494 -0.0873 -0.0777  0.1589
 1253HK4     C3 5212   4.691   8.985   1.527 -0.5970  0.3596 -0.1126
 1253HK4     H3 5213   4.678   8.892   1.469  2.0100 -0.3766  0.4275
 1253HK4     C2 5214   4.653   8.971   1.660 -0.3036 -0.3697 -0.0990
 1253HK4     H2 5215   4.579   8.895   1.689 -1.8131  0.5738 -1.3518
 1253HK4     C1 5216   4.722   9.047   1.753 -0.2963 -0.0247 -0.3828
 1253HK4     H1 5217   4.698   9.016   1.856 -1.8234 -2.2689 -1.3660
 1253HK4     C6 5218   4.814   9.150   1.725  0.0459 -0.2188  0.0166
 1253HK4     C5 5219   4.839   9.169   1.589 -0.1604  0.0992  0.0243
 1253HK4    C10 5220   4.947   9.266   1.551 -0.1103  0.1274  0.2440
 1253HK4     O1 5221   4.933   9.384   1.582 -0.2161  0.1619  0.0675
 1253HK4    C16 5222   4.909   9.186   1.832  0.3360 -0.1682 -0.2553
 1253HK4    C15 5223   4.970   9.081   1.903  0.3081  0.0429  0.0762
 1253HK4     H7 5224   4.990   8.986   1.851 -0.0863 -0.2853  0.5243
 1253HK4    C20 5225   5.044   9.108   2.018 -0.1360  0.0292  0.3628
 1253HK4     H9 5226   5.112   9.036   2.063  1.5175  0.7213 -0.9714
 1253HK4    C19 5227   5.045   9.236   2.073  0.0777  0.0051  0.4121
 1253HK4    C18 5228   4.977   9.342   2.001 -0.0927 -0.2966  0.1261
 1253HK4    C17 5229   4.913   9.315   1.881  0.0834 -0.2672  0.0244
 1253HK4     H8 5230   4.854   9.385   1.821  0.9080  1.0723  0.7435
 1253HK4     N1 5231   4.972   9.465   2.071 -0.0673 -0.1252 -0.1732
 1253HK4    C21 5232   5.037   9.437   2.194  0.1050  0.3049 -0.1644
 1253HK4    C22 5233   5.080   9.298   2.199  0.9044  0.5560 -0.0809
 1253HK4    C26 5234   5.156   9.248   2.304  0.4183 -0.2931 -0.1294
 1253HK4    H13 5235   5.206   9.151   2.306 -0.0798 -0.5884 -1.4292
 1253HK4    C25 5236   5.187   9.335   2.408  0.3775  0.2783 -0.5885
 1253HK4    H12 5237   5.261   9.308   2.483 -0.9933 -1.2557  0.2636
 1253HK4    C24 5238   5.149   9.468   2.405  0.0485  0.2153  0.3294
 1253HK4    H11 5239   5.159   9.531   2.494  3.9347 -1.1288  0.9317
 1253HK4    C23 5240   5.080   9.521   2.296 -0.2768 -0.1350  0.3661
 1253HK4    H10 5241   5.053   9.626   2.304  0.7509  0.2647 -0.9867
 1253HK4    C39 5242   4.968   9.592   2.014 -0.0329  0.0890  0.2980
 1253HK4    C41 5243   4.924   9.707   2.085 -0.1334  0.3685 -0.2125
 1253HK4    H21 5244   4.896   9.687   2.189  2.2178  0.8541  0.5482
 1253HK4    C42 5245   4.920   9.831   2.023  0.1250  0.3259 -0.3141
 1253HK4    H22 5246   4.876   9.920   2.070 -0.4255  0.9546 -1.9875
 1253HK4    C43 5247   4.948   9.852   1.888  0.5019 -0.4687 -0.3608
 1253HK4    H23 5248   4.972   9.955   1.861 -1.1525  0.1211  0.3714
 1253HK4    C44 5249   4.984   9.740   1.814 -0.5903 -0.8074 -0.3837
 1253HK4    H24 5250   4.982   9.747   1.704 -1.6849 -1.5512 -0.4228
 1253HK4    C45 5251   4.998   9.618   1.879 -0.1587 -0.4665  0.1651
 1253HK4    H25 5252   5.060   9.540   1.830  1.0713  0.1697  0.6906
 1254HK4    H28 5253  10.005   8.095   9.609  2.1516 -1.2460  4.7773
 1254HK4    C48 5254   9.933   8.164   9.653 -0.0853 -0.2559 -0.0877
 1254HK4    C47 5255   9.825   8.217   9.582 -0.4943 -0.8126  0.1190
 1254HK4    H27 5256   9.840   8.226   9.474  0.7235 -0.3784  0.3122
 1254HK4    C46 5257   9.729   8.296   9.645  0.0043 -0.0737 -0.0386
 1254HK4    H26 5258   9.667   8.360   9.581 -1.8361 -0.5825  1.1985
 1254HK4    C40 5259   9.730   8.313   9.785 -0.2756 -0.3950  0.0085
 1254HK4    C50 5260   9.844   8.261   9.850 -0.2368 -0.4398 -0.1026
 1254HK4    H30 5261   9.854   8.276   9.958 -0.2987 -0.2706 -0.1178
 1254HK4    C49 5262   9.947   8.190   9.789  0.1284  0.1511 -0.1842
 1254HK4    H29 5263  10.034   8.153   9.845  1.2380  0.9907 -1.3310
 1254HK4     N2 5264   9.610   8.337   9.852 -0.2393  0.0759 -0.0902
 1254HK4    C30 5265   9.485   8.294   9.803 -0.1444 -0.7656  0.3945
 1254HK4    C29 5266   9.456   8.193   9.712  0.1423  0.1871 -0.7706
 1254HK4    H15 5267   9.536   8.138   9.662 -0.0912 -2.0362  1.2024
 1254HK4    C28 5268   9.326   8.169   9.668 -0.0676  0.5532 -0.3496
 1254HK4    C27 5269   9.221   8.243   9.728 -0.1661  0.0011  0.1659
 1254HK4    H14 5270   9.121   8.221   9.689 -0.8183 -2.2085  2.9165
 1254HK4    C32 5271   9.249   8.337   9.827  0.2516  0.0559 -0.0028
 1254HK4    H16 5272   9.160   8.375   9.876  0.6527 -0.8565  1.4683
 1254HK4    C31 5273   9.378   8.369   9.866  0.2273 -0.0387  0.1619
 1254HK4    C34 5274   9.443   8.463   9.955 -0.1140  0.8567 -0.5239
 1254HK4    C33 5275   9.586   8.444   9.941 -0.1724  0.3707 -0.4215
 1254HK4    C35 5276   9.673   8.531  10.007 -0.4607  0.6188 -0.3662
 1254HK4    H17 5277   9.776   8.512  10.036 -1.2692 -0.8337  1.6741
 1254HK4    C36 5278   9.619   8.636  10.080  0.0861  0.8009 -0.2289
 1254HK4    H18 5279   9.691   8.712  10.115 -0.4139  0.6486  1.1376
 1254HK4    C37 5280   9.483   8.654  10.098  0.0288 -0.3147  0.4825
 1254HK4    H19 5281   9.447   8.729  10.168 -1.5547  1.4346 -2.1155
 1254HK4    C38 5282   9.397   8.559  10.044 -0.1204 -0.3672  0.8143
 1254HK4    H20 5283   9.295   8.550  10.083 -0.1397 -1.2105  0.5621
 1254HK4    C14 5284   9.302   8.103   9.539 -0.1682  0.0446 -0.0739
 1254HK4     C9 5285   9.207   8.132   9.440  0.0092  0.1006 -0.2288
 1254HK4     C8 5286   9.147   8.034   9.358 -0.0419  0.1364 -0.2360
 1254HK4    C11 5287   9.201   7.907   9.372 -0.2292  0.0879  0.0467
 1254HK4     H4 5288   9.142   7.819   9.344  0.3076  0.2020 -1.4648
 1254HK4    C12 5289   9.314   7.879   9.448  0.0066  0.1666 -0.2754
 1254HK4     H5 5290   9.362   7.782   9.427 -1.0065 -0.1384 -1.2316
 1254HK4    C13 5291   9.365   7.977   9.532  0.0985  0.1936 -0.3609
 1254HK4     H6 5292   9.464   7.961   9.578 -0.2699 -1.8696 -0.2620
 1254HK4     C7 5293   9.049   8.058   9.249  0.2234  0.3798 -0.4203
 1254HK4     O2 5294   9.006   7.970   9.175  0.3404 -0.3915  0.4151
 1254HK4     C4 5295   8.997   8.196   9.239 -0.4013  0.2026  0.3678
 1254HK4     C3 5296   8.925   8.241   9.129  0.2953  0.0706 -0.1452
 1254HK4     H3 5297   8.851   8.174   9.082  0.6883 -1.3139  1.1771
 1254HK4     C2 5298   8.909   8.376   9.099  0.0781  0.0543 -0.1064
 1254HK4     H2 5299   8.886   8.401   8.994 -1.9976 -0.6375  0.1445
 1254HK4     C1 5300   8.939   8.469   9.198 -0.0780 -0.1703  0.1506
 1254HK4     H1 5301   8.918   8.576   9.194  1.0353  0.0365 -0.3602
 1254HK4     C6 5302   8.986   8.423   9.323  0.3809 -0.0026  0.0395
 1254HK4     C5 5303   9.036   8.293   9.334  0.6030  0.0821  0.0776
 1254HK4    C10 5304   9.154   8.270   9.421  0.5273  0.3685  0.2542
 1254HK4     O1 5305   9.231   8.366   9.423  0.2455  0.6238 -0.9015
 1254HK4    C16 5306   8.908   8.478   9.435  0.0013  0.1996 -0.3252
 1254HK4    C15 5307   8.963   8.468   9.564 -0.2753  0.1830 -0.2066
 1254HK4     H7 5308   9.060   8.423   9.593  0.4402  2.0119  0.2693
 1254HK4    C20 5309   8.902   8.517   9.679 -0.6755 -0.3208 -0.2047
 1254HK4     H9 5310   8.948   8.504   9.777  0.5608 -0.5658 -0.7952
 1254HK4    C19 5311   8.778   8.576   9.663 -0.8369 -0.4491  0.5637
 1254HK4    C18 5312   8.715   8.589   9.533 -0.0859  0.1159  0.2549
 1254HK4    C17 5313   8.781   8.533   9.424 -0.2331 -0.2090  0.3316
 1254HK4     H8 5314   8.718   8.513   9.337 -1.0545  0.0404  0.8614
 1254HK4     N1 5315   8.606   8.677   9.543 -0.2792 -0.0861 -0.0674
 1254HK4    C21 5316   8.586   8.713   9.678 -0.3497 -0.2466 -0.0374
 1254HK4    C22 5317   8.699   8.660   9.752 -0.4358  0.1412  0.3695
 1254HK4    C26 5318   8.698   8.668   9.891  0.0429  0.1987  0.3718
 1254HK4    H13 5319   8.779   8.627   9.951  0.7482  2.4939  1.0241
 1254HK4    C25 5320   8.591   8.724   9.959 -0.0300 -0.0863  0.4941
 1254HK4    H12 5321   8.589   8.736  10.068 -0.1833 -0.2822  0.5122
 1254HK4    C24 5322   8.484   8.780   9.889  0.1234 -0.0519  0.2882
 1254HK4    H11 5323   8.398   8.823   9.941  0.4840 -0.5663  1.3162
 1254HK4    C23 5324   8.488   8.778   9.750  0.0927  0.0698  0.2849
 1254HK4    H10 5325   8.413   8.835   9.694 -0.9515 -0.0455  1.5341
 1254HK4    C39 5326   8.553   8.743   9.431  0.1193  0.1768 -0.0999
 1254HK4    C41 5327   8.422   8.795   9.421  0.0141 -0.0949 -0.1384
 1254HK4    H21 5328   8.351   8.765   9.499  0.9684 -2.5685 -0.1686
 1254HK4    C42 5329   8.381   8.882   9.321 -0.0560 -0.1145 -0.1261
 1254HK4    H22 5330   8.286   8.935   9.337  0.6852  1.2462 -0.1294
 1254HK4    C43 5331   8.465   8.918   9.216 -0.3530 -0.0720 -0.3523
 1254HK4    H23 5332   8.439   8.989   9.137  0.4866 -0.3126 -0.8529
 1254HK4    C44 5333   8.596   8.871   9.225 -0.4332 -0.1888  0.2021
 1254HK4    H24 5334   8.669   8.891   9.145 -0.3850 -1.5037 -0.0966
 1254HK4    C45 5335   8.639   8.792   9.331  0.2938 -0.3096 -0.1846
 1254HK4    H25 5336   8.748   8.781   9.336  0.2935  0.0640  0.5916
 1255HK4    H28 5337   8.147   5.087   8.637  1.5753  0.5667 -0.3798
 1255HK4    C48 5338   8.132   5.018   8.554  0.1839  0.2283  0.1346
 1255HK4    C47 5339   8.241   4.939   8.518  0.1415  0.3534 -0.2696
 1255HK4    H27 5340   8.327   4.935   8.587  0.6712 -1.9991 -1.0110
 1255HK4    C46 5341   8.242   4.857   8.406  0.2263  0.0135 -0.0223
 1255HK4    H26 5342   8.335   4.817   8.364  0.2099 -0.7689  0.6912
 1255HK4    C40 5343   8.119   4.839   8.338  0.1378 -0.0155  0.1464
 1255HK4    C50 5344   8.006   4.906   8.387  0.1597  0.4691 -0.4725
 1255HK4    H30 5345   7.905   4.881   8.349 -0.4978  0.5906  1.1460
 1255HK4    C49 5346   8.011   5.002   8.488  0.3413  0.0931 -0.1259
 1255HK4    H29 5347   7.930   5.060   8.533  0.1100 -0.7475  0.5581
 1255HK4     N2 5348   8.113   4.785   8.209 -0.1453 -0.1367  0.2127
 1255HK4    C30 5349   8.221   4.789   8.118 -0.0637 -0.0173  0.3126
 1255HK4    C29 5350   8.316   4.887   8.094  0.4213 -0.5888 -0.0912
 1255HK4    H15 5351   8.313   4.981   8.148  0.0644 -0.8150  0.2797
 1255HK4    C28 5352   8.418   4.871   8.000  0.7093 -0.2213  0.1563
 1255HK4    C27 5353   8.418   4.751   7.926  0.0918 -0.1609  0.0567
 1255HK4    H14 5354   8.496   4.726   7.853  1.1335 -1.6269  1.6654
 1255HK4    C32 5355   8.318   4.655   7.937  0.1154 -0.2058 -0.1244
 1255HK4    H16 5356   8.330   4.561   7.883 -1.0692 -0.5364  0.1584
 1255HK4    C31 5357   8.214   4.676   8.027  0.1608  0.3916 -0.2103
 1255HK4    C34 5358   8.092   4.603   8.055  0.6189 -0.3852 -0.2274
 1255HK4    C33 5359   8.036   4.674   8.169  0.4859 -0.4000 -0.2850
 1255HK4    C35 5360   7.914   4.633   8.221  0.4500 -0.3280 -0.3154
 1255HK4    H17 5361   7.882   4.660   8.322 -2.5662 -1.0804 -1.0329
 1255HK4    C36 5362   7.851   4.521   8.168 -0.8345  0.3623 -0.2637
 1255HK4    H18 5363   7.751   4.500   8.209 -0.3216 -0.2234  0.7176
 1255HK4    C37 5364   7.902   4.456   8.057 -0.2844  0.3239  0.0114
 1255HK4    H19 5365   7.840   4.386   8.001  1.2915 -1.8111  0.8239
 1255HK4    C38 5366   8.023   4.496   8.001 -0.2284  0.0594 -0.0516
 1255HK4    H20 5367   8.074   4.425   7.935  1.9168  1.4258  0.1088
 1255HK4    C14 5368   8.479   4.991   7.940  0.3686 -0.2230 -0.1966
 1255HK4     C9 5369   8.526   5.003   7.809  0.5539 -0.2277 -0.1309
 1255HK4     C8 5370   8.628   5.093   7.771 -0.0552  0.3211 -0.4778
 1255HK4    C11 5371   8.673   5.177   7.872  0.5967 -0.0755 -0.4403
 1255HK4     H4 5372   8.766   5.234   7.853 -0.8381  2.1448 -1.0246
 1255HK4    C12 5373   8.621   5.183   8.001  0.1869 -0.0426 -0.6050
 1255HK4     H5 5374   8.670   5.223   8.090 -1.0244  1.9150 -0.7901
 1255HK4    C13 5375   8.530   5.083   8.033  0.8386 -0.4991 -0.1776
 1255HK4     H6 5376   8.521   5.058   8.140 -0.3859 -0.3669 -0.2476
 1255HK4     C7 5377   8.689   5.087   7.636 -0.7443  0.2221 -0.7878
 1255HK4     O2 5378   8.745   5.188   7.593  0.3552 -0.3445 -0.6937
 1255HK4     C4 5379   8.645   4.983   7.541  0.3106 -0.4973 -0.4891
 1255HK4     C3 5380   8.728   4.954   7.433  0.5269  0.2115 -0.5166
 1255HK4     H3 5381   8.833   4.984   7.419  0.8098 -1.1265 -1.3024
 1255HK4     C2 5382   8.676   4.874   7.331 -0.2695  0.2009 -0.1062
 1255HK4     H2 5383   8.744   4.834   7.255  0.0156 -0.3373  0.4251
 1255HK4     C1 5384   8.548   4.821   7.341 -0.5149  0.7859 -0.1209
 1255HK4     H1 5385   8.510   4.753   7.263 -1.0710  0.1117  0.7224
 1255HK4     C6 5386   8.467   4.850   7.453  0.2339 -0.7731  0.8443
 1255HK4     C5 5387   8.513   4.935   7.554  0.1274  0.1736  0.1048
 1255HK4    C10 5388   8.454   4.948   7.690 -0.1413  0.4513 -0.0362
 1255HK4     O1 5389   8.332   4.936   7.706 -0.0075 -0.6057  0.2574
 1255HK4    C16 5390   8.349   4.763   7.461 -0.0935 -0.3929  0.1549
 1255HK4    C15 5391   8.351   4.637   7.398  0.8200 -0.4036  0.2016
 1255HK4     H7 5392   8.450   4.590   7.406  1.0076  0.1528  1.2952
 1255HK4    C20 5393   8.238   4.576   7.345  0.2333  0.6192  0.2863
 1255HK4     H9 5394   8.244   4.475   7.306  1.0466  0.7503  0.0752
 1255HK4    C19 5395   8.114   4.640   7.345  0.1103  0.3858  0.2919
 1255HK4    C18 5396   8.113   4.768   7.413 -0.0413  0.4758  0.1188
 1255HK4    C17 5397   8.227   4.829   7.464  0.1909  0.1429  0.0008
 1255HK4     H8 5398   8.224   4.937   7.479 -2.0633  0.2589 -1.1205
 1255HK4     N1 5399   7.981   4.817   7.426 -0.2265  0.1043 -0.3657
 1255HK4    C21 5400   7.899   4.726   7.356 -0.3151 -0.2630  0.2107
 1255HK4    C22 5401   7.978   4.616   7.303  0.1258 -0.0930  0.5095
 1255HK4    C26 5402   7.922   4.527   7.212  0.3256  0.1845  0.1144
 1255HK4    H13 5403   7.983   4.454   7.158 -0.9488 -0.8489  0.0461
 1255HK4    C25 5404   7.794   4.555   7.164  0.1920 -0.1696  0.2679
 1255HK4    H12 5405   7.775   4.504   7.070  1.8026 -0.4083  0.0441
 1255HK4    C24 5406   7.719   4.660   7.215 -0.3294 -0.3207 -0.1885
 1255HK4    H11 5407   7.612   4.678   7.196 -0.5654  0.5557  1.8455
 1255HK4    C23 5408   7.768   4.745   7.313 -0.2907 -0.5668  0.0037
 1255HK4    H10 5409   7.700   4.824   7.343  0.1933 -0.5412  1.0864
 1255HK4    C39 5410   7.934   4.892   7.535 -0.2433 -0.1487 -0.1954
 1255HK4    C41 5411   7.813   4.963   7.525 -0.1107  0.0777 -0.2074
 1255HK4    H21 5412   7.778   4.994   7.425  2.1448 -1.3088 -1.4582
 1255HK4    C42 5413   7.744   5.016   7.634 -0.5347 -0.4663 -0.2059
 1255HK4    H22 5414   7.641   5.052   7.626 -0.5282  0.2447  2.5350
 1255HK4    C43 5415   7.796   4.996   7.761  0.1522 -0.1922 -0.4425
 1255HK4    H23 5416   7.758   5.053   7.846  1.3858 -0.0241  0.0035
 1255HK4    C44 5417   7.918   4.930   7.773  0.0918 -0.2402 -0.0757
 1255HK4    H24 5418   7.953   4.909   7.875 -1.0928 -0.5300  0.2798
 1255HK4    C45 5419   7.988   4.879   7.664  0.2108  0.4467 -0.3236
 1255HK4    H25 5420   8.081   4.822   7.677 -0.0031  0.0460 -0.5667
 1256HK4    H28 5421   3.290   1.783   4.936 -0.0865 -4.0333  2.4701
 1256HK4    C48 5422   3.325   1.719   4.854  0.5862 -0.5155 -0.1065
 1256HK4    C47 5423   3.314   1.581   4.866 -0.1517 -0.4201  0.3619
 1256HK4    H27 5424   3.240   1.544   4.939  0.0649  0.6870  1.1644
 1256HK4    C46 5425   3.382   1.501   4.776 -0.7447 -0.1163 -0.3592
 1256HK4    H26 5426   3.366   1.392   4.779  0.0923 -0.2736 -1.3871
 1256HK4    C40 5427   3.466   1.550   4.674 -0.0324 -0.8168 -0.1229
 1256HK4    C50 5428   3.452   1.688   4.647 -0.3443 -0.7902  0.1681
 1256HK4    H30 5429   3.502   1.741   4.565 -0.2909 -0.8224  0.1793
 1256HK4    C49 5430   3.391   1.768   4.742  0.4570 -0.0125  0.0380
 1256HK4    H29 5431   3.389   1.878   4.733 -1.7726 -0.0997 -1.0235
 1256HK4     N2 5432   3.571   1.476   4.620  0.6388  0.0396  0.0016
 1256HK4    C30 5433   3.634   1.363   4.676  0.4892  0.1255  0.3431
 1256HK4    C29 5434   3.623   1.300   4.800  1.0300  0.2880  0.4728
 1256HK4    H15 5435   3.562   1.342   4.880 -0.0705 -0.6998  0.1636
 1256HK4    C28 5436   3.689   1.182   4.833 -0.2277 -0.6339 -0.2755
 1256HK4    C27 5437   3.776   1.126   4.737  0.5783  0.3086 -0.1040
 1256HK4    H14 5438   3.834   1.034   4.756  0.2931  0.4055  1.2956
 1256HK4    C32 5439   3.804   1.194   4.620  0.2508  0.0523 -0.3323
 1256HK4    H16 5440   3.882   1.153   4.556  2.7355  2.9557  0.7074
 1256HK4    C31 5441   3.739   1.314   4.590  0.3904  0.2489  0.1520
 1256HK4    C34 5442   3.738   1.397   4.471 -0.4400 -0.4912 -0.3664
 1256HK4    C33 5443   3.624   1.485   4.490 -0.6738 -0.7492 -0.5886
 1256HK4    C35 5444   3.576   1.554   4.379 -0.0575  0.4817 -0.0885
 1256HK4    H17 5445   3.521   1.648   4.387  0.5339  0.8730 -0.4970
 1256HK4    C36 5446   3.637   1.522   4.259  0.3065  0.2458  0.1585
 1256HK4    H18 5447   3.605   1.577   4.169  2.0134  0.0215 -0.6272
 1256HK4    C37 5448   3.744   1.437   4.234 -0.0294 -0.1141 -0.0619
 1256HK4    H19 5449   3.783   1.423   4.133  1.1524 -0.3915  0.4159
 1256HK4    C38 5450   3.798   1.377   4.347 -0.3460 -0.7997 -0.2729
 1256HK4    H20 5451   3.875   1.300   4.341  1.5496  1.0206  0.3345
 1256HK4    C14 5452   3.707   1.132   4.970 -0.1815 -0.0546 -0.0707
 1256HK4     C9 5453   3.829   1.096   5.030 -0.2067  0.2159  0.1457
 1256HK4     C8 5454   3.834   1.023   5.150  0.0109  0.0002  0.0062
 1256HK4    C11 5455   3.721   0.985   5.221 -0.0706 -0.0756 -0.1635
 1256HK4     H4 5456   3.712   0.949   5.325  0.9209 -1.6023 -0.5824
 1256HK4    C12 5457   3.600   1.017   5.160  0.0200 -0.3363 -0.4812
 1256HK4     H5 5458   3.504   0.983   5.199 -0.5429  3.3304  1.5888
 1256HK4    C13 5459   3.594   1.088   5.041 -0.3475  0.7507  0.1725
 1256HK4     H6 5460   3.495   1.127   5.012 -0.4315  0.0724 -0.4732
 1256HK4     C7 5461   3.960   0.963   5.200 -0.3261 -0.6281  0.1105
 1256HK4     O2 5462   3.980   0.954   5.321  0.4003  0.0346  0.0415
 1256HK4     C4 5463   4.072   0.953   5.104 -0.3241  0.2301  0.0211
 1256HK4     C3 5464   4.177   0.868   5.136 -0.2383  0.1348 -0.4979
 1256HK4     H3 5465   4.170   0.809   5.229 -1.8471  0.7077 -0.2280
 1256HK4     C2 5466   4.281   0.859   5.045  0.3558 -0.1326  0.2092
 1256HK4     H2 5467   4.367   0.794   5.072  1.7305  1.1007 -1.1373
 1256HK4     C1 5468   4.287   0.946   4.937 -0.2466 -0.6558 -0.2511
 1256HK4     H1 5469   4.388   0.961   4.896 -0.3924 -0.0306 -0.3813
 1256HK4     C6 5470   4.184   1.036   4.907  0.0929 -0.0889  0.2486
 1256HK4     C5 5471   4.073   1.041   4.993  0.1181  0.5119  0.2486
 1256HK4    C10 5472   3.958   1.130   4.964 -0.1600  0.1348  0.1938
 1256HK4     O1 5473   3.980   1.250   4.951  0.3433  0.0112 -0.1185
 1256HK4    C16 5474   4.180   1.088   4.769  0.0450 -0.3378  0.1547
 1256HK4    C15 5475   4.172   0.994   4.665 -0.4262 -0.1861  0.0533
 1256HK4     H7 5476   4.158   0.888   4.691 -0.2036  0.0553  1.1471
 1256HK4    C20 5477   4.150   1.039   4.535 -0.4803 -0.1103  0.0877
 1256HK4     H9 5478   4.152   0.959   4.460  1.0915  0.4177 -0.4582
 1256HK4    C19 5479   4.151   1.174   4.505  0.0813 -0.0754  0.2601
 1256HK4    C18 5480   4.171   1.273   4.609  0.7680 -0.1541  0.2064
 1256HK4    C17 5481   4.187   1.224   4.738 -0.0109 -0.3153  0.2419
 1256HK4     H8 5482   4.199   1.289   4.825 -0.9885 -0.4168  0.4603
 1256HK4     N1 5483   4.175   1.404   4.557  0.0071 -0.0853  0.3213
 1256HK4    C21 5484   4.161   1.389   4.417  0.3171 -0.0137  0.2833
 1256HK4    C22 5485   4.147   1.249   4.381  0.1102  0.0013  0.3055
 1256HK4    C26 5486   4.156   1.216   4.246 -0.1027 -0.1121  0.3201
 1256HK4    H13 5487   4.144   1.110   4.224  0.5757 -0.4833  1.6945
 1256HK4    C25 5488   4.183   1.314   4.152  0.1910  0.0099  0.5327
 1256HK4    H12 5489   4.187   1.276   4.050  1.2290  2.8782 -0.5633
 1256HK4    C24 5490   4.213   1.446   4.185  0.4408 -0.0612  0.5932
 1256HK4    H11 5491   4.244   1.514   4.105 -4.6207 -1.0257 -2.4100
 1256HK4    C23 5492   4.198   1.480   4.319  0.0332  0.2881  0.4583
 1256HK4    H10 5493   4.193   1.588   4.337 -0.3464  0.4565 -0.6360
 1256HK4    C39 5494   4.118   1.510   4.628 -0.2218  0.2098 -0.3001
 1256HK4    C41 5495   4.024   1.485   4.730 -0.3479  0.1844 -0.4220
 1256HK4    H21 5496   3.975   1.387   4.734  0.4931 -0.2340 -0.2799
 1256HK4    C42 5497   3.988   1.569   4.834 -0.3125  0.1330 -0.3684
 1256HK4    H22 5498   3.942   1.526   4.924  1.0453  0.3225  0.4425
 1256HK4    C43 5499   4.039   1.699   4.826 -0.5934  0.2607 -0.0964
 1256HK4    H23 5500   4.035   1.757   4.918  1.0920 -0.5677  0.5220
 1256HK4    C44 5501   4.136   1.730   4.732 -0.3972 -0.3561 -0.1030
 1256HK4    H24 5502   4.185   1.828   4.724  1.3101 -1.1713  0.2560
 1256HK4    C45 5503   4.173   1.640   4.632 -0.0897  0.1584 -0.4553
 1256HK4    H25 5504   4.253   1.664   4.560 -0.5655  0.1019 -1.0000
 1257HK4    H28 5505   3.015   9.966   5.694 -0.6276 -0.3499 -0.5165
 1257HK4    C48 5506   2.962   9.948   5.787  0.5180 -0.3291  0.1353
 1257HK4    C47 5507   3.012   9.970   5.915  0.9796 -0.6122  0.0073
 1257HK4    H27 5508   3.115  10.009   5.916  0.6004  0.4008  0.8633
 1257HK4    C46 5509   2.931   9.938   6.024 -0.2718  0.8197 -0.4810
 1257HK4    H26 5510   2.969   9.959   6.125 -1.4309  0.4464  0.0416
 1257HK4    C40 5511   2.799   9.891   6.010 -0.2607  0.6243  0.0521
 1257HK4    C50 5512   2.747   9.890   5.879 -0.4963  0.3889  0.1471
 1257HK4    H30 5513   2.642   9.862   5.858 -0.5853  0.0165  1.0421
 1257HK4    C49 5514   2.828   9.915   5.770  0.4688 -0.4255  0.6759
 1257HK4    H29 5515   2.784   9.919   5.669 -0.1723 -1.3940  0.9117
 1257HK4     N2 5516   2.705   9.880   6.113 -0.3857  0.4292 -0.0816
 1257HK4    C30 5517   2.700   9.960   6.229 -0.1686  0.2839  0.0251
 1257HK4    C29 5518   2.750  10.088   6.249 -0.7374  0.5760 -0.3899
 1257HK4    H15 5519   2.833  10.117   6.184  1.3534 -1.0520  1.4847
 1257HK4    C28 5520   2.724  10.167   6.361 -0.6406 -0.1270  0.1250
 1257HK4    C27 5521   2.639  10.108   6.457 -0.1570 -0.2667  0.4696
 1257HK4    H14 5522   2.603  10.171   6.540  0.7929 -0.6066  1.1477
 1257HK4    C32 5523   2.582   9.982   6.445 -0.1093 -0.2469  0.0534
 1257HK4    H16 5524   2.528   9.941   6.530  1.3138 -0.5138  0.8351
 1257HK4    C31 5525   2.618   9.905   6.335 -0.5561  0.1285 -0.3590
 1257HK4    C34 5526   2.576   9.777   6.280  0.2236 -0.3852  0.2194
 1257HK4    C33 5527   2.627   9.767   6.144 -0.0759  0.2491  0.0567
 1257HK4    C35 5528   2.594   9.650   6.078  0.1383  0.4542 -0.4105
 1257HK4    H17 5529   2.622   9.632   5.974  0.8936 -0.2251 -0.0921
 1257HK4    C36 5530   2.516   9.551   6.137  0.4654  0.5481  0.1793
 1257HK4    H18 5531   2.497   9.460   6.078  1.3585 -1.8433  3.4355
 1257HK4    C37 5532   2.463   9.563   6.265  0.0034  0.5006 -0.0070
 1257HK4    H19 5533   2.380   9.504   6.304  0.9613 -0.4151  0.7026
 1257HK4    C38 5534   2.497   9.678   6.336 -0.9726  0.5986  0.3095
 1257HK4    H20 5535   2.475   9.678   6.442  2.2965 -0.5145  1.0554
 1257HK4    C14 5536   2.788  10.296   6.386  0.4220 -0.5896 -0.1554
 1257HK4     C9 5537   2.814  10.358   6.509 -0.4086  0.3357 -0.4404
 1257HK4     C8 5538   2.825  10.497   6.529  0.2916  0.2267 -0.0563
 1257HK4    C11 5539   2.822  10.579   6.417  0.3450  0.1415 -0.1180
 1257HK4     H4 5540   2.819  10.689   6.426 -0.8138 -0.0441  2.2475
 1257HK4    C12 5541   2.808  10.522   6.291 -0.4012 -0.1645  0.1002
 1257HK4     H5 5542   2.830  10.580   6.201  0.5966  0.4172  0.7046
 1257HK4    C13 5543   2.786  10.385   6.277 -0.5845 -0.1463  0.2169
 1257HK4     H6 5544   2.769  10.345   6.176 -0.4372 -1.2827  0.6335
 1257HK4     C7 5545   2.845  10.560   6.662 -0.0716 -0.0671  0.1397
 1257HK4     O2 5546   2.834  10.683   6.668  0.1607 -0.0516  0.2656
 1257HK4     C4 5547   2.851  10.471   6.780  0.3646 -0.2667 -0.0313
 1257HK4     C3 5548   2.849  10.524   6.909 -0.2363  0.0315 -0.1605
 1257HK4     H3 5549   2.857  10.633   6.922 -0.7746  0.3656 -2.4005
 1257HK4     C2 5550   2.827  10.448   7.023 -0.3028  0.1459 -0.0971
 1257HK4     H2 5551   2.840  10.486   7.125 -3.7513  0.7296  0.1789
 1257HK4     C1 5552   2.810  10.312   6.998  0.4934  0.0439 -0.1014
 1257HK4     H1 5553   2.795  10.245   7.083  0.0230  1.0852  0.6477
 1257HK4     C6 5554   2.804  10.251   6.871 -0.6160  0.2315 -0.1476
 1257HK4     C5 5555   2.838  10.332   6.762 -0.7965 -0.1173 -0.4609
 1257HK4    C10 5556   2.848  10.272   6.626  0.1513  0.3371 -0.5988
 1257HK4     O1 5557   2.935  10.188   6.606  0.1520  0.2036 -0.0309
 1257HK4    C16 5558   2.727  10.126   6.861  0.0134 -0.1782  0.0111
 1257HK4    C15 5559   2.601  10.118   6.925  0.0921 -0.6776  0.1001
 1257HK4     H7 5560   2.551  10.204   6.971 -3.0899 -1.3788 -1.8848
 1257HK4    C20 5561   2.527  10.001   6.932 -0.3466 -0.3892  0.2694
 1257HK4     H9 5562   2.429  10.014   6.979 -0.3422 -0.5764  0.3324
 1257HK4    C19 5563   2.573   9.887   6.866 -0.0608 -0.1208  0.0069
 1257HK4    C18 5564   2.705   9.892   6.805 -0.0319  0.2918  0.0949
 1257HK4    C17 5565   2.776  10.011   6.802  0.4821 -0.0176  0.0915
 1257HK4     H8 5566   2.883  10.006   6.778  0.4636  0.6002 -0.1177
 1257HK4     N1 5567   2.744   9.766   6.754 -0.4302  0.2405 -0.0920
 1257HK4    C21 5568   2.641   9.676   6.786 -0.2975  0.1021 -0.0646
 1257HK4    C22 5569   2.533   9.749   6.848 -0.2243 -0.1159  0.3180
 1257HK4    C26 5570   2.411   9.688   6.872 -0.6353  0.3841 -0.4616
 1257HK4    H13 5571   2.334   9.760   6.900  0.0882  0.4000  1.5541
 1257HK4    C25 5572   2.386   9.555   6.838 -0.1175  0.2954 -0.5060
 1257HK4    H12 5573   2.284   9.520   6.827  0.0415 -0.2083 -0.3818
 1257HK4    C24 5574   2.497   9.486   6.791 -0.3109 -0.0795 -0.4079
 1257HK4    H11 5575   2.489   9.379   6.769 -3.3152  0.6211 -2.9993
 1257HK4    C23 5576   2.621   9.540   6.761 -0.1646  0.0033  0.3346
 1257HK4    H10 5577   2.701   9.476   6.723  0.6464  0.9196  0.4812
 1257HK4    C39 5578   2.832   9.750   6.646 -0.3899  0.2146 -0.0548
 1257HK4    C41 5579   2.900   9.628   6.625  0.1882  0.4626  0.3884
 1257HK4    H21 5580   2.894   9.547   6.700 -0.4605  0.2694  0.1293
 1257HK4    C42 5581   2.980   9.613   6.513 -0.2812  0.0371  0.1093
 1257HK4    H22 5582   2.990   9.510   6.475 -0.2878  0.1839 -0.2950
 1257HK4    C43 5583   3.019   9.719   6.432  0.4435 -0.0782  0.2972
 1257HK4    H23 5584   3.090   9.704   6.351  1.4728  1.6941  0.8395
 1257HK4    C44 5585   2.961   9.843   6.460  0.1565 -0.0293 -0.5041
 1257HK4    H24 5586   3.015   9.927   6.414  0.5050 -0.8949 -1.7167
 1257HK4    C45 5587   2.864   9.855   6.558  0.0186 -0.3526 -0.5988
 1257HK4    H25 5588   2.800   9.945   6.554  2.4494  1.4637  0.0516
 1258HK4    H28 5589  10.426   9.937   3.781  0.0414 -0.1191 -1.2693
 1258HK4    C48 5590  10.355  10.019   3.779  0.3782  0.2093 -0.1203
 1258HK4    C47 5591  10.249  10.023   3.870  0.6060  0.4608  0.1339
 1258HK4    H27 5592  10.256   9.945   3.947  0.1411 -2.3855 -2.5837
 1258HK4    C46 5593  10.138  10.099   3.836  0.1618 -0.1453  0.2026
 1258HK4    H26 5594  10.075  10.132   3.920  2.5415  1.9268  1.2217
 1258HK4    C40 5595  10.118  10.169   3.715  0.1919 -0.6249 -0.0809
 1258HK4    C50 5596  10.233  10.171   3.635  0.0134  0.2839 -0.3266
 1258HK4    H30 5597  10.229  10.202   3.529  0.4716  1.1867 -0.0807
 1258HK4    C49 5598  10.350  10.103   3.668 -0.1291  0.1244 -0.1604
 1258HK4    H29 5599  10.448  10.123   3.622 -0.3236 -2.1926 -1.6711
 1258HK4     N2 5600   9.987  10.190   3.669  0.1392 -0.3092  0.2132
 1258HK4    C30 5601   9.861  10.132   3.695  0.1514 -0.4320 -0.0013
 1258HK4    C29 5602   9.822  10.041   3.792 -0.5904 -0.2842 -0.1624
 1258HK4    H15 5603   9.888  10.030   3.878 -0.8200  0.4547  0.1147
 1258HK4    C28 5604   9.695   9.987   3.807 -0.6869  0.0934  0.4102
 1258HK4    C27 5605   9.601  10.036   3.714 -0.4466 -0.3383 -0.0606
 1258HK4    H14 5606   9.496  10.011   3.736 -0.5519 -0.8532 -1.1293
 1258HK4    C32 5607   9.630  10.131   3.617 -0.2936 -0.3096  0.0150
 1258HK4    H16 5608   9.558  10.162   3.542 -1.2484  2.4225  1.9786
 1258HK4    C31 5609   9.760  10.178   3.602 -0.3222  0.0045  0.7295
 1258HK4    C34 5610   9.826  10.276   3.518  0.0873 -0.5682  0.3899
 1258HK4    C33 5611   9.960  10.289   3.572 -0.0173 -0.0366  0.5329
 1258HK4    C35 5612  10.043  10.391   3.529 -0.1778 -0.2424 -0.2650
 1258HK4    H17 5613  10.144  10.413   3.565 -0.3521  1.6567 -0.8802
 1258HK4    C36 5614   9.999  10.475   3.427 -0.2570  0.0069 -0.0259
 1258HK4    H18 5615  10.070  10.548   3.386 -1.3948  1.7738  1.1043
 1258HK4    C37 5616   9.872  10.459   3.372 -0.3792  0.2151  0.1932
 1258HK4    H19 5617   9.828  10.546   3.324  2.3901  1.0295 -0.9641
 1258HK4    C38 5618   9.785  10.360   3.415  0.1880 -0.0307  0.7864
 1258HK4    H20 5619   9.682  10.370   3.382 -1.0751  0.1810  4.5865
 1258HK4    C14 5620   9.660   9.857   3.867 -0.2239  0.0193  0.5221
 1258HK4     C9 5621   9.585   9.753   3.810  0.0407 -0.0887  0.3697
 1258HK4     C8 5622   9.536   9.658   3.902 -0.0137  0.0049  0.4363
 1258HK4    C11 5623   9.565   9.660   4.038  0.3743 -0.6981  0.3639
 1258HK4     H4 5624   9.521   9.591   4.111  0.4097 -0.7770  0.3102
 1258HK4    C12 5625   9.654   9.754   4.089  0.0870 -0.2064 -0.0339
 1258HK4     H5 5626   9.704   9.732   4.185  2.0441  0.9871 -0.7402
 1258HK4    C13 5627   9.692   9.858   4.004 -0.7548  0.6711  0.6456
 1258HK4     H6 5628   9.754   9.937   4.048  0.6990 -0.4605  0.6634
 1258HK4     C7 5629   9.442   9.555   3.855  0.2386 -0.2254  0.4288
 1258HK4     O2 5630   9.403   9.460   3.922 -0.1339 -0.5746 -0.2747
 1258HK4     C4 5631   9.402   9.558   3.712  0.5780  0.5529  0.3501
 1258HK4     C3 5632   9.296   9.479   3.671  0.7742  0.4215  0.0943
 1258HK4     H3 5633   9.231   9.426   3.743  1.8265 -1.4079 -0.2609
 1258HK4     C2 5634   9.254   9.463   3.539  0.2406 -0.1265  0.3265
 1258HK4     H2 5635   9.174   9.397   3.503  0.3226 -0.6137  1.0128
 1258HK4     C1 5636   9.342   9.519   3.447  0.0951 -0.2626  0.1108
 1258HK4     H1 5637   9.315   9.523   3.341 -1.6656  2.3933  0.6113
 1258HK4     C6 5638   9.460   9.589   3.480 -0.3249  0.5925 -0.1642
 1258HK4     C5 5639   9.484   9.619   3.615  0.3162  0.0896 -0.1638
 1258HK4    C10 5640   9.578   9.724   3.664  0.8061 -0.6218  0.4334
 1258HK4     O1 5641   9.675   9.760   3.598  0.3314  0.3215  0.2341
 1258HK4    C16 5642   9.544   9.617   3.363 -0.2195 -0.0511 -0.2385
 1258HK4    C15 5643   9.487   9.660   3.242 -0.6052  0.0466 -0.0235
 1258HK4     H7 5644   9.410   9.739   3.239 -2.1400 -1.4658 -1.8652
 1258HK4    C20 5645   9.525   9.595   3.125  0.0119 -0.1088  0.2649
 1258HK4     H9 5646   9.460   9.599   3.037 -1.0536 -1.1803  0.9870
 1258HK4    C19 5647   9.627   9.500   3.122  0.2891  0.2067 -0.3921
 1258HK4    C18 5648   9.706   9.476   3.241  0.0006  0.1310 -0.2162
 1258HK4    C17 5649   9.652   9.530   3.357  0.0993  0.3471 -0.2702
 1258HK4     H8 5650   9.709   9.523   3.450 -1.3665  0.5695  0.6580
 1258HK4     N1 5651   9.818   9.392   3.230  0.1911  0.3981 -0.3035
 1258HK4    C21 5652   9.798   9.339   3.101  0.2592  0.0012 -0.1525
 1258HK4    C22 5653   9.690   9.406   3.031  0.2694 -0.0129 -0.1795
 1258HK4    C26 5654   9.670   9.384   2.896 -0.0649 -0.1122 -0.1163
 1258HK4    H13 5655   9.588   9.431   2.843 -0.4836 -0.1960  0.4570
 1258HK4    C25 5656   9.758   9.305   2.822 -0.8183 -0.6777 -0.4140
 1258HK4    H12 5657   9.748   9.301   2.713  2.1424 -0.8417 -0.7173
 1258HK4    C24 5658   9.862   9.236   2.884 -0.0532  0.5113 -0.3643
 1258HK4    H11 5659   9.928   9.164   2.834 -0.4979 -1.0441  1.2156
 1258HK4    C23 5660   9.878   9.258   3.021  0.3426  0.3015 -0.3777
 1258HK4    H10 5661   9.952   9.199   3.075 -2.2777  0.0520  3.0799
 1258HK4    C39 5662   9.944   9.428   3.280 -0.0303  0.4882  0.1825
 1258HK4    C41 5663  10.042   9.331   3.308 -0.4452  0.0971  0.2683
 1258HK4    H21 5664  10.018   9.226   3.284 -0.8260  0.8981 -3.1932
 1258HK4    C42 5665  10.173   9.365   3.339 -0.4754 -0.1480  0.6716
 1258HK4    H22 5666  10.249   9.289   3.363  1.1837  0.2699 -2.8237
 1258HK4    C43 5667  10.211   9.499   3.336  0.1504 -0.3345  0.0732
 1258HK4    H23 5668  10.313   9.531   3.356  0.9110 -1.5461 -1.7400
 1258HK4    C44 5669  10.118   9.599   3.313  0.1311 -0.3031  0.2669
 1258HK4    H24 5670  10.146   9.702   3.286  3.6541 -1.2737 -0.0368
 1258HK4    C45 5671   9.987   9.562   3.285 -0.0858  0.5081  0.2074
 1258HK4    H25 5672   9.915   9.642   3.261  0.8345  1.1672 -0.4107
 1259HK4    H28 5673  10.496   3.121   8.331  1.8877  2.6486 -2.5275
 1259HK4    C48 5674  10.403   3.166   8.296 -0.2281  0.0206 -0.4667
 1259HK4    C47 5675  10.286   3.092   8.304 -0.1961  0.0414  0.2397
 1259HK4    H27 5676  10.301   2.987   8.333  0.8779 -0.2527 -1.3431
 1259HK4    C46 5677  10.159   3.141   8.276 -0.1010  0.2015  0.0931
 1259HK4    H26 5678  10.069   3.078   8.279 -0.5115  0.7625 -0.3322
 1259HK4    C40 5679  10.150   3.279   8.245  0.4871  0.2051 -0.0514
 1259HK4    C50 5680  10.268   3.357   8.240  0.2318  0.5837 -0.1037
 1259HK4    H30 5681  10.259   3.461   8.206  3.1107  0.0750 -2.6703
 1259HK4    C49 5682  10.392   3.301   8.267 -0.0598  0.2499  0.5375
 1259HK4    H29 5683  10.475   3.373   8.266 -0.4361  0.6825 -0.2742
 1259HK4     N2 5684  10.022   3.332   8.232  0.4737  0.2270  0.1767
 1259HK4    C30 5685   9.991   3.436   8.142 -0.2370 -0.1045  0.0316
 1259HK4    C29 5686  10.071   3.482   8.038 -0.2294  0.1723  0.1591
 1259HK4    H15 5687  10.118   3.405   7.977  0.6823 -0.2443  1.3906
 1259HK4    C28 5688  10.061   3.615   7.998  0.0227  0.1327 -0.0330
 1259HK4    C27 5689   9.957   3.695   8.049  0.3978  0.0007  0.9453
 1259HK4    H14 5690   9.935   3.794   8.008 -0.1300 -0.9117 -1.0419
 1259HK4    C32 5691   9.869   3.649   8.147 -0.1326  0.1769  0.5537
 1259HK4    H16 5692   9.795   3.716   8.190  0.3603  1.3367 -0.3982
 1259HK4    C31 5693   9.882   3.517   8.191 -0.2668 -0.0594 -0.1057
 1259HK4    C34 5694   9.835   3.453   8.313  0.1680  0.1040  0.1516
 1259HK4    C33 5695   9.926   3.342   8.336 -0.2092 -0.3195 -0.3924
 1259HK4    C35 5696   9.899   3.251   8.437  0.3775  0.1274  0.1757
 1259HK4    H17 5697   9.967   3.170   8.460  0.0427  0.2191  1.4966
 1259HK4    C36 5698   9.786   3.258   8.518  0.1112  1.0070 -0.2619
 1259HK4    H18 5699   9.751   3.167   8.569  0.2321  0.1349 -1.6706
 1259HK4    C37 5700   9.699   3.364   8.495  0.0638  1.1624  0.6175
 1259HK4    H19 5701   9.605   3.376   8.548  1.2314  2.5448  2.4154
 1259HK4    C38 5702   9.724   3.458   8.396  0.0301  0.4740 -0.0534
 1259HK4    H20 5703   9.649   3.536   8.385 -1.0819 -0.5585  0.1439
 1259HK4    C14 5704  10.186   3.688   7.967  0.3286 -0.3842 -0.0273
 1259HK4     C9 5705  10.220   3.811   8.023  0.5168 -0.4771  0.0612
 1259HK4     C8 5706  10.287   3.913   7.952 -0.0949 -0.0913  0.0298
 1259HK4    C11 5707  10.346   3.877   7.831 -0.8636  0.3113 -0.4689
 1259HK4     H4 5708  10.409   3.947   7.775  2.0614 -1.1997  0.8533
 1259HK4    C12 5709  10.325   3.752   7.775 -0.1581 -0.0382  0.0393
 1259HK4     H5 5710  10.370   3.730   7.677  0.7653  0.8382  0.2684
 1259HK4    C13 5711  10.243   3.661   7.841 -0.1762 -0.2586 -0.2848
 1259HK4     H6 5712  10.208   3.576   7.781  1.9278 -0.1183 -1.7644
 1259HK4     C7 5713  10.276   4.053   7.998 -0.0624 -0.1333  0.1638
 1259HK4     O2 5714  10.343   4.139   7.941 -0.3159 -0.0668 -0.0321
 1259HK4     C4 5715  10.208   4.077   8.127 -0.5519  0.3424 -0.1819
 1259HK4     C3 5716  10.177   4.210   8.156 -0.0100  0.4748 -0.1961
 1259HK4     H3 5717  10.212   4.284   8.083 -0.5361 -0.7314 -1.6886
 1259HK4     C2 5718  10.128   4.241   8.283  0.3653 -0.4226  0.1730
 1259HK4     H2 5719  10.066   4.332   8.288  2.2334  1.0117 -1.9389
 1259HK4     C1 5720  10.099   4.140   8.374 -0.3822 -0.0327  0.3673
 1259HK4     H1 5721  10.050   4.170   8.468 -0.5919  0.4954  0.0909
 1259HK4     C6 5722  10.119   4.004   8.344 -0.3541  0.0735 -0.0956
 1259HK4     C5 5723  10.174   3.975   8.218 -0.1468  0.3134 -0.0620
 1259HK4    C10 5724  10.193   3.836   8.168 -0.4075  0.3467 -0.2512
 1259HK4     O1 5725  10.218   3.746   8.247 -0.5599  0.2040 -0.3669
 1259HK4    C16 5726  10.017   3.919   8.408 -0.1547  0.0957  0.2566
 1259HK4    C15 5727   9.884   3.965   8.425 -0.2000  0.1498 -0.2139
 1259HK4     H7 5728   9.850   4.045   8.358 -0.4955 -1.3620 -1.8928
 1259HK4    C20 5729   9.788   3.895   8.498  0.0914 -0.0524 -0.0164
 1259HK4     H9 5730   9.693   3.943   8.519  1.3809  2.1330  0.9703
 1259HK4    C19 5731   9.827   3.774   8.553  0.2465  0.0657  0.1344
 1259HK4    C18 5732   9.965   3.730   8.555  0.2224  0.0026  0.5600
 1259HK4    C17 5733  10.052   3.803   8.475 -0.0868  0.2093  0.4157
 1259HK4     H8 5734  10.158   3.780   8.488 -0.2304  0.2364  1.7089
 1259HK4     N1 5735   9.984   3.628   8.651  0.4407 -0.1607  0.3426
 1259HK4    C21 5736   9.855   3.598   8.698  0.1512  0.0775 -0.2890
 1259HK4    C22 5737   9.755   3.688   8.645 -0.0486 -0.1571 -0.3048
 1259HK4    C26 5738   9.621   3.677   8.681 -0.0111 -0.4406 -0.2443
 1259HK4    H13 5739   9.547   3.752   8.654 -1.4139 -1.5406  0.4743
 1259HK4    C25 5740   9.583   3.570   8.762  0.1212 -0.1182  0.2492
 1259HK4    H12 5741   9.478   3.540   8.759 -0.4627  1.7965  1.0993
 1259HK4    C24 5742   9.681   3.490   8.821 -0.3588 -1.1725 -0.3614
 1259HK4    H11 5743   9.648   3.408   8.886 -1.5699  0.4311  1.1224
 1259HK4    C23 5744   9.816   3.501   8.790 -0.5072  0.0052 -0.6457
 1259HK4    H10 5745   9.883   3.416   8.803 -1.8617 -0.9473  0.2359
 1259HK4    C39 5746  10.090   3.536   8.664  0.1729 -0.5279 -0.0292
 1259HK4    C41 5747  10.178   3.518   8.556  0.1575 -1.2640  0.0832
 1259HK4    H21 5748  10.127   3.512   8.458 -0.7215 -0.4235  0.4859
 1259HK4    C42 5749  10.309   3.475   8.577  0.5979  0.2522  0.4766
 1259HK4    H22 5750  10.384   3.474   8.496 -1.1191 -1.1380 -1.1531
 1259HK4    C43 5751  10.348   3.436   8.704  0.5642  0.0672  0.4321
 1259HK4    H23 5752  10.450   3.401   8.721  0.5029 -1.0964 -1.4368
 1259HK4    C44 5753  10.261   3.443   8.812  0.2200 -0.1503  0.1701
 1259HK4    H24 5754  10.280   3.408   8.914 -0.4878 -2.0329 -0.3307
 1259HK4    C45 5755  10.133   3.495   8.791  0.3354  0.1093  0.1256
 1259HK4    H25 5756  10.067   3.499   8.879 -0.7504  0.2644 -0.6966
 1260HK4    H28 5757   4.304   3.950   8.118  0.6602  1.4034  0.8386
 1260HK4    C48 5758   4.413   3.943   8.108  0.5080  0.2963 -0.0915
 1260HK4    C47 5759   4.482   3.822   8.105 -0.1777 -0.1168  0.5437
 1260HK4    H27 5760   4.422   3.736   8.139  0.9981 -0.3730  1.9774
 1260HK4    C46 5761   4.620   3.822   8.120 -0.1353 -0.0838  0.1666
 1260HK4    H26 5762   4.667   3.723   8.128 -0.2058 -0.1835 -0.6309
 1260HK4    C40 5763   4.699   3.937   8.137  0.3333 -0.3195 -0.4160
 1260HK4    C50 5764   4.623   4.055   8.144 -0.1342 -0.6493  0.0930
 1260HK4    H30 5765   4.678   4.150   8.144 -1.1303 -0.0619  0.1424
 1260HK4    C49 5766   4.485   4.059   8.128 -0.0514  0.6914 -0.3435
 1260HK4    H29 5767   4.432   4.156   8.125 -0.3339  0.5705  0.5950
 1260HK4     N2 5768   4.820   3.937   8.208 -0.0275  0.3230  0.1930
 1260HK4    C30 5769   4.848   3.830   8.296 -0.4290  0.0768  0.0226
 1260HK4    C29 5770   4.764   3.761   8.383  0.2777 -0.6034  0.1635
 1260HK4    H15 5771   4.656   3.771   8.372  0.3873 -0.3968 -0.8033
 1260HK4    C28 5772   4.810   3.655   8.460 -0.2144 -0.8730  0.0860
 1260HK4    C27 5773   4.948   3.631   8.448 -0.0229 -0.0878  0.6659
 1260HK4    H14 5774   4.987   3.537   8.490  1.6232 -0.5799 -1.7995
 1260HK4    C32 5775   5.041   3.710   8.380 -0.1977 -0.5985 -0.1738
 1260HK4    H16 5776   5.147   3.687   8.382 -0.7202 -3.1849 -0.1061
 1260HK4    C31 5777   4.991   3.806   8.293 -0.4466 -0.0963  0.5149
 1260HK4    C34 5778   5.052   3.904   8.206 -0.2132 -0.7361 -0.0555
 1260HK4    C33 5779   4.942   3.987   8.159  0.1361 -0.2069  0.0571
 1260HK4    C35 5780   4.967   4.089   8.069  0.1502 -0.4542 -0.2193
 1260HK4    H17 5781   4.887   4.153   8.029  0.2174 -1.6556 -2.3633
 1260HK4    C36 5782   5.096   4.109   8.023  0.1851 -0.1476  0.0064
 1260HK4    H18 5783   5.119   4.178   7.941 -0.2788 -0.2730 -0.2302
 1260HK4    C37 5784   5.201   4.037   8.079 -0.0764 -0.4577  0.1032
 1260HK4    H19 5785   5.306   4.056   8.054  0.3603 -0.0745  2.0900
 1260HK4    C38 5786   5.183   3.934   8.170 -0.2060 -0.0967  0.4884
 1260HK4    H20 5787   5.261   3.858   8.181 -1.4046 -1.4999 -0.5560
 1260HK4    C14 5788   4.734   3.618   8.580 -0.2761 -0.1690  0.2638
 1260HK4     C9 5789   4.793   3.598   8.706 -0.6588  0.7730  0.6022
 1260HK4     C8 5790   4.731   3.515   8.802  0.0930 -0.2921  0.1725
 1260HK4    C11 5791   4.613   3.456   8.756  0.0138 -0.2719  0.3480
 1260HK4     H4 5792   4.562   3.392   8.829 -1.0964  0.5082  0.2691
 1260HK4    C12 5793   4.549   3.470   8.634  0.6767 -0.2496 -0.0026
 1260HK4     H5 5794   4.443   3.443   8.623  0.4156 -0.5121  2.8023
 1260HK4    C13 5795   4.611   3.558   8.546  0.1093 -0.4633 -0.6255
 1260HK4     H6 5796   4.557   3.578   8.452 -0.3415 -1.4486 -0.5822
 1260HK4     C7 5797   4.794   3.465   8.926 -0.3939  0.5527  0.7664
 1260HK4     O2 5798   4.727   3.419   9.019 -0.6261 -0.8993 -0.0964
 1260HK4     C4 5799   4.933   3.509   8.952  0.0826 -0.3333 -0.2141
 1260HK4     C3 5800   5.000   3.446   9.056  0.2858 -0.2940 -0.3207
 1260HK4     H3 5801   4.951   3.361   9.106  0.8966 -0.4175  0.0738
 1260HK4     C2 5802   5.133   3.474   9.084  0.1761  0.0256 -0.1264
 1260HK4     H2 5803   5.185   3.447   9.177  1.5811 -0.6951 -1.1033
 1260HK4     C1 5804   5.193   3.562   8.995  0.4152  0.3626  0.3639
 1260HK4     H1 5805   5.298   3.594   9.011  0.1723  2.5497 -2.0507
 1260HK4     C6 5806   5.133   3.625   8.884 -0.0703 -0.7527 -0.0155
 1260HK4     C5 5807   4.996   3.603   8.868 -0.3290  0.5061  0.4150
 1260HK4    C10 5808   4.922   3.657   8.750 -0.5173  0.5137  0.5372
 1260HK4     O1 5809   4.917   3.780   8.748 -0.2187  0.5091 -0.7317
 1260HK4    C16 5810   5.221   3.664   8.773  0.3768  0.5627  0.7818
 1260HK4    C15 5811   5.332   3.582   8.743 -0.4249  0.0074 -0.7061
 1260HK4     H7 5812   5.363   3.502   8.812  0.0982  0.6091 -0.2393
 1260HK4    C20 5813   5.414   3.607   8.634  0.0999 -0.3403 -0.3935
 1260HK4     H9 5814   5.489   3.537   8.599 -0.3202 -0.3452 -1.3042
 1260HK4    C19 5815   5.396   3.730   8.570 -0.2510 -0.0881  0.1915
 1260HK4    C18 5816   5.309   3.834   8.622 -0.3226  0.0567 -0.2181
 1260HK4    C17 5817   5.218   3.792   8.718 -0.2401  0.1818 -0.0841
 1260HK4     H8 5818   5.149   3.864   8.762 -0.4712 -0.1930  0.1682
 1260HK4     N1 5819   5.328   3.958   8.557 -0.3132  0.0810 -0.1685
 1260HK4    C21 5820   5.426   3.934   8.459 -0.1327 -0.2134  0.0822
 1260HK4    C22 5821   5.470   3.796   8.465 -0.6205 -0.3837 -0.2568
 1260HK4    C26 5822   5.547   3.754   8.357 -0.0240 -0.3298  0.1417
 1260HK4    H13 5823   5.573   3.648   8.349  1.3058  0.0209 -0.3493
 1260HK4    C25 5824   5.576   3.830   8.245  0.6375 -0.1929  0.4096
 1260HK4    H12 5825   5.611   3.783   8.152 -1.7815  0.2471 -0.7507
 1260HK4    C24 5826   5.532   3.962   8.241  1.0475 -0.0531  0.3966
 1260HK4    H11 5827   5.552   4.025   8.153  3.0122  0.1605  0.9604
 1260HK4    C23 5828   5.467   4.014   8.353 -0.1510 -0.4546 -0.1047
 1260HK4    H10 5829   5.418   4.109   8.331 -0.0894 -0.3800  0.0819
 1260HK4    C39 5830   5.237   4.064   8.564  0.1600  0.4608  0.2647
 1260HK4    C41 5831   5.286   4.196   8.573  0.6586  0.3020 -0.0759
 1260HK4    H21 5832   5.391   4.223   8.557  0.9336 -1.3648 -1.1979
 1260HK4    C42 5833   5.198   4.303   8.561  0.0610 -0.0963  0.6640
 1260HK4    H22 5834   5.241   4.404   8.574 -1.6933  0.6076  1.0746
 1260HK4    C43 5835   5.064   4.280   8.534  0.1835 -0.1406  0.0892
 1260HK4    H23 5836   4.997   4.361   8.507 -0.7054 -0.7974  0.3102
 1260HK4    C44 5837   5.012   4.151   8.523 -0.0921 -0.0041 -0.2302
 1260HK4    H24 5838   4.918   4.135   8.468 -0.5577  1.5113  0.1069
 1260HK4    C45 5839   5.099   4.044   8.544  0.3202  0.2382 -0.6825
 1260HK4    H25 5840   5.053   3.944   8.543 -0.5359  0.6316 -1.0527
 1261HK4    H28 5841   3.593   7.012   6.153  0.2933 -0.1413  1.4592
 1261HK4    C48 5842   3.623   7.116   6.161 -0.1290  0.1275 -0.1446
 1261HK4    C47 5843   3.530   7.218   6.165 -0.2108  0.0431  0.0910
 1261HK4    H27 5844   3.421   7.202   6.164 -0.8017  3.6133 -1.5732
 1261HK4    C46 5845   3.565   7.352   6.155 -0.6081  0.1311 -0.1874
 1261HK4    H26 5846   3.485   7.426   6.138 -0.6384 -0.3866 -2.4404
 1261HK4    C40 5847   3.700   7.387   6.134 -0.5265 -0.2472 -0.3004
 1261HK4    C50 5848   3.794   7.283   6.135 -0.4145 -0.1464  0.3736
 1261HK4    H30 5849   3.900   7.314   6.129 -0.1751 -0.9263  0.4561
 1261HK4    C49 5850   3.758   7.149   6.151  0.0131 -0.2614  0.3997
 1261HK4    H29 5851   3.828   7.068   6.173  1.3887  0.3919 -1.4163
 1261HK4     N2 5852   3.754   7.517   6.141 -0.6152 -0.2229 -0.0784
 1261HK4    C30 5853   3.719   7.613   6.238  0.3161 -0.0900  0.1306
 1261HK4    C29 5854   3.666   7.599   6.366  0.9207 -0.4838  0.3402
 1261HK4    H15 5855   3.661   7.499   6.409  0.5378  0.6420  2.9699
 1261HK4    C28 5856   3.611   7.708   6.433  0.2087 -0.1680 -0.7462
 1261HK4    C27 5857   3.621   7.834   6.370  0.3849  0.3279  0.2671
 1261HK4    H14 5858   3.585   7.918   6.431 -0.9862  0.2285 -0.3915
 1261HK4    C32 5859   3.676   7.853   6.244 -0.0119  0.1856  0.0716
 1261HK4    H16 5860   3.679   7.953   6.199  1.4610 -0.6900 -1.8738
 1261HK4    C31 5861   3.734   7.745   6.179 -0.6872 -0.0757 -0.0955
 1261HK4    C34 5862   3.793   7.729   6.047  0.4663 -0.2023  0.4284
 1261HK4    C33 5863   3.808   7.586   6.031 -0.0710 -0.2337  0.1803
 1261HK4    C35 5864   3.855   7.534   5.911 -0.2952  0.0103 -0.0123
 1261HK4    H17 5865   3.877   7.428   5.898 -1.0946  0.0262 -1.7158
 1261HK4    C36 5866   3.889   7.623   5.809 -0.4808 -0.2217 -0.2803
 1261HK4    H18 5867   3.952   7.579   5.730  1.1794 -1.9075  1.9028
 1261HK4    C37 5868   3.878   7.761   5.823 -0.2122 -0.2561  0.2671
 1261HK4    H19 5869   3.906   7.831   5.746  1.4176 -0.4542  0.6592
 1261HK4    C38 5870   3.825   7.812   5.941  0.6170 -0.0827  0.5687
 1261HK4    H20 5871   3.799   7.918   5.949  1.5254  0.2200 -0.3904
 1261HK4    C14 5872   3.492   7.676   6.513  0.5375  0.6366  0.0699
 1261HK4     C9 5873   3.366   7.730   6.484  0.2741 -0.0207 -0.0221
 1261HK4     C8 5874   3.270   7.752   6.585  0.1964  0.1344 -0.1313
 1261HK4    C11 5875   3.299   7.717   6.716 -0.0160  0.0728 -0.1012
 1261HK4     H4 5876   3.220   7.694   6.790  0.5110  0.3003  0.5392
 1261HK4    C12 5877   3.426   7.671   6.749 -0.1262 -0.1949 -0.0450
 1261HK4     H5 5878   3.461   7.666   6.854  1.0189 -2.7895 -0.5201
 1261HK4    C13 5879   3.521   7.655   6.649  0.0036 -0.1300  0.0690
 1261HK4     H6 5880   3.620   7.623   6.683 -0.5612 -0.6774  1.2297
 1261HK4     C7 5881   3.151   7.834   6.555 -0.3611 -0.6206  0.0247
 1261HK4     O2 5882   3.064   7.844   6.642 -0.3929 -0.2851 -0.0455
 1261HK4     C4 5883   3.132   7.886   6.417 -0.3584 -0.2393  0.1692
 1261HK4     C3 5884   3.024   7.970   6.392 -0.1729 -0.0185  0.1086
 1261HK4     H3 5885   2.991   8.037   6.472 -1.5509 -0.7955  0.2040
 1261HK4     C2 5886   2.976   7.999   6.265 -0.5430 -1.4068 -0.0789
 1261HK4     H2 5887   2.885   8.061   6.250  0.9210  1.0398  0.7865
 1261HK4     C1 5888   3.046   7.946   6.157 -0.0286  0.1243 -0.5095
 1261HK4     H1 5889   2.997   7.958   6.059 -0.1738  1.9475 -0.2462
 1261HK4     C6 5890   3.168   7.878   6.177  0.0304  0.4669  0.3499
 1261HK4     C5 5891   3.207   7.842   6.306 -0.2997 -0.3087  0.2356
 1261HK4    C10 5892   3.326   7.760   6.344  0.2663  0.4281  0.0712
 1261HK4     O1 5893   3.360   7.678   6.258 -0.2614  0.1005  0.1743
 1261HK4    C16 5894   3.253   7.891   6.058 -0.3802 -0.1774 -0.0256
 1261HK4    C15 5895   3.388   7.925   6.083 -0.2901 -0.6054  0.0635
 1261HK4     H7 5896   3.424   7.975   6.175 -1.4738  0.8165 -0.2322
 1261HK4    C20 5897   3.472   7.938   5.973 -0.4417  0.0357  0.0241
 1261HK4     H9 5898   3.565   7.992   5.989 -0.4442  0.4930 -1.4642
 1261HK4    C19 5899   3.431   7.909   5.843 -0.1588  0.4518 -0.1568
 1261HK4    C18 5900   3.300   7.850   5.826  0.1952 -0.3788 -0.0449
 1261HK4    C17 5901   3.210   7.851   5.932 -0.0190  0.0646 -0.2252
 1261HK4     H8 5902   3.105   7.830   5.913 -0.4100  2.2728 -0.6797
 1261HK4     N1 5903   3.267   7.839   5.689  0.3915 -0.1251 -0.1130
 1261HK4    C21 5904   3.377   7.896   5.622 -0.1222  0.4384 -0.4823
 1261HK4    C22 5905   3.487   7.929   5.711 -0.4180  0.7280 -0.2259
 1261HK4    C26 5906   3.604   7.992   5.669  0.0151  0.0807  0.0030
 1261HK4    H13 5907   3.674   8.033   5.742 -1.4376  0.7302  1.0666
 1261HK4    C25 5908   3.626   8.017   5.534 -0.0361 -0.1773 -0.0539
 1261HK4    H12 5909   3.720   8.058   5.498  0.1845 -0.5732  0.0639
 1261HK4    C24 5910   3.529   7.978   5.443  0.1984 -0.5587 -0.1435
 1261HK4    H11 5911   3.528   8.012   5.339  1.8340  2.2393  0.6967
 1261HK4    C23 5912   3.411   7.920   5.489 -0.3291  0.1453 -0.5868
 1261HK4    H10 5913   3.341   7.877   5.418  0.1918  0.0735 -1.0571
 1261HK4    C39 5914   3.203   7.727   5.636 -0.2705  0.1119  0.1794
 1261HK4    C41 5915   3.150   7.727   5.505 -0.0716  0.0722  0.0978
 1261HK4    H21 5916   3.124   7.820   5.454 -1.1967 -1.6763 -2.6141
 1261HK4    C42 5917   3.088   7.614   5.452  0.1139  0.0049  0.0274
 1261HK4    H22 5918   3.036   7.614   5.355 -0.4306 -2.3197  0.2987
 1261HK4    C43 5919   3.095   7.492   5.517 -0.3963  0.1897  0.4326
 1261HK4    H23 5920   3.026   7.411   5.493  1.4757 -0.5608 -2.7625
 1261HK4    C44 5921   3.169   7.484   5.634 -0.4756 -0.2776  0.4538
 1261HK4    H24 5922   3.204   7.385   5.669  1.1477  0.2086  0.2359
 1261HK4    C45 5923   3.214   7.600   5.696 -0.9573  0.0551  0.1908
 1261HK4    H25 5924   3.261   7.592   5.796 -0.4972 -1.5664 -0.1353
 1262HK4    H28 5925   9.807   6.636   2.076  2.3483 -0.8051 -0.7467
 1262HK4    C48 5926   9.841   6.709   2.150 -0.5268  0.4247 -0.5737
 1262HK4    C47 5927   9.953   6.784   2.115  0.2356 -0.2987  0.3000
 1262HK4    H27 5928   9.988   6.768   2.011  3.7343  0.4895  1.2692
 1262HK4    C46 5929  10.017   6.871   2.202 -0.6774  0.6466  0.0300
 1262HK4    H26 5930  10.121   6.902   2.180 -0.4082  0.8677  1.5740
 1262HK4    C40 5931   9.955   6.893   2.326  0.1477 -0.7251  0.6901
 1262HK4    C50 5932   9.852   6.805   2.364  0.0507 -0.5858  0.7449
 1262HK4    H30 5933   9.814   6.821   2.466 -0.3713  1.0050  0.3618
 1262HK4    C49 5934   9.790   6.715   2.279  0.3959  0.0520 -0.1909
 1262HK4    H29 5935   9.684   6.694   2.296  0.3258  1.4480  1.1907
 1262HK4     N2 5936  10.002   6.998   2.406 -0.2070 -0.2568  0.2820
 1262HK4    C30 5937   9.991   7.005   2.547  0.4634  0.5476  0.2961
 1262HK4    C29 5938   9.974   6.905   2.641 -0.3668  0.3953 -0.0139
 1262HK4    H15 5939   9.966   6.799   2.617  1.9013 -0.7550  3.8365
 1262HK4    C28 5940   9.987   6.925   2.778 -0.5786  0.2527  0.0286
 1262HK4    C27 5941  10.046   7.050   2.810  0.7180 -0.2313 -0.4457
 1262HK4    H14 5942  10.071   7.065   2.916 -0.3186 -1.0635 -0.0773
 1262HK4    C32 5943  10.064   7.158   2.725  0.7198  0.1494  0.0353
 1262HK4    H16 5944  10.085   7.258   2.762  1.3401 -0.0831  0.3145
 1262HK4    C31 5945  10.026   7.139   2.592  0.2196  0.6762  0.1015
 1262HK4    C34 5946  10.049   7.223   2.476  0.3948 -0.1265 -0.4485
 1262HK4    C33 5947  10.030   7.131   2.366 -1.0010 -0.2166 -0.1416
 1262HK4    C35 5948  10.072   7.180   2.243 -0.2016  0.1885  0.2885
 1262HK4    H17 5949  10.022   7.132   2.159 -1.7638  2.7380 -0.2995
 1262HK4    C36 5950  10.118   7.309   2.223 -0.2920  0.1091 -0.4324
 1262HK4    H18 5951  10.116   7.348   2.120  0.3865  0.7953 -0.1938
 1262HK4    C37 5952  10.137   7.394   2.332  0.5611 -0.5178 -0.0825
 1262HK4    H19 5953  10.185   7.491   2.317 -0.8176 -0.1786 -2.7075
 1262HK4    C38 5954  10.102   7.350   2.459  0.1995  0.0168  0.0039
 1262HK4    H20 5955  10.127   7.404   2.550  2.6945  0.1458 -0.7402
 1262HK4    C14 5956   9.912   6.847   2.878 -0.8441  0.0046 -0.3660
 1262HK4     C9 5957   9.857   6.892   2.998  0.1284 -0.0545  0.1125
 1262HK4     C8 5958   9.853   6.808   3.111  0.3471  0.0199  0.1771
 1262HK4    C11 5959   9.897   6.677   3.092  0.0719 -0.0468 -0.0170
 1262HK4     H4 5960   9.890   6.610   3.179  0.0254  1.3144  1.0424
 1262HK4    C12 5961   9.927   6.618   2.970  0.2569  0.0287 -0.0096
 1262HK4     H5 5962   9.959   6.513   2.966  2.1602  0.5669  0.5896
 1262HK4    C13 5963   9.935   6.709   2.865 -0.5673  0.0232 -0.0842
 1262HK4     H6 5964   9.959   6.666   2.767 -0.7222  1.3968 -0.7302
 1262HK4     C7 5965   9.821   6.870   3.241 -0.3120  0.1295 -0.0330
 1262HK4     O2 5966   9.826   6.797   3.341 -0.0896  0.1599 -0.0215
 1262HK4     C4 5967   9.797   7.015   3.255 -0.4355  0.0854  0.2141
 1262HK4     C3 5968   9.778   7.073   3.379  0.3864  0.0636  0.3533
 1262HK4     H3 5969   9.760   7.016   3.472 -0.1551 -0.0172  0.1982
 1262HK4     C2 5970   9.784   7.211   3.396 -0.8029  0.1593  0.0487
 1262HK4     H2 5971   9.747   7.251   3.491 -1.6226  1.4823 -0.8126
 1262HK4     C1 5972   9.809   7.292   3.286 -0.7815 -0.3135 -0.2924
 1262HK4     H1 5973   9.795   7.401   3.292  1.0294 -0.1139  0.4559
 1262HK4     C6 5974   9.819   7.240   3.155  0.2568 -0.5269 -0.1354
 1262HK4     C5 5975   9.803   7.101   3.143 -0.2219 -0.4677 -0.2051
 1262HK4    C10 5976   9.815   7.035   3.011  0.0685 -0.0251 -0.4037
 1262HK4     O1 5977   9.736   7.070   2.923  0.0630  0.4160 -0.2227
 1262HK4    C16 5978   9.877   7.326   3.051 -0.0549 -0.5495 -0.3295
 1262HK4    C15 5979   9.986   7.411   3.078  0.0242 -0.6192 -0.4303
 1262HK4     H7 5980  10.044   7.393   3.170 -0.4372  2.2372  0.4689
 1262HK4    C20 5981  10.026   7.508   2.987 -0.6112  0.0752  0.0233
 1262HK4     H9 5982  10.102   7.583   3.009  1.7452 -2.4124  0.7095
 1262HK4    C19 5983   9.958   7.516   2.866 -0.0353  0.0327 -0.3055
 1262HK4    C18 5984   9.837   7.441   2.839  0.2140 -0.4508 -0.1006
 1262HK4    C17 5985   9.805   7.344   2.933 -0.2408 -0.3959 -0.1950
 1262HK4     H8 5986   9.704   7.305   2.917 -0.8370  0.2992  1.7730
 1262HK4     N1 5987   9.787   7.462   2.709 -0.4930  0.1754  0.2643
 1262HK4    C21 5988   9.875   7.557   2.653 -0.0547 -0.4135 -0.0542
 1262HK4    C22 5989   9.980   7.593   2.746  0.2392 -0.2604 -0.4452
 1262HK4    C26 5990  10.076   7.684   2.702  0.1773 -0.1074 -0.2617
 1262HK4    H13 5991  10.161   7.702   2.768 -0.5553 -0.5288  0.8178
 1262HK4    C25 5992  10.075   7.745   2.577  0.8080  0.4546  0.0016
 1262HK4    H12 5993  10.158   7.801   2.535 -0.3658  1.8059 -0.5645
 1262HK4    C24 5994   9.978   7.702   2.487 -0.0174  0.2556  0.9700
 1262HK4    H11 5995   9.977   7.753   2.389  0.8096  1.0255  1.3508
 1262HK4    C23 5996   9.878   7.615   2.527 -0.5161  0.5480  0.3764
 1262HK4    H10 5997   9.818   7.570   2.448  1.1139 -0.3827 -0.3568
 1262HK4    C39 5998   9.713   7.370   2.632  0.1716 -0.0506 -0.1164
 1262HK4    C41 5999   9.627   7.426   2.536  0.7678  0.2464 -0.4766
 1262HK4    H21 6000   9.604   7.534   2.537 -3.7573 -0.5704 -2.0151
 1262HK4    C42 6001   9.558   7.353   2.440  0.0918  0.2280  0.0167
 1262HK4    H22 6002   9.499   7.398   2.358 -1.9173  1.4149  2.0697
 1262HK4    C43 6003   9.579   7.216   2.436 -0.4109  0.1429  0.2785
 1262HK4    H23 6004   9.536   7.156   2.355  0.0372 -0.3180  0.3769
 1262HK4    C44 6005   9.659   7.159   2.534  0.0165 -0.0374 -0.1687
 1262HK4    H24 6006   9.694   7.056   2.516  0.7748  0.2144 -0.1357
 1262HK4    C45 6007   9.726   7.230   2.633 -0.1770 -0.0830 -0.0048
 1262HK4    H25 6008   9.787   7.170   2.702  1.1234 -0.2942 -1.2992
 1263HK4    H28 6009   4.028   5.170   0.394 -0.8938 -0.6886  0.3318
 1263HK4    C48 6010   4.115   5.111   0.365 -0.3017  0.2823  0.1410
 1263HK4    C47 6011   4.105   4.974   0.349  0.4130  0.2969 -0.4293
 1263HK4    H27 6012   4.022   4.929   0.405  0.6340  1.8599  1.1835
 1263HK4    C46 6013   4.215   4.899   0.306  0.2546 -0.2410  0.1039
 1263HK4    H26 6014   4.212   4.789   0.307  1.4883 -0.2892 -0.8995
 1263HK4    C40 6015   4.342   4.955   0.284  0.1813  0.0032  0.2967
 1263HK4    C50 6016   4.349   5.094   0.306  0.3129  0.0644 -0.1263
 1263HK4    H30 6017   4.451   5.135   0.310  0.5618 -0.6723  1.3877
 1263HK4    C49 6018   4.238   5.171   0.339  0.0060 -0.4190 -0.0298
 1263HK4    H29 6019   4.257   5.278   0.356  1.3387 -0.7839  0.7858
 1263HK4     N2 6020   4.420   4.900   0.182 -0.3751 -0.4179  0.1033
 1263HK4    C30 6021   4.560   4.913   0.189 -0.3969 -0.0284 -0.1646
 1263HK4    C29 6022   4.650   4.916   0.295  0.0075 -0.0684 -0.5056
 1263HK4    H15 6023   4.617   4.924   0.398  0.3919  0.2133 -0.4046
 1263HK4    C28 6024   4.787   4.914   0.274  0.0713 -0.2789 -0.0544
 1263HK4    C27 6025   4.836   4.936   0.143 -0.3681  0.5313 -0.0853
 1263HK4    H14 6026   4.943   4.953   0.123 -0.1789  1.1626  1.3990
 1263HK4    C32 6027   4.750   4.941   0.034  0.2957  0.1380 -0.6279
 1263HK4    H16 6028   4.780   4.988  11.188  2.7671 -1.1133 -0.5022
 1263HK4    C31 6029   4.614   4.918   0.054  0.4579 -0.1406  0.1760
 1263HK4    C34 6030   4.503   4.910  11.210  0.4346  1.3132  0.0692
 1263HK4    C33 6031   4.385   4.900   0.045  0.4248 -0.0392 -0.1019
 1263HK4    C35 6032   4.262   4.880  11.230  0.0186  0.5808  0.4899
 1263HK4    H17 6033   4.169   4.868   0.038 -1.6111  0.4421 -2.1982
 1263HK4    C36 6034   4.256   4.873  11.092  0.1649  0.2676  0.4981
 1263HK4    H18 6035   4.158   4.841  11.054  0.5088  0.0700 -0.2454
 1263HK4    C37 6036   4.369   4.876  11.011 -0.0493 -0.1576  0.1839
 1263HK4    H19 6037   4.352   4.842  10.909 -0.8049  0.5610  0.0611
 1263HK4    C38 6038   4.493   4.896  11.072 -0.1478  0.4015  0.2006
 1263HK4    H20 6039   4.584   4.879  11.014  0.1671 -0.0307  0.8224
 1263HK4    C14 6040   4.884   4.890   0.382 -0.0376 -0.5554 -0.0183
 1263HK4     C9 6041   5.019   4.922   0.371 -0.1431 -0.1279 -0.0663
 1263HK4     C8 6042   5.119   4.831   0.411 -0.4945 -0.5513 -0.1523
 1263HK4    C11 6043   5.080   4.719   0.484  0.1232 -0.1558  0.7995
 1263HK4     H4 6044   5.150   4.641   0.518  0.4828 -0.7017 -1.1177
 1263HK4    C12 6045   4.947   4.691   0.514  0.0944 -0.7759  0.1078
 1263HK4     H5 6046   4.914   4.611   0.581 -0.8040 -0.9458 -0.5245
 1263HK4    C13 6047   4.852   4.777   0.461  0.3120 -0.2149  0.6182
 1263HK4     H6 6048   4.747   4.743   0.468  0.1520 -0.1491 -1.1718
 1263HK4     C7 6049   5.263   4.865   0.398 -0.6320  0.1462  0.1226
 1263HK4     O2 6050   5.338   4.777   0.357  0.3018  0.8926  0.2292
 1263HK4     C4 6051   5.307   5.004   0.372  0.4256 -0.1291  0.4219
 1263HK4     C3 6052   5.440   5.042   0.362  0.4086 -0.1936 -0.0761
 1263HK4     H3 6053   5.516   4.963   0.350 -2.1134 -2.9505  1.4079
 1263HK4     C2 6054   5.475   5.176   0.374  0.2064 -0.1521  0.0587
 1263HK4     H2 6055   5.575   5.218   0.361  0.4477  0.4979  3.3876
 1263HK4     C1 6056   5.375   5.270   0.399  0.2203 -0.1464  0.0934
 1263HK4     H1 6057   5.406   5.375   0.411 -1.8220  0.4597  0.2674
 1263HK4     C6 6058   5.242   5.233   0.427  0.2051 -0.2171 -0.0779
 1263HK4     C5 6059   5.207   5.103   0.387  0.1628 -0.4239  0.6194
 1263HK4    C10 6060   5.067   5.063   0.358  0.2211 -0.2395  0.0626
 1263HK4     O1 6061   5.002   5.143   0.291  0.1837 -0.4659 -0.1727
 1263HK4    C16 6062   5.186   5.298   0.547  0.2001  0.0504 -0.2248
 1263HK4    C15 6063   5.267   5.352   0.649 -0.0619  0.4880 -0.2492
 1263HK4     H7 6064   5.376   5.341   0.646 -0.1220 -0.5515  1.0240
 1263HK4    C20 6065   5.214   5.434   0.748 -0.3502 -0.3005  0.2558
 1263HK4     H9 6066   5.284   5.476   0.819  1.4969  0.9387 -2.2215
 1263HK4    C19 6067   5.079   5.470   0.745 -0.2087  0.2155  0.0685
 1263HK4    C18 6068   4.995   5.412   0.643 -0.0865 -0.7007  0.4835
 1263HK4    C17 6069   5.050   5.325   0.549  0.1526 -0.2137  0.1737
 1263HK4     H8 6070   4.988   5.310   0.460  1.5154  1.8530 -1.1679
 1263HK4     N1 6071   4.857   5.439   0.659 -0.0690 -0.2068 -0.1605
 1263HK4    C21 6072   4.859   5.532   0.766 -0.2887  0.5280 -0.7937
 1263HK4    C22 6073   4.989   5.547   0.828 -0.5692 -0.0759 -0.0503
 1263HK4    C26 6074   5.007   5.599   0.956 -0.0035 -0.3858 -0.0035
 1263HK4    H13 6075   5.109   5.611   0.993 -0.5524  0.2567  1.2986
 1263HK4    C25 6076   4.896   5.638   1.030  0.1672 -0.2184  0.1628
 1263HK4    H12 6077   4.906   5.660   1.136  0.3124 -2.6114  0.6752
 1263HK4    C24 6078   4.768   5.618   0.979  0.2301 -0.2346  0.0082
 1263HK4    H11 6079   4.683   5.617   1.048 -0.5985  1.1108 -0.9693
 1263HK4    C23 6080   4.755   5.575   0.848  0.0186 -0.3601  0.0706
 1263HK4    H10 6081   4.659   5.593   0.799  0.5280  0.9343 -0.4581
 1263HK4    C39 6082   4.751   5.360   0.615  0.0149 -0.2247 -0.3294
 1263HK4    C41 6083   4.629   5.430   0.596 -0.3107 -0.7267 -0.0972
 1263HK4    H21 6084   4.625   5.540   0.591 -1.6649 -0.6442  2.0040
 1263HK4    C42 6085   4.514   5.358   0.570 -0.5892 -0.3238  0.0084
 1263HK4    H22 6086   4.423   5.411   0.538  0.2616  0.8410 -0.5279
 1263HK4    C43 6087   4.516   5.219   0.577 -0.3250 -0.3442 -0.4388
 1263HK4    H23 6088   4.424   5.162   0.584 -2.1494  2.6166  0.4677
 1263HK4    C44 6089   4.630   5.146   0.609 -0.2626 -0.0478  0.0172
 1263HK4    H24 6090   4.623   5.037   0.613 -1.7592 -0.0122 -1.0571
 1263HK4    C45 6091   4.748   5.220   0.619 -0.1833 -0.2049  0.2310
 1263HK4    H25 6092   4.846   5.169   0.627  1.5532  2.7345 -1.4997
 1264HK4    H28 6093   3.616   3.876   2.823  1.7749  0.7188 -0.0675
 1264HK4    C48 6094   3.539   3.948   2.850  0.2879 -0.6233 -0.6402
 1264HK4    C47 6095   3.416   3.906   2.900 -0.3100  0.7180 -0.9546
 1264HK4    H27 6096   3.409   3.809   2.952  0.7191  1.1263 -0.0587
 1264HK4    C46 6097   3.307   3.992   2.907 -0.3962  0.5257  0.2303
 1264HK4    H26 6098   3.222   3.961   2.969 -0.5988  0.9703  0.1728
 1264HK4    C40 6099   3.312   4.125   2.861  0.1086  0.3023 -0.3798
 1264HK4    C50 6100   3.437   4.162   2.807  0.3339  0.0274 -0.0457
 1264HK4    H30 6101   3.456   4.268   2.787  0.0009  0.0549 -0.2296
 1264HK4    C49 6102   3.544   4.075   2.793  0.1113 -0.2740  0.1098
 1264HK4    H29 6103   3.638   4.110   2.748 -0.9987  0.4698 -1.6556
 1264HK4     N2 6104   3.228   4.229   2.903 -0.1913 -0.1319  0.1011
 1264HK4    C30 6105   3.173   4.243   3.032  0.3868  0.0602  0.3254
 1264HK4    C29 6106   3.210   4.178   3.150 -0.3505 -0.4964  0.2499
 1264HK4    H15 6107   3.298   4.115   3.142  1.0509  1.0544  2.7985
 1264HK4    C28 6108   3.150   4.205   3.272  0.3047  0.2977  0.4005
 1264HK4    C27 6109   3.038   4.291   3.277 -0.1635 -0.2879  0.1622
 1264HK4    H14 6110   2.983   4.302   3.372  2.1197 -1.4055  1.6698
 1264HK4    C32 6111   2.998   4.353   3.159  0.3819 -0.0432  0.1026
 1264HK4    H16 6112   2.908   4.414   3.151  0.5238  0.1983  0.3577
 1264HK4    C31 6113   3.065   4.340   3.038  0.2239 -0.1028  0.0206
 1264HK4    C34 6114   3.051   4.385   2.901  0.1774 -0.5733 -0.1322
 1264HK4    C33 6115   3.161   4.327   2.827  0.6880  0.3259 -0.0893
 1264HK4    C35 6116   3.167   4.350   2.690 -0.4651 -0.4397 -0.2744
 1264HK4    H17 6117   3.225   4.286   2.624 -0.3890 -0.7772  0.1215
 1264HK4    C36 6118   3.070   4.429   2.628 -0.7600 -0.6396 -0.0700
 1264HK4    H18 6119   3.076   4.461   2.523 -0.2925  0.7749  0.3692
 1264HK4    C37 6120   2.962   4.478   2.699  0.0053  0.6496  0.2160
 1264HK4    H19 6121   2.887   4.535   2.643 -0.2451 -0.3469 -0.4679
 1264HK4    C38 6122   2.951   4.456   2.836  0.4931  0.1604  0.1792
 1264HK4    H20 6123   2.898   4.535   2.891  0.6273  0.8856 -0.7130
 1264HK4    C14 6124   3.176   4.109   3.380 -0.4457 -0.1225  0.2159
 1264HK4     C9 6125   3.092   4.065   3.482 -0.0001 -0.5658  0.3952
 1264HK4     C8 6126   3.140   4.029   3.610  0.3802 -0.7559  0.1976
 1264HK4    C11 6127   3.277   4.025   3.631  0.3284 -0.9037  0.4998
 1264HK4     H4 6128   3.324   3.992   3.726 -2.4531  0.1827  2.3019
 1264HK4    C12 6129   3.365   4.064   3.531 -0.7614  0.2591 -0.0093
 1264HK4     H5 6130   3.474   4.071   3.542 -0.6870 -2.4634  1.3847
 1264HK4    C13 6131   3.315   4.098   3.406 -0.3335  0.3723 -0.1520
 1264HK4     H6 6132   3.388   4.105   3.324  1.8828 -1.1656  1.6253
 1264HK4     C7 6133   3.047   3.991   3.718 -0.3803  0.0988 -0.1502
 1264HK4     O2 6134   3.081   3.972   3.834  0.2248  0.0577 -0.3350
 1264HK4     C4 6135   2.904   3.977   3.682 -0.4404  0.0910  0.0941
 1264HK4     C3 6136   2.819   3.918   3.775 -0.2323  0.0039  0.2290
 1264HK4     H3 6137   2.864   3.876   3.866  0.9638  0.4414 -0.1465
 1264HK4     C2 6138   2.683   3.910   3.749 -0.1256 -0.6259 -0.1324
 1264HK4     H2 6139   2.612   3.869   3.823  1.5451 -1.9812  0.7736
 1264HK4     C1 6140   2.629   3.974   3.639  0.7025  0.5636  0.1487
 1264HK4     H1 6141   2.523   4.001   3.646  0.2519 -1.0651 -0.1526
 1264HK4     C6 6142   2.712   4.036   3.542 -0.2157  0.6547 -0.5835
 1264HK4     C5 6143   2.850   4.031   3.563 -0.3439  0.4509  0.2121
 1264HK4    C10 6144   2.947   4.050   3.452  0.0906 -1.2190  0.2924
 1264HK4     O1 6145   2.914   4.019   3.337  0.3552 -0.0823 -0.0938
 1264HK4    C16 6146   2.637   4.108   3.438 -0.7270  0.2453 -0.5005
 1264HK4    C15 6147   2.504   4.067   3.412 -0.8506 -0.1253  0.6984
 1264HK4     H7 6148   2.475   3.963   3.430  0.6811 -0.9327 -1.2984
 1264HK4    C20 6149   2.421   4.152   3.340 -0.2471  0.1783  0.3566
 1264HK4     H9 6150   2.324   4.109   3.313 -0.4383  0.2144  0.9993
 1264HK4    C19 6151   2.459   4.272   3.282 -0.3301  0.0560  0.0461
 1264HK4    C18 6152   2.594   4.315   3.314 -0.4988  0.4725  0.2049
 1264HK4    C17 6153   2.678   4.228   3.383 -0.2590  0.0118 -0.6614
 1264HK4     H8 6154   2.786   4.244   3.379 -0.2589  0.2020  0.0348
 1264HK4     N1 6155   2.621   4.449   3.281  0.0139  0.1502 -0.7245
 1264HK4    C21 6156   2.498   4.494   3.227 -0.1488  0.8162  0.1858
 1264HK4    C22 6157   2.398   4.390   3.222  0.4569  0.2572 -0.3711
 1264HK4    C26 6158   2.273   4.405   3.165  0.3773 -0.9459 -0.5297
 1264HK4    H13 6159   2.205   4.320   3.154 -1.0359  0.0007  0.7086
 1264HK4    C25 6160   2.240   4.527   3.107  0.4965 -0.7231 -0.1282
 1264HK4    H12 6161   2.139   4.539   3.068 -0.1583 -0.9526  1.4604
 1264HK4    C24 6162   2.333   4.630   3.112  0.2111 -0.4403 -0.5395
 1264HK4    H11 6163   2.298   4.733   3.098 -2.2771 -0.9025  1.8582
 1264HK4    C23 6164   2.459   4.615   3.171  0.2573  0.7139 -0.3252
 1264HK4    H10 6165   2.522   4.702   3.185 -1.7582  2.0157  1.0568
 1264HK4    C39 6166   2.710   4.536   3.346 -0.4449 -0.0494  0.1882
 1264HK4    C41 6167   2.764   4.650   3.282 -0.1644 -0.1284  0.2846
 1264HK4    H21 6168   2.758   4.652   3.173  1.0143  3.0727  0.2243
 1264HK4    C42 6169   2.847   4.739   3.349  0.1814 -0.1139 -0.1629
 1264HK4    H22 6170   2.879   4.834   3.305  1.6648  0.9101  2.9907
 1264HK4    C43 6171   2.888   4.707   3.478  0.3723 -0.0391 -0.2037
 1264HK4    H23 6172   2.972   4.754   3.528 -0.4020  1.0352  0.0967
 1264HK4    C44 6173   2.842   4.590   3.539  0.2557  0.2145  0.1931
 1264HK4    H24 6174   2.880   4.569   3.640  0.0287  1.8809  0.6523
 1264HK4    C45 6175   2.750   4.506   3.478  0.5296  0.1067 -0.0702
 1264HK4    H25 6176   2.689   4.441   3.541  1.9000 -0.9393  0.1825
 1265HK4    H28 6177   7.221   5.807   0.086 -1.0910 -0.2999 -0.0509
 1265HK4    C48 6178   7.228   5.700   0.103 -0.4415 -0.2035  0.2927
 1265HK4    C47 6179   7.141   5.605   0.051 -0.1251 -0.1321 -0.3812
 1265HK4    H27 6180   7.050   5.628  11.243  0.1076  0.2792 -0.5915
 1265HK4    C46 6181   7.156   5.468   0.069 -0.7478 -0.1389  0.0985
 1265HK4    H26 6182   7.093   5.390   0.023  0.7898 -0.2324 -1.9228
 1265HK4    C40 6183   7.264   5.421   0.147 -0.7687 -0.1131  0.1437
 1265HK4    C50 6184   7.343   5.517   0.214 -0.0548  0.0088 -0.8612
 1265HK4    H30 6185   7.414   5.495   0.295 -0.5862  0.2886 -0.3100
 1265HK4    C49 6186   7.327   5.653   0.189  0.3857  0.1358 -0.4634
 1265HK4    H29 6187   7.384   5.720   0.254  2.5993 -1.6733 -0.4749
 1265HK4     N2 6188   7.283   5.288   0.186  0.1601  0.0080  0.1050
 1265HK4    C30 6189   7.172   5.201   0.181  0.0675  0.1500 -0.2975
 1265HK4    C29 6190   7.034   5.216   0.188  0.0628  0.0986 -0.2692
 1265HK4    H15 6191   6.995   5.314   0.215 -0.6360 -0.3462  0.3477
 1265HK4    C28 6192   6.946   5.110   0.171  0.1728 -0.0831  0.2740
 1265HK4    C27 6193   7.002   4.986   0.135 -0.1704 -0.0703 -0.3112
 1265HK4    H14 6194   6.933   4.906   0.104 -1.4553  1.6808 -2.1882
 1265HK4    C32 6195   7.139   4.961   0.134 -0.1823 -0.2391  1.0463
 1265HK4    H16 6196   7.166   4.856   0.137 -0.7207 -0.5928 -3.1518
 1265HK4    C31 6197   7.224   5.067   0.164 -0.2761 -0.1564  1.0208
 1265HK4    C34 6198   7.368   5.075   0.181 -0.1147  0.2707 -0.4373
 1265HK4    C33 6199   7.404   5.215   0.191  0.2488  0.1485 -0.0006
 1265HK4    C35 6200   7.527   5.246   0.247  0.1104  0.3404  0.1983
 1265HK4    H17 6201   7.547   5.347   0.282  2.8808 -0.8404  2.2019
 1265HK4    C36 6202   7.621   5.150   0.284  0.0015  0.0451 -0.2880
 1265HK4    H18 6203   7.712   5.186   0.334 -0.0816  0.1141 -0.1859
 1265HK4    C37 6204   7.589   5.016   0.266 -0.1349  0.0530 -0.1179
 1265HK4    H19 6205   7.664   4.939   0.282 -0.4454 -0.2029  0.0958
 1265HK4    C38 6206   7.462   4.981   0.221 -0.3357  0.3312  0.2295
 1265HK4    H20 6207   7.430   4.877   0.221  1.9606 -0.4262  3.2545
 1265HK4    C14 6208   6.809   5.117   0.223 -0.1152 -0.1613 -0.4617
 1265HK4     C9 6209   6.731   5.010   0.271  0.1775 -0.0513  0.2645
 1265HK4     C8 6210   6.591   5.019   0.274  0.1533 -0.3215 -0.1013
 1265HK4    C11 6211   6.528   5.134   0.228  0.6217 -0.1067 -0.2048
 1265HK4     H4 6212   6.423   5.147   0.258  0.3825  1.2209 -1.5484
 1265HK4    C12 6213   6.599   5.247   0.187  0.4505  0.1827  0.2837
 1265HK4     H5 6214   6.547   5.340   0.158 -1.9171 -0.6768  1.5988
 1265HK4    C13 6215   6.737   5.232   0.187  0.4761  0.4281  0.2363
 1265HK4     H6 6216   6.790   5.319   0.144  0.1634  0.3941 -0.2299
 1265HK4     C7 6217   6.500   4.902   0.288  0.0349 -0.2653 -0.3841
 1265HK4     O2 6218   6.390   4.916   0.340  0.2965 -0.1749  0.1585
 1265HK4     C4 6219   6.564   4.769   0.299  0.3005 -0.1030  0.0605
 1265HK4     C3 6220   6.485   4.655   0.288  0.2231  0.0098 -0.5787
 1265HK4     H3 6221   6.376   4.664   0.289  0.2411  0.2693  1.4333
 1265HK4     C2 6222   6.541   4.528   0.285 -0.1856 -0.1732 -0.4534
 1265HK4     H2 6223   6.478   4.438   0.278  1.4871 -1.5514  1.6817
 1265HK4     C1 6224   6.680   4.520   0.289 -0.1697  0.3300  0.0594
 1265HK4     H1 6225   6.726   4.421   0.273  1.0751  0.7805  0.7651
 1265HK4     C6 6226   6.765   4.631   0.305  0.3312 -0.1348  0.6899
 1265HK4     C5 6227   6.704   4.757   0.311  0.3285 -0.0879 -0.2223
 1265HK4    C10 6228   6.789   4.879   0.314  0.2236 -0.0243  0.2840
 1265HK4     O1 6229   6.874   4.891   0.402  0.6932 -0.2766 -0.1268
 1265HK4    C16 6230   6.907   4.609   0.276  0.1676  0.0462 -0.2862
 1265HK4    C15 6231   6.950   4.520   0.175  0.2315 -0.0049 -0.2129
 1265HK4     H7 6232   6.878   4.465   0.112  3.2248 -2.4097 -1.6579
 1265HK4    C20 6233   7.077   4.464   0.172  0.2744  0.0831 -0.0890
 1265HK4     H9 6234   7.104   4.426   0.074  0.2387 -1.9355  0.6510
 1265HK4    C19 6235   7.159   4.476   0.284 -0.4173 -0.2799  0.4647
 1265HK4    C18 6236   7.114   4.559   0.394 -0.2158  0.7380 -0.2171
 1265HK4    C17 6237   6.989   4.619   0.388 -0.7050 -0.2209  0.3805
 1265HK4     H8 6238   6.966   4.682   0.474 -3.1215 -1.3578  0.6058
 1265HK4     N1 6239   7.215   4.585   0.489 -0.1069 -0.1895 -0.0779
 1265HK4    C21 6240   7.323   4.507   0.445  0.0880  0.1244 -0.1547
 1265HK4    C22 6241   7.294   4.439   0.320 -0.2095 -0.0045 -0.0164
 1265HK4    C26 6242   7.371   4.329   0.285  0.3680  0.3238  0.2116
 1265HK4    H13 6243   7.349   4.267   0.198  0.8125 -0.7613  0.8716
 1265HK4    C25 6244   7.482   4.303   0.364  0.6663  0.2138 -0.2409
 1265HK4    H12 6245   7.548   4.220   0.337 -1.7149 -1.1157 -2.2003
 1265HK4    C24 6246   7.517   4.373   0.479 -0.2667 -0.2195  0.3026
 1265HK4    H11 6247   7.615   4.356   0.525 -0.5265 -0.6463  0.7065
 1265HK4    C23 6248   7.430   4.471   0.527 -0.1589 -0.0265  0.1024
 1265HK4    H10 6249   7.433   4.490   0.634 -0.4154 -0.7753  0.2504
 1265HK4    C39 6250   7.235   4.705   0.558  0.0762 -0.1056 -0.2785
 1265HK4    C41 6251   7.282   4.706   0.691 -0.1239  0.7502 -0.2079
 1265HK4    H21 6252   7.280   4.608   0.741 -0.0320  1.2944  0.8771
 1265HK4    C42 6253   7.335   4.821   0.747  0.2707  0.3398  0.2637
 1265HK4    H22 6254   7.353   4.826   0.855 -0.7067  0.0292  0.4388
 1265HK4    C43 6255   7.342   4.940   0.674 -0.3426  0.2823  0.1110
 1265HK4    H23 6256   7.361   5.030   0.731 -1.0842 -0.6927  1.9456
 1265HK4    C44 6257   7.296   4.941   0.543 -0.0347  0.4320  0.0037
 1265HK4    H24 6258   7.311   5.028   0.477  0.2467 -0.4111 -1.0542
 1265HK4    C45 6259   7.243   4.826   0.485 -0.3247  0.3505  0.4286
 1265HK4    H25 6260   7.208   4.836   0.382  3.1627 -0.3652 -0.8992
 1266HK4    H28 6261   7.683  10.679   6.591 -1.1834  0.0023 -0.8597
 1266HK4    C48 6262   7.741  10.601   6.542 -0.2514  0.3440 -0.3130
 1266HK4    C47 6263   7.697  10.469   6.550  0.0981  0.2172 -0.4689
 1266HK4    H27 6264   7.602  10.462   6.606  0.7638  0.5778  0.7030
 1266HK4    C46 6265   7.777  10.367   6.502  0.5796  0.1888  0.3924
 1266HK4    H26 6266   7.736  10.268   6.478  0.1132  1.2324 -3.5555
 1266HK4    C40 6267   7.909  10.392   6.457  0.5668  0.1410  0.3259
 1266HK4    C50 6268   7.951  10.526   6.446  0.3201  0.2520  0.7045
 1266HK4    H30 6269   8.048  10.552   6.401  0.0500 -0.4904 -0.3149
 1266HK4    C49 6270   7.865  10.628   6.485 -0.4915  0.2026 -0.9061
 1266HK4    H29 6271   7.892  10.727   6.446 -1.7253  0.9308  0.0129
 1266HK4     N2 6272   8.016  10.303   6.465  0.4559 -0.0129  0.0557
 1266HK4    C30 6273   8.009  10.196   6.557  0.5059  0.2431  0.3538
 1266HK4    C29 6274   7.941  10.176   6.676  0.0323 -0.4661 -0.0346
 1266HK4    H15 6275   7.890  10.264   6.715 -0.7651 -0.0400 -1.9753
 1266HK4    C28 6276   7.944  10.054   6.743  0.2026 -0.2116  0.4188
 1266HK4    C27 6277   8.024   9.950   6.690 -0.1350 -0.2402 -0.0417
 1266HK4    H14 6278   8.028   9.855   6.744  0.8210 -1.2559 -1.8486
 1266HK4    C32 6279   8.111   9.976   6.585  0.1287 -0.2707  0.1708
 1266HK4    H16 6280   8.158   9.893   6.532 -2.7412 -0.3040 -2.4413
 1266HK4    C31 6281   8.112  10.100   6.522  0.1360 -0.1582  0.3878
 1266HK4    C34 6282   8.183  10.149   6.406 -0.0584  0.0771  0.3707
 1266HK4    C33 6283   8.120  10.276   6.374  0.6080  0.3469  0.1259
 1266HK4    C35 6284   8.183  10.356   6.279  0.2979  0.3980 -0.0408
 1266HK4    H17 6285   8.114  10.413   6.217 -1.0631  2.6410  3.3161
 1266HK4    C36 6286   8.306  10.318   6.226 -0.3584 -0.9880 -0.5693
 1266HK4    H18 6287   8.361  10.389   6.162  0.0905 -1.2983 -0.5257
 1266HK4    C37 6288   8.362  10.194   6.254  0.6668 -0.3280  0.3050
 1266HK4    H19 6289   8.452  10.159   6.205 -0.4103 -1.2177 -1.0445
 1266HK4    C38 6290   8.296  10.106   6.339  0.0634  0.2584  0.4548
 1266HK4    H20 6291   8.325  10.002   6.354 -2.0663 -0.4825 -0.3988
 1266HK4    C14 6292   7.847  10.030   6.850 -0.4906 -0.0972 -0.1780
 1266HK4     C9 6293   7.801  10.129   6.939  0.3113  0.2302 -0.1301
 1266HK4     C8 6294   7.669  10.140   6.986  0.5418  0.4858  0.4579
 1266HK4    C11 6295   7.589  10.033   6.946  0.3521  0.6163  0.4823
 1266HK4     H4 6296   7.480  10.037   6.959  0.3337 -0.6671  0.7721
 1266HK4    C12 6297   7.634   9.922   6.875  0.1840  0.7948  0.1010
 1266HK4     H5 6298   7.572   9.843   6.831 -1.9663  2.2279  0.4697
 1266HK4    C13 6299   7.765   9.916   6.830  0.0099 -0.4411 -0.2679
 1266HK4     H6 6300   7.801   9.825   6.781 -1.7569 -0.8616 -0.7937
 1266HK4     C7 6301   7.623  10.256   7.066  0.0842  0.0516  0.8266
 1266HK4     O2 6302   7.507  10.264   7.105 -0.3400 -0.0202 -0.3872
 1266HK4     C4 6303   7.727  10.354   7.104  0.2281  0.0420  0.4636
 1266HK4     C3 6304   7.681  10.468   7.170  0.1649  0.0150  0.4720
 1266HK4     H3 6305   7.583  10.474   7.218 -0.3116  0.2494 -0.5125
 1266HK4     C2 6306   7.772  10.573   7.182  0.0585  0.1869 -0.2445
 1266HK4     H2 6307   7.739  10.668   7.228 -0.5599  0.8421 -1.9640
 1266HK4     C1 6308   7.902  10.570   7.134  0.0777  0.1841 -0.1922
 1266HK4     H1 6309   7.954  10.664   7.154  1.3965 -0.7113  0.6472
 1266HK4     C6 6310   7.942  10.462   7.051 -0.0689 -0.0170 -0.0003
 1266HK4     C5 6311   7.856  10.352   7.048 -0.2198  0.1102 -0.5881
 1266HK4    C10 6312   7.904  10.224   6.989  0.4103  0.2193 -0.3119
 1266HK4     O1 6313   7.996  10.176   7.056 -0.1378  0.6316  0.7540
 1266HK4    C16 6314   8.032  10.508   6.945 -0.0923  0.1610  0.0548
 1266HK4    C15 6315   8.107  10.412   6.873  0.0497  0.1456  0.2258
 1266HK4     H7 6316   8.137  10.322   6.928 -0.8935 -0.2715  0.0830
 1266HK4    C20 6317   8.179  10.433   6.756 -0.3289  0.3390  0.0268
 1266HK4     H9 6318   8.249  10.358   6.718 -1.1666 -1.0724  1.1903
 1266HK4    C19 6319   8.173  10.562   6.706  0.2151  0.2756 -0.2129
 1266HK4    C18 6320   8.095  10.665   6.773  0.6010  0.3157  0.1724
 1266HK4    C17 6321   8.024  10.635   6.889  0.1475  0.0790 -0.1676
 1266HK4     H8 6322   7.935  10.694   6.910 -1.0947 -1.8673  0.1403
 1266HK4     N1 6323   8.093  10.785   6.698 -0.1168  0.1347 -0.1122
 1266HK4    C21 6324   8.178  10.764   6.588 -0.1622 -0.1152 -0.1028
 1266HK4    C22 6325   8.223  10.626   6.586  0.3196  0.0430 -0.2906
 1266HK4    C26 6326   8.310  10.586   6.485  0.2143 -0.3390 -0.2319
 1266HK4    H13 6327   8.345  10.483   6.479 -0.9833 -0.6879 -1.7722
 1266HK4    C25 6328   8.356  10.677   6.391  0.2439  0.1486  0.2565
 1266HK4    H12 6329   8.441  10.655   6.326 -0.2187 -1.5783  0.2090
 1266HK4    C24 6330   8.305  10.806   6.385 -0.2292 -0.0581 -0.1831
 1266HK4    H11 6331   8.324  10.868   6.296  1.6502 -0.8926 -0.3787
 1266HK4    C23 6332   8.218  10.848   6.485 -0.9333 -0.4077 -0.6434
 1266HK4    H10 6333   8.174  10.947   6.467  0.0861  0.6277  2.2878
 1266HK4    C39 6334   8.084  10.913   6.753 -0.3531  0.0085  0.1457
 1266HK4    C41 6335   8.106  10.944   6.889  0.4113  0.0628  0.0083
 1266HK4    H21 6336   8.160  10.874   6.954  2.2005  3.6629  2.5117
 1266HK4    C42 6337   8.083  11.066   6.950 -0.6445 -0.3632  0.4832
 1266HK4    H22 6338   8.105  11.087   7.055  1.1262 -2.3615  0.5258
 1266HK4    C43 6339   8.021  11.163   6.871  0.7501  0.1078 -0.0450
 1266HK4    H23 6340   7.970  11.246   6.919 -0.3670  0.8288 -2.3955
 1266HK4    C44 6341   7.988  11.136   6.738  0.6625 -0.1362  0.0250
 1266HK4    H24 6342   7.945  11.217   6.677 -1.0975 -1.6103 -0.7196
 1266HK4    C45 6343   8.024  11.017   6.678 -0.3314 -0.2863 -0.2806
 1266HK4    H25 6344   7.987  11.009   6.574 -1.1694  1.3672 -0.1183
 1267HK4    H28 6345   7.273   2.232   7.114  0.3561  1.5064 -1.4148
 1267HK4    C48 6346   7.334   2.280   7.191 -0.0386  0.4987 -0.4569
 1267HK4    C47 6347   7.265   2.346   7.291  0.0944 -0.5064  0.3126
 1267HK4    H27 6348   7.155   2.344   7.292  0.1088 -1.6160 -0.0258
 1267HK4    C46 6349   7.336   2.417   7.388 -0.1234  0.1007  0.0332
 1267HK4    H26 6350   7.281   2.495   7.442  1.8557  0.6352  1.2919
 1267HK4    C40 6351   7.477   2.421   7.382 -0.1167 -0.2635 -0.0783
 1267HK4    C50 6352   7.542   2.344   7.284  0.3794  0.3869 -0.2670
 1267HK4    H30 6353   7.648   2.316   7.296  0.0295 -0.3011  1.4053
 1267HK4    C49 6354   7.473   2.280   7.182  0.0159 -0.1481  0.3061
 1267HK4    H29 6355   7.523   2.242   7.092 -1.4829 -0.7024 -0.3223
 1267HK4     N2 6356   7.546   2.488   7.484 -0.7110  0.6887 -0.2857
 1267HK4    C30 6357   7.514   2.493   7.621 -0.0219 -0.0316 -0.0938
 1267HK4    C29 6358   7.434   2.417   7.705 -0.2434  0.2766 -0.0252
 1267HK4    H15 6359   7.347   2.374   7.655  1.1194 -1.5191 -0.8923
 1267HK4    C28 6360   7.423   2.426   7.843 -0.1681  0.2264 -0.0150
 1267HK4    C27 6361   7.507   2.522   7.902  0.1900  0.0269 -0.1992
 1267HK4    H14 6362   7.503   2.530   8.012  1.6743 -0.2586 -0.1138
 1267HK4    C32 6363   7.590   2.608   7.830  0.4624 -0.0250  0.0510
 1267HK4    H16 6364   7.665   2.667   7.883 -0.0639 -2.1332  3.3166
 1267HK4    C31 6365   7.589   2.595   7.692 -0.8961  0.5651 -0.0114
 1267HK4    C34 6366   7.670   2.655   7.587 -0.0586 -0.3962  0.0751
 1267HK4    C33 6367   7.642   2.589   7.461  0.1028 -0.0475 -0.1442
 1267HK4    C35 6368   7.719   2.616   7.349 -0.6144  0.5664 -0.4964
 1267HK4    H17 6369   7.690   2.574   7.253 -0.4905  1.4959 -0.9424
 1267HK4    C36 6370   7.816   2.715   7.353  0.3638 -0.4211  0.7536
 1267HK4    H18 6371   7.867   2.745   7.260 -0.3000 -0.5736  0.3387
 1267HK4    C37 6372   7.840   2.783   7.472  0.4529  0.1228  0.4298
 1267HK4    H19 6373   7.915   2.862   7.479  0.3122  0.7511 -3.9059
 1267HK4    C38 6374   7.768   2.753   7.587  0.0684 -0.5216  0.0261
 1267HK4    H20 6375   7.790   2.804   7.681 -0.2530 -0.2167 -0.0653
 1267HK4    C14 6376   7.305   2.367   7.909 -0.1094  0.0952 -0.0278
 1267HK4     C9 6377   7.224   2.410   8.015 -0.2432  0.2788 -0.2034
 1267HK4     C8 6378   7.126   2.321   8.063  0.2074 -0.0646  0.0835
 1267HK4    C11 6379   7.118   2.194   8.006 -0.6455  0.2857 -0.5821
 1267HK4     H4 6380   7.042   2.123   8.039  0.1915 -0.6133 -0.5641
 1267HK4    C12 6381   7.200   2.142   7.906  0.0436  0.1535  0.0412
 1267HK4     H5 6382   7.193   2.041   7.862 -3.2563  0.1256  0.4994
 1267HK4    C13 6383   7.293   2.234   7.861  0.1780  0.0328  0.0739
 1267HK4     H6 6384   7.338   2.209   7.764  0.0121 -0.0492  0.0190
 1267HK4     C7 6385   7.063   2.340   8.196 -0.5680  0.4609 -0.3605
 1267HK4     O2 6386   6.974   2.266   8.235 -0.1837  0.2173  0.0509
 1267HK4     C4 6387   7.088   2.470   8.262  0.2228  0.0849  0.0803
 1267HK4     C3 6388   7.007   2.513   8.366  0.0814  0.2101 -0.0793
 1267HK4     H3 6389   6.921   2.450   8.394 -1.9204  3.1081  0.5686
 1267HK4     C2 6390   7.039   2.618   8.452  0.4434  0.0274  0.0067
 1267HK4     H2 6391   6.963   2.676   8.506  1.8389  0.6851  1.2714
 1267HK4     C1 6392   7.162   2.677   8.425  0.5329 -0.1077  0.1096
 1267HK4     H1 6393   7.187   2.764   8.486 -0.1296 -0.6598  1.1857
 1267HK4     C6 6394   7.253   2.638   8.324  0.4228 -0.2232  0.0593
 1267HK4     C5 6395   7.203   2.546   8.231 -0.1771  0.5152 -0.3674
 1267HK4    C10 6396   7.249   2.536   8.090  1.0257 -0.1136  0.0565
 1267HK4     O1 6397   7.255   2.639   8.024  0.2761 -0.5705 -0.7425
 1267HK4    C16 6398   7.396   2.658   8.351  0.3670 -0.0604  0.2392
 1267HK4    C15 6399   7.436   2.653   8.486 -0.3021  0.4941  0.4681
 1267HK4     H7 6400   7.369   2.615   8.565  0.9577 -0.2156  1.1999
 1267HK4    C20 6401   7.559   2.709   8.520  0.0535  0.0623 -0.1049
 1267HK4     H9 6402   7.588   2.699   8.624  1.2560 -0.6686 -0.5031
 1267HK4    C19 6403   7.650   2.757   8.427  0.2039 -0.6734 -0.3434
 1267HK4    C18 6404   7.606   2.766   8.289  0.1129  0.3079 -0.2530
 1267HK4    C17 6405   7.479   2.720   8.258  0.0961  0.1040  0.1059
 1267HK4     H8 6406   7.442   2.749   8.160 -1.1374  0.2977  0.6220
 1267HK4     N1 6407   7.715   2.804   8.208  0.0548  0.0321 -0.4616
 1267HK4    C21 6408   7.831   2.800   8.288 -0.1078 -0.0594 -0.2280
 1267HK4    C22 6409   7.793   2.782   8.426  0.0374  0.3193 -0.1380
 1267HK4    C26 6410   7.889   2.770   8.527  0.1859  0.0029 -0.3145
 1267HK4    H13 6411   7.870   2.811   8.626 -1.2840 -2.5521  0.5049
 1267HK4    C25 6412   8.023   2.756   8.493  0.3054 -0.0794  0.1887
 1267HK4    H12 6413   8.097   2.728   8.568  1.6134  0.6600 -0.8001
 1267HK4    C24 6414   8.059   2.767   8.359 -0.1473  0.2450  0.0961
 1267HK4    H11 6415   8.163   2.741   8.337  0.0303  1.1435 -0.1878
 1267HK4    C23 6416   7.967   2.789   8.257 -0.0635 -0.0363 -0.0416
 1267HK4    H10 6417   8.007   2.818   8.160 -0.3868 -1.2264 -0.5378
 1267HK4    C39 6418   7.698   2.886   8.096 -0.6270  0.1349 -0.2863
 1267HK4    C41 6419   7.802   2.895   8.001 -0.6547 -0.0639 -0.3358
 1267HK4    H21 6420   7.871   2.811   7.987 -0.5651 -0.2251  1.0189
 1267HK4    C42 6421   7.818   3.005   7.917 -0.4121 -0.2254 -0.4987
 1267HK4    H22 6422   7.892   3.010   7.835  3.3672 -1.1763  2.7200
 1267HK4    C43 6423   7.734   3.114   7.937 -0.2095 -0.1794  0.1010
 1267HK4    H23 6424   7.728   3.183   7.853 -0.2430  0.0721  0.3120
 1267HK4    C44 6425   7.636   3.112   8.035 -0.1648 -0.0449  0.1486
 1267HK4    H24 6426   7.554   3.184   8.017 -1.3675 -1.3023  0.4539
 1267HK4    C45 6427   7.612   2.998   8.110 -0.0480  0.4358  0.9181
 1267HK4    H25 6428   7.573   3.017   8.211 -1.4793  0.8611  0.2949
 1268HK4    H28 6429   4.202   4.763   3.007  1.6513  1.4973 -0.4488
 1268HK4    C48 6430   4.136   4.846   2.981 -0.2743  0.1538  0.0911
 1268HK4    C47 6431   4.071   4.836   2.859  0.0581  0.2448 -0.0951
 1268HK4    H27 6432   4.070   4.742   2.801  3.0693  1.0097 -1.4339
 1268HK4    C46 6433   3.993   4.942   2.814 -0.2491  0.1041  0.1065
 1268HK4    H26 6434   3.952   4.931   2.713  0.0128 -1.3410  0.1522
 1268HK4    C40 6435   3.980   5.057   2.894 -0.3863  0.0717  0.1327
 1268HK4    C50 6436   4.040   5.060   3.022  0.0057  0.0361 -0.0473
 1268HK4    H30 6437   4.032   5.151   3.083  3.2115 -1.3680  2.5866
 1268HK4    C49 6438   4.123   4.957   3.063  0.2990  0.2911 -0.0045
 1268HK4    H29 6439   4.153   4.950   3.169  2.9047 -3.5105 -0.8709
 1268HK4     N2 6440   3.932   5.174   2.833  0.5040  0.4676  0.1801
 1268HK4    C30 6441   3.948   5.199   2.696  0.3539  0.1011  0.0963
 1268HK4    C29 6442   4.047   5.147   2.614 -0.3929 -0.7255 -0.2930
 1268HK4    H15 6443   4.138   5.097   2.646  0.1860  1.7708  2.1859
 1268HK4    C28 6444   4.041   5.172   2.477 -0.0140 -0.2938 -0.2316
 1268HK4    C27 6445   3.942   5.263   2.435 -0.3760 -0.2527  0.6911
 1268HK4    H14 6446   3.923   5.287   2.329 -1.9156  1.4213  1.3179
 1268HK4    C32 6447   3.844   5.321   2.515 -0.6870  0.0557  0.0915
 1268HK4    H16 6448   3.783   5.405   2.481  1.1466  1.6798  0.7153
 1268HK4    C31 6449   3.842   5.287   2.649  0.4599  0.2723  0.1721
 1268HK4    C34 6450   3.764   5.316   2.768 -0.4806  0.0711 -0.3887
 1268HK4    C33 6451   3.819   5.243   2.881  0.1863  0.4109 -0.4926
 1268HK4    C35 6452   3.776   5.278   3.008  0.1570  0.5408 -0.5381
 1268HK4    H17 6453   3.808   5.218   3.094 -1.1617 -0.2486 -0.5715
 1268HK4    C36 6454   3.677   5.375   3.022 -0.3947 -0.1403  0.4202
 1268HK4    H18 6455   3.642   5.414   3.119 -1.4947 -0.0955  0.0106
 1268HK4    C37 6456   3.623   5.440   2.911 -0.3028 -0.0540  0.4248
 1268HK4    H19 6457   3.575   5.538   2.917 -2.5847 -1.0485 -1.0660
 1268HK4    C38 6458   3.665   5.412   2.782 -0.3547  0.0922  0.3755
 1268HK4    H20 6459   3.625   5.468   2.697 -0.2697  1.1710  1.0278
 1268HK4    C14 6460   4.141   5.110   2.389  0.3274 -0.1584  0.0562
 1268HK4     C9 6461   4.161   5.158   2.259  0.1481  0.1032  0.1270
 1268HK4     C8 6462   4.203   5.080   2.150  0.0726 -0.4579  0.5004
 1268HK4    C11 6463   4.230   4.946   2.177  1.3709 -0.2211  0.3795
 1268HK4     H4 6464   4.275   4.885   2.097 -1.2192  1.6686 -2.6315
 1268HK4    C12 6465   4.210   4.895   2.305  0.1162 -0.2436  0.1807
 1268HK4     H5 6466   4.223   4.786   2.316  2.1208 -0.0053  0.4321
 1268HK4    C13 6467   4.171   4.974   2.413  0.1324 -0.1881  0.1463
 1268HK4     H6 6468   4.188   4.930   2.512  0.2234 -2.4247 -0.8220
 1268HK4     C7 6469   4.176   5.132   2.014  0.0692 -0.7785  0.3756
 1268HK4     O2 6470   4.223   5.074   1.917 -0.0746 -0.2476 -0.0133
 1268HK4     C4 6471   4.103   5.260   2.003  0.3418 -0.7208 -0.8366
 1268HK4     C3 6472   4.026   5.285   1.890 -0.7808 -0.2387  0.0216
 1268HK4     H3 6473   4.032   5.218   1.804 -0.9278 -0.0498 -0.1370
 1268HK4     C2 6474   3.959   5.406   1.879  0.4437  0.4049 -0.4431
 1268HK4     H2 6475   3.903   5.417   1.784  0.3019  1.0667 -0.2897
 1268HK4     C1 6476   3.970   5.503   1.978  0.0255  0.0758 -0.0708
 1268HK4     H1 6477   3.906   5.593   1.977  1.6773  1.3183 -2.8249
 1268HK4     C6 6478   4.053   5.482   2.090 -0.6191 -1.1093  0.1920
 1268HK4     C5 6479   4.122   5.361   2.100  0.0375 -0.8159 -0.6778
 1268HK4    C10 6480   4.160   5.305   2.233 -0.4261  0.0451 -0.1783
 1268HK4     O1 6481   4.243   5.367   2.299 -0.3383  0.1704 -0.4064
 1268HK4    C16 6482   4.027   5.571   2.204 -0.0025  0.0490 -0.5535
 1268HK4    C15 6483   3.897   5.609   2.245  0.2641 -0.0616  0.4252
 1268HK4     H7 6484   3.819   5.537   2.216 -0.7822  1.6346 -1.1017
 1268HK4    C20 6485   3.872   5.718   2.326  0.0358  0.2956 -0.1195
 1268HK4     H9 6486   3.773   5.748   2.360 -0.1726  0.3835 -0.7986
 1268HK4    C19 6487   3.979   5.792   2.376  0.3124  0.0284 -0.3148
 1268HK4    C18 6488   4.113   5.759   2.331  0.2420 -0.4339 -0.1832
 1268HK4    C17 6489   4.133   5.648   2.251  0.1672 -0.2157 -0.5051
 1268HK4     H8 6490   4.232   5.603   2.258  0.3003 -0.3757 -2.9059
 1268HK4     N1 6491   4.201   5.811   2.428 -0.6215  0.4858  0.1212
 1268HK4    C21 6492   4.131   5.871   2.535 -0.2875  0.2026  0.5018
 1268HK4    C22 6493   3.990   5.862   2.502 -0.1573 -0.8069  0.1931
 1268HK4    C26 6494   3.896   5.932   2.577 -0.0872  0.1183 -0.5762
 1268HK4    H13 6495   3.797   5.925   2.532  0.3118  0.7043 -1.5716
 1268HK4    C25 6496   3.932   6.024   2.675  0.4496  0.1002 -0.7520
 1268HK4    H12 6497   3.857   6.061   2.745  1.1211 -1.3488  0.7563
 1268HK4    C24 6498   4.068   6.042   2.694  0.3195  0.2510  0.0418
 1268HK4    H11 6499   4.105   6.098   2.781 -2.1502 -0.0652  1.3343
 1268HK4    C23 6500   4.166   5.971   2.625  0.4448 -0.1574  0.6276
 1268HK4    H10 6501   4.270   6.000   2.635  0.2103  1.9169 -2.0991
 1268HK4    C39 6502   4.337   5.831   2.402 -0.4436 -0.1957  0.4994
 1268HK4    C41 6503   4.432   5.849   2.505  0.3861 -0.2147 -0.2503
 1268HK4    H21 6504   4.420   5.800   2.603 -2.9410  1.3132  0.1853
 1268HK4    C42 6505   4.558   5.902   2.483  0.3992  0.0266  0.3896
 1268HK4    H22 6506   4.606   5.938   2.575 -2.2439 -2.1243  2.7092
 1268HK4    C43 6507   4.600   5.934   2.355 -0.1908  0.3091  0.2677
 1268HK4    H23 6508   4.703   5.963   2.336 -0.2939  0.3086 -0.3334
 1268HK4    C44 6509   4.513   5.910   2.249 -0.1385  0.3795  0.2103
 1268HK4    H24 6510   4.554   5.922   2.148  0.9661 -0.9050  0.4834
 1268HK4    C45 6511   4.385   5.860   2.273  0.0394  0.1852  0.7635
 1268HK4    H25 6512   4.318   5.850   2.187 -3.2024  3.6181  2.7744
 1269HK4    H28 6513   5.466   7.064   9.920  0.4616 -1.4725 -1.5814
 1269HK4    C48 6514   5.408   7.012   9.995 -0.1595  1.0085 -0.2822
 1269HK4    C47 6515   5.296   6.933   9.970  0.5205 -0.0775  0.0769
 1269HK4    H27 6516   5.264   6.933   9.865  0.4622  0.0234  0.0952
 1269HK4    C46 6517   5.235   6.849  10.062  0.0255 -0.0503 -0.2204
 1269HK4    H26 6518   5.160   6.779  10.023  0.8490 -2.6167  2.5341
 1269HK4    C40 6519   5.291   6.831  10.191  0.0854  0.2989 -0.1974
 1269HK4    C50 6520   5.414   6.897  10.210  0.4780 -0.4026 -0.2871
 1269HK4    H30 6521   5.475   6.862  10.295 -0.0045 -0.4396  0.0507
 1269HK4    C49 6522   5.461   6.993  10.122 -0.6355  0.2405 -0.1899
 1269HK4    H29 6523   5.549   7.056  10.143 -1.4951  0.9152  1.4893
 1269HK4     N2 6524   5.243   6.728  10.273 -0.0070  0.5118  0.0184
 1269HK4    C30 6525   5.166   6.617  10.232 -0.8042  1.0846 -0.0326
 1269HK4    C29 6526   5.180   6.532  10.123 -0.1624  0.0765  0.8343
 1269HK4    H15 6527   5.238   6.562  10.036 -1.8213  0.5116 -0.1343
 1269HK4    C28 6528   5.126   6.406  10.102  0.0158  0.2118 -0.5154
 1269HK4    C27 6529   5.046   6.365  10.211  0.3825 -0.2767 -0.4282
 1269HK4    H14 6530   5.014   6.259  10.207  1.0296 -0.4873 -0.0633
 1269HK4    C32 6531   5.017   6.443  10.322  0.4298 -0.3755 -0.3468
 1269HK4    H16 6532   4.926   6.426  10.380 -0.1260 -0.8870 -1.3529
 1269HK4    C31 6533   5.078   6.567  10.335  0.5893 -0.5290  0.3970
 1269HK4    C34 6534   5.104   6.654  10.448  0.0962  0.0530  0.0642
 1269HK4    C33 6535   5.217   6.736  10.411  0.1636 -0.0300  0.0861
 1269HK4    C35 6536   5.266   6.833  10.498  0.5173 -0.5418  0.4582
 1269HK4    H17 6537   5.362   6.879  10.478 -0.1201  1.2053  1.3154
 1269HK4    C36 6538   5.200   6.854  10.618 -0.7032 -0.4337 -0.2179
 1269HK4    H18 6539   5.250   6.922  10.689 -1.3799  0.5023 -0.6229
 1269HK4    C37 6540   5.088   6.780  10.655 -0.5198 -0.6090 -0.0175
 1269HK4    H19 6541   5.025   6.816  10.737 -1.9337 -0.1476 -1.2933
 1269HK4    C38 6542   5.048   6.675  10.574 -1.0731 -0.0876 -0.4262
 1269HK4    H20 6543   4.968   6.613  10.615  0.4710  0.0032  2.8915
 1269HK4    C14 6544   5.142   6.330   9.977 -0.4775 -0.4414 -0.1913
 1269HK4     C9 6545   5.049   6.236   9.933 -0.3186 -0.9094  0.4622
 1269HK4     C8 6546   5.090   6.110   9.884 -0.2852 -0.8789  0.4128
 1269HK4    C11 6547   5.226   6.087   9.869 -0.0685  0.4873  0.1670
 1269HK4     H4 6548   5.267   5.987   9.849  1.5832  0.6893  2.3096
 1269HK4    C12 6549   5.319   6.186   9.896  0.3826 -0.0645  0.6659
 1269HK4     H5 6550   5.424   6.166   9.869  0.0540 -1.0264  0.1170
 1269HK4    C13 6551   5.278   6.309   9.946 -0.4746  0.1728 -0.6008
 1269HK4     H6 6552   5.355   6.388   9.947 -1.0833  0.7912 -1.4063
 1269HK4     C7 6553   4.998   6.020   9.812 -0.3912 -0.6541  0.2624
 1269HK4     O2 6554   5.016   5.899   9.824  0.5551 -0.5634 -0.2609
 1269HK4     C4 6555   4.871   6.079   9.764 -0.5171 -0.7252  0.5055
 1269HK4     C3 6556   4.793   6.002   9.677 -0.5599 -0.5205  0.3618
 1269HK4     H3 6557   4.812   5.894   9.688  0.7005 -0.1543  2.1092
 1269HK4     C2 6558   4.690   6.055   9.601 -0.3660 -0.1728  0.3420
 1269HK4     H2 6559   4.641   5.995   9.523 -0.8575  3.0467 -1.9137
 1269HK4     C1 6560   4.657   6.187   9.631  0.3357 -0.0177  0.4399
 1269HK4     H1 6561   4.573   6.231   9.576  1.6713  1.6616 -0.2971
 1269HK4     C6 6562   4.724   6.265   9.727  0.4680  0.2159  0.1582
 1269HK4     C5 6563   4.837   6.213   9.791  0.1749 -0.4709  0.1209
 1269HK4    C10 6564   4.913   6.286   9.896  0.0991 -0.1371 -0.0547
 1269HK4     O1 6565   4.846   6.332   9.989  0.1006 -0.0402 -0.1026
 1269HK4    C16 6566   4.668   6.400   9.741 -0.4055 -0.1182 -0.0701
 1269HK4    C15 6567   4.534   6.427   9.706 -0.3068  0.6075  0.0836
 1269HK4     H7 6568   4.469   6.339   9.694 -0.9176  1.0510  0.1731
 1269HK4    C20 6569   4.474   6.552   9.703 -0.6513  0.4435  0.0463
 1269HK4     H9 6570   4.365   6.558   9.699 -0.8802 -2.8453  0.0265
 1269HK4    C19 6571   4.542   6.662   9.752  0.2011 -0.3252  0.6097
 1269HK4    C18 6572   4.677   6.636   9.797  0.4869 -0.1277 -0.1344
 1269HK4    C17 6573   4.741   6.514   9.775  0.0336 -0.3410 -0.2610
 1269HK4     H8 6574   4.850   6.510   9.773  0.0550 -0.7895  1.0834
 1269HK4     N1 6575   4.733   6.743   9.869 -0.3516 -0.0895  0.4585
 1269HK4    C21 6576   4.645   6.851   9.849 -0.2391 -0.0655  0.0998
 1269HK4    C22 6577   4.525   6.803   9.785 -0.0948 -0.2045 -0.0649
 1269HK4    C26 6578   4.427   6.898   9.756  0.2362  0.2276  0.2426
 1269HK4    H13 6579   4.331   6.866   9.716  0.9041 -0.7511 -0.5997
 1269HK4    C25 6580   4.436   7.029   9.802  0.2091  0.1346  0.5080
 1269HK4    H12 6581   4.361   7.105   9.780  0.3498  0.9806  2.8397
 1269HK4    C24 6582   4.544   7.071   9.878  0.5654  0.2273 -0.0553
 1269HK4    H11 6583   4.543   7.165   9.935 -1.1335 -0.5222  1.1700
 1269HK4    C23 6584   4.651   6.983   9.893 -0.0072 -0.3211  0.8502
 1269HK4    H10 6585   4.733   6.998   9.962  0.3406  1.3033  0.1192
 1269HK4    C39 6586   4.810   6.722   9.985 -0.1018  0.0991  0.3256
 1269HK4    C41 6587   4.894   6.829  10.017  0.2190 -0.0496 -0.0134
 1269HK4    H21 6588   4.963   6.868   9.940 -0.9705 -1.2057 -1.6811
 1269HK4    C42 6589   4.918   6.866  10.149  0.0231 -0.1869  0.0587
 1269HK4    H22 6590   4.985   6.950  10.168  0.8532 -0.9149  0.3864
 1269HK4    C43 6591   4.851   6.803  10.254 -0.0086 -0.3185 -0.0395
 1269HK4    H23 6592   4.878   6.831  10.355  2.7512 -0.6241 -0.6548
 1269HK4    C44 6593   4.767   6.697  10.223 -0.3939  0.0446 -0.2418
 1269HK4    H24 6594   4.719   6.644  10.307 -0.5206  0.9491  0.2587
 1269HK4    C45 6595   4.751   6.652  10.092 -0.1249 -0.5185 -0.0833
 1269HK4    H25 6596   4.677   6.574  10.068 -1.1726 -0.0416  1.4752
 1270HK4    H28 6597   0.147   4.317   5.937  0.8032 -4.1323  0.5365
 1270HK4    C48 6598   0.177   4.334   6.040 -0.9862  0.2832  0.4664
 1270HK4    C47 6599   0.233   4.219   6.095  0.2996  0.8041  0.2383
 1270HK4    H27 6600   0.246   4.133   6.027 -0.8261  1.1239 -0.3899
 1270HK4    C46 6601   0.276   4.205   6.226 -0.1901  0.1142  0.3293
 1270HK4    H26 6602   0.349   4.128   6.257 -1.0220 -0.8712 -0.1512
 1270HK4    C40 6603   0.242   4.306   6.319 -0.2789  0.3757  0.0114
 1270HK4    C50 6604   0.177   4.419   6.265 -0.2834  0.4940  0.2634
 1270HK4    H30 6605   0.151   4.495   6.340 -1.0200  0.8852 -0.3740
 1270HK4    C49 6606   0.160   4.439   6.128 -0.2387  0.5687  0.2678
 1270HK4    H29 6607   0.151   4.545   6.097  2.6091  0.5476 -0.7781
 1270HK4     N2 6608   0.270   4.299   6.456  0.1980  0.3285 -0.0881
 1270HK4    C30 6609   0.388   4.242   6.509 -0.0569 -0.2001 -0.0906
 1270HK4    C29 6610   0.506   4.205   6.446  0.0690 -0.2343  0.1670
 1270HK4    H15 6611   0.534   4.252   6.352 -0.0576  1.0858  0.7882
 1270HK4    C28 6612   0.606   4.129   6.506 -0.0364 -0.6221 -0.1448
 1270HK4    C27 6613   0.601   4.112   6.646  0.1682  0.5704  0.0076
 1270HK4    H14 6614   0.691   4.075   6.696  0.4098  1.4421  0.2277
 1270HK4    C32 6615   0.484   4.150   6.711  0.1964  0.0686  0.3491
 1270HK4    H16 6616   0.484   4.147   6.820  4.0877  1.0880  0.4384
 1270HK4    C31 6617   0.373   4.204   6.648  0.4419  0.2778  0.0953
 1270HK4    C34 6618   0.234   4.239   6.674  0.4973  0.3027  0.3509
 1270HK4    C33 6619   0.174   4.302   6.559 -0.0279 -1.2387 -0.2372
 1270HK4    C35 6620   0.041   4.342   6.551  0.4095  0.2130 -0.3692
 1270HK4    H17 6621   0.005   4.384   6.456  1.0685  0.6660 -0.4261
 1270HK4    C36 6622  11.214   4.324   6.666  0.1371  0.7489 -0.4606
 1270HK4    H18 6623  11.105   4.340   6.677 -0.2214 -1.9655  0.2167
 1270HK4    C37 6624   0.020   4.264   6.779  0.2069  0.6765 -0.5324
 1270HK4    H19 6625  11.209   4.259   6.870  0.6452  1.5297 -0.1997
 1270HK4    C38 6626   0.150   4.214   6.782  0.3178  1.0157  0.3730
 1270HK4    H20 6627   0.184   4.167   6.874 -0.4868  3.5883  2.0419
 1270HK4    C14 6628   0.711   4.059   6.429  0.2657  0.0128 -0.3133
 1270HK4     C9 6629   0.771   3.938   6.465 -0.0191 -0.0146  0.0710
 1270HK4     C8 6630   0.912   3.930   6.465 -0.0268 -0.1559 -0.3186
 1270HK4    C11 6631   0.985   4.035   6.413  0.2112 -0.0686  0.1887
 1270HK4     H4 6632   1.094   4.018   6.412 -0.0631 -1.9771  1.0654
 1270HK4    C12 6633   0.928   4.145   6.349  0.3962  0.1283  0.3594
 1270HK4     H5 6634   0.993   4.231   6.330  0.2803  0.7696  2.7676
 1270HK4    C13 6635   0.790   4.154   6.361  0.3519  0.0855 -0.1153
 1270HK4     H6 6636   0.736   4.229   6.302 -0.0878  0.5424  0.8583
 1270HK4     C7 6637   0.980   3.805   6.508  0.0012 -0.1757 -0.4235
 1270HK4     O2 6638   1.097   3.813   6.545 -0.3617 -0.1467  0.7293
 1270HK4     C4 6639   0.905   3.681   6.537 -0.0482 -0.0152  0.1289
 1270HK4     C3 6640   0.970   3.567   6.581  0.0146 -0.1161 -0.2267
 1270HK4     H3 6641   1.078   3.568   6.604 -0.1692 -0.2875  0.6819
 1270HK4     C2 6642   0.899   3.447   6.585 -0.0242 -0.0782  0.3510
 1270HK4     H2 6643   0.953   3.353   6.606 -0.8231 -0.8677 -1.0778
 1270HK4     C1 6644   0.773   3.440   6.527  0.2529 -0.0890 -0.2569
 1270HK4     H1 6645   0.743   3.340   6.492  0.1992 -1.0337  2.3192
 1270HK4     C6 6646   0.707   3.556   6.482  0.3302 -0.2339 -0.7437
 1270HK4     C5 6647   0.770   3.681   6.496 -0.0712 -0.1363  0.2037
 1270HK4    C10 6648   0.697   3.810   6.485  0.1174  0.0286  0.8773
 1270HK4     O1 6649   0.580   3.816   6.523 -0.3597 -0.6108 -0.4447
 1270HK4    C16 6650   0.576   3.526   6.424  0.3823 -0.8787 -0.5340
 1270HK4    C15 6651   0.487   3.429   6.473  0.0684 -0.4432 -0.2285
 1270HK4     H7 6652   0.511   3.374   6.565 -0.1704  0.1997  0.2222
 1270HK4    C20 6653   0.364   3.404   6.412 -0.0338  0.0536 -0.2232
 1270HK4     H9 6654   0.298   3.327   6.450  0.6468 -1.0613 -1.2710
 1270HK4    C19 6655   0.345   3.473   6.292  0.4202  0.8214  0.1389
 1270HK4    C18 6656   0.436   3.571   6.237  0.7096  0.1807 -0.5268
 1270HK4    C17 6657   0.552   3.599   6.308 -0.0258  0.6465  0.4966
 1270HK4     H8 6658   0.624   3.658   6.251 -0.7749  1.3098  0.2223
 1270HK4     N1 6659   0.382   3.619   6.116 -0.1044  0.3949 -0.0855
 1270HK4    C21 6660   0.253   3.564   6.098  0.1502 -0.1040 -0.4116
 1270HK4    C22 6661   0.228   3.471   6.206  0.4729  0.3737  0.0769
 1270HK4    C26 6662   0.100   3.428   6.238  0.3807  0.8305  0.3166
 1270HK4    H13 6663   0.090   3.378   6.334  1.2110  0.6490  0.3050
 1270HK4    C25 6664  11.242   3.477   6.162 -0.1849 -0.4338  0.2878
 1270HK4    H12 6665  11.143   3.443   6.194 -0.2453  0.5161  1.1274
 1270HK4    C24 6666   0.013   3.566   6.058  0.2142 -0.2563  0.5110
 1270HK4    H11 6667  11.179   3.594   5.989 -0.7914 -1.9518  0.9868
 1270HK4    C23 6668   0.142   3.607   6.026 -0.0165  0.0350 -0.0716
 1270HK4    H10 6669   0.158   3.690   5.958  3.4732 -0.5598 -0.0863
 1270HK4    C39 6670   0.426   3.731   6.045  0.5003  0.0604 -0.2442
 1270HK4    C41 6671   0.393   3.752   5.909 -0.1488  0.5250 -0.0166
 1270HK4    H21 6672   0.351   3.671   5.848  1.5919  0.4664 -1.1630
 1270HK4    C42 6673   0.421   3.871   5.843  0.3667 -0.0168 -0.7872
 1270HK4    H22 6674   0.383   3.883   5.741 -0.4032  1.0454 -0.3936
 1270HK4    C43 6675   0.476   3.978   5.914 -0.1192 -0.3955  0.1740
 1270HK4    H23 6676   0.496   4.067   5.856 -2.0096 -1.9219 -2.9801
 1270HK4    C44 6677   0.499   3.961   6.050  0.4008 -0.2371  0.1063
 1270HK4    H24 6678   0.567   4.028   6.105 -1.1079  0.4699  1.1733
 1270HK4    C45 6679   0.463   3.846   6.118  0.2255 -0.1309  0.1963
 1270HK4    H25 6680   0.438   3.850   6.225  0.7369  1.2231  0.2657
 1271HK4    H28 6681   6.593   8.893   3.328  0.9786  0.3480 -0.1645
 1271HK4    C48 6682   6.631   8.935   3.421 -0.1474  0.5478  0.2076
 1271HK4    C47 6683   6.633   8.856   3.536  0.3351  0.6205  0.2498
 1271HK4    H27 6684   6.565   8.771   3.548 -1.1648  1.6266 -0.8778
 1271HK4    C46 6685   6.732   8.872   3.632  0.5008 -0.4545  0.2580
 1271HK4    H26 6686   6.726   8.807   3.721 -1.3642  0.5765  0.9243
 1271HK4    C40 6687   6.831   8.972   3.621 -0.0389  0.0222 -0.2774
 1271HK4    C50 6688   6.818   9.053   3.507  0.0910 -0.0746 -0.3606
 1271HK4    H30 6689   6.905   9.116   3.482 -1.4821  2.3269 -0.0241
 1271HK4    C49 6690   6.725   9.036   3.405 -0.4088  0.7497 -0.0534
 1271HK4    H29 6691   6.736   9.098   3.315 -2.8703  2.3885  0.7188
 1271HK4     N2 6692   6.951   8.984   3.692  0.1925  0.0947 -0.6791
 1271HK4    C30 6693   7.009   8.876   3.762 -0.3718 -0.0206 -0.3848
 1271HK4    C29 6694   6.988   8.739   3.756  0.1112 -0.1348  0.4047
 1271HK4    H15 6695   6.951   8.706   3.659 -1.3881  1.3699  0.4592
 1271HK4    C28 6696   7.025   8.646   3.852  0.2568 -0.3210  0.1664
 1271HK4    C27 6697   7.091   8.702   3.963  0.2488  0.1253 -0.0566
 1271HK4    H14 6698   7.109   8.635   4.049 -0.7064  0.2736  0.2585
 1271HK4    C32 6699   7.125   8.837   3.973  0.1423  0.1743 -0.3732
 1271HK4    H16 6700   7.172   8.881   4.060  2.1823 -0.0031 -1.3495
 1271HK4    C31 6701   7.086   8.927   3.874 -0.0290 -0.1174 -0.5729
 1271HK4    C34 6702   7.089   9.071   3.861 -0.7051  0.0141  0.6804
 1271HK4    C33 6703   7.008   9.101   3.745  0.2604 -0.2164 -0.0520
 1271HK4    C35 6704   7.003   9.235   3.706  0.8387 -0.3314 -0.5378
 1271HK4    H17 6705   6.912   9.263   3.653  1.0073  0.2453 -0.5198
 1271HK4    C36 6706   7.073   9.336   3.771 -0.2490 -0.2258  0.4918
 1271HK4    H18 6707   7.070   9.438   3.729  0.0689  0.7955  2.8666
 1271HK4    C37 6708   7.150   9.303   3.881  0.1170 -0.3013  0.2135
 1271HK4    H19 6709   7.210   9.376   3.935  0.0397 -1.4240  1.8473
 1271HK4    C38 6710   7.164   9.171   3.923  0.0969 -0.3014  0.2189
 1271HK4    H20 6711   7.217   9.153   4.016  0.1622 -0.9980  0.0536
 1271HK4    C14 6712   6.954   8.517   3.859  0.0199 -0.1904  0.2039
 1271HK4     C9 6713   6.898   8.463   3.975  0.0627  0.1003  0.3622
 1271HK4     C8 6714   6.852   8.330   3.971 -0.2108  0.2042  0.0503
 1271HK4    C11 6715   6.869   8.251   3.858 -0.3935 -0.2063  0.3047
 1271HK4     H4 6716   6.834   8.147   3.849  0.1430 -0.3373 -0.2988
 1271HK4    C12 6717   6.923   8.303   3.740 -0.0844 -0.0690  0.5081
 1271HK4     H5 6718   6.931   8.261   3.639 -0.2977 -0.6687  0.7364
 1271HK4    C13 6719   6.956   8.438   3.743 -0.0602 -0.0673  0.1183
 1271HK4     H6 6720   6.980   8.475   3.642 -1.3606  0.3647 -0.0439
 1271HK4     C7 6721   6.783   8.276   4.090  0.6190 -0.3791  0.2797
 1271HK4     O2 6722   6.711   8.179   4.069 -0.2910  0.3116  0.1652
 1271HK4     C4 6723   6.756   8.368   4.203  0.0787 -0.3721  0.1487
 1271HK4     C3 6724   6.677   8.321   4.307 -0.6972  0.4020 -0.0882
 1271HK4     H3 6725   6.610   8.235   4.291  0.2106 -0.2455 -0.4002
 1271HK4     C2 6726   6.670   8.394   4.425  0.1163 -0.1677  0.3147
 1271HK4     H2 6727   6.626   8.346   4.513 -3.7323 -0.4324 -1.6359
 1271HK4     C1 6728   6.741   8.512   4.446  0.7569 -0.5956  0.5547
 1271HK4     H1 6729   6.709   8.571   4.533 -0.9200 -0.1707 -0.3233
 1271HK4     C6 6730   6.827   8.559   4.345 -0.1403 -0.0487  0.0393
 1271HK4     C5 6731   6.822   8.491   4.223 -0.2129 -0.2109  0.1334
 1271HK4    C10 6732   6.870   8.549   4.094 -0.4095  0.1451  0.2176
 1271HK4     O1 6733   6.832   8.664   4.075 -0.2095  0.1884  0.0735
 1271HK4    C16 6734   6.916   8.667   4.392 -0.3442  0.2678 -0.2990
 1271HK4    C15 6735   7.032   8.701   4.319 -0.5665  0.2277 -0.6765
 1271HK4     H7 6736   7.057   8.622   4.247 -0.1911  0.3781 -0.7093
 1271HK4    C20 6737   7.099   8.822   4.327 -0.0052 -0.1525  0.4848
 1271HK4     H9 6738   7.194   8.835   4.275 -0.8350 -0.0991 -1.0397
 1271HK4    C19 6739   7.050   8.925   4.407 -1.1897  0.0576 -0.5139
 1271HK4    C18 6740   6.932   8.896   4.487 -0.8302  0.4067  0.1410
 1271HK4    C17 6741   6.875   8.770   4.475  0.0959 -0.0264  0.2853
 1271HK4     H8 6742   6.798   8.747   4.548  0.0034 -1.2798 -0.1994
 1271HK4     N1 6743   6.885   9.010   4.556 -0.3017  0.5093  0.3368
 1271HK4    C21 6744   6.970   9.115   4.516 -0.3020  0.1528 -0.6269
 1271HK4    C22 6745   7.079   9.064   4.435 -0.2729 -0.1593 -0.3886
 1271HK4    C26 6746   7.169   9.155   4.381 -0.2487 -0.0343 -0.1391
 1271HK4    H13 6747   7.261   9.105   4.353 -0.3476 -0.9282  1.0887
 1271HK4    C25 6748   7.150   9.293   4.387  0.0308 -0.0327  0.7251
 1271HK4    H12 6749   7.209   9.349   4.315 -2.9839  3.0233  0.5111
 1271HK4    C24 6750   7.040   9.338   4.460 -0.5063  0.5391 -0.4317
 1271HK4    H11 6751   7.017   9.445   4.463  1.7788  1.0093  1.0443
 1271HK4    C23 6752   6.952   9.253   4.526  0.0509  0.1686 -0.1653
 1271HK4    H10 6753   6.898   9.295   4.610 -0.7703  2.2973 -1.7053
 1271HK4    C39 6754   6.756   9.031   4.605 -0.4801  0.4099 -0.0820
 1271HK4    C41 6755   6.739   9.128   4.706 -0.0362  0.2550  0.1452
 1271HK4    H21 6756   6.825   9.158   4.768 -0.0382 -1.4158  0.9682
 1271HK4    C42 6757   6.612   9.178   4.732 -0.0710  0.2711 -0.0453
 1271HK4    H22 6758   6.597   9.279   4.773 -2.1029  0.3773 -0.9509
 1271HK4    C43 6759   6.504   9.124   4.662  0.3897 -0.6694 -0.0400
 1271HK4    H23 6760   6.404   9.146   4.699 -0.2884 -0.6286 -1.8820
 1271HK4    C44 6761   6.515   9.034   4.557  0.0563 -0.7650  0.0059
 1271HK4    H24 6762   6.426   8.984   4.516 -0.2681 -0.1638 -0.0286
 1271HK4    C45 6763   6.644   8.987   4.532  0.0768 -0.4931 -0.4000
 1271HK4    H25 6764   6.658   8.910   4.455  0.2289 -0.0852 -0.7823
 1272HK4    H28 6765   2.627   5.609   2.872  0.5048 -0.1540  0.1680
 1272HK4    C48 6766   2.594   5.556   2.962 -0.2998 -0.1227 -0.0993
 1272HK4    C47 6767   2.584   5.608   3.091 -0.1910  0.0908 -0.1763
 1272HK4    H27 6768   2.620   5.709   3.116 -0.3266 -0.4861  2.4575
 1272HK4    C46 6769   2.519   5.542   3.194 -0.0025 -0.0822 -0.1674
 1272HK4    H26 6770   2.510   5.592   3.292 -1.2115 -0.3374 -0.1431
 1272HK4    C40 6771   2.458   5.417   3.172  0.0547 -0.0894 -0.2701
 1272HK4    C50 6772   2.470   5.365   3.041 -0.0768 -0.8022 -0.0037
 1272HK4    H30 6773   2.426   5.267   3.018 -1.7840  0.5082 -2.5743
 1272HK4    C49 6774   2.541   5.430   2.941 -0.4890 -0.0883  0.1568
 1272HK4    H29 6775   2.573   5.372   2.853  0.0738 -1.0258  0.9696
 1272HK4     N2 6776   2.416   5.340   3.281  0.2331 -0.1289 -0.2296
 1272HK4    C30 6777   2.476   5.348   3.409 -0.1908  0.4729 -0.0672
 1272HK4    C29 6778   2.612   5.369   3.431 -0.1003 -0.1979  0.0052
 1272HK4    H15 6779   2.679   5.398   3.350 -1.3864  1.7120 -0.4077
 1272HK4    C28 6780   2.666   5.336   3.555 -0.1203 -0.0034  0.0658
 1272HK4    C27 6781   2.573   5.286   3.648  0.0192 -0.0049  0.2039
 1272HK4    H14 6782   2.612   5.259   3.747  0.4417  1.2185  0.3865
 1272HK4    C32 6783   2.436   5.267   3.630 -0.1191  0.9773  0.1680
 1272HK4    H16 6784   2.378   5.203   3.696 -0.9722  1.3142 -0.2488
 1272HK4    C31 6785   2.382   5.293   3.504  0.0962 -0.1833 -0.1661
 1272HK4    C34 6786   2.264   5.250   3.432  0.0904 -0.3520 -0.0584
 1272HK4    C33 6787   2.289   5.282   3.292 -0.0138  0.4719  0.1089
 1272HK4    C35 6788   2.192   5.250   3.198  0.7439 -1.0174 -0.1825
 1272HK4    H17 6789   2.207   5.281   3.094  0.7966  0.9932  0.3995
 1272HK4    C36 6790   2.072   5.187   3.227  0.4960 -0.3403  0.2891
 1272HK4    H18 6791   1.986   5.188   3.158  0.9972  2.0323 -0.3424
 1272HK4    C37 6792   2.057   5.150   3.360 -0.3365 -0.6435  0.1157
 1272HK4    H19 6793   1.956   5.123   3.392 -1.9670  2.0022 -2.5060
 1272HK4    C38 6794   2.145   5.186   3.462  0.0885 -0.4704 -0.3104
 1272HK4    H20 6795   2.141   5.127   3.554  1.2698 -0.3478 -0.1745
 1272HK4    C14 6796   2.809   5.345   3.586 -0.1545  0.5506  0.0647
 1272HK4     C9 6797   2.871   5.275   3.690 -0.1105  0.4576 -0.0226
 1272HK4     C8 6798   2.972   5.339   3.766  0.5525 -0.4017 -0.1739
 1272HK4    C11 6799   3.015   5.466   3.732 -0.4100  0.0688  0.3378
 1272HK4     H4 6800   3.084   5.522   3.796 -2.8235  1.3738  1.8584
 1272HK4    C12 6801   2.960   5.530   3.621  0.0187 -0.6029 -0.2648
 1272HK4     H5 6802   2.977   5.637   3.604  2.0617 -0.8926 -0.1443
 1272HK4    C13 6803   2.865   5.467   3.541  0.4790 -0.1754 -1.1540
 1272HK4     H6 6804   2.859   5.497   3.435 -1.2586  1.3084 -0.6456
 1272HK4     C7 6805   3.008   5.286   3.900 -0.6315  0.6085  0.5539
 1272HK4     O2 6806   3.120   5.307   3.946 -0.0041 -0.7687 -0.3073
 1272HK4     C4 6807   2.923   5.176   3.950 -0.0737 -0.1980 -0.2646
 1272HK4     C3 6808   2.931   5.148   4.086 -0.4607 -0.2151 -0.2463
 1272HK4     H3 6809   3.001   5.207   4.146 -1.0707 -0.0300  0.2933
 1272HK4     C2 6810   2.861   5.043   4.144 -0.3669  0.1524  0.5441
 1272HK4     H2 6811   2.902   5.005   4.239 -0.2435 -1.6903 -0.2270
 1272HK4     C1 6812   2.778   4.965   4.064  0.1398  0.0495  0.1166
 1272HK4     H1 6813   2.709   4.897   4.115  0.6436  0.6377  1.5927
 1272HK4     C6 6814   2.774   4.987   3.924  0.0466  0.3177  0.1613
 1272HK4     C5 6815   2.843   5.095   3.868 -0.4637  0.3419 -0.4191
 1272HK4    C10 6816   2.833   5.136   3.725  0.1357  0.2731 -0.4806
 1272HK4     O1 6817   2.849   5.054   3.635  0.4719 -0.0460 -0.1324
 1272HK4    C16 6818   2.712   4.875   3.851 -0.2814  0.5027  0.1554
 1272HK4    C15 6819   2.726   4.743   3.898 -0.3527  0.6810  0.6830
 1272HK4     H7 6820   2.794   4.721   3.982 -0.2942 -0.0555  0.4494
 1272HK4    C20 6821   2.662   4.632   3.844  0.5148  0.4874  0.0201
 1272HK4     H9 6822   2.713   4.541   3.874  1.2791  0.5866 -0.9778
 1272HK4    C19 6823   2.575   4.657   3.738  0.0166  0.1721  0.3516
 1272HK4    C18 6824   2.563   4.787   3.675 -0.1345 -0.0310 -0.0360
 1272HK4    C17 6825   2.634   4.889   3.737 -0.2430 -0.0142  0.0637
 1272HK4     H8 6826   2.600   4.988   3.705 -0.7267 -0.0960  0.3272
 1272HK4     N1 6827   2.468   4.783   3.571 -0.3205  0.1934  0.1229
 1272HK4    C21 6828   2.421   4.650   3.567  0.1859  0.0179 -0.0231
 1272HK4    C22 6829   2.489   4.567   3.665  0.1000  0.2131  0.2030
 1272HK4    C26 6830   2.454   4.435   3.693  0.4673  0.1039  0.1576
 1272HK4    H13 6831   2.496   4.381   3.778 -0.1477 -0.7576 -0.0777
 1272HK4    C25 6832   2.343   4.387   3.624  0.3118  0.3169  0.2560
 1272HK4    H12 6833   2.300   4.290   3.647 -1.6249  1.1168  0.0634
 1272HK4    C24 6834   2.275   4.464   3.531  0.6671  0.0008 -0.2728
 1272HK4    H11 6835   2.184   4.427   3.481  0.4450 -0.8165  0.7243
 1272HK4    C23 6836   2.312   4.595   3.501  0.4105  0.0440 -0.4115
 1272HK4    H10 6837   2.295   4.644   3.405  1.3472  0.5571 -0.3237
 1272HK4    C39 6838   2.470   4.870   3.461  0.8661  0.0979  0.0653
 1272HK4    C41 6839   2.351   4.895   3.390  0.6273 -0.4212  0.2839
 1272HK4    H21 6840   2.252   4.893   3.438  0.9658 -2.1146  0.9857
 1272HK4    C42 6841   2.362   4.952   3.264  0.1346 -0.0576  0.4037
 1272HK4    H22 6842   2.272   4.959   3.200 -0.0208  1.0454  0.7319
 1272HK4    C43 6843   2.485   4.981   3.206 -0.1612 -0.3617 -0.3813
 1272HK4    H23 6844   2.481   5.020   3.104  0.9625  2.5612  0.6442
 1272HK4    C44 6845   2.600   4.957   3.279 -0.3703  0.2886  0.1602
 1272HK4    H24 6846   2.697   4.979   3.233  0.2821 -1.4623  0.6706
 1272HK4    C45 6847   2.596   4.902   3.407  0.8725  0.3765  0.2403
 1272HK4    H25 6848   2.685   4.907   3.471  0.1490 -0.5512  1.3456
 1273HK4    H28 6849   6.629   6.477   9.082 -0.5096  0.7043  3.3921
 1273HK4    C48 6850   6.523   6.454   9.066  0.0286 -0.1328  0.6831
 1273HK4    C47 6851   6.500   6.317   9.063 -0.0857 -0.1001  0.0425
 1273HK4    H27 6852   6.580   6.244   9.084  0.9593  1.0067 -0.0058
 1273HK4    C46 6853   6.372   6.273   9.032  0.1124 -0.7409  0.1214
 1273HK4    H26 6854   6.350   6.166   9.037  1.4209 -1.0707 -0.7655
 1273HK4    C40 6855   6.268   6.366   9.011  0.8281  0.0253 -0.0743
 1273HK4    C50 6856   6.292   6.505   9.014 -0.3239  0.2323  0.0629
 1273HK4    H30 6857   6.223   6.584   8.981 -1.1654 -0.9984 -1.1722
 1273HK4    C49 6858   6.422   6.546   9.042 -0.0504 -0.4482 -0.1882
 1273HK4    H29 6859   6.442   6.654   9.043 -0.9096 -0.2916  0.4723
 1273HK4     N2 6860   6.140   6.318   8.981  0.6590  0.0667  0.5781
 1273HK4    C30 6861   6.117   6.205   8.900  0.3039  0.3098  0.3394
 1273HK4    C29 6862   6.200   6.135   8.812  0.1846  0.3358  0.2055
 1273HK4    H15 6863   6.283   6.183   8.762 -1.0169  1.4636 -0.7361
 1273HK4    C28 6864   6.146   6.030   8.739 -0.2876  0.3473  0.5278
 1273HK4    C27 6865   6.012   5.992   8.756 -0.1158 -0.3395  0.3885
 1273HK4    H14 6866   5.981   5.899   8.707  0.3972 -1.6376  2.4740
 1273HK4    C32 6867   5.922   6.063   8.835  0.0918  0.3328  0.0221
 1273HK4    H16 6868   5.818   6.033   8.847  0.5207 -0.6601  1.3627
 1273HK4    C31 6869   5.979   6.164   8.913  0.3658  0.0524  0.1869
 1273HK4    C34 6870   5.920   6.255   9.009 -0.5416 -0.3560  0.0242
 1273HK4    C33 6871   6.022   6.348   9.053  0.0826 -1.0971  0.1365
 1273HK4    C35 6872   5.989   6.457   9.132  0.6164 -1.0732  0.3346
 1273HK4    H17 6873   6.065   6.527   9.166 -1.9964  1.5825  0.9168
 1273HK4    C36 6874   5.856   6.474   9.171  0.6695 -0.0040  0.0565
 1273HK4    H18 6875   5.832   6.556   9.241  1.9483  0.7865 -0.4053
 1273HK4    C37 6876   5.761   6.381   9.135  0.4751  0.2479 -0.0806
 1273HK4    H19 6877   5.661   6.394   9.176  0.4185 -1.8589  0.5310
 1273HK4    C38 6878   5.789   6.272   9.053 -0.5291 -0.0351 -0.0559
 1273HK4    H20 6879   5.722   6.186   9.049  0.8746 -1.1227 -0.4692
 1273HK4    C14 6880   6.231   5.962   8.639 -0.4969  0.7892  0.0503
 1273HK4     C9 6881   6.189   5.883   8.532  0.2257  0.1551  0.2310
 1273HK4     C8 6882   6.265   5.770   8.494  0.0919  0.0691  0.2091
 1273HK4    C11 6883   6.392   5.746   8.545 -0.3689 -1.3152  0.7217
 1273HK4     H4 6884   6.459   5.674   8.497  0.3090 -0.4518  0.3518
 1273HK4    C12 6885   6.441   5.830   8.645 -0.1776 -0.0520 -0.4221
 1273HK4     H5 6886   6.534   5.805   8.698  0.7039  1.9181 -0.9796
 1273HK4    C13 6887   6.361   5.936   8.686 -0.4776 -0.2245 -0.5562
 1273HK4     H6 6888   6.402   6.013   8.754  0.0089  0.9650 -2.1691
 1273HK4     C7 6889   6.205   5.663   8.412 -0.1260 -0.0479  0.5179
 1273HK4     O2 6890   6.268   5.563   8.376 -0.0037  0.1562  0.1610
 1273HK4     C4 6891   6.069   5.681   8.358  0.0844 -0.0718 -0.0348
 1273HK4     C3 6892   6.002   5.570   8.310  0.2451 -0.0592 -0.2902
 1273HK4     H3 6893   6.060   5.487   8.268  3.0871  1.6480  0.1914
 1273HK4     C2 6894   5.863   5.567   8.297  0.2189  0.3493 -0.1176
 1273HK4     H2 6895   5.814   5.469   8.289  1.1933 -0.0336 -1.4413
 1273HK4     C1 6896   5.788   5.682   8.319 -0.1955  0.0767 -0.1036
 1273HK4     H1 6897   5.681   5.659   8.333 -0.1779 -0.7673 -1.2239
 1273HK4     C6 6898   5.856   5.799   8.357  0.3298 -0.0565 -0.6172
 1273HK4     C5 6899   5.993   5.798   8.383  0.2199  0.0067 -0.0131
 1273HK4    C10 6900   6.066   5.908   8.452  0.2256 -0.0984  0.1522
 1273HK4     O1 6901   6.063   6.021   8.402 -0.0347 -0.2724 -0.2282
 1273HK4    C16 6902   5.776   5.922   8.340 -0.1230 -0.2371  0.1486
 1273HK4    C15 6903   5.680   5.924   8.237 -0.5327 -0.0479  0.5349
 1273HK4     H7 6904   5.682   5.857   8.150 -1.5176  1.4658 -0.6979
 1273HK4    C20 6905   5.573   6.013   8.235 -0.0724  0.5061  0.1087
 1273HK4     H9 6906   5.487   6.000   8.168  0.5989  1.5145 -0.9580
 1273HK4    C19 6907   5.566   6.107   8.337  0.2929  0.2440  0.3768
 1273HK4    C18 6908   5.667   6.115   8.440  0.2860  0.1677  0.3873
 1273HK4    C17 6909   5.766   6.017   8.440  0.3589  0.2398 -0.2544
 1273HK4     H8 6910   5.842   6.036   8.517  0.5467 -0.7776 -0.1825
 1273HK4     N1 6911   5.657   6.242   8.501 -0.2907  0.2533  0.1157
 1273HK4    C21 6912   5.549   6.308   8.439 -0.2124  0.0636 -0.2214
 1273HK4    C22 6913   5.483   6.226   8.338 -0.6029 -0.3708  0.3833
 1273HK4    C26 6914   5.362   6.267   8.285 -0.4474 -0.0663  0.2579
 1273HK4    H13 6915   5.293   6.191   8.246  0.4364 -1.2994  1.0592
 1273HK4    C25 6916   5.304   6.386   8.328 -0.4418  0.0284  0.0037
 1273HK4    H12 6917   5.216   6.430   8.282  0.0973  1.4659  0.3220
 1273HK4    C24 6918   5.366   6.461   8.427 -0.4698  0.1898 -0.1024
 1273HK4    H11 6919   5.304   6.544   8.462 -0.3137 -0.3383  1.4629
 1273HK4    C23 6920   5.492   6.429   8.477 -0.3949  0.0326 -0.3942
 1273HK4    H10 6921   5.533   6.500   8.548  1.9502 -1.2652 -0.3865
 1273HK4    C39 6922   5.750   6.293   8.592 -0.0826  0.3162 -0.1283
 1273HK4    C41 6923   5.712   6.389   8.689  0.2194 -0.0017  0.3035
 1273HK4    H21 6924   5.609   6.378   8.724  0.4762 -2.1244  0.4548
 1273HK4    C42 6925   5.794   6.485   8.746  0.5000 -0.1320  0.1256
 1273HK4    H22 6926   5.749   6.567   8.805  0.1974 -0.1441 -0.0939
 1273HK4    C43 6927   5.930   6.477   8.716  0.5938  0.2482  0.4348
 1273HK4    H23 6928   5.992   6.534   8.785 -1.6974  0.6560  2.2200
 1273HK4    C44 6929   5.976   6.378   8.630 -0.2607  0.1052  0.1339
 1273HK4    H24 6930   6.084   6.359   8.629  0.0076  1.5138  0.6478
 1273HK4    C45 6931   5.887   6.295   8.562 -0.0851  0.1543 -0.1556
 1273HK4    H25 6932   5.930   6.232   8.483 -2.2347 -1.0940 -0.3764
 1274HK4    H28 6933   5.360   3.550   1.497 -0.0278  1.6039  1.6661
 1274HK4    C48 6934   5.445   3.505   1.550 -0.0449 -0.0348  0.3544
 1274HK4    C47 6935   5.529   3.596   1.614 -0.2676  0.2273  0.2757
 1274HK4    H27 6936   5.511   3.703   1.599 -2.1624  0.0638  1.2548
 1274HK4    C46 6937   5.626   3.536   1.693 -0.1450 -0.1207 -0.1312
 1274HK4    H26 6938   5.676   3.603   1.765 -0.7840 -0.7204  0.8756
 1274HK4    C40 6939   5.645   3.398   1.712  0.4384 -0.0855 -0.4417
 1274HK4    C50 6940   5.557   3.314   1.640 -0.0194 -0.2122  0.2659
 1274HK4    H30 6941   5.565   3.207   1.661 -0.3196 -0.6858 -1.9688
 1274HK4    C49 6942   5.456   3.367   1.560 -0.3162 -0.0294  0.7550
 1274HK4    H29 6943   5.375   3.309   1.514  0.0175  1.6901 -2.1531
 1274HK4     N2 6944   5.749   3.344   1.789  0.0504  0.1148  0.2221
 1274HK4    C30 6945   5.877   3.401   1.806  0.0115  0.2948 -0.0680
 1274HK4    C29 6946   5.945   3.502   1.740 -0.3477  0.7242  0.2161
 1274HK4    H15 6947   5.920   3.511   1.634  1.5017 -1.1360 -0.4143
 1274HK4    C28 6948   6.048   3.583   1.788  0.2333 -0.1173  0.4060
 1274HK4    C27 6949   6.088   3.551   1.919  0.7082  0.1903  0.3370
 1274HK4    H14 6950   6.167   3.612   1.966  0.2161 -0.6927  2.3593
 1274HK4    C32 6951   6.034   3.445   1.990  0.1019  0.1121 -0.2354
 1274HK4    H16 6952   6.079   3.411   2.084  0.4166 -0.1223 -0.4705
 1274HK4    C31 6953   5.926   3.372   1.940 -0.3967  0.5829  0.1444
 1274HK4    C34 6954   5.831   3.280   1.999  0.2260 -0.0734  0.1227
 1274HK4    C33 6955   5.721   3.270   1.905  0.0852  0.1658  0.2631
 1274HK4    C35 6956   5.616   3.185   1.939 -0.1170  0.1822 -0.3282
 1274HK4    H17 6957   5.536   3.170   1.866 -1.1414  0.2591  0.7715
 1274HK4    C36 6958   5.614   3.118   2.060  0.3244 -0.2062 -0.5365
 1274HK4    H18 6959   5.539   3.039   2.073 -1.8588  1.7630 -0.9336
 1274HK4    C37 6960   5.716   3.135   2.153  0.1186 -0.2887 -0.2971
 1274HK4    H19 6961   5.706   3.085   2.250  1.9116 -0.1251 -0.0058
 1274HK4    C38 6962   5.823   3.218   2.123 -0.1096  0.2099  0.2439
 1274HK4    H20 6963   5.876   3.263   2.207 -2.6838 -0.7810  2.4541
 1274HK4    C14 6964   6.123   3.672   1.699 -0.2315 -0.5690 -0.4480
 1274HK4     C9 6965   6.258   3.708   1.714 -0.1462 -0.6056 -1.1124
 1274HK4     C8 6966   6.299   3.834   1.664 -0.3640  0.2341  0.7822
 1274HK4    C11 6967   6.213   3.909   1.585  0.1966 -0.0657 -0.1242
 1274HK4     H4 6968   6.242   3.997   1.525  1.1533  0.5613  1.2260
 1274HK4    C12 6969   6.080   3.875   1.566  0.1955 -0.2159  0.1377
 1274HK4     H5 6970   6.007   3.927   1.502 -0.3162 -1.4186 -0.2850
 1274HK4    C13 6971   6.037   3.758   1.628 -0.2386  0.0127  0.2670
 1274HK4     H6 6972   5.927   3.748   1.629 -0.1399 -1.2396 -0.4026
 1274HK4     C7 6973   6.438   3.878   1.692  0.0503 -0.0853 -0.7604
 1274HK4     O2 6974   6.460   3.998   1.706 -0.2611 -0.1090 -0.0771
 1274HK4     C4 6975   6.538   3.781   1.743 -0.1065  0.1290 -0.0478
 1274HK4     C3 6976   6.673   3.813   1.743 -0.1376  0.2746  0.6985
 1274HK4     H3 6977   6.704   3.918   1.728 -1.1495  0.4035 -0.5903
 1274HK4     C2 6978   6.767   3.720   1.786  0.0191  0.1925  0.1932
 1274HK4     H2 6979   6.874   3.744   1.774  0.1694  0.3692  1.7856
 1274HK4     C1 6980   6.726   3.600   1.843 -0.2886  0.2070  0.0016
 1274HK4     H1 6981   6.801   3.534   1.889 -1.1427 -1.4865 -1.0030
 1274HK4     C6 6982   6.589   3.572   1.861 -0.2239 -0.0795  0.0503
 1274HK4     C5 6983   6.498   3.657   1.796  0.1782 -0.2894 -0.8002
 1274HK4    C10 6984   6.359   3.613   1.767  0.0172 -0.0441 -0.4047
 1274HK4     O1 6985   6.333   3.493   1.756 -0.6385  0.0929 -0.3563
 1274HK4    C16 6986   6.566   3.490   1.980 -0.3761 -0.0942  0.0104
 1274HK4    C15 6987   6.446   3.512   2.051 -0.4668  0.1000 -0.2009
 1274HK4     H7 6988   6.406   3.614   2.055 -0.2480  0.1450  1.6221
 1274HK4    C20 6989   6.387   3.418   2.135 -0.4261  0.2553  0.0023
 1274HK4     H9 6990   6.293   3.427   2.189 -0.6851  0.0231 -0.4023
 1274HK4    C19 6991   6.449   3.294   2.151 -0.7539  0.0495 -0.3099
 1274HK4    C18 6992   6.574   3.267   2.083 -0.4565  0.0169  0.2422
 1274HK4    C17 6993   6.626   3.366   1.999 -0.6085 -0.2312 -0.1472
 1274HK4     H8 6994   6.722   3.343   1.954 -0.8224 -1.5758  0.0618
 1274HK4     N1 6995   6.620   3.136   2.107 -0.3364 -0.0251 -0.2035
 1274HK4    C21 6996   6.525   3.082   2.196  0.0399  0.1820  0.3311
 1274HK4    C22 6997   6.417   3.173   2.224 -0.3358 -0.0635 -0.3090
 1274HK4    C26 6998   6.308   3.129   2.298  0.0904 -0.3724  0.1349
 1274HK4    H13 6999   6.219   3.191   2.313 -0.0844 -0.3325 -1.0166
 1274HK4    C25 7000   6.310   2.998   2.343 -0.0857 -0.4349 -0.0349
 1274HK4    H12 7001   6.221   2.958   2.392 -1.3775  0.4145 -1.6536
 1274HK4    C24 7002   6.410   2.908   2.309  0.1120 -0.3330  0.2747
 1274HK4    H11 7003   6.387   2.801   2.296  3.8079 -0.9911 -1.6038
 1274HK4    C23 7004   6.521   2.948   2.235 -0.2761  0.0645 -0.0955
 1274HK4    H10 7005   6.588   2.873   2.195  0.0625 -0.5189  1.5237
 1274HK4    C39 7006   6.704   3.062   2.023  0.4237  0.3359  0.2196
 1274HK4    C41 7007   6.777   2.950   2.067 -0.0518 -0.1274 -0.1490
 1274HK4    H21 7008   6.810   2.935   2.171  3.0589  0.8927 -0.9190
 1274HK4    C42 7009   6.819   2.855   1.975  0.7746 -0.1655  0.2632
 1274HK4    H22 7010   6.898   2.784   2.001  0.2311 -1.1047 -0.6204
 1274HK4    C43 7011   6.790   2.871   1.840 -0.7355 -0.2155  0.5745
 1274HK4    H23 7012   6.809   2.789   1.770  3.2111  0.0203  1.2609
 1274HK4    C44 7013   6.725   2.984   1.790 -0.1027 -0.2316 -0.3090
 1274HK4    H24 7014   6.685   2.990   1.688 -1.2789 -0.2441  0.1497
 1274HK4    C45 7015   6.676   3.073   1.885  0.7726 -0.1819  0.1066
 1274HK4    H25 7016   6.616   3.157   1.847  0.0673 -0.7581 -0.0742
 1275HK4    H28 7017  10.666   8.617   3.607 -0.2376 -0.5620  0.4459
 1275HK4    C48 7018  10.591   8.542   3.633 -0.7620 -0.1600  0.1232
 1275HK4    C47 7019  10.544   8.540   3.764  0.0001 -0.4137  0.3980
 1275HK4    H27 7020  10.606   8.595   3.836 -0.8834 -1.2675  1.8413
 1275HK4    C46 7021  10.438   8.461   3.805  0.4389 -0.9870  0.4353
 1275HK4    H26 7022  10.426   8.456   3.914  1.7273 -2.0040  0.5440
 1275HK4    C40 7023  10.370   8.378   3.713 -0.3733  0.3694 -0.1948
 1275HK4    C50 7024  10.421   8.381   3.581 -0.6340  0.3423 -0.2973
 1275HK4    H30 7025  10.387   8.308   3.506 -0.4527  2.0922 -2.1046
 1275HK4    C49 7026  10.530   8.458   3.541 -0.2751 -0.1284 -0.2365
 1275HK4    H29 7027  10.566   8.458   3.437  0.3239  3.0095 -0.0770
 1275HK4     N2 7028  10.299   8.262   3.745 -0.4591  0.6437  0.6258
 1275HK4    C30 7029  10.317   8.193   3.867  0.2485  0.1858  0.2698
 1275HK4    C29 7030  10.432   8.189   3.945  0.2522  0.4873  0.2844
 1275HK4    H15 7031  10.528   8.224   3.908 -0.1460 -0.5165 -1.7753
 1275HK4    C28 7032  10.430   8.111   4.060 -0.4104 -0.0008 -0.0478
 1275HK4    C27 7033  10.319   8.032   4.093 -0.2546 -0.0417  0.3780
 1275HK4    H14 7034  10.317   7.972   4.185  1.8305 -1.3801 -0.4180
 1275HK4    C32 7035  10.213   8.018   4.004  0.0704  0.3843 -0.0828
 1275HK4    H16 7036  10.129   7.950   4.024  1.4829 -0.8006  2.0164
 1275HK4    C31 7037  10.211   8.096   3.890  0.2328  0.0650 -0.3029
 1275HK4    C34 7038  10.126   8.095   3.772  0.5019  0.0596 -0.4961
 1275HK4    C33 7039  10.183   8.202   3.692  0.1087  0.3889 -0.3402
 1275HK4    C35 7040  10.114   8.224   3.574 -0.6485  0.4639  0.1187
 1275HK4    H17 7041  10.152   8.301   3.507  0.3333  1.7434  2.0832
 1275HK4    C36 7042  10.001   8.152   3.534 -0.0531 -0.2698 -0.2480
 1275HK4    H18 7043   9.957   8.157   3.434 -0.8988  0.1591  0.1430
 1275HK4    C37 7044   9.950   8.054   3.618 -0.1287  0.2035  0.2624
 1275HK4    H19 7045   9.862   7.996   3.593 -0.8793  0.3835  2.4207
 1275HK4    C38 7046  10.011   8.025   3.740  0.6357 -0.2892 -0.2283
 1275HK4    H20 7047   9.971   7.947   3.805  0.9123 -1.4943 -1.4930
 1275HK4    C14 7048  10.561   8.064   4.109 -0.3324 -0.0311 -0.2818
 1275HK4     C9 7049  10.591   7.941   4.169 -0.3803  0.0901 -0.0085
 1275HK4     C8 7050  10.684   7.935   4.275 -0.2646  0.1991 -0.1021
 1275HK4    C11 7051  10.776   8.039   4.288 -0.2289  0.0807  0.5806
 1275HK4     H4 7052  10.860   8.028   4.358  2.5560 -1.6540 -2.8455
 1275HK4    C12 7053  10.763   8.155   4.213  0.3955 -0.5879 -0.5918
 1275HK4     H5 7054  10.848   8.224   4.210 -2.4696  3.1222 -0.6915
 1275HK4    C13 7055  10.655   8.168   4.127  0.0330 -0.3893 -0.1122
 1275HK4     H6 7056  10.652   8.264   4.074  2.5569 -0.5964 -0.6816
 1275HK4     C7 7057  10.709   7.811   4.351  0.1275  0.1669 -0.2809
 1275HK4     O2 7058  10.753   7.821   4.465 -0.4427  0.3866 -0.0807
 1275HK4     C4 7059  10.657   7.682   4.301  0.1074  0.0379  0.0738
 1275HK4     C3 7060  10.694   7.565   4.366  0.8669  0.1190 -0.2135
 1275HK4     H3 7061  10.764   7.568   4.451 -0.4366  0.2624  0.8566
 1275HK4     C2 7062  10.632   7.446   4.328 -0.5746  0.7664  0.1038
 1275HK4     H2 7063  10.655   7.360   4.393 -0.2880  0.2501 -0.6851
 1275HK4     C1 7064  10.524   7.451   4.241 -0.6430  0.1458  0.1525
 1275HK4     H1 7065  10.469   7.358   4.222 -0.9259 -0.0768  1.9306
 1275HK4     C6 7066  10.485   7.569   4.175 -0.0464  0.2915  0.0606
 1275HK4     C5 7067  10.556   7.687   4.203 -0.5920  0.4424  0.8132
 1275HK4    C10 7068  10.536   7.811   4.123 -0.2180  0.0050  0.0406
 1275HK4     O1 7069  10.520   7.809   4.001 -0.0327  0.4459  0.0075
 1275HK4    C16 7070  10.372   7.548   4.083 -0.0678 -0.0616  0.1662
 1275HK4    C15 7071  10.270   7.643   4.064  0.1012  0.2006  0.5699
 1275HK4     H7 7072  10.255   7.714   4.147 -1.3464  0.3161  0.2242
 1275HK4    C20 7073  10.171   7.637   3.967  0.4909  0.2766  0.1662
 1275HK4     H9 7074  10.082   7.700   3.954  0.7860  0.4592 -1.0475
 1275HK4    C19 7075  10.184   7.532   3.878 -0.0496  0.3424  0.0066
 1275HK4    C18 7076  10.286   7.430   3.890  0.0952  0.4404 -0.3953
 1275HK4    C17 7077  10.382   7.446   3.990 -0.0985  0.2465 -0.1785
 1275HK4     H8 7078  10.464   7.375   3.996 -1.6635 -1.4749  1.7273
 1275HK4     N1 7079  10.285   7.335   3.785 -0.0172  0.1515 -0.1355
 1275HK4    C21 7080  10.174   7.370   3.705  0.1496  0.4968 -0.2165
 1275HK4    C22 7081  10.112   7.490   3.759  0.9071  1.1912 -0.8764
 1275HK4    C26 7082  10.004   7.539   3.687 -0.1480  0.3461  0.1202
 1275HK4    H13 7083   9.954   7.629   3.725 -1.1694 -0.5451  0.9223
 1275HK4    C25 7084   9.962   7.488   3.565  0.4070 -0.4526  0.2629
 1275HK4    H12 7085   9.859   7.503   3.532  0.4861 -1.4612 -0.4704
 1275HK4    C24 7086  10.021   7.371   3.518 -0.6294 -0.9259  0.1235
 1275HK4    H11 7087  10.030   7.359   3.409  0.0863  2.1904 -0.2197
 1275HK4    C23 7088  10.123   7.309   3.591 -0.1269 -0.0301  0.1846
 1275HK4    H10 7089  10.138   7.204   3.570 -2.2423 -0.0869 -1.2195
 1275HK4    C39 7090  10.347   7.210   3.789 -0.2212  0.0641  0.4781
 1275HK4    C41 7091  10.385   7.145   3.669 -0.1366 -0.0756  0.5806
 1275HK4    H21 7092  10.371   7.191   3.570  0.2909  1.8024  1.3561
 1275HK4    C42 7093  10.427   7.013   3.675 -0.5217 -0.2366 -0.2539
 1275HK4    H22 7094  10.463   6.972   3.580 -1.5387  0.3073 -0.8833
 1275HK4    C43 7095  10.446   6.938   3.791  0.1803  0.3275 -0.0063
 1275HK4    H23 7096  10.494   6.841   3.782  0.0254  0.2756 -0.2671
 1275HK4    C44 7097  10.409   7.004   3.908 -0.3725  0.0455 -0.0205
 1275HK4    H24 7098  10.436   6.970   4.009 -1.3989  0.5178  0.4099
 1275HK4    C45 7099  10.353   7.131   3.905 -0.1635  0.1548  0.5369
 1275HK4    H25 7100  10.308   7.163   4.000  0.2609 -2.0136  1.5107
 1276HK4    H28 7101   3.409   7.644  10.480 -0.3883  0.7912  1.8639
 1276HK4    C48 7102   3.386   7.538  10.491  0.3879  0.4700  0.5608
 1276HK4    C47 7103   3.270   7.499  10.556  0.3350  0.0589  0.2275
 1276HK4    H27 7104   3.216   7.587  10.594 -0.0950  0.0647 -0.3940
 1276HK4    C46 7105   3.217   7.371  10.551  0.0567  0.2043 -0.7290
 1276HK4    H26 7106   3.111   7.368  10.581  0.5265  0.9423  1.0613
 1276HK4    C40 7107   3.281   7.265  10.484 -0.2518 -0.1017 -0.5428
 1276HK4    C50 7108   3.402   7.302  10.421 -0.1062  0.3710  0.0113
 1276HK4    H30 7109   3.451   7.241  10.344 -1.0406  1.1704 -1.2311
 1276HK4    C49 7110   3.453   7.431  10.431 -0.1177  0.3607  0.1917
 1276HK4    H29 7111   3.548   7.449  10.378 -1.0696  0.3711 -1.5627
 1276HK4     N2 7112   3.232   7.134  10.496 -0.2799 -0.1035 -0.6766
 1276HK4    C30 7113   3.138   7.094  10.592 -0.0554  0.2814 -0.2944
 1276HK4    C29 7114   3.095   7.135  10.718 -0.3232 -0.0873 -0.2650
 1276HK4    H15 7115   3.114   7.241  10.736  0.6027  0.1789 -2.6724
 1276HK4    C28 7116   2.994   7.074  10.792 -0.0426 -0.0639  0.1381
 1276HK4    C27 7117   2.930   6.961  10.738 -0.3824  0.0456  0.3108
 1276HK4    H14 7118   2.833   6.926  10.778  0.2555 -0.7245  1.2195
 1276HK4    C32 7119   2.981   6.908  10.620  0.3575  0.4773  0.4394
 1276HK4    H16 7120   2.943   6.814  10.582  2.6704 -1.2535  2.2485
 1276HK4    C31 7121   3.082   6.969  10.546 -0.0896  0.3033 -0.3114
 1276HK4    C34 7122   3.152   6.926  10.426 -0.0922 -0.1815 -0.1364
 1276HK4    C33 7123   3.242   7.035  10.396 -0.0679 -0.2933 -0.4696
 1276HK4    C35 7124   3.337   7.000  10.301  0.6172 -0.1569  0.1633
 1276HK4    H17 7125   3.407   7.078  10.272  0.4143  0.0851  0.3196
 1276HK4    C36 7126   3.352   6.873  10.247  0.5482 -0.4692  0.8879
 1276HK4    H18 7127   3.431   6.860  10.172  1.8886  1.1624  1.9638
 1276HK4    C37 7128   3.257   6.776  10.277  0.2571 -0.4128  0.1442
 1276HK4    H19 7129   3.249   6.700  10.199  0.1262 -0.6736  0.4085
 1276HK4    C38 7130   3.148   6.805  10.357  0.1041 -0.1846 -0.1478
 1276HK4    H20 7131   3.085   6.724  10.395 -0.8018  1.1965  1.3898
 1276HK4    C14 7132   2.976   7.107  10.934  0.4124  0.2420  0.1299
 1276HK4     C9 7133   2.960   7.009  11.033  0.1486  0.1450 -0.0106
 1276HK4     C8 7134   2.876   7.038  11.142 -0.3256 -0.2086 -0.2800
 1276HK4    C11 7135   2.826   7.167  11.157 -0.4113 -0.3335  0.5569
 1276HK4     H4 7136   2.765   7.192  11.245 -1.5395 -0.8550 -0.0602
 1276HK4    C12 7137   2.849   7.271  11.068 -0.4336 -0.5801  0.2608
 1276HK4     H5 7138   2.835   7.378  11.092 -1.1154 -0.1078 -2.0954
 1276HK4    C13 7139   2.929   7.237  10.959  0.0427  0.0568  0.4114
 1276HK4     H6 7140   2.940   7.307  10.875 -0.6262 -0.0126  0.2617
 1276HK4     C7 7141   2.848   6.935  11.245 -0.2985  0.0738  0.0093
 1276HK4     O2 7142   2.771   6.963   0.088 -0.1939 -0.4006  0.2450
 1276HK4     C4 7143   2.915   6.803  11.242 -0.2256  0.1119 -0.1695
 1276HK4     C3 7144   2.875   6.701   0.080 -0.5788 -0.1964 -0.7014
 1276HK4     H3 7145   2.855   6.725   0.186  0.2772 -0.4097 -0.4946
 1276HK4     C2 7146   2.901   6.568   0.049  0.0289 -0.3027  0.2550
 1276HK4     H2 7147   2.855   6.492   0.114 -1.3570 -1.4673 -2.0315
 1276HK4     C1 7148   2.974   6.534  11.184  0.2336  0.3501  0.1889
 1276HK4     H1 7149   2.989   6.427  11.163  1.8670  0.2372  1.8451
 1276HK4     C6 7150   3.017   6.637  11.098  0.3380  0.2626  0.1345
 1276HK4     C5 7151   2.991   6.771  11.127  0.0892  0.2435 -0.0001
 1276HK4    C10 7152   3.033   6.879  11.033  0.3905  0.2797  0.1731
 1276HK4     O1 7153   3.148   6.877  10.989  0.2588  0.6295 -0.1945
 1276HK4    C16 7154   3.026   6.592  10.958 -0.4878  0.4203  0.0321
 1276HK4    C15 7155   2.926   6.507  10.906 -0.0894 -0.0958  0.1094
 1276HK4     H7 7156   2.850   6.479  10.980  1.8867  0.2891  2.3459
 1276HK4    C20 7157   2.932   6.445  10.782  0.1624  0.0416  0.0529
 1276HK4     H9 7158   2.834   6.414  10.745  0.5495 -0.0144 -0.9665
 1276HK4    C19 7159   3.050   6.457  10.709 -0.1830  0.0651 -0.5065
 1276HK4    C18 7160   3.160   6.536  10.760 -0.6273  0.5997 -0.3723
 1276HK4    C17 7161   3.144   6.594  10.885 -0.4288 -0.3825  0.1108
 1276HK4     H8 7162   3.226   6.648  10.932 -2.2526 -0.4140  3.5129
 1276HK4     N1 7163   3.275   6.530  10.678 -0.3677  0.6439 -0.0176
 1276HK4    C21 7164   3.234   6.457  10.564  0.3214  0.8732 -0.4105
 1276HK4    C22 7165   3.100   6.407  10.582  0.5745  0.2370 -0.2803
 1276HK4    C26 7166   3.033   6.334  10.484 -0.1212  0.6347 -0.1099
 1276HK4    H13 7167   2.928   6.307  10.496  0.1963  0.7140  3.6025
 1276HK4    C25 7168   3.101   6.294  10.369 -0.5091  0.3561 -0.2442
 1276HK4    H12 7169   3.049   6.254  10.283 -0.7817 -2.0481  0.9983
 1276HK4    C24 7170   3.236   6.328  10.359 -0.3962 -0.0662 -0.1818
 1276HK4    H11 7171   3.289   6.257  10.295  0.5190 -0.2075  0.7234
 1276HK4    C23 7172   3.300   6.410  10.451  0.0071 -0.5858  0.0014
 1276HK4    H10 7173   3.404   6.439  10.432  0.0471 -0.6208  0.1745
 1276HK4    C39 7174   3.383   6.618  10.686  0.2641 -0.1754  0.5013
 1276HK4    C41 7175   3.510   6.576  10.639 -0.0988 -0.2545 -0.4274
 1276HK4    H21 7176   3.528   6.469  10.620  0.9512  0.1673 -1.8107
 1276HK4    C42 7177   3.604   6.674  10.611  0.1363 -0.1585  0.6620
 1276HK4    H22 7178   3.699   6.649  10.560  2.1967  5.2566  1.5376
 1276HK4    C43 7179   3.577   6.808  10.636 -0.1570 -0.1452  0.2760
 1276HK4    H23 7180   3.639   6.887  10.595  0.2260  0.3379  1.7656
 1276HK4    C44 7181   3.455   6.847  10.690 -0.1876  0.0876  0.0374
 1276HK4    H24 7182   3.428   6.949  10.722 -0.5124 -0.5198  1.7311
 1276HK4    C45 7183   3.356   6.753  10.715  0.1861 -0.1902  0.4902
 1276HK4    H25 7184   3.261   6.780  10.764  0.4185 -2.9597  2.5691
 1277HK4    H28 7185   3.891   6.012   4.154 -1.0523 -0.6241  0.6471
 1277HK4    C48 7186   3.862   6.117   4.165  0.3021 -0.1981  0.2770
 1277HK4    C47 7187   3.869   6.204   4.057 -0.1450  0.1760  0.5495
 1277HK4    H27 7188   3.867   6.154   3.959  1.8150  0.7708  0.1813
 1277HK4    C46 7189   3.829   6.337   4.072 -0.2094  0.2437 -0.2298
 1277HK4    H26 7190   3.823   6.396   3.979 -3.3403  0.2480 -0.0771
 1277HK4    C40 7191   3.786   6.387   4.196 -0.1220  0.0133 -0.1052
 1277HK4    C50 7192   3.779   6.295   4.302  0.3903  0.2024  0.0969
 1277HK4    H30 7193   3.735   6.315   4.401 -0.5245 -0.1882 -0.2186
 1277HK4    C49 7194   3.818   6.162   4.289  0.1305  0.1258  0.0989
 1277HK4    H29 7195   3.797   6.081   4.360 -0.8034 -1.3019 -1.7727
 1277HK4     N2 7196   3.768   6.524   4.218  0.2847  0.0634 -0.0875
 1277HK4    C30 7197   3.830   6.635   4.157  0.4745 -0.0158 -0.0392
 1277HK4    C29 7198   3.953   6.645   4.093  0.4365  0.1300 -0.0888
 1277HK4    H15 7199   4.027   6.576   4.134  0.8919  0.8272  0.2857
 1277HK4    C28 7200   3.991   6.751   4.011  0.1887  0.0893 -0.2560
 1277HK4    C27 7201   3.892   6.851   4.003 -0.0575 -0.1575 -0.3562
 1277HK4    H14 7202   3.867   6.904   3.910  0.4094  0.8268  0.0665
 1277HK4    C32 7203   3.787   6.861   4.094  0.4394  0.2421  0.1827
 1277HK4    H16 7204   3.745   6.958   4.120 -0.6688 -0.2866  0.4031
 1277HK4    C31 7205   3.750   6.755   4.175  0.4755 -0.0031 -0.1201
 1277HK4    C34 7206   3.627   6.715   4.239  0.6911 -0.1411  0.2089
 1277HK4    C33 7207   3.648   6.575   4.271  0.2938 -0.2047  0.1937
 1277HK4    C35 7208   3.542   6.508   4.331  0.0918 -0.0724 -0.0116
 1277HK4    H17 7209   3.541   6.400   4.347  1.0732  0.1363  1.5700
 1277HK4    C36 7210   3.427   6.577   4.368  0.2448  0.1703  0.0097
 1277HK4    H18 7211   3.333   6.529   4.399  0.5115  0.2479  0.9283
 1277HK4    C37 7212   3.408   6.714   4.348  0.6944  0.3256  0.6052
 1277HK4    H19 7213   3.308   6.757   4.346  0.6875  0.3187  0.8138
 1277HK4    C38 7214   3.509   6.778   4.279  0.2677 -0.3641 -0.6850
 1277HK4    H20 7215   3.511   6.884   4.253  2.4474  0.4526  2.4998
 1277HK4    C14 7216   4.135   6.777   3.997  0.1731  0.4640  0.2988
 1277HK4     C9 7217   4.200   6.900   3.987  0.1368  0.4738  0.1947
 1277HK4     C8 7218   4.324   6.908   3.920 -0.2210 -0.1355 -0.5407
 1277HK4    C11 7219   4.378   6.796   3.858  0.0711 -0.0289 -0.4781
 1277HK4     H4 7220   4.484   6.795   3.828  0.3710  0.4074  0.5218
 1277HK4    C12 7221   4.314   6.672   3.865 -0.5009  0.3044  0.2780
 1277HK4     H5 7222   4.343   6.589   3.799 -0.8926  0.6218 -0.3057
 1277HK4    C13 7223   4.197   6.664   3.939 -0.5281  0.1174  0.2152
 1277HK4     H6 7224   4.156   6.563   3.951 -0.2050 -0.3139 -2.0890
 1277HK4     C7 7225   4.406   7.031   3.922  0.0336 -0.3127  0.2902
 1277HK4     O2 7226   4.526   7.036   3.897  0.0679 -0.3824  0.4372
 1277HK4     C4 7227   4.339   7.157   3.959  0.0273 -0.2790  0.1653
 1277HK4     C3 7228   4.401   7.281   3.966 -0.0503 -0.2594  0.5176
 1277HK4     H3 7229   4.509   7.283   3.945 -0.6504  1.7647 -2.7490
 1277HK4     C2 7230   4.335   7.399   4.001 -0.0073  0.1303 -0.6709
 1277HK4     H2 7231   4.385   7.495   4.020 -0.5265  0.3396 -0.3529
 1277HK4     C1 7232   4.197   7.391   4.017 -0.0028  0.1122 -0.6449
 1277HK4     H1 7233   4.139   7.482   4.038 -0.9109 -0.0458 -2.3573
 1277HK4     C6 7234   4.123   7.273   3.994  0.1928 -0.0904 -0.2487
 1277HK4     C5 7235   4.201   7.157   3.989  0.0822 -0.1978  0.4279
 1277HK4    C10 7236   4.140   7.029   4.034 -0.7245  0.0875  0.1706
 1277HK4     O1 7237   4.082   7.023   4.142 -0.2922 -0.1350  0.3933
 1277HK4    C16 7238   3.980   7.277   3.960  0.1456 -0.0587 -0.0463
 1277HK4    C15 7239   3.910   7.175   3.892 -0.0290  0.4017 -0.5627
 1277HK4     H7 7240   3.975   7.091   3.863  0.1217  0.1057  0.6312
 1277HK4    C20 7241   3.772   7.161   3.893  0.0284 -0.1721 -0.2930
 1277HK4     H9 7242   3.722   7.096   3.821  0.9764 -0.8310 -0.3671
 1277HK4    C19 7243   3.695   7.248   3.969 -0.3889 -0.2049 -0.6692
 1277HK4    C18 7244   3.760   7.358   4.038 -0.1011 -0.7206 -0.1044
 1277HK4    C17 7245   3.898   7.369   4.025 -0.1782 -0.0837 -0.4167
 1277HK4     H8 7246   3.938   7.450   4.086  0.7852 -0.3915 -0.6268
 1277HK4     N1 7247   3.684   7.412   4.144 -0.2085  0.2958 -0.6919
 1277HK4    C21 7248   3.571   7.329   4.144 -0.0875  0.1279  0.3287
 1277HK4    C22 7249   3.568   7.231   4.036  0.1905 -0.0490  0.4808
 1277HK4    C26 7250   3.468   7.134   4.042  0.2076 -0.1037 -0.1448
 1277HK4    H13 7251   3.469   7.076   3.950 -0.2305  1.5516 -1.2179
 1277HK4    C25 7252   3.377   7.121   4.145 -0.0123  0.1484 -0.3045
 1277HK4    H12 7253   3.300   7.044   4.157 -0.5275  0.5998 -0.7048
 1277HK4    C24 7254   3.378   7.220   4.243 -0.6629 -0.1180 -0.0247
 1277HK4    H11 7255   3.288   7.229   4.305 -1.9227 -2.9434 -1.3540
 1277HK4    C23 7256   3.473   7.321   4.243 -0.4869 -0.2836 -0.0936
 1277HK4    H10 7257   3.477   7.390   4.327  1.3007 -0.4052 -0.0536
 1277HK4    C39 7258   3.703   7.541   4.195 -0.3349  0.0344  0.0198
 1277HK4    C41 7259   3.637   7.590   4.309  0.2342  0.5333  0.1389
 1277HK4    H21 7260   3.626   7.515   4.390  1.3758  2.2169  1.9072
 1277HK4    C42 7261   3.605   7.720   4.345 -0.1153  0.4814  0.0160
 1277HK4    H22 7262   3.535   7.755   4.421  0.6310  1.9412  0.0608
 1277HK4    C43 7263   3.646   7.818   4.255 -0.2577  0.3739 -0.1643
 1277HK4    H23 7264   3.662   7.919   4.293 -0.4230  0.4978 -0.4150
 1277HK4    C44 7265   3.706   7.779   4.136  0.3057  0.2314  0.1648
 1277HK4    H24 7266   3.729   7.862   4.067 -1.7694 -1.1080 -2.2376
 1277HK4    C45 7267   3.739   7.647   4.108  0.0750  0.1396  0.3224
 1277HK4    H25 7268   3.798   7.627   4.017  0.8547  0.4258  0.7553
 1278HK4    H28 7269   0.958   8.213   4.533  2.1235  0.2311 -0.4034
 1278HK4    C48 7270   0.959   8.303   4.595  0.2316 -0.2982  0.4504
 1278HK4    C47 7271   1.041   8.409   4.556  0.4255 -0.4203  0.5300
 1278HK4    H27 7272   1.098   8.402   4.462  1.1441 -0.3134  0.9532
 1278HK4    C46 7273   1.038   8.529   4.625  0.0167  0.0617 -0.3260
 1278HK4    H26 7274   1.132   8.586   4.626  0.2720 -0.3571 -0.3416
 1278HK4    C40 7275   0.943   8.554   4.726  0.6043  0.5464  0.1135
 1278HK4    C50 7276   0.867   8.443   4.769  0.0602  0.6357 -0.6061
 1278HK4    H30 7277   0.826   8.454   4.871  0.1666  0.5046 -0.5478
 1278HK4    C49 7278   0.881   8.319   4.708 -0.8451  0.4217 -0.3838
 1278HK4    H29 7279   0.840   8.223   4.742 -3.5372  1.4138 -0.7360
 1278HK4     N2 7280   0.920   8.682   4.778  0.0698  0.3081  0.4777
 1278HK4    C30 7281   1.018   8.783   4.772  0.1640  0.1787 -0.2707
 1278HK4    C29 7282   1.156   8.782   4.791  0.1423 -0.3830 -0.1332
 1278HK4    H15 7283   1.208   8.687   4.782  1.1231  0.2238 -0.9959
 1278HK4    C28 7284   1.242   8.891   4.799 -0.2224 -0.0562 -0.6165
 1278HK4    C27 7285   1.179   9.017   4.792 -0.3165 -0.0380  0.4453
 1278HK4    H14 7286   1.235   9.111   4.792 -0.6606  0.1700  0.4870
 1278HK4    C32 7287   1.040   9.028   4.784 -0.2961  0.1577  0.3474
 1278HK4    H16 7288   0.993   9.126   4.778 -0.6111  0.1660  2.4888
 1278HK4    C31 7289   0.959   8.916   4.772 -0.0597  0.0795 -0.5762
 1278HK4    C34 7290   0.815   8.895   4.765 -0.0837  0.0837 -0.1421
 1278HK4    C33 7291   0.799   8.753   4.789 -0.0869  0.1142  0.0431
 1278HK4    C35 7292   0.674   8.694   4.802 -0.2091  0.2024 -0.7609
 1278HK4    H17 7293   0.664   8.602   4.860  0.4016  1.3875  1.2695
 1278HK4    C36 7294   0.563   8.775   4.783 -0.2258  0.5228  0.6620
 1278HK4    H18 7295   0.466   8.724   4.772  0.5582 -0.9113  0.3812
 1278HK4    C37 7296   0.576   8.913   4.766 -0.2333  0.5264  0.6706
 1278HK4    H19 7297   0.481   8.966   4.771 -0.8254 -0.4353 -0.1107
 1278HK4    C38 7298   0.700   8.972   4.749 -0.1058  0.1275  0.2287
 1278HK4    H20 7299   0.708   9.080   4.754 -0.5979  0.1233  1.2244
 1278HK4    C14 7300   1.368   8.871   4.873 -0.2757  0.2856 -0.4332
 1278HK4     C9 7301   1.414   8.960   4.970  0.0216 -0.0882 -0.2332
 1278HK4     C8 7302   1.551   8.980   4.997 -0.0165 -0.5435  0.2941
 1278HK4    C11 7303   1.639   8.889   4.938  0.6373  0.7957 -0.8113
 1278HK4     H4 7304   1.744   8.882   4.970 -0.7944 -2.9068  3.7139
 1278HK4    C12 7305   1.596   8.790   4.851  0.4358  0.7621 -0.6712
 1278HK4     H5 7306   1.671   8.715   4.822 -2.0644 -2.2647  0.3522
 1278HK4    C13 7307   1.462   8.784   4.814  0.1247  0.0486  0.5461
 1278HK4     H6 7308   1.430   8.693   4.761  1.0696  0.4987 -0.8294
 1278HK4     C7 7309   1.612   9.081   5.087  0.2292 -0.0386 -0.4385
 1278HK4     O2 7310   1.713   9.056   5.151 -0.1075 -0.5711 -0.1141
 1278HK4     C4 7311   1.518   9.181   5.144  0.2758  0.0153 -0.4568
 1278HK4     C3 7312   1.571   9.287   5.216 -0.1372 -0.6015  0.7778
 1278HK4     H3 7313   1.676   9.319   5.202 -0.4553  0.0604 -0.1907
 1278HK4     C2 7314   1.487   9.381   5.276  0.0148 -0.1874  0.3499
 1278HK4     H2 7315   1.515   9.439   5.365 -0.1564 -0.0828  0.3336
 1278HK4     C1 7316   1.353   9.376   5.241  0.0402 -0.0962  0.2378
 1278HK4     H1 7317   1.296   9.459   5.286  0.3309  0.0872  0.2714
 1278HK4     C6 7318   1.298   9.285   5.149  0.3459 -0.1654  0.1233
 1278HK4     C5 7319   1.380   9.177   5.114  0.0308 -0.6008  0.7256
 1278HK4    C10 7320   1.329   9.053   5.050  0.0995 -0.3181  0.1201
 1278HK4     O1 7321   1.229   9.006   5.104  0.1231 -0.3099  0.1716
 1278HK4    C16 7322   1.194   9.334   5.057  0.5064  0.1975  0.1350
 1278HK4    C15 7323   1.187   9.469   5.019 -0.2431  0.1542  0.1131
 1278HK4     H7 7324   1.280   9.527   5.018  0.3203 -0.7505 -0.0430
 1278HK4    C20 7325   1.073   9.533   4.971 -0.4245 -0.3286 -0.1015
 1278HK4     H9 7326   1.073   9.635   4.932 -3.2689  0.3504  1.5007
 1278HK4    C19 7327   0.951   9.467   4.958 -0.4064 -0.4879  0.5175
 1278HK4    C18 7328   0.954   9.331   5.006 -0.0755 -0.6202  0.1232
 1278HK4    C17 7329   1.071   9.269   5.048  0.5919  0.1372 -0.6148
 1278HK4     H8 7330   1.065   9.162   5.066 -3.7519  0.3891  0.0318
 1278HK4     N1 7331   0.821   9.292   5.034 -0.1806  0.0464  0.5318
 1278HK4    C21 7332   0.738   9.396   4.986 -0.0021 -0.2083 -0.3342
 1278HK4    C22 7333   0.814   9.512   4.943 -0.1831  0.0178 -0.0478
 1278HK4    C26 7334   0.748   9.620   4.886 -0.3163 -0.0095  0.0546
 1278HK4    H13 7335   0.806   9.699   4.837  0.2860  0.3490  1.3241
 1278HK4    C25 7336   0.610   9.616   4.870 -0.3396 -0.1690  0.2953
 1278HK4    H12 7337   0.564   9.703   4.823 -0.4138  0.8945  2.2754
 1278HK4    C24 7338   0.533   9.513   4.922 -0.3616 -0.4306 -0.2567
 1278HK4    H11 7339   0.431   9.538   4.955 -0.3563  0.7037 -1.0517
 1278HK4    C23 7340   0.601   9.400   4.966 -0.1072 -0.0210  0.4090
 1278HK4    H10 7341   0.542   9.318   5.008  1.6686 -1.2998  0.4462
 1278HK4    C39 7342   0.787   9.188   5.121 -0.2667 -0.0664  0.3636
 1278HK4    C41 7343   0.664   9.121   5.114 -0.1514 -0.2529  0.1239
 1278HK4    H21 7344   0.616   9.121   5.015 -1.8016  2.1787  0.8765
 1278HK4    C42 7345   0.609   9.036   5.209 -0.1900  0.1394  0.4487
 1278HK4    H22 7346   0.512   8.987   5.194 -0.1785  0.6610 -1.3234
 1278HK4    C43 7347   0.682   9.022   5.327  0.1248 -0.2147  0.2121
 1278HK4    H23 7348   0.623   9.006   5.417  2.6832  0.6022  2.0777
 1278HK4    C44 7349   0.805   9.084   5.344  0.2576 -0.3567 -0.2413
 1278HK4    H24 7350   0.871   9.031   5.414  1.4179  1.0463 -0.2357
 1278HK4    C45 7351   0.850   9.174   5.247  0.0078  0.3290  0.2740
 1278HK4    H25 7352   0.934   9.239   5.274  1.8697 -1.7072 -0.4797
 1279HK4    H28 7353   2.600   3.223   1.624 -0.4188 -0.3450 -0.5651
 1279HK4    C48 7354   2.694   3.173   1.602 -0.2647 -0.3161  0.0175
 1279HK4    C47 7355   2.719   3.102   1.485  0.2516 -0.1448  0.0209
 1279HK4    H27 7356   2.646   3.110   1.403 -1.8729 -0.5555  1.7993
 1279HK4    C46 7357   2.832   3.021   1.481  0.3483 -0.0021 -0.1516
 1279HK4    H26 7358   2.831   2.942   1.405 -2.7611  0.5103 -0.7233
 1279HK4    C40 7359   2.932   3.021   1.580  0.1367 -0.0219  0.0649
 1279HK4    C50 7360   2.900   3.090   1.698  0.1590  0.6062 -0.2962
 1279HK4    H30 7361   2.967   3.081   1.785 -1.9951 -0.3068  1.2808
 1279HK4    C49 7362   2.781   3.160   1.710 -0.0132  0.2840 -0.1157
 1279HK4    H29 7363   2.752   3.188   1.812  1.3276 -1.0091  0.6461
 1279HK4     N2 7364   3.036   2.926   1.581  0.2956  0.1451 -0.5088
 1279HK4    C30 7365   3.044   2.793   1.536  0.4097  0.0027 -0.0627
 1279HK4    C29 7366   2.944   2.704   1.500  0.4494  0.1307 -0.4844
 1279HK4    H15 7367   2.842   2.739   1.513  0.2558 -1.3537  2.3293
 1279HK4    C28 7368   2.967   2.571   1.465 -0.0751  0.0303 -0.4556
 1279HK4    C27 7369   3.101   2.529   1.471 -0.0649  0.1226  0.0104
 1279HK4    H14 7370   3.129   2.425   1.447  2.6195  0.6908  0.4924
 1279HK4    C32 7371   3.206   2.612   1.510  0.1674 -0.2972  0.2851
 1279HK4    H16 7372   3.307   2.572   1.515  1.4511  2.5330 -1.6537
 1279HK4    C31 7373   3.180   2.744   1.543  0.3276 -0.2099  0.0661
 1279HK4    C34 7374   3.262   2.852   1.596  0.0027  0.0574  0.0249
 1279HK4    C33 7375   3.169   2.963   1.609  0.2009  0.2474 -0.1940
 1279HK4    C35 7376   3.226   3.089   1.620  0.1667  0.1491  1.1995
 1279HK4    H17 7377   3.161   3.172   1.649  0.6026  0.5559  1.0272
 1279HK4    C36 7378   3.364   3.102   1.615  0.1451  0.0307  0.1255
 1279HK4    H18 7379   3.405   3.204   1.628 -0.8832  0.5914 -1.0106
 1279HK4    C37 7380   3.453   2.996   1.608  0.3390  0.1886  0.1624
 1279HK4    H19 7381   3.558   3.019   1.588  0.3482 -0.0585 -0.0765
 1279HK4    C38 7382   3.400   2.868   1.593 -0.0162  0.3049  0.4314
 1279HK4    H20 7383   3.472   2.792   1.563 -0.1667  0.1185  0.5423
 1279HK4    C14 7384   2.865   2.484   1.404 -0.2874 -0.3087  0.3746
 1279HK4     C9 7385   2.878   2.346   1.387  0.1641 -0.1478 -0.5680
 1279HK4     C8 7386   2.821   2.289   1.271 -0.3004  0.2681 -0.5447
 1279HK4    C11 7387   2.739   2.362   1.186 -0.6910  0.1760 -0.2455
 1279HK4     H4 7388   2.686   2.332   1.094  0.5265  0.3835 -1.0239
 1279HK4    C12 7389   2.714   2.497   1.210 -0.3801  0.1003  0.5224
 1279HK4     H5 7390   2.643   2.552   1.146  1.3455  1.9793  0.1653
 1279HK4    C13 7391   2.778   2.555   1.319  0.2017  0.0756  0.1957
 1279HK4     H6 7392   2.751   2.659   1.343  0.4504  0.3093 -0.5155
 1279HK4     C7 7393   2.824   2.143   1.252  0.5445  0.2548 -0.3224
 1279HK4     O2 7394   2.802   2.093   1.142 -0.4291  0.2155 -0.1199
 1279HK4     C4 7395   2.864   2.060   1.368 -0.4815  0.3138  0.0797
 1279HK4     C3 7396   2.867   1.922   1.350 -0.0109  0.3405 -0.0474
 1279HK4     H3 7397   2.854   1.872   1.253  1.5918 -0.6127  0.2038
 1279HK4     C2 7398   2.886   1.832   1.455  0.1269 -0.1407 -0.4836
 1279HK4     H2 7399   2.929   1.734   1.430 -0.8128 -1.1149  1.6224
 1279HK4     C1 7400   2.881   1.887   1.582 -0.5861 -0.0226 -0.5629
 1279HK4     H1 7401   2.891   1.823   1.671 -2.0475  0.7480  0.1816
 1279HK4     C6 7402   2.865   2.025   1.604 -1.0426 -0.1333 -0.1822
 1279HK4     C5 7403   2.869   2.116   1.497 -0.8160  0.2260  0.1317
 1279HK4    C10 7404   2.898   2.262   1.508  0.3906  0.0350 -0.4776
 1279HK4     O1 7405   2.970   2.302   1.599  0.1483 -0.0625 -0.2436
 1279HK4    C16 7406   2.848   2.072   1.743 -0.5173  0.1164 -0.2015
 1279HK4    C15 7407   2.910   2.008   1.852 -0.6036  0.4403  0.0358
 1279HK4     H7 7408   2.989   1.933   1.833 -1.4158  0.3713 -3.2755
 1279HK4    C20 7409   2.886   2.044   1.984  0.0244  0.0665  0.2536
 1279HK4     H9 7410   2.957   2.018   2.063 -1.8219 -1.1395  1.5472
 1279HK4    C19 7411   2.782   2.132   2.010 -0.4793 -0.4149 -0.1087
 1279HK4    C18 7412   2.713   2.193   1.899 -0.5138 -0.0440  0.1131
 1279HK4    C17 7413   2.742   2.158   1.767 -0.2042  0.4316  0.0513
 1279HK4     H8 7414   2.681   2.198   1.687  0.3540 -0.6838 -0.9482
 1279HK4     N1 7415   2.619   2.289   1.942 -0.3333  0.3925 -0.4567
 1279HK4    C21 7416   2.619   2.285   2.083  0.2682  0.1329 -0.4647
 1279HK4    C22 7417   2.719   2.190   2.128 -0.0661 -0.0351 -0.0738
 1279HK4    C26 7418   2.725   2.169   2.265 -0.7058  0.0499 -0.0340
 1279HK4    H13 7419   2.799   2.097   2.300 -0.7111 -0.4393 -1.0104
 1279HK4    C25 7420   2.637   2.224   2.357 -0.7994  0.2546 -0.2428
 1279HK4    H12 7421   2.638   2.196   2.463  2.5935 -0.1153 -0.3125
 1279HK4    C24 7422   2.545   2.317   2.311 -0.4185  0.6524 -0.1931
 1279HK4    H11 7423   2.482   2.370   2.383 -0.2839 -1.9271  1.8884
 1279HK4    C23 7424   2.537   2.348   2.175 -0.2032 -0.4790 -0.4671
 1279HK4    H10 7425   2.467   2.422   2.138 -0.2120  0.0598  0.5952
 1279HK4    C39 7426   2.595   2.406   1.868  0.3805  0.4342 -0.6289
 1279HK4    C41 7427   2.470   2.468   1.884  0.4598  0.2584  0.7818
 1279HK4    H21 7428   2.385   2.420   1.934 -0.3454 -0.1228 -0.9087
 1279HK4    C42 7429   2.442   2.596   1.836  0.3429  0.0808  0.3690
 1279HK4    H22 7430   2.358   2.657   1.873 -0.5396 -0.3920 -0.8108
 1279HK4    C43 7431   2.541   2.659   1.761  0.5853  0.2210  0.8087
 1279HK4    H23 7432   2.520   2.752   1.708 -2.7502 -1.7091 -1.3700
 1279HK4    C44 7433   2.666   2.601   1.742  0.2385 -0.2760  0.0459
 1279HK4    H24 7434   2.748   2.658   1.695 -0.6263  0.6470 -0.3663
 1279HK4    C45 7435   2.694   2.478   1.799  1.0727 -0.2956 -0.4012
 1279HK4    H25 7436   2.794   2.435   1.778  1.0593 -1.1922  1.2448
 1280HK4    H28 7437   1.851   7.731   6.768  1.0096  0.2057 -0.2028
 1280HK4    C48 7438   1.772   7.716   6.694  0.2959  0.0364  0.5945
 1280HK4    C47 7439   1.732   7.831   6.626 -0.7537 -0.6913 -0.0467
 1280HK4    H27 7440   1.803   7.916   6.622 -0.1197 -1.2387 -0.4502
 1280HK4    C46 7441   1.603   7.837   6.576 -0.6800  0.2389 -0.1331
 1280HK4    H26 7442   1.574   7.934   6.533  0.3360  0.5686 -0.0848
 1280HK4    C40 7443   1.509   7.734   6.596  0.0497 -0.2697  0.7456
 1280HK4    C50 7444   1.556   7.616   6.656  0.0351 -0.4621  0.3879
 1280HK4    H30 7445   1.483   7.535   6.675 -1.1615  0.0962 -1.7172
 1280HK4    C49 7446   1.684   7.609   6.709 -0.0608  0.3467  0.7327
 1280HK4    H29 7447   1.728   7.515   6.743 -1.6700 -0.7741 -0.2166
 1280HK4     N2 7448   1.389   7.729   6.523  0.6782 -0.8089 -0.2599
 1280HK4    C30 7449   1.275   7.660   6.569  0.6719 -0.7169 -0.1397
 1280HK4    C29 7450   1.250   7.634   6.703 -0.0044 -0.4491 -0.2137
 1280HK4    H15 7451   1.299   7.709   6.764 -0.1251  0.6517 -1.4658
 1280HK4    C28 7452   1.143   7.554   6.743 -0.1830 -0.2079 -0.2051
 1280HK4    C27 7453   1.058   7.515   6.637 -0.1427  0.3013 -0.4216
 1280HK4    H14 7454   0.960   7.479   6.671  1.1820 -0.2460  3.1329
 1280HK4    C32 7455   1.072   7.551   6.504 -0.4126  0.4154 -0.4195
 1280HK4    H16 7456   1.011   7.497   6.431 -0.1206  0.5764 -0.7875
 1280HK4    C31 7457   1.179   7.630   6.465 -0.0459  0.2441  0.2368
 1280HK4    C34 7458   1.237   7.681   6.342  0.1127 -0.2655  0.1009
 1280HK4    C33 7459   1.362   7.740   6.385  0.0726 -0.0466 -0.0819
 1280HK4    C35 7460   1.464   7.749   6.292 -0.0492  0.4207 -0.1686
 1280HK4    H17 7461   1.560   7.792   6.322 -0.1721 -0.6484  1.7920
 1280HK4    C36 7462   1.442   7.707   6.161  0.1707  0.4116 -0.2038
 1280HK4    H18 7463   1.532   7.700   6.099 -0.5283 -0.6186 -1.1276
 1280HK4    C37 7464   1.319   7.664   6.114  0.3428 -0.3487  0.0198
 1280HK4    H19 7465   1.314   7.615   6.017 -2.3374  0.1334 -0.1311
 1280HK4    C38 7466   1.216   7.654   6.207  0.4726 -0.6873  0.1269
 1280HK4    H20 7467   1.116   7.628   6.171  0.0075 -0.5524  1.3001
 1280HK4    C14 7468   1.126   7.506   6.881  0.4873  0.3349  0.0699
 1280HK4     C9 7469   1.047   7.400   6.927 -0.4941  0.6942 -0.7458
 1280HK4     C8 7470   0.977   7.397   7.049  0.0462 -0.4082 -0.4487
 1280HK4    C11 7471   0.998   7.505   7.134 -0.4215 -0.2564 -0.5287
 1280HK4     H4 7472   0.950   7.512   7.233 -0.6523  0.1054 -0.6631
 1280HK4    C12 7473   1.080   7.609   7.092 -0.6383 -0.2149 -0.8435
 1280HK4     H5 7474   1.069   7.702   7.150 -0.0244  0.7751 -2.2657
 1280HK4    C13 7475   1.152   7.610   6.973  1.1000  0.0710  0.1975
 1280HK4     H6 7476   1.240   7.673   6.954 -0.3784  2.0841 -0.1864
 1280HK4     C7 7477   0.877   7.292   7.080 -0.0750 -0.2315 -0.2395
 1280HK4     O2 7478   0.782   7.325   7.151 -0.1743 -0.1597 -0.4038
 1280HK4     C4 7479   0.868   7.174   6.992 -0.0033 -0.2280 -0.2507
 1280HK4     C3 7480   0.782   7.074   7.036  0.2382 -0.4860 -0.3596
 1280HK4     H3 7481   0.709   7.080   7.118 -0.4054  0.7276 -1.0125
 1280HK4     C2 7482   0.767   6.963   6.953 -0.9371 -0.2091 -0.5292
 1280HK4     H2 7483   0.740   6.865   6.996  0.5920 -0.3404  0.1538
 1280HK4     C1 7484   0.825   6.964   6.827  0.2992 -0.1902  0.0379
 1280HK4     H1 7485   0.833   6.872   6.767 -0.0776 -0.9563  1.1343
 1280HK4     C6 7486   0.898   7.074   6.776 -0.4355  0.1403 -0.2934
 1280HK4     C5 7487   0.934   7.173   6.867  0.5076 -0.4802  0.0185
 1280HK4    C10 7488   1.044   7.271   6.851  0.1635 -0.0238  0.4196
 1280HK4     O1 7489   1.156   7.226   6.827 -0.1012 -0.0541 -0.7568
 1280HK4    C16 7490   0.887   7.097   6.631  0.0322  0.3350 -0.2990
 1280HK4    C15 7491   0.803   7.022   6.546  0.1381 -0.0800 -0.0413
 1280HK4     H7 7492   0.725   6.966   6.600  0.6262  0.6079  1.3679
 1280HK4    C20 7493   0.820   7.005   6.409  0.0811  0.3151 -0.0980
 1280HK4     H9 7494   0.756   6.941   6.347 -4.2260  1.5276  2.8660
 1280HK4    C19 7495   0.929   7.062   6.344  0.5602 -0.2374  0.2186
 1280HK4    C18 7496   1.014   7.142   6.429  0.5210  0.1561 -0.1129
 1280HK4    C17 7497   0.991   7.160   6.565  0.0892  0.3346 -0.2092
 1280HK4     H8 7498   1.022   7.255   6.607 -2.1359  0.9255  0.1517
 1280HK4     N1 7499   1.111   7.211   6.354  0.3653  0.0379 -0.4248
 1280HK4    C21 7500   1.083   7.190   6.217 -0.1357 -0.4244 -0.2508
 1280HK4    C22 7501   0.975   7.093   6.210 -0.0946 -0.4844 -0.0705
 1280HK4    C26 7502   0.909   7.070   6.090 -0.4164  0.5354 -0.1014
 1280HK4    H13 7503   0.852   6.977   6.081 -2.1798  1.4607  1.1959
 1280HK4    C25 7504   0.946   7.142   5.977 -0.1825 -0.3850 -0.6205
 1280HK4    H12 7505   0.898   7.119   5.882 -1.3795 -1.4136  0.2020
 1280HK4    C24 7506   1.042   7.241   5.986 -0.3362 -0.3170  0.2753
 1280HK4    H11 7507   1.077   7.302   5.902  1.2223 -1.7556 -0.1614
 1280HK4    C23 7508   1.116   7.262   6.103  0.0346 -0.0937  0.0026
 1280HK4    H10 7509   1.177   7.350   6.119  0.7345 -0.5602 -0.0564
 1280HK4    C39 7510   1.238   7.235   6.408  0.0710  0.5640  0.0379
 1280HK4    C41 7511   1.322   7.332   6.349  0.2960  0.1123 -0.3875
 1280HK4    H21 7512   1.281   7.420   6.296  0.7868 -1.1643 -2.9790
 1280HK4    C42 7513   1.458   7.325   6.375  0.2359 -0.3434 -0.1928
 1280HK4    H22 7514   1.518   7.405   6.328 -1.8320  0.9537 -0.7089
 1280HK4    C43 7515   1.518   7.227   6.453  0.0324  0.0148  0.4200
 1280HK4    H23 7516   1.619   7.186   6.440 -0.7696 -2.6068  2.1135
 1280HK4    C44 7517   1.433   7.143   6.523 -0.2925  0.0584  0.0798
 1280HK4    H24 7518   1.473   7.091   6.611 -1.3523 -0.4770  0.2505
 1280HK4    C45 7519   1.297   7.140   6.493 -0.1199 -0.2112 -0.6898
 1280HK4    H25 7520   1.225   7.077   6.547 -1.2289  1.2362 -0.4447
 1281HK4    H28 7521  10.944   6.906   8.563 -0.1549 -0.0427  3.1073
 1281HK4    C48 7522  11.019   6.986   8.567 -0.0285  0.0451  0.2396
 1281HK4    C47 7523  11.026   7.069   8.678  0.1257 -0.0848  0.3252
 1281HK4    H27 7524  10.998   7.027   8.776  2.0094 -2.7039 -0.2148
 1281HK4    C46 7525  11.110   7.180   8.677  1.0958 -0.8158  0.0811
 1281HK4    H26 7526  11.101   7.256   8.756 -0.1016 -0.8575 -0.0027
 1281HK4    C40 7527  11.194   7.207   8.567 -0.1252  0.5960 -0.5304
 1281HK4    C50 7528  11.193   7.113   8.462  0.5231 -0.3016  0.2569
 1281HK4    H30 7529   0.025   7.107   8.386 -0.5090 -1.5577 -0.7378
 1281HK4    C49 7530  11.103   7.007   8.459  0.2112 -0.0400  0.4075
 1281HK4    H29 7531  11.086   6.957   8.363  1.3196 -1.0697  0.7222
 1281HK4     N2 7532   0.045   7.306   8.572  0.0113  0.4493 -0.3289
 1281HK4    C30 7533   0.094   7.366   8.690 -0.1778  0.1771 -0.1094
 1281HK4    C29 7534   0.108   7.308   8.815  0.5492  0.2849 -0.1403
 1281HK4    H15 7535   0.137   7.203   8.819 -0.3102  0.0354 -0.5623
 1281HK4    C28 7536   0.115   7.385   8.931  0.0658  0.1508 -0.0205
 1281HK4    C27 7537   0.142   7.522   8.912 -0.0909  0.1825 -0.0072
 1281HK4    H14 7538   0.154   7.590   8.998 -1.3543 -1.0347  1.1685
 1281HK4    C32 7539   0.146   7.581   8.787 -0.3293 -0.1555 -0.1802
 1281HK4    H16 7540   0.193   7.679   8.774  0.9372 -0.6266  0.7647
 1281HK4    C31 7541   0.121   7.507   8.671 -0.0991  0.1244 -0.4071
 1281HK4    C34 7542   0.092   7.533   8.532 -0.1666  0.1740 -0.3864
 1281HK4    C33 7543   0.064   7.404   8.472 -0.7095  0.3647 -0.5546
 1281HK4    C35 7544   0.043   7.408   8.335  0.2138 -0.6020 -0.7297
 1281HK4    H17 7545   0.044   7.310   8.286  2.0691 -1.5552  1.0914
 1281HK4    C36 7546   0.030   7.524   8.260  0.5431  0.1258  0.3227
 1281HK4    H18 7547  11.229   7.512   8.162  1.5443 -0.9941 -0.0689
 1281HK4    C37 7548   0.030   7.646   8.326 -0.2803  0.2924  0.0169
 1281HK4    H19 7549  11.216   7.728   8.291  0.5018  0.7606 -0.2856
 1281HK4    C38 7550   0.072   7.649   8.459  0.3121  0.3927 -0.1707
 1281HK4    H20 7551   0.091   7.743   8.511  0.2581 -0.3920  1.2808
 1281HK4    C14 7552   0.033   7.338   9.044  0.3423 -0.5463 -0.1004
 1281HK4     C9 7553  11.207   7.416   9.134 -0.3117 -0.1259 -0.9934
 1281HK4     C8 7554  11.176   7.372   9.265  0.1213  0.2232 -0.7733
 1281HK4    C11 7555  11.198   7.239   9.298  0.4659  0.4252 -0.1854
 1281HK4     H4 7556  11.168   7.191   9.392  0.9587  0.0450 -0.2212
 1281HK4    C12 7557   0.017   7.157   9.208  0.1421  0.2722 -0.2866
 1281HK4     H5 7558   0.004   7.048   9.217  1.0641  0.1705 -0.1873
 1281HK4    C13 7559   0.059   7.206   9.085  0.3298 -0.7122 -0.6258
 1281HK4     H6 7560   0.084   7.135   9.005  1.3195  0.1941 -1.1318
 1281HK4     C7 7561  11.133   7.470   9.368 -0.1562 -0.7584  0.0482
 1281HK4     O2 7562  11.081   7.437   9.474 -0.2753  0.3152  0.3280
 1281HK4     C4 7563  11.126   7.612   9.328 -0.4958 -0.7490  0.1378
 1281HK4     C3 7564  11.116   7.710   9.427 -0.0561  0.2224 -0.7704
 1281HK4     H3 7565  11.117   7.687   9.534 -0.3300  0.2422 -0.7630
 1281HK4     C2 7566  11.122   7.846   9.400 -0.0013  0.3588 -0.0750
 1281HK4     H2 7567  11.159   7.914   9.479  1.1806 -0.6236  0.2254
 1281HK4     C1 7568  11.152   7.885   9.270  0.2234 -0.4408 -0.2649
 1281HK4     H1 7569  11.201   7.984   9.269 -0.6478  0.1064  3.3718
 1281HK4     C6 7570  11.151   7.793   9.164 -0.3621 -0.2716 -0.4071
 1281HK4     C5 7571  11.137   7.657   9.195 -0.4342 -0.0858  0.3663
 1281HK4    C10 7572  11.153   7.549   9.094  0.6716  0.5368 -0.1370
 1281HK4     O1 7573  11.081   7.545   8.995 -0.4646  0.3506  0.6791
 1281HK4    C16 7574  11.216   7.838   9.039 -0.4410  0.2383 -0.2642
 1281HK4    C15 7575   0.087   7.912   9.036  0.1815 -0.7568 -0.4464
 1281HK4     H7 7576   0.127   7.943   9.134 -0.3501 -0.2768 -0.3744
 1281HK4    C20 7577   0.138   7.961   8.917 -0.1449  0.7602  0.0208
 1281HK4     H9 7578   0.247   7.971   8.916 -0.0545 -0.1729  0.1560
 1281HK4    C19 7579   0.071   7.946   8.796  0.0342  0.0305  0.0067
 1281HK4    C18 7580  11.191   7.876   8.800 -0.0542  0.1888 -0.0708
 1281HK4    C17 7581  11.145   7.824   8.920 -0.2617 -0.2130 -0.3202
 1281HK4     H8 7582  11.045   7.781   8.911 -0.7729  0.4395  1.8123
 1281HK4     N1 7583  11.122   7.892   8.678 -0.1771 -0.7593 -0.1227
 1281HK4    C21 7584  11.216   7.960   8.598  0.0084 -0.5891  0.2414
 1281HK4    C22 7585   0.085   8.011   8.668  0.1233 -0.3067 -0.1564
 1281HK4    C26 7586   0.194   8.064   8.600 -0.1904  0.0016 -0.4273
 1281HK4    H13 7587   0.289   8.084   8.650  0.4644 -1.4319 -1.0465
 1281HK4    C25 7588   0.200   8.064   8.461  1.1415 -0.7039 -0.3786
 1281HK4    H12 7589   0.286   8.110   8.411  0.3686  1.0645 -0.1084
 1281HK4    C24 7590   0.086   8.019   8.395  0.3258 -0.0902  0.5984
 1281HK4    H11 7591   0.081   8.032   8.286 -0.8393 -0.3881  0.6115
 1281HK4    C23 7592  11.218   7.980   8.461  0.1283  0.0680  0.3383
 1281HK4    H10 7593  11.126   7.963   8.405  1.7386 -1.2136 -1.9964
 1281HK4    C39 7594  11.022   7.804   8.634 -0.6685 -0.2521 -0.0289
 1281HK4    C41 7595  10.931   7.829   8.530 -0.1637  0.2389 -0.3582
 1281HK4    H21 7596  10.921   7.933   8.495  4.3358  0.5218 -1.0433
 1281HK4    C42 7597  10.855   7.734   8.463 -0.5831  0.5148 -0.2816
 1281HK4    H22 7598  10.781   7.768   8.389  0.0631  1.4247 -0.5216
 1281HK4    C43 7599  10.866   7.602   8.504 -0.3006  0.6571  0.1032
 1281HK4    H23 7600  10.817   7.525   8.444  1.4153  0.5589 -1.2142
 1281HK4    C44 7601  10.944   7.572   8.616  0.2324  0.1001 -0.4068
 1281HK4    H24 7602  10.937   7.473   8.663 -3.8005  0.1178 -0.7597
 1281HK4    C45 7603  11.022   7.669   8.677 -1.0737  0.1454  1.2357
 1281HK4    H25 7604  11.098   7.629   8.745  3.6582  0.6448 -3.4253
 1282HK4    H28 7605   0.604   2.656   7.927 -0.3330  0.7694  1.0286
 1282HK4    C48 7606   0.507   2.616   7.956 -0.7274  0.6483 -0.4457
 1282HK4    C47 7607   0.499   2.500   8.031 -0.8227  0.8160 -0.1952
 1282HK4    H27 7608   0.582   2.461   8.091 -0.6629 -1.1349 -1.6137
 1282HK4    C46 7609   0.378   2.432   8.044 -0.1038 -0.4820 -0.1864
 1282HK4    H26 7610   0.378   2.336   8.097  0.3811 -0.7810 -0.7278
 1282HK4    C40 7611   0.260   2.487   7.989  0.1633 -0.0998 -0.3805
 1282HK4    C50 7612   0.269   2.612   7.924 -0.1904  0.4090  0.5369
 1282HK4    H30 7613   0.181   2.672   7.900  0.4082  0.6867 -1.0629
 1282HK4    C49 7614   0.392   2.675   7.904 -0.4969  0.5145 -1.1175
 1282HK4    H29 7615   0.401   2.758   7.833 -1.2252  1.1225 -0.5220
 1282HK4     N2 7616   0.144   2.409   7.979  0.2387 -0.2328 -0.2185
 1282HK4    C30 7617   0.015   2.465   7.974  0.2678 -0.1546 -0.0930
 1282HK4    C29 7618  11.211   2.588   8.013 -0.1106 -0.2815 -0.1953
 1282HK4    H15 7619   0.033   2.660   8.055 -0.4263 -0.0531 -0.0530
 1282HK4    C28 7620  11.078   2.619   7.988 -0.1233  0.0991  0.3471
 1282HK4    C27 7621  10.995   2.525   7.923  0.0361 -0.1847  0.5521
 1282HK4    H14 7622  10.896   2.559   7.887  0.2227  0.4627  0.6426
 1282HK4    C32 7623  11.043   2.400   7.886 -0.2946 -0.2413  0.3127
 1282HK4    H16 7624  10.976   2.321   7.851 -1.4749  0.8849 -0.0536
 1282HK4    C31 7625  11.175   2.368   7.911 -0.3320 -0.1109  0.6729
 1282HK4    C34 7626   0.006   2.251   7.877 -0.0818  0.0506  0.6961
 1282HK4    C33 7627   0.140   2.279   7.924  0.2084 -0.3788  0.1294
 1282HK4    C35 7628   0.235   2.178   7.910  0.5570 -0.0881  0.3748
 1282HK4    H17 7629   0.331   2.188   7.960  0.0321  0.8191  1.2196
 1282HK4    C36 7630   0.201   2.053   7.861  0.2237  0.0147  0.3377
 1282HK4    H18 7631   0.278   1.975   7.854  0.7130  0.4327  1.0664
 1282HK4    C37 7632   0.069   2.025   7.826  0.2889  0.2182 -0.0795
 1282HK4    H19 7633   0.042   1.931   7.778  1.1067  0.0718 -0.2729
 1282HK4    C38 7634  11.220   2.124   7.832  0.2894  0.2170 -0.0699
 1282HK4    H20 7635  11.115   2.096   7.822  0.5516 -1.5546  1.7561
 1282HK4    C14 7636  11.017   2.727   8.067  0.1568  0.2506  0.3565
 1282HK4     C9 7637  10.885   2.725   8.113  0.0068  0.0115 -0.0756
 1282HK4     C8 7638  10.817   2.849   8.118 -0.0666 -0.0335  0.0041
 1282HK4    C11 7639  10.890   2.966   8.102  0.3299 -0.2776  0.0016
 1282HK4     H4 7640  10.833   3.060   8.114  1.4168  0.2183  1.3735
 1282HK4    C12 7641  11.023   2.973   8.064  0.2872 -0.0334 -0.1074
 1282HK4     H5 7642  11.067   3.061   8.015  0.4286 -0.3708 -0.5877
 1282HK4    C13 7643  11.085   2.849   8.047  0.4765  0.0322  0.0980
 1282HK4     H6 7644  11.168   2.847   7.975 -0.3684 -0.0824 -0.9052
 1282HK4     C7 7645  10.671   2.844   8.144 -0.0095 -0.0607  0.3217
 1282HK4     O2 7646  10.616   2.951   8.169  0.1168  0.0942 -0.0651
 1282HK4     C4 7647  10.603   2.713   8.152  0.1210 -0.1512 -0.0519
 1282HK4     C3 7648  10.465   2.701   8.151  0.1120 -0.0763  0.1840
 1282HK4     H3 7649  10.409   2.796   8.154 -0.2969 -0.3468  1.2949
 1282HK4     C2 7650  10.397   2.580   8.163 -0.1121 -0.0047 -0.3254
 1282HK4     H2 7651  10.287   2.575   8.158 -0.2661  1.4043  1.1835
 1282HK4     C1 7652  10.474   2.464   8.165 -0.3690 -0.1705  0.1853
 1282HK4     H1 7653  10.421   2.368   8.173  0.9607 -0.9247  0.1094
 1282HK4     C6 7654  10.615   2.465   8.174 -0.3136 -0.1047 -0.6018
 1282HK4     C5 7655  10.674   2.592   8.168 -0.0154 -0.1960  0.2291
 1282HK4    C10 7656  10.822   2.599   8.162 -0.0435 -0.0398 -0.2752
 1282HK4     O1 7657  10.885   2.541   8.250 -0.2827  0.5369  0.2847
 1282HK4    C16 7658  10.686   2.345   8.126  0.0471 -0.1967  0.1585
 1282HK4    C15 7659  10.654   2.294   7.999 -0.2820 -0.4788  0.3518
 1282HK4     H7 7660  10.594   2.353   7.928 -1.3466 -2.2816 -0.2517
 1282HK4    C20 7661  10.712   2.177   7.954  0.4107  0.0491 -0.1438
 1282HK4     H9 7662  10.697   2.142   7.852  1.0167 -0.0515 -0.2004
 1282HK4    C19 7663  10.800   2.102   8.032  0.2279  0.0361  0.0492
 1282HK4    C18 7664  10.825   2.144   8.169  0.3196  0.0608  0.0271
 1282HK4    C17 7665  10.769   2.266   8.205  0.7035  0.2631 -0.0642
 1282HK4     H8 7666  10.768   2.292   8.311 -0.9259  1.1919 -0.2880
 1282HK4     N1 7667  10.910   2.057   8.240 -0.1317 -0.0807  0.4022
 1282HK4    C21 7668  10.939   1.955   8.147 -0.3417  0.1461  0.0877
 1282HK4    C22 7669  10.884   1.985   8.016 -0.0026 -0.1058 -0.1122
 1282HK4    C26 7670  10.909   1.915   7.899 -0.1873 -0.0856 -0.1653
 1282HK4    H13 7671  10.877   1.965   7.808 -3.1418 -2.5691 -0.5590
 1282HK4    C25 7672  10.999   1.809   7.908 -0.3012 -0.2047 -0.4057
 1282HK4    H12 7673  11.028   1.752   7.820  0.7665 -3.6725  2.0852
 1282HK4    C24 7674  11.060   1.776   8.028  0.2011  1.0058 -0.3165
 1282HK4    H11 7675  11.117   1.682   8.035 -3.3798 -1.2848 -0.8275
 1282HK4    C23 7676  11.029   1.849   8.142  0.1002  0.5202 -0.0294
 1282HK4    H10 7677  11.097   1.839   8.227  0.2902  3.2795  0.1972
 1282HK4    C39 7678  10.994   2.095   8.345 -0.2461 -0.1446  0.5176
 1282HK4    C41 7679  11.044   1.995   8.431  0.1806 -0.5184 -0.1655
 1282HK4    H21 7680  10.991   1.900   8.447 -0.4942 -0.2073 -0.5201
 1282HK4    C42 7681  11.140   2.028   8.526  0.2792  0.4477 -0.5923
 1282HK4    H22 7682  11.168   1.952   8.601  1.6545 -0.6129 -2.1205
 1282HK4    C43 7683  11.196   2.155   8.531 -0.2164  0.6399  0.0054
 1282HK4    H23 7684   0.035   2.187   8.589  1.5734  0.5678 -2.5853
 1282HK4    C44 7685  11.148   2.253   8.444 -0.4609  0.2784 -0.2690
 1282HK4    H24 7686  11.204   2.347   8.449 -1.8093  1.1621 -1.5489
 1282HK4    C45 7687  11.044   2.227   8.357 -0.2139 -0.0690 -0.4670
 1282HK4    H25 7688  11.007   2.309   8.293 -4.3094 -2.5687 -1.5220
 1283HK4    H28 7689   2.631  10.496  10.881  0.2659 -0.9898 -1.7057
 1283HK4    C48 7690   2.534  10.545  10.885  0.6723 -0.2887 -0.0064
 1283HK4    C47 7691   2.485  10.642  10.799  0.0406 -0.6265 -0.0345
 1283HK4    H27 7692   2.553  10.682  10.722  0.9650 -2.9410 -0.4571
 1283HK4    C46 7693   2.357  10.691  10.817  0.1042 -0.5347  0.1654
 1283HK4    H26 7694   2.326  10.774  10.752 -0.9615 -0.0771  1.2147
 1283HK4    C40 7695   2.270  10.659  10.924  0.0737 -0.6629  0.1034
 1283HK4    C50 7696   2.331  10.569  11.013  0.1292 -0.1322  0.6061
 1283HK4    H30 7697   2.288  10.555  11.113 -0.4462 -2.1617  0.0989
 1283HK4    C49 7698   2.452  10.505  10.990 -0.1034 -0.1749 -0.5644
 1283HK4    H29 7699   2.480  10.422  11.058 -2.8778  1.6456  2.9928
 1283HK4     N2 7700   2.156  10.734  10.957  0.3363 -0.2004 -0.0332
 1283HK4    C30 7701   2.132  10.870  10.927  0.0179 -0.4441 -0.9144
 1283HK4    C29 7702   2.224  10.971  10.900 -0.1185 -0.0432  0.1122
 1283HK4    H15 7703   2.329  10.948  10.914 -0.0037  0.5898  0.3032
 1283HK4    C28 7704   2.183  11.101  10.873 -0.0030 -0.0253  0.0043
 1283HK4    C27 7705   2.045  11.128  10.862 -0.0699 -0.1827  0.4419
 1283HK4    H14 7706   2.011  11.231  10.845 -0.4461 -0.1275  1.4853
 1283HK4    C32 7707   1.948  11.030  10.881 -0.4351 -0.0240 -0.5846
 1283HK4    H16 7708   1.849  11.058  10.845  0.8212  4.2993 -1.0484
 1283HK4    C31 7709   1.992  10.905  10.922  0.1714  0.2886 -0.2620
 1283HK4    C34 7710   1.923  10.782  10.956 -0.2742  0.6741  0.2546
 1283HK4    C33 7711   2.026  10.681  10.975 -0.0696  0.8752  0.2037
 1283HK4    C35 7712   1.982  10.557  11.020 -0.2192  0.6121 -0.6598
 1283HK4    H17 7713   2.059  10.481  11.034  0.6636  1.8425  1.5668
 1283HK4    C36 7714   1.850  10.530  11.053 -0.0329  0.3685 -0.1108
 1283HK4    H18 7715   1.814  10.428  11.069  0.6998  0.4880  2.6263
 1283HK4    C37 7716   1.756  10.631  11.036 -0.3398  0.3337  1.2691
 1283HK4    H19 7717   1.650  10.608  11.048  0.0601 -0.7894  2.8107
 1283HK4    C38 7718   1.791  10.758  10.992 -0.2498 -0.1825 -0.1907
 1283HK4    H20 7719   1.727  10.845  11.010 -0.4918 -0.2548 -0.7079
 1283HK4    C14 7720   2.278  11.213  10.875 -0.3789  0.2951  0.0379
 1283HK4     C9 7721   2.248   0.087  10.935 -0.6023  0.2574  0.0071
 1283HK4     C8 7722   2.286   0.203  10.864  0.6431 -0.2704 -0.1911
 1283HK4    C11 7723   2.366   0.207  10.750 -0.0433  1.0230 -0.6376
 1283HK4     H4 7724   2.398   0.303  10.707 -0.4425  1.5510  0.2344
 1283HK4    C12 7725   2.409   0.082  10.706 -0.4893  0.6126  0.0840
 1283HK4     H5 7726   2.500   0.080  10.645  0.4956 -1.8353  1.5586
 1283HK4    C13 7727   2.356  11.212  10.757  0.0890  0.4623  0.3447
 1283HK4     H6 7728   2.388  11.120  10.706 -0.6819  0.2121  0.3080
 1283HK4     C7 7729   2.275   0.336  10.928 -0.3370 -0.5067  0.1292
 1283HK4     O2 7730   2.228   0.428  10.862  0.2983  0.0262  0.4154
 1283HK4     C4 7731   2.268   0.339  11.076  0.0488 -0.1439  0.1438
 1283HK4     C3 7732   2.263   0.459  11.146 -0.6260 -0.3777  0.5001
 1283HK4     H3 7733   2.268   0.553  11.089 -1.1326  0.1575  1.3347
 1283HK4     C2 7734   2.263   0.471   0.036 -0.1824  0.7972  0.4032
 1283HK4     H2 7735   2.280   0.568   0.085  0.8922  0.2130  1.2153
 1283HK4     C1 7736   2.251   0.355   0.112  0.1384  0.2007 -0.4520
 1283HK4     H1 7737   2.238   0.358   0.221 -5.7267 -0.8582 -0.9374
 1283HK4     C6 7738   2.253   0.230   0.046 -0.7615 -0.0630  0.0116
 1283HK4     C5 7739   2.258   0.222  11.155  0.8128 -0.2629  0.0706
 1283HK4    C10 7740   2.225   0.096  11.082 -0.5038  0.0880  0.0315
 1283HK4     O1 7741   2.147   0.018  11.135  0.2664 -0.6072  0.1590
 1283HK4    C16 7742   2.277   0.111   0.128  0.2259  0.3253  0.3011
 1283HK4    C15 7743   2.245   0.109   0.265 -0.2690  0.0615  0.1842
 1283HK4     H7 7744   2.142   0.145   0.283 -0.3497  0.3908 -0.8891
 1283HK4    C20 7745   2.324   0.051   0.363 -0.1835 -0.0998  0.0191
 1283HK4     H9 7746   2.277   0.049   0.461 -0.6745  1.3517 -0.1786
 1283HK4    C19 7747   2.441  11.231   0.329 -0.3771 -0.3836 -0.0779
 1283HK4    C18 7748   2.455  11.204   0.188  0.1562 -0.2607 -0.0491
 1283HK4    C17 7749   2.380   0.024   0.093  0.2803  0.3848  0.3159
 1283HK4     H8 7750   2.407   0.010  11.236  1.1911 -0.0068  0.6010
 1283HK4     N1 7751   2.565  11.117   0.170  0.4741  0.1024  0.1443
 1283HK4    C21 7752   2.620  11.090   0.297 -0.1416 -0.2949  0.3304
 1283HK4    C22 7753   2.551  11.166   0.398 -0.3999 -0.2295  0.1038
 1283HK4    C26 7754   2.612  11.195   0.520 -0.0770 -0.5690  0.0233
 1283HK4    H13 7755   2.564   0.009   0.596  1.7923 -0.3696  1.0508
 1283HK4    C25 7756   2.740  11.150   0.547  0.1339  0.2432  0.3816
 1283HK4    H12 7757   2.782  11.156   0.648  0.1871 -0.2645  0.3883
 1283HK4    C24 7758   2.810  11.078   0.450  0.2122  0.9277 -0.0787
 1283HK4    H11 7759   2.913  11.042   0.467  0.2830  1.1277 -0.0880
 1283HK4    C23 7760   2.749  11.048   0.329 -0.0056  0.0532  0.2475
 1283HK4    H10 7761   2.819  11.006   0.257 -1.0325 -2.2049  0.5049
 1283HK4    C39 7762   2.580  11.039   0.055 -0.2161  0.1461  0.0182
 1283HK4    C41 7763   2.707  10.995   0.011 -0.4849 -0.7183  0.0858
 1283HK4    H21 7764   2.800  11.033   0.056  0.6904 -2.1644 -1.0732
 1283HK4    C42 7765   2.715  10.890  11.168 -0.0786 -0.4878 -0.1495
 1283HK4    H22 7766   2.816  10.856  11.142 -0.1734  0.2173 -1.4664
 1283HK4    C43 7767   2.599  10.831  11.119 -0.3651 -0.0150 -0.0530
 1283HK4    H23 7768   2.609  10.733  11.070 -0.9830 -0.6885  1.1447
 1283HK4    C44 7769   2.473  10.877  11.154 -0.4615 -0.2473 -0.0919
 1283HK4    H24 7770   2.384  10.857  11.093  0.1848 -1.5629 -0.6296
 1283HK4    C45 7771   2.465  10.979   0.000  0.0166 -0.1552 -0.1463
 1283HK4    H25 7772   2.371  11.036  11.243  0.7389  1.0785  0.1150
 1284HK4    H28 7773  10.358   5.474   6.489  1.6863 -0.5647 -0.3679
 1284HK4    C48 7774  10.395   5.465   6.591  0.6056 -0.3163  0.0536
 1284HK4    C47 7775  10.384   5.334   6.638 -0.0063 -0.2880 -0.0017
 1284HK4    H27 7776  10.381   5.253   6.564  1.1229 -0.8962  0.6152
 1284HK4    C46 7777  10.428   5.313   6.768 -0.4728  0.0498  0.2137
 1284HK4    H26 7778  10.401   5.214   6.809 -2.3952 -0.0296 -1.1251
 1284HK4    C40 7779  10.498   5.405   6.848 -0.3818 -0.0499  0.2464
 1284HK4    C50 7780  10.502   5.537   6.798  0.1646 -0.2221 -0.1716
 1284HK4    H30 7781  10.564   5.610   6.853  1.9908 -1.6696 -0.2307
 1284HK4    C49 7782  10.446   5.564   6.674  0.3777  0.0270 -0.2157
 1284HK4    H29 7783  10.434   5.666   6.636 -0.1023 -0.4416 -1.3720
 1284HK4     N2 7784  10.600   5.366   6.936  0.0534 -0.0513 -0.2507
 1284HK4    C30 7785  10.676   5.248   6.930  0.5683  0.2544  0.2486
 1284HK4    C29 7786  10.687   5.158   6.824 -0.1818  0.1094  0.2902
 1284HK4    H15 7787  10.654   5.188   6.725  0.9018  0.2045 -0.0529
 1284HK4    C28 7788  10.772   5.048   6.836  0.0158  0.2002 -0.2679
 1284HK4    C27 7789  10.847   5.028   6.953 -0.0531  0.0861 -0.2437
 1284HK4    H14 7790  10.912   4.941   6.966 -0.8285 -0.4120  0.3881
 1284HK4    C32 7791  10.840   5.117   7.060  0.6457  0.0958 -0.2069
 1284HK4    H16 7792  10.872   5.071   7.154  0.8913 -0.7747 -0.7097
 1284HK4    C31 7793  10.757   5.228   7.049  0.7814  0.2294  0.1003
 1284HK4    C34 7794  10.742   5.352   7.121 -0.7843  0.0012  0.1880
 1284HK4    C33 7795  10.638   5.429   7.056 -0.1254  0.3869 -0.4226
 1284HK4    C35 7796  10.583   5.543   7.114 -1.1823 -0.5262  0.3897
 1284HK4    H17 7797  10.515   5.605   7.057 -1.7592 -1.4988  0.0019
 1284HK4    C36 7798  10.642   5.586   7.233  0.1639 -0.0693 -0.4355
 1284HK4    H18 7799  10.619   5.685   7.274  1.0296 -0.3372  0.7171
 1284HK4    C37 7800  10.746   5.519   7.296  0.2602  0.0305 -0.4887
 1284HK4    H19 7801  10.776   5.549   7.397 -0.2768 -2.8029  0.5588
 1284HK4    C38 7802  10.795   5.403   7.240  0.5684  0.1510 -0.4716
 1284HK4    H20 7803  10.872   5.343   7.289 -1.6499 -1.4825  1.1084
 1284HK4    C14 7804  10.752   4.942   6.736  0.2570  0.1094 -0.2167
 1284HK4     C9 7805  10.775   4.805   6.755 -0.0431  0.0002 -0.6229
 1284HK4     C8 7806  10.828   4.734   6.645  0.4266 -0.0459 -0.3684
 1284HK4    C11 7807  10.827   4.787   6.517  0.8247  0.1548 -0.2892
 1284HK4     H4 7808  10.852   4.721   6.433 -0.8661 -2.2149  1.0217
 1284HK4    C12 7809  10.798   4.921   6.494 -0.1387 -0.0400 -0.2317
 1284HK4     H5 7810  10.799   4.970   6.395  0.2561  1.4014  0.4727
 1284HK4    C13 7811  10.767   4.997   6.606  0.1042  0.0776 -0.2470
 1284HK4     H6 7812  10.772   5.106   6.600 -1.8877  0.2611  0.8227
 1284HK4     C7 7813  10.875   4.595   6.659  0.2192 -0.1114 -0.3076
 1284HK4     O2 7814  10.937   4.543   6.566 -0.1314  0.1166 -0.6687
 1284HK4     C4 7815  10.856   4.521   6.786 -0.1609  0.2977 -0.1272
 1284HK4     C3 7816  10.899   4.389   6.792 -0.2405  0.2682 -0.1888
 1284HK4     H3 7817  10.899   4.321   6.706 -0.3569 -0.2084  0.1833
 1284HK4     C2 7818  10.932   4.327   6.913 -0.9536  0.5756  0.1667
 1284HK4     H2 7819  10.918   4.220   6.931 -1.9080  0.4957 -0.9723
 1284HK4     C1 7820  10.924   4.408   7.026  1.1322  0.2679  0.5528
 1284HK4     H1 7821  10.977   4.373   7.116  0.8728  1.0495  1.0158
 1284HK4     C6 7822  10.860   4.534   7.028  0.3527 -0.1092 -0.1400
 1284HK4     C5 7823  10.829   4.592   6.905  0.0388  0.0988  0.0385
 1284HK4    C10 7824  10.776   4.730   6.883 -0.4444 -0.2034 -0.7387
 1284HK4     O1 7825  10.686   4.769   6.956  0.0882 -0.7363  0.2192
 1284HK4    C16 7826  10.788   4.563   7.152  0.4299 -0.0803 -0.1022
 1284HK4    C15 7827  10.722   4.460   7.224 -0.3470  0.0887 -0.5645
 1284HK4     H7 7828  10.698   4.373   7.161 -0.0590  0.3792 -1.0849
 1284HK4    C20 7829  10.711   4.459   7.362 -0.1178  0.8973 -0.5372
 1284HK4     H9 7830  10.679   4.368   7.413 -1.3072  1.5343 -0.1044
 1284HK4    C19 7831  10.748   4.569   7.439 -0.6679  0.3951  0.4532
 1284HK4    C18 7832  10.807   4.679   7.365 -0.0882 -0.0778  0.2037
 1284HK4    C17 7833  10.834   4.669   7.229  0.2921 -0.3038  0.2945
 1284HK4     H8 7834  10.889   4.752   7.184 -0.1804 -0.9307 -1.4843
 1284HK4     N1 7835  10.850   4.780   7.454  0.2977 -0.1966  0.1510
 1284HK4    C21 7836  10.838   4.724   7.583 -0.1403  0.3624  0.3517
 1284HK4    C22 7837  10.765   4.599   7.580  0.1360  0.1992  0.4018
 1284HK4    C26 7838  10.741   4.529   7.697  0.0835 -0.1033  0.2098
 1284HK4    H13 7839  10.677   4.441   7.703  0.9709 -0.7521  0.4048
 1284HK4    C25 7840  10.794   4.574   7.818  0.1547  0.4055 -0.0113
 1284HK4    H12 7841  10.734   4.552   7.907 -0.5891  0.7689 -0.4207
 1284HK4    C24 7842  10.879   4.683   7.814 -0.3247  0.7912  0.1373
 1284HK4    H11 7843  10.939   4.702   7.904 -0.1054  1.3037 -0.1082
 1284HK4    C23 7844  10.909   4.755   7.698  0.7206  0.0141 -0.0800
 1284HK4    H10 7845  11.004   4.808   7.693  1.2108 -0.8780 -0.4104
 1284HK4    C39 7846  10.851   4.917   7.425 -0.2449 -0.2359 -0.0604
 1284HK4    C41 7847  10.916   5.001   7.518 -0.0021 -0.2544 -0.2106
 1284HK4    H21 7848  11.015   4.965   7.548  0.5335  0.0599 -1.5717
 1284HK4    C42 7849  10.866   5.128   7.543  0.1746 -0.1935 -0.1759
 1284HK4    H22 7850  10.882   5.159   7.647  0.5017 -1.0558  0.0357
 1284HK4    C43 7851  10.758   5.183   7.475  0.7478  0.0741 -0.8825
 1284HK4    H23 7852  10.716   5.280   7.503 -3.0827 -1.5398 -0.7179
 1284HK4    C44 7853  10.696   5.106   7.377 -0.3377  0.1089 -0.2297
 1284HK4    H24 7854  10.618   5.143   7.310 -0.3012 -1.3650 -1.1173
 1284HK4    C45 7855  10.752   4.981   7.349 -0.0007  0.2073 -0.0037
 1284HK4    H25 7856  10.735   4.934   7.251  3.6865 -0.0047 -0.5984
 1285HK4    H28 7857   8.032   1.958   9.421  0.6400  0.7434 -0.8719
 1285HK4    C48 7858   8.001   2.059   9.448 -0.1087  0.4784 -0.7233
 1285HK4    C47 7859   7.901   2.132   9.386 -0.3695 -0.0047 -0.8697
 1285HK4    H27 7860   7.849   2.074   9.308 -0.5575  1.5664 -1.9359
 1285HK4    C46 7861   7.874   2.264   9.419  0.6013 -0.0264  0.0323
 1285HK4    H26 7862   7.781   2.314   9.390  0.2554  0.2418  1.6037
 1285HK4    C40 7863   7.953   2.326   9.518  0.4259  0.2377  0.0073
 1285HK4    C50 7864   8.063   2.255   9.570 -0.0094 -0.0237  0.5873
 1285HK4    H30 7865   8.143   2.310   9.621 -0.9553  3.2003 -1.2686
 1285HK4    C49 7866   8.092   2.124   9.532 -0.2850  0.1670 -0.2867
 1285HK4    H29 7867   8.184   2.079   9.571 -0.6404  1.9958  2.8345
 1285HK4     N2 7868   7.929   2.454   9.569  0.1840  0.1994 -0.0094
 1285HK4    C30 7869   7.857   2.555   9.502 -0.4681 -0.4028 -0.2169
 1285HK4    C29 7870   7.839   2.583   9.367  0.2244 -0.3375 -0.2948
 1285HK4    H15 7871   7.883   2.515   9.294  0.9812 -1.6693  1.3632
 1285HK4    C28 7872   7.775   2.697   9.318  0.5221  0.1690  0.4822
 1285HK4    C27 7873   7.709   2.782   9.410 -0.0598 -0.2065  0.4125
 1285HK4    H14 7874   7.663   2.875   9.374 -0.8704 -0.5063  0.6536
 1285HK4    C32 7875   7.707   2.743   9.543  0.2461 -0.0193  0.4738
 1285HK4    H16 7876   7.617   2.778   9.594 -0.8998 -2.5607  0.2573
 1285HK4    C31 7877   7.786   2.641   9.594 -0.1291 -0.4863  0.1241
 1285HK4    C34 7878   7.828   2.596   9.725 -0.2393 -0.1509  0.2784
 1285HK4    C33 7879   7.922   2.486   9.707  0.4080  0.4530 -0.0550
 1285HK4    C35 7880   7.986   2.443   9.822 -0.1973 -0.2994  0.0075
 1285HK4    H17 7881   8.037   2.348   9.808 -0.7174 -1.0293  2.8282
 1285HK4    C36 7882   7.966   2.502   9.946  0.4479  0.3950 -0.2123
 1285HK4    H18 7883   8.024   2.464  10.031  0.4879  0.2000 -0.3235
 1285HK4    C37 7884   7.873   2.604   9.960 -0.6769 -0.6023 -0.3262
 1285HK4    H19 7885   7.859   2.655  10.056 -1.0105 -1.4071  0.0573
 1285HK4    C38 7886   7.805   2.654   9.850 -0.3646  0.4800 -0.0399
 1285HK4    H20 7887   7.761   2.753   9.857  0.9127  1.0358  0.2710
 1285HK4    C14 7888   7.810   2.747   9.185 -0.2674  0.3240  0.3345
 1285HK4     C9 7889   7.836   2.882   9.159  0.5678  0.0762 -0.1522
 1285HK4     C8 7890   7.791   2.940   9.039  0.1608  0.1068  0.0100
 1285HK4    C11 7891   7.732   2.853   8.949  0.6503 -0.1929 -0.0204
 1285HK4     H4 7892   7.668   2.891   8.868  1.4020 -1.3926 -1.1959
 1285HK4    C12 7893   7.725   2.714   8.959 -0.4628 -0.1097  0.3477
 1285HK4     H5 7894   7.710   2.656   8.867  0.8972 -0.7537  0.5235
 1285HK4    C13 7895   7.766   2.661   9.081  0.0643  0.1945  0.3023
 1285HK4     H6 7896   7.763   2.552   9.093 -2.8777  0.3044  0.7852
 1285HK4     C7 7897   7.796   3.086   9.014 -0.0100  0.1066 -0.0201
 1285HK4     O2 7898   7.765   3.126   8.902  0.0216 -0.0230 -0.0759
 1285HK4     C4 7899   7.847   3.173   9.123  0.2322  0.3177 -0.3049
 1285HK4     C3 7900   7.838   3.311   9.103 -0.8233  0.3382  0.2688
 1285HK4     H3 7901   7.814   3.370   9.013 -0.5944  0.3133  0.1902
 1285HK4     C2 7902   7.849   3.390   9.216 -0.2191  0.2349  0.2873
 1285HK4     H2 7903   7.858   3.498   9.198  1.1790 -0.0213 -0.5793
 1285HK4     C1 7904   7.867   3.341   9.345 -0.3441 -0.0331  0.2032
 1285HK4     H1 7905   7.889   3.413   9.425  2.1290 -0.0296 -0.4572
 1285HK4     C6 7906   7.886   3.202   9.362 -0.5832 -0.1789 -0.6714
 1285HK4     C5 7907   7.885   3.121   9.248  0.4838 -0.2754 -0.6223
 1285HK4    C10 7908   7.897   2.973   9.260 -0.0830 -0.2384  0.5366
 1285HK4     O1 7909   7.994   2.926   9.318  0.0329 -0.1886  0.3850
 1285HK4    C16 7910   7.853   3.145   9.494  0.0700 -0.0588 -0.4536
 1285HK4    C15 7911   7.756   3.196   9.582  1.1093  0.4294  0.4251
 1285HK4     H7 7912   7.680   3.263   9.538  0.3288 -1.1349 -0.6513
 1285HK4    C20 7913   7.737   3.174   9.718 -0.1474 -0.0408  0.1824
 1285HK4     H9 7914   7.642   3.204   9.762 -0.2112  0.2211 -0.1314
 1285HK4    C19 7915   7.837   3.099   9.778 -0.1142 -0.1931 -0.0660
 1285HK4    C18 7916   7.938   3.036   9.696  0.6894  0.4908  0.4020
 1285HK4    C17 7917   7.947   3.069   9.561 -0.2103  0.2384  0.2746
 1285HK4     H8 7918   8.044   3.049   9.515 -0.7684 -1.4790 -0.1876
 1285HK4     N1 7919   8.010   2.937   9.767  0.0883 -0.4211 -0.2495
 1285HK4    C21 7920   7.958   2.951   9.898  0.7151  0.3555 -0.0850
 1285HK4    C22 7921   7.851   3.047   9.913 -0.1428 -0.5755 -0.2057
 1285HK4    C26 7922   7.810   3.093  10.038 -0.0439  0.0502 -0.4040
 1285HK4    H13 7923   7.731   3.168  10.050 -0.2782 -0.2551 -0.0485
 1285HK4    C25 7924   7.874   3.047  10.152  0.2486  0.9583 -0.1927
 1285HK4    H12 7925   7.854   3.086  10.252  0.5453 -0.4981  0.4549
 1285HK4    C24 7926   7.975   2.953  10.138 -0.1149  0.4699  0.4284
 1285HK4    H11 7927   8.027   2.929  10.232  1.5677 -0.2624 -0.6681
 1285HK4    C23 7928   8.014   2.901  10.015 -0.1971  0.4686  0.4021
 1285HK4    H10 7929   8.093   2.826  10.019 -0.6287 -0.0227 -0.2082
 1285HK4    C39 7930   8.140   2.893   9.740  0.0531 -0.4265 -0.4140
 1285HK4    C41 7931   8.183   2.769   9.791  0.0262 -0.2799 -0.0348
 1285HK4    H21 7932   8.103   2.699   9.817  0.3508 -0.4147  0.6305
 1285HK4    C42 7933   8.315   2.747   9.829 -0.0614 -0.9308 -0.1121
 1285HK4    H22 7934   8.350   2.657   9.882  0.3215 -1.2345 -0.8742
 1285HK4    C43 7935   8.407   2.851   9.820 -0.6409 -0.4118 -0.0856
 1285HK4    H23 7936   8.509   2.822   9.845 -0.1732 -1.6032 -3.0993
 1285HK4    C44 7937   8.367   2.974   9.771  0.4323 -0.2042 -0.4454
 1285HK4    H24 7938   8.450   3.036   9.734 -1.2205  1.0379 -2.1579
 1285HK4    C45 7939   8.235   2.996   9.732  0.1463 -0.4549  0.3621
 1285HK4    H25 7940   8.214   3.102   9.714 -0.7426 -0.6396  0.3254
 1286HK4    H28 7941   8.305   8.517   1.842  0.5357 -1.0725  0.2076
 1286HK4    C48 7942   8.259   8.464   1.759 -0.6523 -0.2314  0.3123
 1286HK4    C47 7943   8.313   8.339   1.732  0.1418  0.2164 -0.1865
 1286HK4    H27 7944   8.412   8.308   1.770  0.2845  0.8120 -0.0727
 1286HK4    C46 7945   8.255   8.247   1.645 -0.4542  0.3028  0.1262
 1286HK4    H26 7946   8.305   8.157   1.608  0.9618  0.3031  1.9577
 1286HK4    C40 7947   8.130   8.274   1.585 -0.0436  0.2787 -0.7516
 1286HK4    C50 7948   8.070   8.395   1.627 -0.8017 -0.2654 -0.2631
 1286HK4    H30 7949   7.965   8.419   1.603 -1.4503 -1.0210  1.7091
 1286HK4    C49 7950   8.134   8.491   1.705 -0.4360 -0.4720 -0.3103
 1286HK4    H29 7951   8.098   8.595   1.710 -0.3910 -0.4193 -0.9595
 1286HK4     N2 7952   8.068   8.186   1.496  0.2001 -0.3712 -0.2805
 1286HK4    C30 7953   7.979   8.222   1.393  0.3444  0.0278 -0.2668
 1286HK4    C29 7954   7.959   8.344   1.329  0.3164  0.0807 -0.1581
 1286HK4    H15 7955   8.036   8.421   1.339  2.2973 -1.5645 -2.0309
 1286HK4    C28 7956   7.860   8.367   1.235  0.4205 -0.1542 -0.3251
 1286HK4    C27 7957   7.793   8.248   1.198  0.0950 -0.0588 -0.0375
 1286HK4    H14 7958   7.714   8.265   1.124  1.7399 -0.3253 -1.8896
 1286HK4    C32 7959   7.811   8.119   1.247  0.1582 -0.0881 -0.1340
 1286HK4    H16 7960   7.739   8.041   1.224  0.9466 -0.2373 -2.1333
 1286HK4    C31 7961   7.906   8.106   1.348 -0.1096  0.1495  0.1534
 1286HK4    C34 7962   7.937   7.995   1.437  0.2422  0.0975 -0.0330
 1286HK4    C33 7963   8.035   8.053   1.527  0.1156 -0.2149  0.3032
 1286HK4    C35 7964   8.093   7.958   1.611 -0.2676 -0.0348  0.7773
 1286HK4    H17 7965   8.167   7.993   1.682  0.8205 -0.4842 -0.1220
 1286HK4    C36 7966   8.057   7.824   1.617 -0.0279 -0.1525 -0.2007
 1286HK4    H18 7967   8.105   7.761   1.693 -0.6256 -1.2994 -0.7582
 1286HK4    C37 7968   7.959   7.774   1.533  0.3189 -0.9087 -0.1522
 1286HK4    H19 7969   7.950   7.666   1.516  0.2211 -0.8540 -0.4614
 1286HK4    C38 7970   7.902   7.861   1.441  0.6605  0.0017  0.4944
 1286HK4    H20 7971   7.835   7.811   1.370  0.9274  1.4142 -0.7853
 1286HK4    C14 7972   7.825   8.504   1.196 -0.2603 -0.3241 -0.3395
 1286HK4     C9 7973   7.700   8.545   1.150 -0.3605  0.0636  0.2751
 1286HK4     C8 7974   7.690   8.655   1.063  0.1014  0.4282  0.6768
 1286HK4    C11 7975   7.804   8.723   1.022  0.0920 -0.0059 -0.0843
 1286HK4     H4 7976   7.788   8.815   0.964 -2.1724 -0.3837 -0.1149
 1286HK4    C12 7977   7.931   8.691   1.069  0.1635  0.0151 -0.2632
 1286HK4     H5 7978   8.019   8.748   1.036 -0.4231  0.0661 -1.7893
 1286HK4    C13 7979   7.935   8.586   1.160 -0.5020  0.0775 -0.1621
 1286HK4     H6 7980   8.037   8.545   1.161 -0.3990  0.3138 -0.8460
 1286HK4     C7 7981   7.558   8.717   1.037  0.1085  0.0613 -0.2637
 1286HK4     O2 7982   7.539   8.811   0.959 -0.4790  0.0227 -0.1678
 1286HK4     C4 7983   7.435   8.660   1.096  0.0987  0.7443  0.3835
 1286HK4     C3 7984   7.310   8.718   1.075  0.1258  0.8577  0.5303
 1286HK4     H3 7985   7.295   8.821   1.042  2.2169  0.1139 -3.0200
 1286HK4     C2 7986   7.194   8.652   1.113  0.3838  0.2697  0.3138
 1286HK4     H2 7987   7.096   8.702   1.102  0.3959  0.6309  1.7732
 1286HK4     C1 7988   7.206   8.518   1.148 -0.0054  0.2009  0.1880
 1286HK4     H1 7989   7.118   8.464   1.187  0.2872  0.4032  1.1332
 1286HK4     C6 7990   7.327   8.447   1.154  0.1101  0.3693 -0.1633
 1286HK4     C5 7991   7.441   8.529   1.147  0.2075  0.1539 -1.1295
 1286HK4    C10 7992   7.573   8.488   1.203 -0.3912  0.1258  0.2693
 1286HK4     O1 7993   7.566   8.457   1.322 -0.4520 -0.7198  0.0434
 1286HK4    C16 7994   7.316   8.307   1.110  0.1745  0.2207  0.2892
 1286HK4    C15 7995   7.205   8.264   1.035  0.1627  0.0904  0.3806
 1286HK4     H7 7996   7.157   8.343   0.975 -2.3052 -0.4601  1.6037
 1286HK4    C20 7997   7.150   8.138   1.049 -0.4741  0.4182  0.8920
 1286HK4     H9 7998   7.051   8.112   1.012  0.5464  0.7311 -2.2058
 1286HK4    C19 7999   7.212   8.047   1.133 -0.3540  0.2063  0.5728
 1286HK4    C18 8000   7.340   8.081   1.192  0.0526  0.2180 -0.3050
 1286HK4    C17 8001   7.391   8.210   1.176  0.5218  0.0213 -0.3930
 1286HK4     H8 8002   7.499   8.214   1.183  0.6378 -3.2451  0.6420
 1286HK4     N1 8003   7.387   7.973   1.269 -0.4823  0.3273  0.1862
 1286HK4    C21 8004   7.286   7.875   1.262  0.0361 -0.2000 -0.0751
 1286HK4    C22 8005   7.177   7.912   1.173  0.2056 -0.2007 -0.2804
 1286HK4    C26 8006   7.056   7.843   1.172  0.1480 -0.0933 -0.6344
 1286HK4    H13 8007   6.959   7.887   1.150  0.4532  2.2503  2.5410
 1286HK4    C25 8008   7.049   7.726   1.248 -0.5487  0.2199 -0.2130
 1286HK4    H12 8009   6.965   7.659   1.230 -0.7280  1.0192 -2.6007
 1286HK4    C24 8010   7.156   7.685   1.327 -0.3772  0.2262 -0.4391
 1286HK4    H11 8011   7.134   7.590   1.378 -0.2087 -0.3138 -1.3545
 1286HK4    C23 8012   7.270   7.763   1.342 -0.3895  0.1058  0.2758
 1286HK4    H10 8013   7.322   7.751   1.437  0.2171  1.1869  0.0832
 1286HK4    C39 8014   7.479   7.986   1.373 -0.3535 -0.2132  0.1458
 1286HK4    C41 8015   7.553   7.873   1.413  0.9119  0.4795 -0.1803
 1286HK4    H21 8016   7.551   7.781   1.353 -2.1927 -1.1595  2.2661
 1286HK4    C42 8017   7.602   7.861   1.543 -0.2903 -0.7981  0.1733
 1286HK4    H22 8018   7.658   7.776   1.584  2.4246 -1.0847 -3.8279
 1286HK4    C43 8019   7.569   7.958   1.637 -0.2737 -0.3047 -0.3248
 1286HK4    H23 8020   7.619   7.946   1.733  0.9883  0.9244 -0.8084
 1286HK4    C44 8021   7.503   8.074   1.599  0.7305  0.2016 -0.5337
 1286HK4    H24 8022   7.463   8.137   1.680 -1.2904 -1.4623 -0.2035
 1286HK4    C45 8023   7.462   8.090   1.467  0.7373  0.5598 -0.4924
 1286HK4    H25 8024   7.427   8.189   1.433  0.0639 -0.0170 -1.4760
 1287HK4    H28 8025   6.965  10.001   0.414 -1.5008 -1.4066 -2.7711
 1287HK4    C48 8026   6.917   9.924   0.474 -0.0861 -0.1051  0.0935
 1287HK4    C47 8027   6.978   9.852   0.577 -0.0637 -0.3296 -0.0767
 1287HK4    H27 8028   7.088   9.856   0.581 -0.0233 -2.0244  1.0300
 1287HK4    C46 8029   6.904   9.790   0.677  0.1509  0.2652  0.4462
 1287HK4    H26 8030   6.962   9.734   0.753  1.8793 -0.7433 -1.5624
 1287HK4    C40 8031   6.764   9.792   0.664  0.1577  0.1616  0.3526
 1287HK4    C50 8032   6.704   9.858   0.555  0.1942 -0.5936 -0.1280
 1287HK4    H30 8033   6.595   9.873   0.553  0.2751 -0.0564 -2.5218
 1287HK4    C49 8034   6.779   9.928   0.461 -0.0912  0.2167  0.2400
 1287HK4    H29 8035   6.720   9.971   0.379  2.3079  4.3348  0.5513
 1287HK4     N2 8036   6.687   9.712   0.749  0.3118  0.2006  0.5299
 1287HK4    C30 8037   6.713   9.579   0.790 -0.2338 -0.0358  0.1158
 1287HK4    C29 8038   6.803   9.488   0.736 -0.0031  0.2934 -0.0493
 1287HK4    H15 8039   6.874   9.521   0.660  0.0596  1.6475  0.5784
 1287HK4    C28 8040   6.810   9.357   0.780 -0.4147  0.4623  0.5302
 1287HK4    C27 8041   6.712   9.305   0.867 -0.1870 -0.6417  0.1339
 1287HK4    H14 8042   6.707   9.198   0.891  0.0718 -0.8459 -0.6918
 1287HK4    C32 8043   6.620   9.393   0.921  0.1329 -0.3088  0.1390
 1287HK4    H16 8044   6.554   9.374   1.006 -0.5473  0.5983 -0.1780
 1287HK4    C31 8045   6.613   9.526   0.881  0.4532 -0.0763  0.8487
 1287HK4    C34 8046   6.513   9.631   0.876  0.3424 -0.2082  0.2299
 1287HK4    C33 8047   6.566   9.749   0.810 -0.3555 -0.2898 -0.4808
 1287HK4    C35 8048   6.502   9.872   0.818 -0.2107 -0.2009 -0.6402
 1287HK4    H17 8049   6.551   9.962   0.782 -3.4459  1.4783 -1.0159
 1287HK4    C36 8050   6.382   9.878   0.889  0.1424  0.3199 -0.0842
 1287HK4    H18 8051   6.338   9.976   0.911  1.1455  0.2827  2.1939
 1287HK4    C37 8052   6.325   9.766   0.949  0.2209  0.3242 -0.0027
 1287HK4    H19 8053   6.237   9.785   1.010 -0.6259  0.4148 -1.2448
 1287HK4    C38 8054   6.393   9.645   0.946  0.1933  0.3137 -0.1269
 1287HK4    H20 8055   6.339   9.552   0.967 -1.6079  1.1222 -1.0779
 1287HK4    C14 8056   6.925   9.272   0.743 -0.7275  0.3074 -0.0817
 1287HK4     C9 8057   6.915   9.133   0.730  0.1110  0.1868  0.4943
 1287HK4     C8 8058   7.025   9.054   0.768 -0.0898  0.1033  0.8953
 1287HK4    C11 8059   7.149   9.108   0.798 -0.0944  0.2945  0.5759
 1287HK4     H4 8060   7.240   9.047   0.812  0.9610  1.6716 -0.1540
 1287HK4    C12 8061   7.160   9.246   0.791  0.1816  0.2298 -0.5982
 1287HK4     H5 8062   7.258   9.294   0.802  0.1744  0.2217 -0.5106
 1287HK4    C13 8063   7.052   9.330   0.762 -0.4829 -0.3373  0.2204
 1287HK4     H6 8064   7.077   9.419   0.703  3.0827 -1.6891 -0.4218
 1287HK4     C7 8065   7.005   8.907   0.767  0.2794  0.0506 -0.1891
 1287HK4     O2 8066   7.059   8.838   0.853  0.1159 -0.0838 -0.1957
 1287HK4     C4 8067   6.899   8.850   0.680  0.2525 -0.0756 -0.0746
 1287HK4     C3 8068   6.883   8.712   0.680 -0.3969 -0.0020 -0.3673
 1287HK4     H3 8069   6.933   8.650   0.755 -2.0828 -1.5408 -0.5069
 1287HK4     C2 8070   6.815   8.648   0.577  0.1487 -0.7635 -0.2585
 1287HK4     H2 8071   6.794   8.540   0.585 -1.5316 -0.5597 -1.6461
 1287HK4     C1 8072   6.761   8.728   0.477  0.1023  0.3524  0.6472
 1287HK4     H1 8073   6.731   8.673   0.387  2.0237  1.2189 -0.5478
 1287HK4     C6 8074   6.767   8.869   0.480 -0.1337  0.3776 -0.1485
 1287HK4     C5 8075   6.833   8.931   0.586  0.2359 -0.1075 -0.0896
 1287HK4    C10 8076   6.819   9.072   0.633  0.7367 -0.1065  0.0555
 1287HK4     O1 8077   6.715   9.132   0.608  0.6031 -0.4607 -0.2230
 1287HK4    C16 8078   6.682   8.928   0.375 -0.4487  0.3853  0.1085
 1287HK4    C15 8079   6.588   8.854   0.300  0.0773 -0.1453 -0.0313
 1287HK4     H7 8080   6.536   8.769   0.347  2.1858 -1.4861 -0.0553
 1287HK4    C20 8081   6.538   8.904   0.181 -0.9606  0.1605  0.5323
 1287HK4     H9 8082   6.466   8.844   0.125  1.0461 -1.0597 -0.7974
 1287HK4    C19 8083   6.581   9.024   0.127  0.0333 -0.5336 -0.2432
 1287HK4    C18 8084   6.686   9.097   0.196 -0.1825 -0.2480 -0.2175
 1287HK4    C17 8085   6.734   9.042   0.315 -0.5733  0.5464  0.3098
 1287HK4     H8 8086   6.814   9.103   0.357 -0.7932  2.0493 -1.3825
 1287HK4     N1 8087   6.709   9.220   0.132 -0.2612  0.1084  0.4282
 1287HK4    C21 8088   6.629   9.220   0.015  0.5084 -0.6175 -0.1054
 1287HK4    C22 8089   6.543   9.103   0.012 -0.1078 -0.1693  0.0532
 1287HK4    C26 8090   6.444   9.108  11.163 -0.2659 -0.5206  0.1988
 1287HK4    H13 8091   6.374   9.024  11.159 -2.1866  1.0890 -2.6297
 1287HK4    C25 8092   6.415   9.209  11.072  0.4294 -0.3562  0.1565
 1287HK4    H12 8093   6.334   9.193  11.001  0.0820 -0.4428  0.5732
 1287HK4    C24 8094   6.500   9.318  11.080  0.2968 -0.2712  0.3921
 1287HK4    H11 8095   6.465   9.406  11.025  0.3275 -1.2074 -1.1349
 1287HK4    C23 8096   6.606   9.321  11.170  0.3230 -0.2243  0.3624
 1287HK4    H10 8097   6.688   9.389  11.148  0.2988 -0.0439  0.8251
 1287HK4    C39 8098   6.752   9.335   0.199  0.7092 -0.1617  0.2726
 1287HK4    C41 8099   6.795   9.447   0.125 -0.2117 -0.1088 -0.1890
 1287HK4    H21 8100   6.855   9.428   0.034  1.2881  0.6288  0.6383
 1287HK4    C42 8101   6.792   9.576   0.175 -0.4974 -0.4850  0.7690
 1287HK4    H22 8102   6.843   9.661   0.127  1.6647 -1.5921  1.0576
 1287HK4    C43 8103   6.755   9.596   0.308 -0.6680  0.8832  0.5297
 1287HK4    H23 8104   6.764   9.696   0.350 -0.3295  1.5864 -1.1688
 1287HK4    C44 8105   6.717   9.485   0.383 -0.4328  0.3170 -0.1789
 1287HK4    H24 8106   6.681   9.502   0.485 -1.4972 -0.6911 -0.3719
 1287HK4    C45 8107   6.711   9.356   0.332 -0.0750  0.2413 -0.0265
 1287HK4    H25 8108   6.668   9.274   0.392 -2.9678  2.5495  1.1819
 1288HK4    H28 8109   6.887   1.617   5.066  0.5695 -4.8705 -0.6109
 1288HK4    C48 8110   6.980   1.635   5.012 -0.0356 -0.5516 -0.3780
 1288HK4    C47 8111   7.094   1.587   5.074  0.1602 -0.2211 -0.4788
 1288HK4    H27 8112   7.089   1.514   5.157  0.5769 -0.8035 -0.9578
 1288HK4    C46 8113   7.219   1.645   5.055  0.2690 -0.4162 -0.3654
 1288HK4    H26 8114   7.307   1.589   5.091  0.0878  0.0795  0.8789
 1288HK4    C40 8115   7.241   1.750   4.964  0.1103  0.0204  0.0954
 1288HK4    C50 8116   7.125   1.781   4.891 -0.0611  0.4254  0.5375
 1288HK4    H30 8117   7.130   1.857   4.812 -1.9600 -0.4372 -0.4483
 1288HK4    C49 8118   6.997   1.732   4.914  0.1881 -0.7574 -0.5417
 1288HK4    H29 8119   6.912   1.741   4.844 -0.0749  1.5027  0.0448
 1288HK4     N2 8120   7.350   1.839   4.964  0.5672 -0.5331  0.2293
 1288HK4    C30 8121   7.424   1.870   5.080  0.1578  0.7945  0.1472
 1288HK4    C29 8122   7.395   1.872   5.216  0.0467 -0.5419  0.1544
 1288HK4    H15 8123   7.293   1.859   5.251 -1.0756  0.6075 -2.6056
 1288HK4    C28 8124   7.491   1.900   5.313 -0.0977  0.0183  0.1362
 1288HK4    C27 8125   7.622   1.924   5.267 -0.2345  0.1937 -0.1648
 1288HK4    H14 8126   7.696   1.946   5.345 -1.2011  3.7303 -0.1642
 1288HK4    C32 8127   7.657   1.919   5.132  0.5076 -0.5823  0.0520
 1288HK4    H16 8128   7.756   1.939   5.091 -0.3275 -0.3009 -1.8875
 1288HK4    C31 8129   7.559   1.898   5.036  0.2745  0.1934  0.1149
 1288HK4    C34 8130   7.563   1.895   4.891 -0.2185  0.7441  0.0857
 1288HK4    C33 8131   7.428   1.860   4.850  0.0506 -0.1546 -0.0559
 1288HK4    C35 8132   7.409   1.821   4.718  0.4304 -0.1978 -0.1005
 1288HK4    H17 8133   7.314   1.773   4.694  1.6779 -2.0350 -1.5344
 1288HK4    C36 8134   7.513   1.817   4.626  0.0393  0.2592 -0.5617
 1288HK4    H18 8135   7.495   1.807   4.518 -0.5873  2.6230 -0.7095
 1288HK4    C37 8136   7.642   1.855   4.663 -0.1947  0.0034  0.5141
 1288HK4    H19 8137   7.730   1.864   4.600  0.2982 -1.1406  1.0156
 1288HK4    C38 8138   7.664   1.891   4.795  0.1040  0.0530  0.4511
 1288HK4    H20 8139   7.761   1.877   4.843  1.2577  0.9162 -1.5894
 1288HK4    C14 8140   7.449   1.959   5.441 -0.4116  0.4374 -0.1541
 1288HK4     C9 8141   7.517   2.060   5.510  0.2521 -0.1553  0.0676
 1288HK4     C8 8142   7.525   2.069   5.651  0.1499 -0.1741  0.0752
 1288HK4    C11 8143   7.456   1.973   5.723  0.3700 -0.4082 -0.0243
 1288HK4     H4 8144   7.455   1.988   5.832  3.5593 -0.8941  0.1115
 1288HK4    C12 8145   7.375   1.878   5.663  0.1133 -0.1410 -0.1032
 1288HK4     H5 8146   7.317   1.805   5.721  1.0598 -0.6179  0.2601
 1288HK4    C13 8147   7.375   1.872   5.524  0.1297  0.0114 -0.1098
 1288HK4     H6 8148   7.311   1.798   5.472 -2.7544  2.0460  0.4057
 1288HK4     C7 8149   7.638   2.143   5.713  0.1583 -0.1120 -0.0130
 1288HK4     O2 8150   7.632   2.167   5.833  0.3554 -0.1266 -0.0010
 1288HK4     C4 8151   7.733   2.212   5.623 -0.2791  0.6047  0.0722
 1288HK4     C3 8152   7.847   2.258   5.686 -0.2848  0.1368  0.4274
 1288HK4     H3 8153   7.875   2.211   5.781  1.4838 -0.1214 -0.2006
 1288HK4     C2 8154   7.948   2.316   5.608 -0.3179 -0.5007 -0.0891
 1288HK4     H2 8155   8.046   2.354   5.640 -0.2141 -1.1884  0.4330
 1288HK4     C1 8156   7.932   2.320   5.470 -0.2132  0.4005 -0.0762
 1288HK4     H1 8157   8.010   2.362   5.405  0.8147 -0.8653  0.3195
 1288HK4     C6 8158   7.819   2.270   5.403  0.0699  0.0191 -0.2718
 1288HK4     C5 8159   7.713   2.227   5.484  0.2357 -0.0165 -0.0717
 1288HK4    C10 8160   7.591   2.161   5.429  0.2137 -0.1093  0.0906
 1288HK4     O1 8161   7.523   2.230   5.353  0.3837 -0.0265  0.0136
 1288HK4    C16 8162   7.844   2.235   5.263 -0.2249 -0.0983 -0.2940
 1288HK4    C15 8163   7.954   2.152   5.233 -0.3463 -0.3329 -0.0886
 1288HK4     H7 8164   8.003   2.097   5.314 -1.7465 -2.4725 -0.6564
 1288HK4    C20 8165   7.983   2.120   5.101  0.0372  0.0104 -0.0896
 1288HK4     H9 8166   8.075   2.065   5.080 -1.1294 -2.1627  0.2647
 1288HK4    C19 8167   7.903   2.169   4.999 -0.0574 -0.0393 -0.0417
 1288HK4    C18 8168   7.794   2.261   5.025  0.1107  0.1337  0.0526
 1288HK4    C17 8169   7.770   2.291   5.159 -0.7660 -0.2824 -0.0108
 1288HK4     H8 8170   7.701   2.374   5.173  0.5290  1.1467 -1.8784
 1288HK4     N1 8171   7.721   2.279   4.906  0.4014  0.1876 -0.1178
 1288HK4    C21 8172   7.778   2.201   4.803 -0.0280 -0.2797 -0.0083
 1288HK4    C22 8173   7.894   2.134   4.858 -0.1614 -0.4509  0.0657
 1288HK4    C26 8174   7.969   2.048   4.778  0.0425  0.1584 -0.4044
 1288HK4    H13 8175   8.040   1.977   4.821 -1.0292 -1.0813 -0.6498
 1288HK4    C25 8176   7.938   2.046   4.643 -0.6118 -0.2391 -0.2512
 1288HK4    H12 8177   7.983   1.963   4.587  0.3072  0.6267 -0.8098
 1288HK4    C24 8178   7.835   2.120   4.586 -0.6229 -0.1886 -0.1647
 1288HK4    H11 8179   7.826   2.119   4.477  0.9623  0.6150 -0.3169
 1288HK4    C23 8180   7.756   2.202   4.666  0.0195  0.2891 -0.0162
 1288HK4    H10 8181   7.668   2.259   4.635 -1.4026 -0.9485  1.6222
 1288HK4    C39 8182   7.588   2.321   4.898  0.4148  0.3571  0.4818
 1288HK4    C41 8183   7.545   2.402   4.790  0.0708 -0.3354  0.0947
 1288HK4    H21 8184   7.622   2.453   4.731 -1.2958  0.6240 -0.8846
 1288HK4    C42 8185   7.409   2.411   4.764  0.0141 -0.6051  0.2897
 1288HK4    H22 8186   7.375   2.464   4.674 -0.3389 -3.3358 -1.2283
 1288HK4    C43 8187   7.314   2.358   4.850 -0.2770  0.5034  0.6662
 1288HK4    H23 8188   7.212   2.344   4.814  1.1414 -1.1352 -2.9196
 1288HK4    C44 8189   7.352   2.278   4.958  0.0429 -0.1402  0.0842
 1288HK4    H24 8190   7.283   2.228   5.027  0.3779  0.6280  0.9877
 1288HK4    C45 8191   7.488   2.263   4.979  0.0980  0.4475  0.1628
 1288HK4    H25 8192   7.522   2.198   5.062 -1.0368 -0.4469 -0.0643
 1289HK4    H28 8193   8.131   5.220   3.652  0.2116  0.4964  0.7668
 1289HK4    C48 8194   8.230   5.182   3.674  0.3729  0.5904  0.2129
 1289HK4    C47 8195   8.335   5.270   3.699  0.3635  0.6901 -0.1105
 1289HK4    H27 8196   8.303   5.366   3.741  0.4677  0.7337 -0.1291
 1289HK4    C46 8197   8.465   5.221   3.703  0.0718 -0.1058 -0.3073
 1289HK4    H26 8198   8.549   5.292   3.707 -0.7908  0.8428  1.7167
 1289HK4    C40 8199   8.504   5.086   3.693 -0.1481 -0.1455 -0.6248
 1289HK4    C50 8200   8.398   4.995   3.671 -0.4798 -0.0563  0.5469
 1289HK4    H30 8201   8.421   4.888   3.672 -0.9052 -0.1417  2.1437
 1289HK4    C49 8202   8.271   5.050   3.660 -0.2550  0.3979  0.1943
 1289HK4    H29 8203   8.196   4.984   3.615  0.0051  0.0559  0.2639
 1289HK4     N2 8204   8.632   5.044   3.731 -0.3057 -0.0324  0.0314
 1289HK4    C30 8205   8.716   5.094   3.832 -0.0435  0.2604 -0.3345
 1289HK4    C29 8206   8.690   5.135   3.963  0.2807  0.0372 -0.1975
 1289HK4    H15 8207   8.592   5.179   3.980  0.3785  0.9474 -1.9050
 1289HK4    C28 8208   8.789   5.169   4.054  0.1801 -0.5737  0.1489
 1289HK4    C27 8209   8.921   5.171   4.004  0.0538  0.3590 -0.1655
 1289HK4    H14 8210   9.005   5.188   4.073  0.6985 -1.0774 -0.5800
 1289HK4    C32 8211   8.955   5.137   3.874  0.0016  0.0981 -0.1134
 1289HK4    H16 8212   9.053   5.160   3.833 -0.6589 -0.1083 -1.8544
 1289HK4    C31 8213   8.855   5.090   3.789  0.0087  0.1631 -0.1594
 1289HK4    C34 8214   8.859   5.017   3.664 -0.2058 -1.1753  0.6152
 1289HK4    C33 8215   8.719   4.989   3.636 -0.3590  0.4793 -0.3107
 1289HK4    C35 8216   8.688   4.885   3.549  0.5439  0.1796 -0.2860
 1289HK4    H17 8217   8.585   4.856   3.526 -0.1699  3.3769 -1.3938
 1289HK4    C36 8218   8.793   4.815   3.491  0.4970 -0.5156  0.4719
 1289HK4    H18 8219   8.761   4.743   3.413 -1.3663  0.6969  0.0890
 1289HK4    C37 8220   8.926   4.826   3.529  0.5774 -0.4416  0.1627
 1289HK4    H19 8221   9.002   4.763   3.483 -1.0547 -2.7656  0.5700
 1289HK4    C38 8222   8.956   4.930   3.617  0.3609 -0.1676 -0.0828
 1289HK4    H20 8223   9.060   4.936   3.650  0.5114  1.5062 -0.8454
 1289HK4    C14 8224   8.766   5.205   4.194 -0.2765  0.4149 -0.1728
 1289HK4     C9 8225   8.859   5.284   4.262 -0.1906 -0.2513  0.4961
 1289HK4     C8 8226   8.904   5.239   4.388 -0.3664  0.0800  0.6811
 1289HK4    C11 8227   8.834   5.134   4.446  0.0065 -0.4526  0.1796
 1289HK4     H4 8228   8.881   5.091   4.536  1.4899  2.3231  0.7841
 1289HK4    C12 8229   8.712   5.086   4.400 -0.4006  0.6272  0.1016
 1289HK4     H5 8230   8.635   5.058   4.473  0.0405 -2.0231 -0.3948
 1289HK4    C13 8231   8.683   5.117   4.267  0.1102  0.0815 -0.1407
 1289HK4     H6 8232   8.591   5.071   4.227 -0.1900 -0.3702  1.0428
 1289HK4     C7 8233   9.010   5.309   4.464  0.4439 -0.3887 -0.0083
 1289HK4     O2 8234   9.054   5.267   4.571  0.0304 -0.0017  0.3168
 1289HK4     C4 8235   9.055   5.438   4.409 -0.0140 -0.1166  0.2503
 1289HK4     C3 8236   9.167   5.499   4.465 -0.1804  0.1788  0.2775
 1289HK4     H3 8237   9.247   5.441   4.514  1.1825  1.0507 -0.8950
 1289HK4     C2 8238   9.183   5.635   4.447  0.0441  0.0387 -0.6116
 1289HK4     H2 8239   9.277   5.680   4.485 -0.0064 -1.4103  1.3238
 1289HK4     C1 8240   9.082   5.708   4.385 -0.5379 -0.3315 -0.0981
 1289HK4     H1 8241   9.092   5.817   4.391  0.9997 -0.5149  1.0508
 1289HK4     C6 8242   8.971   5.648   4.323 -0.1816 -0.4038 -0.6713
 1289HK4     C5 8243   8.966   5.508   4.325  0.2755 -0.4148 -0.3039
 1289HK4    C10 8244   8.885   5.427   4.230  0.4977 -0.5699 -0.3626
 1289HK4     O1 8245   8.851   5.474   4.121  0.1376  0.3409  0.1404
 1289HK4    C16 8246   8.877   5.736   4.251 -0.5494  0.2174  0.5486
 1289HK4    C15 8247   8.911   5.865   4.206 -0.5407 -0.0637 -0.2740
 1289HK4     H7 8248   9.019   5.885   4.193 -0.5727 -0.5013 -1.1972
 1289HK4    C20 8249   8.818   5.956   4.157 -0.0490  0.4219 -0.3232
 1289HK4     H9 8250   8.858   6.026   4.084  2.7151 -2.2261 -1.5086
 1289HK4    C19 8251   8.683   5.923   4.158  0.0308  0.1055 -0.0297
 1289HK4    C18 8252   8.647   5.790   4.202 -0.5378  0.2420 -0.0735
 1289HK4    C17 8253   8.743   5.701   4.250 -0.5318  0.1540 -0.2450
 1289HK4     H8 8254   8.697   5.614   4.298 -0.9150 -0.6514 -2.0442
 1289HK4     N1 8255   8.509   5.768   4.192 -0.4312 -0.4430 -0.0879
 1289HK4    C21 8256   8.455   5.891   4.150 -0.4304 -0.5973 -0.5343
 1289HK4    C22 8257   8.558   5.991   4.132 -0.3440 -0.6197 -0.1535
 1289HK4    C26 8258   8.521   6.126   4.134 -0.4207 -0.6496  0.5918
 1289HK4    H13 8259   8.573   6.199   4.072  0.4199  0.0204  2.0889
 1289HK4    C25 8260   8.392   6.162   4.169 -0.4570  0.0796 -0.2802
 1289HK4    H12 8261   8.373   6.265   4.199 -0.4571 -0.2963  1.0180
 1289HK4    C24 8262   8.295   6.064   4.186 -0.2140 -0.0193  0.5199
 1289HK4    H11 8263   8.191   6.094   4.209 -0.5586 -1.7374  1.2885
 1289HK4    C23 8264   8.323   5.928   4.175 -0.0805  0.0186  0.3995
 1289HK4    H10 8265   8.244   5.855   4.163 -0.2901  0.3396 -0.1918
 1289HK4    C39 8266   8.454   5.644   4.154  0.0061 -0.5490 -0.3774
 1289HK4    C41 8267   8.319   5.624   4.189  0.1168 -0.3195  0.2033
 1289HK4    H21 8268   8.285   5.681   4.276  1.3416 -0.3256  0.6962
 1289HK4    C42 8269   8.248   5.525   4.121 -0.3070  0.1592 -0.0516
 1289HK4    H22 8270   8.138   5.534   4.116 -0.4605 -1.1013  0.8560
 1289HK4    C43 8271   8.305   5.439   4.028 -0.8203  0.5507 -0.7384
 1289HK4    H23 8272   8.248   5.352   3.994 -0.7417  0.4002 -0.4903
 1289HK4    C44 8273   8.441   5.450   4.002 -0.6068 -0.2290  0.0018
 1289HK4    H24 8274   8.499   5.379   3.941 -0.1887  0.0703  0.0523
 1289HK4    C45 8275   8.511   5.552   4.065  0.1696 -0.6686 -0.1477
 1289HK4    H25 8276   8.620   5.566   4.053  0.2561 -0.3246  0.9830
 1290HK4    H28 8277   7.754   1.142   9.150  4.2460  2.2992 -0.1558
 1290HK4    C48 8278   7.750   1.139   9.042 -0.1228 -0.6297 -0.0367
 1290HK4    C47 8279   7.869   1.165   8.973 -0.0022  0.0777  0.4307
 1290HK4    H27 8280   7.969   1.166   9.019  1.0379  1.4963 -1.8012
 1290HK4    C46 8281   7.867   1.186   8.836 -0.3087 -0.0451  0.4164
 1290HK4    H26 8282   7.952   1.231   8.783 -1.4971 -1.5953 -2.9268
 1290HK4    C40 8283   7.749   1.167   8.762 -0.0066 -0.6323  0.0835
 1290HK4    C50 8284   7.629   1.146   8.834  0.0427  0.0770  0.3700
 1290HK4    H30 8285   7.535   1.139   8.779  2.0032 -2.4850 -2.8232
 1290HK4    C49 8286   7.629   1.137   8.973 -0.3480 -0.2511  0.3506
 1290HK4    H29 8287   7.539   1.143   9.035  0.4201  1.5673  1.3300
 1290HK4     N2 8288   7.756   1.148   8.623 -0.4913 -0.5052  0.0390
 1290HK4    C30 8289   7.856   1.089   8.543 -0.3587 -0.4522  0.1644
 1290HK4    C29 8290   7.984   1.043   8.570 -0.3851 -0.6287 -0.0245
 1290HK4    H15 8291   8.018   1.056   8.673 -2.3187  0.2560  0.5248
 1290HK4    C28 8292   8.063   0.989   8.469  0.1555  0.6313 -0.2877
 1290HK4    C27 8293   7.995   0.959   8.349  0.0276  0.1487 -0.0978
 1290HK4    H14 8294   8.021   0.859   8.312 -0.5440  0.1501 -0.4897
 1290HK4    C32 8295   7.868   1.002   8.313  0.0043  0.0406 -0.1458
 1290HK4    H16 8296   7.814   0.966   8.226 -0.9361  0.8554  0.0919
 1290HK4    C31 8297   7.803   1.079   8.408  0.1168  0.0333 -0.0619
 1290HK4    C34 8298   7.678   1.153   8.405 -0.0862 -0.3160 -0.1891
 1290HK4    C33 8299   7.653   1.199   8.541  0.0996  0.1252 -0.3025
 1290HK4    C35 8300   7.555   1.290   8.576 -0.1083 -0.0402 -0.4584
 1290HK4    H17 8301   7.555   1.329   8.677  0.1618 -2.1169  0.3619
 1290HK4    C36 8302   7.473   1.337   8.473 -0.5889 -0.1132 -0.1080
 1290HK4    H18 8303   7.403   1.420   8.490  0.6625  0.7328  0.9821
 1290HK4    C37 8304   7.492   1.294   8.342  0.3198 -0.7729  0.2263
 1290HK4    H19 8305   7.428   1.335   8.264 -2.9977 -3.5754  1.3235
 1290HK4    C38 8306   7.592   1.203   8.309  0.3684 -0.4058 -0.6419
 1290HK4    H20 8307   7.584   1.157   8.210  0.0247 -0.1232 -0.7487
 1290HK4    C14 8308   8.201   1.039   8.478  0.2321  0.3240  0.2642
 1290HK4     C9 8309   8.276   1.095   8.374 -0.0241 -0.2323 -0.2263
 1290HK4     C8 8310   8.416   1.083   8.365  0.0189  0.0137  0.0645
 1290HK4    C11 8311   8.483   1.019   8.468  0.0865  0.1921  0.1305
 1290HK4     H4 8312   8.590   0.994   8.461 -0.0432  0.1185 -1.8053
 1290HK4    C12 8313   8.416   0.968   8.578  0.1907  0.2659  0.2278
 1290HK4     H5 8314   8.470   0.917   8.659 -0.5894 -0.0009  0.5927
 1290HK4    C13 8315   8.277   0.975   8.578  0.1806  0.0185  0.1048
 1290HK4     H6 8316   8.219   0.911   8.647 -1.5621  0.1507 -1.1921
 1290HK4     C7 8317   8.493   1.155   8.261  0.2306  0.4668  0.5368
 1290HK4     O2 8318   8.616   1.145   8.262  0.2268  0.2433 -0.4730
 1290HK4     C4 8319   8.418   1.229   8.157  0.1745  0.0942  0.3143
 1290HK4     C3 8320   8.485   1.292   8.052 -0.5464 -0.0259 -0.2220
 1290HK4     H3 8321   8.590   1.322   8.061 -0.6612  0.4979 -0.5885
 1290HK4     C2 8322   8.420   1.326   7.934  0.0084 -0.2237 -0.5829
 1290HK4     H2 8323   8.469   1.381   7.852  0.5876 -1.7871 -1.3211
 1290HK4     C1 8324   8.284   1.301   7.927 -0.0408 -0.1175 -0.1319
 1290HK4     H1 8325   8.231   1.325   7.833  1.3370  1.0912 -0.6168
 1290HK4     C6 8326   8.207   1.246   8.031  0.0729  0.4085  0.2286
 1290HK4     C5 8327   8.278   1.214   8.148  0.2252 -0.1636 -0.0200
 1290HK4    C10 8328   8.204   1.175   8.271  0.0579  0.0761 -0.0425
 1290HK4     O1 8329   8.133   1.267   8.313 -0.2766 -0.0776 -0.2792
 1290HK4    C16 8330   8.068   1.215   7.997  0.0897 -0.0583  0.5667
 1290HK4    C15 8331   7.999   1.278   7.891 -0.1240 -1.1469  0.0438
 1290HK4     H7 8332   8.028   1.379   7.857 -1.7850 -0.9489 -0.8453
 1290HK4    C20 8333   7.890   1.222   7.826 -0.7223 -0.3154  0.3165
 1290HK4     H9 8334   7.843   1.285   7.751 -0.3533 -0.9016 -0.4166
 1290HK4    C19 8335   7.850   1.091   7.852 -0.2948 -0.3293  0.9165
 1290HK4    C18 8336   7.919   1.023   7.960 -0.0021 -0.2415  0.7851
 1290HK4    C17 8337   8.021   1.088   8.028  0.4777 -0.3066  0.1365
 1290HK4     H8 8338   8.058   1.043   8.121 -2.0488 -2.8057  0.0148
 1290HK4     N1 8339   7.865   0.894   7.979  0.2165 -0.5203 -0.3912
 1290HK4    C21 8340   7.763   0.876   7.884  0.1341 -0.0965 -0.3885
 1290HK4    C22 8341   7.758   0.992   7.799  0.0185  0.0031 -0.2470
 1290HK4    C26 8342   7.677   0.984   7.686 -0.6323 -0.0308  0.2227
 1290HK4    H13 8343   7.670   1.073   7.624  1.8012  0.4043  0.5391
 1290HK4    C25 8344   7.619   0.866   7.641 -0.0741  0.0263 -0.6454
 1290HK4    H12 8345   7.547   0.872   7.559  0.4874  1.0686 -1.0757
 1290HK4    C24 8346   7.628   0.753   7.722  0.0071  0.6177  0.1708
 1290HK4    H11 8347   7.561   0.666   7.713  1.0252 -0.1773  0.1902
 1290HK4    C23 8348   7.697   0.761   7.843 -0.5878 -0.0281  0.5499
 1290HK4    H10 8349   7.697   0.674   7.909  1.2835  1.7930  2.9940
 1290HK4    C39 8350   7.937   0.791   8.041  0.0797 -0.4690 -0.1460
 1290HK4    C41 8351   7.885   0.675   8.102 -0.2805 -0.0118  0.4139
 1290HK4    H21 8352   7.780   0.674   8.135 -0.8943 -0.9676 -1.5315
 1290HK4    C42 8353   7.964   0.569   8.144  0.0303  0.1020  0.1147
 1290HK4    H22 8354   7.928   0.492   8.214 -0.0121  0.6344  0.6930
 1290HK4    C43 8355   8.102   0.571   8.129  0.0366 -0.1886  0.1269
 1290HK4    H23 8356   8.159   0.497   8.186  0.7140 -1.1088 -1.6930
 1290HK4    C44 8357   8.159   0.680   8.065 -0.1875 -0.0744  0.1274
 1290HK4    H24 8358   8.268   0.682   8.049 -0.3028 -1.2813 -0.8962
 1290HK4    C45 8359   8.077   0.787   8.028  0.0864  0.0044 -0.2494
 1290HK4    H25 8360   8.130   0.875   7.989 -1.3612  0.2560 -1.6957
 1291HK4    H28 8361   8.549   4.748   0.736  0.2606  1.2630  0.6777
 1291HK4    C48 8362   8.478   4.701   0.805 -0.0990  0.9217  0.0766
 1291HK4    C47 8363   8.519   4.703   0.937  0.3116 -0.1099 -0.0372
 1291HK4    H27 8364   8.624   4.715   0.969  0.4110  0.1119 -0.4532
 1291HK4    C46 8365   8.425   4.673   1.035  0.4375 -0.1737  0.0666
 1291HK4    H26 8366   8.436   4.690   1.144  0.5269  1.5804 -0.1957
 1291HK4    C40 8367   8.299   4.620   1.004  0.1161  0.5202  0.1870
 1291HK4    C50 8368   8.267   4.613   0.867  0.4352 -0.2577  0.1518
 1291HK4    H30 8369   8.183   4.550   0.832 -0.8270  1.3159  0.3145
 1291HK4    C49 8370   8.352   4.656   0.766  0.0585  0.4402  0.1274
 1291HK4    H29 8371   8.320   4.666   0.662  2.0401 -2.1847 -0.7923
 1291HK4     N2 8372   8.226   4.551   1.101  0.1219 -0.0525 -0.2158
 1291HK4    C30 8373   8.287   4.508   1.221  0.4087  0.1256 -0.3006
 1291HK4    C29 8374   8.403   4.435   1.243 -0.3854 -1.1307 -0.2185
 1291HK4    H15 8375   8.477   4.428   1.163 -0.5559  0.4502 -0.5314
 1291HK4    C28 8376   8.435   4.377   1.365 -0.4052 -0.4999  0.0863
 1291HK4    C27 8377   8.346   4.396   1.473  0.1694  0.2494  0.4323
 1291HK4    H14 8378   8.388   4.379   1.573 -0.9011 -1.7220  0.5690
 1291HK4    C32 8379   8.224   4.460   1.453 -0.1531 -0.7154 -0.7469
 1291HK4    H16 8380   8.158   4.481   1.536 -1.8255 -0.0611 -2.2148
 1291HK4    C31 8381   8.191   4.515   1.330 -0.1629 -0.7167 -0.7451
 1291HK4    C34 8382   8.072   4.567   1.265 -0.2686 -0.3177 -0.2310
 1291HK4    C33 8383   8.091   4.588   1.123  0.3571  0.6939 -0.0056
 1291HK4    C35 8384   7.980   4.617   1.046  0.0399 -0.3183  0.0585
 1291HK4    H17 8385   7.987   4.628   0.937 -0.5639 -0.2244  0.0238
 1291HK4    C36 8386   7.855   4.637   1.103  0.0207 -0.4096  0.0454
 1291HK4    H18 8387   7.769   4.679   1.049  2.4324  1.1484 -2.6929
 1291HK4    C37 8388   7.839   4.617   1.240 -0.2440 -0.2867  0.0326
 1291HK4    H19 8389   7.743   4.636   1.288 -0.3678  0.2195 -0.4184
 1291HK4    C38 8390   7.948   4.594   1.322 -0.3061 -0.8769 -0.0490
 1291HK4    H20 8391   7.937   4.597   1.431 -0.6362 -1.1132 -0.0747
 1291HK4    C14 8392   8.525   4.261   1.360  0.4801  0.1444  0.8303
 1291HK4     C9 8393   8.489   4.144   1.428  0.1715 -0.2941 -0.0721
 1291HK4     C8 8394   8.590   4.061   1.480  0.2843  0.2766  0.6248
 1291HK4    C11 8395   8.722   4.095   1.450  0.2170  0.0502  0.0663
 1291HK4     H4 8396   8.804   4.033   1.488 -0.8502 -0.5274  1.4908
 1291HK4    C12 8397   8.760   4.200   1.368  0.4142 -0.3982 -0.4134
 1291HK4     H5 8398   8.863   4.216   1.333  0.5913 -0.1635  0.2150
 1291HK4    C13 8399   8.659   4.286   1.325  0.3621 -0.1949  0.1156
 1291HK4     H6 8400   8.685   4.382   1.278 -1.1443  0.0264 -0.2799
 1291HK4     C7 8401   8.558   3.951   1.574  0.1472 -0.0421  0.2049
 1291HK4     O2 8402   8.631   3.852   1.574  0.1219 -0.0604  0.3917
 1291HK4     C4 8403   8.418   3.936   1.619  0.0797 -0.2224 -0.0606
 1291HK4     C3 8404   8.392   3.848   1.724 -0.0648  0.1063  0.1780
 1291HK4     H3 8405   8.464   3.775   1.764  2.3408  3.1755  1.6642
 1291HK4     C2 8406   8.273   3.854   1.795 -0.2823  0.0739 -0.1808
 1291HK4     H2 8407   8.259   3.808   1.893 -0.0351  1.7207  0.6498
 1291HK4     C1 8408   8.175   3.938   1.742 -0.0551  0.5414  0.1436
 1291HK4     H1 8409   8.089   3.957   1.808  2.2414  0.2673  3.3442
 1291HK4     C6 8410   8.184   4.010   1.621  0.5484  0.7312  0.3022
 1291HK4     C5 8411   8.312   4.011   1.564  0.5583  0.7205  0.3155
 1291HK4    C10 8412   8.348   4.100   1.449 -0.1167  0.6751  0.0689
 1291HK4     O1 8413   8.286   4.089   1.343  0.3825 -0.0509 -0.1501
 1291HK4    C16 8414   8.085   4.115   1.596  0.2241  0.2558 -0.3970
 1291HK4    C15 8415   8.018   4.186   1.697 -0.0774  0.5353 -0.7923
 1291HK4     H7 8416   8.074   4.198   1.791  0.3271  1.1664 -1.1146
 1291HK4    C20 8417   7.906   4.264   1.669 -0.2363  0.6810  0.2169
 1291HK4     H9 8418   7.869   4.327   1.749 -1.8271 -2.4806  2.0689
 1291HK4    C19 8419   7.843   4.261   1.545 -0.3172 -0.0040  0.2703
 1291HK4    C18 8420   7.897   4.172   1.444 -0.1689 -0.0622  0.4025
 1291HK4    C17 8421   8.017   4.110   1.474  0.3640  0.5362 -0.4856
 1291HK4     H8 8422   8.065   4.048   1.398 -3.4296 -0.0608 -2.5220
 1291HK4     N1 8423   7.824   4.172   1.323  0.4231  0.1040  0.0446
 1291HK4    C21 8424   7.715   4.257   1.350  0.1968 -0.0808 -0.2865
 1291HK4    C22 8425   7.720   4.310   1.485 -0.1409 -0.1790 -0.2341
 1291HK4    C26 8426   7.616   4.390   1.529  0.1895  0.1366 -0.0307
 1291HK4    H13 8427   7.594   4.407   1.634 -1.2691 -0.0479 -0.2965
 1291HK4    C25 8428   7.519   4.434   1.439 -0.0706 -0.2308  0.0727
 1291HK4    H12 8429   7.442   4.504   1.471 -0.4573 -0.2979 -0.7020
 1291HK4    C24 8430   7.532   4.395   1.306  0.4268  0.3063 -0.0393
 1291HK4    H11 8431   7.469   4.445   1.231  1.8006 -0.2222 -1.5586
 1291HK4    C23 8432   7.621   4.300   1.257  0.5892  0.6241 -0.3627
 1291HK4    H10 8433   7.618   4.255   1.157  1.2952 -0.0719 -0.0769
 1291HK4    C39 8434   7.882   4.150   1.198  0.3231  0.0491  0.0076
 1291HK4    C41 8435   7.814   4.092   1.089  0.2710 -0.2810  0.2162
 1291HK4    H21 8436   7.709   4.062   1.092  0.6768 -1.5927  2.2943
 1291HK4    C42 8437   7.871   4.084   0.962 -0.1626  0.2381 -0.0131
 1291HK4    H22 8438   7.809   4.063   0.874 -0.0027 -1.6148  0.3091
 1291HK4    C43 8439   8.001   4.130   0.941  0.2015 -0.5711  0.4253
 1291HK4    H23 8440   8.045   4.111   0.843  1.4089  0.4294  0.7590
 1291HK4    C44 8441   8.070   4.190   1.045  0.2888  0.4827 -0.2225
 1291HK4    H24 8442   8.163   4.242   1.021  0.4635 -0.5417 -1.7844
 1291HK4    C45 8443   8.010   4.203   1.170  0.2254  0.1719 -0.2204
 1291HK4    H25 8444   8.063   4.268   1.241  0.6359 -0.0754 -0.2944
 1292HK4    H28 8445   1.741   8.590   3.916 -0.8753 -0.1755  1.0138
 1292HK4    C48 8446   1.664   8.524   3.876 -0.2252 -0.3055 -0.0528
 1292HK4    C47 8447   1.545   8.504   3.945 -0.2886  0.0618 -0.0545
 1292HK4    H27 8448   1.530   8.535   4.049 -0.7673 -0.1938 -0.0480
 1292HK4    C46 8449   1.447   8.423   3.889  0.0595 -0.4975  0.1409
 1292HK4    H26 8450   1.347   8.422   3.935 -0.0630 -0.1348 -0.1073
 1292HK4    C40 8451   1.457   8.369   3.759 -0.0310  0.0347 -0.0948
 1292HK4    C50 8452   1.583   8.388   3.698 -0.2765  0.1906 -0.5568
 1292HK4    H30 8453   1.608   8.320   3.615 -1.5943 -0.7948 -0.1625
 1292HK4    C49 8454   1.687   8.460   3.755 -0.2517 -0.1788 -0.1242
 1292HK4    H29 8455   1.785   8.470   3.704 -1.3844  2.0456 -1.9528
 1292HK4     N2 8456   1.365   8.286   3.694 -0.7933  0.2387  0.7255
 1292HK4    C30 8457   1.262   8.209   3.753 -0.3315 -0.6019  0.4306
 1292HK4    C29 8458   1.252   8.173   3.887  0.4633 -0.2139  0.5994
 1292HK4    H15 8459   1.316   8.214   3.965  0.1543 -0.0317  0.7572
 1292HK4    C28 8460   1.137   8.112   3.936  0.2800 -0.1938  0.1978
 1292HK4    C27 8461   1.046   8.077   3.834  0.2402  0.0440  0.1518
 1292HK4    H14 8462   0.943   8.055   3.864  0.3991 -2.6946 -1.1654
 1292HK4    C32 8463   1.057   8.098   3.697 -0.1029 -0.0488  0.1105
 1292HK4    H16 8464   0.989   8.056   3.622 -0.6569 -1.1207  1.1856
 1292HK4    C31 8465   1.163   8.176   3.652 -0.1075 -0.0824  0.0384
 1292HK4    C34 8466   1.204   8.236   3.527  0.1628 -0.3686 -0.0129
 1292HK4    C33 8467   1.327   8.305   3.560  0.0155 -0.3116  0.4116
 1292HK4    C35 8468   1.388   8.373   3.455 -0.4824  0.0614  0.3544
 1292HK4    H17 8469   1.471   8.442   3.472 -0.4567  0.0071  0.4488
 1292HK4    C36 8470   1.342   8.357   3.325  0.2419  0.0329  0.0990
 1292HK4    H18 8471   1.396   8.406   3.243  0.5155 -1.2492 -0.5108
 1292HK4    C37 8472   1.221   8.295   3.296  0.3247 -0.1779  0.1882
 1292HK4    H19 8473   1.197   8.294   3.189 -0.3634 -0.8412  0.3453
 1292HK4    C38 8474   1.148   8.238   3.399  0.3219 -0.6733 -0.0869
 1292HK4    H20 8475   1.068   8.167   3.381 -1.0840  0.2159  2.4615
 1292HK4    C14 8476   1.143   8.044   4.066  0.0860  0.3806  0.5065
 1292HK4     C9 8477   1.095   7.913   4.083 -0.4771  0.4783 -0.3014
 1292HK4     C8 8478   1.005   7.887   4.188 -0.4548 -0.5667 -0.5377
 1292HK4    C11 8479   0.975   7.991   4.275 -0.3326 -0.1122 -1.0390
 1292HK4     H4 8480   0.882   7.990   4.333 -0.1707 -0.2241 -0.7835
 1292HK4    C12 8481   1.034   8.117   4.268 -0.2416 -0.1239 -0.4422
 1292HK4     H5 8482   1.031   8.191   4.350 -0.0768  0.1541 -0.6898
 1292HK4    C13 8483   1.123   8.143   4.165  0.3107  0.7073  0.2280
 1292HK4     H6 8484   1.172   8.241   4.167 -1.1905  1.4697  0.1047
 1292HK4     C7 8485   0.944   7.753   4.200 -0.2155 -0.5964  0.3758
 1292HK4     O2 8486   0.886   7.723   4.304  0.0147 -0.0684  0.6532
 1292HK4     C4 8487   0.964   7.656   4.090 -0.1883 -0.1655  0.0004
 1292HK4     C3 8488   0.892   7.536   4.092 -0.0968 -0.2134  0.4902
 1292HK4     H3 8489   0.838   7.501   4.180 -1.4390 -1.5451 -0.8456
 1292HK4     C2 8490   0.893   7.447   3.986  0.6568  0.0224  0.2969
 1292HK4     H2 8491   0.822   7.363   3.979 -0.2003  0.8857 -1.9366
 1292HK4     C1 8492   0.968   7.483   3.874  0.4458 -0.1195  0.1105
 1292HK4     H1 8493   0.936   7.431   3.782 -0.8701  2.1892 -0.8038
 1292HK4     C6 8494   1.046   7.600   3.871  0.0984  0.1109  0.0121
 1292HK4     C5 8495   1.048   7.686   3.981 -0.1149  0.0005  0.1036
 1292HK4    C10 8496   1.137   7.805   3.989 -0.1952  0.0444  0.3234
 1292HK4     O1 8497   1.258   7.791   3.966 -0.1448  0.2830  0.4428
 1292HK4    C16 8498   1.057   7.645   3.731  0.0170 -0.1487 -0.0792
 1292HK4    C15 8499   0.940   7.667   3.656  0.0169 -0.1919 -0.0907
 1292HK4     H7 8500   0.853   7.602   3.673  1.4295 -1.4627  2.5352
 1292HK4    C20 8501   0.941   7.754   3.548  0.0698  0.7411  0.6554
 1292HK4     H9 8502   0.841   7.772   3.507  0.4807  0.5739 -0.4342
 1292HK4    C19 8503   1.059   7.814   3.507  0.2595  0.3732  0.6703
 1292HK4    C18 8504   1.183   7.786   3.579  0.5117  0.4033  0.2471
 1292HK4    C17 8505   1.177   7.702   3.689 -0.0371 -0.0980 -0.1629
 1292HK4     H8 8506   1.264   7.653   3.733  1.7607  2.4050 -0.8146
 1292HK4     N1 8507   1.298   7.826   3.507  0.2474 -0.0888 -0.4538
 1292HK4    C21 8508   1.245   7.883   3.389  0.0492 -0.2781 -0.4574
 1292HK4    C22 8509   1.100   7.883   3.387  0.0313  0.0304  0.3958
 1292HK4    C26 8510   1.032   7.913   3.269  0.5352  0.0590  0.1082
 1292HK4    H13 8511   0.928   7.881   3.267  0.5738 -0.0270 -0.3923
 1292HK4    C25 8512   1.101   7.934   3.150  0.3660  0.0409  0.0080
 1292HK4    H12 8513   1.050   7.954   3.056  0.3631 -0.6893 -0.1521
 1292HK4    C24 8514   1.239   7.940   3.153  0.3794 -0.0314 -0.4247
 1292HK4    H11 8515   1.305   7.985   3.077  1.3406 -0.9807 -0.1735
 1292HK4    C23 8516   1.310   7.914   3.270  0.2011 -0.1930 -0.3532
 1292HK4    H10 8517   1.419   7.918   3.274  0.3633 -2.3945 -1.7621
 1292HK4    C39 8518   1.422   7.838   3.570 -0.0249  0.0227  0.0700
 1292HK4    C41 8519   1.536   7.815   3.489 -0.2739  0.2364 -0.3425
 1292HK4    H21 8520   1.531   7.766   3.390 -1.3495 -0.4255  0.0255
 1292HK4    C42 8521   1.661   7.858   3.530 -0.1357 -0.6537  0.1895
 1292HK4    H22 8522   1.751   7.839   3.469  0.7871  0.6754  1.0746
 1292HK4    C43 8523   1.665   7.939   3.644  0.0912 -0.5569  0.1152
 1292HK4    H23 8524   1.758   7.966   3.694  0.8608  1.0107 -2.0561
 1292HK4    C44 8525   1.553   7.972   3.719  0.2842  0.2278  0.0547
 1292HK4    H24 8526   1.562   8.016   3.820 -1.9598 -0.5048  0.6061
 1292HK4    C45 8527   1.431   7.914   3.688  0.4005 -0.0284  0.0736
 1292HK4    H25 8528   1.340   7.927   3.748 -0.2388  1.5108 -1.1875
 1293HK4    H28 8529   7.124   5.568   4.269 -0.2523 -0.8198 -0.1858
 1293HK4    C48 8530   7.015   5.574   4.265 -0.2132  0.4111  0.2162
 1293HK4    C47 8531   6.954   5.648   4.165 -0.1697 -0.6366 -0.5924
 1293HK4    H27 8532   7.007   5.718   4.098 -0.5610 -1.7685 -2.0993
 1293HK4    C46 8533   6.816   5.653   4.158 -0.1618 -0.1057 -0.3793
 1293HK4    H26 8534   6.778   5.677   4.057 -2.8575 -1.4302  0.2704
 1293HK4    C40 8535   6.736   5.579   4.248  0.0969 -0.8456 -0.7514
 1293HK4    C50 8536   6.805   5.505   4.346  0.2314 -0.5015 -0.5837
 1293HK4    H30 8537   6.747   5.459   4.428 -0.6834 -0.0758 -0.9916
 1293HK4    C49 8538   6.943   5.502   4.360  0.2040 -0.7639 -0.3466
 1293HK4    H29 8539   6.994   5.469   4.452 -2.3941  1.2087  1.9106
 1293HK4     N2 8540   6.597   5.590   4.263  0.2759  0.1123  0.3065
 1293HK4    C30 8541   6.526   5.704   4.222  0.3278  0.0704  0.1016
 1293HK4    C29 8542   6.575   5.832   4.199 -0.2346  0.4241  0.8535
 1293HK4    H15 8543   6.672   5.855   4.243  0.1232  0.2514  0.1626
 1293HK4    C28 8544   6.494   5.932   4.145  0.1306 -0.0991 -0.6766
 1293HK4    C27 8545   6.361   5.899   4.114 -0.1246  0.0838  0.2182
 1293HK4    H14 8546   6.288   5.964   4.063  0.7611  0.0023 -1.1505
 1293HK4    C32 8547   6.309   5.773   4.146  0.0504 -0.0138  0.1143
 1293HK4    H16 8548   6.207   5.756   4.112  0.0097  0.5094 -0.0324
 1293HK4    C31 8549   6.385   5.674   4.207  0.2287  0.3363  0.4626
 1293HK4    C34 8550   6.364   5.535   4.243 -0.0016  0.1830 -0.2415
 1293HK4    C33 8551   6.498   5.490   4.274  0.0481  0.2655 -0.3384
 1293HK4    C35 8552   6.508   5.365   4.333 -0.3099  0.2172 -0.3793
 1293HK4    H17 8553   6.604   5.314   4.335 -0.6511 -0.3857  1.7267
 1293HK4    C36 8554   6.395   5.294   4.371 -0.1423 -0.1392 -0.5452
 1293HK4    H18 8555   6.413   5.192   4.409  2.1951  0.2398 -0.6046
 1293HK4    C37 8556   6.268   5.344   4.345 -0.1901  0.1164  0.1515
 1293HK4    H19 8557   6.179   5.295   4.386 -0.3248 -0.8000 -1.1977
 1293HK4    C38 8558   6.249   5.464   4.276  0.1373  0.0417 -0.0676
 1293HK4    H20 8559   6.152   5.485   4.232  1.0844 -0.4784 -2.4844
 1293HK4    C14 8560   6.535   6.073   4.151 -0.3200  0.0182 -0.3246
 1293HK4     C9 8561   6.450   6.182   4.169 -0.1607  0.0574  0.2038
 1293HK4     C8 8562   6.473   6.309   4.111  0.0618  0.0971  0.3795
 1293HK4    C11 8563   6.594   6.331   4.046 -0.3294 -0.2998 -0.4862
 1293HK4     H4 8564   6.631   6.434   4.049  3.1493 -1.5154  1.1327
 1293HK4    C12 8565   6.684   6.226   4.027 -0.3001 -0.3040 -0.3179
 1293HK4     H5 8566   6.778   6.246   3.974 -0.5100 -1.3673 -1.0964
 1293HK4    C13 8567   6.652   6.100   4.078  0.0049 -0.2152  0.1038
 1293HK4     H6 8568   6.720   6.016   4.061 -0.5395 -0.3992 -1.2306
 1293HK4     C7 8569   6.363   6.407   4.100 -0.0042 -0.0757 -0.5556
 1293HK4     O2 8570   6.378   6.528   4.092  0.2533 -0.0621  0.0820
 1293HK4     C4 8571   6.224   6.364   4.127 -0.0821  0.2954 -0.3608
 1293HK4     C3 8572   6.116   6.437   4.080 -0.2708  0.0266 -0.3466
 1293HK4     H3 8573   6.135   6.540   4.046 -1.0456  0.2961  0.0243
 1293HK4     C2 8574   5.985   6.392   4.086 -0.2310 -0.0357  0.0543
 1293HK4     H2 8575   5.906   6.435   4.023 -0.4459 -0.6009 -0.0650
 1293HK4     C1 8576   5.971   6.264   4.139  0.3372 -0.0960  0.0598
 1293HK4     H1 8577   5.872   6.217   4.143  0.4913 -0.2822  1.8003
 1293HK4     C6 8578   6.073   6.188   4.201  0.2939 -0.2236 -0.0261
 1293HK4     C5 8579   6.201   6.245   4.199  0.0032  0.4405 -0.0954
 1293HK4    C10 8580   6.320   6.165   4.240 -0.1327  0.4685  0.3534
 1293HK4     O1 8581   6.324   6.106   4.348  0.8653 -0.2941 -0.0927
 1293HK4    C16 8582   6.048   6.044   4.194 -0.0833 -0.1530 -0.2044
 1293HK4    C15 8583   5.988   5.989   4.079  0.5048  0.1270 -0.6502
 1293HK4     H7 8584   6.014   6.032   3.982 -0.1689 -3.2374 -2.3882
 1293HK4    C20 8585   5.938   5.859   4.082  0.2576  0.2468  0.7468
 1293HK4     H9 8586   5.864   5.838   4.005  1.0452  1.4880 -0.3728
 1293HK4    C19 8587   5.937   5.782   4.198 -0.2921 -0.5687  0.1991
 1293HK4    C18 8588   5.985   5.847   4.318  0.1927 -0.5319 -0.0146
 1293HK4    C17 8589   6.041   5.974   4.314  0.1388 -0.5188 -0.4018
 1293HK4     H8 8590   6.099   6.006   4.401  2.1595 -0.2683 -1.8081
 1293HK4     N1 8591   5.960   5.762   4.428  0.0091 -0.2719  0.1451
 1293HK4    C21 8592   5.897   5.645   4.382 -0.2098  0.0392 -0.3541
 1293HK4    C22 8593   5.882   5.654   4.238 -0.9481 -0.4501 -0.3102
 1293HK4    C26 8594   5.829   5.543   4.173 -0.0536 -0.9761 -0.1584
 1293HK4    H13 8595   5.821   5.548   4.064  1.1001  2.4961 -0.1472
 1293HK4    C25 8596   5.788   5.428   4.239 -0.5059 -0.3724  0.6221
 1293HK4    H12 8597   5.716   5.362   4.191 -0.1789  0.2797 -0.7879
 1293HK4    C24 8598   5.817   5.417   4.375  0.4916  0.0765  0.4484
 1293HK4    H11 8599   5.796   5.329   4.437 -0.8864  0.7480  0.9649
 1293HK4    C23 8600   5.873   5.523   4.445  0.4156  0.2319  0.2728
 1293HK4    H10 8601   5.887   5.512   4.553  0.8016  2.2617  0.4577
 1293HK4    C39 8602   6.039   5.776   4.543  0.3429 -0.0378 -0.1115
 1293HK4    C41 8603   5.989   5.744   4.671  0.1891  0.1181 -0.1328
 1293HK4    H21 8604   5.880   5.743   4.684  0.2514  1.5480  0.6477
 1293HK4    C42 8605   6.076   5.715   4.776 -0.1734  0.4101  0.2476
 1293HK4    H22 8606   6.043   5.706   4.880  0.1101  1.6759  0.4565
 1293HK4    C43 8607   6.213   5.720   4.751 -0.2707 -0.5851 -0.4952
 1293HK4    H23 8608   6.274   5.718   4.841 -3.8862  1.8623  2.1395
 1293HK4    C44 8609   6.264   5.748   4.625  0.2550 -0.2689 -0.2117
 1293HK4    H24 8610   6.371   5.750   4.601  0.1412  0.8324 -0.6664
 1293HK4    C45 8611   6.178   5.780   4.520  0.3234 -0.4717 -0.3304
 1293HK4    H25 8612   6.222   5.812   4.424  0.3010  0.8077  0.0702
 1294HK4    H28 8613   8.614   6.977   9.639  1.1327  0.6537  0.1414
 1294HK4    C48 8614   8.542   7.013   9.565  0.2664 -0.4041  0.4593
 1294HK4    C47 8615   8.561   6.962   9.437  0.0529  0.5626  0.0406
 1294HK4    H27 8616   8.647   6.897   9.415 -0.5608 -0.0572 -0.5400
 1294HK4    C46 8617   8.470   7.011   9.344 -0.2628 -0.2404 -0.0743
 1294HK4    H26 8618   8.474   6.967   9.244  0.4062 -1.6020  0.5370
 1294HK4    C40 8619   8.364   7.101   9.368 -0.0908 -0.1663  0.4026
 1294HK4    C50 8620   8.358   7.157   9.497 -0.0171  0.1903  0.2558
 1294HK4    H30 8621   8.277   7.227   9.521  2.3026  3.3927 -0.9921
 1294HK4    C49 8622   8.439   7.101   9.595  0.1291 -0.3449 -0.1663
 1294HK4    H29 8623   8.415   7.130   9.699 -1.2716 -1.0940 -0.2815
 1294HK4     N2 8624   8.252   7.079   9.287 -0.3442  0.0137  0.7042
 1294HK4    C30 8625   8.159   7.182   9.260  0.1771  0.1001 -0.8387
 1294HK4    C29 8626   8.163   7.319   9.280 -0.2047 -0.0183  0.0657
 1294HK4    H15 8627   8.257   7.372   9.289 -0.5812  0.8534 -0.9615
 1294HK4    C28 8628   8.049   7.397   9.259 -0.1990 -0.1321 -0.4121
 1294HK4    C27 8629   7.933   7.334   9.209 -0.1700  0.1522 -0.8377
 1294HK4    H14 8630   7.867   7.396   9.147  0.4898 -0.6195 -2.3427
 1294HK4    C32 8631   7.920   7.196   9.206  0.1189  0.1038  0.0535
 1294HK4    H16 8632   7.823   7.147   9.197  0.5560 -0.4721 -1.7000
 1294HK4    C31 8633   8.031   7.118   9.235  0.0355  0.0025  0.0955
 1294HK4    C34 8634   8.048   6.974   9.241 -0.3215 -0.0106  0.7811
 1294HK4    C33 8635   8.188   6.955   9.271 -0.2175 -0.0003  0.2942
 1294HK4    C35 8636   8.228   6.822   9.282  0.2710  0.1215  0.0440
 1294HK4    H17 8637   8.334   6.798   9.291 -0.0619 -1.5135 -0.2719
 1294HK4    C36 8638   8.137   6.717   9.285 -0.0017  0.3628  0.3514
 1294HK4    H18 8639   8.175   6.618   9.256 -0.6577  1.0113 -2.9766
 1294HK4    C37 8640   7.999   6.732   9.284 -0.0932 -0.4245 -0.5419
 1294HK4    H19 8641   7.934   6.646   9.289 -1.1216  0.4228  1.1710
 1294HK4    C38 8642   7.964   6.864   9.258 -0.0929 -0.2843  0.1406
 1294HK4    H20 8643   7.858   6.890   9.269  0.0121 -0.5661  1.8387
 1294HK4    C14 8644   8.051   7.510   9.353 -0.4258 -0.1027 -0.4432
 1294HK4     C9 8645   7.953   7.527   9.452  0.1258 -0.2201  0.1222
 1294HK4     C8 8646   7.919   7.660   9.482  0.0072 -0.2633  0.1839
 1294HK4    C11 8647   7.989   7.762   9.417  0.4617 -0.6106  0.1357
 1294HK4     H4 8648   7.963   7.868   9.425 -0.5772 -0.9089  0.8313
 1294HK4    C12 8649   8.097   7.748   9.331  0.6084 -0.1501  0.2450
 1294HK4     H5 8650   8.151   7.833   9.286 -3.8505  2.4145 -0.5410
 1294HK4    C13 8651   8.125   7.616   9.297 -0.0115 -0.1975 -0.0750
 1294HK4     H6 8652   8.227   7.593   9.263  0.4045 -1.7215  2.1026
 1294HK4     C7 8653   7.856   7.687   9.613 -0.4897 -0.0514 -0.0924
 1294HK4     O2 8654   7.810   7.797   9.643 -0.0585  0.0200  0.3188
 1294HK4     C4 8655   7.840   7.571   9.704  0.1011 -0.1433 -0.1074
 1294HK4     C3 8656   7.814   7.596   9.839  1.2790  0.4836  0.0152
 1294HK4     H3 8657   7.814   7.698   9.880 -1.4172  0.3525  0.3987
 1294HK4     C2 8658   7.779   7.490   9.921  0.5271  0.6641 -0.0698
 1294HK4     H2 8659   7.775   7.498  10.031  2.6340 -2.4566  0.2900
 1294HK4     C1 8660   7.752   7.364   9.869 -0.1541  0.7205  0.1343
 1294HK4     H1 8661   7.760   7.276   9.936  0.7728  0.0479 -0.8430
 1294HK4     C6 8662   7.761   7.339   9.731 -0.3864 -0.1295  0.2712
 1294HK4     C5 8663   7.824   7.440   9.657 -0.5576 -0.1418  0.1072
 1294HK4    C10 8664   7.910   7.413   9.538 -0.2800  0.0424  0.2664
 1294HK4     O1 8665   7.980   7.312   9.540  0.4407  0.5366  0.2711
 1294HK4    C16 8666   7.724   7.206   9.681  0.6150 -0.3510  0.1196
 1294HK4    C15 8667   7.679   7.190   9.548  1.0947  0.1973 -0.1143
 1294HK4     H7 8668   7.633   7.276   9.497 -0.0667 -1.2647 -1.5872
 1294HK4    C20 8669   7.678   7.063   9.492  0.6841  0.1019  0.1097
 1294HK4     H9 8670   7.641   7.045   9.391  0.9350 -0.4196  0.1134
 1294HK4    C19 8671   7.702   6.953   9.573  0.0782  0.1017  0.2975
 1294HK4    C18 8672   7.746   6.971   9.710 -0.3476  0.0018  0.4468
 1294HK4    C17 8673   7.764   7.099   9.761  0.0410 -0.1419  0.6825
 1294HK4     H8 8674   7.843   7.115   9.834  0.5788  2.4096 -0.4026
 1294HK4     N1 8675   7.783   6.848   9.769  0.1975 -0.0046  0.0923
 1294HK4    C21 8676   7.768   6.750   9.669 -0.2088  0.1678 -0.0166
 1294HK4    C22 8677   7.728   6.813   9.545  0.2360  0.2171 -0.1413
 1294HK4    C26 8678   7.691   6.738   9.434  0.5208  0.0860 -0.1466
 1294HK4    H13 8679   7.674   6.781   9.336  0.7041 -0.7519 -0.5525
 1294HK4    C25 8680   7.695   6.599   9.440  0.1866  0.0747 -0.2088
 1294HK4    H12 8681   7.665   6.538   9.354 -0.2685  0.7698 -0.5426
 1294HK4    C24 8682   7.721   6.539   9.562  0.3805  0.5646 -0.0065
 1294HK4    H11 8683   7.713   6.430   9.577  0.3047  0.8859  2.4899
 1294HK4    C23 8684   7.756   6.612   9.675  0.2562  0.1407  0.3055
 1294HK4    H10 8685   7.759   6.563   9.773 -2.1534 -0.9982 -0.1659
 1294HK4    C39 8686   7.848   6.842   9.893  0.6192  0.3947 -0.1050
 1294HK4    C41 8687   7.943   6.742   9.922  0.1409  0.0173  0.1887
 1294HK4    H21 8688   7.984   6.683   9.838  0.0827  0.7234 -0.3403
 1294HK4    C42 8689   8.010   6.728  10.043  0.1013  0.1594  0.2275
 1294HK4    H22 8690   8.102   6.668  10.043  0.8310  1.2562  0.2242
 1294HK4    C43 8691   7.977   6.819  10.142 -0.1684  0.6899 -0.3427
 1294HK4    H23 8692   8.021   6.804  10.241 -3.0359 -1.7033  0.6083
 1294HK4    C44 8693   7.877   6.914  10.128 -0.7530  0.1330  0.0570
 1294HK4    H24 8694   7.853   6.979  10.213  0.0524  2.4710 -1.4571
 1294HK4    C45 8695   7.814   6.922  10.004 -0.4246 -0.0217 -0.1188
 1294HK4    H25 8696   7.736   7.000  10.002 -0.8579 -0.4524  0.0669
 1295HK4    H28 8697   9.852   0.406   8.752 -0.2180 -0.2813  0.2459
 1295HK4    C48 8698   9.786   0.359   8.825 -0.2238 -0.1969  0.2961
 1295HK4    C47 8699   9.704   0.254   8.783 -0.0603 -0.2782  0.1857
 1295HK4    H27 8700   9.705   0.231   8.675  3.4363  0.1781  0.0498
 1295HK4    C46 8701   9.644   0.163   8.869  0.0624 -0.5645 -0.0348
 1295HK4    H26 8702   9.600   0.073   8.823 -1.2618  0.2549 -0.3948
 1295HK4    C40 8703   9.668   0.167   9.008 -0.4751  0.1897  0.0369
 1295HK4    C50 8704   9.760   0.267   9.047 -0.2478 -0.1367  0.3367
 1295HK4    H30 8705   9.796   0.273   9.151  1.4517  0.6497 -0.2877
 1295HK4    C49 8706   9.814   0.361   8.961  0.2585 -0.5427  0.2074
 1295HK4    H29 8707   9.901   0.421   8.991  1.3394 -1.1910 -1.5370
 1295HK4     N2 8708   9.580   0.102   9.094 -0.0518 -0.3243  0.0816
 1295HK4    C30 8709   9.459   0.039   9.055 -0.2720 -0.1137  0.4189
 1295HK4    C29 8710   9.377   0.058   8.944  0.1307  0.2899  0.1845
 1295HK4    H15 8711   9.368   0.159   8.904 -1.6011 -0.3805 -1.1437
 1295HK4    C28 8712   9.265  11.226   8.924  0.2014  0.1863  0.2240
 1295HK4    C27 8713   9.229  11.125   9.016 -0.2927 -0.2600 -0.4561
 1295HK4    H14 8714   9.170  11.041   8.976 -1.3097  0.7680 -1.1687
 1295HK4    C32 8715   9.304  11.108   9.132 -0.0445 -0.2709 -0.6159
 1295HK4    H16 8716   9.264  11.036   9.204 -0.1012  1.2064  0.8330
 1295HK4    C31 8717   9.411  11.193   9.154 -0.0174 -0.5047  0.1715
 1295HK4    C34 8718   9.514  11.197   9.256  0.2235 -0.2760 -0.0799
 1295HK4    C33 8719   9.615   0.045   9.218  0.0805 -0.0246  0.1796
 1295HK4    C35 8720   9.734   0.051   9.290  0.3639 -0.1976 -0.2781
 1295HK4    H17 8721   9.810   0.129   9.282 -0.8973  1.1386  0.6171
 1295HK4    C36 8722   9.758  11.221   9.402 -0.1554  0.6372  0.4208
 1295HK4    H18 8723   9.852  11.227   9.457  0.8313  0.5727 -1.2232
 1295HK4    C37 8724   9.656  11.135   9.442  0.1543  0.1025  0.0738
 1295HK4    H19 8725   9.672  11.069   9.527  0.4449 -0.8686 -0.7295
 1295HK4    C38 8726   9.537  11.122   9.371  0.0410  0.1693  0.2485
 1295HK4    H20 8727   9.447  11.090   9.424 -0.5082  1.6489  0.2393
 1295HK4    C14 8728   9.162   0.016   8.827  0.0153 -0.5097  0.1488
 1295HK4     C9 8729   9.023   0.017   8.842 -0.0281  0.5691 -0.2898
 1295HK4     C8 8730   8.941  11.235   8.731  0.0641 -0.1343 -0.1723
 1295HK4    C11 8731   8.998  11.216   8.606  0.0754 -0.7247 -0.0779
 1295HK4     H4 8732   8.939  11.171   8.524 -1.4684 -0.7787  1.0555
 1295HK4    C12 8733   9.134  11.239   8.587 -0.1005  0.4470  0.0183
 1295HK4     H5 8734   9.167  11.245   8.483  5.0031 -1.3411  1.3662
 1295HK4    C13 8735   9.217   0.008   8.697 -0.0133 -0.7928  0.1518
 1295HK4     H6 8736   9.324  11.232   8.682 -0.0345 -1.7157  1.3783
 1295HK4     C7 8737   8.795   0.003   8.744  0.1254 -0.1368  0.5579
 1295HK4     O2 8738   8.719  11.192   8.667  0.2018  0.2314  0.2062
 1295HK4     C4 8739   8.735   0.084   8.853 -0.7979 -0.2429  0.1386
 1295HK4     C3 8740   8.597   0.094   8.864 -0.7993 -0.4698  0.3162
 1295HK4     H3 8741   8.529   0.046   8.792 -0.5844  1.8016 -1.4697
 1295HK4     C2 8742   8.544   0.158   8.975 -0.1922  0.7818 -0.1042
 1295HK4     H2 8743   8.435   0.167   8.975 -0.2958 -0.3288  0.4678
 1295HK4     C1 8744   8.629   0.223   9.064 -0.1175  0.7174 -0.1292
 1295HK4     H1 8745   8.577   0.297   9.127 -2.0253  0.5347 -1.4489
 1295HK4     C6 8746   8.769   0.220   9.049 -0.1417 -0.0437 -0.2418
 1295HK4     C5 8747   8.820   0.130   8.956 -0.3151 -0.0256 -0.3525
 1295HK4    C10 8748   8.961   0.082   8.961 -0.2473  0.1834 -0.1920
 1295HK4     O1 8749   9.019   0.071   9.069 -0.0823 -0.3770 -0.3357
 1295HK4    C16 8750   8.851   0.316   9.126 -0.6338  0.5404 -0.4432
 1295HK4    C15 8751   8.820   0.345   9.260  0.3074 -0.1979 -0.0620
 1295HK4     H7 8752   8.760   0.275   9.319  2.9210 -1.6253  1.0034
 1295HK4    C20 8753   8.888   0.449   9.324  0.1379 -0.1300  0.0068
 1295HK4     H9 8754   8.861   0.479   9.425  0.4253  1.6434 -0.4224
 1295HK4    C19 8755   8.982   0.522   9.253 -0.2230  0.1135 -0.2283
 1295HK4    C18 8756   9.007   0.498   9.112  0.5557 -0.5392  0.0127
 1295HK4    C17 8757   8.938   0.394   9.052  0.0532 -0.0512 -0.2586
 1295HK4     H8 8758   8.934   0.388   8.943 -0.1584 -1.3806 -0.1848
 1295HK4     N1 8759   9.113   0.577   9.062 -0.0546  0.1864 -0.1484
 1295HK4    C21 8760   9.152   0.655   9.173  0.0922 -0.2666  0.1203
 1295HK4    C22 8761   9.078   0.623   9.294 -0.7334  0.5746 -0.1602
 1295HK4    C26 8762   9.130   0.643   9.421 -0.4524 -0.4927 -0.1052
 1295HK4    H13 8763   9.072   0.631   9.512 -1.0297  1.6468 -0.1733
 1295HK4    C25 8764   9.255   0.703   9.430 -0.5161 -0.3237 -0.3511
 1295HK4    H12 8765   9.295   0.738   9.526  0.5743 -0.7839 -0.6357
 1295HK4    C24 8766   9.325   0.746   9.318 -0.4223  0.0494 -0.1522
 1295HK4    H11 8767   9.406   0.819   9.330  0.2888 -0.7798  0.1327
 1295HK4    C23 8768   9.272   0.722   9.191 -0.0158  0.0544 -0.3242
 1295HK4    H10 8769   9.348   0.723   9.113  2.3420 -1.3265  1.8517
 1295HK4    C39 8770   9.177   0.554   8.939  0.0327 -0.1352 -0.0458
 1295HK4    C41 8771   9.257   0.656   8.884  0.2124 -0.1708  0.1469
 1295HK4    H21 8772   9.225   0.758   8.912 -1.1732 -0.1378 -1.4180
 1295HK4    C42 8773   9.364   0.630   8.799  0.2169 -0.9511  0.3906
 1295HK4    H22 8774   9.456   0.688   8.811 -0.7994  1.2602 -2.1499
 1295HK4    C43 8775   9.379   0.503   8.744  0.2486 -0.4680 -0.7167
 1295HK4    H23 8776   9.464   0.484   8.678 -0.0186 -4.2988 -0.0692
 1295HK4    C44 8777   9.307   0.398   8.800 -0.1686  0.2690  0.1551
 1295HK4    H24 8778   9.320   0.295   8.761 -0.7299  0.5467 -0.7738
 1295HK4    C45 8779   9.214   0.424   8.899 -0.2814 -0.3015  0.2006
 1295HK4    H25 8780   9.162   0.333   8.934 -0.7935 -0.4123 -0.8261
 1296HK4    H28 8781   8.647   3.386   2.313 -0.1626  0.3081 -0.9537
 1296HK4    C48 8782   8.558   3.448   2.323  0.0104  0.3932  0.1029
 1296HK4    C47 8783   8.516   3.477   2.453  0.1807 -0.0610  0.2601
 1296HK4    H27 8784   8.522   3.394   2.525 -0.9536 -0.5650 -0.2106
 1296HK4    C46 8785   8.446   3.594   2.482 -0.1872 -0.2206  0.0359
 1296HK4    H26 8786   8.397   3.601   2.581 -3.3082 -1.6863 -1.3303
 1296HK4    C40 8787   8.410   3.687   2.383 -0.4205 -0.4172 -0.0626
 1296HK4    C50 8788   8.442   3.645   2.253 -0.2404 -0.4325 -0.0125
 1296HK4    H30 8789   8.401   3.699   2.167  1.8594  0.2063 -0.6442
 1296HK4    C49 8790   8.513   3.529   2.220  0.2137 -0.0650 -0.3471
 1296HK4    H29 8791   8.542   3.499   2.118  0.3921  1.2365 -0.6860
 1296HK4     N2 8792   8.339   3.804   2.411  0.4873  0.0530  0.2849
 1296HK4    C30 8793   8.235   3.825   2.505  0.1532 -0.1601 -0.0313
 1296HK4    C29 8794   8.176   3.732   2.589 -0.0325 -0.0156 -0.0010
 1296HK4    H15 8795   8.181   3.626   2.563 -3.4462  0.3305 -2.3439
 1296HK4    C28 8796   8.092   3.771   2.693  0.4127 -0.0545  0.3765
 1296HK4    C27 8797   8.082   3.911   2.711 -0.1543 -0.1039  0.4415
 1296HK4    H14 8798   8.059   3.936   2.816  3.1278  0.9343  0.9605
 1296HK4    C32 8799   8.136   4.009   2.630  0.1684 -0.4602  0.2225
 1296HK4    H16 8800   8.109   4.115   2.638 -0.4421 -0.7041  1.4550
 1296HK4    C31 8801   8.210   3.967   2.520  0.0260 -0.1892  0.0191
 1296HK4    C34 8802   8.285   4.029   2.413  0.0162 -0.3479 -0.0790
 1296HK4    C33 8803   8.370   3.929   2.353  0.0951 -0.1341 -0.3248
 1296HK4    C35 8804   8.450   3.959   2.243 -0.2392 -0.6581 -0.7177
 1296HK4    H17 8805   8.520   3.887   2.201  0.8086 -0.6804  1.0279
 1296HK4    C36 8806   8.444   4.088   2.191 -0.0155 -0.2333  0.2829
 1296HK4    H18 8807   8.526   4.126   2.128  1.5638 -0.2689  2.2786
 1296HK4    C37 8808   8.358   4.181   2.249  0.0969 -0.0338  0.1365
 1296HK4    H19 8809   8.351   4.276   2.197  1.1795  1.4000  2.5370
 1296HK4    C38 8810   8.277   4.158   2.359 -0.2448 -0.4103 -0.1932
 1296HK4    H20 8811   8.231   4.241   2.413  0.1210  0.2981 -0.9709
 1296HK4    C14 8812   7.995   3.675   2.746 -0.0886  0.5600  0.5885
 1296HK4     C9 8813   7.864   3.707   2.784 -0.3278  0.1704  0.1054
 1296HK4     C8 8814   7.810   3.631   2.890 -0.0499 -0.4727 -0.2116
 1296HK4    C11 8815   7.874   3.524   2.951 -0.2348 -0.3205  0.2530
 1296HK4     H4 8816   7.816   3.457   3.016  0.5254 -0.0700  1.1988
 1296HK4    C12 8817   7.999   3.484   2.906  0.1149  0.2209  0.7528
 1296HK4     H5 8818   8.048   3.394   2.946  1.6384 -0.6012 -2.7393
 1296HK4    C13 8819   8.056   3.562   2.805 -0.4513  0.3228  0.5105
 1296HK4     H6 8820   8.148   3.522   2.760 -0.0678  0.8006  0.8549
 1296HK4     C7 8821   7.674   3.665   2.937  0.2706  0.3839  0.0980
 1296HK4     O2 8822   7.625   3.611   3.036  0.1602 -0.2353 -0.2919
 1296HK4     C4 8823   7.601   3.775   2.869  0.2115  0.2722 -0.0169
 1296HK4     C3 8824   7.475   3.806   2.919  0.0769 -0.2124 -0.0519
 1296HK4     H3 8825   7.411   3.721   2.947  1.2495 -0.6135  1.4744
 1296HK4     C2 8826   7.421   3.932   2.897 -0.0549 -0.2534  0.0396
 1296HK4     H2 8827   7.314   3.950   2.912  0.4632  2.1223  1.1271
 1296HK4     C1 8828   7.497   4.028   2.832 -0.2313 -0.4940 -0.5194
 1296HK4     H1 8829   7.465   4.133   2.833  0.4708 -0.2818  0.2270
 1296HK4     C6 8830   7.616   3.995   2.763 -0.0932  0.3486 -0.6912
 1296HK4     C5 8831   7.663   3.865   2.779 -0.0884  0.4284 -0.0691
 1296HK4    C10 8832   7.788   3.814   2.715 -0.3103  0.0069 -0.1674
 1296HK4     O1 8833   7.808   3.822   2.594 -0.0067  1.0837 -0.0510
 1296HK4    C16 8834   7.707   4.106   2.734  0.1266  0.2516 -0.3610
 1296HK4    C15 8835   7.722   4.212   2.826  0.5603 -0.2758  0.1830
 1296HK4     H7 8836   7.694   4.194   2.930 -0.1624 -1.9929 -0.2887
 1296HK4    C20 8837   7.796   4.325   2.792  0.3811 -0.1668  0.1539
 1296HK4     H9 8838   7.809   4.408   2.862  3.1904  0.5704 -1.1429
 1296HK4    C19 8839   7.848   4.342   2.664 -0.1547  0.4397  0.0134
 1296HK4    C18 8840   7.821   4.237   2.567 -0.0586  0.2721  0.1670
 1296HK4    C17 8841   7.748   4.124   2.602 -0.0999  0.1051 -0.4511
 1296HK4     H8 8842   7.722   4.057   2.520  0.1820 -0.9342  0.2933
 1296HK4     N1 8843   7.867   4.284   2.443 -0.3420  0.1958  0.0332
 1296HK4    C21 8844   7.940   4.403   2.462  0.0052 -0.0819  0.4305
 1296HK4    C22 8845   7.933   4.441   2.602 -0.1945  0.6110  0.2324
 1296HK4    C26 8846   8.002   4.552   2.649  0.0497  0.2783  0.6515
 1296HK4    H13 8847   7.968   4.603   2.739  0.4300  0.2292  0.8271
 1296HK4    C25 8848   8.074   4.631   2.561  0.2454  0.0444  0.6002
 1296HK4    H12 8849   8.136   4.712   2.601  0.5595 -2.2166  4.9636
 1296HK4    C24 8850   8.066   4.601   2.425 -0.3167 -0.5087  0.7541
 1296HK4    H11 8851   8.112   4.671   2.353  2.6549 -1.7840  1.3358
 1296HK4    C23 8852   8.006   4.487   2.374 -0.6947  0.0254  0.0128
 1296HK4    H10 8853   8.006   4.469   2.266 -0.9888 -1.5628  0.2746
 1296HK4    C39 8854   7.875   4.209   2.324 -0.2178 -0.3101  0.3590
 1296HK4    C41 8855   7.861   4.270   2.198 -0.4070 -0.2582  0.4046
 1296HK4    H21 8856   7.826   4.373   2.186 -0.8868 -0.3256  1.2044
 1296HK4    C42 8857   7.871   4.189   2.084 -0.3947  0.0712  0.1717
 1296HK4    H22 8858   7.852   4.230   1.984  0.9261 -2.0691 -0.9843
 1296HK4    C43 8859   7.898   4.053   2.089  0.7156  0.2763 -0.3284
 1296HK4    H23 8860   7.920   3.987   2.005  1.2410 -1.2060  0.9441
 1296HK4    C44 8861   7.913   3.991   2.212  0.8677  0.2185 -0.3762
 1296HK4    H24 8862   7.943   3.885   2.212  0.2182  0.0320 -1.2859
 1296HK4    C45 8863   7.900   4.071   2.325 -0.3236 -0.3330 -0.1205
 1296HK4    H25 8864   7.906   4.027   2.425 -1.2041 -0.5212 -0.1466
 1297HK4    H28 8865   6.733   1.348   9.313 -0.1925  0.4343  0.4281
 1297HK4    C48 8866   6.681   1.264   9.360 -0.1423  0.1369 -0.0469
 1297HK4    C47 8867   6.756   1.148   9.374 -0.2710  0.0708  0.1018
 1297HK4    H27 8868   6.863   1.152   9.401 -0.8879  3.6987  2.2233
 1297HK4    C46 8869   6.698   1.022   9.386  0.1909 -0.1900 -0.3764
 1297HK4    H26 8870   6.767   0.940   9.410 -2.9508 -2.7509  0.2714
 1297HK4    C40 8871   6.558   1.006   9.382  0.1264  0.2102  0.2579
 1297HK4    C50 8872   6.490   1.129   9.370  0.3931  0.3024 -0.3099
 1297HK4    H30 8873   6.381   1.126   9.389  0.6725 -1.5481  1.1364
 1297HK4    C49 8874   6.543   1.258   9.372 -0.1742  0.5370 -0.2070
 1297HK4    H29 8875   6.488   1.352   9.377 -1.1460  0.1516 -2.9316
 1297HK4     N2 8876   6.493   0.887   9.350 -0.2871  0.3793  0.4625
 1297HK4    C30 8877   6.558   0.778   9.287 -0.4569  0.4600  0.1430
 1297HK4    C29 8878   6.663   0.775   9.196 -0.4851  0.6149  0.1074
 1297HK4    H15 8879   6.712   0.869   9.169  0.9124 -0.3340 -0.7149
 1297HK4    C28 8880   6.704   0.655   9.141 -0.2984  0.8023 -0.1633
 1297HK4    C27 8881   6.630   0.540   9.175  0.5013  0.5408  0.7046
 1297HK4    H14 8882   6.668   0.440   9.147 -0.9488 -0.1679  1.2384
 1297HK4    C32 8883   6.521   0.533   9.261 -0.2819 -0.3321 -0.3500
 1297HK4    H16 8884   6.454   0.448   9.271 -0.7107  0.1605  1.1597
 1297HK4    C31 8885   6.482   0.657   9.311  0.1618 -0.0808 -0.6230
 1297HK4    C34 8886   6.360   0.696   9.378  0.4526 -0.4612  0.1436
 1297HK4    C33 8887   6.373   0.838   9.405 -0.1541 -0.3917  0.0756
 1297HK4    C35 8888   6.282   0.896   9.493  0.1929  0.3606 -0.0530
 1297HK4    H17 8889   6.281   1.003   9.511  0.5312  0.2223  0.8076
 1297HK4    C36 8890   6.189   0.819   9.562  0.1539  0.2222 -0.2634
 1297HK4    H18 8891   6.112   0.863   9.626  0.1072  0.1312 -0.2570
 1297HK4    C37 8892   6.182   0.682   9.540 -0.1287  0.1967 -0.0170
 1297HK4    H19 8893   6.117   0.618   9.600  1.2758 -0.7086  0.5540
 1297HK4    C38 8894   6.268   0.620   9.449 -0.2059  0.1458 -0.0552
 1297HK4    H20 8895   6.282   0.513   9.457 -0.6074 -0.1080 -2.2539
 1297HK4    C14 8896   6.806   0.652   9.035  0.5579  0.0061  0.6700
 1297HK4     C9 8897   6.824   0.549   8.941 -0.4659  0.8314 -0.4480
 1297HK4     C8 8898   6.948   0.532   8.878 -0.2825 -0.1817  0.1717
 1297HK4    C11 8899   7.046   0.629   8.891 -0.1971 -0.2671  0.1606
 1297HK4     H4 8900   7.138   0.626   8.830  0.1866 -2.9223  0.7967
 1297HK4    C12 8901   7.033   0.735   8.981  0.2953  0.2375 -0.3571
 1297HK4     H5 8902   7.104   0.818   8.966  1.7597 -0.7348  1.0092
 1297HK4    C13 8903   6.915   0.740   9.053  0.4003  0.3848 -0.1912
 1297HK4     H6 8904   6.907   0.818   9.130 -0.6863 -0.0067  0.1145
 1297HK4     C7 8905   6.974   0.407   8.802  0.6544 -0.1171  0.3776
 1297HK4     O2 8906   7.081   0.390   8.744 -0.1737 -0.0589 -1.1904
 1297HK4     C4 8907   6.871   0.302   8.800  0.2117  0.3216 -0.4327
 1297HK4     C3 8908   6.909   0.174   8.761  0.5472  0.0710  0.6882
 1297HK4     H3 8909   7.014   0.143   8.752  0.5836  0.0553  1.1328
 1297HK4     C2 8910   6.811   0.080   8.728  0.0008  0.7826  0.2612
 1297HK4     H2 8911   6.846  11.230   8.691 -1.0484 -0.0311  1.3962
 1297HK4     C1 8912   6.678   0.117   8.742 -0.0692  0.6850 -0.1452
 1297HK4     H1 8913   6.603   0.059   8.688  1.8596 -0.1464 -2.0028
 1297HK4     C6 8914   6.639   0.245   8.789  0.3098  0.4254  0.8829
 1297HK4     C5 8915   6.736   0.342   8.813  0.3406  0.6519 -0.1359
 1297HK4    C10 8916   6.710   0.468   8.890 -0.3663  0.7200 -0.4907
 1297HK4     O1 8917   6.608   0.531   8.864 -0.5213  0.3896 -0.6868
 1297HK4    C16 8918   6.500   0.250   8.835  0.1492  0.5092  0.3872
 1297HK4    C15 8919   6.428   0.151   8.905  0.2461  0.7798  0.8701
 1297HK4     H7 8920   6.492   0.092   8.973 -0.1135 -0.8655 -0.2019
 1297HK4    C20 8921   6.292   0.124   8.901  0.4987 -0.3410 -0.6806
 1297HK4     H9 8922   6.244   0.067   8.980  0.8190  0.2798 -0.0289
 1297HK4    C19 8923   6.216   0.200   8.813 -0.0434  0.2665  0.3033
 1297HK4    C18 8924   6.286   0.300   8.735  0.3046 -0.7839 -0.7419
 1297HK4    C17 8925   6.422   0.326   8.748  0.1215 -0.0995 -0.1150
 1297HK4     H8 8926   6.471   0.383   8.669 -0.6163 -1.2237 -1.4122
 1297HK4     N1 8927   6.205   0.348   8.631 -0.0064  0.4417  0.0491
 1297HK4    C21 8928   6.080   0.283   8.648  0.2273 -0.0616 -0.1393
 1297HK4    C22 8929   6.083   0.187   8.757  0.0317  0.2390  0.1322
 1297HK4    C26 8930   5.971   0.116   8.798  0.0713  0.0010 -0.1752
 1297HK4    H13 8931   5.973   0.074   8.898  0.7954  0.3329 -0.0426
 1297HK4    C25 8932   5.848   0.133   8.735  0.2791 -0.0581 -0.5976
 1297HK4    H12 8933   5.760   0.077   8.766 -0.9549  2.0019 -0.2897
 1297HK4    C24 8934   5.846   0.235   8.640 -0.3050  0.2387 -0.2651
 1297HK4    H11 8935   5.756   0.253   8.580 -1.0716 -1.7062  0.2776
 1297HK4    C23 8936   5.954   0.310   8.596  0.0933 -0.0786  0.1727
 1297HK4    H10 8937   5.948   0.386   8.518 -1.9796 -1.5511 -1.1538
 1297HK4    C39 8938   6.209   0.482   8.590  0.5576  0.3339 -0.2398
 1297HK4    C41 8939   6.279   0.583   8.658  0.4154 -0.1381  0.6041
 1297HK4    H21 8940   6.283   0.580   8.768  3.8484  0.6885  0.5507
 1297HK4    C42 8941   6.315   0.696   8.586 -0.2792 -0.6387 -0.5376
 1297HK4    H22 8942   6.380   0.768   8.639  0.7784 -2.7676  1.1456
 1297HK4    C43 8943   6.284   0.714   8.452  0.0817  0.2298 -0.5057
 1297HK4    H23 8944   6.341   0.792   8.400  0.5051  1.6579  2.0222
 1297HK4    C44 8945   6.211   0.619   8.382 -0.1816 -0.1410  0.2742
 1297HK4    H24 8946   6.222   0.627   8.273 -1.6813  1.2472  0.2084
 1297HK4    C45 8947   6.177   0.505   8.454 -0.4338 -0.3190 -0.1268
 1297HK4    H25 8948   6.136   0.427   8.388 -0.6525 -0.2859 -0.0262
 1298HK4    H28 8949   8.638   7.346   2.147 -1.3874 -0.3663 -0.9412
 1298HK4    C48 8950   8.703   7.261   2.164 -0.5325  0.3409 -0.6760
 1298HK4    C47 8951   8.776   7.198   2.064 -0.2513 -0.1682 -0.1582
 1298HK4    H27 8952   8.812   7.254   1.977  0.4992 -1.5583 -0.7551
 1298HK4    C46 8953   8.855   7.088   2.095 -0.4213 -0.3194 -0.2717
 1298HK4    H26 8954   8.881   7.017   2.016 -2.1634  0.7959 -1.8888
 1298HK4    C40 8955   8.863   7.047   2.230 -0.2334 -0.1659 -0.2344
 1298HK4    C50 8956   8.795   7.117   2.332  0.1144 -0.0442 -0.0891
 1298HK4    H30 8957   8.811   7.099   2.440 -1.2223 -1.1825 -0.0616
 1298HK4    C49 8958   8.707   7.218   2.296  0.4619  0.0106 -0.8045
 1298HK4    H29 8959   8.629   7.260   2.362  1.6808 -0.3624  0.8969
 1298HK4     N2 8960   8.944   6.939   2.267  0.1188  0.2650  0.2562
 1298HK4    C30 8961   8.930   6.858   2.382  0.3303 -0.7171 -0.4123
 1298HK4    C29 8962   8.816   6.834   2.457  0.2323  0.4683 -0.1667
 1298HK4    H15 8963   8.728   6.896   2.441 -0.0743  0.1188  0.1342
 1298HK4    C28 8964   8.826   6.745   2.564 -0.3985 -0.1169 -0.5847
 1298HK4    C27 8965   8.945   6.672   2.585 -0.5830 -0.0669  0.6814
 1298HK4    H14 8966   8.960   6.594   2.661  3.1173  0.2782  0.3643
 1298HK4    C32 8967   9.055   6.682   2.501 -0.5709  0.0201  0.7097
 1298HK4    H16 8968   9.137   6.612   2.514 -1.5648 -1.4150 -0.6639
 1298HK4    C31 8969   9.049   6.777   2.399  0.1667 -0.9114 -0.2130
 1298HK4    C34 8970   9.141   6.819   2.296 -0.0604  0.0247 -0.0470
 1298HK4    C33 8971   9.074   6.921   2.218  0.1085  0.3285  0.2057
 1298HK4    C35 8972   9.152   7.009   2.143  0.2451 -0.1653 -0.2408
 1298HK4    H17 8973   9.110   7.107   2.119 -2.4831 -1.4364 -0.8216
 1298HK4    C36 8974   9.289   6.989   2.134  0.3407  0.3628  0.0237
 1298HK4    H18 8975   9.349   7.048   2.063  0.1819  0.1218 -0.3105
 1298HK4    C37 8976   9.350   6.888   2.207 -0.0614  0.1260  0.0323
 1298HK4    H19 8977   9.453   6.858   2.188  0.0546  0.4738  0.1015
 1298HK4    C38 8978   9.279   6.800   2.289 -0.0486  0.0836 -0.0042
 1298HK4    H20 8979   9.327   6.732   2.359  1.7967  2.4214  1.0782
 1298HK4    C14 8980   8.726   6.748   2.672 -0.1089  0.1641 -0.3203
 1298HK4     C9 8981   8.766   6.737   2.806  0.0475 -0.0657 -0.3836
 1298HK4     C8 8982   8.688   6.674   2.905  0.4811  0.2248  0.1413
 1298HK4    C11 8983   8.566   6.621   2.867  0.5757 -0.0079  0.1627
 1298HK4     H4 8984   8.498   6.565   2.934  0.8812 -2.6216 -1.6287
 1298HK4    C12 8985   8.515   6.640   2.739  0.4579 -0.0699  0.1991
 1298HK4     H5 8986   8.427   6.584   2.705  0.6641  0.4836 -1.2812
 1298HK4    C13 8987   8.595   6.704   2.645 -0.1893  0.2800 -0.1132
 1298HK4     H6 8988   8.561   6.720   2.541  1.3468 -1.3081 -0.8886
 1298HK4     C7 8989   8.723   6.675   3.049 -0.1902  0.2267  0.3041
 1298HK4     O2 8990   8.677   6.587   3.121 -0.7719  0.3152  0.0433
 1298HK4     C4 8991   8.845   6.749   3.088  0.3277 -0.5357  0.1430
 1298HK4     C3 8992   8.872   6.767   3.223  0.0899 -0.1416  0.1387
 1298HK4     H3 8993   8.793   6.745   3.296  1.7758 -1.3752  1.6417
 1298HK4     C2 8994   8.996   6.810   3.266  0.0544  0.2827 -0.1794
 1298HK4     H2 8995   9.021   6.807   3.374  1.7731  1.1634 -0.5329
 1298HK4     C1 8996   9.094   6.833   3.170  0.3328  0.3732  0.1207
 1298HK4     H1 8997   9.200   6.839   3.199  0.6185 -1.4795 -0.5124
 1298HK4     C6 8998   9.071   6.820   3.031 -0.4725  0.6064  0.2264
 1298HK4     C5 8999   8.940   6.789   2.991 -0.1296 -0.3103 -0.2150
 1298HK4    C10 9000   8.887   6.810   2.854 -0.5091  0.5762  0.0639
 1298HK4     O1 9001   8.906   6.919   2.801 -0.8547  0.3423 -0.5495
 1298HK4    C16 9002   9.175   6.870   2.941  0.2369 -0.3684  0.4995
 1298HK4    C15 9003   9.199   6.805   2.818 -0.1299  0.3821  0.0341
 1298HK4     H7 9004   9.187   6.696   2.814  0.3131  0.3787 -1.5505
 1298HK4    C20 9005   9.232   6.879   2.704  0.5754  0.1293  0.0702
 1298HK4     H9 9006   9.266   6.829   2.613 -0.5098 -0.2098 -0.1531
 1298HK4    C19 9007   9.249   7.016   2.718  0.7533  0.1050  0.0863
 1298HK4    C18 9008   9.263   7.075   2.850  0.2352 -0.0323  0.2033
 1298HK4    C17 9009   9.210   7.003   2.956  0.4422 -0.3690  0.0812
 1298HK4     H8 9010   9.194   7.061   3.048  0.8794 -1.4724  0.8596
 1298HK4     N1 9011   9.293   7.212   2.838  0.5057 -0.1037  0.0484
 1298HK4    C21 9012   9.259   7.244   2.705 -1.2997 -0.1173  0.4921
 1298HK4    C22 9013   9.241   7.126   2.623 -0.5449  0.0287  0.1044
 1298HK4    C26 9014   9.178   7.139   2.500 -0.4198 -0.3481 -0.0012
 1298HK4    H13 9015   9.177   7.051   2.436  3.2085 -0.6918  0.3155
 1298HK4    C25 9016   9.136   7.264   2.454  1.2050  0.1839 -0.0732
 1298HK4    H12 9017   9.085   7.284   2.360 -1.3814  0.3916  1.3125
 1298HK4    C24 9018   9.156   7.374   2.536 -0.0030  0.2939  0.0917
 1298HK4    H11 9019   9.116   7.470   2.500  2.5394  1.3884  0.0637
 1298HK4    C23 9020   9.226   7.370   2.657  0.5959  0.1169 -0.2585
 1298HK4    H10 9021   9.194   7.446   2.728 -0.4332 -3.4375  3.2366
 1298HK4    C39 9022   9.376   7.288   2.922  0.4541  0.1801 -0.1565
 1298HK4    C41 9023   9.408   7.423   2.898 -0.1525  0.3483 -0.0300
 1298HK4    H21 9024   9.415   7.456   2.793  0.6323  0.9681  0.2091
 1298HK4    C42 9025   9.468   7.505   2.992 -0.4724  0.3623  0.1648
 1298HK4    H22 9026   9.440   7.611   2.983  3.4809  1.4593 -0.2830
 1298HK4    C43 9027   9.517   7.456   3.113  0.5098  0.1186 -0.3253
 1298HK4    H23 9028   9.558   7.526   3.185  0.8171 -0.6212  0.2268
 1298HK4    C44 9029   9.489   7.322   3.140 -0.2911  0.3449 -0.0179
 1298HK4    H24 9030   9.540   7.277   3.226 -1.3081 -2.6693 -0.9173
 1298HK4    C45 9031   9.420   7.243   3.048 -0.3428  0.2099  0.1386
 1298HK4    H25 9032   9.408   7.135   3.065 -0.5155  0.0315 -1.0559
 1299HK4    H28 9033   9.732  10.425   3.139  0.4928  2.3404  0.9921
 1299HK4    C48 9034   9.808  10.431   3.061  0.0005 -0.0472  0.2824
 1299HK4    C47 9035   9.921  10.351   3.070  0.0449  0.0508  0.6051
 1299HK4    H27 9036   9.925  10.255   3.125 -0.3615 -0.1762  0.2403
 1299HK4    C46 9037  10.023  10.375   2.979 -0.3891 -0.0762  0.0827
 1299HK4    H26 9038  10.102  10.299   2.976 -0.4666 -0.3376  2.8708
 1299HK4    C40 9039  10.008  10.465   2.871 -0.0125  0.0232  0.1130
 1299HK4    C50 9040   9.889  10.540   2.868  0.4419  0.7341 -0.2069
 1299HK4    H30 9041   9.875  10.619   2.792 -0.1092  0.7799 -0.0583
 1299HK4    C49 9042   9.786  10.524   2.960  0.6494 -0.3709 -0.1598
 1299HK4    H29 9043   9.688  10.575   2.952 -0.5604 -2.9315 -2.6701
 1299HK4     N2 9044  10.121  10.522   2.812 -0.0601  0.0521  0.0507
 1299HK4    C30 9045  10.242  10.551   2.878  0.0624  0.4213 -0.3320
 1299HK4    C29 9046  10.270  10.571   3.013  0.3110 -0.2169 -0.2877
 1299HK4    H15 9047  10.187  10.590   3.080  0.4197  0.9985 -0.4880
 1299HK4    C28 9048  10.395  10.596   3.069  0.1763  0.1034 -0.1317
 1299HK4    C27 9049  10.490  10.623   2.968  0.5622 -0.1273  0.1702
 1299HK4    H14 9050  10.593  10.634   3.005  0.9067 -1.1626 -0.4473
 1299HK4    C32 9051  10.472  10.621   2.831  0.0493  0.2612  0.2307
 1299HK4    H16 9052  10.542  10.653   2.754 -0.7867 -0.6685 -0.9542
 1299HK4    C31 9053  10.348  10.580   2.783  0.2805  0.0531 -0.2031
 1299HK4    C34 9054  10.285  10.572   2.653  0.3507 -0.2153 -0.2197
 1299HK4    C33 9055  10.145  10.543   2.674  0.4899 -0.7129  0.0269
 1299HK4    C35 9056  10.061  10.546   2.563  0.1510 -0.2529  0.2917
 1299HK4    H17 9057   9.954  10.544   2.581 -0.0764  1.5096 -0.8415
 1299HK4    C36 9058  10.108  10.564   2.434  0.1135 -0.1914  0.2868
 1299HK4    H18 9059  10.059  10.517   2.347  2.3827  0.1733 -1.2495
 1299HK4    C37 9060  10.243  10.590   2.411  0.0053 -0.3706 -0.5854
 1299HK4    H19 9061  10.281  10.607   2.311 -2.4594 -0.0216 -1.4928
 1299HK4    C38 9062  10.327  10.595   2.522 -0.3165  0.1833 -0.3621
 1299HK4    H20 9063  10.434  10.600   2.506  0.0012  1.3660  1.8927
 1299HK4    C14 9064  10.413  10.616   3.213  0.0031  0.0971 -0.1088
 1299HK4     C9 9065  10.508  10.693   3.281  0.4236 -0.0811 -0.4957
 1299HK4     C8 9066  10.564  10.646   3.402  0.0530 -0.2103 -0.3741
 1299HK4    C11 9067  10.518  10.528   3.458  0.3117 -0.0833  0.1096
 1299HK4     H4 9068  10.553  10.486   3.554 -0.7077  0.0907  0.5687
 1299HK4    C12 9069  10.411  10.461   3.400  0.4661 -0.2959  0.0614
 1299HK4     H5 9070  10.369  10.371   3.447 -0.2993 -0.1377 -0.3002
 1299HK4    C13 9071  10.356  10.506   3.280  0.1474  0.3598  0.4504
 1299HK4     H6 9072  10.272  10.446   3.242 -0.5951  1.0740  0.9367
 1299HK4     C7 9073  10.674  10.721   3.467 -0.0677 -0.2576 -0.1108
 1299HK4     O2 9074  10.698  10.703   3.587 -0.4720 -0.3113 -0.0379
 1299HK4     C4 9075  10.725  10.843   3.401  0.2326 -0.3695 -0.0874
 1299HK4     C3 9076  10.826  10.924   3.452 -0.6994  0.7359  0.0086
 1299HK4     H3 9077  10.858  10.911   3.556 -3.1373  3.2082  1.1270
 1299HK4     C2 9078  10.887  11.027   3.382  0.2784  0.2344  0.1220
 1299HK4     H2 9079  10.964  11.091   3.429  0.4475 -0.1631  0.3823
 1299HK4     C1 9080  10.857  11.039   3.247 -0.7290  0.2782  0.3500
 1299HK4     H1 9081  10.878  11.135   3.197 -1.2450  0.5483  0.6460
 1299HK4     C6 9082  10.772  10.948   3.180 -0.3495  0.4198 -0.3266
 1299HK4     C5 9083  10.696  10.869   3.266  0.1887  0.3049  0.0491
 1299HK4    C10 9084  10.567  10.813   3.216  0.3431  0.1367 -0.1674
 1299HK4     O1 9085  10.490  10.896   3.168  0.1048 -0.0778 -0.1556
 1299HK4    C16 9086  10.802  10.921   3.038  0.6087  0.6051 -0.1658
 1299HK4    C15 9087  10.934  10.934   2.990  0.7612 -0.1802  0.0276
 1299HK4     H7 9088  11.008  10.937   3.071  1.3429 -0.8641 -0.4800
 1299HK4    C20 9089  10.968  10.934   2.855 -0.0303 -0.3883 -0.1758
 1299HK4     H9 9090  11.066  10.889   2.835  0.5437  0.5135  0.5650
 1299HK4    C19 9091  10.868  10.930   2.758  0.0763 -0.5573 -0.2789
 1299HK4    C18 9092  10.731  10.934   2.805  0.1952 -0.7399  0.0906
 1299HK4    C17 9093  10.703  10.924   2.941  0.2656 -0.1470  0.1505
 1299HK4     H8 9094  10.599  10.900   2.962 -0.0972 -1.4774 -2.9285
 1299HK4     N1 9095  10.636  10.907   2.705 -0.0560  0.1374  0.0843
 1299HK4    C21 9096  10.710  10.865   2.592 -0.3467  0.0053 -0.0572
 1299HK4    C22 9097  10.851  10.880   2.623 -0.2684  0.3481 -0.5698
 1299HK4    C26 9098  10.942  10.834   2.529 -0.3594  0.0955 -0.5362
 1299HK4    H13 9099  11.049  10.839   2.553  0.3313 -1.5956 -3.1528
 1299HK4    C25 9100  10.903  10.785   2.406 -0.7005  0.1801 -0.4607
 1299HK4    H12 9101  10.981  10.753   2.337  0.6530  1.7251  0.3363
 1299HK4    C24 9102  10.767  10.772   2.378 -0.6962 -0.8149 -0.0506
 1299HK4    H11 9103  10.735  10.701   2.301 -0.1509 -1.2319  0.0995
 1299HK4    C23 9104  10.671  10.810   2.471 -0.3739  0.2644 -0.1649
 1299HK4    H10 9105  10.564  10.787   2.463 -0.4197  0.0346  1.0371
 1299HK4    C39 9106  10.519  10.982   2.693 -0.0849  0.0367 -0.2704
 1299HK4    C41 9107  10.406  10.927   2.629 -0.0220 -0.3744 -0.0312
 1299HK4    H21 9108  10.390  10.819   2.640 -0.2061 -0.5248 -1.5873
 1299HK4    C42 9109  10.301  11.008   2.586 -0.1056 -0.5572 -0.1709
 1299HK4    H22 9110  10.212  10.960   2.543 -0.6062  2.2044 -2.4174
 1299HK4    C43 9111  10.308  11.147   2.599 -0.3081 -0.5241 -0.3997
 1299HK4    H23 9112  10.225  11.212   2.572  1.2265  1.0543 -1.4485
 1299HK4    C44 9113  10.418  11.200   2.665 -0.4039 -0.0830 -0.5949
 1299HK4    H24 9114  10.421   0.057   2.698  3.0450 -1.1847  3.0056
 1299HK4    C45 9115  10.524  11.122   2.710 -0.4153  0.0567 -0.3226
 1299HK4    H25 9116  10.613  11.173   2.750 -0.8004  2.0982 -1.9324
 1300HK4    H28 9117  10.619   4.876   8.675 -0.7383 -0.2182 -0.7676
 1300HK4    C48 9118  10.677   4.792   8.637 -0.3055 -0.2863  0.0192
 1300HK4    C47 9119  10.617   4.695   8.557 -0.1774 -0.4838  0.1612
 1300HK4    H27 9120  10.511   4.703   8.526  0.0674 -0.3635 -0.6465
 1300HK4    C46 9121  10.699   4.597   8.503  0.1155 -0.0201 -0.2257
 1300HK4    H26 9122  10.650   4.515   8.450  1.0595 -1.5197  1.1720
 1300HK4    C40 9123  10.840   4.597   8.511  0.0650  0.1849  0.7428
 1300HK4    C50 9124  10.896   4.693   8.598  0.4612  0.1665  0.5106
 1300HK4    H30 9125  11.002   4.705   8.625  1.0064  1.0615 -1.8515
 1300HK4    C49 9126  10.815   4.790   8.656 -0.3206 -0.2534  0.1279
 1300HK4    H29 9127  10.859   4.865   8.723 -0.6043 -2.8332  3.2816
 1300HK4     N2 9128  10.919   4.487   8.473 -0.5097  0.3413 -0.9467
 1300HK4    C30 9129  10.883   4.351   8.471  0.2365  0.1149  0.4418
 1300HK4    C29 9130  10.775   4.283   8.526 -0.0562  0.0788 -0.1702
 1300HK4    H15 9131  10.705   4.348   8.578  0.3689  1.6119 -1.4577
 1300HK4    C28 9132  10.764   4.145   8.507  0.0284  0.0604 -0.0885
 1300HK4    C27 9133  10.860   4.086   8.423 -0.3221  0.1850 -0.5714
 1300HK4    H14 9134  10.847   3.982   8.389 -2.0563 -0.0036  0.6360
 1300HK4    C32 9135  10.972   4.146   8.367  0.0543 -0.0374 -0.0600
 1300HK4    H16 9136  11.034   4.094   8.294 -0.7409 -1.4672  0.2792
 1300HK4    C31 9137  10.987   4.281   8.398  0.0816 -0.1689  0.4956
 1300HK4    C34 9138  11.086   4.380   8.360 -0.0743  0.0638  0.6833
 1300HK4    C33 9139  11.041   4.509   8.406  0.0280  0.3364  0.0176
 1300HK4    C35 9140  11.121   4.621   8.385 -0.1352  0.4870  0.2080
 1300HK4    H17 9141  11.111   4.712   8.445 -1.3882  0.3379  0.2487
 1300HK4    C36 9142  11.239   4.611   8.313 -0.1903  0.4366  0.1227
 1300HK4    H18 9143   0.059   4.696   8.301  0.2173  0.1090  0.1233
 1300HK4    C37 9144   0.024   4.485   8.264 -0.2952  0.6295 -0.4497
 1300HK4    H19 9145   0.096   4.484   8.183 -0.4631  0.0010 -0.5999
 1300HK4    C38 9146  11.201   4.366   8.283 -0.1425  0.6803  0.4713
 1300HK4    H20 9147  11.211   4.273   8.228  1.1352  0.9008  0.3066
 1300HK4    C14 9148  10.690   4.052   8.593  0.3162  0.2133  0.3290
 1300HK4     C9 9149  10.747   3.935   8.645  0.2176 -0.0093 -0.0506
 1300HK4     C8 9150  10.667   3.820   8.660 -0.1335  0.2273 -0.1173
 1300HK4    C11 9151  10.532   3.824   8.626 -0.2485 -0.0401  0.3013
 1300HK4     H4 9152  10.469   3.735   8.637  1.9988 -2.0868 -2.6119
 1300HK4    C12 9153  10.475   3.941   8.576  0.4640  0.1999  0.0325
 1300HK4     H5 9154  10.383   3.930   8.516  1.0003 -0.6047 -0.6674
 1300HK4    C13 9155  10.552   4.056   8.565  0.4591  0.1599 -0.4064
 1300HK4     H6 9156  10.503   4.154   8.557  3.3406  1.6132 -0.7801
 1300HK4     C7 9157  10.728   3.695   8.710 -0.3070  0.3282  0.3514
 1300HK4     O2 9158  10.664   3.593   8.686  0.6517 -0.2171  0.0948
 1300HK4     C4 9159  10.871   3.688   8.750 -0.3138  0.0946  0.3489
 1300HK4     C3 9160  10.932   3.566   8.775  0.1074  0.1302 -0.4970
 1300HK4     H3 9161  10.899   3.477   8.720  0.3989  0.1263 -0.6570
 1300HK4     C2 9162  11.049   3.561   8.849 -0.3158  0.0098  0.1826
 1300HK4     H2 9163  11.100   3.467   8.875 -2.0177 -0.4780  1.8130
 1300HK4     C1 9164  11.097   3.682   8.898 -0.4782 -0.1475  0.7289
 1300HK4     H1 9165  11.179   3.679   8.971 -0.1574  3.6433  0.6324
 1300HK4     C6 9166  11.030   3.805   8.882 -0.1940 -0.0389  0.3554
 1300HK4     C5 9167  10.925   3.813   8.789  0.5471 -0.0254 -0.4834
 1300HK4    C10 9168  10.877   3.935   8.718  0.2788  0.0547 -0.1616
 1300HK4     O1 9169  10.947   4.036   8.712  0.4193 -0.0311  0.0041
 1300HK4    C16 9170  11.076   3.907   8.977 -0.0452 -0.0882  0.3358
 1300HK4    C15 9171  11.194   3.897   9.053 -0.2906 -1.0188  0.5959
 1300HK4     H7 9172   0.039   3.870   9.002 -1.3725  1.0972 -2.5948
 1300HK4    C20 9173  11.212   3.970   9.170 -0.0404 -0.7415  0.3842
 1300HK4     H9 9174   0.060   3.963   9.222  0.8465 -0.2844 -1.1480
 1300HK4    C19 9175  11.109   4.049   9.220  0.2745 -0.0505 -0.0515
 1300HK4    C18 9176  10.988   4.065   9.142  0.2030  0.3030  0.1342
 1300HK4    C17 9177  10.975   3.990   9.025  0.2119  0.3754  0.0847
 1300HK4     H8 9178  10.883   4.003   8.969  1.0414 -0.7782 -1.6037
 1300HK4     N1 9179  10.901   4.153   9.208 -0.0852  0.2916 -0.2259
 1300HK4    C21 9180  10.955   4.172   9.337  0.1493 -0.3534 -0.2215
 1300HK4    C22 9181  11.085   4.109   9.350  0.4423  0.2532 -0.1591
 1300HK4    C26 9182  11.151   4.123   9.471 -0.0032  0.1614  0.0936
 1300HK4    H13 9183   0.004   4.084   9.482 -0.9603 -1.8845  2.3324
 1300HK4    C25 9184  11.095   4.195   9.576  0.4000  0.0343  0.3992
 1300HK4    H12 9185  11.159   4.220   9.660  2.8155 -1.9232 -0.8047
 1300HK4    C24 9186  10.962   4.237   9.573  0.2689 -0.3889  0.1284
 1300HK4    H11 9187  10.913   4.284   9.659  0.5555  0.6371 -0.2591
 1300HK4    C23 9188  10.894   4.215   9.454  0.5406 -0.2621 -0.0522
 1300HK4    H10 9189  10.786   4.212   9.472  0.1900  1.1365 -1.7971
 1300HK4    C39 9190  10.821   4.246   9.141 -0.1875  0.5570  0.2644
 1300HK4    C41 9191  10.703   4.301   9.196 -0.3310  0.1223  0.3905
 1300HK4    H21 9192  10.662   4.273   9.295  2.5699 -2.1290  1.0312
 1300HK4    C42 9193  10.627   4.395   9.128 -0.3080 -0.0978  0.0656
 1300HK4    H22 9194  10.560   4.457   9.188 -0.4661  1.1499 -1.3594
 1300HK4    C43 9195  10.675   4.430   9.002 -0.3322 -0.7915 -0.1401
 1300HK4    H23 9196  10.609   4.492   8.941  0.3196 -1.2518 -1.3280
 1300HK4    C44 9197  10.791   4.384   8.942 -0.3466 -0.2135 -0.6102
 1300HK4    H24 9198  10.837   4.441   8.859 -0.9059 -0.9724 -1.4537
 1300HK4    C45 9199  10.860   4.285   9.012 -0.3497  0.3140  0.1390
 1300HK4    H25 9200  10.942   4.234   8.959 -1.0725  1.4935 -2.1897
 1301HK4    H28 9201   1.150   3.497   1.359 -1.0845  1.5526 -2.5560
 1301HK4    C48 9202   1.183   3.410   1.301 -0.4984 -0.2628  0.3492
 1301HK4    C47 9203   1.270   3.311   1.344 -0.5120 -0.2185  0.4787
 1301HK4    H27 9204   1.320   3.331   1.440 -0.7693  0.8048  0.4119
 1301HK4    C46 9205   1.306   3.208   1.258  0.2019  0.2284  0.2326
 1301HK4    H26 9206   1.375   3.130   1.293  1.3692  0.4312 -1.6000
 1301HK4    C40 9207   1.254   3.198   1.127  0.3059 -0.6182  0.2523
 1301HK4    C50 9208   1.172   3.304   1.084  0.6217 -0.4739  0.0065
 1301HK4    H30 9209   1.117   3.290   0.990 -0.5569  2.1309  0.2578
 1301HK4    C49 9210   1.135   3.407   1.170  0.6678 -0.3810 -0.0839
 1301HK4    H29 9211   1.056   3.475   1.137 -0.4733 -1.8757 -0.5030
 1301HK4     N2 9212   1.244   3.073   1.066 -0.0737 -0.3078 -0.3242
 1301HK4    C30 9213   1.229   2.951   1.135 -0.2905 -0.0220  0.1359
 1301HK4    C29 9214   1.174   2.924   1.260  0.3205  0.2348  0.4627
 1301HK4    H15 9215   1.124   3.010   1.305  0.5819  1.5698 -1.7154
 1301HK4    C28 9216   1.138   2.796   1.301  0.2025  0.1631  0.1415
 1301HK4    C27 9217   1.148   2.695   1.204  0.0628  0.6300 -0.3654
 1301HK4    H14 9218   1.116   2.592   1.227  2.8849 -0.0226  0.9561
 1301HK4    C32 9219   1.205   2.711   1.078 -0.2404  0.1125 -0.5727
 1301HK4    H16 9220   1.205   2.630   1.005  3.6997  0.3443 -0.9162
 1301HK4    C31 9221   1.244   2.840   1.043 -0.4312  0.2661 -0.2333
 1301HK4    C34 9222   1.272   2.899   0.913  0.1349  0.0496 -0.2105
 1301HK4    C33 9223   1.250   3.042   0.928  0.5581  0.1360 -0.3993
 1301HK4    C35 9224   1.226   3.117   0.814  0.3213  0.9499  0.1840
 1301HK4    H17 9225   1.229   3.226   0.822 -1.8431  1.0769 -0.3861
 1301HK4    C36 9226   1.227   3.056   0.690 -0.0856  0.5472  0.3795
 1301HK4    H18 9227   1.232   3.117   0.599  1.5728 -2.9499 -2.0373
 1301HK4    C37 9228   1.257   2.920   0.681  0.3689  0.6714 -0.0388
 1301HK4    H19 9229   1.268   2.883   0.579  1.7569 -1.7597  0.9697
 1301HK4    C38 9230   1.285   2.838   0.789  0.0054  0.2023 -0.2994
 1301HK4    H20 9231   1.294   2.729   0.789  3.6555  0.4442 -1.4529
 1301HK4    C14 9232   1.111   2.774   1.444  0.4651  0.3948  0.2291
 1301HK4     C9 9233   1.124   2.653   1.513  0.0131  0.1553 -0.0999
 1301HK4     C8 9234   1.033   2.625   1.617  0.0684  0.1269 -0.0580
 1301HK4    C11 9235   0.940   2.719   1.658  0.1200 -0.0060  0.3682
 1301HK4     H4 9236   0.868   2.700   1.739  1.3208  1.0151  1.6887
 1301HK4    C12 9237   0.935   2.848   1.605 -0.0881 -0.1851 -0.0549
 1301HK4     H5 9238   0.865   2.921   1.648  1.0722  2.7263 -2.9417
 1301HK4    C13 9239   1.018   2.867   1.495  0.2508  0.1643  0.2609
 1301HK4     H6 9240   1.012   2.965   1.445  3.5842 -0.7047 -2.0501
 1301HK4     C7 9241   1.039   2.504   1.702  0.0085 -0.0526 -0.3099
 1301HK4     O2 9242   0.939   2.462   1.760  0.0288  0.2234 -0.0783
 1301HK4     C4 9243   1.147   2.407   1.675 -0.1249 -0.2381 -0.1817
 1301HK4     C3 9244   1.166   2.298   1.759 -0.0555  0.1508  0.3154
 1301HK4     H3 9245   1.100   2.291   1.847  0.7395 -2.0132  0.7831
 1301HK4     C2 9246   1.266   2.205   1.732  0.2704  0.4791  0.4073
 1301HK4     H2 9247   1.290   2.124   1.802 -2.6159 -0.2595  0.6032
 1301HK4     C1 9248   1.338   2.214   1.614 -0.0300 -0.1495  0.1813
 1301HK4     H1 9249   1.428   2.151   1.610  1.0089  1.3160  0.2271
 1301HK4     C6 9250   1.313   2.316   1.520  0.7967  0.2606  0.4059
 1301HK4     C5 9251   1.228   2.420   1.560 -0.1664 -0.2827 -0.2157
 1301HK4    C10 9252   1.233   2.552   1.492  0.1939  0.1803  0.7082
 1301HK4     O1 9253   1.333   2.592   1.433  0.0454 -0.2998  0.1379
 1301HK4    C16 9254   1.356   2.277   1.385 -0.1394  0.6628 -0.0147
 1301HK4    C15 9255   1.480   2.211   1.374 -0.3091  0.3709 -0.1804
 1301HK4     H7 9256   1.563   2.257   1.430 -0.4911 -0.3171  0.6692
 1301HK4    C20 9257   1.508   2.111   1.281 -0.0234 -0.4394  0.7715
 1301HK4     H9 9258   1.599   2.051   1.281  0.5375  0.3773  2.1031
 1301HK4    C19 9259   1.410   2.084   1.186  0.0572  0.0993  0.5346
 1301HK4    C18 9260   1.285   2.157   1.189  0.2125  0.3763  0.2183
 1301HK4    C17 9261   1.257   2.244   1.293 -0.2386  0.1863  0.2567
 1301HK4     H8 9262   1.155   2.283   1.300 -0.5673 -1.1150  3.3236
 1301HK4     N1 9263   1.206   2.116   1.079  0.0216 -0.1758  0.5630
 1301HK4    C21 9264   1.283   2.022   1.007  0.2656  0.5744 -0.1659
 1301HK4    C22 9265   1.410   1.994   1.072  0.4547  1.1435 -0.2919
 1301HK4    C26 9266   1.514   1.920   1.017 -0.2458 -0.2265  0.2065
 1301HK4    H13 9267   1.588   1.876   1.084  0.2728 -0.9408 -0.8353
 1301HK4    C25 9268   1.500   1.887   0.883  0.3523  0.9584 -0.1570
 1301HK4    H12 9269   1.586   1.844   0.832 -0.8245  1.4071 -2.5597
 1301HK4    C24 9270   1.380   1.908   0.816  0.0468  0.0020  0.0838
 1301HK4    H11 9271   1.386   1.892   0.708 -2.1936  1.8940 -0.3665
 1301HK4    C23 9272   1.277   1.981   0.875 -0.0679 -0.1524  0.0737
 1301HK4    H10 9273   1.183   1.996   0.822  1.6129  1.1618 -2.6241
 1301HK4    C39 9274   1.105   2.201   1.033  0.2670 -0.0243  0.3040
 1301HK4    C41 9275   0.996   2.146   0.962  0.4997 -0.2683  0.1379
 1301HK4    H21 9276   0.997   2.036   0.951 -3.2438 -0.3284 -0.2218
 1301HK4    C42 9277   0.915   2.218   0.876 -0.3867 -0.2115  1.0116
 1301HK4    H22 9278   0.860   2.167   0.795 -1.2647  0.7646  0.9884
 1301HK4    C43 9279   0.936   2.355   0.870 -0.2845 -0.2807 -0.3438
 1301HK4    H23 9280   0.877   2.417   0.803 -2.0237 -1.2067  0.3045
 1301HK4    C44 9281   1.038   2.417   0.941 -0.2559 -0.4664 -0.2233
 1301HK4    H24 9282   1.054   2.526   0.937  1.5618 -0.7706 -1.4217
 1301HK4    C45 9283   1.119   2.341   1.024  0.1080 -0.0401 -0.1880
 1301HK4    H25 9284   1.195   2.389   1.088 -0.4103  0.2339  0.2164
 1302HK4    H28 9285   3.023  10.933   6.726  0.3903 -1.3476  0.1800
 1302HK4    C48 9286   3.110  10.985   6.688 -0.4132 -0.1550 -0.0757
 1302HK4    C47 9287   3.099  11.041   6.561 -0.0543 -0.4267 -0.2313
 1302HK4    H27 9288   3.001  11.053   6.514  0.0940  1.6564 -0.0910
 1302HK4    C46 9289   3.213  11.092   6.498 -0.0954  0.7278  0.6002
 1302HK4    H26 9290   3.188  11.157   6.413 -2.5766 -0.7031  0.1577
 1302HK4    C40 9291   3.341  11.084   6.556 -0.0318  0.0084  0.3724
 1302HK4    C50 9292   3.344  11.030   6.686  0.1706  0.4753  0.5641
 1302HK4    H30 9293   3.441  11.022   6.738  0.6359 -0.3276 -0.4155
 1302HK4    C49 9294   3.232  10.984   6.754 -0.2032 -0.1612 -0.4602
 1302HK4    H29 9295   3.242  10.942   6.856 -1.8825 -1.0243 -0.6476
 1302HK4     N2 9296   3.459  11.120   6.490  0.0347 -0.3599  0.2905
 1302HK4    C30 9297   3.482  11.100   6.352 -0.2208  0.5360  0.1125
 1302HK4    C29 9298   3.398  11.082   6.243  0.0962 -0.1361 -0.0246
 1302HK4    H15 9299   3.300  11.036   6.258  1.0895 -2.2421  0.1959
 1302HK4    C28 9300   3.434  11.099   6.110 -0.2988 -0.2288 -0.1445
 1302HK4    C27 9301   3.572  11.123   6.088 -0.3852  0.1633 -0.2591
 1302HK4    H14 9302   3.598  11.148   5.984  0.5791 -0.0827 -0.0742
 1302HK4    C32 9303   3.665  11.131   6.191 -0.5133 -0.0961 -0.1241
 1302HK4    H16 9304   3.771  11.149   6.171 -1.0255  0.2645 -2.7432
 1302HK4    C31 9305   3.619  11.136   6.322 -0.1145  0.0494  0.0112
 1302HK4    C34 9306   3.685  11.173   6.446  0.0345  0.2236 -0.1192
 1302HK4    C33 9307   3.580  11.168   6.546 -0.0362  0.3835 -0.1847
 1302HK4    C35 9308   3.604  11.229   6.668 -0.1292 -0.3911  0.2303
 1302HK4    H17 9309   3.538  11.220   6.754  0.6028  3.3063  1.2917
 1302HK4    C36 9310   3.726   0.046   6.684 -0.5967  0.5401  0.0765
 1302HK4    H18 9311   3.750   0.099   6.778  3.1373 -2.3333  0.8892
 1302HK4    C37 9312   3.824   0.059   6.586 -0.0593 -0.6301  0.4571
 1302HK4    H19 9313   3.911   0.121   6.607 -0.2949 -0.1615  0.0556
 1302HK4    C38 9314   3.805  11.241   6.465 -0.1447  0.5631 -0.1870
 1302HK4    H20 9315   3.884  11.226   6.393  1.1195 -1.1896  1.5090
 1302HK4    C14 9316   3.338  11.087   6.000 -0.2729 -0.5649 -0.1325
 1302HK4     C9 9317   3.380  11.070   5.867  0.4660  0.0955  0.0133
 1302HK4     C8 9318   3.300  11.120   5.763  0.0293 -0.7294 -0.0478
 1302HK4    C11 9319   3.170  11.163   5.788  0.2916  0.0821 -0.0678
 1302HK4     H4 9320   3.104  11.197   5.708  1.6790  1.2375 -0.7485
 1302HK4    C12 9321   3.121  11.164   5.918  0.2432  0.1759 -0.0861
 1302HK4     H5 9322   3.012  11.178   5.921  0.0343 -1.4843  1.3097
 1302HK4    C13 9323   3.206  11.132   6.023 -0.0758 -0.0967  0.0923
 1302HK4     H6 9324   3.165  11.149   6.123 -0.5079 -1.4932  0.1674
 1302HK4     C7 9325   3.337  11.104   5.620 -0.1784  0.2546 -0.2183
 1302HK4     O2 9326   3.287  11.180   5.538 -0.0565  0.0260 -0.5053
 1302HK4     C4 9327   3.449  11.014   5.584 -0.2373  0.1399 -0.1213
 1302HK4     C3 9328   3.478  10.990   5.450  0.2512  0.2195 -0.0323
 1302HK4     H3 9329   3.425  11.042   5.369 -3.8086 -0.0584  2.2629
 1302HK4     C2 9330   3.573  10.896   5.413 -0.2224 -0.3564  0.1930
 1302HK4     H2 9331   3.593  10.860   5.311 -0.5889  0.8304 -0.3073
 1302HK4     C1 9332   3.652  10.841   5.513  0.2747  0.6243  0.3467
 1302HK4     H1 9333   3.732  10.769   5.488 -1.3748  0.1579 -3.9289
 1302HK4     C6 9334   3.633  10.873   5.649  0.1395  0.4236  0.3755
 1302HK4     C5 9335   3.524  10.952   5.686 -0.5507 -0.2841 -0.1519
 1302HK4    C10 9336   3.490  10.976   5.829  0.4476  0.0683  0.0286
 1302HK4     O1 9337   3.507  10.882   5.906  0.2250 -0.0651 -0.0858
 1302HK4    C16 9338   3.755  10.867   5.732  0.2006 -0.0478  0.2515
 1302HK4    C15 9339   3.875  10.917   5.678 -0.0391 -0.1049 -0.3369
 1302HK4     H7 9340   3.879  11.022   5.643 -1.3023  0.1874  0.3863
 1302HK4    C20 9341   3.996  10.851   5.690 -0.0617  0.0535  0.7412
 1302HK4     H9 9342   4.082  10.877   5.629  0.9041 -0.9157  1.6644
 1302HK4    C19 9343   4.004  10.737   5.769  0.6527 -0.0170  0.5693
 1302HK4    C18 9344   3.884  10.693   5.837  0.0079 -0.2794 -0.7256
 1302HK4    C17 9345   3.761  10.751   5.808 -0.0951  0.2103  0.6747
 1302HK4     H8 9346   3.665  10.718   5.849 -1.2486  2.5300 -0.0431
 1302HK4     N1 9347   3.898  10.577   5.915 -0.3968  0.0854 -0.1048
 1302HK4    C21 9348   4.034  10.543   5.895 -0.6048 -0.6706 -0.2715
 1302HK4    C22 9349   4.101  10.634   5.803  0.0769 -0.6772  0.2179
 1302HK4    C26 9350   4.232  10.616   5.760  0.3064  0.6987  0.3164
 1302HK4    H13 9351   4.279  10.687   5.693 -0.2953  0.6792 -0.1282
 1302HK4    C25 9352   4.297  10.505   5.814 -0.5029  0.0238 -0.0857
 1302HK4    H12 9353   4.384  10.474   5.757 -0.9780  0.2924 -0.9767
 1302HK4    C24 9354   4.244  10.421   5.911 -0.0818 -0.4857 -0.2932
 1302HK4    H11 9355   4.295  10.332   5.952 -0.0016 -0.6449 -0.7318
 1302HK4    C23 9356   4.110  10.439   5.945  0.2951  0.4475  0.7256
 1302HK4    H10 9357   4.069  10.388   6.032  0.4957  1.1119  1.2090
 1302HK4    C39 9358   3.816  10.539   6.022  0.5443 -0.0353  0.5815
 1302HK4    C41 9359   3.827  10.411   6.080  0.5706  0.0871  0.8470
 1302HK4    H21 9360   3.870  10.331   6.018 -0.4604  1.8138 -2.1968
 1302HK4    C42 9361   3.777  10.376   6.205 -0.2688 -1.1651  0.1694
 1302HK4    H22 9362   3.825  10.297   6.264 -0.9409 -0.7635  1.2760
 1302HK4    C43 9363   3.690  10.464   6.268  0.6335  0.1486 -0.3991
 1302HK4    H23 9364   3.645  10.448   6.366  0.5609  2.4528 -0.0313
 1302HK4    C44 9365   3.663  10.586   6.207 -0.2168  0.2307  0.1340
 1302HK4    H24 9366   3.607  10.666   6.259  1.2464  1.8166 -0.6547
 1302HK4    C45 9367   3.731  10.627   6.093  0.4618 -0.0091  0.4483
 1302HK4    H25 9368   3.709  10.727   6.053 -0.2263  0.6492  2.4103
 1303HK4    H28 9369   6.473   5.640   6.682 -0.7684 -0.7046  2.3478
 1303HK4    C48 9370   6.450   5.744   6.706  0.4193  0.0681  0.3094
 1303HK4    C47 9371   6.523   5.848   6.649  0.1334 -0.0508 -0.2742
 1303HK4    H27 9372   6.601   5.821   6.576 -1.3651 -1.2185 -1.4977
 1303HK4    C46 9373   6.497   5.980   6.682 -0.7264 -0.0633 -0.8730
 1303HK4    H26 9374   6.560   6.056   6.631  0.2461 -0.5914 -0.4731
 1303HK4    C40 9375   6.397   6.019   6.772  0.0423  0.3191 -0.1722
 1303HK4    C50 9376   6.324   5.913   6.830  0.4441 -0.1285 -0.4896
 1303HK4    H30 9377   6.255   5.936   6.913 -0.3144 -0.4072 -1.0402
 1303HK4    C49 9378   6.349   5.781   6.794 -0.1490 -0.3291 -0.1706
 1303HK4    H29 9379   6.274   5.706   6.821  0.7107  0.0165  3.3879
 1303HK4     N2 9380   6.379   6.147   6.826  0.0877  0.2912 -0.0932
 1303HK4    C30 9381   6.482   6.240   6.852  0.2504  0.0292  0.2146
 1303HK4    C29 9382   6.600   6.200   6.913  0.0260 -0.2069  0.4954
 1303HK4    H15 9383   6.637   6.098   6.902 -0.0518 -0.2447  0.6031
 1303HK4    C28 9384   6.677   6.292   6.982 -0.2415 -0.0167  0.5412
 1303HK4    C27 9385   6.627   6.424   6.981 -0.2508 -0.0267  0.0796
 1303HK4    H14 9386   6.696   6.495   7.030  0.8814 -1.7208  0.9916
 1303HK4    C32 9387   6.507   6.468   6.926  0.1877  0.6757 -0.3254
 1303HK4    H16 9388   6.480   6.573   6.935  0.9144  0.9506 -1.2919
 1303HK4    C31 9389   6.427   6.374   6.862  0.2320 -0.0071  0.6015
 1303HK4    C34 9390   6.285   6.362   6.838  0.2764 -0.3107  0.4849
 1303HK4    C33 9391   6.259   6.220   6.831 -0.2023 -0.2194  0.4167
 1303HK4    C35 9392   6.130   6.183   6.793 -0.2021  0.1524  0.0571
 1303HK4    H17 9393   6.110   6.082   6.759  4.8600 -1.4598  1.3571
 1303HK4    C36 9394   6.034   6.278   6.760 -0.1019  0.2382  0.0079
 1303HK4    H18 9395   5.931   6.256   6.728  0.1539 -0.0829 -0.5929
 1303HK4    C37 9396   6.063   6.414   6.765 -0.1074  0.2283  0.3314
 1303HK4    H19 9397   5.988   6.491   6.744  0.2060  0.1634 -1.0762
 1303HK4    C38 9398   6.189   6.457   6.804  0.3411 -0.5107 -0.2713
 1303HK4    H20 9399   6.202   6.557   6.847  1.6624 -0.7014 -0.2069
 1303HK4    C14 9400   6.793   6.241   7.057 -0.1300 -0.1295  0.2905
 1303HK4     C9 9401   6.849   6.310   7.165 -0.0690  0.1709  0.0659
 1303HK4     C8 9402   6.983   6.293   7.205  0.0417  0.3524 -0.2165
 1303HK4    C11 9403   7.051   6.183   7.154 -0.0268 -0.1322  0.7376
 1303HK4     H4 9404   7.157   6.167   7.179  0.3686 -0.3038 -0.9569
 1303HK4    C12 9405   6.993   6.101   7.058 -0.3291 -0.2465  1.0147
 1303HK4     H5 9406   7.022   5.996   7.044 -1.0557 -0.5176  1.5055
 1303HK4    C13 9407   6.871   6.137   7.001  0.5242  0.6625 -0.2815
 1303HK4     H6 9408   6.829   6.067   6.928  1.3372  1.7684 -1.8312
 1303HK4     C7 9409   7.039   6.388   7.303  0.2753  0.1789 -0.1788
 1303HK4     O2 9410   7.156   6.381   7.339  0.1355 -0.2162  0.2058
 1303HK4     C4 9411   6.952   6.489   7.368 -0.0838  0.0674 -0.4780
 1303HK4     C3 9412   7.000   6.595   7.444  0.0036 -0.3829  0.1028
 1303HK4     H3 9413   7.108   6.602   7.467 -0.0613  0.7947  0.1000
 1303HK4     C2 9414   6.923   6.704   7.483  0.0525 -0.1786 -0.3772
 1303HK4     H2 9415   6.965   6.795   7.529  0.6734  0.6595 -2.5246
 1303HK4     C1 9416   6.790   6.705   7.444 -0.1322  0.4169  0.2485
 1303HK4     H1 9417   6.727   6.774   7.502 -0.3809 -1.4418  2.2174
 1303HK4     C6 9418   6.732   6.598   7.372  0.0772  0.1930  0.4155
 1303HK4     C5 9419   6.814   6.489   7.341  0.0816  0.6871 -1.3531
 1303HK4    C10 9420   6.756   6.379   7.258 -0.2370 -0.4738  0.3730
 1303HK4     O1 9421   6.669   6.307   7.307 -0.3465 -0.1920  0.6003
 1303HK4    C16 9422   6.620   6.639   7.286  0.0722  0.0168  0.3376
 1303HK4    C15 9423   6.628   6.748   7.197  0.2222 -0.0459  0.2707
 1303HK4     H7 9424   6.721   6.802   7.176 -0.2243  1.7890  2.7950
 1303HK4    C20 9425   6.511   6.798   7.139  0.0498 -0.2950  0.4063
 1303HK4     H9 9426   6.513   6.883   7.071  0.6682  0.1183  0.9340
 1303HK4    C19 9427   6.388   6.738   7.164 -0.1867 -0.2515 -0.6470
 1303HK4    C18 9428   6.386   6.623   7.252  0.1676 -0.1605 -0.5183
 1303HK4    C17 9429   6.501   6.572   7.311 -0.0170  0.0634  0.0361
 1303HK4     H8 9430   6.492   6.494   7.387  1.0420 -1.6970 -1.5721
 1303HK4     N1 9431   6.253   6.577   7.264  0.0603  0.1985 -0.3092
 1303HK4    C21 9432   6.173   6.660   7.184 -0.2954  0.2498  0.1038
 1303HK4    C22 9433   6.253   6.761   7.118 -0.2619 -0.0553 -0.3241
 1303HK4    C26 9434   6.202   6.828   7.007 -0.2657  0.0836 -0.2411
 1303HK4    H13 9435   6.272   6.899   6.963 -2.5016  3.2000  1.0934
 1303HK4    C25 9436   6.073   6.810   6.958 -0.3246 -0.0356 -0.0425
 1303HK4    H12 9437   6.040   6.873   6.875  0.3248 -0.8158 -0.9037
 1303HK4    C24 9438   5.995   6.714   7.022 -0.3770  0.0357 -0.0011
 1303HK4    H11 9439   5.897   6.700   6.975 -0.6682  2.1444 -0.0632
 1303HK4    C23 9440   6.044   6.645   7.132 -0.0827 -0.2153 -0.2897
 1303HK4    H10 9441   5.981   6.589   7.201  1.2852 -0.3803  0.8722
 1303HK4    C39 9442   6.235   6.447   7.312 -0.2940  0.1018 -0.6957
 1303HK4    C41 9443   6.129   6.396   7.390  0.0541  0.3001 -0.0895
 1303HK4    H21 9444   6.074   6.470   7.450  1.6440  0.2922  1.4162
 1303HK4    C42 9445   6.085   6.264   7.386  0.3051  0.2252 -0.2854
 1303HK4    H22 9446   6.025   6.217   7.465  2.5108 -0.6337  0.9308
 1303HK4    C43 9447   6.141   6.179   7.291 -0.4566 -0.9680  0.3170
 1303HK4    H23 9448   6.099   6.081   7.273 -1.5492 -0.1770 -1.6540
 1303HK4    C44 9449   6.253   6.217   7.218 -0.7044 -0.1642  0.3479
 1303HK4    H24 9450   6.301   6.150   7.144  1.5500 -2.1641  3.5086
 1303HK4    C45 9451   6.299   6.347   7.236  0.0481 -0.4173  0.2705
 1303HK4    H25 9452   6.399   6.374   7.199  0.4810  0.1604  1.8193
 1304HK4    H28 9453   9.988   8.961  10.787 -2.6520 -1.9840 -0.9155
 1304HK4    C48 9454  10.010   8.895  10.872 -0.1744 -0.1571 -0.0870
 1304HK4    C47 9455  10.023   8.961  10.994 -0.5045 -0.0152 -0.1297
 1304HK4    H27 9456  10.022   9.069  11.011  0.3267  0.0975 -0.7518
 1304HK4    C46 9457  10.048   8.879  11.103 -0.1827  0.0977 -0.1215
 1304HK4    H26 9458  10.017   8.918  11.201 -2.1554 -3.8217  0.9522
 1304HK4    C40 9459  10.071   8.740  11.095 -0.2251  0.0684  0.2536
 1304HK4    C50 9460  10.060   8.685  10.966 -0.7379  0.0255  0.3157
 1304HK4    H30 9461  10.111   8.588  10.955  1.8543  1.3469  0.3157
 1304HK4    C49 9462  10.025   8.758  10.853 -0.3285 -0.1939  0.0437
 1304HK4    H29 9463  10.004   8.706  10.759 -1.8028  0.1028  0.1891
 1304HK4     N2 9464  10.150   8.675  11.191  0.2650  0.1011 -0.1316
 1304HK4    C30 9465  10.248   8.744   0.018 -0.1641  0.1211  0.4210
 1304HK4    C29 9466  10.344   8.834  11.221 -0.4687  0.4306  0.4040
 1304HK4    H15 9467  10.358   8.843  11.114  0.8262 -0.0730  0.5213
 1304HK4    C28 9468  10.423   8.901   0.066 -0.0267  0.1983  0.1995
 1304HK4    C27 9469  10.391   8.877   0.201  0.4123  0.1410  0.2919
 1304HK4    H14 9470  10.420   8.955   0.273  0.6435  0.1476  0.1911
 1304HK4    C32 9471  10.318   8.767   0.245  0.6968 -0.1051  0.1451
 1304HK4    H16 9472  10.333   8.732   0.347 -1.7560 -1.8824 -0.0578
 1304HK4    C31 9473  10.247   8.691   0.153 -0.0414  0.1992  0.4543
 1304HK4    C34 9474  10.147   8.587   0.163  0.2472 -0.1418 -0.1827
 1304HK4    C33 9475  10.104   8.571   0.026  0.7234 -0.2515 -0.3188
 1304HK4    C35 9476  10.009   8.471   0.006 -0.0449  0.2934  0.5363
 1304HK4    H17 9477   9.965   8.453  11.155  0.0713 -0.7604  0.6754
 1304HK4    C36 9478   9.955   8.399   0.112 -0.5158 -0.2029 -0.0369
 1304HK4    H18 9479   9.873   8.329   0.092 -1.0520  0.5324 -0.4232
 1304HK4    C37 9480   9.995   8.420   0.243  0.0592  0.4922 -0.3191
 1304HK4    H19 9481   9.937   8.377   0.325  0.1939 -1.8535 -1.4120
 1304HK4    C38 9482  10.093   8.515   0.269  0.3175  0.1319  0.0399
 1304HK4    H20 9483  10.129   8.546   0.367  0.0184  1.9037 -0.3837
 1304HK4    C14 9484  10.565   8.933   0.044 -0.0446 -0.1374 -0.3958
 1304HK4     C9 9485  10.670   8.923   0.135 -0.3965  0.3166  0.0605
 1304HK4     C8 9486  10.780   9.011   0.137  0.2937 -0.5389 -0.3376
 1304HK4    C11 9487  10.788   9.089   0.023 -0.1995  0.3862  0.2538
 1304HK4     H4 9488  10.882   9.144   0.005  2.1858 -2.9172  2.2421
 1304HK4    C12 9489  10.696   9.097  11.167 -0.2761 -0.3020  0.2656
 1304HK4     H5 9490  10.698   9.189  11.107 -1.1419 -0.0459  0.6188
 1304HK4    C13 9491  10.584   9.016  11.179 -0.9800  0.6226 -0.0065
 1304HK4     H6 9492  10.503   9.027  11.106 -3.1548 -3.1015  1.6967
 1304HK4     C7 9493  10.860   9.028   0.261 -0.4457  0.5464 -0.0077
 1304HK4     O2 9494  10.964   9.093   0.248  0.2188 -0.5900 -0.4830
 1304HK4     C4 9495  10.822   8.963   0.388  0.2561 -0.0612 -0.1075
 1304HK4     C3 9496  10.896   8.993   0.502 -0.4809  0.5376  0.2167
 1304HK4     H3 9497  10.970   9.074   0.505  0.3608 -0.0829 -2.1756
 1304HK4     C2 9498  10.861   8.926   0.618 -0.7141  0.7348  0.2613
 1304HK4     H2 9499  10.913   8.954   0.711 -0.8415  0.4202  0.4255
 1304HK4     C1 9500  10.752   8.840   0.616 -0.0756 -0.0632 -0.3807
 1304HK4     H1 9501  10.712   8.802   0.712  0.4363  0.7042  0.1454
 1304HK4     C6 9502  10.681   8.807   0.499  0.1889 -0.5870 -0.3964
 1304HK4     C5 9503  10.722   8.864   0.378 -0.2326  0.4284 -0.0690
 1304HK4    C10 9504  10.666   8.823   0.246  0.1892  0.0737 -0.1401
 1304HK4     O1 9505  10.674   8.707   0.205 -0.0717  0.0633 -0.1641
 1304HK4    C16 9506  10.546   8.757   0.526  0.0613 -0.0319 -0.0064
 1304HK4    C15 9507  10.450   8.819   0.609  0.2405  0.3079 -0.0514
 1304HK4     H7 9508  10.439   8.928   0.601 -1.3066  0.2214  0.6017
 1304HK4    C20 9509  10.344   8.743   0.657  0.9072 -0.4622  0.2146
 1304HK4     H9 9510  10.264   8.786   0.718 -0.6560 -1.3980 -1.1152
 1304HK4    C19 9511  10.329   8.608   0.626 -0.2370 -0.3063  0.0501
 1304HK4    C18 9512  10.426   8.543   0.541 -0.2730  0.2190 -0.3939
 1304HK4    C17 9513  10.533   8.622   0.498 -0.4162  0.1808 -0.8231
 1304HK4     H8 9514  10.621   8.575   0.454  2.3568  1.2699  3.3212
 1304HK4     N1 9515  10.399   8.407   0.512 -0.2568  0.1129  0.0641
 1304HK4    C21 9516  10.280   8.384   0.584 -0.2047 -0.0387  0.0970
 1304HK4    C22 9517  10.238   8.500   0.659 -0.6834 -0.0101 -0.2141
 1304HK4    C26 9518  10.131   8.498   0.748 -0.4385  0.1874  0.0863
 1304HK4    H13 9519  10.092   8.589   0.792 -0.1080 -0.2604  1.3291
 1304HK4    C25 9520  10.065   8.377   0.767  0.2108 -0.1592  0.1838
 1304HK4    H12 9521   9.987   8.370   0.843  1.4092  0.2301  1.4740
 1304HK4    C24 9522  10.099   8.266   0.691  0.1526  0.0029 -0.0778
 1304HK4    H11 9523  10.012   8.199   0.677  1.9653 -2.6583  0.9194
 1304HK4    C23 9524  10.202   8.269   0.598  0.0272 -0.2417 -0.2279
 1304HK4    H10 9525  10.224   8.190   0.526  0.4719  0.9580 -1.4301
 1304HK4    C39 9526  10.444   8.336   0.401  0.1911 -0.0729  0.3680
 1304HK4    C41 9527  10.449   8.195   0.402 -0.1551 -0.0878  0.3208
 1304HK4    H21 9528  10.411   8.138   0.489  1.6937 -1.4788  0.2499
 1304HK4    C42 9529  10.515   8.130   0.298 -0.2793  0.3620 -0.0355
 1304HK4    H22 9530  10.520   8.021   0.296  2.5462  0.4465 -0.1444
 1304HK4    C43 9531  10.571   8.197   0.190 -0.0529  0.0241 -0.1270
 1304HK4    H23 9532  10.631   8.137   0.121 -0.5233 -2.3416  1.4631
 1304HK4    C44 9533  10.564   8.336   0.183 -0.2238  0.0188 -0.0840
 1304HK4    H24 9534  10.635   8.397   0.126  0.2368  0.9538  1.4602
 1304HK4    C45 9535  10.495   8.400   0.286  0.5754 -0.0965  0.5253
 1304HK4    H25 9536  10.466   8.503   0.260 -0.6398 -0.7930 -0.9227
 1305HK4    H28 9537   6.325   6.058   1.531  2.5183  1.0742 -0.4744
 1305HK4    C48 9538   6.367   6.040   1.630  0.2405  0.1739  0.3729
 1305HK4    C47 9539   6.376   5.909   1.677  0.5837 -0.1300 -0.5134
 1305HK4    H27 9540   6.318   5.831   1.626  0.5528 -0.2977 -0.2237
 1305HK4    C46 9541   6.424   5.878   1.803  0.0690 -0.2392 -0.3414
 1305HK4    H26 9542   6.448   5.774   1.831 -1.7626 -0.8173 -0.8286
 1305HK4    C40 9543   6.470   5.977   1.892  0.0472 -0.1771 -0.4009
 1305HK4    C50 9544   6.470   6.106   1.835 -0.5942 -0.1016 -0.2352
 1305HK4    H30 9545   6.507   6.190   1.896 -2.3663  0.4519  0.1107
 1305HK4    C49 9546   6.417   6.141   1.711  0.5305  0.7405 -0.4969
 1305HK4    H29 9547   6.427   6.242   1.670  1.9168  0.6197 -0.4901
 1305HK4     N2 9548   6.480   5.963   2.031 -0.1855 -0.3475 -0.4024
 1305HK4    C30 9549   6.407   5.877   2.115  0.3025 -0.1663  0.2045
 1305HK4    C29 9550   6.295   5.799   2.088  0.2075 -0.1264  0.4692
 1305HK4    H15 9551   6.238   5.806   1.995  0.8360  0.6018  0.1347
 1305HK4    C28 9552   6.245   5.709   2.181  0.0040 -0.1341  0.3523
 1305HK4    C27 9553   6.306   5.704   2.308 -0.2574  0.4342  0.4997
 1305HK4    H14 9554   6.273   5.624   2.375 -1.5290  0.8794  0.4271
 1305HK4    C32 9555   6.411   5.787   2.343 -0.2168  0.5262  0.1619
 1305HK4    H16 9556   6.462   5.791   2.440  0.5646 -2.2635 -0.0940
 1305HK4    C31 9557   6.460   5.878   2.250 -0.2463  0.8065  0.4195
 1305HK4    C34 9558   6.574   5.968   2.246 -0.1187  0.6424  0.3235
 1305HK4    C33 9559   6.583   6.017   2.110 -0.4311 -0.3683 -0.0677
 1305HK4    C35 9560   6.695   6.096   2.086 -0.3003 -0.3342  0.6612
 1305HK4    H17 9561   6.727   6.115   1.984 -1.1799  1.0867  0.6308
 1305HK4    C36 9562   6.773   6.144   2.191 -0.5082  0.5450  0.4155
 1305HK4    H18 9563   6.850   6.217   2.163  0.5715  0.1609  2.3019
 1305HK4    C37 9564   6.760   6.096   2.321  0.3114 -0.2380  0.2094
 1305HK4    H19 9565   6.838   6.115   2.394  2.8830  0.9173 -2.7111
 1305HK4    C38 9566   6.664   5.999   2.347  0.0824  0.0230  0.3340
 1305HK4    H20 9567   6.636   5.971   2.449  0.9057 -1.6987  0.1033
 1305HK4    C14 9568   6.120   5.635   2.156  0.0293 -0.2220  0.4897
 1305HK4     C9 9569   6.034   5.586   2.255 -0.7270 -0.0554 -0.0784
 1305HK4     C8 9570   5.969   5.461   2.247  0.2200 -0.5717  0.1923
 1305HK4    C11 9571   5.980   5.390   2.128  0.3500  0.5697 -0.4957
 1305HK4     H4 9572   5.920   5.298   2.123  0.2658  0.5692  0.3646
 1305HK4    C12 9573   6.048   5.446   2.021  0.7299  0.2203 -0.4418
 1305HK4     H5 9574   6.081   5.376   1.942  1.1688  0.5541 -0.5538
 1305HK4    C13 9575   6.120   5.564   2.034 -0.1333  0.7077 -0.0572
 1305HK4     H6 9576   6.156   5.608   1.940  0.0082 -0.8824 -0.7590
 1305HK4     C7 9577   5.905   5.397   2.364 -0.5860 -0.0889  0.0230
 1305HK4     O2 9578   5.875   5.278   2.357 -0.4449 -0.1453  0.4173
 1305HK4     C4 9579   5.893   5.470   2.491  0.2524  0.1311 -0.0192
 1305HK4     C3 9580   5.858   5.400   2.606 -0.2467  0.3117 -0.0604
 1305HK4     H3 9581   5.805   5.304   2.604 -0.3454  0.3064  1.6477
 1305HK4     C2 9582   5.883   5.454   2.732 -0.0534  0.3206 -0.1036
 1305HK4     H2 9583   5.840   5.402   2.819 -1.1309  1.1165 -0.1653
 1305HK4     C1 9584   5.924   5.586   2.737  0.2571  0.2112  0.4076
 1305HK4     H1 9585   5.918   5.632   2.837 -1.1167  0.8126  0.0665
 1305HK4     C6 9586   5.956   5.665   2.624  0.5042  0.1383  0.4289
 1305HK4     C5 9587   5.941   5.602   2.500  0.1481  0.1376  0.4707
 1305HK4    C10 9588   5.994   5.664   2.375 -0.5536 -0.1378  0.0345
 1305HK4     O1 9589   5.957   5.780   2.354 -0.2703  0.0299  0.4452
 1305HK4    C16 9590   5.956   5.809   2.651  0.1592  0.3096 -0.4797
 1305HK4    C15 9591   5.876   5.866   2.754  0.5139  0.1997 -0.1439
 1305HK4     H7 9592   5.784   5.810   2.776  1.9375 -2.8607 -1.6383
 1305HK4    C20 9593   5.906   5.981   2.826 -0.8153  0.5744 -0.1858
 1305HK4     H9 9594   5.837   6.018   2.902 -0.5764  4.0140 -1.5948
 1305HK4    C19 9595   6.018   6.050   2.783  0.0849 -0.6547  0.1595
 1305HK4    C18 9596   6.102   6.006   2.673 -0.0136 -0.1861 -0.1052
 1305HK4    C17 9597   6.064   5.887   2.612  0.1812  0.1129 -0.8089
 1305HK4     H8 9598   6.131   5.850   2.535 -1.9325 -2.4972 -1.4667
 1305HK4     N1 9599   6.197   6.104   2.638  0.1126 -0.1903  0.2213
 1305HK4    C21 9600   6.177   6.209   2.730 -0.1343  0.2480 -0.3357
 1305HK4    C22 9601   6.070   6.179   2.823  0.7513 -0.9631  0.3118
 1305HK4    C26 9602   6.070   6.255   2.939 -0.1393 -0.5742  0.0685
 1305HK4    H13 9603   6.002   6.222   3.017 -0.0135  1.2905  0.9932
 1305HK4    C25 9604   6.147   6.370   2.954  0.0784 -0.6209 -0.6555
 1305HK4    H12 9605   6.125   6.442   3.033  0.5595 -2.1133  0.8617
 1305HK4    C24 9606   6.229   6.413   2.851  0.6824  0.0951  0.1181
 1305HK4    H11 9607   6.262   6.518   2.844 -1.3567  0.6278 -2.1814
 1305HK4    C23 9608   6.248   6.328   2.743  0.3830 -0.1191  0.2339
 1305HK4    H10 9609   6.303   6.366   2.657 -0.0706 -1.2980 -0.5922
 1305HK4    C39 9610   6.258   6.117   2.513 -0.2036  0.2778  0.1142
 1305HK4    C41 9611   6.376   6.193   2.499 -0.0253  0.0095  0.1523
 1305HK4    H21 9612   6.455   6.182   2.576 -0.6838  1.2140  1.0178
 1305HK4    C42 9613   6.413   6.239   2.373  0.2489 -0.5783  0.0156
 1305HK4    H22 9614   6.515   6.281   2.365  0.6902 -1.3996  1.0876
 1305HK4    C43 9615   6.330   6.219   2.264 -0.0600  0.2107  0.1069
 1305HK4    H23 9616   6.363   6.259   2.168 -1.2158  1.1174  0.0668
 1305HK4    C44 9617   6.210   6.149   2.271 -0.1859  0.4171  0.0570
 1305HK4    H24 9618   6.166   6.120   2.175  0.1774  0.0321  0.0064
 1305HK4    C45 9619   6.180   6.099   2.397  0.2717 -0.3129 -0.1195
 1305HK4    H25 9620   6.085   6.047   2.413 -0.3406  1.3117  1.8089
 1306HK4    H28 9621   4.327   2.876   2.682 -0.3229  0.4774 -1.4056
 1306HK4    C48 9622   4.314   2.983   2.694  0.1574  0.4070 -0.1897
 1306HK4    C47 9623   4.187   3.038   2.708 -0.1377 -0.1327 -0.7271
 1306HK4    H27 9624   4.098   2.975   2.693  0.3162 -0.5621 -1.6792
 1306HK4    C46 9625   4.168   3.172   2.741  0.0540 -0.2674 -0.0644
 1306HK4    H26 9626   4.072   3.213   2.710  2.0292  2.8005 -2.4166
 1306HK4    C40 9627   4.280   3.257   2.745 -0.1637  0.0468 -0.6359
 1306HK4    C50 9628   4.409   3.204   2.725 -0.2611 -0.4620  0.0700
 1306HK4    H30 9629   4.501   3.264   2.720 -1.3171  1.1455 -0.2655
 1306HK4    C49 9630   4.423   3.069   2.693  0.7529 -0.3392 -0.0202
 1306HK4    H29 9631   4.520   3.053   2.643 -0.0246 -0.4630 -1.4936
 1306HK4     N2 9632   4.264   3.372   2.824  0.5483 -0.3617  0.1170
 1306HK4    C30 9633   4.186   3.395   2.940 -0.2731 -0.1048 -0.4817
 1306HK4    C29 9634   4.108   3.313   3.021 -0.4149 -0.0390 -0.5519
 1306HK4    H15 9635   4.139   3.210   3.039 -0.3582 -0.1110 -1.0508
 1306HK4    C28 9636   4.035   3.367   3.126  0.7993 -0.1560  0.3691
 1306HK4    C27 9637   4.044   3.507   3.147  0.1437 -0.0287 -0.1710
 1306HK4    H14 9638   4.040   3.542   3.251  2.4060 -0.4796  0.1090
 1306HK4    C32 9639   4.117   3.593   3.066  0.2802 -0.0638 -0.0871
 1306HK4    H16 9640   4.104   3.701   3.077 -0.9618 -0.0272 -1.6279
 1306HK4    C31 9641   4.192   3.538   2.963  0.1208 -0.1756 -0.1426
 1306HK4    C34 9642   4.275   3.604   2.865 -1.0652  0.2431 -0.8707
 1306HK4    C33 9643   4.309   3.496   2.775 -0.3055 -0.1480 -0.1253
 1306HK4    C35 9644   4.355   3.523   2.647 -0.3967  0.1549 -0.0951
 1306HK4    H17 9645   4.378   3.440   2.580  1.2762  0.0893  0.5432
 1306HK4    C36 9646   4.367   3.657   2.610 -0.0642  0.2303  0.2773
 1306HK4    H18 9647   4.391   3.686   2.506 -1.2946 -1.9208 -0.6489
 1306HK4    C37 9648   4.340   3.760   2.699  0.4649  0.2068  0.4673
 1306HK4    H19 9649   4.335   3.863   2.665 -1.5178  0.2771  0.9018
 1306HK4    C38 9650   4.287   3.737   2.826 -0.1838  0.5030  0.2565
 1306HK4    H20 9651   4.252   3.824   2.882  1.2895 -0.0603  2.0846
 1306HK4    C14 9652   3.920   3.295   3.183  0.0030  0.5222 -0.3630
 1306HK4     C9 9653   3.794   3.352   3.207  0.4444  1.2538  0.2383
 1306HK4     C8 9654   3.713   3.292   3.306  0.4420  0.1344 -0.4368
 1306HK4    C11 9655   3.753   3.178   3.376 -0.1078  0.2376  0.0434
 1306HK4     H4 9656   3.688   3.141   3.456  0.5097  0.8344  0.8398
 1306HK4    C12 9657   3.877   3.122   3.350 -0.2811  0.0287 -0.3374
 1306HK4     H5 9658   3.900   3.028   3.401  1.6384  0.1512 -0.9188
 1306HK4    C13 9659   3.960   3.180   3.254 -0.4589  0.4316 -0.2504
 1306HK4     H6 9660   4.041   3.125   3.205 -0.8696  0.2298 -0.7069
 1306HK4     C7 9661   3.578   3.345   3.331  0.2979 -0.5339  0.2363
 1306HK4     O2 9662   3.511   3.291   3.419  0.2481 -0.1440  0.4381
 1306HK4     C4 9663   3.535   3.468   3.260  0.3117 -0.2635  0.6983
 1306HK4     C3 9664   3.425   3.535   3.312 -0.0084  0.2883 -0.6691
 1306HK4     H3 9665   3.342   3.482   3.362  0.0530  0.6232 -0.2066
 1306HK4     C2 9666   3.401   3.670   3.288  0.0149  0.3424 -0.3884
 1306HK4     H2 9667   3.339   3.726   3.359  0.4431  2.0849 -1.3482
 1306HK4     C1 9668   3.483   3.734   3.195  0.1471  0.7355 -0.0037
 1306HK4     H1 9669   3.464   3.841   3.176 -0.1619  0.6267 -0.3200
 1306HK4     C6 9670   3.598   3.676   3.138  0.0595  0.4375  0.1229
 1306HK4     C5 9671   3.615   3.540   3.169 -0.8593  0.3198  0.1214
 1306HK4    C10 9672   3.735   3.463   3.128 -0.7174  0.5514  0.1049
 1306HK4     O1 9673   3.736   3.446   3.006 -0.6214  0.1360  0.1620
 1306HK4    C16 9674   3.713   3.761   3.105 -0.0962  0.3487 -0.6494
 1306HK4    C15 9675   3.737   3.882   3.173  0.3232  0.0399 -0.2421
 1306HK4     H7 9676   3.710   3.875   3.280  1.2061 -1.3795 -0.0997
 1306HK4    C20 9677   3.804   3.989   3.116  0.6635 -0.0195  0.0464
 1306HK4     H9 9678   3.780   4.090   3.150  0.2151  0.5472 -1.8415
 1306HK4    C19 9679   3.870   3.969   2.995  0.2087 -0.2567 -0.1644
 1306HK4    C18 9680   3.860   3.840   2.931  0.6704 -0.3092 -0.1352
 1306HK4    C17 9681   3.773   3.743   2.981  0.0120  0.0645 -0.5579
 1306HK4     H8 9682   3.717   3.693   2.902  0.0591  2.4338 -2.1766
 1306HK4     N1 9683   3.933   3.848   2.810  1.0777 -0.1416  0.1222
 1306HK4    C21 9684   4.000   3.971   2.804 -0.0146  0.4218 -0.4797
 1306HK4    C22 9685   3.957   4.054   2.915  0.5139 -0.2245  0.2029
 1306HK4    C26 9686   4.014   4.179   2.935 -0.0880  0.1246 -0.2491
 1306HK4    H13 9687   3.954   4.248   2.994  1.3945  1.2804 -0.0677
 1306HK4    C25 9688   4.118   4.228   2.857 -0.0047  0.3789  0.0219
 1306HK4    H12 9689   4.157   4.330   2.864 -0.8566  0.8327 -1.6590
 1306HK4    C24 9690   4.161   4.147   2.753  0.0483  0.7103 -0.2141
 1306HK4    H11 9691   4.252   4.173   2.696  0.0336 -1.2897 -1.2020
 1306HK4    C23 9692   4.106   4.022   2.729  0.3259  0.5312  0.0780
 1306HK4    H10 9693   4.156   3.962   2.653  1.9928 -0.8171  2.1705
 1306HK4    C39 9694   3.954   3.748   2.714 -0.2229 -0.1084 -0.2074
 1306HK4    C41 9695   3.988   3.775   2.580 -0.2681  0.5770 -0.0861
 1306HK4    H21 9696   3.967   3.873   2.534 -0.0958  0.8109  0.3385
 1306HK4    C42 9697   3.992   3.673   2.485  0.5485  0.0091  0.5591
 1306HK4    H22 9698   3.982   3.694   2.378 -0.0160 -0.5826  0.4898
 1306HK4    C43 9699   3.981   3.541   2.528  0.7392 -0.2539 -0.2040
 1306HK4    H23 9700   3.994   3.465   2.450  0.0646  0.7995 -1.3730
 1306HK4    C44 9701   3.959   3.508   2.661 -0.3158  0.2392 -0.2510
 1306HK4    H24 9702   3.949   3.404   2.694  1.2965  0.5896  1.4580
 1306HK4    C45 9703   3.935   3.613   2.749 -0.1326 -0.0351  0.1266
 1306HK4    H25 9704   3.899   3.595   2.851  0.4779 -0.2983  0.3010
 1307HK4    H28 9705   1.158   4.796   5.043  1.7670 -0.4299 -1.6422
 1307HK4    C48 9706   1.210   4.889   5.069 -0.1292  0.2092  0.0762
 1307HK4    C47 9707   1.258   4.976   4.972 -0.4015  0.3672  0.0813
 1307HK4    H27 9708   1.229   4.952   4.869  0.3859  0.5044 -0.1815
 1307HK4    C46 9709   1.352   5.078   4.988  0.1776 -0.1825  0.2166
 1307HK4    H26 9710   1.392   5.144   4.910  1.4917  0.2430  1.2397
 1307HK4    C40 9711   1.396   5.103   5.120  0.0338  0.1377  0.2031
 1307HK4    C50 9712   1.349   5.012   5.217  0.4032  0.0539  0.3036
 1307HK4    H30 9713   1.397   5.000   5.315  1.9548  0.3095 -0.4071
 1307HK4    C49 9714   1.253   4.912   5.199  0.3811  0.1434 -0.0801
 1307HK4    H29 9715   1.198   4.869   5.283  0.4521  0.6133  0.2087
 1307HK4     N2 9716   1.493   5.197   5.155  0.5523 -0.4650  0.4112
 1307HK4    C30 9717   1.568   5.267   5.059 -0.1909 -0.1353  0.0622
 1307HK4    C29 9718   1.634   5.205   4.954 -0.3712 -0.1896 -0.0173
 1307HK4    H15 9719   1.636   5.096   4.950 -0.8834 -0.1697 -1.4947
 1307HK4    C28 9720   1.715   5.274   4.865 -0.4955 -0.2034 -0.1414
 1307HK4    C27 9721   1.735   5.409   4.901 -0.3245 -0.2302 -0.1317
 1307HK4    H14 9722   1.789   5.478   4.834 -0.8926  0.3375 -0.0153
 1307HK4    C32 9723   1.690   5.469   5.018 -0.1092 -0.2339 -0.0463
 1307HK4    H16 9724   1.740   5.562   5.045  1.4189 -0.6493 -1.4114
 1307HK4    C31 9725   1.608   5.399   5.106 -0.3948 -0.0049 -0.1297
 1307HK4    C34 9726   1.566   5.400   5.245 -0.3398  0.2827 -0.1148
 1307HK4    C33 9727   1.498   5.275   5.272  0.4554 -0.0968  0.1696
 1307HK4    C35 9728   1.442   5.254   5.398  0.1289  0.1139  0.0619
 1307HK4    H17 9729   1.356   5.188   5.402  0.2185 -0.0319 -0.3991
 1307HK4    C36 9730   1.463   5.347   5.499  0.0817 -0.2612  0.4182
 1307HK4    H18 9731   1.459   5.317   5.605 -1.7837 -3.1530 -0.4136
 1307HK4    C37 9732   1.523   5.470   5.472  0.3659 -0.4828  0.0391
 1307HK4    H19 9733   1.516   5.552   5.543 -0.3952  0.3941 -1.0307
 1307HK4    C38 9734   1.573   5.497   5.345  0.4369 -0.0500  0.1581
 1307HK4    H20 9735   1.619   5.594   5.327  3.0587 -1.4835 -1.0638
 1307HK4    C14 9736   1.814   5.206   4.781 -0.1941  0.0365  0.0179
 1307HK4     C9 9737   1.931   5.262   4.729  0.0075 -0.0371  0.3930
 1307HK4     C8 9738   1.969   5.241   4.595 -0.1409 -0.1537  0.3697
 1307HK4    C11 9739   1.912   5.141   4.518  0.8291 -0.5714  0.1920
 1307HK4     H4 9740   1.942   5.120   4.414 -2.7666  0.3008 -1.0648
 1307HK4    C12 9741   1.811   5.065   4.575  0.0722  0.4608  0.2445
 1307HK4     H5 9742   1.789   4.963   4.540  1.8876  0.7910 -1.9459
 1307HK4    C13 9743   1.759   5.107   4.697  0.0530 -0.6026  0.6083
 1307HK4     H6 9744   1.667   5.058   4.730 -1.7099  2.2329  0.0744
 1307HK4     C7 9745   2.053   5.345   4.530 -0.3912 -0.2832 -0.1678
 1307HK4     O2 9746   2.094   5.332   4.415  0.3228 -0.5952  0.1246
 1307HK4     C4 9747   2.106   5.451   4.620  0.5409 -0.3192 -0.6720
 1307HK4     C3 9748   2.145   5.569   4.557 -0.0483  0.0894 -0.2773
 1307HK4     H3 9749   2.130   5.584   4.449 -2.3386  0.9831  0.1381
 1307HK4     C2 9750   2.202   5.675   4.626 -0.7844  0.1453  0.2545
 1307HK4     H2 9751   2.230   5.771   4.580 -0.0351 -0.0585  0.2876
 1307HK4     C1 9752   2.227   5.657   4.761  0.2971 -1.2334 -0.1207
 1307HK4     H1 9753   2.263   5.750   4.808 -3.1316  1.1027 -1.8835
 1307HK4     C6 9754   2.191   5.537   4.827 -0.5372 -0.6812  0.4297
 1307HK4     C5 9755   2.119   5.438   4.759 -0.5647 -0.0098 -0.5364
 1307HK4    C10 9756   2.024   5.339   4.817 -0.1149  0.1015  0.4017
 1307HK4     O1 9757   2.031   5.308   4.936  0.1792  0.9357  0.6012
 1307HK4    C16 9758   2.256   5.512   4.956  0.5335  0.2006  0.0681
 1307HK4    C15 9759   2.304   5.621   5.032 -0.4630 -0.1486  1.1995
 1307HK4     H7 9760   2.252   5.717   5.043  1.9206  1.3150  0.0056
 1307HK4    C20 9761   2.421   5.612   5.107 -0.1478 -0.0343  0.7238
 1307HK4     H9 9762   2.459   5.700   5.159 -1.8171  0.7342  0.6967
 1307HK4    C19 9763   2.484   5.489   5.121  0.1191 -0.0203 -0.3332
 1307HK4    C18 9764   2.425   5.369   5.065 -0.2668 -0.2662  0.5904
 1307HK4    C17 9765   2.321   5.390   4.975  0.3714  0.0907 -0.0709
 1307HK4     H8 9766   2.295   5.304   4.914  0.2073  1.7875 -2.4564
 1307HK4     N1 9767   2.506   5.257   5.093  0.4845 -0.0725 -0.7572
 1307HK4    C21 9768   2.623   5.299   5.160  0.1907 -0.1159 -0.2168
 1307HK4    C22 9769   2.608   5.442   5.179  0.1491 -0.0890 -0.4511
 1307HK4    C26 9770   2.718   5.519   5.215  0.1715 -0.2521 -0.1737
 1307HK4    H13 9771   2.707   5.611   5.271  0.4257 -0.8718  0.9081
 1307HK4    C25 9772   2.846   5.464   5.206  0.2245 -0.1320 -0.1516
 1307HK4    H12 9773   2.933   5.529   5.201  1.1084 -1.1236  1.9107
 1307HK4    C24 9774   2.862   5.326   5.199  0.0347 -0.1267 -0.7556
 1307HK4    H11 9775   2.957   5.289   5.239 -0.9761 -0.9847  0.9407
 1307HK4    C23 9776   2.750   5.246   5.178  0.1140 -0.3471 -0.3526
 1307HK4    H10 9777   2.765   5.138   5.175 -0.8461 -0.4973 -0.0799
 1307HK4    C39 9778   2.461   5.124   5.097  0.0075  0.1086  0.0559
 1307HK4    C41 9779   2.554   5.019   5.083  0.0102  0.1702 -0.4153
 1307HK4    H21 9780   2.646   5.034   5.025  0.4696 -0.2184  0.2043
 1307HK4    C42 9781   2.524   4.889   5.121  0.2310  0.1211 -0.4085
 1307HK4    H22 9782   2.608   4.824   5.150  0.2361  0.1169 -0.4340
 1307HK4    C43 9783   2.392   4.855   5.151  0.3169  0.4374  0.3562
 1307HK4    H23 9784   2.361   4.751   5.159  2.2398 -0.3601 -1.8262
 1307HK4    C44 9785   2.296   4.955   5.156 -0.1658 -0.0278  0.3938
 1307HK4    H24 9786   2.188   4.932   5.167  0.4073 -2.4288  1.3847
 1307HK4    C45 9787   2.329   5.087   5.129  0.0959 -0.1495  0.1204
 1307HK4    H25 9788   2.250   5.162   5.117 -0.7425 -1.2275 -1.2946
 1308HK4    H28 9789   1.800  10.957  11.180 -0.9517 -3.0998  1.0723
 1308HK4    C48 9790   1.858  10.950   0.024  0.7963 -0.3121  0.2733
 1308HK4    C47 9791   1.802  10.890   0.137 -0.1032  0.6215  0.3250
 1308HK4    H27 9792   1.713  10.826   0.131 -0.1680  0.8588 -1.3222
 1308HK4    C46 9793   1.861  10.901   0.263 -0.3641  0.5107  0.4557
 1308HK4    H26 9794   1.828  10.829   0.340  1.7033 -0.3705  0.5438
 1308HK4    C40 9795   1.984  10.967   0.278  0.0591 -0.1163 -0.2240
 1308HK4    C50 9796   2.043  11.027   0.164  0.7830 -0.3879  0.0022
 1308HK4    H30 9797   2.128  11.096   0.172 -0.2882  0.9018  0.4738
 1308HK4    C49 9798   1.978  11.018   0.041  0.7659 -0.1902 -0.0043
 1308HK4    H29 9799   2.033  11.052  11.201  0.7220 -0.0119  0.0390
 1308HK4     N2 9800   2.040  10.998   0.403  0.0387  0.1326 -0.2753
 1308HK4    C30 9801   1.969  11.018   0.523 -0.2522  0.5676 -0.5184
 1308HK4    C29 9802   1.833  11.037   0.548  0.0365  1.5048  0.3319
 1308HK4    H15 9803   1.767  11.059   0.465  0.2260 -1.8759 -0.7980
 1308HK4    C28 9804   1.776  11.016   0.673  0.2342  0.7277  0.2945
 1308HK4    C27 9805   1.863  11.004   0.784  0.2548 -0.4088  0.1627
 1308HK4    H14 9806   1.834  11.022   0.889 -0.4129  2.0521 -0.4094
 1308HK4    C32 9807   1.999  10.989   0.762  0.2504  0.0284 -0.1832
 1308HK4    H16 9808   2.061  10.977   0.851 -0.7635 -1.2926  0.3593
 1308HK4    C31 9809   2.056  10.991   0.635 -0.4486 -0.0255 -0.5020
 1308HK4    C34 9810   2.185  10.955   0.581 -0.4443 -0.8483  0.0415
 1308HK4    C33 9811   2.173  10.966   0.437 -0.1589 -0.3539  0.0532
 1308HK4    C35 9812   2.279  10.927   0.356 -0.1357  0.2263 -0.1971
 1308HK4    H17 9813   2.268  10.931   0.247  1.2316 -1.9711 -0.4430
 1308HK4    C36 9814   2.398  10.884   0.413 -0.1293  0.3743 -0.0964
 1308HK4    H18 9815   2.482  10.860   0.346 -0.6259  1.1256 -0.9981
 1308HK4    C37 9816   2.414  10.880   0.551 -0.3951  0.0471 -0.0743
 1308HK4    H19 9817   2.508  10.838   0.587  0.0788  1.6262  0.5666
 1308HK4    C38 9818   2.305  10.907   0.633 -0.0682  0.3215  0.2678
 1308HK4    H20 9819   2.318  10.891   0.740  1.1647 -1.5266 -0.1421
 1308HK4    C14 9820   1.630  11.030   0.685  0.1284 -0.1022 -0.0056
 1308HK4     C9 9821   1.567  11.079   0.799 -0.0936 -0.2137 -0.0809
 1308HK4     C8 9822   1.436  11.040   0.836  0.2019 -0.4429  0.7367
 1308HK4    C11 9823   1.364  10.964   0.744  0.4998  0.0140  0.1201
 1308HK4     H4 9824   1.274  10.912   0.780  1.7136 -1.1462  1.5477
 1308HK4    C12 9825   1.418  10.930   0.621 -0.0211 -0.4039  0.0078
 1308HK4     H5 9826   1.361  10.851   0.569  1.3328 -1.1709 -0.3511
 1308HK4    C13 9827   1.551  10.960   0.592 -0.0779 -0.0418  0.1246
 1308HK4     H6 9828   1.596  10.906   0.507 -1.1299 -0.4139 -0.2046
 1308HK4     C7 9829   1.367  11.085   0.958 -0.7225 -0.0684  0.0780
 1308HK4     O2 9830   1.254  11.046   0.988 -0.7136 -0.1721 -0.0203
 1308HK4     C4 9831   1.434  11.188   1.041 -0.0259  0.0851 -0.6657
 1308HK4     C3 9832   1.369  11.237   1.154  0.5308  0.2733 -0.4263
 1308HK4     H3 9833   1.264  11.209   1.170  0.7186 -0.5807 -0.6621
 1308HK4     C2 9834   1.431   0.083   1.235 -0.3170  0.3558  0.1285
 1308HK4     H2 9835   1.376   0.121   1.323 -1.6054 -0.4509 -0.3167
 1308HK4     C1 9836   1.558   0.123   1.197 -0.0876 -0.3284  0.1813
 1308HK4     H1 9837   1.613   0.193   1.262 -0.7440 -0.9395  1.4104
 1308HK4     C6 9838   1.633   0.071   1.089  0.1989 -0.3694  0.3978
 1308HK4     C5 9839   1.564  11.228   1.007  0.3007 -0.2496  0.1780
 1308HK4    C10 9840   1.627  11.191   0.877 -0.4219  0.1065 -0.2791
 1308HK4     O1 9841   1.687   0.027   0.810 -0.5592  0.7093  0.3413
 1308HK4    C16 9842   1.777   0.065   1.113  0.2942 -0.2429 -0.1421
 1308HK4    C15 9843   1.828   0.029   1.239 -0.0339 -0.0171  0.0553
 1308HK4     H7 9844   1.769  11.208   1.302  0.4670 -1.3783 -0.9496
 1308HK4    C20 9845   1.963   0.045   1.271 -0.1268  0.4443  0.2187
 1308HK4     H9 9846   1.998   0.019   1.371 -0.2994  0.5450  0.3057
 1308HK4    C19 9847   2.049   0.106   1.180  0.4782 -0.1601  0.3855
 1308HK4    C18 9848   1.996   0.151   1.053  0.2488 -0.8301  0.2390
 1308HK4    C17 9849   1.861   0.133   1.025  0.2302 -0.1470 -0.1284
 1308HK4     H8 9850   1.821   0.196   0.945  0.9808 -0.7709 -1.0048
 1308HK4     N1 9851   2.094   0.217   0.976 -0.1831 -0.1416  0.2709
 1308HK4    C21 9852   2.210   0.223   1.056 -0.0138 -0.1870  0.0284
 1308HK4    C22 9853   2.187   0.149   1.179  0.3046  0.4094  0.4515
 1308HK4    C26 9854   2.282   0.157   1.280  0.4873 -0.6705  0.3728
 1308HK4    H13 9855   2.258   0.114   1.378 -0.7977  0.2908  0.4910
 1308HK4    C25 9856   2.391   0.240   1.259  0.0516 -0.1738  0.0651
 1308HK4    H12 9857   2.466   0.231   1.338  0.3241  1.9896  0.0921
 1308HK4    C24 9858   2.418   0.310   1.142 -0.4567 -0.0791  0.0022
 1308HK4    H11 9859   2.518   0.351   1.122 -0.4769 -1.0950 -2.4020
 1308HK4    C23 9860   2.326   0.297   1.039 -0.3294  0.2697 -0.1570
 1308HK4    H10 9861   2.362   0.334   0.943  2.5718 -0.0831  0.7267
 1308HK4    C39 9862   2.106   0.218   0.837  0.3938 -0.0775  0.3187
 1308HK4    C41 9863   2.042   0.116   0.763 -0.3817  0.2953  0.4673
 1308HK4    H21 9864   2.020   0.020   0.812  1.3092  0.5633  1.8242
 1308HK4    C42 9865   2.027   0.120   0.625 -0.2083  0.4894  0.4534
 1308HK4    H22 9866   1.988   0.031   0.573  1.5482  0.6252 -1.1459
 1308HK4    C43 9867   2.063   0.238   0.562  0.4054  0.0149 -0.0968
 1308HK4    H23 9868   2.036   0.254   0.458 -1.3624  1.1612  0.5102
 1308HK4    C44 9869   2.122   0.345   0.629  0.1494 -0.2427  0.5468
 1308HK4    H24 9870   2.173   0.426   0.576  2.2350 -0.8165  1.6189
 1308HK4    C45 9871   2.138   0.336   0.766  0.2081  0.1207  0.5638
 1308HK4    H25 9872   2.171   0.425   0.822  0.2757  1.0424 -0.9188
 1309HK4    H28 9873   2.146   1.222   3.613  1.3994  0.0288  1.3173
 1309HK4    C48 9874   2.064   1.257   3.676  0.6684  0.3522  0.2061
 1309HK4    C47 9875   1.946   1.311   3.626  0.5881  0.0419  0.0587
 1309HK4    H27 9876   1.952   1.349   3.522 -1.7779 -0.5732 -0.3282
 1309HK4    C46 9877   1.858   1.369   3.716  0.4520  0.3062 -0.2412
 1309HK4    H26 9878   1.758   1.401   3.682  0.9552  2.7378  0.4810
 1309HK4    C40 9879   1.871   1.362   3.856  0.5592  0.2238 -0.2542
 1309HK4    C50 9880   1.983   1.292   3.904 -0.0426 -0.3133  0.3677
 1309HK4    H30 9881   1.992   1.266   4.011 -0.4451 -0.0131  0.4733
 1309HK4    C49 9882   2.075   1.240   3.814 -0.3012 -0.4661  0.1902
 1309HK4    H29 9883   2.168   1.200   3.855 -0.3031  1.6829  2.4313
 1309HK4     N2 9884   1.810   1.464   3.931  0.6919 -0.0223  0.1894
 1309HK4    C30 9885   1.772   1.594   3.891  0.0314 -0.2960 -0.0731
 1309HK4    C29 9886   1.807   1.668   3.779  0.0652 -0.3198 -0.0782
 1309HK4    H15 9887   1.893   1.642   3.717  0.5778 -4.2311  2.1080
 1309HK4    C28 9888   1.745   1.788   3.748  0.1494 -0.3141 -0.2285
 1309HK4    C27 9889   1.651   1.834   3.843  0.1031 -1.2936  0.2092
 1309HK4    H14 9890   1.587   1.918   3.813 -0.2864 -1.6428  0.0673
 1309HK4    C32 9891   1.621   1.772   3.964 -0.1269 -0.3493  0.6477
 1309HK4    H16 9892   1.561   1.818   4.042  0.3699  1.7078 -0.1513
 1309HK4    C31 9893   1.678   1.647   3.988  0.6406 -0.0511  0.3793
 1309HK4    C34 9894   1.659   1.547   4.091  0.3724 -0.2229  0.1619
 1309HK4    C33 9895   1.740   1.434   4.050  0.5674 -0.0631  0.1060
 1309HK4    C35 9896   1.743   1.323   4.133  0.2030  0.0158  0.2282
 1309HK4    H17 9897   1.822   1.249   4.113  0.7364  0.6964 -0.2147
 1309HK4    C36 9898   1.652   1.314   4.237 -0.0286  0.2136  0.0426
 1309HK4    H18 9899   1.625   1.216   4.278  2.9247 -0.1250  1.3079
 1309HK4    C37 9900   1.575   1.425   4.272  0.0717  0.4330 -0.4345
 1309HK4    H19 9901   1.502   1.403   4.349  1.4211 -1.1228  0.4538
 1309HK4    C38 9902   1.586   1.548   4.209 -0.5865  0.4917 -0.4298
 1309HK4    H20 9903   1.565   1.646   4.252 -1.3497  0.1521 -0.0194
 1309HK4    C14 9904   1.787   1.875   3.637  0.1131  0.0982  0.0770
 1309HK4     C9 9905   1.767   2.013   3.632  0.3693  0.1397  0.1654
 1309HK4     C8 9906   1.746   2.083   3.511  0.5613  0.4628  0.3180
 1309HK4    C11 9907   1.782   2.012   3.397  0.0632  0.5642  0.0992
 1309HK4     H4 9908   1.788   2.068   3.303 -0.4304  2.0717  0.9474
 1309HK4    C12 9909   1.812   1.877   3.398  0.4382  0.6502  0.3675
 1309HK4     H5 9910   1.848   1.830   3.305 -0.5763  2.5855 -1.0365
 1309HK4    C13 9911   1.807   1.805   3.517  0.1849  0.1537  0.0565
 1309HK4     H6 9912   1.809   1.695   3.515  0.3085  0.0555  3.3757
 1309HK4     C7 9913   1.666   2.207   3.509 -0.2891 -0.0880 -0.0042
 1309HK4     O2 9914   1.672   2.282   3.411 -0.2666  0.0327  0.0895
 1309HK4     C4 9915   1.612   2.249   3.640 -0.3786  0.1101 -0.1040
 1309HK4     C3 9916   1.506   2.338   3.648 -0.4699 -0.0252  0.1878
 1309HK4     H3 9917   1.461   2.374   3.555  2.0699  2.4127 -0.1666
 1309HK4     C2 9918   1.475   2.403   3.767 -0.4193  0.6113 -0.1412
 1309HK4     H2 9919   1.382   2.458   3.788  0.1615  1.7755 -0.6058
 1309HK4     C1 9920   1.561   2.390   3.876 -0.0666 -0.2587 -0.5177
 1309HK4     H1 9921   1.546   2.443   3.971  1.3244  0.3661 -0.6352
 1309HK4     C6 9922   1.680   2.317   3.860  0.0407 -0.2347  0.1757
 1309HK4     C5 9923   1.696   2.229   3.752 -0.2999  0.1224 -0.1607
 1309HK4    C10 9924   1.771   2.101   3.753 -0.0495  0.2704  0.0856
 1309HK4     O1 9925   1.846   2.078   3.847  0.3555  0.4591 -0.1888
 1309HK4    C16 9926   1.780   2.337   3.966  0.2237 -0.0783 -0.0256
 1309HK4    C15 9927   1.741   2.383   4.094  0.6738 -0.5617  0.2912
 1309HK4     H7 9928   1.643   2.347   4.129  0.5667  0.4372  1.0381
 1309HK4    C20 9929   1.825   2.448   4.183  0.0122  0.0934  0.4463
 1309HK4     H9 9930   1.771   2.481   4.272  0.2278  2.3543 -0.2134
 1309HK4    C19 9931   1.956   2.482   4.152 -0.1956  0.2473 -0.2708
 1309HK4    C18 9932   1.997   2.447   4.017  0.0715  0.5609 -0.2711
 1309HK4    C17 9933   1.912   2.371   3.938 -0.0091  0.6322 -0.2527
 1309HK4     H8 9934   1.951   2.341   3.840  0.8057  0.7760  0.0271
 1309HK4     N1 9935   2.107   2.526   3.977  0.1776  0.5060 -0.0909
 1309HK4    C21 9936   2.130   2.614   4.084 -0.3028  0.1422  0.3165
 1309HK4    C22 9937   2.050   2.581   4.200 -0.1071 -0.1449  0.3700
 1309HK4    C26 9938   2.075   2.652   4.317 -0.0878 -0.0857  0.3303
 1309HK4    H13 9939   2.043   2.607   4.411 -0.5483  1.8880  1.1483
 1309HK4    C25 9940   2.158   2.763   4.321  0.2115 -0.2779 -0.4016
 1309HK4    H12 9941   2.171   2.833   4.405  2.0271 -1.6853  0.5147
 1309HK4    C24 9942   2.226   2.801   4.207  0.1503  0.3197 -0.2429
 1309HK4    H11 9943   2.281   2.897   4.208  1.6040 -0.5039 -0.1004
 1309HK4    C23 9944   2.209   2.729   4.089  0.4696 -0.3824  0.1423
 1309HK4    H10 9945   2.284   2.752   4.013  0.0489  2.5853  0.5710
 1309HK4    C39 9946   2.211   2.477   3.897 -0.1222 -0.0975 -0.1084
 1309HK4    C41 9947   2.284   2.559   3.810  0.1751 -0.3729 -0.1213
 1309HK4    H21 9948   2.248   2.662   3.793  3.5755  1.2359  1.8051
 1309HK4    C42 9949   2.381   2.506   3.726  0.4875 -0.2374  0.1551
 1309HK4    H22 9950   2.427   2.578   3.657  0.1249 -1.0605 -0.9613
 1309HK4    C43 9951   2.407   2.370   3.720  0.1969 -0.2966  0.2268
 1309HK4    H23 9952   2.477   2.334   3.644  1.0535 -1.4535  1.5085
 1309HK4    C44 9953   2.343   2.282   3.807  0.2101 -0.5708 -0.0409
 1309HK4    H24 9954   2.381   2.180   3.823  0.8405 -0.4141 -0.5195
 1309HK4    C45 9955   2.254   2.342   3.895  0.2952  0.0401 -0.3700
 1309HK4    H25 9956   2.201   2.272   3.961 -1.1220  1.1853 -0.2447
 1310HK4    H28 9957   6.236   3.711   6.032 -0.7190 -1.4546 -1.1890
 1310HK4    C48 9958   6.292   3.640   6.093  0.0486  0.1279 -0.0150
 1310HK4    C47 9959   6.424   3.602   6.073 -0.0300 -0.0571 -0.1916
 1310HK4    H27 9960   6.482   3.638   5.986 -0.2534 -1.2003 -0.8289
 1310HK4    C46 9961   6.485   3.500   6.145  0.0236 -0.1800 -0.4113
 1310HK4    H26 9962   6.594   3.489   6.137  0.0984 -0.2169  0.6297
 1310HK4    C40 9963   6.412   3.419   6.234  0.3235  0.2343  0.2092
 1310HK4    C50 9964   6.277   3.456   6.251  0.2233  0.1747 -0.4651
 1310HK4    H30 9965   6.203   3.396   6.306  0.0252  0.6867 -0.1652
 1310HK4    C49 9966   6.220   3.565   6.185 -0.1037  0.2766 -0.0137
 1310HK4    H29 9967   6.116   3.595   6.207 -0.0889 -1.0564  2.0468
 1310HK4     N2 9968   6.455   3.295   6.282 -0.1724 -0.2368 -0.5555
 1310HK4    C30 9969   6.541   3.205   6.216  0.2414 -0.2944  0.0542
 1310HK4    C29 9970   6.560   3.185   6.080 -0.0836 -0.0122 -0.0335
 1310HK4    H15 9971   6.530   3.262   6.008  4.5246  1.8384 -0.1688
 1310HK4    C28 9972   6.616   3.071   6.023 -0.4917 -0.1636 -0.1316
 1310HK4    C27 9973   6.647   2.972   6.118 -0.4632  0.3507  0.4020
 1310HK4    H14 9974   6.663   2.868   6.084  0.7523  0.8637 -0.6285
 1310HK4    C32 9975   6.621   2.981   6.254 -0.4056 -0.6459  0.4900
 1310HK4    H16 9976   6.662   2.908   6.324 -0.0827 -0.0853  0.8931
 1310HK4    C31 9977   6.576   3.100   6.310  0.1720 -0.2498  0.1281
 1310HK4    C34 9978   6.513   3.126   6.438  0.3861  0.2534  0.1326
 1310HK4    C33 9979   6.436   3.247   6.413  0.3750  0.1523 -0.3285
 1310HK4    C35 9980   6.349   3.290   6.513  0.2806 -0.2730 -0.2247
 1310HK4    H17 9981   6.303   3.388   6.501  1.2035  0.0563 -1.1864
 1310HK4    C36 9982   6.348   3.214   6.629 -0.0732 -0.1085 -0.1194
 1310HK4    H18 9983   6.273   3.247   6.703 -1.2976 -1.6914 -0.6187
 1310HK4    C37 9984   6.427   3.103   6.653  0.0251 -0.0128 -0.0000
 1310HK4    H19 9985   6.436   3.066   6.756  1.4076 -1.8698 -0.7519
 1310HK4    C38 9986   6.518   3.057   6.559  0.1625  0.1195  0.0658
 1310HK4    H20 9987   6.569   2.961   6.552  2.9622  1.5163  0.3701
 1310HK4    C14 9988   6.631   3.048   5.879  0.2155 -0.1006 -0.0697
 1310HK4     C9 9989   6.659   2.925   5.816  0.0521  0.0072 -0.3531
 1310HK4     C8 9990   6.736   2.921   5.698 -0.2947  0.0451 -0.5823
 1310HK4    C11 9991   6.768   3.040   5.634  0.0292  0.0043 -0.4955
 1310HK4     H4 9992   6.852   3.040   5.562 -0.6386 -0.1867 -1.2902
 1310HK4    C12 9993   6.722   3.162   5.680 -0.8098 -0.3181 -0.4728
 1310HK4     H5 9994   6.716   3.250   5.613  0.7504  1.5977  1.8119
 1310HK4    C13 9995   6.660   3.164   5.804 -0.2799 -0.0665 -0.2051
 1310HK4     H6 9996   6.613   3.258   5.836 -0.3022 -0.5751  1.3251
 1310HK4     C7 9997   6.785   2.790   5.650  0.4448  0.0290  0.2028
 1310HK4     O2 9998   6.857   2.792   5.550  0.0457  0.2461 -0.0800
 1310HK4     C4 9999   6.735   2.665   5.710  0.0259  0.1264  0.0634
 1310HK4     C310000   6.800   2.547   5.673 -0.0273  0.1317 -0.0472
 1310HK4     H310001   6.878   2.539   5.597 -0.8305 -0.9414 -0.7730
 1310HK4     C210002   6.760   2.424   5.724 -0.0823  0.2734  0.2564
 1310HK4     H210003   6.804   2.329   5.692 -0.7574  0.1928 -0.4564
 1310HK4     C110004   6.660   2.425   5.821 -0.4841 -0.4709 -0.1450
 1310HK4     H110005   6.614   2.327   5.841 -1.0508  0.1305  1.5808
 1310HK4     C610006   6.602   2.544   5.870  0.7061  0.0520  0.0160
 1310HK4     C510007   6.633   2.665   5.807  0.0300  0.2551  0.0656
 1310HK4    C1010008   6.586   2.800   5.851  0.0124  0.1936  0.2412
 1310HK4     O110009   6.467   2.816   5.875 -0.1215 -0.2292 -0.1466
 1310HK4    C1610010   6.547   2.530   6.006  0.3256  0.6119 -0.0820
 1310HK4    C1510011   6.592   2.427   6.090 -0.2693  0.2444 -0.2082
 1310HK4     H710012   6.700   2.408   6.090 -0.2601  0.1770  1.3799
 1310HK4    C2010013   6.519   2.364   6.190 -0.2933  0.2292 -0.2338
 1310HK4     H910014   6.548   2.268   6.234  1.6605 -0.3514 -2.6509
 1310HK4    C1910015   6.394   2.418   6.218 -0.1358  0.3988  0.1503
 1310HK4    C1810016   6.341   2.532   6.146 -0.2567 -0.1174 -0.5826
 1310HK4    C1710017   6.417   2.569   6.035  0.0189 -0.1544 -0.4059
 1310HK4     H810018   6.358   2.625   5.962  1.3935  2.1286  0.1700
 1310HK4     N110019   6.230   2.595   6.207  0.5330  0.5083  0.2097
 1310HK4    C2110020   6.215   2.521   6.327 -0.6680  0.0716 -0.2049
 1310HK4    C2210021   6.303   2.406   6.329 -0.4035  0.2754 -0.0825
 1310HK4    C2610022   6.296   2.316   6.435 -0.1408 -0.1890 -0.4576
 1310HK4    H1310023   6.359   2.228   6.427 -1.5739 -1.3907  1.2040
 1310HK4    C2510024   6.217   2.340   6.547  0.8164  0.4377  0.0870
 1310HK4    H1210025   6.221   2.275   6.634  0.2610  0.2026 -0.0644
 1310HK4    C2410026   6.128   2.446   6.540  0.1355 -0.1092  0.4442
 1310HK4    H1110027   6.061   2.457   6.627 -0.4936 -0.9915  0.0793
 1310HK4    C2310028   6.124   2.533   6.432 -0.0943 -0.2593  0.3283
 1310HK4    H1010029   6.057   2.619   6.430 -2.2170 -1.8896  0.0192
 1310HK4    C3910030   6.187   2.726   6.186 -0.2763  0.2214  0.0719
 1310HK4    C4110031   6.051   2.750   6.217 -0.2031 -0.0485  0.5994
 1310HK4    H2110032   5.981   2.667   6.198 -1.5588  1.2109  0.0455
 1310HK4    C4210033   6.011   2.882   6.235  0.2456  0.2267 -0.3917
 1310HK4    H2210034   5.906   2.904   6.255  0.4583  0.0603  0.9712
 1310HK4    C4310035   6.101   2.988   6.228  0.1827  0.2769 -0.4298
 1310HK4    H2310036   6.053   3.085   6.242  0.0430  0.1412  0.0729
 1310HK4    C4410037   6.235   2.969   6.199  0.1209 -0.2960 -0.3503
 1310HK4    H2410038   6.303   3.056   6.201 -0.3995  0.0847  2.5539
 1310HK4    C4510039   6.273   2.837   6.177  0.4394 -0.3132  0.2981
 1310HK4    H2510040   6.373   2.816   6.134  1.5366  1.5612  1.8409
 1311HK4    H2810041   0.034   2.392  10.959  0.9993  1.9332  0.7820
 1311HK4    C4810042  11.186   2.433  10.929  0.4663  0.0925 -0.0489
 1311HK4    C4710043  11.186   2.551  10.856 -0.2261 -0.1211 -0.4086
 1311HK4    H2710044   0.033   2.594  10.821  0.2158 -0.8880 -0.1716
 1311HK4    C4610045  11.063   2.606  10.825 -0.3801 -0.5497 -0.5535
 1311HK4    H2610046  11.060   2.659  10.729 -0.6388 -1.8007 -1.2480
 1311HK4    C4010047  10.940   2.561  10.878 -0.0233  0.0014  0.7597
 1311HK4    C5010048  10.942   2.446  10.959  0.1582 -0.8396 -0.4382
 1311HK4    H3010049  10.857   2.418  11.022  0.5161 -0.3570  0.2552
 1311HK4    C4910050  11.064   2.381  10.973  0.6271  0.2533  0.5700
 1311HK4    H2910051  11.073   2.298  11.044  1.8761 -0.0513  0.0713
 1311HK4     N210052  10.828   2.645  10.866 -0.1731 -0.2563  0.3586
 1311HK4    C3010053  10.828   2.785  10.848  0.3155 -0.2991  0.0123
 1311HK4    C2910054  10.925   2.884  10.861  0.2205 -0.2348  0.2224
 1311HK4    H1510055  11.030   2.853  10.863 -0.2584 -1.8808  0.5468
 1311HK4    C2810056  10.903   3.021  10.854 -0.5376 -0.3225  0.8498
 1311HK4    C2710057  10.768   3.058  10.834 -0.2408  0.5245  0.4006
 1311HK4    H1410058  10.739   3.163  10.824  1.0511  0.6688 -2.1524
 1311HK4    C3210059  10.665   2.967  10.816  0.0893  0.0505  0.8855
 1311HK4    H1610060  10.562   3.002  10.811 -0.3474 -1.2512  0.3015
 1311HK4    C3110061  10.692   2.831  10.826  0.5268  0.0073 -0.6971
 1311HK4    C3410062  10.606   2.715  10.839  0.4247  0.1343 -0.1935
 1311HK4    C3310063  10.694   2.602  10.863 -0.1646 -0.2647  0.1017
 1311HK4    C3510064  10.646   2.473  10.877  0.1033 -0.2689  1.0897
 1311HK4    H1710065  10.710   2.386  10.866 -0.8673 -0.7406 -1.2095
 1311HK4    C3610066  10.508   2.456  10.870  0.1030 -0.0586  0.4687
 1311HK4    H1810067  10.467   2.354  10.878 -0.9406  0.4254  1.4999
 1311HK4    C3710068  10.422   2.560  10.840  0.1956  0.0194  0.4770
 1311HK4    H1910069  10.314   2.548  10.834  0.1224  1.1700 -0.8417
 1311HK4    C3810070  10.469   2.691  10.831  0.4283 -0.0707  0.4041
 1311HK4    H2010071  10.404   2.776  10.846 -1.0339 -1.2711  1.0260
 1311HK4    C1410072  11.011   3.114  10.886 -0.3131 -0.1808 -0.2973
 1311HK4     C910073  10.982   3.243  10.933 -0.3951 -0.3993  0.2521
 1311HK4     C810074  11.056   3.355  10.890 -0.4643 -0.3835  0.1820
 1311HK4    C1110075  11.167   3.336  10.809  0.0612  0.0360  0.7996
 1311HK4     H410076  11.221   3.417  10.757 -2.6576  0.1424 -2.0149
 1311HK4    C1210077  11.202   3.207  10.772  0.5227  0.2417  0.5125
 1311HK4     H510078   0.061   3.190  10.751  0.1608  1.2514 -2.3059
 1311HK4    C1310079  11.125   3.096  10.805  0.6953  0.2671  0.9996
 1311HK4     H610080  11.150   3.006  10.746  2.9784  1.4298  0.1073
 1311HK4     C710081  11.022   3.490  10.941 -0.0372 -0.1536 -0.1370
 1311HK4     O210082  11.067   3.591  10.887 -0.0324  0.0608  0.2744
 1311HK4     C410083  10.921   3.504  11.048 -0.2530  0.1546 -0.3790
 1311HK4     C310084  10.901   3.630  11.104  0.4639  0.0244  0.1738
 1311HK4     H310085  10.966   3.715  11.079 -1.0753  0.9116 -0.9143
 1311HK4     C210086  10.796   3.644  11.194  0.2257 -0.7716  0.0209
 1311HK4     H210087  10.777   3.744  11.235 -1.4382 -0.5386 -1.2653
 1311HK4     C110088  10.705   3.541  11.217 -0.5583 -0.2896 -0.8737
 1311HK4     H110089  10.621   3.561   0.037 -0.8577 -0.4228 -1.2032
 1311HK4     C610090  10.732   3.411  11.170  0.0471 -0.3696 -0.3175
 1311HK4     C510091  10.847   3.392  11.093  0.3226 -0.0657  0.0199
 1311HK4    C1010092  10.893   3.257  11.052 -0.3811 -0.3803  0.2610
 1311HK4     O110093  10.913   3.182  11.147 -0.5805 -0.7020  0.0510
 1311HK4    C1610094  10.609   3.336  11.139  0.0811 -0.4020 -0.3717
 1311HK4    C1510095  10.498   3.396  11.076  0.0790 -0.0142 -0.0066
 1311HK4     H710096  10.482   3.504  11.064  1.8769  0.1128 -1.5125
 1311HK4    C2010097  10.395   3.314  11.031  0.2433 -0.3624  0.2582
 1311HK4     H910098  10.320   3.358  10.966  0.0806  0.8531  1.2268
 1311HK4    C1910099  10.390   3.179  11.063 -0.0406 -0.3102  0.4400
 1311HK4    C1810100  10.501   3.120  11.135  0.3949 -0.0865 -0.0436
 1311HK4    C1710101  10.606   3.202  11.175  0.2154 -0.1580  0.5816
 1311HK4     H810102  10.680   3.155  11.240 -1.2872 -2.8026  0.4519
 1311HK4     N110103  10.472   2.985  11.164 -0.5033  0.2488  0.6278
 1311HK4    C2110104  10.347   2.955  11.104 -0.2658  0.1227  0.1897
 1311HK4    C2210105  10.293   3.074  11.040 -0.2669 -0.0006 -0.0392
 1311HK4    C2610106  10.177   3.062  10.965  0.1193 -0.1889 -0.6136
 1311HK4    H1310107  10.134   3.147  10.911  0.1347 -0.5425 -1.1842
 1311HK4    C2510108  10.116   2.939  10.940 -0.3405  0.0013 -0.4235
 1311HK4    H1210109  10.019   2.942  10.890 -1.0632  0.3287  0.9692
 1311HK4    C2410110  10.166   2.828  11.007 -0.3135  0.4486  0.3023
 1311HK4    H1110111  10.116   2.730  10.997  0.4552  0.1416 -0.4827
 1311HK4    C2310112  10.282   2.835  11.084  0.0653  0.0135 -0.2342
 1311HK4    H1010113  10.329   2.744  11.122  0.2142 -0.3645 -1.3127
 1311HK4    C3910114  10.556   2.888  11.219  0.0874  0.5928  0.3300
 1311HK4    C4110115  10.508   2.772   0.036 -0.2096  0.6324  0.1821
 1311HK4    H2110116  10.412   2.781   0.089 -1.0799  1.4720 -1.4703
 1311HK4    C4210117  10.573   2.650   0.043 -0.8266  0.2377 -0.7770
 1311HK4    H2210118  10.529   2.553   0.071  1.9108 -0.3228  1.8558
 1311HK4    C4310119  10.704   2.643  11.243 -0.5829  0.2806 -0.1331
 1311HK4    H2310120  10.749   2.544  11.240 -1.2571 -0.0727  0.9131
 1311HK4    C4410121  10.756   2.754  11.179  0.0610 -0.3586 -0.7251
 1311HK4    H2410122  10.861   2.746  11.148 -0.0463 -1.2340 -0.8782
 1311HK4    C4510123  10.685   2.873  11.165 -0.0673 -0.3227  0.1892
 1311HK4    H2510124  10.726   2.962  11.114 -0.1178  0.3754  1.3445
 1312HK4    H2810125   9.038   7.453  10.781 -0.5779 -1.0774 -1.2939
 1312HK4    C4810126   9.086   7.386  10.853  0.0506  0.4792 -0.2530
 1312HK4    C4710127   9.070   7.250  10.833  0.3167  0.4825 -0.4861
 1312HK4    H2710128   9.038   7.220  10.732  0.9910  0.6276 -0.7420
 1312HK4    C4610129   9.126   7.161  10.925 -0.2406  0.4511 -0.1754
 1312HK4    H2610130   9.102   7.054  10.923 -1.5511  0.7125  1.1770
 1312HK4    C4010131   9.190   7.212  11.040 -0.2969  0.2625 -0.0605
 1312HK4    C5010132   9.211   7.351  11.056 -0.0289  0.1309  0.7515
 1312HK4    H3010133   9.298   7.380  11.117  1.2591  0.8045 -1.3352
 1312HK4    C4910134   9.157   7.437  10.961 -0.6880 -0.3959  0.6516
 1312HK4    H2910135   9.172   7.545  10.977 -1.6415 -0.0164 -0.8819
 1312HK4     N210136   9.237   7.125  11.139 -0.8852 -0.2242 -0.2055
 1312HK4    C3010137   9.287   6.994  11.123  0.3447  0.2290 -0.1108
 1312HK4    C2910138   9.366   6.941  11.022  0.1428 -0.1326 -0.0773
 1312HK4    H1510139   9.391   6.996  10.931 -0.9514 -1.8475 -1.4629
 1312HK4    C2810140   9.442   6.826  11.036  0.3369  0.0508  0.3651
 1312HK4    C2710141   9.426   6.762  11.161 -0.3546  0.1826  0.3421
 1312HK4    H1410142   9.491   6.677  11.184  1.0018  1.2517  0.4911
 1312HK4    C3210143   9.346   6.808   0.018  0.0657  0.4374  0.5511
 1312HK4    H1610144   9.332   6.753   0.111  0.7985  1.5494  1.3385
 1312HK4    C3110145   9.270   6.923   0.000  0.3523  0.5545  0.0769
 1312HK4    C3410146   9.209   7.012   0.097  0.0316  0.3372  0.0765
 1312HK4    C3310147   9.186   7.134   0.022 -0.5315  0.1258 -0.0917
 1312HK4    C3510148   9.119   7.235   0.091 -0.5673 -0.2008  0.3571
 1312HK4    H1710149   9.128   7.338   0.057  0.0275 -0.2536  0.3448
 1312HK4    C3610150   9.070   7.220   0.220 -0.0937 -0.0551  0.5529
 1312HK4    H1810151   9.017   7.303   0.269 -1.3269 -1.7008  2.0210
 1312HK4    C3710152   9.083   7.098   0.285  0.1986 -0.2471  0.1430
 1312HK4    H1910153   9.018   7.077   0.371  1.0167 -0.9116  0.6093
 1312HK4    C3810154   9.151   6.995   0.222  0.6250 -0.0651  0.3027
 1312HK4    H2010155   9.187   6.911   0.281  0.0036 -1.2266 -0.9473
 1312HK4    C1410156   9.530   6.765  10.935  0.3571  0.4882  0.1226
 1312HK4     C910157   9.572   6.632  10.949 -0.2476  0.2287 -0.5480
 1312HK4     C810158   9.709   6.600  10.950 -0.3647 -0.2748 -0.5460
 1312HK4    C1110159   9.802   6.696  10.910 -0.3270 -0.0268  0.1482
 1312HK4     H410160   9.908   6.668  10.919 -0.6567 -0.6326  2.7669
 1312HK4    C1210161   9.763   6.824  10.873  0.2235  0.1720  0.2421
 1312HK4     H510162   9.837   6.888  10.823  2.0242 -0.6226  1.8220
 1312HK4    C1310163   9.627   6.852  10.880  0.3018  0.5679  0.1460
 1312HK4     H610164   9.597   6.954  10.852 -1.8485 -0.3338 -0.9506
 1312HK4     C710165   9.750   6.478  11.023 -0.1691 -0.0129 -0.2146
 1312HK4     O210166   9.865   6.461  11.061 -0.0446 -0.2075 -0.6750
 1312HK4     C410167   9.648   6.386  11.079 -0.3827 -0.1656 -0.8507
 1312HK4     C310168   9.687   6.273  11.150 -0.0845  0.6542  0.3036
 1312HK4     H310169   9.794   6.245  11.155 -0.0051  0.8215 -0.4685
 1312HK4     C210170   9.595   6.188  11.209  0.1632 -0.4223 -0.8618
 1312HK4     H210171   9.625   6.103   0.025  0.6066  0.9005  0.7029
 1312HK4     C110172   9.461   6.223  11.204  0.2702  0.1674  0.2314
 1312HK4     H110173   9.383   6.149  11.227  1.7400 -1.3243  0.4907
 1312HK4     C610174   9.414   6.338  11.137  0.0318  0.1683  0.3955
 1312HK4     C510175   9.511   6.416  11.072 -0.3362  0.3109  0.0222
 1312HK4    C1010176   9.472   6.526  10.980 -0.2731  0.4650  0.1814
 1312HK4     O110177   9.396   6.501  10.886  0.8645  0.2486 -0.6920
 1312HK4    C1610178   9.291   6.398  11.190  0.0721  0.7731 -0.1805
 1312HK4    C1510179   9.267   6.384   0.081 -0.3411 -0.5398 -0.3686
 1312HK4     H710180   9.343   6.352   0.153  0.7713  1.8055 -0.4375
 1312HK4    C2010181   9.138   6.411   0.126 -0.0694 -0.2282  0.2234
 1312HK4     H910182   9.115   6.399   0.232 -1.7188 -1.4014 -0.2422
 1312HK4    C1910183   9.038   6.446   0.036 -0.0478  0.0653  0.3133
 1312HK4    C1810184   9.062   6.456  11.141 -0.1339  0.4525  0.3231
 1312HK4    C1710185   9.191   6.427  11.098 -0.2574  0.3167  0.0333
 1312HK4     H810186   9.203   6.405  10.992  2.4854  0.6740  0.2291
 1312HK4     N110187   8.946   6.459  11.060 -0.1785 -0.4009  0.3516
 1312HK4    C2110188   8.847   6.476  11.159 -0.0277  0.6709  0.3200
 1312HK4    C2210189   8.894   6.449   0.046 -0.0599  0.0101  0.1998
 1312HK4    C2610190   8.802   6.440   0.150  0.0791 -0.5608  0.2729
 1312HK4    H1310191   8.833   6.399   0.246  1.6783 -0.7339 -0.2917
 1312HK4    C2510192   8.668   6.470   0.128  0.1311 -0.2691  0.3442
 1312HK4    H1210193   8.602   6.486   0.213  0.2640  0.9742  0.2159
 1312HK4    C2410194   8.624   6.506   0.001  0.0107  0.1768  0.5131
 1312HK4    H1110195   8.530   6.560  11.233 -0.0710  0.0078  0.4310
 1312HK4    C2310196   8.711   6.501  11.141 -0.1686 -0.0224  0.3806
 1312HK4    H1010197   8.673   6.493  11.039 -2.1452 -1.5475  1.2189
 1312HK4    C3910198   8.925   6.380  10.947 -0.4381 -0.0577  0.1606
 1312HK4    C4110199   8.834   6.430  10.852 -0.6060 -0.1373  0.2779
 1312HK4    H2110200   8.811   6.538  10.843  3.2976  0.9227  1.6994
 1312HK4    C4210201   8.809   6.357  10.736  0.0203  0.3214 -0.1532
 1312HK4    H2210202   8.766   6.403  10.646  1.8262 -0.5648 -1.5071
 1312HK4    C4310203   8.868   6.233  10.714 -0.2532  0.2743 -0.6085
 1312HK4    H2310204   8.894   6.210  10.610  0.5465 -2.0170  0.0654
 1312HK4    C4410205   8.952   6.177  10.809 -0.3333  0.5620 -0.3690
 1312HK4    H2410206   8.998   6.079  10.789 -0.8322  0.1493  0.5023
 1312HK4    C4510207   8.977   6.250  10.925  0.3900  0.3634 -0.3953
 1312HK4    H2510208   9.048   6.215  11.000 -0.8626  1.6546  1.4359
 1313HK4    H2810209   5.405   1.557   2.112  1.3610 -0.2855 -4.6686
 1313HK4    C4810210   5.479   1.634   2.133  0.4091 -0.4324 -0.2769
 1313HK4    C4710211   5.486   1.680   2.264  0.1319 -0.1352 -0.3668
 1313HK4    H2710212   5.446   1.614   2.342 -1.2091 -0.3414 -1.2058
 1313HK4    C4610213   5.546   1.798   2.307  0.1633 -0.3946  0.3140
 1313HK4    H2610214   5.524   1.846   2.403  0.6407  1.9762 -0.7232
 1313HK4    C4010215   5.612   1.870   2.205 -0.6935  0.4518  0.3456
 1313HK4    C5010216   5.610   1.821   2.073  0.2695  0.1744  0.4264
 1313HK4    H3010217   5.669   1.873   1.996  0.7194 -0.5176  0.2989
 1313HK4    C4910218   5.536   1.711   2.032  0.3500  0.2121  0.1760
 1313HK4    H2910219   5.542   1.677   1.928  1.9362  1.5593 -0.1862
 1313HK4     N210220   5.707   1.969   2.235  0.3645 -0.2534 -0.6151
 1313HK4    C3010221   5.777   1.976   2.357 -0.0016  0.2499 -0.4353
 1313HK4    C2910222   5.838   1.871   2.424 -0.1218  0.0750 -0.6024
 1313HK4    H1510223   5.808   1.768   2.405 -1.4252  0.3412 -0.0020
 1313HK4    C2810224   5.932   1.890   2.525 -0.7223  0.0322 -0.0360
 1313HK4    C2710225   5.952   2.022   2.571  0.0462 -0.1018  0.0190
 1313HK4    H1410226   6.032   2.039   2.645 -0.8030 -1.2235  1.2194
 1313HK4    C3210227   5.883   2.126   2.509 -0.0497 -0.2376 -0.1028
 1313HK4    H1610228   5.900   2.230   2.537  1.0217 -0.9053  1.8494
 1313HK4    C3110229   5.796   2.113   2.402 -0.0072  0.1697 -0.1869
 1313HK4    C3410230   5.735   2.196   2.300 -0.4799 -0.0864 -0.1149
 1313HK4    C3310231   5.692   2.104   2.196 -0.6280 -0.1698  0.0206
 1313HK4    C3510232   5.650   2.165   2.079  0.2485  0.5282  0.0662
 1313HK4    H1710233   5.640   2.105   1.989 -0.6556  1.6499 -0.5978
 1313HK4    C3610234   5.652   2.303   2.062 -0.2812  0.5026 -0.1919
 1313HK4    H1810235   5.604   2.345   1.971 -0.2737 -0.3372 -0.5902
 1313HK4    C3710236   5.702   2.390   2.158 -0.4179 -0.0412  0.3735
 1313HK4    H1910237   5.674   2.495   2.160 -0.3127  0.0106 -0.6020
 1313HK4    C3810238   5.735   2.333   2.280 -0.0182 -0.0305  0.2704
 1313HK4    H2010239   5.772   2.396   2.361 -1.5125 -1.3245  2.0060
 1313HK4    C1410240   5.997   1.775   2.587  0.3307  0.5373 -0.1839
 1313HK4     C910241   6.038   1.776   2.721 -0.0194 -0.2373 -0.0662
 1313HK4     C810242   6.130   1.677   2.764  0.1864  0.0705  0.2047
 1313HK4    C1110243   6.175   1.584   2.671 -0.1962 -0.0076  0.0941
 1313HK4     H410244   6.246   1.505   2.698 -0.6126 -0.8212 -1.1634
 1313HK4    C1210245   6.140   1.586   2.537  0.1537 -0.2037 -0.0015
 1313HK4     H510246   6.192   1.525   2.461  0.5363  0.7654 -0.5388
 1313HK4    C1310247   6.051   1.684   2.494  0.3882  0.1219  0.2493
 1313HK4     H610248   5.995   1.673   2.400 -1.1838  1.0019  1.0594
 1313HK4     C710249   6.181   1.675   2.903 -0.5164 -0.0423  0.4630
 1313HK4     O210250   6.245   1.579   2.945  0.1613  0.4644  0.5919
 1313HK4     C410251   6.157   1.790   2.993 -0.4742 -0.2964  0.7979
 1313HK4     C310252   6.216   1.791   3.119  0.2819  0.9343  0.4422
 1313HK4     H310253   6.290   1.715   3.149 -0.4684 -0.4707 -1.1842
 1313HK4     C210254   6.185   1.891   3.211 -0.1485  0.3088  0.9826
 1313HK4     H210255   6.248   1.900   3.301 -1.0591  1.1227  1.5435
 1313HK4     C110256   6.098   1.990   3.166 -0.5849 -0.1210  0.8693
 1313HK4     H110257   6.080   2.061   3.248 -1.5145 -0.8493  1.2957
 1313HK4     C610258   6.042   2.001   3.038  0.5646 -0.0181  0.3707
 1313HK4     C510259   6.062   1.888   2.957 -0.0598 -0.0775  0.2987
 1313HK4    C1010260   5.987   1.862   2.831  0.5485  0.1672 -0.1158
 1313HK4     O110261   5.865   1.876   2.835  0.4424 -0.6579 -0.3709
 1313HK4    C1610262   6.029   2.140   2.993 -0.0163 -0.1003  0.2793
 1313HK4    C1510263   6.096   2.240   3.067  0.2169  0.1363 -0.2477
 1313HK4     H710264   6.182   2.206   3.127 -0.4432 -0.5775  0.3140
 1313HK4    C2010265   6.067   2.375   3.054 -0.0501  0.0771 -0.2780
 1313HK4     H910266   6.116   2.457   3.107 -0.8357  0.0105  0.5609
 1313HK4    C1910267   5.962   2.415   2.973 -0.5736  0.1179  0.4144
 1313HK4    C1810268   5.890   2.316   2.895 -0.0083  0.0809 -0.0647
 1313HK4    C1710269   5.932   2.184   2.904 -0.1017  0.0846  0.4595
 1313HK4     H810270   5.884   2.111   2.838  1.7682 -0.8658  0.1005
 1313HK4     N110271   5.807   2.369   2.794 -0.0065  0.4147  0.1104
 1313HK4    C2110272   5.837   2.506   2.804  0.0146  0.3835  0.5006
 1313HK4    C2210273   5.935   2.540   2.905 -0.5565  0.4597  1.0345
 1313HK4    C2610274   6.003   2.661   2.919 -0.1818  0.2906  0.6826
 1313HK4    H1310275   6.072   2.668   3.003  0.2469  2.0558  0.1821
 1313HK4    C2510276   5.981   2.754   2.818 -0.5319 -0.5362 -0.0092
 1313HK4    H1210277   6.034   2.849   2.819 -0.1374 -0.7468 -0.3623
 1313HK4    C2410278   5.889   2.733   2.716 -0.3481  0.2485 -0.3359
 1313HK4    H1110279   5.878   2.808   2.636  2.4856  1.0958  0.0180
 1313HK4    C2310280   5.816   2.614   2.719  0.2011 -0.0851 -0.1439
 1313HK4    H1010281   5.728   2.612   2.656 -0.6816 -0.6295  1.0909
 1313HK4    C3910282   5.691   2.314   2.738  0.4788 -0.4024 -0.1040
 1313HK4    C4110283   5.613   2.211   2.795  0.1463 -0.0637  0.0620
 1313HK4    H2110284   5.657   2.159   2.882 -0.4534  0.0176  0.4138
 1313HK4    C4210285   5.494   2.162   2.743 -0.1836 -0.0294  0.7709
 1313HK4    H2210286   5.436   2.079   2.786  0.1433  0.8895  3.0194
 1313HK4    C4310287   5.447   2.223   2.627  0.1726 -0.8596  0.1805
 1313HK4    H2310288   5.346   2.202   2.592  0.1032 -0.9148  0.4089
 1313HK4    C4410289   5.520   2.322   2.562  0.2814 -1.1573 -0.1509
 1313HK4    H2410290   5.488   2.372   2.469  1.2260  0.7134  0.5011
 1313HK4    C4510291   5.638   2.368   2.620 -0.0781 -0.5274  0.0860
 1313HK4    H2510292   5.710   2.424   2.558 -0.2152 -1.2515 -0.7347
 1314HK4    H2810293  10.300   2.550   6.607  0.7695  1.6692 -1.3885
 1314HK4    C4810294  10.385   2.514   6.664 -0.4822  0.2097 -0.4190
 1314HK4    C4710295  10.419   2.579   6.782 -0.3977 -1.2101  0.3552
 1314HK4    H2710296  10.381   2.680   6.802 -1.5793 -1.7432  0.8145
 1314HK4    C4610297  10.516   2.522   6.863  0.5321 -0.1383  0.0182
 1314HK4    H2610298  10.557   2.576   6.950 -0.7091  1.7291 -0.5428
 1314HK4    C4010299  10.567   2.392   6.841  0.2121 -0.2144 -0.2689
 1314HK4    C5010300  10.528   2.331   6.720  0.7616  0.2869 -0.7001
 1314HK4    H3010301  10.566   2.232   6.691  3.1976  0.0595  2.9367
 1314HK4    C4910302  10.440   2.391   6.631  0.1833  0.4056 -0.0551
 1314HK4    H2910303  10.415   2.332   6.541  0.5915 -2.2224  1.4939
 1314HK4     N210304  10.658   2.326   6.925  0.6146  0.1398 -0.4314
 1314HK4    C3010305  10.743   2.393   7.015 -0.0131  0.1447  0.1669
 1314HK4    C2910306  10.799   2.520   7.004 -0.9494  0.5882  0.4840
 1314HK4    H1510307  10.791   2.568   6.907  0.5733 -2.5410 -1.2562
 1314HK4    C2810308  10.889   2.567   7.099  0.4412 -0.3340 -0.3638
 1314HK4    C2710309  10.926   2.483   7.207 -0.4738  0.4620  0.5805
 1314HK4    H1410310  10.997   2.505   7.288 -0.9964 -0.7730  1.3941
 1314HK4    C3210311  10.872   2.355   7.218 -0.2606  0.3385  0.2373
 1314HK4    H1610312  10.911   2.294   7.300  0.7553 -0.8387 -1.1120
 1314HK4    C3110313  10.779   2.308   7.127 -0.1494  0.1557  0.2191
 1314HK4    C3410314  10.716   2.182   7.093 -0.4031  0.3225  0.0755
 1314HK4    C3310315  10.652   2.191   6.963 -0.3308  0.3036  0.0358
 1314HK4    C3510316  10.600   2.076   6.904  0.6668 -0.0217 -0.2220
 1314HK4    H1710317  10.591   2.056   6.797  0.7616 -0.1686 -0.2018
 1314HK4    C3610318  10.590   1.957   6.975 -0.7188  0.4507  0.3848
 1314HK4    H1810319  10.533   1.873   6.934  1.5380 -0.8090 -0.2103
 1314HK4    C3710320  10.649   1.951   7.101 -0.7380 -0.0143  0.3704
 1314HK4    H1910321  10.649   1.853   7.149 -1.0185 -0.0683  0.2589
 1314HK4    C3810322  10.713   2.060   7.159 -0.8377  0.2659 -0.0451
 1314HK4    H2010323  10.776   2.044   7.247 -3.0387 -1.6745  1.2643
 1314HK4    C1410324  10.948   2.702   7.095  0.1044 -0.1818 -0.1385
 1314HK4     C910325  11.056   2.747   7.172  0.2656  0.2848 -0.6398
 1314HK4     C810326  11.052   2.877   7.226  0.2934  0.3518 -0.7957
 1314HK4    C1110327  10.952   2.965   7.186  0.3142  0.6485 -0.2047
 1314HK4     H410328  10.953   3.071   7.217  2.4155  0.9690 -1.3045
 1314HK4    C1210329  10.853   2.927   7.096  0.1232  0.2899  0.1561
 1314HK4     H510330  10.773   2.997   7.069  0.9545  0.5957 -1.5803
 1314HK4    C1310331  10.849   2.794   7.055  0.3620  0.2575  0.2349
 1314HK4     H610332  10.780   2.769   6.973  1.5382  0.9196 -0.9967
 1314HK4     C710333  11.164   2.928   7.308 -0.1166  0.1054 -0.0788
 1314HK4     O210334  11.162   3.045   7.347  0.0485 -0.0471  0.3922
 1314HK4     C410335   0.033   2.843   7.336 -0.2097  0.1022  0.3102
 1314HK4     C310336   0.129   2.892   7.425  0.4947 -0.4692 -0.1283
 1314HK4     H310337   0.160   2.996   7.412 -1.6356 -0.0641 -2.4010
 1314HK4     C210338   0.222   2.806   7.483  0.5982  0.0284  0.4408
 1314HK4     H210339   0.281   2.837   7.570 -0.0396  4.1451 -0.4802
 1314HK4     C110340   0.214   2.673   7.444  0.1166  0.1166  0.2274
 1314HK4     H110341   0.301   2.609   7.468 -0.7313 -1.3564 -0.5727
 1314HK4     C610342   0.122   2.618   7.353  0.0235  0.2957  0.2137
 1314HK4     C510343   0.033   2.708   7.293 -0.1102  0.1424  0.1805
 1314HK4    C1010344  11.179   2.665   7.193  0.1377  0.2301 -0.1081
 1314HK4     O110345  11.215   2.610   7.090 -0.4909 -0.0021 -0.2062
 1314HK4    C1610346   0.098   2.474   7.369 -0.0794  0.2743 -0.1279
 1314HK4    C1510347   0.121   2.397   7.485  0.4522  0.2906 -0.2200
 1314HK4     H710348   0.143   2.442   7.583  0.3605  0.4343 -0.2668
 1314HK4    C2010349   0.089   2.263   7.500 -0.2841  0.4823 -0.0605
 1314HK4     H910350   0.118   2.217   7.595 -1.3029  0.2909  0.1650
 1314HK4    C1910351   0.029   2.193   7.397  0.3107  0.0011 -0.0803
 1314HK4    C1810352   0.009   2.266   7.273  0.5368 -0.5153 -0.4262
 1314HK4    C1710353   0.058   2.396   7.261 -0.1242 -0.2016  0.2346
 1314HK4     H810354   0.099   2.418   7.163 -3.5188 -2.2301 -1.7291
 1314HK4     N110355  11.171   2.193   7.189 -0.2144 -0.1010 -0.0218
 1314HK4    C2110356  11.134   2.078   7.261 -0.4002  0.2934  0.5210
 1314HK4    C2210357  11.199   2.071   7.390 -0.0443  0.2061  0.3391
 1314HK4    C2610358  11.179   1.977   7.491  0.4938 -0.0286  0.2268
 1314HK4    H1310359  11.239   1.983   7.582  3.8573  2.4080 -2.0291
 1314HK4    C2510360  11.082   1.881   7.465  0.3563  0.3662 -0.7114
 1314HK4    H1210361  11.085   1.789   7.523  0.9467  1.5658  1.2083
 1314HK4    C2410362  11.011   1.887   7.345  0.0765 -0.5089 -0.5892
 1314HK4    H1110363  10.929   1.815   7.333  1.6848 -2.9934  2.4400
 1314HK4    C2310364  11.034   1.983   7.247 -0.0028 -0.0360 -0.1462
 1314HK4    H1010365  10.995   1.966   7.147 -1.5265 -1.3301  0.6354
 1314HK4    C3910366  11.181   2.200   7.049  0.0268  0.6805  0.0333
 1314HK4    C4110367   0.047   2.242   6.978 -0.3113  0.5029 -0.6211
 1314HK4    H2110368   0.147   2.222   7.021  0.1176  2.9573 -0.3528
 1314HK4    C4210369   0.036   2.283   6.846  0.1286  0.2760 -0.7302
 1314HK4    H2210370   0.130   2.300   6.792  0.3559  1.0680 -0.0895
 1314HK4    C4310371  11.162   2.275   6.779 -0.1668 -0.1799 -0.1438
 1314HK4    H2310372  11.169   2.306   6.675  2.4860 -1.7082 -0.4519
 1314HK4    C4410373  11.048   2.236   6.848 -0.0694  0.3709  0.3290
 1314HK4    H2410374  10.953   2.243   6.795  0.1933 -1.8527 -0.5026
 1314HK4    C4510375  11.058   2.194   6.981 -0.1485  0.4651  0.3642
 1314HK4    H2510376  10.971   2.148   7.031  0.2606 -1.2624 -0.4773
 1315HK4    H2810377   8.141   1.841   7.411  2.3669 -2.9850 -0.1859
 1315HK4    C4810378   8.120   1.812   7.514 -0.5929  0.1126  0.1745
 1315HK4    C4710379   8.037   1.877   7.605 -0.4828 -0.2189  0.5117
 1315HK4    H2710380   7.988   1.972   7.578 -0.3120 -0.2918 -0.0667
 1315HK4    C4610381   8.010   1.825   7.731 -0.3467  0.2562  0.7379
 1315HK4    H2610382   7.948   1.890   7.795  1.2137  2.0048  0.5285
 1315HK4    C4010383   8.067   1.706   7.781 -0.1263 -0.0090 -0.1475
 1315HK4    C5010384   8.166   1.654   7.694  0.3565  0.2259  0.2586
 1315HK4    H3010385   8.229   1.570   7.726  0.4592 -0.1056 -0.8077
 1315HK4    C4910386   8.185   1.701   7.565 -0.6478  0.0087  0.0206
 1315HK4    H2910387   8.263   1.652   7.505  0.7890  1.7855  0.3723
 1315HK4     N210388   8.022   1.644   7.897  0.4111 -0.0421  0.0443
 1315HK4    C3010389   7.892   1.652   7.952  0.1894 -0.4596 -0.4161
 1315HK4    C2910390   7.765   1.674   7.901  0.1374 -0.1879 -0.1685
 1315HK4    H1510391   7.755   1.653   7.794 -1.4779 -1.5108  0.2256
 1315HK4    C2810392   7.646   1.664   7.972 -0.1389 -0.6089 -0.6830
 1315HK4    C2710393   7.656   1.619   8.105 -0.2660 -0.1332 -0.5094
 1315HK4    H1410394   7.570   1.593   8.169 -0.8938  0.4877 -1.0962
 1315HK4    C3210395   7.779   1.602   8.168 -0.3751  0.2316 -0.1960
 1315HK4    H1610396   7.789   1.576   8.274 -2.7927  0.4972  0.1438
 1315HK4    C3110397   7.894   1.623   8.094 -0.4235  0.2839 -0.2564
 1315HK4    C3410398   8.033   1.600   8.130 -0.4855  0.1271 -0.1172
 1315HK4    C3310399   8.106   1.608   8.005  0.0547 -0.5431  0.1530
 1315HK4    C3510400   8.245   1.616   8.006  0.0210 -0.0126  0.3911
 1315HK4    H1710401   8.295   1.659   7.919 -0.7051  1.3711  0.6394
 1315HK4    C3610402   8.319   1.611   8.123  0.5770  0.2520  0.0527
 1315HK4    H1810403   8.426   1.639   8.126  0.8916 -0.5944 -2.2463
 1315HK4    C3710404   8.247   1.603   8.242  0.0459  0.2984 -0.2666
 1315HK4    H1910405   8.293   1.608   8.341 -1.2555 -0.0709  0.3628
 1315HK4    C3810406   8.108   1.600   8.247  0.0513 -0.2757 -0.4632
 1315HK4    H2010407   8.054   1.582   8.339  0.8201 -0.7484 -0.0979
 1315HK4    C1410408   7.530   1.751   7.946  0.3546  0.2897  0.0740
 1315HK4     C910409   7.466   1.825   8.045 -0.0226 -0.0270  0.0667
 1315HK4     C810410   7.326   1.836   8.028  0.0060  0.0124 -0.1452
 1315HK4    C1110411   7.257   1.776   7.923  0.0165 -0.6801  0.2422
 1315HK4     H410412   7.147   1.782   7.922  0.0870  1.3102  1.1392
 1315HK4    C1210413   7.323   1.706   7.824 -0.0240  0.5608 -0.6808
 1315HK4     H510414   7.268   1.636   7.759 -0.8202  0.4463  0.1045
 1315HK4    C1310415   7.462   1.702   7.833 -0.0926  0.2767  0.3496
 1315HK4     H610416   7.514   1.630   7.768 -1.7774 -1.0332  0.4027
 1315HK4     C710417   7.253   1.906   8.136 -0.0643  0.7721 -0.6803
 1315HK4     O210418   7.134   1.883   8.156  0.2425  0.0735  0.3141
 1315HK4     C410419   7.329   2.002   8.218 -0.0996  0.2371 -0.0194
 1315HK4     C310420   7.269   2.076   8.319 -0.3883 -0.1753  0.1126
 1315HK4     H310421   7.174   2.039   8.361 -0.4588  1.9495  1.9065
 1315HK4     C210422   7.330   2.183   8.385  0.0271 -0.1092 -0.3772
 1315HK4     H210423   7.274   2.251   8.450  1.3894 -0.1427  0.8516
 1315HK4     C110424   7.460   2.216   8.348  0.0660  0.2822  0.1186
 1315HK4     H110425   7.502   2.301   8.404 -1.3892  0.2304  1.3057
 1315HK4     C610426   7.529   2.149   8.245 -0.1850  0.1342  0.0435
 1315HK4     C510427   7.464   2.037   8.193 -0.0565  0.0823 -0.0049
 1315HK4    C1010428   7.539   1.926   8.127 -0.1103 -0.0911  0.2232
 1315HK4     O110429   7.651   1.897   8.168 -0.2299 -0.4110  0.3271
 1315HK4    C1610430   7.650   2.211   8.188  0.2893 -0.4559  0.4041
 1315HK4    C1510431   7.739   2.296   8.257 -0.0369 -0.2245  0.5409
 1315HK4     H710432   7.732   2.285   8.366  0.4097  0.9102  0.6959
 1315HK4    C2010433   7.833   2.375   8.192 -0.2251 -0.1783  0.3214
 1315HK4     H910434   7.911   2.425   8.249  0.0915 -0.2602 -0.0389
 1315HK4    C1910435   7.841   2.367   8.053  0.5404 -0.4587  0.3801
 1315HK4    C1810436   7.743   2.293   7.976  0.2095 -0.1094  0.4674
 1315HK4    C1710437   7.650   2.219   8.049 -0.0409  0.1765  0.4421
 1315HK4     H810438   7.565   2.183   7.992 -0.8707 -0.9330  2.3194
 1315HK4     N110439   7.765   2.291   7.837 -0.2997 -0.0333  0.3830
 1315HK4    C2110440   7.874   2.379   7.821  0.2079 -0.7231  0.0049
 1315HK4    C2210441   7.909   2.441   7.948 -0.2226 -0.3671 -0.0484
 1315HK4    C2610442   8.005   2.540   7.954 -1.3701  0.7938 -0.6711
 1315HK4    H1310443   8.042   2.575   8.051  0.6377  1.0930 -1.5199
 1315HK4    C2510444   8.071   2.584   7.840 -0.3575  0.6597 -0.1390
 1315HK4    H1210445   8.150   2.659   7.844 -0.3492  0.7189 -1.2256
 1315HK4    C2410446   8.035   2.529   7.718 -0.4606  0.2288  0.0862
 1315HK4    H1110447   8.066   2.575   7.623 -0.1176  1.1235  0.6341
 1315HK4    C2310448   7.941   2.427   7.709  0.0838 -0.2815  0.1175
 1315HK4    H1010449   7.913   2.380   7.615  0.1218  0.3489 -0.2118
 1315HK4    C3910450   7.736   2.188   7.747 -0.0606  0.1415  0.1037
 1315HK4    C4110451   7.724   2.219   7.610 -0.0250  0.1628  0.1051
 1315HK4    H2110452   7.724   2.317   7.560 -0.6077 -0.0943 -0.4034
 1315HK4    C4210453   7.701   2.118   7.518 -0.1048 -0.1769  0.4976
 1315HK4    H2210454   7.651   2.141   7.423 -3.1122  1.9953  2.5158
 1315HK4    C4310455   7.699   1.983   7.553  0.2179 -0.4032 -0.3343
 1315HK4    H2310456   7.704   1.907   7.476 -2.0433  0.4425 -1.3704
 1315HK4    C4410457   7.707   1.948   7.688 -0.0894  0.1600 -0.1673
 1315HK4    H2410458   7.679   1.844   7.710  1.8088 -0.2150  0.5657
 1315HK4    C4510459   7.725   2.051   7.780  0.0957  0.0773 -0.1096
 1315HK4    H2510460   7.727   2.028   7.887  0.1858 -1.8155 -0.5019
 1316HK4    H2810461   1.222   3.700   1.126  0.2669  0.3898  0.6392
 1316HK4    C4810462   1.222   3.777   1.048  0.4620  0.0285  0.2820
 1316HK4    C4710463   1.210   3.738   0.915  0.4077 -0.1822  0.3494
 1316HK4    H2710464   1.191   3.632   0.890  0.9789 -0.0556 -0.6414
 1316HK4    C4610465   1.211   3.829   0.811 -0.1776 -0.0671  0.4389
 1316HK4    H2610466   1.198   3.791   0.708  0.0529  0.3875  0.2397
 1316HK4    C4010467   1.225   3.966   0.842  0.5408 -0.0992  0.2830
 1316HK4    C5010468   1.238   4.002   0.978  0.3673  0.0507  0.2601
 1316HK4    H3010469   1.269   4.103   1.008 -2.0034  1.1434 -0.8393
 1316HK4    C4910470   1.233   3.911   1.083  0.3143  0.0474  0.2540
 1316HK4    H2910471   1.212   3.948   1.184  0.4234  1.0213 -0.0772
 1316HK4     N210472   1.243   4.064   0.744  0.1118 -0.1797  0.1223
 1316HK4    C3010473   1.285   4.040   0.612  0.2139 -0.0651  0.1335
 1316HK4    C2910474   1.402   3.973   0.576  0.3039  0.0270  0.2555
 1316HK4    H1510475   1.453   3.921   0.658 -0.6178 -1.4439 -0.0818
 1316HK4    C2810476   1.470   3.992   0.457  0.1001  0.0426  0.1422
 1316HK4    C2710477   1.423   4.094   0.371  0.4057  0.3024  0.2856
 1316HK4    H1410478   1.470   4.115   0.274  2.0744  2.0501  1.4285
 1316HK4    C3210479   1.315   4.174   0.405  0.1476 -0.0687  0.3383
 1316HK4    H1610480   1.280   4.257   0.344  1.1467  0.5260  0.5478
 1316HK4    C3110481   1.242   4.143   0.520  0.0661  0.0342  0.3141
 1316HK4    C3410482   1.161   4.229   0.603  0.0728 -0.0853  0.4426
 1316HK4    C3310483   1.190   4.195   0.741  0.2513 -0.1164  0.3969
 1316HK4    C3510484   1.152   4.284   0.841 -0.0996 -0.1873  0.3268
 1316HK4    H1710485   1.187   4.259   0.941  0.5224  1.5846  0.5650
 1316HK4    C3610486   1.084   4.402   0.810  0.1813 -0.0468  0.2449
 1316HK4    H1810487   1.071   4.480   0.886  3.1690  0.1098  0.6785
 1316HK4    C3710488   1.056   4.431   0.677  0.5558  0.0528  0.1882
 1316HK4    H1910489   1.000   4.520   0.649 -1.3462 -0.6890  1.5717
 1316HK4    C3810490   1.087   4.343   0.574 -0.3913 -0.4175  0.3039
 1316HK4    H2010491   1.045   4.360   0.475 -0.2285  2.0278  0.6264
 1316HK4    C1410492   1.608   3.943   0.444  0.2494  0.1578  1.2657
 1316HK4     C910493   1.709   4.003   0.369 -0.1801 -0.1836  0.4034
 1316HK4     C810494   1.820   3.929   0.323 -0.4709 -0.2848 -0.1313
 1316HK4    C1110495   1.836   3.798   0.367 -0.0249 -0.0198  0.4830
 1316HK4     H410496   1.937   3.754   0.362  0.5315  1.2738 -0.1045
 1316HK4    C1210497   1.730   3.734   0.430 -0.1518 -0.2434  0.0413
 1316HK4     H510498   1.734   3.625   0.420  0.9413 -0.0261 -2.1611
 1316HK4    C1310499   1.616   3.804   0.468 -0.1076 -0.1076 -0.0747
 1316HK4     H610500   1.546   3.752   0.536 -1.7833  0.7224 -1.1463
 1316HK4     C710501   1.913   3.991   0.226 -0.2598  0.2245  0.3930
 1316HK4     O210502   2.020   3.936   0.201 -0.4157 -0.0963  0.4354
 1316HK4     C410503   1.888   4.130   0.181  0.1350  0.2440  0.2356
 1316HK4     C310504   1.962   4.170   0.071  0.2930 -0.3423  0.1254
 1316HK4     H310505   2.048   4.112   0.034  1.2045  0.1410  1.4629
 1316HK4     C210506   1.936   4.297   0.019 -0.2559 -0.4391  0.1591
 1316HK4     H210507   1.989   4.320  11.173 -2.3773 -2.9756 -1.7175
 1316HK4     C110508   1.831   4.372   0.069 -0.4699 -0.4555 -0.2640
 1316HK4     H110509   1.799   4.460   0.010 -1.4765  0.5468  1.7128
 1316HK4     C610510   1.755   4.332   0.181 -0.0582 -0.2064  0.1063
 1316HK4     C510511   1.787   4.209   0.240 -0.0492 -0.0839  0.3589
 1316HK4    C1010512   1.701   4.150   0.347 -0.0305 -0.1866  0.3177
 1316HK4     O110513   1.692   4.216   0.450  0.0092  0.7876 -0.2946
 1316HK4    C1610514   1.631   4.408   0.197  0.3549  0.4256  0.3676
 1316HK4    C1510515   1.562   4.448   0.080 -0.1216 -0.2663  0.4074
 1316HK4     H710516   1.592   4.420  11.226  1.1098  0.4638  0.5680
 1316HK4    C2010517   1.471   4.552   0.092  0.1367  0.0193 -0.1140
 1316HK4     H910518   1.406   4.573   0.006  0.8173 -0.0605 -0.6467
 1316HK4    C1910519   1.443   4.619   0.211  0.2044  0.1099 -0.1496
 1316HK4    C1810520   1.512   4.580   0.332  0.7123  1.0874 -0.1177
 1316HK4    C1710521   1.598   4.472   0.316 -0.1360  0.3405  0.2805
 1316HK4     H810522   1.675   4.443   0.388 -0.7489 -1.2435  0.3171
 1316HK4     N110523   1.467   4.654   0.443 -0.7011 -0.0940  0.1128
 1316HK4    C2110524   1.388   4.755   0.386  0.0878  0.4061 -0.0950
 1316HK4    C2210525   1.370   4.740   0.242 -0.3619 -0.2736  0.0308
 1316HK4    C2610526   1.308   4.839   0.167  0.5852  0.3832  0.1050
 1316HK4    H1310527   1.306   4.833   0.058 -1.9490 -0.3711  0.1690
 1316HK4    C2510528   1.257   4.944   0.242 -0.0653  0.5193 -0.5264
 1316HK4    H1210529   1.185   5.010   0.193 -0.4314  0.1074 -0.5432
 1316HK4    C2410530   1.278   4.968   0.377  0.3785  0.4772 -0.5851
 1316HK4    H1110531   1.242   5.057   0.431  0.5078  0.0811  0.1645
 1316HK4    C2310532   1.351   4.874   0.448 -0.0964  0.3999 -0.1934
 1316HK4    H1010533   1.361   4.892   0.555 -0.8447  0.5966 -0.1576
 1316HK4    C3910534   1.461   4.611   0.576 -0.2820 -0.1677  0.1085
 1316HK4    C4110535   1.456   4.701   0.685  0.1956  0.2832 -0.2390
 1316HK4    H2110536   1.513   4.794   0.676 -0.0102  0.2893 -1.5620
 1316HK4    C4210537   1.426   4.669   0.817 -0.1883 -0.6608 -0.5442
 1316HK4    H2210538   1.433   4.739   0.902 -0.9364 -0.2854 -0.7830
 1316HK4    C4310539   1.408   4.533   0.839 -0.2248 -0.4788  0.6011
 1316HK4    H2310540   1.358   4.501   0.930 -2.8150  0.5195 -0.4276
 1316HK4    C4410541   1.425   4.436   0.742  0.0892  0.2158 -0.0483
 1316HK4    H2410542   1.446   4.331   0.770  0.2475 -0.5557 -2.8881
 1316HK4    C4510543   1.455   4.475   0.612 -0.3383 -0.2698 -0.2943
 1316HK4    H2510544   1.458   4.392   0.539 -2.8470 -1.1894  0.5606
 1317HK4    H2810545   3.125   9.614   5.520  1.9440 -0.9373 -0.5933
 1317HK4    C4810546   3.098   9.543   5.599 -0.6140  0.2995 -0.2842
 1317HK4    C4710547   3.065   9.411   5.572 -0.1968  0.0732  0.3151
 1317HK4    H2710548   3.088   9.366   5.474  2.1029  1.7504  0.0468
 1317HK4    C4610549   3.035   9.328   5.680 -0.0482 -0.0847  0.2345
 1317HK4    H2610550   2.998   9.226   5.658 -3.4691  0.9187  1.0107
 1317HK4    C4010551   3.024   9.370   5.814  0.2792 -0.0039  0.2380
 1317HK4    C5010552   3.043   9.508   5.836 -0.2208  0.1010  0.0121
 1317HK4    H3010553   3.022   9.560   5.930  1.4969  2.2539 -0.7503
 1317HK4    C4910554   3.082   9.589   5.730  0.1266 -0.1299 -0.0367
 1317HK4    H2910555   3.107   9.693   5.755  2.6632 -0.4467 -1.0532
 1317HK4     N210556   3.045   9.276   5.916  0.1406  0.0432  0.3071
 1317HK4    C3010557   3.106   9.149   5.919  0.0798  0.0129  0.5030
 1317HK4    C2910558   3.180   9.085   5.820 -0.2288  0.6793 -0.1687
 1317HK4    H1510559   3.211   9.146   5.735  2.7021 -0.3707  0.0873
 1317HK4    C2810560   3.209   8.949   5.820 -0.6400  0.5892 -0.0813
 1317HK4    C2710561   3.164   8.875   5.931  0.9422  0.0235  0.2010
 1317HK4    H1410562   3.189   8.769   5.947  1.9660  0.0777 -0.9400
 1317HK4    C3210563   3.093   8.935   6.035 -0.1428 -0.2547 -0.3739
 1317HK4    H1610564   3.053   8.874   6.116  2.1057  0.4495  1.2842
 1317HK4    C3110565   3.071   9.072   6.036 -0.0248 -0.2397  0.3023
 1317HK4    C3410566   3.002   9.168   6.120  0.0991  0.1223 -0.0070
 1317HK4    C3310567   2.970   9.282   6.036 -0.4833 -0.0884 -0.0735
 1317HK4    C3510568   2.896   9.388   6.086  0.6924  0.5526  0.3264
 1317HK4    H1710569   2.847   9.454   6.015 -0.1131 -0.3413  0.0473
 1317HK4    C3610570   2.846   9.382   6.216 -0.3678 -0.2506 -0.1125
 1317HK4    H1810571   2.784   9.465   6.252 -0.2127 -0.0365 -0.3450
 1317HK4    C3710572   2.881   9.276   6.299 -1.2396 -0.5751 -0.1575
 1317HK4    H1910573   2.836   9.263   6.397 -1.2694 -0.1146 -0.1123
 1317HK4    C3810574   2.954   9.168   6.250  0.4084  0.4086  0.1062
 1317HK4    H2010575   2.970   9.080   6.312 -1.2795  0.6059  0.8304
 1317HK4    C1410576   3.236   8.879   5.694  0.1561  0.2592  0.2695
 1317HK4     C910577   3.188   8.749   5.669 -0.1035  0.3656  0.1972
 1317HK4     C810578   3.275   8.658   5.607 -0.2958  0.6239 -0.4484
 1317HK4    C1110579   3.405   8.695   5.571 -0.1085  0.0009 -0.3998
 1317HK4     H410580   3.487   8.622   5.576 -1.1218 -1.1273  0.1986
 1317HK4    C1210581   3.443   8.828   5.576 -0.0921 -0.0262  0.3298
 1317HK4     H510582   3.543   8.860   5.545 -0.7118 -0.3396 -2.0639
 1317HK4    C1310583   3.357   8.920   5.635 -0.2661  0.3682 -0.5343
 1317HK4     H610584   3.385   9.026   5.630 -0.2285  0.4528  1.1847
 1317HK4     C710585   3.214   8.535   5.553  0.2372  0.1818 -0.0485
 1317HK4     O210586   3.291   8.450   5.506  0.1321  0.0396  0.0358
 1317HK4     C410587   3.073   8.499   5.580  0.3475  0.0575  0.3708
 1317HK4     C310588   3.015   8.386   5.524 -0.0895  0.7367 -0.5729
 1317HK4     H310589   3.073   8.316   5.461 -0.2710  0.0064  0.0673
 1317HK4     C210590   2.882   8.357   5.548  0.1009  0.4652  0.1651
 1317HK4     H210591   2.827   8.284   5.485  2.8971 -0.7841 -0.9038
 1317HK4     C110592   2.817   8.418   5.654  0.2805 -0.8523  1.0504
 1317HK4     H110593   2.715   8.385   5.678 -0.3641  1.0945  1.1125
 1317HK4     C610594   2.880   8.521   5.728 -0.2915  0.3016 -0.0420
 1317HK4     C510595   3.002   8.570   5.679  0.0212 -0.1455  0.2830
 1317HK4    C1010596   3.048   8.710   5.703  0.1318 -0.2157  0.4891
 1317HK4     O110597   2.958   8.792   5.689  0.1626 -0.2734 -0.0631
 1317HK4    C1610598   2.832   8.552   5.863 -0.0760  0.1232  0.0772
 1317HK4    C1510599   2.920   8.588   5.967 -0.1399 -0.4938  0.3442
 1317HK4     H710600   3.027   8.569   5.947  0.4164  3.2462 -0.6133
 1317HK4    C2010601   2.893   8.658   6.084 -0.0072  0.2286 -0.0592
 1317HK4     H910602   2.972   8.701   6.145  0.8402 -0.0846 -0.9172
 1317HK4    C1910603   2.757   8.679   6.105 -0.0651  0.0557 -0.2619
 1317HK4    C1810604   2.657   8.645   6.005 -0.1901  1.1102 -0.4921
 1317HK4    C1710605   2.699   8.580   5.890 -0.0090  0.7385 -0.2160
 1317HK4     H810606   2.625   8.530   5.827 -0.6498  2.1932 -0.6213
 1317HK4     N110607   2.526   8.666   6.055 -0.1449 -0.5680  0.3723
 1317HK4    C2110608   2.540   8.709   6.189 -0.1639 -0.6989  0.4162
 1317HK4    C2210609   2.681   8.710   6.224 -0.0162 -0.1452 -0.1794
 1317HK4    C2610610   2.711   8.766   6.348  0.0856  0.3447 -0.4238
 1317HK4    H1310611   2.804   8.731   6.393 -0.5074 -0.3446  0.2841
 1317HK4    C2510612   2.616   8.836   6.420  0.1072  0.1370 -0.1942
 1317HK4    H1210613   2.661   8.914   6.482 -1.2585  1.5933 -0.9836
 1317HK4    C2410614   2.481   8.841   6.387  0.1453  0.0020 -0.3702
 1317HK4    H1110615   2.403   8.890   6.446 -0.8016  0.4202 -1.9380
 1317HK4    C2310616   2.447   8.769   6.273 -0.3156 -0.2382 -0.0847
 1317HK4    H1010617   2.342   8.774   6.247 -0.5290  1.8474  1.0326
 1317HK4    C3910618   2.417   8.681   5.968  0.2247  0.2258  0.0407
 1317HK4    C4110619   2.287   8.653   6.013  0.1461 -0.6505 -0.7305
 1317HK4    H2110620   2.268   8.589   6.100 -1.5919  0.7564 -0.0535
 1317HK4    C4210621   2.173   8.684   5.940 -0.4618  0.2339  0.5821
 1317HK4    H2210622   2.070   8.671   5.976 -0.7380  0.5346 -0.0870
 1317HK4    C4310623   2.186   8.747   5.816  0.0022  0.1057  0.5678
 1317HK4    H2310624   2.102   8.781   5.757  1.3768 -1.8343 -2.6412
 1317HK4    C4410625   2.315   8.770   5.769 -0.1873  0.1382  0.0650
 1317HK4    H2410626   2.329   8.814   5.670  1.4739  0.1996  0.3201
 1317HK4    C4510627   2.429   8.748   5.844 -0.1492  0.3527  0.0719
 1317HK4    H2510628   2.527   8.758   5.794  0.0760 -0.8087  0.2624
 1318HK4    H2810629   3.644   9.844   0.498 -1.3092 -1.0762  1.7229
 1318HK4    C4810630   3.736   9.795   0.529 -0.0260  0.0186 -0.2566
 1318HK4    C4710631   3.753   9.660   0.500 -0.1315 -0.2554  0.9475
 1318HK4    H2710632   3.662   9.599   0.483 -0.5462  0.7897 -0.6324
 1318HK4    C4610633   3.878   9.602   0.518  0.1023 -0.0529 -0.0410
 1318HK4    H2610634   3.898   9.505   0.471 -0.1834  0.5237 -1.3822
 1318HK4    C4010635   3.986   9.676   0.568 -0.3790  0.0252  0.8827
 1318HK4    C5010636   3.965   9.812   0.601 -0.3590  0.3133 -0.2885
 1318HK4    H3010637   4.044   9.873   0.645 -0.9598 -0.8119  2.4464
 1318HK4    C4910638   3.841   9.871   0.580 -0.5888  0.1787  0.6630
 1318HK4    H2910639   3.828   9.975   0.615  0.1895  0.0977  1.2022
 1318HK4     N210640   4.113   9.619   0.582 -0.0802  0.4080 -0.2452
 1318HK4    C3010641   4.134   9.480   0.591 -0.5184  0.2933 -0.8997
 1318HK4    C2910642   4.048   9.384   0.643  0.2815 -0.0363 -0.1835
 1318HK4    H1510643   3.955   9.405   0.695  0.3193 -1.6738  0.5838
 1318HK4    C2810644   4.080   9.249   0.632  0.5048 -0.0147  0.1171
 1318HK4    C2710645   4.208   9.213   0.586  0.3744 -0.1050 -0.1820
 1318HK4    H1410646   4.242   9.109   0.588  0.4292 -0.0799  0.1130
 1318HK4    C3210647   4.300   9.305   0.535  0.2242  0.0256 -0.2151
 1318HK4    H1610648   4.391   9.276   0.484  0.9626  1.0076  0.5185
 1318HK4    C3110649   4.266   9.439   0.546 -0.1023 -0.1249  0.6593
 1318HK4    C3410650   4.331   9.564   0.508 -0.3379 -0.1068  0.3055
 1318HK4    C3310651   4.235   9.670   0.532 -0.0858  0.2742 -0.3959
 1318HK4    C3510652   4.265   9.802   0.498 -0.0590  0.2616 -0.4196
 1318HK4    H1710653   4.190   9.880   0.507 -0.2223  0.0315  0.2151
 1318HK4    C3610654   4.390   9.820   0.439  0.2457 -0.0735  0.1192
 1318HK4    H1810655   4.409   9.920   0.397  3.4363 -1.6304 -2.2738
 1318HK4    C3710656   4.485   9.720   0.425  0.1901 -0.0950 -0.1215
 1318HK4    H1910657   4.587   9.756   0.416  0.7427 -1.0697  1.8957
 1318HK4    C3810658   4.457   9.587   0.456 -0.3261  0.1429  0.4460
 1318HK4    H2010659   4.538   9.514   0.462 -0.0375  0.3840 -0.4886
 1318HK4    C1410660   3.984   9.155   0.692  0.2481  0.2261  0.0792
 1318HK4     C910661   4.016   9.054   0.784  0.3084 -0.1700 -0.3696
 1318HK4     C810662   3.916   8.959   0.814  0.1227  0.0722 -0.2175
 1318HK4    C1110663   3.794   8.963   0.748 -0.0426 -0.0548  0.0845
 1318HK4     H410664   3.708   8.900   0.778 -1.3167  2.0665  1.0435
 1318HK4    C1210665   3.766   9.052   0.646 -0.2981  0.3642  0.5156
 1318HK4     H510666   3.679   9.058   0.578  1.7078  1.3707 -2.0406
 1318HK4    C1310667   3.860   9.153   0.626  0.2090 -0.1791  0.1621
 1318HK4     H610668   3.834   9.227   0.548 -1.7614 -0.6081  0.3844
 1318HK4     C710669   3.929   8.874   0.934 -0.3842  0.6230  0.2246
 1318HK4     O210670   3.869   8.767   0.927 -0.1685  0.5342 -0.3005
 1318HK4     C410671   4.014   8.915   1.048 -0.1414  0.1532  0.2116
 1318HK4     C310672   4.002   8.846   1.168  0.1078  0.2293  0.2811
 1318HK4     H310673   3.925   8.768   1.174  0.3935  0.0286  1.5817
 1318HK4     C210674   4.084   8.887   1.274  0.1095  0.7764  0.0721
 1318HK4     H210675   4.062   8.833   1.367 -1.4411 -0.8111 -1.1540
 1318HK4     C110676   4.171   8.993   1.255 -0.3327  1.1459  0.1106
 1318HK4     H110677   4.230   9.026   1.341 -1.5595 -1.0294  1.8162
 1318HK4     C610678   4.184   9.064   1.134  0.3370  0.5142 -0.1891
 1318HK4     C510679   4.108   9.018   1.025 -0.2916  0.3170  0.3342
 1318HK4    C1010680   4.117   9.080   0.890 -0.2420 -0.1028  0.1444
 1318HK4     O110681   4.231   9.105   0.849 -0.3233  0.5518  0.3053
 1318HK4    C1610682   4.288   9.168   1.136  0.3165  0.5530 -0.8736
 1318HK4    C1510683   4.398   9.151   1.223 -0.3104  0.1375 -0.1500
 1318HK4     H710684   4.431   9.049   1.248  0.2157  0.8308  2.0200
 1318HK4    C2010685   4.489   9.250   1.258 -0.3093  0.0292  0.1406
 1318HK4     H910686   4.570   9.240   1.330 -0.4499  1.5803  0.5411
 1318HK4    C1910687   4.480   9.375   1.197  0.3672 -0.2336 -0.5034
 1318HK4    C1810688   4.370   9.392   1.104  0.0357  0.0654 -0.0548
 1318HK4    C1710689   4.277   9.293   1.076 -0.1291  0.4683 -0.9670
 1318HK4     H810690   4.192   9.312   1.010 -1.5063 -2.5740 -0.1533
 1318HK4     N110691   4.377   9.523   1.053 -0.2779  0.2199  0.2917
 1318HK4    C2110692   4.475   9.592   1.128  0.2035 -0.0764 -0.0628
 1318HK4    C2210693   4.544   9.503   1.219 -0.2128 -0.0695  0.2602
 1318HK4    C2610694   4.659   9.542   1.287 -0.1803 -0.1197  0.2324
 1318HK4    H1310695   4.732   9.471   1.323 -0.8103 -0.5092  0.7524
 1318HK4    C2510696   4.699   9.675   1.278 -0.1316 -0.1858 -0.6637
 1318HK4    H1210697   4.779   9.716   1.339 -1.3934 -1.1339  1.6981
 1318HK4    C2410698   4.624   9.767   1.206  0.2110  0.1276 -0.6213
 1318HK4    H1110699   4.641   9.874   1.224  1.6075 -0.1032 -0.5716
 1318HK4    C2310700   4.514   9.725   1.132 -0.5408  0.1277  0.4732
 1318HK4    H1010701   4.446   9.799   1.089  0.4070  0.9846  0.4183
 1318HK4    C3910702   4.270   9.590   0.992  0.1088  0.8425  0.2939
 1318HK4    C4110703   4.289   9.705   0.912 -0.0192  0.2907 -0.5302
 1318HK4    H2110704   4.387   9.726   0.866  1.6175 -1.3588  2.1006
 1318HK4    C4210705   4.185   9.794   0.887 -0.4838  0.1560  0.9093
 1318HK4    H2210706   4.211   9.877   0.820 -3.1183  1.3054  1.2298
 1318HK4    C4310707   4.056   9.771   0.934 -1.0020  0.1292 -0.5023
 1318HK4    H2310708   3.980   9.836   0.891 -0.3281  0.6104 -0.9687
 1318HK4    C4410709   4.030   9.648   0.995  0.7503  0.0359  0.0929
 1318HK4    H2410710   3.927   9.623   1.023 -0.3008  1.6704 -2.1306
 1318HK4    C4510711   4.136   9.563   1.025  0.2564 -0.7328 -0.3364
 1318HK4    H2510712   4.123   9.488   1.105 -0.5500 -0.5458 -0.2855
 1319HK4    H2810713   5.770  11.194   1.256  2.2743  1.3879 -2.2679
 1319HK4    C4810714   5.729   0.041   1.289 -0.3760 -0.5769  0.3774
 1319HK4    C4710715   5.611   0.092   1.238  0.0563 -0.4237 -0.4814
 1319HK4    H2710716   5.545   0.033   1.173  2.5980 -0.3499 -3.2066
 1319HK4    C4610717   5.565   0.217   1.280  0.7703 -0.3823  0.1836
 1319HK4    H2610718   5.476   0.263   1.235  2.0039  2.6396  0.7453
 1319HK4    C4010719   5.631   0.292   1.380  0.0845  0.1991  0.2026
 1319HK4    C5010720   5.759   0.245   1.414 -0.0887  0.0028  0.5972
 1319HK4    H3010721   5.822   0.309   1.478  0.1159 -0.7939  1.1929
 1319HK4    C4910722   5.803   0.118   1.379 -0.3300  0.1539 -0.2800
 1319HK4    H2910723   5.905   0.083   1.397 -0.7060 -0.9115 -0.1841
 1319HK4     N210724   5.557   0.359   1.478  0.4308  0.0603  0.5597
 1319HK4    C3010725   5.423   0.336   1.515  0.2870  0.2241  0.1560
 1319HK4    C2910726   5.321   0.260   1.460  0.4423 -0.1516  0.3852
 1319HK4    H1510727   5.348   0.184   1.386 -1.6829  0.0728 -0.6452
 1319HK4    C2810728   5.186   0.268   1.492  0.3666  0.0768  0.0172
 1319HK4    C2710729   5.150   0.360   1.593  0.1428 -0.4703  0.4363
 1319HK4    H1410730   5.046   0.364   1.628  0.1488 -1.6718  0.6123
 1319HK4    C3210731   5.251   0.423   1.665 -0.0102  0.0367  0.2096
 1319HK4    H1610732   5.224   0.505   1.731 -0.9703 -0.6974  0.7335
 1319HK4    C3110733   5.386   0.411   1.633 -0.0289  0.2134  0.0640
 1319HK4    C3410734   5.501   0.496   1.659 -0.3266  0.7144 -0.2404
 1319HK4    C3310735   5.604   0.461   1.563  0.1260  0.3612  0.3691
 1319HK4    C3510736   5.726   0.528   1.570  0.3724 -0.0126 -0.2496
 1319HK4    H1710737   5.793   0.529   1.484  1.7071  0.3936  0.7692
 1319HK4    C3610738   5.748   0.624   1.668 -0.0094 -0.5018  0.3213
 1319HK4    H1810739   5.841   0.684   1.672 -0.6913  0.6131 -0.3693
 1319HK4    C3710740   5.650   0.653   1.763 -0.4797  0.1242 -0.3520
 1319HK4    H1910741   5.667   0.720   1.846  0.1642 -0.9966  0.4387
 1319HK4    C3810742   5.526   0.591   1.757 -0.5091  0.1144  0.3914
 1319HK4    H2010743   5.445   0.622   1.823  0.5211  0.3113  1.5774
 1319HK4    C1410744   5.090   0.219   1.392 -0.1209 -0.0309  0.5386
 1319HK4     C910745   4.965   0.276   1.365  0.0781  0.0735 -0.1639
 1319HK4     C810746   4.856   0.193   1.330  0.1257 -0.2084  0.3600
 1319HK4    C1110747   4.880   0.059   1.304 -0.0363 -0.1234 -0.2164
 1319HK4     H410748   4.795  11.240   1.281 -0.0878  0.2696 -1.2004
 1319HK4    C1210749   5.007   0.004   1.310  0.0636  0.0788 -0.4549
 1319HK4     H510750   5.009  11.142   1.299 -1.3752 -0.0638  0.5487
 1319HK4    C1310751   5.108   0.083   1.363  0.0131  0.2205 -0.5649
 1319HK4     H610752   5.189   0.021   1.404  0.8834  1.8248  0.1749
 1319HK4     C710753   4.716   0.241   1.323  0.2910  0.2337  0.0345
 1319HK4     O210754   4.619   0.179   1.280  0.0986  0.5265  0.0428
 1319HK4     C410755   4.700   0.385   1.355  0.0830  0.2667 -0.2202
 1319HK4     C310756   4.572   0.438   1.370  0.2929  0.6799  0.1190
 1319HK4     H310757   4.486   0.370   1.362 -0.3832  1.6595 -0.9872
 1319HK4     C210758   4.542   0.568   1.409  0.0511  0.5386  0.3996
 1319HK4     H210759   4.442   0.613   1.416 -1.0668 -1.8273  0.2205
 1319HK4     C110760   4.650   0.646   1.449  0.1792  0.5664 -0.0065
 1319HK4     H110761   4.637   0.745   1.493 -1.0341  0.4184 -0.0136
 1319HK4     C610762   4.783   0.598   1.452  0.0537  0.1971 -0.2531
 1319HK4     C510763   4.803   0.473   1.392  0.1390  0.2351 -0.3027
 1319HK4    C1010764   4.943   0.423   1.378  0.0852  0.0884 -0.3198
 1319HK4     O110765   5.026   0.497   1.326 -0.0659  0.0100 -0.6729
 1319HK4    C1610766   4.867   0.660   1.556  0.1155  0.0739 -0.2294
 1319HK4    C1510767   4.814   0.690   1.683  0.3826 -0.2219 -0.0478
 1319HK4     H710768   4.724   0.636   1.717 -0.2729  1.7516  1.4554
 1319HK4    C2010769   4.873   0.772   1.778  0.2595 -0.2747  0.0740
 1319HK4     H910770   4.821   0.789   1.872 -0.3410 -1.2887 -0.0672
 1319HK4    C1910771   5.005   0.808   1.752  0.1150  0.1352 -0.0943
 1319HK4    C1810772   5.061   0.782   1.621  0.1597 -0.4836  0.0448
 1319HK4    C1710773   4.989   0.717   1.522  0.2134 -0.1322 -0.2249
 1319HK4     H810774   5.030   0.721   1.421  0.2742 -1.2281 -0.2457
 1319HK4     N110775   5.201   0.802   1.619  0.1083 -0.0750  0.2490
 1319HK4    C2110776   5.234   0.841   1.750  0.4046  0.1654  0.1034
 1319HK4    C2210777   5.116   0.848   1.835  0.1836  0.1726 -0.2041
 1319HK4    C2610778   5.130   0.880   1.970  0.4693 -0.2098 -0.1411
 1319HK4    H1310779   5.044   0.885   2.037  2.1422  1.1771  2.0040
 1319HK4    C2510780   5.257   0.910   2.018  0.4028  0.7600 -0.5684
 1319HK4    H1210781   5.270   0.934   2.123  1.8493  1.1527 -0.8173
 1319HK4    C2410782   5.370   0.907   1.937  1.0356 -0.0355  0.3420
 1319HK4    H1110783   5.470   0.940   1.968  1.1432  0.2299 -0.2942
 1319HK4    C2310784   5.359   0.863   1.805  0.3233 -0.2822  0.4784
 1319HK4    H1010785   5.449   0.832   1.751  0.0888 -1.0383  0.5187
 1319HK4    C3910786   5.261   0.855   1.505 -0.3105 -0.0988  0.0150
 1319HK4    C4110787   5.197   0.934   1.408 -0.0129  0.1786  0.0430
 1319HK4    H2110788   5.113   1.001   1.434 -0.9947 -0.3952 -1.5636
 1319HK4    C4210789   5.254   0.950   1.282 -0.0541  0.1814  0.0243
 1319HK4    H2210790   5.202   1.009   1.204 -2.4206 -0.8968  0.7459
 1319HK4    C4310791   5.376   0.891   1.254 -0.1498  0.1835 -0.3954
 1319HK4    H2310792   5.430   0.923   1.164 -1.8688 -1.7446 -2.1863
 1319HK4    C4410793   5.438   0.807   1.346 -0.5503  0.7700  0.4140
 1319HK4    H2410794   5.533   0.762   1.312 -1.7105 -1.7293  0.4412
 1319HK4    C4510795   5.382   0.790   1.471 -0.4122 -0.4415  0.3142
 1319HK4    H2510796   5.406   0.697   1.525  1.6553  0.7158  1.4574
 1320HK4    H2810797   2.747   4.268  10.298 -2.0547 -2.7764  0.0231
 1320HK4    C4810798   2.694   4.288  10.205 -0.4437 -0.2091 -0.3679
 1320HK4    C4710799   2.590   4.207  10.161 -0.3970 -0.3072 -0.2999
 1320HK4    H2710800   2.548   4.132  10.230  0.6469  0.2330  0.9431
 1320HK4    C4610801   2.518   4.241  10.047 -0.6898 -0.0821 -0.0474
 1320HK4    H2610802   2.422   4.191  10.030 -0.5183 -0.1494 -0.8355
 1320HK4    C4010803   2.564   4.345   9.963  0.2221 -0.2766  0.2016
 1320HK4    C5010804   2.674   4.420  10.009  0.3305 -0.5124  0.3290
 1320HK4    H3010805   2.723   4.490   9.939  1.5003 -2.0952 -0.4854
 1320HK4    C4910806   2.743   4.392  10.126  0.5326 -0.1514  0.2979
 1320HK4    H2910807   2.823   4.458  10.162 -0.1286  0.2667  1.0398
 1320HK4     N210808   2.527   4.345   9.828  0.2887  0.2269  0.1807
 1320HK4    C3010809   2.478   4.237   9.753  0.1758  0.2609  0.2079
 1320HK4    C2910810   2.470   4.102   9.783  0.3427  0.1261 -0.3361
 1320HK4    H1510811   2.507   4.064   9.878  0.9516 -2.9646 -1.7450
 1320HK4    C2810812   2.416   4.008   9.696  0.2689 -0.1726  0.0298
 1320HK4    C2710813   2.353   4.051   9.578  0.0634 -0.1763  0.1369
 1320HK4    H1410814   2.302   3.977   9.514  0.8190 -1.6893  1.2528
 1320HK4    C3210815   2.365   4.184   9.539 -0.5575  0.0864  0.8444
 1320HK4    H1610816   2.330   4.213   9.440  2.9497 -1.1224 -0.8078
 1320HK4    C3110817   2.428   4.276   9.622 -0.0900  0.2505  0.3050
 1320HK4    C3410818   2.453   4.418   9.610  0.0109  0.2081  0.0142
 1320HK4    C3310819   2.508   4.453   9.740  0.4430  0.0118 -0.1142
 1320HK4    C3510820   2.553   4.583   9.760  0.6431 -0.0609 -0.0896
 1320HK4    H1710821   2.553   4.622   9.861 -2.9432 -1.7120  0.6406
 1320HK4    C3610822   2.562   4.665   9.648  0.5793 -0.2200 -0.2152
 1320HK4    H1810823   2.620   4.759   9.652 -0.9773  0.8681 -2.3447
 1320HK4    C3710824   2.507   4.630   9.526 -0.4875  0.5359  0.0494
 1320HK4    H1910825   2.530   4.695   9.441  0.2589 -0.2172 -0.3205
 1320HK4    C3810826   2.452   4.505   9.501 -0.2534  0.4082  0.1769
 1320HK4    H2010827   2.429   4.474   9.399  0.9794 -3.5840  1.0230
 1320HK4    C1410828   2.482   3.876   9.688  0.3574 -0.1428  0.2622
 1320HK4     C910829   2.510   3.800   9.574 -0.2518  0.1156 -0.0608
 1320HK4     C810830   2.521   3.660   9.573 -0.2305  0.1176 -0.1977
 1320HK4    C1110831   2.523   3.597   9.697 -0.7571 -0.5047 -0.5013
 1320HK4     H410832   2.545   3.490   9.712 -0.7986 -0.2695  1.4536
 1320HK4    C1210833   2.522   3.671   9.815  0.2962 -0.1563 -0.7034
 1320HK4     H510834   2.547   3.630   9.914  1.4965 -1.9639 -1.7241
 1320HK4    C1310835   2.497   3.807   9.810 -0.4709 -0.2526  0.3075
 1320HK4     H610836   2.471   3.859   9.904 -0.3487  0.1594  0.1177
 1320HK4     C710837   2.506   3.575   9.453 -0.9672 -0.2777  0.1649
 1320HK4     O210838   2.534   3.455   9.454  0.2974  0.0026  0.0321
 1320HK4     C410839   2.500   3.659   9.331  0.2094 -0.0433  0.2624
 1320HK4     C310840   2.444   3.599   9.219  0.2115  0.0350  0.2210
 1320HK4     H310841   2.402   3.498   9.219  0.9033 -0.2592 -0.7978
 1320HK4     C210842   2.450   3.667   9.098  0.0935 -0.1173  0.1299
 1320HK4     H210843   2.384   3.639   9.014 -0.5121  1.0264  0.2108
 1320HK4     C110844   2.515   3.789   9.088 -0.3174  0.0519 -0.5158
 1320HK4     H110845   2.484   3.857   9.007 -0.8729 -0.3248 -0.6237
 1320HK4     C610846   2.580   3.849   9.198 -0.5747 -0.3267 -0.1584
 1320HK4     C510847   2.563   3.785   9.322 -0.2195  0.1599  0.1450
 1320HK4    C1010848   2.559   3.864   9.448  0.5805  0.0553  0.2338
 1320HK4     O110849   2.624   3.967   9.462  0.5244  0.1103  0.0881
 1320HK4    C1610850   2.677   3.957   9.175 -0.0275 -0.9025 -0.5573
 1320HK4    C1510851   2.668   4.041   9.062 -0.0050 -0.1910 -0.0302
 1320HK4     H710852   2.574   4.099   9.059  0.3593  0.3802 -0.3821
 1320HK4    C2010853   2.770   4.099   8.988 -0.0400 -0.0524  0.0277
 1320HK4     H910854   2.754   4.153   8.895 -1.1643  0.0266  0.2652
 1320HK4    C1910855   2.899   4.069   9.032 -0.0268  0.8646  0.6405
 1320HK4    C1810856   2.918   3.991   9.153 -0.2530  0.0373  0.1544
 1320HK4    C1710857   2.807   3.945   9.222 -0.2302  0.1977  0.2976
 1320HK4     H810858   2.826   3.911   9.324  2.6818 -0.2360 -0.3412
 1320HK4     N110859   3.056   3.966   9.172 -0.1759  0.2811 -0.0743
 1320HK4    C2110860   3.126   4.037   9.072 -0.0041  0.4011  0.1317
 1320HK4    C2210861   3.031   4.093   8.978 -0.1190 -0.0446 -0.0174
 1320HK4    C2610862   3.074   4.148   8.858  0.1507 -0.1342  0.0323
 1320HK4    H1310863   3.008   4.183   8.778 -0.0061 -0.7637 -0.1114
 1320HK4    C2510864   3.209   4.163   8.831  0.0673  0.1723 -0.2271
 1320HK4    H1210865   3.243   4.206   8.737 -0.9904 -0.0258 -0.7002
 1320HK4    C2410866   3.300   4.117   8.926 -0.5283  0.2307  0.3709
 1320HK4    H1110867   3.404   4.152   8.913  0.6939 -3.1466  0.6541
 1320HK4    C2310868   3.261   4.052   9.042  0.1079 -0.4980  0.1860
 1320HK4    H1010869   3.335   4.047   9.122  1.1524 -2.2128 -0.8732
 1320HK4    C3910870   3.106   3.850   9.232 -0.1611  0.3813  0.1039
 1320HK4    C4110871   3.037   3.728   9.245  0.1981  0.1594 -0.0733
 1320HK4    H2110872   2.933   3.730   9.210 -0.2063  0.5026  1.1212
 1320HK4    C4210873   3.090   3.610   9.296 -0.1796  0.2611  0.5639
 1320HK4    H2210874   3.032   3.516   9.301 -0.6425  0.5382  0.4528
 1320HK4    C4310875   3.218   3.612   9.350  0.0321 -0.3068  0.1010
 1320HK4    H2310876   3.269   3.520   9.379  0.0751 -0.6971 -1.1906
 1320HK4    C4410877   3.288   3.732   9.350 -0.2258 -0.1571 -0.0890
 1320HK4    H2410878   3.383   3.738   9.404 -1.0745  2.1262  1.2058
 1320HK4    C4510879   3.233   3.847   9.295 -0.1731 -0.0357  0.1161
 1320HK4    H2510880   3.282   3.943   9.317 -2.4215  1.3425 -0.6175
 1321HK4    H2810881   3.861   2.554   5.468  2.3688  1.2389 -0.5715
 1321HK4    C4810882   3.881   2.580   5.572  0.0420 -0.1002  0.2358
 1321HK4    C4710883   3.864   2.706   5.628  0.5706  0.1851 -0.2423
 1321HK4    H2710884   3.835   2.787   5.559  1.1187  0.7371  0.1809
 1321HK4    C4610885   3.894   2.728   5.761 -0.0362 -0.1090 -0.0531
 1321HK4    H2610886   3.909   2.833   5.793 -0.1309  0.2684 -1.2453
 1321HK4    C4010887   3.926   2.622   5.849  0.2914  0.0253 -0.0108
 1321HK4    C5010888   3.933   2.496   5.787  0.2633  0.2078 -0.3851
 1321HK4    H3010889   3.960   2.411   5.850  0.1463  0.6913  0.3238
 1321HK4    C4910890   3.914   2.471   5.651 -0.2042 -0.4885 -0.1927
 1321HK4    H2910891   3.900   2.368   5.614 -1.7268 -0.8608  1.3710
 1321HK4     N210892   3.954   2.632   5.986  0.4417 -0.0762 -0.0331
 1321HK4    C3010893   4.028   2.742   6.036 -0.5547  0.7598 -0.3715
 1321HK4    C2910894   4.125   2.822   5.977 -0.3194  0.4004 -0.4753
 1321HK4    H1510895   4.172   2.776   5.890 -1.4362 -0.7786 -0.4779
 1321HK4    C2810896   4.179   2.930   6.045 -0.2372 -0.1859  0.4070
 1321HK4    C2710897   4.144   2.952   6.180 -0.3670  0.4495  0.2742
 1321HK4    H1410898   4.190   3.033   6.238  0.3661 -0.5759  1.1448
 1321HK4    C3210899   4.054   2.867   6.243 -0.1235 -0.0254 -0.0157
 1321HK4    H1610900   4.017   2.894   6.342 -1.9891  3.7609 -1.6486
 1321HK4    C3110901   4.001   2.756   6.178  0.0262 -0.0009 -0.1784
 1321HK4    C3410902   3.898   2.660   6.212 -0.6381  0.5333 -0.6550
 1321HK4    C3310903   3.873   2.585   6.091  0.2039 -0.3021 -0.3160
 1321HK4    C3510904   3.755   2.513   6.078 -0.2427  0.3878 -0.1055
 1321HK4    H1710905   3.746   2.442   5.996 -1.5722 -1.6246  1.7510
 1321HK4    C3610906   3.667   2.506   6.186  0.4533 -0.2240  0.4280
 1321HK4    H1810907   3.588   2.430   6.191  1.6189 -1.3701  1.7679
 1321HK4    C3710908   3.696   2.574   6.304 -0.3560  0.3911  0.2838
 1321HK4    H1910909   3.626   2.570   6.387  0.8449 -2.4953  1.2121
 1321HK4    C3810910   3.811   2.651   6.320  0.0815 -0.1634 -0.1257
 1321HK4    H2010911   3.824   2.721   6.403  1.1066 -1.2299  0.6267
 1321HK4    C1410912   4.292   2.998   5.978 -0.5256  0.2730  0.3792
 1321HK4     C910913   4.409   3.034   6.045 -0.0769  0.0042 -0.2575
 1321HK4     C810914   4.471   3.155   6.007  0.0801 -0.0462 -0.1628
 1321HK4    C1110915   4.420   3.231   5.902 -0.0394 -0.0627 -0.1172
 1321HK4     H410916   4.487   3.305   5.856  0.1737 -1.0052 -1.3582
 1321HK4    C1210917   4.312   3.189   5.826  0.0611 -0.1257 -0.2238
 1321HK4     H510918   4.276   3.260   5.751 -1.3225 -1.3305 -0.7253
 1321HK4    C1310919   4.248   3.072   5.867  0.1529 -0.1627 -0.1841
 1321HK4     H610920   4.166   3.024   5.812 -0.1956  0.7183 -0.4470
 1321HK4     C710921   4.596   3.201   6.074  0.3082 -0.5624 -0.2393
 1321HK4     O210922   4.635   3.316   6.058 -0.0095 -0.4593 -0.2750
 1321HK4     C410923   4.667   3.104   6.161 -0.0119 -0.2793  0.3436
 1321HK4     C310924   4.790   3.146   6.210 -0.1218  0.4398  0.0158
 1321HK4     H310925   4.824   3.250   6.199 -2.0356  0.8582 -2.3722
 1321HK4     C210926   4.873   3.055   6.276 -0.2523  0.3601  0.0689
 1321HK4     H210927   4.970   3.087   6.316 -0.7449 -0.2413  1.7615
 1321HK4     C110928   4.833   2.922   6.279 -0.2936  0.3573 -0.4854
 1321HK4     H110929   4.901   2.850   6.327 -0.2823  1.5333  1.3215
 1321HK4     C610930   4.715   2.870   6.222  0.0165 -0.4897 -0.3575
 1321HK4     C510931   4.629   2.969   6.173  0.1602 -0.3987 -0.4271
 1321HK4    C1010932   4.488   2.944   6.133 -0.1671  0.3951  0.2282
 1321HK4     O110933   4.426   2.860   6.199  0.3766  0.0488  0.3032
 1321HK4    C1610934   4.690   2.725   6.226  0.1203 -0.4932  0.1193
 1321HK4    C1510935   4.747   2.642   6.325 -0.0662 -0.9129 -0.1269
 1321HK4     H710936   4.804   2.679   6.411  0.3498 -0.9257 -0.3967
 1321HK4    C2010937   4.751   2.505   6.301  0.1458 -0.9471  0.0938
 1321HK4     H910938   4.822   2.450   6.361  0.2779  0.0609  0.8786
 1321HK4    C1910939   4.686   2.446   6.193 -0.2228 -0.1810 -0.1079
 1321HK4    C1810940   4.624   2.534   6.095 -0.0334  0.1547  0.0747
 1321HK4    C1710941   4.636   2.672   6.110 -0.1222  0.1781 -0.0772
 1321HK4     H810942   4.609   2.731   6.023 -1.4779 -1.4750 -0.8027
 1321HK4     N110943   4.592   2.465   5.977  0.1554  0.1505  0.0252
 1321HK4    C2110944   4.625   2.331   6.003 -0.1529  0.0436 -0.1240
 1321HK4    C2210945   4.684   2.313   6.135 -0.3924 -0.2042 -0.0489
 1321HK4    C2610946   4.682   2.189   6.197 -0.2451 -0.1630  0.0390
 1321HK4    H1310947   4.707   2.176   6.303 -3.4117 -1.0565  0.7291
 1321HK4    C2510948   4.643   2.076   6.126 -0.5401  0.1480 -0.2957
 1321HK4    H1210949   4.619   1.986   6.182 -0.5597  1.5949  2.1176
 1321HK4    C2410950   4.603   2.089   5.994  0.8284  0.0624 -0.7289
 1321HK4    H1110951   4.596   2.003   5.926  1.9571  0.2776 -1.1404
 1321HK4    C2310952   4.586   2.215   5.937  0.3596  0.0943 -0.5172
 1321HK4    H1010953   4.524   2.221   5.848 -0.2500  0.5559 -0.0745
 1321HK4    C3910954   4.499   2.501   5.878  0.6001  0.2834 -0.3506
 1321HK4    C4110955   4.512   2.456   5.746 -0.0975 -0.6635 -0.1068
 1321HK4    H2110956   4.612   2.448   5.700  0.6587 -2.7261  1.8011
 1321HK4    C4210957   4.411   2.459   5.651  0.4821  0.2543 -0.6969
 1321HK4    H2210958   4.436   2.448   5.544  1.8041  0.4640 -0.4079
 1321HK4    C4310959   4.288   2.511   5.691  0.4683  0.4098 -0.9308
 1321HK4    H2310960   4.206   2.522   5.621 -0.4111  0.0926  0.0388
 1321HK4    C4410961   4.271   2.551   5.823  0.9383  0.9782 -1.0418
 1321HK4    H2410962   4.169   2.553   5.862  1.5462  0.2001  0.6470
 1321HK4    C4510963   4.374   2.554   5.917  0.4543  0.0298 -0.4752
 1321HK4    H2510964   4.354   2.574   6.023 -1.3298  0.0660 -0.8027
 1322HK4    H2810965  10.258   0.422   8.576  1.8870  1.6947  0.2342
 1322HK4    C4810966  10.196   0.504   8.612 -0.0722  0.1584  0.4408
 1322HK4    C4710967  10.125   0.489   8.731  0.1924 -0.4222  0.5312
 1322HK4    H2710968  10.091   0.393   8.772 -1.7869  0.4074  0.8857
 1322HK4    C4610969  10.078   0.603   8.795 -0.4397 -0.5306  0.2613
 1322HK4    H2610970  10.041   0.586   8.897  0.5984  1.2101  0.9608
 1322HK4    C4010971  10.097   0.734   8.744  0.2458 -0.4775  0.6522
 1322HK4    C5010972  10.167   0.744   8.623 -0.0361 -0.7083  0.4678
 1322HK4    H3010973  10.191   0.844   8.584 -3.5493 -0.0633 -0.2147
 1322HK4    C4910974  10.213   0.630   8.557  0.0518 -0.2037 -0.3525
 1322HK4    H2910975  10.262   0.646   8.460  0.8827 -0.1557  0.0681
 1322HK4     N210976  10.069   0.852   8.814 -0.2327 -0.3246  0.2024
 1322HK4    C3010977  10.095   0.873   8.951 -0.4564  0.1346  0.1735
 1322HK4    C2910978  10.202   0.841   9.033 -0.3695  0.3746  0.1579
 1322HK4    H1510979  10.265   0.762   8.993  0.0268  1.3343 -1.1575
 1322HK4    C2810980  10.227   0.901   9.157  0.0965  0.5338 -0.0098
 1322HK4    C2710981  10.127   0.987   9.206  0.0265 -0.1052  0.9611
 1322HK4    H1410982  10.144   1.045   9.298  0.6831  1.3284 -0.0492
 1322HK4    C3210983  10.021   1.025   9.125  0.3801 -0.2523  0.4318
 1322HK4    H1610984   9.937   1.075   9.171 -0.5875 -0.2574 -1.2687
 1322HK4    C3110985  10.006   0.980   8.994 -0.5700 -0.0814  0.4795
 1322HK4    C3410986   9.936   1.031   8.878  0.2432  0.2474  0.1254
 1322HK4    C3310987   9.970   0.942   8.769  0.2394  0.1798  0.1810
 1322HK4    C3510988   9.920   0.973   8.643 -0.6420 -0.2453  0.4271
 1322HK4    H1710989   9.956   0.918   8.556  0.6204  0.1081  0.7274
 1322HK4    C3610990   9.823   1.070   8.619  0.1583  0.4405 -0.0172
 1322HK4    H1810991   9.765   1.068   8.526  0.7334 -1.7188 -0.3715
 1322HK4    C3710992   9.792   1.149   8.728 -0.2377  0.4770 -0.1584
 1322HK4    H1910993   9.747   1.247   8.709  1.8654  1.3713 -0.6783
 1322HK4    C3810994   9.842   1.132   8.857 -0.2199 -0.2630 -0.2611
 1322HK4    H2010995   9.799   1.195   8.934  2.3893  0.2222  0.8380
 1322HK4    C1410996  10.346   0.866   9.236 -0.2364 -0.2366  0.1542
 1322HK4     C910997  10.367   0.898   9.370 -0.1776  0.2041  0.0431
 1322HK4     C810998  10.495   0.939   9.413 -0.0623  0.1743 -0.2726
 1322HK4    C1110999  10.605   0.946   9.328  0.2371  0.2787  0.1228
 1322HK4     H411000  10.706   0.962   9.368  0.6399 -0.0841 -0.7507
 1322HK4    C1211001  10.588   0.894   9.200  0.0295 -0.5128  0.4708
 1322HK4     H511002  10.667   0.916   9.127  0.2856  0.2308  0.9573
 1322HK4    C1311003  10.462   0.855   9.157 -0.1851  0.5504  0.1149
 1322HK4     H611004  10.458   0.853   9.047  1.2544  2.3245  0.0123
 1322HK4     C711005  10.510   0.971   9.556  0.1067 -0.3332 -0.1767
 1322HK4     O211006  10.618   0.939   9.607 -0.3123 -0.1474  0.8403
 1322HK4     C411007  10.397   0.976   9.651  0.3264 -0.4279  0.0929
 1322HK4     C311008  10.419   1.023   9.780 -0.6508  1.0307 -0.2648
 1322HK4     H311009  10.521   1.047   9.813 -0.5964 -2.1313  2.0693
 1322HK4     C211010  10.318   1.019   9.875 -0.3772  0.9815  0.0287
 1322HK4     H211011  10.339   1.053   9.978 -0.5886  0.3940  0.2695
 1322HK4     C111012  10.197   0.963   9.835 -0.0182  0.2339 -0.0018
 1322HK4     H111013  10.106   0.988   9.891  0.4961  1.7576  0.1656
 1322HK4     C611014  10.168   0.911   9.708  0.2103 -0.7460  0.3426
 1322HK4     C511015  10.272   0.922   9.615 -0.0022  0.2469  0.2216
 1322HK4    C1011016  10.264   0.872   9.475  0.0785  0.1002  0.2689
 1322HK4     O111017  10.209   0.763   9.454  0.1323  0.2713 -0.7972
 1322HK4    C1611018  10.038   0.845   9.686  0.1945 -0.3824 -0.6987
 1322HK4    C1511019   9.990   0.778   9.800 -0.0451 -0.1259 -0.6506
 1322HK4     H711020  10.062   0.728   9.866 -1.6328 -0.2027  1.0818
 1322HK4    C2011021   9.853   0.770   9.823  0.0490 -0.3493 -0.1496
 1322HK4     H911022   9.811   0.703   9.898 -1.5859  0.2731 -0.4834
 1322HK4    C1911023   9.762   0.830   9.737  0.1341 -0.1665 -0.1151
 1322HK4    C1811024   9.806   0.887   9.611  0.1210  0.6328  0.2428
 1322HK4    C1711025   9.944   0.889   9.594  0.0511 -0.0882 -0.4100
 1322HK4     H811026   9.984   0.919   9.497 -0.2336 -1.0943 -0.8411
 1322HK4     N111027   9.705   0.964   9.549 -0.1123  0.2370  0.1336
 1322HK4    C2111028   9.592   0.954   9.632 -0.0566  0.0883  0.1899
 1322HK4    C2211029   9.626   0.878   9.751  0.3488  0.3415  0.2339
 1322HK4    C2611030   9.526   0.835   9.838  0.2035  0.1523 -0.0297
 1322HK4    H1311031   9.549   0.771   9.923 -1.9778  0.3386  0.7386
 1322HK4    C2511032   9.394   0.875   9.819  0.1711 -0.1084 -0.3417
 1322HK4    H1211033   9.318   0.856   9.895 -0.9380  1.6970 -0.9623
 1322HK4    C2411034   9.365   0.947   9.705  0.1415  0.2860 -0.0887
 1322HK4    H1111035   9.260   0.945   9.671  0.0714 -0.9865  0.1851
 1322HK4    C2311036   9.458   0.986   9.609  0.0483  0.2715 -0.1850
 1322HK4    H1011037   9.429   1.010   9.507 -0.0968  0.0355 -0.1986
 1322HK4    C3911038   9.701   1.004   9.415 -0.6245 -0.2208  0.0121
 1322HK4    C4111039   9.631   1.122   9.382  0.0909  0.2977  0.3502
 1322HK4    H2111040   9.600   1.196   9.457 -1.4068 -0.0953  0.1416
 1322HK4    C4211041   9.591   1.149   9.252  0.0892 -0.2695  0.2327
 1322HK4    H2211042   9.545   1.247   9.234  0.5573  0.1351  1.2065
 1322HK4    C4311043   9.616   1.058   9.149  0.3976 -0.0329  0.1007
 1322HK4    H2311044   9.584   1.079   9.047  1.3813 -0.9836 -0.4148
 1322HK4    C4411045   9.680   0.939   9.181  0.8905  0.1646 -0.1471
 1322HK4    H2411046   9.704   0.872   9.098 -0.8037 -1.6291  0.7779
 1322HK4    C4511047   9.725   0.912   9.310  0.1995 -0.0505  0.0505
 1322HK4    H2511048   9.777   0.817   9.330 -0.9833 -0.9523 -1.1036
 1323HK4    H2811049   3.870   0.746  10.823 -0.8632 -0.5328  0.4471
 1323HK4    C4811050   3.798   0.773  10.746 -0.0074  0.5268  0.0074
 1323HK4    C4711051   3.781   0.684  10.640 -0.3994  0.1811  0.3601
 1323HK4    H2711052   3.821   0.582  10.645  3.4546  1.5981  0.4324
 1323HK4    C4611053   3.702   0.729  10.535  0.3134  0.2039 -0.1679
 1323HK4    H2611054   3.682   0.650  10.460  0.4006 -0.1955  0.2261
 1323HK4    C4011055   3.627   0.848  10.531 -0.1509 -0.0930 -0.2988
 1323HK4    C5011056   3.654   0.937  10.636  0.0451 -0.2603 -0.2079
 1323HK4    H3011057   3.599   1.032  10.635 -2.0016 -1.4252  0.2054
 1323HK4    C4911058   3.740   0.899  10.739 -0.3580  0.3885  0.3810
 1323HK4    H2911059   3.780   0.982  10.800  0.3622  0.7562 -0.5667
 1323HK4     N211060   3.559   0.880  10.413 -0.1989  0.0813 -0.2227
 1323HK4    C3011061   3.572   0.810  10.291  0.0633 -0.3211  0.0356
 1323HK4    C2911062   3.684   0.757  10.229  0.4197  0.2534  0.1926
 1323HK4    H1511063   3.779   0.756  10.283  0.9150 -2.1245 -0.6830
 1323HK4    C2811064   3.691   0.704  10.101  0.3311  0.4490  0.1067
 1323HK4    C2711065   3.568   0.709  10.033  0.5127  0.0574 -0.2480
 1323HK4    H1411066   3.560   0.653   9.938 -0.3292 -0.6165  0.2197
 1323HK4    C3211067   3.454   0.770  10.083  0.6019  0.4404 -0.5111
 1323HK4    H1611068   3.362   0.778  10.026  0.3260 -0.7020 -0.2331
 1323HK4    C3111069   3.453   0.826  10.210  0.2788 -0.1625 -0.2505
 1323HK4    C3411070   3.362   0.910  10.286  0.0992 -0.0791 -0.5570
 1323HK4    C3311071   3.431   0.938  10.411 -0.2924 -0.1306 -0.3305
 1323HK4    C3511072   3.364   1.017  10.505 -0.1409 -0.0938 -0.2537
 1323HK4    H1711073   3.389   1.016  10.611 -0.8279 -0.1076 -0.0906
 1323HK4    C3611074   3.233   1.056  10.480  0.1505  0.6686 -0.6153
 1323HK4    H1811075   3.183   1.112  10.561  1.7571  0.5544  0.4926
 1323HK4    C3711076   3.164   1.030  10.363 -0.2501 -0.1331 -0.2080
 1323HK4    H1911077   3.067   1.075  10.343  0.2317  0.7823 -0.5351
 1323HK4    C3811078   3.232   0.955  10.267 -0.0601 -0.2835  0.0436
 1323HK4    H2011079   3.186   0.915  10.177 -0.5728 -1.9348  1.0139
 1323HK4    C1411080   3.820   0.691  10.032  0.2566  0.4299 -0.0269
 1323HK4     C911081   3.835   0.695   9.893 -0.0607 -0.2864 -0.0850
 1323HK4     C811082   3.919   0.607   9.822 -0.0620  0.0864 -0.5511
 1323HK4    C1111083   3.993   0.518   9.898 -0.4181  0.4037  0.1713
 1323HK4     H411084   4.061   0.447   9.847 -0.6331  1.2823 -1.3443
 1323HK4    C1211085   4.001   0.520  10.037 -0.1583  0.3925  0.1584
 1323HK4     H511086   4.053   0.446  10.098 -0.6070  2.0934  2.6799
 1323HK4    C1311087   3.914   0.609  10.099 -0.1105  0.3121  0.3408
 1323HK4     H611088   3.917   0.609  10.209  0.3789  3.8564  0.3838
 1323HK4     C711089   3.907   0.603   9.674 -0.0423 -0.1777 -0.5453
 1323HK4     O211090   3.981   0.530   9.610  0.4745 -0.3793  0.2780
 1323HK4     C411091   3.806   0.690   9.609  0.1501  0.3995 -0.0855
 1323HK4     C311092   3.786   0.684   9.472  0.0156  0.5045 -0.0697
 1323HK4     H311093   3.854   0.621   9.412 -1.1847 -0.8802 -0.0045
 1323HK4     C211094   3.684   0.749   9.403 -0.4499  0.0831  0.2214
 1323HK4     H211095   3.654   0.710   9.305  1.2984 -0.0807 -0.2473
 1323HK4     C111096   3.596   0.831   9.474 -1.0631 -0.1267 -0.2856
 1323HK4     H111097   3.537   0.895   9.407 -1.9216  1.7034  2.1665
 1323HK4     C611098   3.613   0.840   9.614 -0.3114 -0.5552 -0.3465
 1323HK4     C511099   3.718   0.774   9.680 -0.4110 -0.3053  0.0650
 1323HK4    C1011100   3.757   0.800   9.821 -0.2339 -0.3421  0.0215
 1323HK4     O111101   3.777   0.916   9.857  0.3112 -0.3549 -0.2415
 1323HK4    C1611102   3.484   0.860   9.681 -0.1674 -0.1229 -0.2000
 1323HK4    C1511103   3.361   0.808   9.636 -0.2919  0.0634 -0.0811
 1323HK4     H711104   3.359   0.713   9.580 -1.6746 -0.4696  0.8516
 1323HK4    C2011105   3.240   0.857   9.683 -0.0325  0.5424  0.0845
 1323HK4     H911106   3.152   0.835   9.623  1.4071  1.1500 -2.3413
 1323HK4    C1911107   3.240   0.960   9.776  0.0828  0.8402 -0.2435
 1323HK4    C1811108   3.366   1.013   9.825  0.2721  0.0488  0.1291
 1323HK4    C1711109   3.485   0.963   9.775  0.0784 -0.4797  0.1924
 1323HK4     H811110   3.578   1.020   9.781 -0.3404  0.2327 -0.0339
 1323HK4     N111111   3.344   1.120   9.915  0.3550  0.0170  0.1847
 1323HK4    C2111112   3.205   1.131   9.932  0.4200  0.4340  0.4421
 1323HK4    C2211113   3.138   1.034   9.848  0.3166  0.5759  0.3586
 1323HK4    C2611114   3.001   1.015   9.864  0.3518  0.0083  0.0131
 1323HK4    H1311115   2.949   0.933   9.814 -0.7334  1.9814 -2.1945
 1323HK4    C2511116   2.930   1.085   9.961 -0.0964 -0.1503 -0.1983
 1323HK4    H1211117   2.838   1.048  10.005 -0.9859  0.8917 -1.1324
 1323HK4    C2411118   2.995   1.188  10.029  0.0731  0.0590 -0.6726
 1323HK4    H1111119   2.940   1.240  10.108  0.3691 -2.1796  1.0538
 1323HK4    C2311120   3.132   1.207  10.023  0.0740  0.3481  0.2427
 1323HK4    H1011121   3.184   1.286  10.078  0.7815  1.0550 -1.4058
 1323HK4    C3911122   3.443   1.190   9.986  0.8022 -0.0799 -0.3356
 1323HK4    C4111123   3.425   1.318  10.042  0.1614 -0.3927  0.1830
 1323HK4    H2111124   3.387   1.394   9.973  0.3153  0.2350  0.7845
 1323HK4    C4211125   3.489   1.360  10.158  0.4378  0.7590 -0.3883
 1323HK4    H2211126   3.483   1.460  10.205  0.8248  1.0917 -1.0361
 1323HK4    C4311127   3.588   1.282  10.216 -0.3052 -0.1894 -0.3920
 1323HK4    H2311128   3.645   1.319  10.301  1.4210 -0.1755 -1.5159
 1323HK4    C4411129   3.623   1.160  10.159  0.4423 -0.1440 -0.0283
 1323HK4    H2411130   3.705   1.094  10.193  0.9446 -1.5041 -3.6272
 1323HK4    C4511131   3.546   1.120  10.051  0.3294 -0.3542  0.1299
 1323HK4    H2511132   3.574   1.019  10.017  0.2899 -0.6391  0.9442
 1324HK4    H2811133   6.634   6.585   7.630 -0.2882  0.2923 -0.5974
 1324HK4    C4811134   6.589   6.625   7.721  0.7185 -0.2769  0.1573
 1324HK4    C4711135   6.489   6.554   7.787 -0.2219  0.3712 -0.5534
 1324HK4    H2711136   6.428   6.483   7.730  0.4479  0.3470 -1.2522
 1324HK4    C4611137   6.434   6.609   7.902  0.2705  0.0957 -0.1870
 1324HK4    H2611138   6.352   6.548   7.942  0.9291 -1.9703 -1.9081
 1324HK4    C4011139   6.476   6.730   7.961 -0.4129  0.1391  0.2184
 1324HK4    C5011140   6.572   6.798   7.883 -0.2576  0.0721  0.3506
 1324HK4    H3011141   6.614   6.891   7.925  0.8979 -1.2465  2.1255
 1324HK4    C4911142   6.627   6.751   7.765 -0.2594 -0.0597  0.4026
 1324HK4    H2911143   6.718   6.803   7.731  0.4605 -1.1452  0.6447
 1324HK4     N211144   6.452   6.751   8.097 -0.6206 -0.2920  0.2492
 1324HK4    C3011145   6.449   6.881   8.152 -0.1436 -0.0736 -0.2399
 1324HK4    C2911146   6.417   7.000   8.087 -0.1884 -0.1067 -0.2751
 1324HK4    H1511147   6.406   7.004   7.979  0.1708  0.0982 -0.3056
 1324HK4    C2811148   6.435   7.122   8.152 -0.1032  0.0451 -0.5838
 1324HK4    C2711149   6.460   7.116   8.291 -0.0161 -0.4695 -0.6200
 1324HK4    H1411150   6.431   7.200   8.356 -0.0135 -1.8161  1.1523
 1324HK4    C3211151   6.491   7.000   8.361 -0.5396  0.0354  0.4534
 1324HK4    H1611152   6.488   7.014   8.469 -0.4303  1.4658  0.2817
 1324HK4    C3111153   6.495   6.881   8.290 -0.6197  0.3487 -0.0789
 1324HK4    C3411154   6.535   6.744   8.318 -0.2191  0.4422 -0.1994
 1324HK4    C3311155   6.494   6.667   8.202 -0.3896 -0.1635  0.2596
 1324HK4    C3511156   6.525   6.532   8.205  0.2939 -0.0174  0.0163
 1324HK4    H1711157   6.483   6.463   8.132 -0.6467  1.2529 -0.6603
 1324HK4    C3611158   6.595   6.470   8.308  0.7485 -0.1620 -0.3822
 1324HK4    H1811159   6.604   6.360   8.316  0.6219 -0.0851  0.9170
 1324HK4    C3711160   6.641   6.548   8.413  0.1603  0.1394 -0.3509
 1324HK4    H1911161   6.732   6.511   8.461 -0.4645 -0.0550  0.7146
 1324HK4    C3811162   6.605   6.682   8.421 -0.5424 -0.0521 -0.2776
 1324HK4    H2011163   6.662   6.748   8.487 -0.4093 -0.7799  0.3505
 1324HK4    C1411164   6.470   7.242   8.076  0.7942 -0.0635 -0.3469
 1324HK4     C911165   6.549   7.352   8.115  0.5525  0.0502 -0.1746
 1324HK4     C811166   6.564   7.468   8.037  0.0761  0.0008 -0.3396
 1324HK4    C1111167   6.510   7.471   7.908  0.0729 -0.8312 -0.3548
 1324HK4     H411168   6.518   7.563   7.849  1.9755  0.0704  1.2227
 1324HK4    C1211169   6.443   7.360   7.859 -0.0825 -0.7048 -0.4245
 1324HK4     H511170   6.408   7.362   7.754 -1.2329  1.9654 -0.0288
 1324HK4    C1311171   6.421   7.253   7.944  0.2971 -0.6087 -0.2033
 1324HK4     H611172   6.326   7.201   7.926  0.6570 -1.3769  0.0857
 1324HK4     C711173   6.605   7.592   8.108  0.5176 -0.2272 -0.1982
 1324HK4     O211174   6.650   7.687   8.044  0.6344 -0.3742 -0.3334
 1324HK4     C411175   6.620   7.591   8.255 -0.4948 -0.0632 -0.0866
 1324HK4     C311176   6.627   7.711   8.324  0.8699  0.0763 -0.4511
 1324HK4     H311177   6.622   7.803   8.264  2.6428 -0.2823 -1.1595
 1324HK4     C211178   6.674   7.708   8.455  0.1580 -0.4839 -0.2072
 1324HK4     H211179   6.669   7.803   8.510 -0.0973 -0.6725  0.1006
 1324HK4     C111180   6.708   7.586   8.514  0.2464 -0.3660 -0.0098
 1324HK4     H111181   6.756   7.594   8.612  0.3148 -0.5405 -0.0305
 1324HK4     C611182   6.708   7.463   8.445 -0.1240 -0.3877  0.0310
 1324HK4     C511183   6.655   7.469   8.315 -0.5080  0.0744  0.2007
 1324HK4    C1011184   6.640   7.345   8.232  0.3155  0.0958  0.0106
 1324HK4     O111185   6.738   7.276   8.208 -0.4244 -0.8059 -0.4105
 1324HK4    C1611186   6.716   7.343   8.528 -0.0824 -0.5464 -0.2024
 1324HK4    C1511187   6.643   7.335   8.648 -0.1614  0.0036 -0.2141
 1324HK4     H711188   6.597   7.425   8.690 -1.7360 -0.4428 -0.9350
 1324HK4    C2011189   6.650   7.227   8.735  0.7117  0.4449  0.2713
 1324HK4     H911190   6.604   7.241   8.833  0.1404  1.9187 -0.1956
 1324HK4    C1911191   6.719   7.112   8.698  0.1758  0.1258  0.2570
 1324HK4    C1811192   6.803   7.120   8.580  0.1883  0.0229  0.2582
 1324HK4    C1711193   6.801   7.236   8.503  0.2909 -0.2591 -0.1707
 1324HK4     H811194   6.872   7.234   8.420  2.5414  0.9156  1.6850
 1324HK4     N111195   6.873   6.999   8.559  0.2066  0.0626  0.0837
 1324HK4    C2111196   6.837   6.910   8.663 -0.2022  0.0901 -0.0327
 1324HK4    C2211197   6.740   6.977   8.747 -0.0481  0.0579  0.1681
 1324HK4    C2611198   6.665   6.904   8.838  0.1368  0.2884  0.5104
 1324HK4    H1311199   6.580   6.946   8.892  0.2802  1.1415  0.0835
 1324HK4    C2511200   6.693   6.768   8.851  0.5652  0.3538  0.2681
 1324HK4    H1211201   6.629   6.721   8.926 -1.2609  0.2456 -1.3415
 1324HK4    C2411202   6.775   6.702   8.761  0.0169  0.4748 -0.3192
 1324HK4    H1111203   6.760   6.593   8.758 -0.0493  0.4184  1.4658
 1324HK4    C2311204   6.854   6.773   8.671  0.4709  0.1628 -0.1637
 1324HK4    H1011205   6.923   6.730   8.598  2.1140 -0.3488  1.6392
 1324HK4    C3911206   6.922   6.960   8.434 -0.0774 -0.0481  0.0069
 1324HK4    C4111207   7.032   6.873   8.426  0.1517  0.2763 -0.3762
 1324HK4    H2111208   7.083   6.862   8.523 -0.5790  0.1961  0.0015
 1324HK4    C4211209   7.048   6.781   8.322  0.4078  0.3350 -0.3889
 1324HK4    H2211210   7.124   6.702   8.330 -0.6209 -0.5638  0.6823
 1324HK4    C4311211   6.952   6.779   8.222 -0.2418 -0.9500  0.2465
 1324HK4    H2311212   6.982   6.708   8.145  0.6412 -0.5217  0.1917
 1324HK4    C4411213   6.853   6.876   8.215 -0.3139 -1.0441 -0.0304
 1324HK4    H2411214   6.771   6.884   8.142 -0.8882  1.9875  0.8546
 1324HK4    C4511215   6.838   6.966   8.320  0.1363 -0.7785 -0.1897
 1324HK4    H2511216   6.768   7.049   8.309  0.2026 -0.7860 -0.6396
 1325HK4    H2811217   7.842   9.780   6.087  0.4380 -1.4778 -2.7837
 1325HK4    C4811218   7.734   9.784   6.071  0.0610  0.0936 -0.0660
 1325HK4    C4711219   7.652   9.684   6.121 -0.1017  0.4027  0.2895
 1325HK4    H2711220   7.675   9.641   6.219  1.0156  2.4270  0.9450
 1325HK4    C4611221   7.529   9.670   6.057  0.1111 -0.4681  0.0610
 1325HK4    H2611222   7.474   9.577   6.080 -0.6806 -0.4137 -1.5582
 1325HK4    C4011223   7.474   9.761   5.966  0.1745 -0.5871 -0.0952
 1325HK4    C5011224   7.555   9.870   5.928 -0.0443 -0.3351  0.1581
 1325HK4    H3011225   7.515   9.943   5.857 -0.1906 -1.1761 -0.6284
 1325HK4    C4911226   7.682   9.879   5.984 -0.0643  0.1966  0.1207
 1325HK4    H2911227   7.738   9.973   5.968 -0.0258  0.2221  0.3917
 1325HK4     N211228   7.343   9.756   5.916  0.0989 -0.2995  0.0741
 1325HK4    C3011229   7.238   9.692   5.984 -0.2745  0.4273  0.1940
 1325HK4    C2911230   7.225   9.684   6.122  0.4730 -0.7270  0.2015
 1325HK4    H1511231   7.281   9.757   6.180 -3.1172  2.4838 -0.1534
 1325HK4    C2811232   7.117   9.610   6.169  0.0222 -0.2088 -0.0222
 1325HK4    C2711233   7.036   9.532   6.085  0.3004 -0.5585  0.0337
 1325HK4    H1411234   6.957   9.471   6.131 -0.3602 -0.6831 -1.2269
 1325HK4    C3211235   7.045   9.548   5.947  0.1913 -0.1222  0.0766
 1325HK4    H1611236   6.995   9.475   5.882  0.1943 -0.7098  0.7356
 1325HK4    C3111237   7.142   9.631   5.893  0.4947 -0.5153  0.0112
 1325HK4    C3411238   7.189   9.658   5.759 -0.0935  0.3715 -0.0171
 1325HK4    C3311239   7.307   9.741   5.781  0.3165 -0.2120  0.0062
 1325HK4    C3511240   7.367   9.788   5.665  0.1679  0.3065  0.1429
 1325HK4    H1711241   7.471   9.822   5.674  0.1683  0.6016 -0.9253
 1325HK4    C3611242   7.310   9.768   5.540 -0.0309  0.6476  0.1790
 1325HK4    H1811243   7.361   9.803   5.449 -3.7807 -2.4680 -3.2925
 1325HK4    C3711244   7.197   9.690   5.522  0.0002  0.5535  0.3915
 1325HK4    H1911245   7.157   9.665   5.424 -1.0986  0.5019  0.8469
 1325HK4    C3811246   7.137   9.631   5.633 -0.7966  0.9205  0.1548
 1325HK4    H2011247   7.075   9.542   5.623 -1.2764  1.3144 -0.5044
 1325HK4    C1411248   7.106   9.582   6.313  0.4790  0.0780  0.0708
 1325HK4     C911249   7.049   9.470   6.376 -0.1340  0.2176 -0.2335
 1325HK4     C811250   6.969   9.488   6.492 -0.1432  0.2914 -0.2504
 1325HK4    C1111251   6.973   9.609   6.559 -0.0150  0.1512 -0.0046
 1325HK4     H411252   6.925   9.633   6.655 -0.3649 -1.1297  0.1441
 1325HK4    C1211253   7.048   9.713   6.507  0.5781 -0.0550  0.4361
 1325HK4     H511254   7.055   9.809   6.561 -2.0006  2.1451 -2.9057
 1325HK4    C1311255   7.107   9.705   6.381  0.3908 -0.0697  0.3494
 1325HK4     H611256   7.136   9.794   6.322 -1.0000 -0.5514 -1.0780
 1325HK4     C711257   6.894   9.374   6.548  0.1893  0.1241 -0.1459
 1325HK4     O211258   6.825   9.385   6.649  0.5222 -0.5674  0.1643
 1325HK4     C411259   6.910   9.242   6.482 -0.1071  0.2217 -0.4111
 1325HK4     C311260   6.831   9.133   6.515  0.5646 -0.0315  0.3774
 1325HK4     H311261   6.729   9.150   6.552  0.4502  0.2974 -0.0763
 1325HK4     C211262   6.875   9.002   6.506 -0.6041 -0.3899 -0.3785
 1325HK4     H211263   6.808   8.915   6.502  0.2036 -1.1420  1.5295
 1325HK4     C111264   7.005   8.984   6.460 -0.3850  0.8590 -0.2588
 1325HK4     H111265   7.042   8.880   6.454 -3.4503 -0.3559  0.9905
 1325HK4     C611266   7.090   9.092   6.427  0.3395  0.4428  0.2230
 1325HK4     C511267   7.034   9.220   6.418 -0.1651  0.1779 -0.5107
 1325HK4    C1011268   7.095   9.333   6.342 -0.5549  0.2112 -0.7753
 1325HK4     O111269   7.163   9.313   6.242  0.4142 -0.0041 -0.0805
 1325HK4    C1611270   7.223   9.062   6.373  0.3461  0.3986  0.2649
 1325HK4    C1511271   7.253   8.945   6.300  0.6284  0.7613 -0.2143
 1325HK4     H711272   7.172   8.881   6.263 -1.7104  2.5880  1.5823
 1325HK4    C2011273   7.383   8.900   6.282  0.4087 -0.1041  0.3578
 1325HK4     H911274   7.410   8.821   6.213  2.0975 -1.6737  2.7160
 1325HK4    C1911275   7.497   8.960   6.336  0.4841  0.0530  0.0235
 1325HK4    C1811276   7.467   9.079   6.413 -0.2666 -0.5678  0.7102
 1325HK4    C1711277   7.336   9.123   6.429  0.1028  0.6202  0.5149
 1325HK4     H811278   7.324   9.212   6.490  0.9550  1.2445 -0.2172
 1325HK4     N111279   7.585   9.129   6.471 -0.0724  0.9346 -0.9406
 1325HK4    C2111280   7.686   9.035   6.443 -0.4154 -0.2039  1.4700
 1325HK4    C2211281   7.639   8.934   6.351  0.5580  0.5281  0.1484
 1325HK4    C2611282   7.729   8.873   6.264  0.1695 -0.1481  0.2182
 1325HK4    H1311283   7.698   8.793   6.196 -0.0041  0.4801 -0.4468
 1325HK4    C2511284   7.863   8.908   6.262  0.1343 -0.0362 -0.3074
 1325HK4    H1211285   7.919   8.874   6.175 -1.9981  0.5515 -1.9564
 1325HK4    C2411286   7.910   9.002   6.353 -0.3055  0.1308 -0.2491
 1325HK4    H1111287   8.018   9.020   6.350 -0.4278  0.7797 -0.7831
 1325HK4    C2311288   7.823   9.062   6.442 -0.4739  0.1332 -0.4133
 1325HK4    H1011289   7.873   9.113   6.524  1.4963 -0.7753 -1.0307
 1325HK4    C3911290   7.608   9.263   6.503  0.7915  0.6648 -0.3996
 1325HK4    C4111291   7.695   9.310   6.604  0.0577  0.1873  0.4552
 1325HK4    H2111292   7.723   9.233   6.678 -0.9129 -1.8492 -1.2147
 1325HK4    C4211293   7.731   9.442   6.623  0.2572  0.1481  0.3257
 1325HK4    H2211294   7.799   9.470   6.705  0.6381  0.1086  0.0307
 1325HK4    C4311295   7.676   9.537   6.537  0.0801 -0.1454  0.1195
 1325HK4    H2311296   7.723   9.635   6.539 -0.4519  0.1002  0.6736
 1325HK4    C4411297   7.589   9.492   6.438  0.3944  0.6517 -0.5187
 1325HK4    H2411298   7.555   9.571   6.369 -1.1877  1.9013  1.6270
 1325HK4    C4511299   7.553   9.360   6.416 -0.1810  0.6857  0.2380
 1325HK4    H2511300   7.506   9.333   6.320  2.0767  0.5478 -0.8524
 1326HK4    H2811301   1.863   3.788   9.657 -1.1743  0.1222  0.1941
 1326HK4    C4811302   1.883   3.801   9.551 -0.5855  0.0119  0.2887
 1326HK4    C4711303   2.004   3.753   9.502 -0.4420  0.2098  0.4450
 1326HK4    H2711304   2.048   3.663   9.548  0.3663 -1.0108 -2.6172
 1326HK4    C4611305   2.062   3.813   9.391 -0.0044 -0.3102  0.3920
 1326HK4    H2611306   2.168   3.788   9.378 -0.1774 -0.7728 -0.1629
 1326HK4    C4011307   2.002   3.917   9.317 -0.0277 -0.5770  0.0349
 1326HK4    C5011308   1.883   3.969   9.372 -0.1997  0.1142 -0.9726
 1326HK4    H3011309   1.847   4.069   9.345 -0.9544 -0.1667 -1.0154
 1326HK4    C4911310   1.828   3.911   9.486  0.3439 -0.1854 -0.8570
 1326HK4    H2911311   1.739   3.961   9.529 -0.7771 -0.4871 -2.7703
 1326HK4     N211312   2.057   3.949   9.193  0.4095  0.3944  0.4726
 1326HK4    C3011313   2.059   4.083   9.149 -0.3839  0.2007 -0.1718
 1326HK4    C2911314   2.043   4.203   9.218 -0.2514  0.1597 -0.0722
 1326HK4    H1511315   1.989   4.206   9.312  0.8262 -2.1853  0.6491
 1326HK4    C2811316   2.066   4.323   9.151 -0.0567  0.0919 -0.1234
 1326HK4    C2711317   2.095   4.322   9.012 -0.0772  0.0282 -0.1301
 1326HK4    H1411318   2.117   4.421   8.969 -0.8426 -0.1627 -0.9609
 1326HK4    C3211319   2.098   4.204   8.940 -0.0233 -0.1089  0.0981
 1326HK4    H1611320   2.110   4.213   8.833  0.3907 -1.0536  0.0548
 1326HK4    C3111321   2.083   4.082   9.006  0.1155 -0.2272 -0.0862
 1326HK4    C3411322   2.098   3.944   8.963 -0.5133 -0.4571  0.4215
 1326HK4    C3311323   2.081   3.864   9.083 -0.4343 -0.1039  0.6715
 1326HK4    C3511324   2.079   3.726   9.063 -0.1547  0.0176 -0.2345
 1326HK4    H1711325   2.104   3.656   9.142 -0.1963 -0.0259 -0.2577
 1326HK4    C3611326   2.073   3.675   8.934  0.1126 -0.2755 -0.1280
 1326HK4    H1811327   2.078   3.566   8.923 -0.5181 -0.1528 -1.8745
 1326HK4    C3711328   2.080   3.755   8.820  0.1172 -0.0281  0.0447
 1326HK4    H1911329   2.095   3.699   8.728 -1.0480  1.6385 -1.1833
 1326HK4    C3811330   2.095   3.893   8.834  0.4502 -0.0826  0.2449
 1326HK4    H2011331   2.106   3.955   8.746 -0.9891 -0.6910 -0.3867
 1326HK4    C1411332   2.029   4.449   9.215  0.3338  0.1650 -0.0384
 1326HK4     C911333   1.966   4.556   9.149  0.6063  0.1476 -0.3247
 1326HK4     C811334   1.991   4.688   9.191  0.0910  0.1938 -0.1625
 1326HK4    C1111335   2.073   4.707   9.301 -0.5683  0.2593  0.3181
 1326HK4     H411336   2.084   4.805   9.350 -1.0841  0.3009  0.3479
 1326HK4    C1211337   2.124   4.602   9.376  0.1617  0.3473 -0.0582
 1326HK4     H511338   2.185   4.622   9.466 -0.6832  2.0542  0.1348
 1326HK4    C1311339   2.103   4.471   9.333  0.4104  0.3249 -0.1191
 1326HK4     H611340   2.156   4.391   9.386  1.3809  1.2895  0.4005
 1326HK4     C711341   1.923   4.803   9.126 -0.3803  0.1896  0.3189
 1326HK4     O211342   1.955   4.915   9.164  0.3498  0.0480  0.1345
 1326HK4     C411343   1.816   4.782   9.026 -0.2988  0.0672  0.2596
 1326HK4     C311344   1.747   4.888   8.968  0.3550  0.2293 -0.2205
 1326HK4     H311345   1.750   4.981   9.027  0.9920 -0.8754  1.5292
 1326HK4     C211346   1.680   4.874   8.848  0.3614 -0.1711 -0.1760
 1326HK4     H211347   1.637   4.964   8.803  0.8421  0.3413  0.3966
 1326HK4     C111348   1.689   4.750   8.784  0.1837 -0.0321 -0.4717
 1326HK4     H111349   1.630   4.736   8.692 -0.2209  0.5581 -0.3095
 1326HK4     C611350   1.754   4.637   8.839  0.4307  0.2726 -0.1306
 1326HK4     C511351   1.807   4.654   8.967  0.5149  0.1992 -0.1549
 1326HK4    C1011352   1.862   4.539   9.044 -0.0317  0.2356  0.2907
 1326HK4     O111353   1.776   4.452   9.061 -0.0426  0.4025  1.0887
 1326HK4    C1611354   1.736   4.515   8.759 -0.1703  0.2317  0.0646
 1326HK4    C1511355   1.829   4.409   8.750  0.1798  0.5707 -0.3058
 1326HK4     H711356   1.936   4.432   8.761 -0.2471  2.2387  0.5481
 1326HK4    C2011357   1.803   4.283   8.697  0.3438  0.5211 -0.2680
 1326HK4     H911358   1.875   4.203   8.709  2.1616  2.1759  0.0936
 1326HK4    C1911359   1.682   4.263   8.631  0.0609 -0.2306  0.4598
 1326HK4    C1811360   1.580   4.364   8.647  0.2997  0.1732 -0.4691
 1326HK4    C1711361   1.608   4.480   8.718 -0.0981 -0.0667  0.0899
 1326HK4     H811362   1.526   4.548   8.745  0.5958  0.4731  0.8589
 1326HK4     N111363   1.459   4.320   8.590  0.0425  0.2693 -0.0026
 1326HK4    C2111364   1.485   4.190   8.540 -0.1079  0.4297 -0.4981
 1326HK4    C2211365   1.624   4.154   8.555 -0.2090  0.2391 -0.0213
 1326HK4    C2611366   1.678   4.034   8.509  0.1402  0.3036  0.2175
 1326HK4    H1311367   1.776   4.011   8.551  0.0539  0.7858  0.6862
 1326HK4    C2511368   1.596   3.946   8.440  0.1112  0.2657  0.3003
 1326HK4    H1211369   1.632   3.845   8.424  0.1782  0.3999 -0.4012
 1326HK4    C2411370   1.462   3.977   8.420 -0.1145 -0.7167  0.2422
 1326HK4    H1111371   1.401   3.902   8.368  1.0142 -0.3399 -1.6506
 1326HK4    C2311372   1.409   4.093   8.476  0.3873 -0.5632  0.4026
 1326HK4    H1011373   1.305   4.093   8.510  0.0437  0.3997 -0.6105
 1326HK4    C3911374   1.327   4.358   8.617 -0.2104 -0.4138 -0.2486
 1326HK4    C4111375   1.290   4.425   8.736 -0.0738 -0.6760 -0.0555
 1326HK4    H2111376   1.346   4.407   8.828  2.2005  0.7462 -1.1088
 1326HK4    C4211377   1.166   4.489   8.742  0.0815 -0.3814  0.0362
 1326HK4    H2211378   1.130   4.530   8.838 -2.5013  0.8277 -1.4019
 1326HK4    C4311379   1.077   4.492   8.635  0.2387  0.1600 -0.0808
 1326HK4    H2311380   0.973   4.519   8.653  0.5240  1.7368 -0.7373
 1326HK4    C4411381   1.114   4.418   8.523  0.3453 -0.5593  0.4236
 1326HK4    H2411382   1.037   4.403   8.447  1.6352 -1.5942 -0.7105
 1326HK4    C4511383   1.239   4.359   8.507  0.0982 -0.8349 -0.4965
 1326HK4    H2511384   1.276   4.339   8.405  2.4184  0.8265 -0.0182
 1327HK4    H2811385   6.872   4.503   3.700 -0.9500  0.3405  1.3200
 1327HK4    C4811386   6.852   4.577   3.622  0.3875 -0.4987  0.1613
 1327HK4    C4711387   6.867   4.712   3.651 -0.0187 -0.4070 -0.0462
 1327HK4    H2711388   6.888   4.738   3.756 -2.1872 -0.5269  0.4588
 1327HK4    C4611389   6.834   4.811   3.560  0.2612 -0.0179  0.2761
 1327HK4    H2611390   6.876   4.908   3.590 -1.1208 -0.1833  2.9408
 1327HK4    C4011391   6.779   4.781   3.434 -1.0250  0.0102  0.8234
 1327HK4    C5011392   6.765   4.644   3.404  0.1421  0.0427  0.1105
 1327HK4    H3011393   6.698   4.611   3.324 -0.3758  0.2820  0.4429
 1327HK4    C4911394   6.798   4.547   3.497 -0.6430  0.1077  0.4568
 1327HK4    H2911395   6.800   4.442   3.464  1.8256  0.5712 -0.9432
 1327HK4     N211396   6.704   4.880   3.367  0.0857  0.1425 -0.2490
 1327HK4    C3011397   6.638   4.994   3.417 -0.0569 -0.0683  0.0423
 1327HK4    C2911398   6.609   5.035   3.546 -0.2343  0.2843 -0.1107
 1327HK4    H1511399   6.643   4.966   3.623 -0.0824  1.1701  0.6213
 1327HK4    C2811400   6.537   5.150   3.577  0.3249  0.6134 -0.0252
 1327HK4    C2711401   6.470   5.219   3.474  0.1556  0.5096  0.0180
 1327HK4    H1411402   6.408   5.307   3.497 -1.1751 -0.0438 -1.3543
 1327HK4    C3211403   6.490   5.181   3.342 -0.4138 -0.1501  0.1182
 1327HK4    H1611404   6.423   5.215   3.262  0.1399 -2.5688 -1.4274
 1327HK4    C3111405   6.576   5.075   3.314 -0.1573  0.0388  0.1874
 1327HK4    C3411406   6.608   5.004   3.192 -0.3378 -0.5131  0.4625
 1327HK4    C3311407   6.687   4.888   3.228  0.2589 -0.3439 -0.2998
 1327HK4    C3511408   6.721   4.801   3.125  0.1195  0.1581 -0.7720
 1327HK4    H1711409   6.798   4.727   3.148 -1.2406 -0.8005  0.8005
 1327HK4    C3611410   6.678   4.816   2.993 -0.3234 -0.2898 -0.6828
 1327HK4    H1811411   6.705   4.740   2.919  0.7548  1.0419 -1.6624
 1327HK4    C3711412   6.593   4.923   2.966  0.1231  0.1811 -0.2491
 1327HK4    H1911413   6.556   4.940   2.865 -0.0647  2.4626  0.1793
 1327HK4    C3811414   6.559   5.016   3.063  0.7273  0.0311  0.1095
 1327HK4    H2011415   6.475   5.085   3.057  1.2413  0.6313 -0.3850
 1327HK4    C1411416   6.504   5.186   3.716 -0.1824  0.2199 -0.0425
 1327HK4     C911417   6.380   5.239   3.753 -0.2437  0.2972 -0.3637
 1327HK4     C811418   6.384   5.337   3.854 -0.3216  0.1290 -0.1961
 1327HK4    C1111419   6.501   5.384   3.912 -0.1852 -0.1385 -0.2572
 1327HK4     H411420   6.513   5.476   3.970  2.4312 -0.5291 -0.0911
 1327HK4    C1211421   6.622   5.328   3.872 -0.0741 -0.1755  0.1204
 1327HK4     H511422   6.719   5.365   3.909  0.0169  0.2599 -0.5456
 1327HK4    C1311423   6.624   5.224   3.780  0.1435  0.7785 -0.9734
 1327HK4     H611424   6.717   5.192   3.731 -0.1606  0.1336 -1.1366
 1327HK4     C711425   6.256   5.398   3.898 -0.1365 -0.0487  0.6130
 1327HK4     O211426   6.250   5.517   3.928  0.3243  0.0324  0.3909
 1327HK4     C411427   6.131   5.326   3.866  0.2161 -0.6075  0.4756
 1327HK4     C311428   6.014   5.375   3.924  0.0035 -0.2593 -0.2412
 1327HK4     H311429   6.027   5.407   4.028 -0.5468 -0.9280  0.0324
 1327HK4     C211430   5.889   5.337   3.878 -0.1310 -0.0629 -0.0417
 1327HK4     H211431   5.797   5.371   3.928 -0.8679  0.5516 -1.7419
 1327HK4     C111432   5.883   5.244   3.775  0.6561  0.1660 -0.2958
 1327HK4     H111433   5.785   5.210   3.738  0.2366  0.5351  0.4812
 1327HK4     C611434   5.999   5.189   3.715  0.6142 -0.5847  0.2941
 1327HK4     C511435   6.124   5.234   3.759  0.5620 -0.5361  0.3909
 1327HK4    C1011436   6.252   5.174   3.712  0.2064 -0.1414 -1.0845
 1327HK4     O111437   6.256   5.060   3.665  0.6946 -0.6717  0.2066
 1327HK4    C1611438   5.970   5.118   3.590  0.8535  0.6398 -0.4722
 1327HK4    C1511439   5.881   5.170   3.494  0.1969  0.3092 -0.0476
 1327HK4     H711440   5.836   5.269   3.512 -0.6805  0.2081 -1.6178
 1327HK4    C2011441   5.842   5.098   3.382  0.1260  0.1838  0.0588
 1327HK4     H911442   5.795   5.152   3.300 -2.3151  0.0893  1.3468
 1327HK4    C1911443   5.887   4.967   3.369 -0.4005 -0.0281  0.3645
 1327HK4    C1811444   5.973   4.905   3.468  0.2646  0.0218 -0.1829
 1327HK4    C1711445   6.006   4.984   3.577 -0.4132  0.2600 -0.1478
 1327HK4     H811446   6.047   4.928   3.662 -0.3312  0.9060  0.2415
 1327HK4     N111447   6.006   4.772   3.436 -0.4345 -0.1954 -0.0028
 1327HK4    C2111448   5.931   4.741   3.321 -0.2421 -0.0287 -0.1730
 1327HK4    C2211449   5.864   4.860   3.273  0.2812  0.2792 -0.1430
 1327HK4    C2611450   5.774   4.852   3.167  0.4363  0.0015 -0.2542
 1327HK4    H1311451   5.712   4.936   3.137  1.5013  1.0866  0.5190
 1327HK4    C2511452   5.752   4.731   3.103  0.1690 -0.1345  0.0939
 1327HK4    H1211453   5.675   4.712   3.028  2.1464 -2.4925 -1.4327
 1327HK4    C2411454   5.822   4.619   3.148  0.4299 -0.2286 -0.5383
 1327HK4    H1111455   5.810   4.526   3.091 -0.5230  0.3527 -1.2920
 1327HK4    C2311456   5.909   4.620   3.257  0.3217  0.0161 -0.4532
 1327HK4    H1011457   5.946   4.525   3.296  1.9466  1.0379  0.5394
 1327HK4    C3911458   6.122   4.706   3.479 -0.2201  0.5500  0.5801
 1327HK4    C4111459   6.120   4.565   3.481  0.3152  0.5167 -0.6074
 1327HK4    H2111460   6.030   4.510   3.514  0.6152  0.2332 -0.2611
 1327HK4    C4211461   6.234   4.486   3.479  0.0984  0.1548  0.7504
 1327HK4    H2211462   6.209   4.379   3.482  0.1555  0.0996 -0.4372
 1327HK4    C4311463   6.358   4.550   3.478  0.1129  0.1192 -0.4613
 1327HK4    H2311464   6.449   4.495   3.500  0.5184  0.7214 -0.6451
 1327HK4    C4411465   6.361   4.689   3.484  0.1243  0.1214 -0.5568
 1327HK4    H2411466   6.462   4.732   3.478  1.4424 -2.5811  1.1348
 1327HK4    C4511467   6.248   4.769   3.483  0.0558  0.0371  0.1491
 1327HK4    H2511468   6.262   4.878   3.492  4.0076 -0.5222  1.8065
 1328HK4    H2811469   9.540   5.729   1.596 -0.9492  0.1318 -1.7568
 1328HK4    C4811470   9.631   5.683   1.558 -0.2506 -0.0408  0.0602
 1328HK4    C4711471   9.683   5.559   1.593 -0.2826  0.0155  0.2998
 1328HK4    H2711472   9.620   5.504   1.665 -0.5878 -0.8897 -0.6453
 1328HK4    C4611473   9.808   5.518   1.550 -0.0592  0.9458  0.0549
 1328HK4    H2611474   9.813   5.408   1.542 -1.6043  0.7245  1.7573
 1328HK4    C4011475   9.893   5.603   1.476  0.2520  0.5898 -0.0004
 1328HK4    C5011476   9.836   5.726   1.436  0.1268  0.5212 -0.0307
 1328HK4    H3011477   9.903   5.789   1.377  2.2188 -0.8287  0.8161
 1328HK4    C4911478   9.707   5.762   1.472 -0.0739 -0.2469  0.0285
 1328HK4    H2911479   9.655   5.846   1.425  1.4051  1.3787  1.2567
 1328HK4     N211480  10.033   5.588   1.477  0.1782 -0.0641  0.5876
 1328HK4    C3011481  10.103   5.509   1.571  0.2009  0.2541  0.8381
 1328HK4    C2911482  10.069   5.453   1.694 -0.2772  0.1170  0.6438
 1328HK4    H1511483   9.975   5.485   1.739 -2.0048 -1.4540 -1.6972
 1328HK4    C2811484  10.147   5.369   1.772  0.1199 -0.1880 -0.0641
 1328HK4    C2711485  10.276   5.348   1.721  0.2416 -0.2181  0.2526
 1328HK4    H1411486  10.342   5.282   1.779  0.4982 -0.7269 -0.6204
 1328HK4    C3211487  10.321   5.388   1.595 -0.3660  0.2881  0.1961
 1328HK4    H1611488  10.411   5.352   1.546 -2.2298 -1.4182 -2.1012
 1328HK4    C3111489  10.232   5.466   1.521  0.0169  0.5909  0.0567
 1328HK4    C3411490  10.244   5.527   1.390 -0.4227 -0.0551 -0.2862
 1328HK4    C3311491  10.121   5.601   1.368 -0.2281  0.4521  0.3212
 1328HK4    C3511492  10.106   5.659   1.243 -0.0747  0.2041  0.1879
 1328HK4    H1711493  10.017   5.719   1.220  0.4552 -0.0094 -2.6065
 1328HK4    C3611494  10.209   5.657   1.150 -0.2146  0.0260  0.0379
 1328HK4    H1811495  10.174   5.672   1.046  0.5792 -1.1797 -0.4190
 1328HK4    C3711496  10.331   5.596   1.176 -0.2375  0.0277  0.1397
 1328HK4    H1911497  10.410   5.621   1.107 -1.0869 -0.6447 -1.0917
 1328HK4    C3811498  10.343   5.522   1.293 -0.2496 -0.3461 -0.0940
 1328HK4    H2011499  10.426   5.451   1.298  0.0713 -0.0314 -0.9606
 1328HK4    C1411500  10.100   5.339   1.909 -0.3086  0.7172 -0.0085
 1328HK4     C911501  10.187   5.332   2.019 -0.6335 -0.1306  0.1955
 1328HK4     C811502  10.172   5.232   2.117  0.2272 -0.0997  0.3598
 1328HK4    C1111503  10.062   5.147   2.111  0.1615  0.0025  0.1720
 1328HK4     H411504  10.043   5.071   2.188 -2.5704  0.0868 -0.3580
 1328HK4    C1211505   9.971   5.159   2.007  0.3402  0.2392  0.0404
 1328HK4     H511506   9.893   5.082   1.995 -2.2748  2.7630  0.2522
 1328HK4    C1311507   9.988   5.254   1.908  0.3808 -0.2002 -0.3782
 1328HK4     H611508   9.905   5.285   1.842 -1.2344 -2.0904  0.7253
 1328HK4     C711509  10.277   5.208   2.218  0.4476 -0.3739  0.0723
 1328HK4     O211510  10.235   5.170   2.328  0.8982 -0.0902  0.3448
 1328HK4     C411511  10.407   5.277   2.203  0.2030  0.0286 -0.1757
 1328HK4     C311512  10.508   5.240   2.292  0.1368  0.3299  0.0284
 1328HK4     H311513  10.485   5.200   2.392 -1.2503  2.5186  0.6292
 1328HK4     C211514  10.637   5.269   2.250  0.0206  0.2635 -0.3775
 1328HK4     H211515  10.720   5.233   2.312  0.4616  1.7415 -0.0875
 1328HK4     C111516  10.668   5.349   2.141  0.4098 -0.5348 -0.8560
 1328HK4     H111517  10.766   5.400   2.135  0.2992 -0.1292  0.5353
 1328HK4     C611518  10.563   5.388   2.055 -0.0805 -0.0867 -0.0518
 1328HK4     C511519  10.431   5.359   2.091 -0.1580 -0.1986 -0.4205
 1328HK4    C1011520  10.311   5.414   2.022 -0.4536 -0.3931 -0.0604
 1328HK4     O111521  10.308   5.534   1.992  0.0313 -0.5935 -0.9449
 1328HK4    C1611522  10.604   5.394   1.914  0.0025  0.2235 -0.0145
 1328HK4    C1511523  10.695   5.294   1.872 -0.3121  0.1816 -0.5937
 1328HK4     H711524  10.686   5.197   1.923 -0.8832  0.5843  0.0896
 1328HK4    C2011525  10.741   5.292   1.741  0.0882 -0.3140 -0.4448
 1328HK4     H911526  10.806   5.210   1.711 -0.0029 -0.5355 -0.0352
 1328HK4    C1911527  10.708   5.388   1.646  0.1152  0.0623 -0.0780
 1328HK4    C1811528  10.621   5.494   1.692  0.2230  0.1517 -0.0802
 1328HK4    C1711529  10.578   5.497   1.824 -0.0467  0.0784 -0.1658
 1328HK4     H811530  10.523   5.583   1.860 -0.1904 -0.3069  0.5628
 1328HK4     N111531  10.619   5.595   1.593  0.2471  0.0855 -0.1479
 1328HK4    C2111532  10.710   5.563   1.491  0.7070  0.5124  0.1237
 1328HK4    C2211533  10.764   5.431   1.519  0.0863  0.2242 -0.0337
 1328HK4    C2611534  10.844   5.372   1.423 -0.0282  0.3819 -0.2274
 1328HK4    H1311535  10.887   5.273   1.439  0.3063  0.6069  0.2919
 1328HK4    C2511536  10.890   5.433   1.307  0.0650  0.3780 -0.1925
 1328HK4    H1211537  10.946   5.375   1.234 -2.6811 -2.6906  0.0348
 1328HK4    C2411538  10.833   5.557   1.281 -1.0194 -0.3095 -1.1681
 1328HK4    H1111539  10.873   5.621   1.202 -0.0327  0.8922  0.2687
 1328HK4    C2311540  10.739   5.616   1.366 -0.0883 -0.0523 -0.3039
 1328HK4    H1011541  10.695   5.713   1.348 -1.2431 -0.7080 -1.0569
 1328HK4    C3911542  10.535   5.706   1.601 -0.2535 -0.3150  0.2214
 1328HK4    C4111543  10.562   5.828   1.535 -0.5534 -0.6515 -0.5327
 1328HK4    H2111544  10.668   5.855   1.533 -0.3652 -1.4004 -0.5951
 1328HK4    C4211545  10.466   5.925   1.505 -0.1018 -0.1111 -0.2341
 1328HK4    H2211546  10.475   6.012   1.439  1.2387  0.2212  0.3690
 1328HK4    C4311547  10.338   5.906   1.555 -0.0448 -0.2421 -0.1381
 1328HK4    H2311548  10.267   5.985   1.528  1.5741  0.4133 -2.7098
 1328HK4    C4411549  10.305   5.798   1.636  0.0014 -0.4467 -0.3937
 1328HK4    H2411550  10.198   5.784   1.654 -0.3753  3.1277  0.4527
 1328HK4    C4511551  10.404   5.701   1.653 -0.1311 -0.4206  0.5176
 1328HK4    H2511552  10.358   5.609   1.692 -1.2933 -0.6005 -1.2181
 1329HK4    H2811553   3.218   4.012  10.347  2.7434  2.0656  0.4451
 1329HK4    C4811554   3.193   4.068  10.257 -0.6226  0.5445  0.3534
 1329HK4    C4711555   3.283   4.152  10.192 -0.3332  0.6872  0.9412
 1329HK4    H2711556   3.380   4.173  10.238  0.4629  0.7743 -0.7599
 1329HK4    C4611557   3.242   4.211  10.073 -0.0452 -0.4127  0.2910
 1329HK4    H2611558   3.318   4.268  10.019 -0.0307 -0.0449  0.6912
 1329HK4    C4011559   3.109   4.203  10.024 -0.3990  0.1599  1.1468
 1329HK4    C5011560   3.022   4.117  10.094 -1.0591 -0.0832  0.0223
 1329HK4    H3011561   2.919   4.091  10.066 -0.9297  0.2181 -0.7666
 1329HK4    C4911562   3.063   4.052  10.209 -0.3521 -0.0327 -0.1966
 1329HK4    H2911563   2.997   4.004  10.283  1.0816 -1.5544  0.1273
 1329HK4     N211564   3.051   4.307   9.951  0.1994 -0.1501  0.2222
 1329HK4    C3011565   3.074   4.445   9.965  0.1415 -0.1154 -0.0212
 1329HK4    C2911566   3.165   4.517  10.042  0.2142 -0.1322 -0.0878
 1329HK4    H1511567   3.198   4.466  10.133 -1.3012 -1.3259 -0.1742
 1329HK4    C2811568   3.195   4.650  10.019  0.4936 -0.3652 -1.0632
 1329HK4    C2711569   3.131   4.715   9.911 -0.4457  0.4201 -0.0411
 1329HK4    H1411570   3.174   4.813   9.884 -0.1885  0.0415 -1.0011
 1329HK4    C3211571   3.026   4.654   9.843 -0.2855 -0.0669  0.1452
 1329HK4    H1611572   2.957   4.710   9.780  0.0858 -2.3853 -2.4230
 1329HK4    C3111573   3.004   4.519   9.861  0.0354 -0.1355  0.0378
 1329HK4    C3411574   2.937   4.422   9.776 -0.4854  0.1153  0.1566
 1329HK4    C3311575   2.966   4.294   9.839  0.2360  0.2692  0.1488
 1329HK4    C3511576   2.914   4.180   9.780 -0.1850  0.3217  0.4179
 1329HK4    H1711577   2.917   4.087   9.838  1.2429 -0.0058 -0.1573
 1329HK4    C3611578   2.844   4.189   9.660 -0.0013  0.2443  0.3036
 1329HK4    H1811579   2.797   4.102   9.613  0.4822  0.4006 -0.4681
 1329HK4    C3711580   2.819   4.312   9.601 -0.7006  0.0699  0.2337
 1329HK4    H1911581   2.760   4.324   9.510  1.8443  3.3886 -1.1031
 1329HK4    C3811582   2.869   4.430   9.655  0.1863 -0.0892 -0.2372
 1329HK4    H2011583   2.858   4.528   9.609  0.2485  0.8703  1.7558
 1329HK4    C1411584   3.290   4.724  10.103 -0.2710  0.0128 -0.5338
 1329HK4     C911585   3.283   4.863  10.125 -0.0717  0.0139 -0.4795
 1329HK4     C811586   3.401   4.938  10.111 -0.1656  0.3978  0.7889
 1329HK4    C1111587   3.525   4.874  10.117 -0.3363 -0.0133 -0.0529
 1329HK4     H411588   3.616   4.934  10.103 -0.8197  1.0576  1.2588
 1329HK4    C1211589   3.534   4.736  10.121  0.2670  0.0248 -0.0634
 1329HK4     H511590   3.630   4.684  10.107 -0.7638 -1.6397 -1.1422
 1329HK4    C1311591   3.416   4.663  10.109 -0.0527  0.5149  0.0827
 1329HK4     H611592   3.418   4.553  10.102 -3.2371  0.3477  1.0362
 1329HK4     C711593   3.398   5.086  10.105  0.0294  0.3945  0.6058
 1329HK4     O211594   3.490   5.155  10.062  0.1466 -0.0286  0.1792
 1329HK4     C411595   3.272   5.151  10.146 -0.1351  0.5225 -0.0984
 1329HK4     C311596   3.238   5.282  10.116  0.3878  0.6731 -0.0332
 1329HK4     H311597   3.306   5.337  10.049 -0.5298 -0.2930 -1.8055
 1329HK4     C211598   3.125   5.338  10.175  0.1573  0.1602  0.0151
 1329HK4     H211599   3.091   5.433  10.132  0.9487  1.0392  1.2745
 1329HK4     C111600   3.059   5.270  10.276  0.1690 -0.2920 -0.2841
 1329HK4     H111601   2.965   5.317  10.308  0.1823  0.7971 -1.7729
 1329HK4     C611602   3.090   5.137  10.312 -0.0607 -0.3387 -0.2580
 1329HK4     C511603   3.186   5.077  10.230 -0.0356 -0.0134 -0.4669
 1329HK4    C1011604   3.169   4.935  10.187 -0.1486  0.0623 -0.6738
 1329HK4     O111605   3.064   4.871  10.198 -0.3501  0.6021  0.7344
 1329HK4    C1611606   3.059   5.093  10.449 -0.0231  0.3588 -0.0211
 1329HK4    C1511607   3.015   5.180  10.550  0.0214 -0.1020  0.4012
 1329HK4     H711608   3.034   5.288  10.534 -0.8858  0.1370  0.8866
 1329HK4    C2011609   2.998   5.140  10.682  0.2014 -0.1339  0.4143
 1329HK4     H911610   2.946   5.210  10.747 -1.1330  1.5796 -2.3647
 1329HK4    C1911611   3.021   5.008  10.718  0.3251 -0.1505  0.2746
 1329HK4    C1811612   3.056   4.910  10.617 -1.4103 -0.3687 -0.1389
 1329HK4    C1711613   3.079   4.962  10.491 -0.9886  0.2787  0.1964
 1329HK4     H811614   3.143   4.895  10.432  0.3484  1.2735  0.4950
 1329HK4     N111615   3.070   4.779  10.668  0.6038 -0.0105  0.2615
 1329HK4    C2111616   3.037   4.793  10.804  0.1273 -0.0809  0.1537
 1329HK4    C2211617   3.014   4.932  10.842 -0.6381 -0.2147  0.1853
 1329HK4    C2611618   2.986   4.959  10.975 -0.5708  0.5862  0.0391
 1329HK4    H1311619   2.945   5.053  11.010 -1.6262  0.2821 -0.3666
 1329HK4    C2511620   2.972   4.853  11.064  0.1177  0.1184 -0.4048
 1329HK4    H1211621   2.952   4.871  11.170 -0.6385 -1.0356 -0.3413
 1329HK4    C2411622   2.989   4.720  11.029  1.3461  0.0458  0.4278
 1329HK4    H1111623   2.984   4.638  11.103 -0.0587  0.8002  1.1899
 1329HK4    C2311624   3.013   4.692  10.895 -0.2295  0.0012  0.1485
 1329HK4    H1011625   3.000   4.590  10.859  1.6014 -0.0065 -0.5394
 1329HK4    C3911626   3.045   4.667  10.587 -0.3237  0.1146  0.3723
 1329HK4    C4111627   3.093   4.539  10.624  0.1740  0.2522  0.1991
 1329HK4    H2111628   3.167   4.525  10.705 -0.3005 -2.0672  0.2407
 1329HK4    C4211629   3.044   4.423  10.566  0.1607  0.3092  0.0972
 1329HK4    H2211630   3.069   4.322  10.600 -4.1484 -1.9915 -3.0333
 1329HK4    C4311631   2.945   4.426  10.468  0.8752 -0.6161 -0.6631
 1329HK4    H2311632   2.915   4.338  10.411 -0.6763 -0.0067 -0.8039
 1329HK4    C4411633   2.900   4.552  10.432  0.0790 -0.5431  0.5532
 1329HK4    H2411634   2.846   4.550  10.336  1.4548  1.1672 -0.2822
 1329HK4    C4511635   2.949   4.671  10.485 -0.1416 -0.2854  0.1815
 1329HK4    H2511636   2.909   4.766  10.445  2.1005  0.9336  0.7896
 1330HK4    H2811637   1.441   1.124   0.229 -0.1407 -1.0290 -0.4877
 1330HK4    C4811638   1.339   1.148   0.261  0.3759  0.2701  0.2428
 1330HK4    C4711639   1.252   1.043   0.290 -0.6656  0.9170 -0.5267
 1330HK4    H2711640   1.268   0.944   0.245  0.9788  0.4021  1.1615
 1330HK4    C4611641   1.146   1.057   0.379 -0.3942  0.1048 -0.0781
 1330HK4    H2611642   1.064   0.984   0.371  0.4988 -1.0850  1.3867
 1330HK4    C4011643   1.127   1.177   0.449  0.4381 -0.2304  0.7255
 1330HK4    C5011644   1.208   1.285   0.410 -0.4107  0.1170 -0.0780
 1330HK4    H3011645   1.203   1.375   0.472 -0.6235 -0.0747  0.1825
 1330HK4    C4911646   1.310   1.272   0.317  0.3868  0.0183  0.8085
 1330HK4    H2911647   1.379   1.357   0.306  2.2731 -1.6740 -0.9376
 1330HK4     N211648   1.036   1.178   0.556 -0.6025  0.0995 -0.1486
 1330HK4    C3011649   0.974   1.298   0.595  0.0379  0.2901  0.3104
 1330HK4    C2911650   0.931   1.404   0.515  0.0465  0.2605  0.2667
 1330HK4    H1511651   0.980   1.417   0.419 -1.4753 -0.0884 -0.5799
 1330HK4    C2811652   0.846   1.501   0.566 -0.1008  0.1881  0.1588
 1330HK4    C2711653   0.814   1.493   0.703 -0.1354 -0.0527  0.1369
 1330HK4    H1411654   0.718   1.537   0.734 -1.1284 -0.6167 -2.0234
 1330HK4    C3211655   0.867   1.398   0.788 -0.0521 -0.1583 -0.0317
 1330HK4    H1611656   0.840   1.402   0.894 -0.9623 -3.2999 -0.0784
 1330HK4    C3111657   0.941   1.292   0.736  0.3912 -0.0506  0.3777
 1330HK4    C3411658   0.980   1.160   0.781  0.3299 -0.1776  0.0575
 1330HK4    C3311659   1.047   1.095   0.670  0.4338  0.2474 -0.1303
 1330HK4    C3511660   1.087   0.962   0.670  0.3240  0.2140  0.0814
 1330HK4    H1711661   1.131   0.916   0.581 -0.8716 -0.5830 -0.1139
 1330HK4    C3611662   1.068   0.896   0.791 -0.1870  0.2722  0.0330
 1330HK4    H1811663   1.064   0.787   0.776  0.0294  0.3605 -0.7166
 1330HK4    C3711664   1.006   0.954   0.901  0.1641 -0.0970  0.4219
 1330HK4    H1911665   0.994   0.891   0.990  3.1388 -1.0039  0.2309
 1330HK4    C3811666   0.964   1.086   0.897  0.1131 -0.1233  0.0622
 1330HK4    H2011667   0.915   1.131   0.984 -0.6214  1.9955 -1.3929
 1330HK4    C1411668   0.801   1.605   0.471 -1.0003  0.0327  0.4036
 1330HK4     C911669   0.770   1.734   0.516  0.0107  0.3764  0.1300
 1330HK4     C811670   0.676   1.818   0.453 -0.1701 -0.0876 -0.2222
 1330HK4    C1111671   0.627   1.770   0.333 -0.0738 -0.3795 -0.1458
 1330HK4     H411672   0.567   1.831   0.263  1.1208  0.2409 -0.6466
 1330HK4    C1211673   0.662   1.648   0.278 -0.0599 -0.3428 -0.2197
 1330HK4     H511674   0.594   1.607   0.202 -2.4680 -0.8143  2.1104
 1330HK4    C1311675   0.747   1.563   0.348 -0.3514 -0.2709  0.2181
 1330HK4     H611676   0.771   1.466   0.302 -3.0587 -2.1563  2.5915
 1330HK4     C711677   0.611   1.935   0.517  0.3880  0.0843  0.0308
 1330HK4     O211678   0.579   2.034   0.451  0.3429 -0.1932 -0.3588
 1330HK4     C411679   0.636   1.954   0.662 -0.1266  0.1773  0.1089
 1330HK4     C311680   0.566   2.053   0.729  0.2678  0.4788  0.0803
 1330HK4     H311681   0.477   2.097   0.681 -0.6459 -0.0871  1.2375
 1330HK4     C211682   0.596   2.083   0.861  0.4421  0.3166  0.0765
 1330HK4     H211683   0.538   2.159   0.914  1.6783  0.5418  1.1266
 1330HK4     C111684   0.693   2.004   0.922  0.0282  0.0183  0.3530
 1330HK4     H111685   0.714   2.018   1.029 -0.9701 -1.0569  0.7002
 1330HK4     C611686   0.762   1.897   0.862 -0.2647  0.0219  0.0071
 1330HK4     C511687   0.741   1.884   0.724  0.4647  0.7992 -0.1788
 1330HK4    C1011688   0.823   1.788   0.644  0.0968  0.1798  0.1778
 1330HK4     O111689   0.946   1.796   0.648  0.1536 -0.4849 -0.2168
 1330HK4    C1611690   0.806   1.786   0.948  0.5489 -0.0803 -0.5358
 1330HK4    C1511691   0.737   1.757   1.068 -0.1419 -0.3964 -1.0076
 1330HK4     H711692   0.630   1.783   1.069 -0.1372 -0.3454 -1.5826
 1330HK4    C2011693   0.789   1.680   1.172 -0.2869  0.0097 -0.6355
 1330HK4     H911694   0.742   1.678   1.270 -1.1488  0.0589 -1.0388
 1330HK4    C1911695   0.920   1.633   1.164 -0.5491 -0.7647 -0.3842
 1330HK4    C1811696   0.999   1.670   1.048 -0.3155 -0.3204 -0.0835
 1330HK4    C1711697   0.939   1.745   0.947  0.5725 -0.0067 -0.3852
 1330HK4     H811698   1.005   1.794   0.876  0.7147  1.5209  0.7870
 1330HK4     N111699   1.128   1.620   1.070 -0.3418 -0.4695 -0.2752
 1330HK4    C2111700   1.136   1.577   1.204 -0.3031 -0.0530 -0.1456
 1330HK4    C2211701   1.004   1.572   1.265 -0.3264 -0.1619 -0.2047
 1330HK4    C2611702   0.976   1.511   1.386  0.0086 -0.2921 -0.1904
 1330HK4    H1311703   0.868   1.508   1.405 -0.4221  2.3470 -1.8478
 1330HK4    C2511704   1.081   1.444   1.448  0.2287 -0.0574 -0.3110
 1330HK4    H1211705   1.058   1.391   1.540  0.4891  2.6756  1.3838
 1330HK4    C2411706   1.209   1.439   1.393  0.0665  0.1743 -0.7152
 1330HK4    H1111707   1.289   1.376   1.434 -1.2223 -0.1474  1.4222
 1330HK4    C2311708   1.234   1.510   1.276  0.0722 -0.6899 -1.2413
 1330HK4    H1011709   1.338   1.524   1.246  0.7355 -1.8081  0.4449
 1330HK4    C3911710   1.222   1.597   0.968  0.0993  0.2098 -0.0296
 1330HK4    C4111711   1.360   1.602   0.993  0.1263 -0.2126 -0.0768
 1330HK4    H2111712   1.394   1.658   1.081 -1.0295 -1.7482  1.3668
 1330HK4    C4211713   1.455   1.538   0.914 -0.1556  0.1164 -0.6910
 1330HK4    H2211714   1.560   1.565   0.939  0.6940 -1.6947 -2.2541
 1330HK4    C4311715   1.417   1.470   0.800 -0.1226  0.3710 -0.8546
 1330HK4    H2311716   1.486   1.423   0.730 -1.1320 -0.2307 -1.4568
 1330HK4    C4411717   1.282   1.461   0.768 -0.3196  0.4476 -0.0542
 1330HK4    H2411718   1.245   1.394   0.689 -2.3837 -0.4815  1.6621
 1330HK4    C4511719   1.191   1.528   0.849 -0.3336  0.3899 -0.0226
 1330HK4    H2511720   1.085   1.533   0.820 -0.1945  0.3478 -0.5459
 1331HK4    H2811721   8.179   1.030   0.463  0.6484 -0.7844 -1.3228
 1331HK4    C4811722   8.075   0.997   0.461  0.2817  0.2033  0.4596
 1331HK4    C4711723   8.002   0.965   0.575  0.2157 -0.6394  0.1850
 1331HK4    H2711724   8.036   0.988   0.677 -0.8041  2.0958 -0.0460
 1331HK4    C4611725   7.866   0.938   0.565  0.1495 -0.2511  0.0470
 1331HK4    H2611726   7.809   0.913   0.655 -0.4874 -0.0984 -0.3074
 1331HK4    C4011727   7.791   0.949   0.445  0.3668 -0.0376 -0.0683
 1331HK4    C5011728   7.870   0.978   0.332  0.1829  0.0309 -0.1785
 1331HK4    H3011729   7.826   0.965   0.232 -0.0928  1.3504 -0.2411
 1331HK4    C4911730   8.006   1.003   0.341  0.0218  0.6508  0.6317
 1331HK4    H2911731   8.055   1.062   0.261 -0.3439  0.5128  0.3066
 1331HK4     N211732   7.667   0.886   0.436  0.3346  0.0115  0.0430
 1331HK4    C3011733   7.620   0.783   0.520  0.2202  0.5245  0.6193
 1331HK4    C2911734   7.679   0.669   0.573 -0.4563 -0.1796 -0.1049
 1331HK4    H1511735   7.773   0.645   0.522 -0.1319 -0.4919  0.6296
 1331HK4    C2811736   7.617   0.575   0.655 -0.3006 -0.1697  0.0264
 1331HK4    C2711737   7.479   0.598   0.671 -0.1699  0.4752  0.2457
 1331HK4    H1411738   7.427   0.516   0.722 -4.8195  2.3598 -1.2398
 1331HK4    C3211739   7.406   0.702   0.614  0.2610  0.5378 -0.1941
 1331HK4    H1611740   7.299   0.697   0.635  0.1872  0.5041 -0.5708
 1331HK4    C3111741   7.476   0.794   0.537  0.0256  0.2352 -0.7703
 1331HK4    C3411742   7.434   0.905   0.455 -0.3107 -0.0191 -0.9425
 1331HK4    C3311743   7.552   0.948   0.383  0.3536  0.2840  0.3147
 1331HK4    C3511744   7.534   1.042   0.282  0.4782 -0.3842 -0.3323
 1331HK4    H1711745   7.617   1.069   0.217  0.6225 -0.0392 -0.0064
 1331HK4    C3611746   7.412   1.104   0.256  0.4371 -0.2677  0.1363
 1331HK4    H1811747   7.411   1.170   0.168  1.1497 -1.7587 -1.0032
 1331HK4    C3711748   7.301   1.065   0.331  0.1639 -0.0454 -0.1493
 1331HK4    H1911749   7.202   1.102   0.307  0.6691  1.1796 -0.4153
 1331HK4    C3811750   7.314   0.972   0.433 -0.5865 -0.3059 -0.2939
 1331HK4    H2011751   7.232   0.958   0.504 -0.2848 -0.6768 -0.0120
 1331HK4    C1411752   7.688   0.449   0.683  0.2049 -0.0031 -0.4885
 1331HK4     C911753   7.614   0.332   0.704 -0.1737  0.3694  0.2905
 1331HK4     C811754   7.652   0.242   0.805  0.2576 -0.1779 -0.3557
 1331HK4    C1111755   7.765   0.269   0.881 -0.1592 -0.6328  0.4282
 1331HK4     H411756   7.790   0.195   0.959 -0.5603  0.1828  1.3358
 1331HK4    C1211757   7.853   0.371   0.847 -0.1098 -0.8272 -0.0249
 1331HK4     H511758   7.956   0.380   0.883  0.1121  0.8833 -1.0495
 1331HK4    C1311759   7.810   0.463   0.752 -0.3116 -0.3761  0.5050
 1331HK4     H611760   7.886   0.534   0.716  2.0641 -3.4108 -0.6052
 1331HK4     C711761   7.581   0.116   0.835 -0.4134  0.2473 -0.1456
 1331HK4     O211762   7.582   0.061   0.945 -0.2160 -0.0772 -0.3090
 1331HK4     C411763   7.482   0.064   0.738 -0.6693  0.1880  0.1479
 1331HK4     C311764   7.420  11.190   0.763 -0.0026 -0.3275 -0.7161
 1331HK4     H311765   7.471  11.126   0.836 -0.6903 -0.2391 -0.1576
 1331HK4     C211766   7.311  11.143   0.691 -0.4117 -0.0471 -0.2855
 1331HK4     H211767   7.285  11.036   0.681 -1.6515 -0.0239  2.2854
 1331HK4     C111768   7.261  11.238   0.603  0.5173  0.1447 -0.6086
 1331HK4     H111769   7.187  11.210   0.527 -1.3144  0.9128  0.8764
 1331HK4     C611770   7.310   0.120   0.581  0.3676  0.2287 -0.4362
 1331HK4     C511771   7.436   0.149   0.635  0.7261 -0.3630 -0.9487
 1331HK4    C1011772   7.513   0.274   0.611  0.1334  0.2059  0.0564
 1331HK4     O111773   7.535   0.302   0.493  0.2890  0.2339  0.0921
 1331HK4    C1611774   7.205   0.221   0.557  0.0345 -0.0538 -0.1764
 1331HK4    C1511775   7.079   0.216   0.619 -0.1008  0.0428 -0.4397
 1331HK4     H711776   7.063   0.156   0.710 -0.4814 -2.4710 -2.1222
 1331HK4    C2011777   6.977   0.302   0.580 -0.2734  0.0591  0.0458
 1331HK4     H911778   6.871   0.281   0.591  0.1937 -1.1099  2.7150
 1331HK4    C1911779   7.004   0.402   0.488 -0.0691 -0.2742 -0.2567
 1331HK4    C1811780   7.135   0.408   0.425 -0.1347  0.0578 -0.3665
 1331HK4    C1711781   7.229   0.310   0.453  0.0407  0.3912  0.2069
 1331HK4     H811782   7.299   0.294   0.371  0.0692  1.2352  0.0583
 1331HK4     N111783   7.143   0.509   0.326  0.2878  0.5623  0.1801
 1331HK4    C2111784   7.014   0.567   0.329  0.0054 -0.0522  0.1377
 1331HK4    C2211785   6.926   0.510   0.430  0.0059  0.0161  0.1769
 1331HK4    C2611786   6.797   0.549   0.461  0.0096  0.2375 -0.0845
 1331HK4    H1311787   6.726   0.485   0.513 -2.4706  2.7889 -0.1912
 1331HK4    C2511788   6.761   0.673   0.408  0.1033  0.1307 -0.3999
 1331HK4    H1211789   6.670   0.721   0.442  0.6617  1.4031 -0.6457
 1331HK4    C2411790   6.846   0.734   0.316  0.1851  0.1160 -0.3349
 1331HK4    H1111791   6.801   0.821   0.265  0.5691  0.9793  0.7852
 1331HK4    C2311792   6.971   0.688   0.276 -0.0266 -0.3333 -0.4805
 1331HK4    H1011793   7.048   0.752   0.235 -0.7692 -0.4569 -2.1240
 1331HK4    C3911794   7.246   0.546   0.239  0.4142 -0.0612  0.0601
 1331HK4    C4111795   7.211   0.604   0.115 -0.1760  0.0424  0.2715
 1331HK4    H2111796   7.117   0.578   0.065 -1.1030  0.0882  1.9551
 1331HK4    C4211797   7.304   0.672   0.037 -0.1219 -0.3869 -0.0343
 1331HK4    H2211798   7.285   0.724  11.190  0.4325  1.2973  0.7688
 1331HK4    C4311799   7.430   0.695   0.090  0.3736 -1.3336 -0.7776
 1331HK4    H2311800   7.509   0.749   0.037 -0.4413  0.0637 -0.5969
 1331HK4    C4411801   7.468   0.641   0.212  0.2406  0.0233 -0.1305
 1331HK4    H2411802   7.575   0.644   0.239  0.3296  0.7003 -0.5567
 1331HK4    C4511803   7.377   0.566   0.285  0.6075 -0.5593 -0.2739
 1331HK4    H2511804   7.409   0.513   0.376  1.6169 -1.5250 -1.1720
 1332HK4    H2811805   9.198   9.477   8.161  0.4923 -0.2187  0.4454
 1332HK4    C4811806   9.155   9.519   8.252  0.7715  0.4000  0.2949
 1332HK4    C4711807   9.107   9.427   8.345 -0.0269 -0.1842 -0.6761
 1332HK4    H2711808   9.098   9.321   8.320  0.4153 -0.2670 -0.4874
 1332HK4    C4611809   9.061   9.469   8.469  0.3359  0.1999 -0.6678
 1332HK4    H2611810   9.008   9.397   8.534  1.0633 -0.4765 -0.8173
 1332HK4    C4011811   9.057   9.607   8.497 -0.2262  0.1904 -0.6959
 1332HK4    C5011812   9.095   9.699   8.397  0.6459 -0.1207 -0.6510
 1332HK4    H3011813   9.092   9.807   8.419  2.0920 -0.4320  1.2613
 1332HK4    C4911814   9.148   9.656   8.276  0.8456  0.5962 -0.8180
 1332HK4    H2911815   9.194   9.722   8.201  2.2480  0.2039 -0.3198
 1332HK4     N211816   8.995   9.654   8.613  0.1622  0.6417 -0.6690
 1332HK4    C3011817   8.900   9.578   8.685  0.4084  0.2208 -0.7929
 1332HK4    C2911818   8.811   9.479   8.646  0.0267  0.1102  0.3658
 1332HK4    H1511819   8.783   9.471   8.541  0.1902 -0.0136  0.3288
 1332HK4    C2811820   8.731   9.410   8.737 -0.1268 -0.1814  0.0096
 1332HK4    C2711821   8.742   9.448   8.872  0.1152 -0.2649  0.0124
 1332HK4    H1411822   8.666   9.417   8.945  1.3428 -1.7660  0.6928
 1332HK4    C3211823   8.824   9.551   8.918 -0.1401  0.3296 -0.8434
 1332HK4    H1611824   8.817   9.598   9.016  0.6349  1.2439 -1.2262
 1332HK4    C3111825   8.899   9.620   8.824  0.0082  0.2340 -0.7964
 1332HK4    C3411826   8.984   9.737   8.834  0.7097 -0.3697  0.3280
 1332HK4    C3311827   9.052   9.744   8.706 -0.2169  0.3260 -0.1266
 1332HK4    C3511828   9.119   9.862   8.680  0.8007 -0.2808 -0.2664
 1332HK4    H1711829   9.158   9.880   8.579 -0.0849  0.9416 -0.4152
 1332HK4    C3611830   9.129   9.962   8.776 -0.6263 -0.1902 -0.2131
 1332HK4    H1811831   9.189  10.052   8.754  0.0522 -0.5811  0.0263
 1332HK4    C3711832   9.068   9.950   8.900  0.9228  0.0631  0.5736
 1332HK4    H1911833   9.086  10.022   8.981 -0.7595  1.1281  0.0187
 1332HK4    C3811834   8.982   9.843   8.924  0.3401  0.2995 -0.4726
 1332HK4    H2011835   8.932   9.828   9.020  2.8409 -3.2496  0.3757
 1332HK4    C1411836   8.616   9.332   8.690 -0.1741 -0.4356  0.5497
 1332HK4     C911837   8.494   9.325   8.758 -0.5471 -0.0026 -0.0686
 1332HK4     C811838   8.429   9.199   8.764  0.6418 -0.5891  0.5876
 1332HK4    C1111839   8.454   9.103   8.667  0.1175 -0.2859  0.1452
 1332HK4     H411840   8.388   9.016   8.656 -2.3599  1.6205 -0.3347
 1332HK4    C1211841   8.563   9.122   8.582 -0.0293 -0.0384  0.0175
 1332HK4     H511842   8.565   9.066   8.488  0.5535  0.3789 -0.2205
 1332HK4    C1311843   8.650   9.229   8.599  0.0992 -0.2029  0.3860
 1332HK4     H611844   8.746   9.232   8.546  0.9560  1.0041  1.9581
 1332HK4     C711845   8.326   9.169   8.865  0.1380  0.1293  0.2953
 1332HK4     O211846   8.304   9.051   8.895 -0.6786  0.2532  0.1829
 1332HK4     C411847   8.266   9.280   8.942 -0.3032  0.2393 -0.2073
 1332HK4     C311848   8.175   9.247   9.043  0.1068 -0.1977  0.0224
 1332HK4     H311849   8.142   9.143   9.056  0.7987 -0.4089  0.0771
 1332HK4     C211850   8.114   9.345   9.120 -0.3398  0.0522 -0.6446
 1332HK4     H211851   8.042   9.322   9.200  0.8464 -0.0647  0.3989
 1332HK4     C111852   8.154   9.475   9.089 -0.0803  0.1106 -0.0732
 1332HK4     H111853   8.102   9.550   9.151 -1.4088  0.0036 -1.0410
 1332HK4     C611854   8.252   9.513   8.995  0.3108 -0.2683  0.1752
 1332HK4     C511855   8.308   9.412   8.915  0.2731  0.0459 -0.2546
 1332HK4    C1011856   8.422   9.438   8.823  0.3385  0.5403 -0.0335
 1332HK4     O111857   8.427   9.541   8.758  0.7939 -0.1051 -1.0278
 1332HK4    C1611858   8.308   9.644   9.027 -0.2454  0.0228 -0.0178
 1332HK4    C1511859   8.311   9.693   9.160 -0.0510 -0.0503  0.0040
 1332HK4     H711860   8.344   9.630   9.244 -0.4970 -0.2418  0.0325
 1332HK4    C2011861   8.314   9.830   9.185 -0.8495 -0.0604  0.1578
 1332HK4     H911862   8.294   9.867   9.285  3.2201  0.5230  0.8572
 1332HK4    C1911863   8.321   9.924   9.083 -0.1879  0.2645  0.4929
 1332HK4    C1811864   8.319   9.873   8.947  1.0509 -0.1970  0.6438
 1332HK4    C1711865   8.314   9.736   8.923  0.5078 -0.0632 -0.0497
 1332HK4     H811866   8.277   9.700   8.827  1.6692 -0.7645 -0.2460
 1332HK4     N111867   8.325   9.979   8.855 -0.0605 -0.4626  0.2568
 1332HK4    C2111868   8.312  10.099   8.927 -0.8403 -0.1268 -0.4417
 1332HK4    C2211869   8.307  10.067   9.068  0.0300  0.2042 -0.3294
 1332HK4    C2611870   8.301  10.166   9.166 -0.6415 -0.1125 -0.0424
 1332HK4    H1311871   8.306  10.142   9.272  1.6257 -1.7147 -0.4621
 1332HK4    C2511872   8.285  10.298   9.124  0.4087  0.1575  0.3917
 1332HK4    H1211873   8.279  10.375   9.201  0.4928  2.0364 -1.4300
 1332HK4    C2411874   8.286  10.333   8.989  0.6970 -0.0718  0.3356
 1332HK4    H1111875   8.309  10.438   8.965 -0.5303 -0.0557 -0.8030
 1332HK4    C2311876   8.303  10.234   8.893 -0.4979  0.0177  0.0289
 1332HK4    H1011877   8.319  10.272   8.792  2.3793  3.0010  1.5085
 1332HK4    C3911878   8.388   9.973   8.730 -0.5242 -0.2916  0.0158
 1332HK4    C4111879   8.489   9.877   8.709 -0.3632 -0.1500  0.1298
 1332HK4    H2111880   8.533   9.813   8.787  0.3601 -1.8653 -1.6433
 1332HK4    C4211881   8.536   9.852   8.581  0.2442  0.3589  0.2454
 1332HK4    H2211882   8.629   9.793   8.574  1.5065  2.1497  1.3594
 1332HK4    C4311883   8.472   9.914   8.475 -0.1207 -0.0922  0.2031
 1332HK4    H2311884   8.506   9.885   8.376  0.4477 -0.0985  0.3975
 1332HK4    C4411885   8.371  10.008   8.492  0.1373  0.1872  0.2072
 1332HK4    H2411886   8.341  10.058   8.399  0.5690  0.2911  0.1228
 1332HK4    C4511887   8.325  10.036   8.620 -0.0237  0.3705  0.1087
 1332HK4    H2511888   8.283  10.138   8.631 -1.7325 -0.1697 -1.1970
 1333HK4    H2811889   9.062  10.441   0.168 -0.4478  1.4104 -2.3028
 1333HK4    C4811890   8.963  10.475   0.199 -0.2190 -0.1078  0.2274
 1333HK4    C4711891   8.897  10.411   0.303 -0.3644 -0.4705 -0.0869
 1333HK4    H2711892   8.955  10.338   0.361 -0.7017  0.4262  1.4037
 1333HK4    C4611893   8.759  10.417   0.319 -0.2949 -0.2696  0.4632
 1333HK4    H2611894   8.716  10.391   0.417  0.1016 -1.1938  0.3947
 1333HK4    C4011895   8.674  10.459   0.215 -0.1386  0.2922  0.5626
 1333HK4    C5011896   8.740  10.522   0.108  0.0994 -0.3689  0.3203
 1333HK4    H3011897   8.674  10.571   0.035 -0.2358 -1.1933  0.0645
 1333HK4    C4911898   8.879  10.529   0.102  0.0660  0.2726  0.1888
 1333HK4    H2911899   8.921  10.565   0.007  1.9888 -0.9611  0.5238
 1333HK4     N211900   8.551  10.396   0.189  0.0309  0.3372 -0.3831
 1333HK4    C3011901   8.517  10.270   0.243  0.4080  0.2254 -0.4034
 1333HK4    C2911902   8.595  10.156   0.259  0.2217  0.1962  0.3126
 1333HK4    H1511903   8.700  10.156   0.231  0.4833  2.8312  1.2223
 1333HK4    C2811904   8.550  10.046   0.330  0.1360  0.2929  0.4082
 1333HK4    C2711905   8.419  10.053   0.382  0.0701 -0.1180  0.2983
 1333HK4    H1411906   8.374   9.971   0.441  1.6418 -0.3953  1.1404
 1333HK4    C3211907   8.337  10.162   0.357  0.2918 -0.0240 -0.0253
 1333HK4    H1611908   8.240  10.171   0.406 -0.8452  1.7144 -2.5168
 1333HK4    C3111909   8.376  10.269   0.277  0.4262 -0.3140 -0.3519
 1333HK4    C3411910   8.313  10.379   0.208  0.4250  0.0523  0.2279
 1333HK4    C3311911   8.427  10.457   0.162  0.0008  0.1272 -0.7169
 1333HK4    C3511912   8.403  10.562   0.075 -0.3040 -0.0226 -0.8121
 1333HK4    H1711913   8.476  10.638   0.050 -1.4903  1.8292  1.1780
 1333HK4    C3611914   8.274  10.591   0.031 -0.4696  0.8273  0.2140
 1333HK4    H1811915   8.252  10.690  11.238 -2.6793  1.1649  2.0693
 1333HK4    C3711916   8.168  10.510   0.071  0.0986  0.1988  0.4480
 1333HK4    H1911917   8.066  10.515   0.032  0.0814 -0.6942  0.3604
 1333HK4    C3811918   8.185  10.404   0.160  0.3805  0.2331  0.4375
 1333HK4    H2011919   8.096  10.374   0.214  1.9323 -1.0240  2.3695
 1333HK4    C1411920   8.627   9.921   0.331 -0.3462 -0.0181 -0.5562
 1333HK4     C911921   8.563   9.797   0.343  0.2935 -0.3738 -0.7315
 1333HK4     C811922   8.619   9.696   0.424  0.2476  0.1509 -0.0360
 1333HK4    C1111923   8.744   9.722   0.478  0.1635  0.4741  0.0058
 1333HK4     H411924   8.763   9.671   0.574  1.1240 -0.6736 -0.7717
 1333HK4    C1211925   8.822   9.834   0.452  0.6715 -0.0092 -0.6038
 1333HK4     H511926   8.925   9.847   0.487  0.0453  0.2037  1.2146
 1333HK4    C1311927   8.760   9.933   0.376 -0.3686 -0.4705 -0.3684
 1333HK4     H611928   8.818  10.016   0.333  0.8487 -0.2023  1.6711
 1333HK4     C711929   8.558   9.562   0.437  0.0110  0.2314 -0.2846
 1333HK4     O211930   8.599   9.479   0.518  0.2088 -0.1671 -0.7875
 1333HK4     C411931   8.435   9.532   0.360 -0.3478  0.1005  0.3357
 1333HK4     C311932   8.389   9.401   0.357  0.2676 -0.1053 -0.6073
 1333HK4     H311933   8.442   9.316   0.402 -0.8743 -0.5852 -0.1295
 1333HK4     C211934   8.258   9.375   0.318  0.1067 -0.8105  0.3757
 1333HK4     H211935   8.226   9.273   0.295 -0.3368 -0.9530  1.6282
 1333HK4     C111936   8.181   9.484   0.278  0.8779 -0.2938  0.2934
 1333HK4     H111937   8.076   9.464   0.253  0.7319 -1.6433  1.9075
 1333HK4     C611938   8.228   9.616   0.260 -0.3685  0.2023  0.5434
 1333HK4     C511939   8.362   9.635   0.298 -0.2587  0.0904  0.2127
 1333HK4    C1011940   8.438   9.760   0.271 -0.3863  0.1607  0.1567
 1333HK4     O111941   8.426   9.796   0.154 -0.2143 -0.6447 -0.1094
 1333HK4    C1611942   8.132   9.726   0.258 -0.3610  0.2018  0.2082
 1333HK4    C1511943   8.015   9.719   0.337 -0.0797  0.2384  0.6236
 1333HK4     H711944   7.996   9.638   0.410 -2.1921  0.9297  0.8723
 1333HK4    C2011945   7.906   9.803   0.322 -0.5133 -0.5850 -0.8820
 1333HK4     H911946   7.819   9.792   0.386  1.4038  0.8520  2.0605
 1333HK4    C1911947   7.903   9.899   0.221 -0.0484  0.0933 -0.2532
 1333HK4    C1811948   8.020   9.907   0.135  0.0321 -0.2875 -0.1795
 1333HK4    C1711949   8.128   9.822   0.158  0.0832 -0.2397 -0.2341
 1333HK4     H811950   8.207   9.814   0.083 -1.2547 -3.1280 -1.4201
 1333HK4     N111951   7.996   9.982   0.018  0.2103 -0.3907 -0.2817
 1333HK4    C2111952   7.859  10.013   0.025  0.3571  0.1499  0.2189
 1333HK4    C2211953   7.798   9.968   0.149 -0.1497  0.1892 -0.0142
 1333HK4    C2611954   7.661   9.951   0.157 -0.0592 -0.5821 -0.0267
 1333HK4    H1311955   7.622   9.902   0.247 -0.2520  1.5733  1.1061
 1333HK4    C2511956   7.589   9.990   0.044 -0.6622 -1.0274  0.2027
 1333HK4    H1211957   7.482   9.980   0.061 -0.5882 -0.8723  0.8006
 1333HK4    C2411958   7.644  10.052  11.181  0.1490 -1.1061  0.5532
 1333HK4    H1111959   7.576  10.098  11.107  0.2244  0.7277  1.6139
 1333HK4    C2311960   7.782  10.067  11.170  0.0223 -0.0353  0.3721
 1333HK4    H1011961   7.824  10.135  11.096 -0.7320  0.1514  0.1126
 1333HK4    C3911962   8.088  10.042  11.179 -0.0801  0.0762 -0.2657
 1333HK4    C4111963   8.063  10.042  11.040 -0.5787  0.5726 -0.1765
 1333HK4    H2111964   7.993   9.975  10.989  1.2267 -0.6884 -1.0444
 1333HK4    C4211965   8.149  10.106  10.951 -0.0022  0.0505  0.0002
 1333HK4    H2211966   8.131  10.097  10.843 -0.7343  0.1856  0.1038
 1333HK4    C4311967   8.251  10.185  11.003  0.5745 -0.5387 -0.2405
 1333HK4    H2311968   8.320  10.243  10.942 -0.8492  1.3938 -0.0718
 1333HK4    C4411969   8.281  10.182  11.138 -0.2306 -0.5361 -0.0534
 1333HK4    H2411970   8.357  10.248  11.182 -0.2743 -0.7867  0.4172
 1333HK4    C4511971   8.198  10.114  11.227 -0.4069  0.1850  0.3285
 1333HK4    H2511972   8.221  10.103   0.086 -1.6602 -2.9039  0.3207
 1334HK4    H2811973   3.950   1.469   1.890 -2.3292  1.7872  0.2365
 1334HK4    C4811974   3.950   1.420   1.987 -0.2366  0.7336 -0.2494
 1334HK4    C4711975   4.063   1.367   2.048 -0.4839  0.3128 -0.1537
 1334HK4    H2711976   4.165   1.394   2.016 -1.1489  0.6886 -2.0388
 1334HK4    C4611977   4.057   1.278   2.155 -0.1078 -0.0246 -0.4130
 1334HK4    H2611978   4.152   1.239   2.194 -0.5903 -2.3509 -1.4985
 1334HK4    C4011979   3.934   1.237   2.209  0.0626 -0.0576 -0.0460
 1334HK4    C5011980   3.821   1.291   2.145 -0.2238 -0.4541  0.1255
 1334HK4    H3011981   3.717   1.262   2.169 -0.3428 -2.4902 -2.5677
 1334HK4    C4911982   3.827   1.377   2.036  0.3186 -0.0863  0.4436
 1334HK4    H2911983   3.738   1.399   1.975  0.2003  0.7459  0.9063
 1334HK4     N211984   3.927   1.119   2.284  0.3617  0.1394  0.2929
 1334HK4    C3011985   4.033   1.029   2.304 -0.0347 -0.3375  0.2437
 1334HK4    C2911986   4.129   0.978   2.217 -0.1995 -0.3470  0.0691
 1334HK4    H1511987   4.135   1.020   2.116  1.1219 -1.1040 -0.1811
 1334HK4    C2811988   4.209   0.866   2.239 -0.0468 -0.2634 -0.0580
 1334HK4    C2711989   4.181   0.803   2.361 -0.4585  0.0198 -0.0039
 1334HK4    H1411990   4.229   0.704   2.370 -1.6572 -0.5000  1.0562
 1334HK4    C3211991   4.085   0.845   2.453  0.0573  0.2370  0.4359
 1334HK4    H1611992   4.077   0.794   2.549 -0.8962  0.6464  0.5768
 1334HK4    C3111993   4.003   0.954   2.424 -0.1645  0.0799  0.4727
 1334HK4    C3411994   3.881   1.006   2.482 -0.2266  0.2268  0.2083
 1334HK4    C3311995   3.829   1.099   2.384  0.1454  0.3421  0.1218
 1334HK4    C3511996   3.693   1.126   2.395  0.0182 -0.0773 -0.3757
 1334HK4    H1711997   3.651   1.215   2.348  2.1224  1.2286  0.1262
 1334HK4    C3611998   3.611   1.057   2.483 -0.1260  0.5209 -0.0379
 1334HK4    H1811999   3.516   1.104   2.512 -0.1375 -0.8752  2.3186
 1334HK4    C3712000   3.665   0.968   2.575 -0.0375  0.0412 -0.5492
 1334HK4    H1912001   3.597   0.915   2.642 -0.7040  1.4520 -0.0982
 1334HK4    C3812002   3.802   0.946   2.580 -0.1720 -0.7806 -0.3509
 1334HK4    H2012003   3.845   0.894   2.665  0.0659 -1.1011 -0.6685
 1334HK4    C1412004   4.273   0.806   2.121  0.1497 -0.0054 -0.0829
 1334HK4     C912005   4.283   0.674   2.078  0.4535  0.0099 -0.0613
 1334HK4     C812006   4.393   0.633   2.000  0.6774 -0.1046  0.3145
 1334HK4    C1112007   4.483   0.727   1.951  0.1580  0.2814  0.1041
 1334HK4     H412008   4.579   0.694   1.910 -0.3348  1.6053 -2.2287
 1334HK4    C1212009   4.468   0.861   1.985  0.0370  0.3049 -0.0402
 1334HK4     H512010   4.550   0.930   1.961  0.6856  0.6894  3.0674
 1334HK4    C1312011   4.364   0.900   2.068  0.3345  0.1076  0.4288
 1334HK4     H612012   4.356   1.008   2.087 -0.9491  0.2167 -0.6563
 1334HK4     C712013   4.420   0.490   1.975 -0.6020 -0.3414  0.2655
 1334HK4     O212014   4.518   0.452   1.911 -0.4162  0.0266  0.3286
 1334HK4     C412015   4.315   0.394   2.016 -0.5043 -0.3816  0.4257
 1334HK4     C312016   4.345   0.258   2.013 -0.1218 -0.3008  0.5530
 1334HK4     H312017   4.449   0.223   2.013 -0.2420 -0.6645  0.8865
 1334HK4     C212018   4.241   0.165   2.017 -0.2538 -0.1571  0.4658
 1334HK4     H212019   4.255   0.058   2.037 -1.0584 -0.4221 -0.3378
 1334HK4     C112020   4.112   0.215   2.003 -0.1867 -0.0983  0.0658
 1334HK4     H112021   4.027   0.154   2.035 -0.9205 -0.7872 -2.9615
 1334HK4     C612022   4.078   0.351   1.992 -0.2062 -0.0829  0.3197
 1334HK4     C512023   4.182   0.440   2.022 -0.3545  0.0451  0.4543
 1334HK4    C1012024   4.173   0.573   2.088  0.1186  0.3710 -0.1293
 1334HK4     O112025   4.087   0.581   2.175 -0.2242  0.1109 -0.4415
 1334HK4    C1612026   3.973   0.385   1.894  0.3176  0.2065 -0.1452
 1334HK4    C1512027   3.923   0.289   1.804  0.0579  0.4544 -0.2660
 1334HK4     H712028   3.966   0.188   1.806 -1.7488 -0.3054  0.8696
 1334HK4    C2012029   3.834   0.323   1.703 -0.1631  0.3652 -0.0986
 1334HK4     H912030   3.807   0.243   1.634  0.9675 -1.3903  1.4515
 1334HK4    C1912031   3.771   0.447   1.703 -0.4683  0.2106 -0.0665
 1334HK4    C1812032   3.815   0.545   1.800 -0.2635 -0.0594  0.1118
 1334HK4    C1712033   3.910   0.509   1.895  0.2466  0.1711 -0.3128
 1334HK4     H812034   3.911   0.569   1.986  0.0514 -1.9535  1.1200
 1334HK4     N112035   3.764   0.673   1.769  0.3625  0.1374 -0.1237
 1334HK4    C2112036   3.680   0.652   1.658  0.0852 -0.0054  0.1110
 1334HK4    C2212037   3.695   0.519   1.602  0.1164  0.2472 -0.4780
 1334HK4    C2612038   3.639   0.483   1.480 -1.1262  0.2464  0.0905
 1334HK4    H1312039   3.649   0.377   1.457 -0.9966  0.3294 -0.2427
 1334HK4    C2512040   3.556   0.573   1.414 -0.7493  0.2481 -0.3821
 1334HK4    H1212041   3.504   0.542   1.322  3.0171  0.2816 -2.6347
 1334HK4    C2412042   3.538   0.697   1.473  0.1285  0.4968 -0.6301
 1334HK4    H1112043   3.478   0.775   1.423 -0.4156  0.5521  0.1120
 1334HK4    C2312044   3.596   0.740   1.591 -0.2707 -0.4794 -0.0744
 1334HK4    H1012045   3.589   0.845   1.621 -1.6112 -0.8353  0.8895
 1334HK4    C3912046   3.826   0.795   1.798  0.8456  0.0146 -0.6339
 1334HK4    C4112047   3.964   0.809   1.824  0.5800  0.0879  0.7950
 1334HK4    H2112048   4.028   0.724   1.797 -0.2973 -0.3492  0.0503
 1334HK4    C4212049   4.019   0.926   1.874  0.0987  0.6673 -0.0113
 1334HK4    H2212050   4.128   0.939   1.859 -0.0449 -0.9182 -2.7382
 1334HK4    C4312051   3.937   1.033   1.907 -0.5786  0.1433  0.0079
 1334HK4    H2312052   3.991   1.120   1.945  0.9742 -0.0659 -1.6370
 1334HK4    C4412053   3.801   1.024   1.878 -0.4899 -0.2736 -0.2862
 1334HK4    H2412054   3.740   1.116   1.870 -0.8789 -0.3782  1.4941
 1334HK4    C4512055   3.746   0.908   1.824  0.1273 -0.5588 -0.3071
 1334HK4    H2512056   3.639   0.886   1.830  0.4254 -1.8886  0.3930
 1335HK4    H2812057   5.038   5.186   6.271 -2.9189  0.0435  0.2533
 1335HK4    C4812058   5.062   5.291   6.288  0.0608 -0.5288 -0.1673
 1335HK4    C4712059   5.094   5.371   6.179  0.1188  0.5090  0.6038
 1335HK4    H2712060   5.073   5.341   6.075 -2.3454 -2.2491  1.8175
 1335HK4    C4612061   5.140   5.501   6.194 -0.2499  0.7043  0.0629
 1335HK4    H2612062   5.179   5.553   6.105 -2.6287 -0.5710 -1.7817
 1335HK4    C4012063   5.151   5.562   6.320 -0.0248  0.1633  0.3010
 1335HK4    C5012064   5.102   5.483   6.426  0.1817 -0.1163  0.1878
 1335HK4    H3012065   5.099   5.523   6.529 -2.3224  0.4579 -0.0842
 1335HK4    C4912066   5.060   5.351   6.413  0.0919 -0.0303 -0.4054
 1335HK4    H2912067   5.037   5.290   6.502 -2.9639 -2.6674 -2.8886
 1335HK4     N212068   5.168   5.699   6.344 -0.3885  0.2677 -0.0445
 1335HK4    C3012069   5.130   5.802   6.255 -0.4631  0.1826 -0.1098
 1335HK4    C2912070   5.046   5.803   6.145 -0.3670  0.2410 -0.1847
 1335HK4    H1512071   4.990   5.714   6.119 -0.6256  0.7886 -1.5533
 1335HK4    C2812072   5.018   5.915   6.067  0.1383  0.3780 -0.1710
 1335HK4    C2712073   5.072   6.036   6.117  0.4051  0.4042 -0.5230
 1335HK4    H1412074   5.048   6.128   6.062  0.1192 -0.0047 -1.0866
 1335HK4    C3212075   5.150   6.044   6.231 -0.5675 -0.2262  0.1963
 1335HK4    H1612076   5.202   6.136   6.258 -0.0192 -0.0628 -1.3782
 1335HK4    C3112077   5.184   5.929   6.300 -0.0405 -0.0915  0.1573
 1335HK4    C3412078   5.266   5.906   6.418  0.2035  0.5116  0.1095
 1335HK4    C3312079   5.242   5.765   6.444 -0.6547  0.6230 -0.0820
 1335HK4    C3512080   5.290   5.706   6.560 -0.1327  0.1092 -0.5577
 1335HK4    H1712081   5.278   5.601   6.585  0.6251 -0.3639 -2.1394
 1335HK4    C3612082   5.354   5.790   6.650 -0.5100  0.0606 -0.2463
 1335HK4    H1812083   5.373   5.744   6.748 -1.9655  0.0720  0.0590
 1335HK4    C3712084   5.376   5.926   6.630  0.7908 -0.0631  0.2823
 1335HK4    H1912085   5.436   5.988   6.697  0.0736 -0.1513  1.0274
 1335HK4    C3812086   5.331   5.985   6.513  0.3995 -0.0441  0.4404
 1335HK4    H2012087   5.344   6.092   6.503 -0.3618  0.0666  0.6097
 1335HK4    C1412088   4.976   5.907   5.926 -0.4272  0.5187 -0.0132
 1335HK4     C912089   5.017   5.992   5.822  0.1245  0.4140  0.1170
 1335HK4     C812090   4.930   6.024   5.716  0.2661  0.2622 -0.0459
 1335HK4    C1112091   4.812   5.951   5.705  0.6710 -0.4091  0.0730
 1335HK4     H412092   4.752   5.965   5.614 -0.4464  0.1993  0.8951
 1335HK4    C1212093   4.773   5.856   5.799 -0.0422 -0.2031 -0.0165
 1335HK4     H512094   4.695   5.781   5.780 -1.7565  1.0990  1.6591
 1335HK4    C1312095   4.856   5.835   5.908 -0.2710  0.1967  0.2357
 1335HK4     H612096   4.816   5.782   5.996 -0.2972  0.6269  0.4881
 1335HK4     C712097   4.976   6.122   5.615 -0.0215  0.2814 -0.1594
 1335HK4     O212098   4.903   6.153   5.521 -0.4156  0.8440  0.3275
 1335HK4     C412099   5.110   6.185   5.626 -0.1032  0.4557 -0.1670
 1335HK4     C312100   5.138   6.291   5.542  0.1421  0.1917 -0.4179
 1335HK4     H312101   5.097   6.281   5.440  2.5932 -1.7678 -1.2691
 1335HK4     C212102   5.230   6.388   5.583  0.3482 -0.1004 -0.1856
 1335HK4     H212103   5.252   6.473   5.517 -0.0083  0.7286  0.7660
 1335HK4     C112104   5.306   6.371   5.698  0.3626 -0.5848 -0.2650
 1335HK4     H112105   5.383   6.446   5.722  0.9749 -1.8652  1.8599
 1335HK4     C612106   5.288   6.259   5.782  0.4667 -0.2351  0.2304
 1335HK4     C512107   5.190   6.168   5.741 -0.2577  0.6592 -0.0288
 1335HK4    C1012108   5.156   6.045   5.818  0.1739  0.2360 -0.5083
 1335HK4     O112109   5.247   5.962   5.825 -0.5140 -0.4744  0.1126
 1335HK4    C1612110   5.341   6.274   5.918  0.6038 -0.2217  0.1752
 1335HK4    C1512111   5.330   6.400   5.982  0.1765  0.0263 -0.3782
 1335HK4     H712112   5.261   6.477   5.944  0.0864 -0.0426 -0.3522
 1335HK4    C2012113   5.392   6.420   6.104  0.4908  0.6656 -0.6372
 1335HK4     H912114   5.389   6.521   6.145 -3.2801  0.5561 -0.4543
 1335HK4    C1912115   5.456   6.313   6.166 -0.2060  0.5838 -0.0425
 1335HK4    C1812116   5.483   6.189   6.095 -0.3905  0.2809  0.4113
 1335HK4    C1712117   5.424   6.176   5.970  0.4452 -0.4014  0.0872
 1335HK4     H812118   5.451   6.095   5.901  1.0748 -0.0958 -0.0291
 1335HK4     N112119   5.557   6.102   6.177 -0.2123 -0.0108 -0.0607
 1335HK4    C2112120   5.578   6.169   6.299  0.2696  0.5656 -0.4580
 1335HK4    C2212121   5.522   6.303   6.295 -0.2572  0.3568 -0.0330
 1335HK4    C2612122   5.550   6.393   6.397  0.3742  0.3023 -0.1585
 1335HK4    H1312123   5.481   6.477   6.408  0.4287  0.1625  1.3378
 1335HK4    C2512124   5.630   6.356   6.504  0.4057  0.4580 -0.1272
 1335HK4    H1212125   5.662   6.433   6.573  3.2688 -0.2977 -0.5172
 1335HK4    C2412126   5.690   6.230   6.502  0.4025  0.4512  0.1628
 1335HK4    H1112127   5.744   6.212   6.596  1.2000  0.8668 -0.2024
 1335HK4    C2312128   5.666   6.137   6.401 -0.1043  0.8134 -0.0563
 1335HK4    H1012129   5.708   6.036   6.406 -2.3213 -0.1797 -0.9276
 1335HK4    C3912130   5.562   5.964   6.156 -0.2414 -0.0187 -0.0219
 1335HK4    C4112131   5.677   5.891   6.194  0.0134  0.1963 -0.3731
 1335HK4    H2112132   5.770   5.949   6.205  0.1938 -0.1539 -0.0426
 1335HK4    C4212133   5.682   5.752   6.183 -0.5872  0.0999  0.4769
 1335HK4    H2212134   5.760   5.695   6.235 -0.3251 -0.1810 -0.2281
 1335HK4    C4312135   5.573   5.682   6.134 -0.2643 -0.4809  0.5823
 1335HK4    H2312136   5.589   5.577   6.113  3.5127  0.0985  0.1866
 1335HK4    C4412137   5.460   5.751   6.090  0.0477  0.1259  0.7289
 1335HK4    H2412138   5.381   5.699   6.034  1.9031  0.1121 -1.9693
 1335HK4    C4512139   5.453   5.889   6.106 -0.3941  0.1915 -0.0028
 1335HK4    H2512140   5.359   5.938   6.079 -2.6523 -2.3987  2.9027
 1336HK4    H2812141   6.017   9.731   5.323  0.5751 -0.3513 -0.7828
 1336HK4    C4812142   6.094   9.660   5.351  0.4656 -0.3239 -0.4194
 1336HK4    C4712143   6.070   9.524   5.333 -0.2128 -0.2878  0.1879
 1336HK4    H2712144   6.021   9.491   5.240  0.4008  0.4117 -0.3867
 1336HK4    C4612145   6.137   9.434   5.415  0.5341  0.3041  0.2352
 1336HK4    H2612146   6.120   9.330   5.383 -0.3796  0.8517 -1.1529
 1336HK4    C4012147   6.232   9.472   5.511 -0.0257  0.1699  0.8424
 1336HK4    C5012148   6.258   9.611   5.519 -0.0824  0.1853  0.7110
 1336HK4    H3012149   6.344   9.653   5.573 -0.3221 -0.8101  1.9100
 1336HK4    C4912150   6.192   9.704   5.440 -0.0242 -0.2839  0.1103
 1336HK4    H2912151   6.236   9.803   5.423 -0.1713 -0.3522 -0.7072
 1336HK4     N212152   6.279   9.376   5.601  0.0166 -0.3094  0.3054
 1336HK4    C3012153   6.212   9.259   5.643  0.0024 -0.4140 -0.0011
 1336HK4    C2912154   6.077   9.230   5.653  0.0241 -0.7652 -0.7060
 1336HK4    H1512155   5.999   9.295   5.614  0.5809  1.8079  2.3568
 1336HK4    C2812156   6.025   9.113   5.707 -0.2301 -0.0481  0.6084
 1336HK4    C2712157   6.118   9.019   5.755 -0.0026 -0.0143  0.2281
 1336HK4    H1412158   6.086   8.928   5.808 -1.4815  0.7726  0.7071
 1336HK4    C3212159   6.255   9.044   5.753 -0.0521  0.2079 -0.3739
 1336HK4    H1612160   6.330   8.975   5.793  2.4860  3.6129  0.9571
 1336HK4    C3112161   6.303   9.165   5.706  0.5521  0.1058 -0.0284
 1336HK4    C3412162   6.430   9.236   5.708  0.5606  0.0998 -0.3739
 1336HK4    C3312163   6.415   9.362   5.637  0.1255  0.3511  0.1633
 1336HK4    C3512164   6.528   9.441   5.625  0.3285  0.0262 -0.0791
 1336HK4    H1712165   6.518   9.535   5.570 -2.1635 -0.1970 -0.0614
 1336HK4    C3612166   6.652   9.403   5.674  0.2339  0.0143  0.1493
 1336HK4    H1812167   6.746   9.449   5.641  0.0497 -0.7983 -1.6072
 1336HK4    C3712168   6.665   9.280   5.737 -0.0503 -0.3648 -0.5205
 1336HK4    H1912169   6.761   9.239   5.768 -0.6736 -0.8399  0.8235
 1336HK4    C3812170   6.554   9.197   5.756  0.1835 -0.5397  0.0908
 1336HK4    H2012171   6.559   9.096   5.797 -0.7840 -0.7656 -0.3463
 1336HK4    C1412172   5.900   9.131   5.783 -0.5398  0.1597  0.0465
 1336HK4     C912173   5.890   9.104   5.920  0.1946 -0.4223 -0.0121
 1336HK4     C812174   5.765   9.072   5.976  0.1220 -0.1757 -0.0301
 1336HK4    C1112175   5.654   9.073   5.893 -0.0962  0.6560  0.2696
 1336HK4     H412176   5.567   9.021   5.935 -0.0196 -1.0599 -1.6322
 1336HK4    C1212177   5.656   9.114   5.760  0.1993 -0.0223  0.0615
 1336HK4     H512178   5.559   9.114   5.707 -0.3503  1.0632  1.0512
 1336HK4    C1312179   5.781   9.141   5.707 -0.1343  0.2811 -0.5764
 1336HK4     H612180   5.787   9.178   5.603 -0.7868  0.1878 -0.6507
 1336HK4     C712181   5.756   9.021   6.115 -0.3236  0.1914  0.0740
 1336HK4     O212182   5.644   9.002   6.164 -0.1575  0.0617  0.3976
 1336HK4     C412183   5.878   9.012   6.198 -0.0315 -0.9537 -0.4718
 1336HK4     C312184   5.870   8.949   6.321 -0.2711 -0.1103 -0.0508
 1336HK4     H312185   5.788   8.876   6.332  0.5902 -0.8170  2.0033
 1336HK4     C212186   5.978   8.937   6.408 -0.3180  0.3522  0.0728
 1336HK4     H212187   5.972   8.924   6.517  0.7094  0.9500  0.2066
 1336HK4     C112188   6.096   8.992   6.360 -0.0618  0.0368  0.3445
 1336HK4     H112189   6.186   8.976   6.421  1.1055 -0.2464 -1.4270
 1336HK4     C612190   6.109   9.058   6.236 -0.2453 -0.0412  0.2831
 1336HK4     C512191   5.996   9.077   6.156 -0.3128  0.1466  0.4217
 1336HK4    C1012192   6.003   9.125   6.015 -0.1586 -0.1134  0.3427
 1336HK4     O112193   6.076   9.221   5.990  0.3537 -0.4388  0.5708
 1336HK4    C1612194   6.243   9.052   6.178 -0.2629  0.3084  0.2057
 1336HK4    C1512195   6.308   8.928   6.165  0.3157  0.5870  0.4121
 1336HK4     H712196   6.246   8.839   6.145  0.4772  1.1148 -2.5854
 1336HK4    C2012197   6.445   8.921   6.145  0.1935 -0.0005 -0.2417
 1336HK4     H912198   6.488   8.822   6.132  0.2276  0.1511 -1.3807
 1336HK4    C1912199   6.518   9.039   6.139  0.1862  0.0183  0.0610
 1336HK4    C1812200   6.450   9.167   6.148 -0.0297 -0.0701 -0.2700
 1336HK4    C1712201   6.313   9.172   6.170  0.0176  0.1318 -0.0047
 1336HK4     H812202   6.255   9.264   6.179  0.0125  0.1483 -0.1982
 1336HK4     N112203   6.548   9.266   6.125 -0.0911  0.1997  0.5948
 1336HK4    C2112204   6.672   9.202   6.108 -0.2211  0.0133  0.3283
 1336HK4    C2212205   6.661   9.059   6.126  0.1770 -0.0843 -0.2166
 1336HK4    C2612206   6.773   8.980   6.101 -0.0455 -0.2473 -0.6902
 1336HK4    H1312207   6.775   8.871   6.115  0.8390 -0.0994  0.4191
 1336HK4    C2512208   6.898   9.028   6.064  0.0141  0.1959  0.0882
 1336HK4    H1212209   6.992   8.975   6.059  0.2345  0.7386 -2.3604
 1336HK4    C2412210   6.899   9.166   6.045 -0.6299  0.3558  1.1451
 1336HK4    H1112211   6.998   9.213   6.031 -0.6954  0.4572  1.0190
 1336HK4    C2312212   6.794   9.255   6.067 -0.3636  0.7510  0.8321
 1336HK4    H1012213   6.796   9.357   6.030 -1.9852  1.4630  2.6212
 1336HK4    C3912214   6.515   9.396   6.083 -0.2506  0.1349  0.5298
 1336HK4    C4112215   6.615   9.493   6.102 -0.3516  0.1966  0.7556
 1336HK4    H2112216   6.690   9.479   6.181 -1.4175  0.5585  1.8502
 1336HK4    C4212217   6.624   9.612   6.031  0.0824 -0.3464 -0.0988
 1336HK4    H2212218   6.702   9.686   6.053  0.9335 -1.8059  1.8963
 1336HK4    C4312219   6.524   9.638   5.938  0.1201  0.2429  0.0191
 1336HK4    H2312220   6.525   9.726   5.874  0.5123 -0.1580 -0.5367
 1336HK4    C4412221   6.420   9.548   5.915  0.2582  0.0962 -0.0389
 1336HK4    H2412222   6.354   9.555   5.828  0.3000 -4.7058 -0.6184
 1336HK4    C4512223   6.420   9.427   5.984 -0.0096  0.3186  0.3552
 1336HK4    H2512224   6.332   9.362   5.973  1.3821 -2.1646  3.3618
 1337HK4    H2812225   6.081   5.391   8.541  0.5256 -1.6494  1.6637
 1337HK4    C4812226   6.045   5.453   8.624 -0.4578 -0.4669  0.3676
 1337HK4    C4712227   5.922   5.518   8.621  0.1010  0.5987  0.2423
 1337HK4    H2712228   5.852   5.481   8.544  1.3773  1.6696 -1.4845
 1337HK4    C4612229   5.893   5.621   8.710 -0.1721  0.6118  0.1360
 1337HK4    H2612230   5.804   5.683   8.690  0.0453  0.9977  0.3686
 1337HK4    C4012231   5.976   5.654   8.818 -0.0812  0.7433  0.0241
 1337HK4    C5012232   6.102   5.590   8.818 -0.2477  0.4143 -0.2576
 1337HK4    H3012233   6.181   5.618   8.889  1.5606  0.2924 -2.1629
 1337HK4    C4912234   6.135   5.497   8.720 -0.3674  0.0478  0.0504
 1337HK4    H2912235   6.241   5.470   8.707 -0.2050  0.3324  0.7756
 1337HK4     N212236   5.925   5.683   8.945 -0.2179  0.0705  0.1247
 1337HK4    C3012237   5.796   5.645   8.987 -0.3771  0.1463 -0.2923
 1337HK4    C2912238   5.719   5.539   8.941  0.0770 -0.5611  0.5627
 1337HK4    H1512239   5.754   5.480   8.856 -0.0228 -2.5509  1.8706
 1337HK4    C2812240   5.596   5.503   8.994 -0.2275  0.2298  0.3955
 1337HK4    C2712241   5.562   5.580   9.107 -0.4001  0.0566  0.4636
 1337HK4    H1412242   5.478   5.549   9.170 -0.4602  2.6421  1.7477
 1337HK4    C3212243   5.633   5.689   9.158 -0.0782 -0.0344  0.2088
 1337HK4    H1612244   5.610   5.733   9.255 -2.4227 -1.4971  0.3524
 1337HK4    C3112245   5.755   5.724   9.102 -0.1139 -0.1885  0.0335
 1337HK4    C3412246   5.868   5.810   9.134 -0.0707 -0.2092 -0.0620
 1337HK4    C3312247   5.973   5.776   9.040  0.2189 -0.3470  0.3110
 1337HK4    C3512248   6.094   5.844   9.032 -0.2138  0.3921  0.0183
 1337HK4    H1712249   6.167   5.825   8.953  1.3106 -1.3841  1.7805
 1337HK4    C3612250   6.113   5.942   9.128 -0.4061  0.5112 -0.0630
 1337HK4    H1812251   6.209   5.996   9.130 -0.1644  0.0961 -0.5339
 1337HK4    C3712252   6.018   5.974   9.224  0.0485  0.2603  0.4735
 1337HK4    H1912253   6.028   6.058   9.293 -0.8640 -0.8415  1.9634
 1337HK4    C3812254   5.893   5.914   9.223  0.0950  0.1826 -0.5633
 1337HK4    H2012255   5.811   5.963   9.275  0.0262 -1.8847  1.3292
 1337HK4    C1412256   5.508   5.419   8.912 -0.0239  0.3631  0.0376
 1337HK4     C912257   5.368   5.426   8.922 -0.0811  0.2508 -0.6359
 1337HK4     C812258   5.294   5.323   8.862 -0.0888 -0.1028 -0.0231
 1337HK4    C1112259   5.356   5.231   8.778  0.1166  0.2223 -0.2288
 1337HK4     H412260   5.298   5.168   8.709  0.6270 -0.9201  0.3668
 1337HK4    C1212261   5.494   5.221   8.777  0.1106  0.1895 -0.6109
 1337HK4     H512262   5.548   5.133   8.739  0.5220 -0.0506  0.4924
 1337HK4    C1312263   5.573   5.314   8.844 -0.3748  0.2029 -0.0517
 1337HK4     H612264   5.677   5.290   8.870 -0.5068  1.8799  2.1507
 1337HK4     C712265   5.147   5.317   8.881 -0.0947  0.1339  0.0039
 1337HK4     O212266   5.078   5.231   8.827 -0.0246  0.3048 -0.3563
 1337HK4     C412267   5.078   5.422   8.959 -0.2921  0.1320 -0.1692
 1337HK4     C312268   4.942   5.418   8.990 -0.2882 -0.0941 -0.1804
 1337HK4     H312269   4.881   5.333   8.958  0.5487 -1.6118  2.0595
 1337HK4     C212270   4.876   5.495   9.085  0.0062  0.2840 -0.2802
 1337HK4     H212271   4.766   5.494   9.092  0.0881  1.1520  1.3489
 1337HK4     C112272   4.958   5.581   9.158  0.1022  0.1361 -0.2153
 1337HK4     H112273   4.907   5.664   9.208  1.2337  0.6414  0.1040
 1337HK4     C612274   5.098   5.584   9.142  0.0953  0.2947 -0.2388
 1337HK4     C512275   5.155   5.512   9.036 -0.0328 -0.3284  0.1085
 1337HK4    C1012276   5.296   5.535   8.994 -0.0679 -0.2011  0.0634
 1337HK4     O112277   5.314   5.647   8.947 -0.9845 -0.3342 -0.6292
 1337HK4    C1612278   5.169   5.588   9.271 -0.1430  0.2237 -0.1015
 1337HK4    C1512279   5.116   5.538   9.391  0.2659  0.1150  0.0303
 1337HK4     H712280   5.079   5.434   9.388  1.8627 -0.6079  2.6733
 1337HK4    C2012281   5.150   5.585   9.518 -0.5318  0.2066  0.2121
 1337HK4     H912282   5.110   5.547   9.612 -0.8687  0.6982  0.2706
 1337HK4    C1912283   5.245   5.686   9.523 -0.3610  0.0679 -0.1762
 1337HK4    C1812284   5.305   5.736   9.401  0.1633  0.1104  0.0943
 1337HK4    C1712285   5.268   5.686   9.276  0.4050 -0.3419  0.2011
 1337HK4     H812286   5.336   5.702   9.192  1.9073 -1.4495  1.1865
 1337HK4     N112287   5.402   5.835   9.429  0.1065  0.1919  0.0002
 1337HK4    C2112288   5.408   5.838   9.569  0.2765 -0.9665  0.0244
 1337HK4    C2212289   5.316   5.747   9.634 -0.0521 -0.6352  0.0197
 1337HK4    C2612290   5.328   5.710   9.768 -0.1565  0.1509  0.2537
 1337HK4    H1312291   5.252   5.654   9.822 -0.5581  1.0893  0.6497
 1337HK4    C2512292   5.434   5.765   9.839 -0.0085  0.0187  0.1314
 1337HK4    H1212293   5.433   5.739   9.945  1.9004  3.2684  1.0055
 1337HK4    C2412294   5.527   5.851   9.782 -0.3967  0.3621  0.0181
 1337HK4    H1112295   5.618   5.869   9.841 -0.7014 -0.1522  0.6515
 1337HK4    C2312296   5.507   5.892   9.651 -0.1424  0.0357 -0.1268
 1337HK4    H1012297   5.572   5.968   9.609  1.0415 -0.6954  0.3698
 1337HK4    C3912298   5.442   5.939   9.345 -0.3678  0.6109  0.2887
 1337HK4    C4112299   5.569   5.999   9.366  0.0349 -0.0399 -0.2941
 1337HK4    H2112300   5.654   5.944   9.408 -1.1450 -0.5238  1.5028
 1337HK4    C4212301   5.598   6.130   9.330  0.1708 -0.1261 -0.4973
 1337HK4    H2212302   5.702   6.164   9.341  0.0293  0.6759 -1.5745
 1337HK4    C4312303   5.501   6.203   9.264 -0.4087 -0.3395  0.1104
 1337HK4    H2312304   5.501   6.312   9.266 -0.8506 -0.3031 -1.2132
 1337HK4    C4412305   5.383   6.141   9.225 -0.4608 -0.2669  0.1558
 1337HK4    H2412306   5.319   6.186   9.148 -1.5269 -1.3793  0.3731
 1337HK4    C4512307   5.351   6.012   9.266 -0.8927 -0.1515  0.1922
 1337HK4    H2512308   5.258   5.966   9.229  0.0530  0.4037 -3.0319
 1338HK4    H2812309   4.107   1.767   7.759 -0.4986 -0.3968 -0.8520
 1338HK4    C4812310   4.134   1.703   7.843 -0.5127  0.1415 -0.4357
 1338HK4    C4712311   4.165   1.572   7.808 -0.2920  0.1052 -0.1110
 1338HK4    H2712312   4.145   1.539   7.705 -0.1178 -0.3509  0.0020
 1338HK4    C4612313   4.183   1.478   7.908  0.1811  0.1766 -0.1289
 1338HK4    H2612314   4.219   1.375   7.889 -0.2035 -0.1623  0.9654
 1338HK4    C4012315   4.169   1.514   8.044 -0.1077 -0.0825 -0.0912
 1338HK4    C5012316   4.135   1.647   8.077  0.8598  0.1217  0.0754
 1338HK4    H3012317   4.172   1.680   8.175  0.4235 -0.8868  0.5906
 1338HK4    C4912318   4.117   1.740   7.976 -0.1938 -0.4175 -0.2375
 1338HK4    H2912319   4.064   1.833   8.001  0.1084 -0.2761 -0.1165
 1338HK4     N212320   4.201   1.427   8.149 -0.0871  0.2020  0.1371
 1338HK4    C3012321   4.292   1.320   8.144 -0.1754  0.1472 -0.2948
 1338HK4    C2912322   4.419   1.316   8.087  0.1364  0.5170  0.3550
 1338HK4    H1512323   4.424   1.358   7.987  0.0713 -0.5254 -0.0983
 1338HK4    C2812324   4.516   1.224   8.126 -0.1301 -0.0971 -0.4185
 1338HK4    C2712325   4.480   1.131   8.226 -0.5747  0.2543 -0.2465
 1338HK4    H1412326   4.546   1.047   8.254 -0.1631 -0.9215 -4.3620
 1338HK4    C3212327   4.352   1.122   8.278 -0.1614 -0.1551  0.7120
 1338HK4    H1612328   4.321   1.034   8.335 -0.0108  0.0705  1.1455
 1338HK4    C3112329   4.259   1.218   8.242  0.5216  0.2665  0.0699
 1338HK4    C3412330   4.132   1.262   8.296  0.5962  0.3654  0.1620
 1338HK4    C3312331   4.106   1.396   8.248 -0.3459  0.0740 -0.1518
 1338HK4    C3512332   3.990   1.454   8.300 -0.6187  0.0170 -0.6913
 1338HK4    H1712333   3.944   1.538   8.248  0.4036  0.5986 -0.6855
 1338HK4    C3612334   3.911   1.396   8.398 -0.3346  0.7996  0.0061
 1338HK4    H1812335   3.824   1.442   8.446 -2.1528 -3.1860  0.7798
 1338HK4    C3712336   3.938   1.265   8.440  0.2145  0.6796 -0.7134
 1338HK4    H1912337   3.860   1.213   8.495 -0.1056 -0.2249 -2.0016
 1338HK4    C3812338   4.047   1.198   8.387  0.1285  0.2525 -0.3514
 1338HK4    H2012339   4.086   1.114   8.444 -0.1130 -0.2518 -0.9352
 1338HK4    C1412340   4.644   1.213   8.056  0.1729  0.2584  0.0809
 1338HK4     C912341   4.725   1.099   8.047  0.0190  0.1545  0.0063
 1338HK4     C812342   4.866   1.104   8.038  0.0216 -0.1390 -0.1122
 1338HK4    C1112343   4.916   1.231   8.016  0.2169 -0.2429 -0.2675
 1338HK4     H412344   5.026   1.236   8.024  0.2529 -1.6796  0.1493
 1338HK4    C1212345   4.845   1.350   8.013  0.9248  0.1895 -0.1473
 1338HK4     H512346   4.891   1.448   7.992  0.0023  0.4712 -0.8803
 1338HK4    C1312347   4.708   1.337   8.038  0.9348 -0.1846 -0.2883
 1338HK4     H612348   4.646   1.426   8.055  2.0789  0.6033 -0.1798
 1338HK4     C712349   4.952   0.984   8.048 -0.2237 -0.3090 -0.0323
 1338HK4     O212350   5.070   0.995   8.016 -0.1388  0.8504  0.6430
 1338HK4     C412351   4.889   0.850   8.059 -0.2819 -0.2913 -0.1515
 1338HK4     C312352   4.965   0.735   8.072  0.0649 -0.0825 -0.3322
 1338HK4     H312353   5.075   0.746   8.071  0.2223 -0.7612  2.9070
 1338HK4     C212354   4.912   0.608   8.089 -0.1252  0.0870  0.3735
 1338HK4     H212355   4.974   0.517   8.099 -0.2565 -0.1759 -1.0327
 1338HK4     C112356   4.777   0.601   8.120 -0.2361  0.3199 -0.0431
 1338HK4     H112357   4.736   0.500   8.135 -1.1501  0.6731 -0.1200
 1338HK4     C612358   4.702   0.720   8.134 -0.0332  0.3969  0.4241
 1338HK4     C512359   4.750   0.840   8.080 -0.2435  0.5228  0.5166
 1338HK4    C1012360   4.667   0.962   8.056 -0.3395  0.2792 -0.4158
 1338HK4     O112361   4.562   0.946   7.993 -0.2651  0.3177 -0.5484
 1338HK4    C1612362   4.617   0.720   8.254 -0.6954  0.0873 -0.0397
 1338HK4    C1512363   4.664   0.648   8.366 -0.0988  0.3651 -0.1063
 1338HK4     H712364   4.769   0.617   8.374 -0.1091  0.3682  0.0293
 1338HK4    C2012365   4.568   0.599   8.454 -0.2345 -0.6074 -0.7839
 1338HK4     H912366   4.600   0.573   8.555 -1.6150  1.2663  0.1409
 1338HK4    C1912367   4.432   0.625   8.441 -0.1714  0.1683  0.0531
 1338HK4    C1812368   4.388   0.713   8.335  0.2869  0.8580  0.4304
 1338HK4    C1712369   4.483   0.753   8.242 -0.4753  0.8873 -0.3411
 1338HK4     H812370   4.452   0.828   8.169 -0.1753  0.4742 -0.9004
 1338HK4     N112371   4.248   0.733   8.330  0.1681 -0.1333 -0.3774
 1338HK4    C2112372   4.195   0.658   8.436 -0.0267  0.1907 -0.2477
 1338HK4    C2212373   4.306   0.594   8.505 -0.1614  0.4304  0.1984
 1338HK4    C2612374   4.273   0.505   8.606  0.2940 -0.0811 -0.1029
 1338HK4    H1312375   4.354   0.455   8.660  2.1707  3.2812  0.3408
 1338HK4    C2512376   4.143   0.489   8.651  0.4278 -0.6511  0.0829
 1338HK4    H1212377   4.112   0.417   8.727  0.4897  1.6631  2.3731
 1338HK4    C2412378   4.037   0.549   8.585  0.7249  0.1469  0.3341
 1338HK4    H1112379   3.933   0.550   8.622 -0.0119 -1.0472 -1.6494
 1338HK4    C2312380   4.065   0.634   8.479  0.0390 -0.6718 -0.5070
 1338HK4    H1012381   3.985   0.667   8.411  0.3595  2.0577  0.3784
 1338HK4    C3912382   4.176   0.739   8.210 -0.5478  0.1489  0.0679
 1338HK4    C4112383   4.048   0.799   8.206 -0.2122  0.8878  0.3431
 1338HK4    H2112384   4.007   0.841   8.299 -2.0471 -2.3939  1.0651
 1338HK4    C4212385   3.973   0.799   8.090  0.3376  0.5911 -0.0163
 1338HK4    H2212386   3.883   0.863   8.084  1.2869  1.8221 -1.4363
 1338HK4    C4312387   4.022   0.750   7.969 -0.0654 -0.5920  0.2929
 1338HK4    H2312388   3.987   0.774   7.869  1.7692 -0.4614 -0.3299
 1338HK4    C4412389   4.150   0.697   7.971  0.4731  0.6477 -0.6864
 1338HK4    H2412390   4.185   0.640   7.884 -1.5255 -3.0941  0.8465
 1338HK4    C4512391   4.223   0.685   8.089 -0.9826 -0.3744  0.1300
 1338HK4    H2512392   4.321   0.636   8.085 -0.6831  0.2283 -0.1143
 1339HK4    H2812393   4.810   8.940   8.101  0.1530  1.2276  0.6929
 1339HK4    C4812394   4.753   8.873   8.165  0.6202  0.3815  0.2387
 1339HK4    C4712395   4.793   8.743   8.196 -0.1996  0.1005  0.1399
 1339HK4    H2712396   4.895   8.721   8.160  0.8525  2.5982  1.4536
 1339HK4    C4612397   4.721   8.661   8.281  0.0579  0.0467  0.3106
 1339HK4    H2612398   4.774   8.577   8.328  0.2754 -0.9328 -1.6398
 1339HK4    C4012399   4.591   8.700   8.320  0.0462 -0.0240  0.3331
 1339HK4    C5012400   4.541   8.825   8.280  0.6006  0.0102 -0.2606
 1339HK4    H3012401   4.444   8.869   8.307 -0.8873 -3.0234 -0.4781
 1339HK4    C4912402   4.625   8.909   8.207  0.5831  0.3759  0.1333
 1339HK4    H2912403   4.588   9.003   8.164  0.8184  0.6733  0.5747
 1339HK4     N212404   4.506   8.604   8.378 -0.3305  0.0734 -0.0588
 1339HK4    C3012405   4.525   8.464   8.381  0.2318  0.1526  0.1252
 1339HK4    C2912406   4.601   8.386   8.295 -0.5958 -0.2636 -0.2328
 1339HK4    H1512407   4.663   8.425   8.214  0.3858 -4.2269 -1.4876
 1339HK4    C2812408   4.597   8.247   8.300  0.2958 -0.2897 -0.1118
 1339HK4    C2712409   4.509   8.187   8.393  0.3149 -0.3983 -0.1645
 1339HK4    H1412410   4.527   8.080   8.411 -0.9482 -0.6910 -0.5602
 1339HK4    C3212411   4.428   8.259   8.481  0.6588  0.0657 -0.2250
 1339HK4    H1612412   4.339   8.215   8.526  1.4782  0.0088  1.3679
 1339HK4    C3112413   4.442   8.397   8.479 -0.0633  0.1417 -0.1280
 1339HK4    C3412414   4.367   8.502   8.545 -0.2573 -0.1537  0.1208
 1339HK4    C3312415   4.413   8.624   8.482  0.4882 -0.1260  0.7153
 1339HK4    C3512416   4.365   8.743   8.536 -0.0377  0.2798 -0.6209
 1339HK4    H1712417   4.402   8.837   8.497 -0.3789  0.6066 -0.1678
 1339HK4    C3612418   4.277   8.739   8.644  1.1046 -0.0626  0.3196
 1339HK4    H1812419   4.242   8.834   8.687 -0.2516 -1.3732  2.1565
 1339HK4    C3712420   4.230   8.618   8.695  0.2281  0.0276 -0.2536
 1339HK4    H1912421   4.157   8.613   8.775 -0.7198 -0.9812 -1.1589
 1339HK4    C3812422   4.274   8.495   8.648 -0.3341 -0.2833  0.0461
 1339HK4    H2012423   4.234   8.401   8.687 -0.5759 -0.0348  0.4079
 1339HK4    C1412424   4.653   8.161   8.196  0.1030  0.0029 -0.4604
 1339HK4     C912425   4.619   8.029   8.163  0.1770 -0.2581  0.5137
 1339HK4     C812426   4.714   7.931   8.126 -0.0231 -0.3476  0.2454
 1339HK4    C1112427   4.845   7.973   8.110 -0.0335 -0.5391 -0.3648
 1339HK4     H412428   4.929   7.902   8.109  1.7278  1.4921 -1.1471
 1339HK4    C1212429   4.878   8.107   8.123  0.1332 -0.6243  0.0944
 1339HK4     H512430   4.981   8.141   8.109  0.0510 -0.0241  0.8857
 1339HK4    C1312431   4.782   8.202   8.158  0.2363 -0.3493 -0.3909
 1339HK4     H612432   4.805   8.309   8.145  0.2418 -0.2546  0.3777
 1339HK4     C712433   4.677   7.788   8.141  0.0406 -0.4273 -0.3374
 1339HK4     O212434   4.722   7.712   8.056  0.7434  0.0978 -0.4434
 1339HK4     C412435   4.546   7.754   8.200  0.1447 -0.2731 -0.0152
 1339HK4     C312436   4.528   7.621   8.237  0.3215 -0.0605  0.8393
 1339HK4     H312437   4.601   7.543   8.216  0.4933  0.7757 -1.8950
 1339HK4     C212438   4.409   7.585   8.300 -0.0836 -0.0273  0.0915
 1339HK4     H212439   4.393   7.483   8.338 -1.7472 -0.4381 -1.6153
 1339HK4     C112440   4.310   7.681   8.313 -0.0976  0.0126 -0.2907
 1339HK4     H112441   4.216   7.652   8.361  0.5720  0.0551  1.0590
 1339HK4     C612442   4.318   7.815   8.268  0.2530  0.1791  0.2665
 1339HK4     C512443   4.444   7.850   8.217  0.3597 -0.1015  0.3428
 1339HK4    C1012444   4.476   7.989   8.176  0.1030 -0.0217  0.4067
 1339HK4     O112445   4.401   8.052   8.102  0.7016  0.2876  0.0566
 1339HK4    C1612446   4.186   7.870   8.236  0.2318 -0.0038  0.0391
 1339HK4    C1512447   4.084   7.795   8.173  0.1575  0.2039 -0.0924
 1339HK4     H712448   4.099   7.688   8.152 -1.6970 -0.2116  0.6211
 1339HK4    C2012449   3.972   7.852   8.115  0.5251  0.3740 -0.6347
 1339HK4     H912450   3.899   7.797   8.056  1.6416  0.7069 -2.3741
 1339HK4    C1912451   3.953   7.989   8.131  0.2294  0.2502  0.0792
 1339HK4    C1812452   4.050   8.062   8.211  0.0858 -0.1075  0.5863
 1339HK4    C1712453   4.162   8.003   8.267  0.2037 -0.0869  0.3688
 1339HK4     H812454   4.222   8.047   8.347  1.1349  0.0516 -0.3885
 1339HK4     N112455   4.003   8.192   8.239  0.1385  0.1373 -0.4425
 1339HK4    C2112456   3.871   8.193   8.190  0.0815 -0.3167 -0.2951
 1339HK4    C2212457   3.840   8.077   8.108  0.0203 -0.1648 -0.4876
 1339HK4    C2612458   3.722   8.073   8.035  0.0820 -0.1168 -0.5889
 1339HK4    H1312459   3.702   7.989   7.968  0.8387 -1.3379  0.6946
 1339HK4    C2512460   3.636   8.182   8.048  0.4306  0.0883 -0.0098
 1339HK4    H1212461   3.530   8.172   8.022 -0.4190  1.4218  2.7610
 1339HK4    C2412462   3.669   8.299   8.114 -0.0186  0.4184 -0.3611
 1339HK4    H1112463   3.609   8.390   8.099 -0.2670 -0.0571 -2.3722
 1339HK4    C2312464   3.787   8.304   8.188 -0.2006 -0.5220 -0.0075
 1339HK4    H1012465   3.824   8.397   8.232 -0.5529 -0.8100  0.9030
 1339HK4    C3912466   4.080   8.306   8.261 -0.0712  0.2110 -0.0969
 1339HK4    C4112467   4.044   8.410   8.350 -0.3017  0.1415 -0.1125
 1339HK4    H2112468   4.008   8.382   8.450 -0.4661  0.1840 -0.1580
 1339HK4    C4212469   4.097   8.537   8.338  0.1635 -0.0059  0.4053
 1339HK4    H2212470   4.048   8.614   8.399 -0.7541 -0.8993  0.8058
 1339HK4    C4312471   4.193   8.565   8.240  0.2835 -0.2011  0.4632
 1339HK4    H2312472   4.234   8.664   8.221 -1.7915  0.0381 -3.1750
 1339HK4    C4412473   4.240   8.463   8.159  0.2920 -0.1107  0.3542
 1339HK4    H2412474   4.338   8.475   8.110  0.5644 -2.7373  0.1572
 1339HK4    C4512475   4.183   8.336   8.170  0.3246 -0.1374  0.2283
 1339HK4    H2512476   4.240   8.254   8.125  1.4453 -0.7297  2.6435
 1340HK4    H2812477   0.497   0.562   3.807 -0.0067  0.3347 -1.7406
 1340HK4    C4812478   0.606   0.558   3.812 -0.0233  0.6991 -0.9329
 1340HK4    C4712479   0.673   0.661   3.876 -0.0130 -0.3572  0.7798
 1340HK4    H2712480   0.614   0.733   3.935  0.7656  0.4924  0.5166
 1340HK4    C4612481   0.811   0.666   3.868 -0.0799  0.1234 -0.1733
 1340HK4    H2612482   0.851   0.756   3.916 -0.1380  0.3089 -0.4725
 1340HK4    C4012483   0.886   0.569   3.798 -0.1880 -0.2340  0.2041
 1340HK4    C5012484   0.808   0.469   3.737 -0.1346  0.0107 -0.2633
 1340HK4    H3012485   0.857   0.386   3.683 -0.2601 -0.7383  0.7529
 1340HK4    C4912486   0.669   0.457   3.740 -0.1373  0.0734 -0.1630
 1340HK4    H2912487   0.620   0.374   3.687  2.0489  0.4157 -2.9006
 1340HK4     N212488   1.021   0.547   3.824 -0.1660 -0.1747  0.1396
 1340HK4    C3012489   1.098   0.576   3.939  0.0605  0.0030 -0.0550
 1340HK4    C2912490   1.065   0.621   4.066  0.0400 -0.4154  0.0902
 1340HK4    H1512491   0.961   0.650   4.078  0.7180  1.7224  1.0771
 1340HK4    C2812492   1.159   0.638   4.168  0.0688  0.0344 -0.0098
 1340HK4    C2712493   1.295   0.625   4.134  0.1393  0.0170  0.2819
 1340HK4    H1412494   1.367   0.618   4.217  0.2367  0.0569  0.2007
 1340HK4    C3212495   1.337   0.586   4.008  0.1592  0.1312  0.2531
 1340HK4    H1612496   1.439   0.600   3.973 -0.3382 -0.0357 -1.3100
 1340HK4    C3112497   1.239   0.552   3.915  0.2224  1.0691 -0.1598
 1340HK4    C3412498   1.249   0.512   3.776 -0.1475 -0.2445  0.1922
 1340HK4    C3312499   1.113   0.492   3.732 -0.1521 -0.3102  0.2345
 1340HK4    C3512500   1.101   0.476   3.594  0.4015 -0.7661  0.2363
 1340HK4    H1712501   1.001   0.488   3.552  1.8099 -0.2716 -3.1303
 1340HK4    C3612502   1.208   0.484   3.506  0.4529 -0.3033  0.3397
 1340HK4    H1812503   1.185   0.505   3.401 -0.6848  2.8001  1.1392
 1340HK4    C3712504   1.338   0.497   3.553  0.4785 -0.0204  0.1937
 1340HK4    H1912505   1.418   0.527   3.485 -0.1607 -0.9090 -0.9653
 1340HK4    C3812506   1.358   0.513   3.690 -0.0811 -0.0408  0.2795
 1340HK4    H2012507   1.454   0.546   3.731 -1.2820  3.6906  0.2783
 1340HK4    C1412508   1.116   0.712   4.288  0.3241 -0.5800  0.4589
 1340HK4     C912509   1.192   0.798   4.368  0.5136 -0.0465 -0.2877
 1340HK4     C812510   1.143   0.836   4.495 -0.6119  0.1532 -0.7768
 1340HK4    C1112511   1.021   0.791   4.544 -0.0619 -0.1732  0.3119
 1340HK4     H412512   0.980   0.832   4.638  2.2232  0.6229  0.9893
 1340HK4    C1212513   0.946   0.704   4.465  0.6633 -0.5591  0.0431
 1340HK4     H512514   0.849   0.665   4.498  0.8778 -2.1724 -1.2362
 1340HK4    C1312515   0.999   0.658   4.345 -0.1438 -0.4473 -0.3613
 1340HK4     H612516   0.965   0.560   4.309 -0.6016  0.0774 -1.3674
 1340HK4     C712517   1.225   0.918   4.586 -0.2866 -0.6873 -0.3084
 1340HK4     O212518   1.174   0.999   4.663  0.3030 -0.2588 -0.3601
 1340HK4     C412519   1.370   0.929   4.555 -0.2148 -0.2742  0.1735
 1340HK4     C312520   1.456   0.990   4.646 -0.4127  0.4893 -0.1514
 1340HK4     H312521   1.417   1.016   4.745  0.5642 -1.8651  0.8860
 1340HK4     C212522   1.585   1.021   4.605 -0.1810  0.0310  0.2297
 1340HK4     H212523   1.648   1.088   4.664  0.1698  0.6460 -0.8165
 1340HK4     C112524   1.638   0.968   4.487  0.2216  0.0015  0.4255
 1340HK4     H112525   1.707   1.042   4.442 -0.6949 -0.4733 -1.8077
 1340HK4     C612526   1.560   0.891   4.399  0.1124  0.7472 -0.1329
 1340HK4     C512527   1.424   0.889   4.431  0.1861  0.3286  0.1536
 1340HK4    C1012528   1.328   0.843   4.327  0.6536 -0.2337 -0.0340
 1340HK4     O112529   1.330   0.913   4.226 -0.0137 -0.4438 -0.1933
 1340HK4    C1612530   1.631   0.777   4.341 -0.2961  0.3876  0.0750
 1340HK4    C1512531   1.744   0.726   4.408 -0.5900 -0.4845 -0.0750
 1340HK4     H712532   1.752   0.729   4.517 -0.2495  1.1993 -0.1206
 1340HK4    C2012533   1.854   0.681   4.336 -0.1850  0.4021 -0.0142
 1340HK4     H912534   1.937   0.646   4.397  0.8251  2.6171 -0.0504
 1340HK4    C1912535   1.856   0.656   4.199 -0.0300 -0.2014  0.0966
 1340HK4    C1812536   1.734   0.694   4.130 -0.1169 -0.9338 -0.1599
 1340HK4    C1712537   1.632   0.755   4.203  0.4594 -0.3962  0.1987
 1340HK4     H812538   1.544   0.781   4.145 -0.4510 -3.8519 -0.0732
 1340HK4     N112539   1.761   0.691   3.992  0.0818  0.2360 -0.1507
 1340HK4    C2112540   1.889   0.635   3.973  0.1447  0.2965  0.0936
 1340HK4    C2212541   1.952   0.609   4.101  0.2112  0.3364  0.0687
 1340HK4    C2612542   2.075   0.545   4.101  0.0243 -0.0273 -0.0543
 1340HK4    H1312543   2.121   0.526   4.198 -0.5176  0.7741  0.3606
 1340HK4    C2512544   2.136   0.500   3.984 -0.1097 -0.3506  0.0019
 1340HK4    H1212545   2.237   0.459   3.981 -0.4788 -1.1694 -3.0188
 1340HK4    C2412546   2.074   0.521   3.862 -0.5600  0.1305  0.3087
 1340HK4    H1112547   2.121   0.494   3.766 -1.3422 -2.6895  0.6719
 1340HK4    C2312548   1.948   0.578   3.861 -0.7267 -0.2401 -0.0980
 1340HK4    H1012549   1.885   0.567   3.772 -1.5328  0.2650  0.3992
 1340HK4    C3912550   1.705   0.779   3.898 -0.1198  0.4747  0.1904
 1340HK4    C4112551   1.694   0.739   3.763 -0.1579  0.4033  0.2144
 1340HK4    H2112552   1.665   0.635   3.744  0.2020  0.0157  1.6723
 1340HK4    C4212553   1.703   0.830   3.658  0.3812  0.0521 -0.0448
 1340HK4    H2212554   1.701   0.792   3.555  0.9195 -2.2006  0.7378
 1340HK4    C4312555   1.720   0.964   3.691 -0.3437 -0.0013  0.5647
 1340HK4    H2312556   1.703   1.039   3.614  1.3197 -0.3806 -0.1956
 1340HK4    C4412557   1.736   1.008   3.822 -0.2568  0.1565  0.5015
 1340HK4    H2412558   1.758   1.113   3.846 -2.6984  0.6562  0.7542
 1340HK4    C4512559   1.734   0.914   3.924  0.2439  0.3088  0.6501
 1340HK4    H2512560   1.743   0.935   4.032 -1.7248 -0.0767  0.9138
 1341HK4    H2812561   0.953   1.105   6.709 -0.8713 -0.0270 -1.5633
 1341HK4    C4812562   0.975   1.210   6.727 -0.3881 -0.3891  0.0197
 1341HK4    C4712563   0.889   1.280   6.811  0.0113  0.1536 -0.0212
 1341HK4    H2712564   0.824   1.228   6.883  0.9658 -1.6092 -0.3941
 1341HK4    C4612565   0.900   1.419   6.810 -0.7298  0.2157 -0.8106
 1341HK4    H2612566   0.826   1.476   6.868 -0.5862 -0.0783 -0.3251
 1341HK4    C4012567   0.997   1.489   6.735  0.0893 -0.1451 -0.0986
 1341HK4    C5012568   1.078   1.412   6.650  0.0011 -0.7257  0.3367
 1341HK4    H3012569   1.165   1.459   6.601  1.2024 -2.9359  0.2624
 1341HK4    C4912570   1.071   1.273   6.649 -0.0425 -0.7218  0.1757
 1341HK4    H2912571   1.136   1.214   6.582  0.9322  0.8179 -0.2581
 1341HK4     N212572   1.042   1.615   6.776 -0.1420 -0.0707 -0.0732
 1341HK4    C3012573   1.026   1.672   6.904 -0.5602 -0.0477 -0.1340
 1341HK4    C2912574   1.040   1.619   7.032  0.8561  0.1155 -0.2089
 1341HK4    H1512575   1.060   1.512   7.031  0.5646  0.0428 -2.6118
 1341HK4    C2812576   1.029   1.698   7.146  0.2473  0.2434 -0.3549
 1341HK4    C2712577   0.999   1.835   7.129 -0.0464  0.2265  0.0234
 1341HK4    H1412578   1.026   1.893   7.219 -0.4352 -2.5011  1.9611
 1341HK4    C3212579   0.979   1.891   7.004 -0.1331  0.3625  0.1000
 1341HK4    H1612580   1.000   1.998   6.997 -1.2374  0.6169  0.5321
 1341HK4    C3112581   0.997   1.813   6.890  0.5051  0.2201  0.2990
 1341HK4    C3412582   1.005   1.851   6.751  0.4667 -0.1168  0.2040
 1341HK4    C3312583   1.039   1.725   6.688 -0.1701 -0.1209 -0.1337
 1341HK4    C3512584   1.067   1.730   6.552 -0.5624 -0.1487 -0.2152
 1341HK4    H1712585   1.145   1.661   6.520  3.0255  2.4413  2.5082
 1341HK4    C3612586   1.057   1.851   6.485  1.3343  0.1763  0.0584
 1341HK4    H1812587   1.090   1.858   6.380 -0.6764  2.3345 -0.4968
 1341HK4    C3712588   1.017   1.970   6.546  0.1637 -0.1803  0.0089
 1341HK4    H1912589   0.996   2.061   6.490 -1.4237 -1.2042 -1.1037
 1341HK4    C3812590   0.986   1.970   6.682  0.0899 -0.2981 -0.0089
 1341HK4    H2012591   0.972   2.064   6.734  0.8605  0.7354 -1.6061
 1341HK4    C1412592   1.008   1.632   7.275 -0.0027  0.5484 -0.2373
 1341HK4     C912593   0.909   1.672   7.366  0.1427  0.3055  0.0289
 1341HK4     C812594   0.939   1.685   7.503 -0.7862 -0.1225  0.2788
 1341HK4    C1112595   1.058   1.630   7.548 -0.3052 -0.1784 -1.0258
 1341HK4     H412596   1.096   1.654   7.649  0.2386 -0.2049 -1.2245
 1341HK4    C1212597   1.152   1.572   7.464  0.0233 -0.7573 -0.2707
 1341HK4     H512598   1.251   1.540   7.499  0.8878  1.4585 -0.5991
 1341HK4    C1312599   1.128   1.577   7.327  0.0933  0.7642 -0.2317
 1341HK4     H612600   1.193   1.523   7.257 -2.5226  0.4877 -2.5698
 1341HK4     C712601   0.851   1.759   7.596 -0.2700  0.3977  0.3529
 1341HK4     O212602   0.903   1.826   7.686  0.2066 -0.0495  0.4115
 1341HK4     C412603   0.713   1.784   7.549 -0.0223  0.2438 -0.4678
 1341HK4     C312604   0.628   1.852   7.635 -0.1266 -0.2775 -0.1555
 1341HK4     H312605   0.668   1.906   7.722  2.5219  1.1419 -2.1969
 1341HK4     C212606   0.493   1.865   7.603 -0.2902 -0.6627  0.3715
 1341HK4     H212607   0.426   1.914   7.676 -1.8938 -0.9885 -0.8590
 1341HK4     C112608   0.444   1.798   7.492  0.1114  0.4570 -0.4920
 1341HK4     H112609   0.343   1.822   7.456  1.5199  2.6291 -3.1788
 1341HK4     C612610   0.526   1.710   7.418  0.0445 -0.2453  0.2640
 1341HK4     C512611   0.665   1.725   7.431  0.0833 -0.0753 -0.3518
 1341HK4    C1012612   0.767   1.694   7.327  0.0270 -0.8019 -0.1927
 1341HK4     O112613   0.732   1.712   7.210  0.0583  0.7177  0.0229
 1341HK4    C1612614   0.471   1.607   7.329 -0.3719  0.1402  0.0763
 1341HK4    C1512615   0.342   1.612   7.272 -0.4201 -0.3894  0.1390
 1341HK4     H712616   0.292   1.710   7.261  2.4048  0.9484 -1.2632
 1341HK4    C2012617   0.286   1.508   7.199 -0.7808 -0.4160  0.4500
 1341HK4     H912618   0.192   1.523   7.146 -1.6684 -1.4765  1.6898
 1341HK4    C1912619   0.347   1.384   7.191 -0.0447 -0.0313  0.1102
 1341HK4    C1812620   0.478   1.373   7.253 -0.0423 -0.0539  0.1015
 1341HK4    C1712621   0.531   1.482   7.322 -0.4300  0.1086  0.1450
 1341HK4     H812622   0.618   1.463   7.385  0.8141 -1.0011 -1.8630
 1341HK4     N112623   0.521   1.239   7.245  0.3026  0.0872 -0.4333
 1341HK4    C2112624   0.419   1.172   7.174 -0.1053 -0.0396  0.2596
 1341HK4    C2212625   0.304   1.254   7.143  0.0580  0.0326 -0.1543
 1341HK4    C2612626   0.195   1.209   7.070 -0.0652 -0.0133  0.0588
 1341HK4    H1312627   0.100   1.261   7.076 -1.1696 -1.4369 -3.4452
 1341HK4    C2512628   0.206   1.080   7.019  0.4611 -0.0450  0.2519
 1341HK4    H1212629   0.122   1.036   6.965  1.4713 -1.2891 -0.3358
 1341HK4    C2412630   0.319   1.000   7.037  0.0163 -0.7893 -0.2578
 1341HK4    H1112631   0.333   0.915   6.968  0.2708  0.9482 -2.3988
 1341HK4    C2312632   0.418   1.043   7.123 -0.5593  0.0697 -0.0119
 1341HK4    H1012633   0.500   0.976   7.149 -0.3401  1.3762  2.8261
 1341HK4    C3912634   0.650   1.199   7.281  0.1749  0.2151  0.1749
 1341HK4    C4112635   0.680   1.070   7.328  0.0018  0.2616  0.4140
 1341HK4    H2112636   0.601   0.994   7.339  0.2821 -0.1364 -0.3215
 1341HK4    C4212637   0.805   1.028   7.371  0.0530  0.0587  0.0694
 1341HK4    H2212638   0.814   0.934   7.427  0.4636  1.0175  1.6377
 1341HK4    C4312639   0.912   1.116   7.358  0.0077  0.0760 -0.2045
 1341HK4    H2312640   1.004   1.090   7.411  0.9007  2.3639 -0.5704
 1341HK4    C4412641   0.895   1.240   7.298  0.1313  0.2802  0.1769
 1341HK4    H2412642   0.986   1.301   7.293  1.0133 -1.0587 -0.5482
 1341HK4    C4512643   0.766   1.277   7.260  0.2120  0.0169 -0.3640
 1341HK4    H2512644   0.747   1.362   7.194 -0.3088 -0.5638 -0.9559
 1342HK4    H2812645   5.827   5.380   6.733 -1.6396  1.1287 -1.0331
 1342HK4    C4812646   5.771   5.390   6.826 -0.3529 -0.2169 -0.0947
 1342HK4    C4712647   5.659   5.472   6.829  0.1340  0.4514  0.0393
 1342HK4    H2712648   5.616   5.522   6.741  0.2297  2.6015  1.1830
 1342HK4    C4612649   5.599   5.503   6.950  0.1332  0.1251  0.1206
 1342HK4    H2612650   5.504   5.559   6.952  0.5952  0.9303 -0.3995
 1342HK4    C4012651   5.642   5.448   7.073 -0.2249 -0.2203  0.0923
 1342HK4    C5012652   5.748   5.354   7.067 -0.2967 -0.3063  0.1845
 1342HK4    H3012653   5.792   5.314   7.160  0.4615 -0.1424 -0.0984
 1342HK4    C4912654   5.811   5.331   6.946 -0.1023  0.4251  0.1410
 1342HK4    H2912655   5.892   5.256   6.940 -0.7128 -0.1262 -1.8059
 1342HK4     N212656   5.613   5.509   7.195 -0.0483  0.3542 -0.1534
 1342HK4    C3012657   5.568   5.640   7.222 -0.9390 -0.0157  0.1721
 1342HK4    C2912658   5.596   5.758   7.153  0.0942 -0.0386  0.5440
 1342HK4    H1512659   5.647   5.749   7.057 -1.4752 -2.6884 -0.0863
 1342HK4    C2812660   5.579   5.886   7.202 -0.0822 -0.0300  0.4618
 1342HK4    C2712661   5.515   5.898   7.327 -0.4004  0.4596  0.2564
 1342HK4    H1412662   5.508   5.996   7.376 -1.2946 -0.1334  1.3630
 1342HK4    C3212663   5.488   5.783   7.401 -0.0714  0.2248  0.0112
 1342HK4    H1612664   5.424   5.799   7.488 -0.5495 -3.6951  0.4681
 1342HK4    C3112665   5.523   5.656   7.359 -0.9641 -0.0711  0.1709
 1342HK4    C3412666   5.551   5.532   7.429 -0.2050  0.0620  0.1050
 1342HK4    C3312667   5.601   5.448   7.321 -0.4780  0.3103 -0.2151
 1342HK4    C3512668   5.612   5.314   7.355 -0.1749  0.4833  0.3873
 1342HK4    H1712669   5.647   5.242   7.281 -0.5310 -0.3156  0.9919
 1342HK4    C3612670   5.573   5.269   7.480 -0.0689  0.0283  0.2603
 1342HK4    H1812671   5.560   5.160   7.487 -1.4942  0.0587 -1.5699
 1342HK4    C3712672   5.527   5.347   7.585 -0.2094  0.0369  0.1903
 1342HK4    H1912673   5.497   5.309   7.683  2.2294  0.2791  1.0701
 1342HK4    C3812674   5.519   5.483   7.555 -0.4135 -0.0117  0.0239
 1342HK4    H2012675   5.486   5.551   7.633 -3.3264  1.0170 -1.9940
 1342HK4    C1412676   5.640   5.998   7.130 -0.1109 -0.0342  0.4328
 1342HK4     C912677   5.686   6.120   7.181 -0.1931  0.1349  0.1088
 1342HK4     C812678   5.687   6.237   7.102 -0.4443  0.1881  0.1842
 1342HK4    C1112679   5.670   6.226   6.964 -0.1658 -0.1444  0.1736
 1342HK4     H412680   5.707   6.306   6.899 -0.0663 -0.7425 -0.5129
 1342HK4    C1212681   5.632   6.106   6.904 -0.7634  0.1727 -0.0844
 1342HK4     H512682   5.603   6.095   6.798  0.0177  1.1659 -0.4102
 1342HK4    C1312683   5.612   6.000   6.991 -0.1862  0.5057  0.4527
 1342HK4     H612684   5.552   5.914   6.959  0.5965  0.0508  0.1834
 1342HK4     C712685   5.718   6.370   7.158  0.3300  0.0503  0.0961
 1342HK4     O212686   5.725   6.470   7.088 -0.1653 -0.3343 -0.5047
 1342HK4     C412687   5.749   6.387   7.302  0.3634 -0.0742  0.1028
 1342HK4     C312688   5.778   6.510   7.358 -0.0427  0.2389 -0.3746
 1342HK4     H312689   5.735   6.601   7.313 -1.9419 -0.7702 -0.6618
 1342HK4     C212690   5.823   6.520   7.489 -0.0578 -0.1385 -0.3415
 1342HK4     H212691   5.871   6.612   7.524  0.5715 -0.1100 -1.2608
 1342HK4     C112692   5.810   6.410   7.573  0.3857  0.1754  0.1371
 1342HK4     H112693   5.815   6.426   7.682  4.6368  0.0383  0.0422
 1342HK4     C612694   5.754   6.289   7.527 -0.1395  0.3138  0.4059
 1342HK4     C512695   5.740   6.275   7.388 -0.1045  0.2028  0.4144
 1342HK4    C1012696   5.730   6.142   7.322  0.0587  0.4012 -0.0120
 1342HK4     O112697   5.793   6.047   7.367 -0.4805  0.6441  1.2862
 1342HK4    C1612698   5.711   6.187   7.624  0.3353 -0.9758 -0.7261
 1342HK4    C1512699   5.588   6.122   7.601 -0.1388 -0.1702 -0.4800
 1342HK4     H712700   5.523   6.157   7.520  0.3575  1.7257 -0.0941
 1342HK4    C2012701   5.538   6.014   7.672  0.3578 -0.1925 -0.1648
 1342HK4     H912702   5.430   6.001   7.674  0.4754 -1.2274 -0.0092
 1342HK4    C1912703   5.621   5.963   7.771 -0.0381  0.0397  0.2912
 1342HK4    C1812704   5.749   6.029   7.789 -0.2117  0.3051  0.5638
 1342HK4    C1712705   5.793   6.146   7.728 -0.4196  0.2949  0.3937
 1342HK4     H812706   5.860   6.211   7.784  0.4796 -0.3344  0.0551
 1342HK4     N112707   5.839   5.942   7.854  0.2188  0.1590 -0.2093
 1342HK4    C2112708   5.764   5.827   7.885  0.1267  0.2021 -0.2811
 1342HK4    C2212709   5.626   5.835   7.840  0.0983 -0.2674 -0.2874
 1342HK4    C2612710   5.544   5.726   7.864  0.2096 -0.1783  0.4796
 1342HK4    H1312711   5.443   5.736   7.824  0.2268 -0.9920  0.2081
 1342HK4    C2512712   5.586   5.615   7.937  0.2768 -0.2949  0.2639
 1342HK4    H1212713   5.512   5.535   7.950  0.7487 -0.8404 -0.3681
 1342HK4    C2412714   5.718   5.609   7.979  0.1763 -0.1748  0.6046
 1342HK4    H1112715   5.759   5.518   8.025 -0.5671 -0.4037  0.8107
 1342HK4    C2312716   5.806   5.714   7.953 -0.3048  0.0017 -0.3459
 1342HK4    H1012717   5.904   5.703   7.999 -0.0140  0.4590 -0.8694
 1342HK4    C3912718   5.977   5.941   7.834  0.2169 -0.3067 -0.1930
 1342HK4    C4112719   6.065   5.899   7.936  0.1572 -0.2275 -0.1071
 1342HK4    H2112720   6.031   5.901   8.041  0.7266 -1.6377  0.1071
 1342HK4    C4212721   6.197   5.860   7.917  0.4669  0.4979  0.4905
 1342HK4    H2212722   6.260   5.843   8.005 -0.3572  0.2599  1.0423
 1342HK4    C4312723   6.247   5.857   7.788 -0.4292 -1.1942  0.1630
 1342HK4    H2312724   6.353   5.836   7.778 -0.2064  0.5357 -1.5096
 1342HK4    C4412725   6.166   5.893   7.680  0.2745 -0.2246 -0.0508
 1342HK4    H2412726   6.191   5.889   7.573 -0.7742  2.0246 -0.4045
 1342HK4    C4512727   6.038   5.940   7.707  0.3178 -0.0542 -0.1456
 1342HK4    H2512728   5.967   5.958   7.625  0.1112  0.5003  0.1543
 1343HK4    H2812729   0.648   3.029  10.270  0.8869  0.1228 -0.2504
 1343HK4    C4812730   0.606   2.931  10.248 -0.1543  0.3553  0.6154
 1343HK4    C4712731   0.675   2.851  10.157 -0.3869  0.8960 -0.0465
 1343HK4    H2712732   0.772   2.886  10.117 -0.2257 -1.3574 -1.6946
 1343HK4    C4612733   0.624   2.728  10.119  0.0503  0.7046 -0.0186
 1343HK4    H2612734   0.681   2.662  10.051  0.9952  2.7829 -1.2921
 1343HK4    C4012735   0.499   2.679  10.161  0.4394 -0.2367  0.0478
 1343HK4    C5012736   0.441   2.758  10.263 -0.0986 -0.3669 -0.1552
 1343HK4    H3012737   0.343   2.726  10.299  0.9305 -2.5299  0.8570
 1343HK4    C4912738   0.488   2.882  10.303  0.0051 -0.5166  0.1920
 1343HK4    H2912739   0.444   2.918  10.397  1.0431 -1.0944  0.9127
 1343HK4     N212740   0.414   2.609  10.075  0.2660  0.4916 -0.3795
 1343HK4    C3012741   0.308   2.521  10.109  0.7334 -0.1306 -0.5259
 1343HK4    C2912742   0.298   2.439  10.220 -0.5980  0.5268 -0.1553
 1343HK4    H1512743   0.344   2.471  10.314 -2.1208  1.5336  0.2716
 1343HK4    C2812744   0.209   2.332  10.221  0.1116 -0.0656  0.1758
 1343HK4    C2712745   0.123   2.310  10.111 -0.4979  0.1951  0.5995
 1343HK4    H1412746   0.024   2.277  10.147 -1.3096  2.0006  0.0573
 1343HK4    C3212747   0.129   2.392  10.000  0.2622 -0.7259 -0.0440
 1343HK4    H1612748   0.084   2.361   9.905  1.3187 -1.1106 -0.4228
 1343HK4    C3112749   0.226   2.492   9.993 -0.3126 -0.1464  0.2163
 1343HK4    C3412750   0.274   2.574   9.884 -0.1751  0.0632  0.4362
 1343HK4    C3312751   0.395   2.632   9.938  0.2535  0.0070 -0.4611
 1343HK4    C3512752   0.457   2.731   9.862  0.4167 -0.0731 -0.4344
 1343HK4    H1712753   0.558   2.760   9.891  0.2627 -1.1209  1.2400
 1343HK4    C3612754   0.399   2.783   9.747 -0.4837  0.0919  0.0933
 1343HK4    H1812755   0.464   2.847   9.686  0.0610  0.2764  0.8652
 1343HK4    C3712756   0.275   2.736   9.705 -0.3404 -0.1750 -0.0304
 1343HK4    H1912757   0.223   2.801   9.635  0.3715 -0.2906 -0.6653
 1343HK4    C3812758   0.214   2.629   9.771 -0.2654  0.1099  0.5027
 1343HK4    H2012759   0.127   2.576   9.734 -1.8830  1.2760  2.5443
 1343HK4    C1412760   0.225   2.229  10.324 -0.5156  0.0458  0.3833
 1343HK4     C912761   0.196   2.094  10.300 -0.2071  0.1135 -0.3678
 1343HK4     C812762   0.118   2.017  10.389 -0.0182  0.1656 -0.1608
 1343HK4    C1112763   0.086   2.074  10.512 -0.1554  0.1395 -0.1824
 1343HK4     H412764   0.039   2.006  10.584 -0.7625  0.0936 -0.6214
 1343HK4    C1212765   0.126   2.203  10.546 -0.8963  0.4589 -0.5288
 1343HK4     H512766   0.069   2.265  10.617  1.8404  0.7109  1.5464
 1343HK4    C1312767   0.200   2.277  10.454  0.4645  0.3506  0.4655
 1343HK4     H612768   0.254   2.364  10.494  0.4565  0.0746  1.0896
 1343HK4     C712769   0.084   1.878  10.352  1.1662 -0.2259  0.1948
 1343HK4     O212770   0.002   1.812  10.415  0.2697 -0.1728 -0.9029
 1343HK4     C412771   0.127   1.821  10.222 -0.3321 -0.1457 -0.3433
 1343HK4     C312772   0.082   1.699  10.173  0.0507 -0.6112  0.4520
 1343HK4     H312773   0.032   1.635  10.248 -1.0833  1.5097  1.5702
 1343HK4     C212774   0.105   1.652  10.044  0.3372 -0.1853  0.3476
 1343HK4     H212775   0.083   1.551  10.007 -1.3008  0.2765  0.0160
 1343HK4     C112776   0.179   1.739   9.965 -0.2013  0.0764  0.1303
 1343HK4     H112777   0.234   1.694   9.881  1.6124  0.4362  1.1002
 1343HK4     C612778   0.217   1.869  10.002  0.3151 -0.0521  0.0605
 1343HK4     C512779   0.210   1.899  10.138  0.3903 -0.3905  0.1359
 1343HK4    C1012780   0.266   2.029  10.186  0.0899 -0.2092 -0.0027
 1343HK4     O112781   0.386   2.052  10.172 -0.0752  0.3643 -0.4972
 1343HK4    C1612782   0.215   1.970   9.895  0.1328 -0.5870 -0.4447
 1343HK4    C1512783   0.133   1.961   9.780 -0.2945 -0.3405 -0.1604
 1343HK4     H712784   0.041   1.901   9.780 -1.0449  0.7995  0.8185
 1343HK4    C2012785   0.157   2.045   9.673  0.3782 -0.2377  0.0677
 1343HK4     H912786   0.089   2.029   9.589 -1.4625  0.1366  1.4657
 1343HK4    C1912787   0.252   2.146   9.674 -0.0390  0.1586 -0.0280
 1343HK4    C1812788   0.349   2.147   9.782 -0.2509  0.2380  0.1586
 1343HK4    C1712789   0.326   2.052   9.882 -0.3395  0.1374  0.0448
 1343HK4     H812790   0.420   2.009   9.918  0.5325  1.6627 -0.3527
 1343HK4     N112791   0.442   2.251   9.766 -0.2065  0.2425  0.4355
 1343HK4    C2112792   0.399   2.325   9.654  0.2487  0.0394  0.1251
 1343HK4    C2212793   0.288   2.258   9.588  0.0773  0.2768  0.1727
 1343HK4    C2612794   0.233   2.312   9.472 -0.1176 -0.0662  0.1062
 1343HK4    H1312795   0.153   2.264   9.414 -0.4644  0.6452 -0.0055
 1343HK4    C2512796   0.286   2.430   9.422  0.2572 -0.1832  0.2321
 1343HK4    H1212797   0.254   2.467   9.325  2.7227 -0.4760 -0.7495
 1343HK4    C2412798   0.383   2.502   9.492  0.1985 -0.1403  0.2673
 1343HK4    H1112799   0.402   2.607   9.466 -0.3860 -0.1191 -0.0779
 1343HK4    C2312800   0.439   2.450   9.608  0.1769  0.1692  0.4155
 1343HK4    H1012801   0.509   2.510   9.666 -0.7689 -0.3472  2.1263
 1343HK4    C3912802   0.540   2.285   9.860 -0.0322 -0.5385  0.5402
 1343HK4    C4112803   0.660   2.347   9.821 -0.0590 -0.6203  0.3240
 1343HK4    H2112804   0.680   2.354   9.713  0.2844 -2.5641  0.2550
 1343HK4    C4212805   0.750   2.396   9.915  0.2668 -0.6741  0.0429
 1343HK4    H2212806   0.848   2.429   9.878  0.3320 -1.2856 -0.3447
 1343HK4    C4312807   0.730   2.379  10.052  1.2924 -0.2549  0.2490
 1343HK4    H2312808   0.808   2.418  10.117  0.9513  0.5879  0.1616
 1343HK4    C4412809   0.616   2.313  10.094  0.8863 -0.0522 -0.5213
 1343HK4    H2412810   0.611   2.270  10.195 -0.4633 -1.1166 -1.0140
 1343HK4    C4512811   0.521   2.274   9.999 -0.1847 -0.1090  0.5540
 1343HK4    H2512812   0.420   2.256  10.038 -0.9318  0.9393 -0.8684
 1344HK4    H2812813   5.400  11.022   2.561  1.1235  1.8963  2.6838
 1344HK4    C4812814   5.304  11.043   2.608 -0.4218  0.5297  0.2272
 1344HK4    C4712815   5.298  11.077   2.742  0.8549  0.0602  0.4095
 1344HK4    H2712816   5.394  11.104   2.789  1.3099 -1.4064  0.3250
 1344HK4    C4612817   5.177  11.088   2.810  0.2368 -0.1856 -0.6322
 1344HK4    H2612818   5.180  11.095   2.920 -0.3166  3.5718 -0.7992
 1344HK4    C4012819   5.060  11.066   2.735 -0.1787  0.1625 -0.0915
 1344HK4    C5012820   5.069  11.025   2.600  0.2966 -0.1435  0.0346
 1344HK4    H3012821   4.978  11.019   2.539 -0.2917  1.0909  0.7825
 1344HK4    C4912822   5.191  11.002   2.537  0.1609 -0.5315 -0.0946
 1344HK4    H2912823   5.197  10.969   2.433 -1.7045  0.9977 -0.7208
 1344HK4     N212824   4.935  11.107   2.781 -0.1464 -0.0872  0.2182
 1344HK4    C3012825   4.925  11.211   2.875  0.0657 -0.0136  0.1555
 1344HK4    C2912826   5.009   0.072   2.900  0.4111 -0.3241  0.3640
 1344HK4    H1512827   5.088   0.079   2.825 -0.0767  0.7983 -0.0449
 1344HK4    C2812828   4.982   0.166   2.999 -0.1928 -0.1384  0.0261
 1344HK4    C2712829   4.861   0.151   3.069 -0.0925 -0.1107  0.2040
 1344HK4    H1412830   4.815   0.235   3.124  1.2807  0.6807  0.1579
 1344HK4    C3212831   4.776   0.045   3.041  0.4496 -0.5756  0.3329
 1344HK4    H1612832   4.686   0.047   3.101  1.7156  1.2773  2.2332
 1344HK4    C3112833   4.805  11.189   2.953  0.3021 -0.6258  0.3468
 1344HK4    C3412834   4.739  11.073   2.896 -0.5289  0.1801 -0.3357
 1344HK4    C3312835   4.821  11.023   2.788 -0.1839 -0.0486  0.0338
 1344HK4    C3512836   4.793  10.895   2.740 -0.5536  0.1626 -0.3185
 1344HK4    H1712837   4.813  10.874   2.635  1.8024  0.7234 -0.0049
 1344HK4    C3612838   4.702  10.808   2.800 -0.0558 -0.1103  0.0400
 1344HK4    H1812839   4.693  10.701   2.777  4.2788 -0.5531 -0.0429
 1344HK4    C3712840   4.629  10.860   2.906  0.0649  0.2231 -0.0403
 1344HK4    H1912841   4.562  10.796   2.963 -1.8044  1.9787 -0.1902
 1344HK4    C3812842   4.643  10.990   2.954 -0.4327  0.2808 -0.0353
 1344HK4    H2012843   4.589  11.016   3.044  2.1769 -0.6482  1.8727
 1344HK4    C1412844   5.088   0.245   3.062  0.2191 -0.4265 -0.3001
 1344HK4     C912845   5.086   0.297   3.192  0.3982 -0.2480 -0.3680
 1344HK4     C812846   5.149   0.420   3.215  0.1264 -0.2038  0.1546
 1344HK4    C1112847   5.207   0.487   3.108  0.4910 -0.0818  0.4246
 1344HK4     H412848   5.215   0.597   3.109  0.9496 -0.1164  0.6883
 1344HK4    C1212849   5.219   0.440   2.978  0.3991 -0.3209  0.5028
 1344HK4     H512850   5.262   0.497   2.894 -0.2077 -0.0343  0.3879
 1344HK4    C1312851   5.159   0.315   2.963  0.0192 -0.0592 -0.1844
 1344HK4     H612852   5.154   0.282   2.858 -0.5138 -3.0326  0.7192
 1344HK4     C712853   5.125   0.496   3.340 -0.1294  0.0118 -0.0262
 1344HK4     O212854   5.214   0.572   3.378 -0.1714  0.2836 -0.4641
 1344HK4     C412855   5.021   0.439   3.427  0.1006 -0.5540 -0.1229
 1344HK4     C312856   4.967   0.521   3.526  0.8535 -0.5101  0.2494
 1344HK4     H312857   4.997   0.627   3.525  2.4796 -0.9360  1.0642
 1344HK4     C212858   4.887   0.462   3.623  0.1365  0.4309  0.2379
 1344HK4     H212859   4.825   0.518   3.694  0.4327  1.0632  0.0027
 1344HK4     C112860   4.888   0.324   3.640  0.3318  0.3666 -0.2760
 1344HK4     H112861   4.816   0.273   3.707  1.1015 -0.3571  0.0071
 1344HK4     C612862   4.962   0.241   3.554 -0.1846 -0.3856 -0.0021
 1344HK4     C512863   5.009   0.298   3.435  0.1809 -0.5505  0.0597
 1344HK4    C1012864   5.037   0.221   3.311  0.3868 -0.0188 -0.2259
 1344HK4     O112865   5.052   0.099   3.307 -0.1782 -0.1103  0.3939
 1344HK4    C1612866   4.995   0.105   3.599  0.0988 -0.3832 -0.2022
 1344HK4    C1512867   4.907   0.034   3.683  0.1074  0.1452  0.2573
 1344HK4     H712868   4.807   0.077   3.697  0.5034  0.8539  0.9066
 1344HK4    C2012869   4.944  11.178   3.768 -0.1344 -0.0060  0.1824
 1344HK4     H912870   4.873  11.111   3.816  0.1033 -0.6873 -0.4149
 1344HK4    C1912871   5.079  11.145   3.773 -0.0886  0.2085  0.3786
 1344HK4    C1812872   5.172  11.207   3.679 -0.1799 -0.3784 -0.0977
 1344HK4    C1712873   5.126   0.058   3.593 -0.0023 -0.6395 -0.4957
 1344HK4     H812874   5.193   0.113   3.527  0.0416 -1.1030 -0.8319
 1344HK4     N112875   5.305  11.176   3.714 -0.0720  0.2244  0.0167
 1344HK4    C2112876   5.303  11.104   3.834  0.0583  1.2052  0.6160
 1344HK4    C2212877   5.165  11.097   3.879 -0.0103  0.0566  0.2462
 1344HK4    C2612878   5.143  11.035   4.001 -0.4034 -0.3982 -0.0497
 1344HK4    H1312879   5.043  11.015   4.040  0.9990  0.4093  4.3435
 1344HK4    C2512880   5.250  10.994   4.080  0.1252  0.1961 -0.4551
 1344HK4    H1212881   5.238  10.980   4.188 -1.5551  1.0205 -0.5188
 1344HK4    C2412882   5.382  10.990   4.036  0.3795 -0.0587  0.3147
 1344HK4    H1112883   5.461  10.944   4.097  1.2196 -0.5180 -1.1126
 1344HK4    C2312884   5.404  11.049   3.912 -0.3425 -0.4736 -0.0163
 1344HK4    H1012885   5.506  11.070   3.878 -0.1051  0.5287  1.2764
 1344HK4    C3912886   5.412  11.197   3.626 -0.2369  0.6560 -0.0868
 1344HK4    C4112887   5.545  11.226   3.663  0.0179 -0.2171 -0.3069
 1344HK4    H2112888   5.560   0.017   3.765  0.3450  2.7165 -1.4510
 1344HK4    C4212889   5.647  11.208   3.571  0.0412 -0.0964 -0.3044
 1344HK4    H2212890   5.744  11.246   3.608  0.0492 -1.2930  0.8965
 1344HK4    C4312891   5.620  11.149   3.448 -0.1729 -0.6859  0.0290
 1344HK4    H2312892   5.690  11.162   3.366  2.1506  0.1751  2.0885
 1344HK4    C4412893   5.489  11.124   3.409 -0.3391  0.5073 -0.2015
 1344HK4    H2412894   5.470  11.086   3.307 -0.7565  0.4771 -0.1147
 1344HK4    C4512895   5.384  11.158   3.493 -0.2296  0.3469  0.0011
 1344HK4    H2512896   5.284  11.146   3.449  0.1940 -2.6264 -0.2299
 1345HK4    H2812897   9.759   3.241  10.990  0.4245  1.5163  0.8285
 1345HK4    C4812898   9.833   3.200  11.059  0.0577 -0.4629  0.0836
 1345HK4    C4712899   9.852   3.066  11.091 -0.3744 -0.6529 -0.4552
 1345HK4    H2712900   9.825   2.992  11.014  0.7179 -2.6510  1.0474
 1345HK4    C4612901   9.931   3.026  11.198 -0.2746 -0.1721 -0.3425
 1345HK4    H2612902   9.922   2.920  11.229 -1.4932 -0.5410 -1.8695
 1345HK4    C4012903  10.005   3.114   0.030 -0.4329 -0.5360  0.2058
 1345HK4    C5012904   9.988   3.248  11.236  0.0584 -0.6864 -0.4845
 1345HK4    H3012905  10.036   3.331   0.042 -0.4280 -1.9373  1.9528
 1345HK4    C4912906   9.903   3.292  11.136  0.0348 -0.1730 -0.2347
 1345HK4    H2912907   9.878   3.399  11.125 -0.2136  0.0547  2.2258
 1345HK4     N212908  10.040   3.094   0.164  0.0314  0.3072  0.2153
 1345HK4    C3012909   9.972   3.009   0.254  0.0480 -0.0302 -0.0855
 1345HK4    C2912910   9.842   2.961   0.252 -0.0499  0.2434 -0.2671
 1345HK4    H1512911   9.769   3.014   0.191  2.2219  1.4958 -1.9494
 1345HK4    C2812912   9.808   2.866   0.348  0.0426  0.3575 -0.1204
 1345HK4    C2712913   9.899   2.828   0.448 -0.0529 -0.1682 -0.2317
 1345HK4    H1412914   9.872   2.745   0.515 -1.5865  1.1189  0.7913
 1345HK4    C3212915  10.020   2.897   0.463 -0.0660 -0.1898  0.0071
 1345HK4    H1612916  10.075   2.893   0.557 -1.5236  2.8936  1.0668
 1345HK4    C3112917  10.062   2.987   0.366 -0.0970 -0.1822  0.0013
 1345HK4    C3412918  10.191   3.049   0.339 -0.0091 -0.3762 -0.0207
 1345HK4    C3312919  10.167   3.125   0.218  0.2330 -0.2073  0.0374
 1345HK4    C3512920  10.281   3.158   0.147  0.4463 -0.2030  0.3779
 1345HK4    H1712921  10.268   3.200   0.047  0.6321  0.1149  0.4869
 1345HK4    C3612922  10.409   3.139   0.197  0.8852  0.1419 -0.6051
 1345HK4    H1812923  10.496   3.131   0.129  1.5482  1.7035  0.0357
 1345HK4    C3712924  10.427   3.082   0.322  0.1256 -0.0081 -0.5624
 1345HK4    H1912925  10.530   3.067   0.355  1.3293  2.7927 -2.8194
 1345HK4    C3812926  10.318   3.031   0.391  0.1444  0.6759 -0.0252
 1345HK4    H2012927  10.333   2.963   0.475 -0.0945  2.0554  1.1714
 1345HK4    C1412928   9.679   2.796   0.340  0.3223 -0.2039  0.1774
 1345HK4     C912929   9.619   2.745   0.455 -0.2854  0.3725  0.1203
 1345HK4     C812930   9.547   2.623   0.453  0.4385 -0.0642  0.3224
 1345HK4    C1112931   9.526   2.553   0.334  0.2357  0.0212  0.3070
 1345HK4     H412932   9.447   2.479   0.321 -0.7111  0.4870  3.0733
 1345HK4    C1212933   9.581   2.612   0.221 -0.0214  0.3610  0.3602
 1345HK4     H512934   9.557   2.577   0.119 -1.0089 -2.7563  1.6086
 1345HK4    C1312935   9.649   2.733   0.217  0.4251  0.1044 -0.0059
 1345HK4     H612936   9.693   2.769   0.123  0.0017  0.6341 -0.0090
 1345HK4     C712937   9.502   2.557   0.577  0.4905 -0.1673  0.2861
 1345HK4     O212938   9.442   2.450   0.576  0.2361 -0.0298  0.4897
 1345HK4     C412939   9.514   2.628   0.707 -0.4020  0.1664  0.1896
 1345HK4     C312940   9.456   2.579   0.823 -0.1307  0.2633  0.3674
 1345HK4     H312941   9.389   2.492   0.814  1.8447 -1.4515  1.8565
 1345HK4     C212942   9.480   2.639   0.947  0.0319  0.1165  0.4064
 1345HK4     H212943   9.405   2.629   1.027 -0.2265 -1.1072  0.0312
 1345HK4     C112944   9.580   2.735   0.952 -0.3783  0.5537  0.2765
 1345HK4     H112945   9.596   2.795   1.043 -0.7813  0.2033  0.5833
 1345HK4     C612946   9.648   2.781   0.838 -0.3382 -0.2573 -0.0308
 1345HK4     C512947   9.602   2.737   0.713 -0.6172  0.3583 -0.1484
 1345HK4    C1012948   9.631   2.812   0.588 -1.0623  0.7663 -0.0075
 1345HK4     O112949   9.611   2.934   0.589 -0.1607  0.9136  0.1170
 1345HK4    C1612950   9.792   2.812   0.852 -0.5002  0.4603  0.0626
 1345HK4    C1512951   9.865   2.755   0.959 -0.2674 -0.1001 -0.3883
 1345HK4     H712952   9.827   2.661   1.001 -0.6355 -1.2343 -3.1056
 1345HK4    C2012953   9.985   2.806   1.006 -0.4443 -0.1886  0.1542
 1345HK4     H912954  10.023   2.778   1.104  0.8969 -1.2346 -0.6587
 1345HK4    C1912955  10.040   2.916   0.941 -0.2699 -0.3365  0.0540
 1345HK4    C1812956   9.969   2.974   0.828  0.1720  0.2679  0.0820
 1345HK4    C1712957   9.844   2.926   0.792  0.1020  0.3013  0.2788
 1345HK4     H812958   9.777   2.988   0.732 -0.3366  1.0761  1.5767
 1345HK4     N112959  10.027   3.096   0.790 -0.2394  0.4194 -0.0678
 1345HK4    C2112960  10.141   3.111   0.872 -0.0112 -0.1272 -0.2818
 1345HK4    C2212961  10.150   3.005   0.970 -0.1677 -0.2945 -0.4463
 1345HK4    C2612962  10.246   3.013   1.071 -0.2148  0.5002 -0.4565
 1345HK4    H1312963  10.254   2.932   1.144  0.2719  0.8072 -0.1676
 1345HK4    C2512964  10.337   3.118   1.071  0.3309  0.0302 -0.6943
 1345HK4    H1212965  10.422   3.117   1.140  0.8305  0.9184 -1.2820
 1345HK4    C2412966  10.327   3.223   0.980  0.4257  0.1453 -0.5718
 1345HK4    H1112967  10.385   3.316   0.980 -0.8521  0.9803 -2.6462
 1345HK4    C2312968  10.231   3.217   0.880  0.0758 -0.2056 -0.2181
 1345HK4    H1012969  10.230   3.302   0.812 -1.4916 -1.5301 -1.9033
 1345HK4    C3912970   9.972   3.201   0.715  0.0524  0.6432  0.0276
 1345HK4    C4112971   9.837   3.239   0.728 -0.0914  0.0833  0.1761
 1345HK4    H2112972   9.786   3.221   0.825  0.7529 -1.4883  0.3582
 1345HK4    C4212973   9.773   3.308   0.626 -0.1630  0.7173  0.6443
 1345HK4    H2212974   9.665   3.301   0.610 -0.3523  3.0399  0.7448
 1345HK4    C4312975   9.842   3.359   0.517  0.2918 -0.3227  0.4345
 1345HK4    H2312976   9.794   3.421   0.441  2.9742  0.3414 -0.8147
 1345HK4    C4412977   9.977   3.328   0.499  0.4699  0.5054  0.3278
 1345HK4    H2412978  10.042   3.390   0.437  0.6912 -0.0502  0.0039
 1345HK4    C4512979  10.033   3.246   0.596  0.4473  0.1528  0.0418
 1345HK4    H2512980  10.137   3.212   0.587  0.2934 -1.1761  2.7904
 1346HK4    H2812981  10.860   7.705   6.509  0.2648 -0.0170 -1.0952
 1346HK4    C4812982  10.764   7.672   6.470 -0.0638  0.1823 -0.4527
 1346HK4    C4712983  10.730   7.537   6.472 -0.0003  0.1708  0.0335
 1346HK4    H2712984  10.813   7.466   6.482  0.4347  0.7322  0.3986
 1346HK4    C4612985  10.599   7.498   6.446  0.0852  0.0934 -0.2994
 1346HK4    H2612986  10.565   7.397   6.476 -0.7299 -0.1376 -1.9684
 1346HK4    C4012987  10.498   7.593   6.418  0.2273  0.3262 -0.0337
 1346HK4    C5012988  10.533   7.729   6.416 -0.0402  0.3909 -0.4246
 1346HK4    H3012989  10.465   7.808   6.383 -1.7442 -0.8695  0.0142
 1346HK4    C4912990  10.666   7.765   6.436 -0.1427  0.3776  0.3102
 1346HK4    H2912991  10.686   7.871   6.456 -1.6084  0.5715  0.7763
 1346HK4     N212992  10.373   7.560   6.363  0.3842  0.0132 -0.2007
 1346HK4    C3012993  10.344   7.437   6.301  0.3669  0.0163 -0.1972
 1346HK4    C2912994  10.425   7.332   6.259  0.1245 -0.2601  0.0296
 1346HK4    H1512995  10.532   7.355   6.258  0.0349  0.1470 -0.6610
 1346HK4    C2812996  10.370   7.216   6.206  0.3449 -0.2007 -0.3353
 1346HK4    C2712997  10.232   7.215   6.175  0.2326 -0.2340  0.1557
 1346HK4    H1412998  10.184   7.124   6.135  0.6489 -1.3140  2.0551
 1346HK4    C3212999  10.144   7.318   6.207  0.3340 -0.2376  0.4426
 1346HK4    H1613000  10.036   7.320   6.196  0.3898 -0.9601 -0.3194
 1346HK4    C3113001  10.201   7.421   6.281  0.3226  0.0391  0.0635
 1346HK4    C3413002  10.142   7.534   6.351  0.2384 -0.4493  0.7804
 1346HK4    C3313003  10.250   7.621   6.394  0.3326 -0.0474 -0.2693
 1346HK4    C3513004  10.226   7.713   6.495 -0.6442  0.1306 -0.6545
 1346HK4    H1713005  10.313   7.752   6.548 -1.0811  0.6615 -0.3287
 1346HK4    C3613006  10.098   7.733   6.545 -0.4439  0.5112 -0.2967
 1346HK4    H1813007  10.085   7.807   6.626 -2.8364 -0.8600  0.6243
 1346HK4    C3713008   9.996   7.654   6.494  0.1011 -0.0848 -0.4668
 1346HK4    H1913009   9.898   7.678   6.533 -0.2263  0.0181 -1.3377
 1346HK4    C3813010  10.014   7.554   6.399  0.0374 -0.9948  0.4855
 1346HK4    H2013011   9.940   7.473   6.401  1.9866 -2.8070  0.9820
 1346HK4    C1413012  10.452   7.098   6.176  0.5562 -0.1953  0.2247
 1346HK4     C913013  10.422   6.991   6.091  0.2224  0.2086 -0.1648
 1346HK4     C813014  10.457   6.860   6.129  0.5285  0.2885 -0.1786
 1346HK4    C1113015  10.538   6.837   6.240 -0.0756  0.0023  0.2009
 1346HK4     H413016  10.575   6.736   6.265  1.7840  1.2571  2.7287
 1346HK4    C1213017  10.592   6.946   6.308 -0.5025  0.1880  0.2463
 1346HK4     H513018  10.653   6.916   6.394 -1.2509 -0.5596  0.5315
 1346HK4    C1313019  10.550   7.074   6.275  0.0223  0.5373  0.9298
 1346HK4     H613020  10.594   7.154   6.337  0.7414 -0.1511  1.3223
 1346HK4     C713021  10.416   6.744   6.048 -0.2355  0.1348  0.4291
 1346HK4     O213022  10.458   6.630   6.068  0.4609  0.2797 -0.1916
 1346HK4     C413023  10.347   6.777   5.921  0.4931  0.0754  0.0162
 1346HK4     C313024  10.290   6.674   5.847  0.1607  0.3106 -0.0505
 1346HK4     H313025  10.298   6.568   5.876  2.6899  0.0002 -1.8284
 1346HK4     C213026  10.242   6.699   5.719 -0.2385  0.0480  0.0437
 1346HK4     H213027  10.212   6.614   5.656  0.6031  0.2557 -0.6433
 1346HK4     C113028  10.258   6.822   5.655  0.1602 -0.2064 -0.3431
 1346HK4     H113029  10.225   6.832   5.551 -2.3915  1.9521  0.6284
 1346HK4     C613030  10.333   6.921   5.722 -0.2329 -0.0216 -0.1738
 1346HK4     C513031  10.361   6.902   5.858 -0.5026  0.1282 -0.0984
 1346HK4    C1013032  10.386   7.018   5.949 -0.0669  0.0508 -0.1210
 1346HK4     O113033  10.362   7.134   5.916 -0.8669  0.0284  0.3780
 1346HK4    C1613034  10.398   7.026   5.642 -0.3147  0.2049  0.0581
 1346HK4    C1513035  10.357   7.047   5.508  0.0656  0.2149 -0.0566
 1346HK4     H713036  10.249   7.054   5.491  0.0720  0.3024 -0.0524
 1346HK4    C2013037  10.441   7.087   5.405  0.2296  0.1776  0.0595
 1346HK4     H913038  10.409   7.108   5.303 -1.1459 -0.3524  0.3676
 1346HK4    C1913039  10.577   7.105   5.429  0.2231  0.1097  0.1453
 1346HK4    C1813040  10.617   7.100   5.568  0.0196  0.0810  0.2027
 1346HK4    C1713041  10.530   7.058   5.668 -0.2523  0.0262 -0.0538
 1346HK4     H813042  10.570   7.049   5.769 -1.0956  0.8787  0.3600
 1346HK4     N113043  10.750   7.141   5.585  0.1337 -0.3294  0.3006
 1346HK4    C2113044  10.796   7.169   5.454  0.0993  0.3998  0.4425
 1346HK4    C2213045  10.693   7.150   5.355  0.1886  0.5004  0.3311
 1346HK4    C2613046  10.725   7.170   5.221  0.1104 -0.5937  0.1443
 1346HK4    H1313047  10.635   7.167   5.159  0.5685  0.0336 -0.5599
 1346HK4    C2513048  10.850   7.214   5.180 -0.2994  0.2619 -0.2110
 1346HK4    H1213049  10.869   7.237   5.076 -1.2954  0.5487 -0.3338
 1346HK4    C2413050  10.948   7.232   5.277 -0.1561 -0.0793 -0.2919
 1346HK4    H1113051  11.051   7.232   5.239 -0.0032 -0.5547  0.1198
 1346HK4    C2313052  10.921   7.213   5.412 -0.0831  0.2785 -0.2274
 1346HK4    H1013053  11.002   7.225   5.485  0.3922 -0.2169 -0.6654
 1346HK4    C3913054  10.805   7.185   5.706 -0.2377 -0.5039  0.5339
 1346HK4    C4113055  10.944   7.188   5.729 -0.0993  1.0717 -0.5115
 1346HK4    H2113056  11.015   7.117   5.684 -0.2878  0.2350  0.5189
 1346HK4    C4213057  11.002   7.286   5.809  0.2754 -0.0369  0.5837
 1346HK4    H2213058  11.112   7.291   5.818  0.1284  2.7720  1.4982
 1346HK4    C4313059  10.929   7.382   5.878  0.2455  0.4159 -0.0725
 1346HK4    H2313060  10.965   7.457   5.949 -0.2728  0.1411  0.4875
 1346HK4    C4413061  10.791   7.376   5.865  0.2545  0.6701 -0.2693
 1346HK4    H2413062  10.731   7.453   5.916  0.1741 -0.6621  1.6995
 1346HK4    C4513063  10.734   7.279   5.783  0.3527  0.2172  0.1969
 1346HK4    H2513064  10.633   7.303   5.748  0.4087 -0.4618 -0.4480
 1347HK4    H2813065   9.494   7.220   3.471  0.8069 -0.6567  0.9119
 1347HK4    C4813066   9.407   7.184   3.525  0.1909  0.2345  0.5376
 1347HK4    C4713067   9.310   7.263   3.585 -0.4723 -0.1750  0.0094
 1347HK4    H2713068   9.308   7.372   3.573 -0.3060 -0.3769 -1.9705
 1347HK4    C4613069   9.213   7.207   3.668 -0.1631 -0.0114  0.4816
 1347HK4    H2613070   9.127   7.268   3.701  0.2737  1.3352 -0.7923
 1347HK4    C4013071   9.210   7.070   3.701 -0.4014 -0.1306 -0.0462
 1347HK4    C5013072   9.311   6.996   3.637  0.1579  0.1233  0.5367
 1347HK4    H3013073   9.312   6.887   3.651 -1.1037 -0.1785 -1.4863
 1347HK4    C4913074   9.405   7.047   3.548 -0.3791  0.1503 -0.0155
 1347HK4    H2913075   9.485   6.986   3.504  0.7094  1.0347  0.7274
 1347HK4     N213076   9.141   7.021   3.812 -0.1130 -0.2046  0.1007
 1347HK4    C3013077   9.111   7.101   3.924  0.6417 -0.5118  0.5245
 1347HK4    C2913078   9.188   7.201   3.982  0.0775  0.0811  0.2561
 1347HK4    H1513079   9.286   7.225   3.943  0.2956  0.0273  0.7664
 1347HK4    C2813080   9.149   7.259   4.102 -0.4127 -0.0199  0.1486
 1347HK4    C2713081   9.028   7.220   4.161 -0.2947 -0.1789  0.2896
 1347HK4    H1413082   9.013   7.242   4.268  1.6031  0.1212  0.5023
 1347HK4    C3213083   8.947   7.121   4.106 -0.0038 -0.3952  0.2487
 1347HK4    H1613084   8.841   7.127   4.130  0.2168 -1.1249  1.4507
 1347HK4    C3113085   8.991   7.055   3.992 -0.0562  0.2805 -0.1630
 1347HK4    C3413086   8.948   6.933   3.926  0.1414  0.1951 -0.1380
 1347HK4    C3313087   9.037   6.925   3.812  0.2711 -0.6230  0.0181
 1347HK4    C3513088   9.003   6.844   3.704  0.0490 -0.3083 -0.1481
 1347HK4    H1713089   9.065   6.849   3.614 -0.9494 -0.7444 -0.8704
 1347HK4    C3613090   8.887   6.768   3.707 -0.0155 -0.1980  0.1221
 1347HK4    H1813091   8.859   6.703   3.622  1.8008  0.2128 -0.8250
 1347HK4    C3713092   8.804   6.780   3.817 -0.4449  0.8419 -0.3079
 1347HK4    H1913093   8.727   6.704   3.831  2.3804 -1.8761  1.2309
 1347HK4    C3813094   8.831   6.860   3.928  0.1969  0.1141  0.0667
 1347HK4    H2013095   8.767   6.845   4.015 -1.3461 -0.8370 -1.2047
 1347HK4    C1413096   9.240   7.350   4.174  0.0973 -0.3839 -0.0355
 1347HK4     C913097   9.242   7.382   4.311 -0.0438 -0.2485 -0.0645
 1347HK4     C813098   9.278   7.506   4.367  0.1163 -0.4702  0.3252
 1347HK4    C1113099   9.304   7.608   4.276  0.2581 -0.4963  0.3380
 1347HK4     H413100   9.340   7.708   4.306  0.4120 -1.1987  2.6073
 1347HK4    C1213101   9.312   7.584   4.140 -0.1530 -0.1227  0.2463
 1347HK4     H513102   9.356   7.650   4.063 -1.9222  1.1459  0.2943
 1347HK4    C1313103   9.283   7.456   4.093 -0.9758  0.1296  0.0618
 1347HK4     H613104   9.260   7.447   3.986 -1.6012 -0.3900  0.2401
 1347HK4     C713105   9.267   7.543   4.510 -0.2256 -0.0502  0.1915
 1347HK4     O213106   9.299   7.657   4.543  0.4199 -0.1535 -0.0652
 1347HK4     C413107   9.212   7.446   4.606  0.3979 -0.5781  0.0185
 1347HK4     C313108   9.202   7.480   4.741 -0.1963  0.1243 -0.2027
 1347HK4     H313109   9.240   7.576   4.779  1.8519 -1.8630  2.9848
 1347HK4     C213110   9.145   7.388   4.828 -0.0760  0.4236  0.1867
 1347HK4     H213111   9.166   7.396   4.936  1.0942 -2.3562  0.1912
 1347HK4     C113112   9.091   7.272   4.774  0.3930  0.2159  0.1545
 1347HK4     H113113   9.023   7.214   4.838 -2.5524  0.2755 -2.7597
 1347HK4     C613114   9.098   7.236   4.638 -0.1608 -0.3860  0.2833
 1347HK4     C513115   9.176   7.319   4.557  0.1716 -0.6419  0.3415
 1347HK4    C1013116   9.212   7.281   4.417  0.1656 -0.0503  0.1806
 1347HK4     O113117   9.268   7.174   4.397  0.3621  0.1043 -0.1083
 1347HK4    C1613118   8.992   7.149   4.584  0.0474 -0.0921 -0.6042
 1347HK4    C1513119   8.857   7.178   4.610  0.1711  0.0672 -0.1005
 1347HK4     H713120   8.826   7.270   4.662 -0.6317 -1.1352  1.5820
 1347HK4    C2013121   8.751   7.105   4.558  0.0592  0.1935 -0.0455
 1347HK4     H913122   8.647   7.128   4.581  0.5520  0.0264  2.4666
 1347HK4    C1913123   8.780   7.002   4.469 -0.0252 -0.2586  0.4511
 1347HK4    C1813124   8.917   6.966   4.438 -0.1920 -0.3103 -0.2226
 1347HK4    C1713125   9.016   7.041   4.500 -0.1116 -0.7074  0.1346
 1347HK4     H813126   9.119   7.009   4.491  0.3602  0.7667  0.2313
 1347HK4     N113127   8.924   6.844   4.368 -0.2819 -0.3017 -0.2463
 1347HK4    C2113128   8.790   6.808   4.342 -0.3558  0.1386 -0.4800
 1347HK4    C2213129   8.698   6.901   4.405 -0.0997  0.3425 -0.4082
 1347HK4    C2613130   8.562   6.878   4.424 -0.0264  0.2181 -0.0081
 1347HK4    H1313131   8.506   6.930   4.501 -2.0108 -3.8677  1.4431
 1347HK4    C2513132   8.513   6.758   4.373 -0.8483  0.4540  0.2261
 1347HK4    H1213133   8.407   6.733   4.375 -0.7510  0.0513  0.3080
 1347HK4    C2413134   8.594   6.676   4.296 -0.3135  0.3520  0.8871
 1347HK4    H1113135   8.551   6.589   4.244  2.6858 -0.9963  0.5720
 1347HK4    C2313136   8.731   6.694   4.288 -0.2501 -0.3376  0.4002
 1347HK4    H1013137   8.802   6.615   4.261 -2.3192 -2.2943  0.5173
 1347HK4    C3913138   9.041   6.788   4.316  0.3435 -0.2004  1.0359
 1347HK4    C4113139   9.065   6.650   4.303 -0.2407 -0.2278  0.1547
 1347HK4    H2113140   9.032   6.590   4.390 -0.9911 -0.5924 -0.3804
 1347HK4    C4213141   9.165   6.600   4.221 -0.4540  0.1057 -0.3073
 1347HK4    H2213142   9.169   6.492   4.204  1.5726 -0.0362  0.8638
 1347HK4    C4313143   9.246   6.686   4.147 -0.5560  0.6156  0.1674
 1347HK4    H2313144   9.320   6.650   4.075 -0.7313 -0.6354  0.6077
 1347HK4    C4413145   9.229   6.823   4.163 -0.3720  0.7344 -0.6099
 1347HK4    H2413146   9.294   6.886   4.101 -0.1045  1.5042  0.4386
 1347HK4    C4513147   9.134   6.873   4.251 -0.3476 -0.2426 -0.0280
 1347HK4    H2513148   9.108   6.979   4.241  0.5587  0.0006  0.1333
 1348HK4    H2813149   4.725   4.158   9.420 -0.0892  3.1348 -2.4897
 1348HK4    C4813150   4.825   4.185   9.453 -0.0340  0.2407 -0.0682
 1348HK4    C4713151   4.856   4.314   9.494 -0.1949  0.1140  0.4594
 1348HK4    H2713152   4.790   4.394   9.457 -0.9452 -1.7859 -2.4345
 1348HK4    C4613153   4.975   4.343   9.560 -0.0234 -0.1135  0.2518
 1348HK4    H2613154   4.997   4.447   9.587 -0.3386 -0.1957  0.8310
 1348HK4    C4013155   5.067   4.240   9.586  0.2580 -0.0147 -0.3436
 1348HK4    C5013156   5.043   4.114   9.527  0.7892  0.0306 -0.6555
 1348HK4    H3013157   5.122   4.038   9.538  2.5350  1.8994 -0.0829
 1348HK4    C4913158   4.923   4.086   9.463  0.0479  0.3837  0.5731
 1348HK4    H2913159   4.885   3.984   9.449 -0.0249  0.4568  0.2449
 1348HK4     N213160   5.187   4.264   9.655  0.1823 -0.2815 -0.1142
 1348HK4    C3013161   5.254   4.388   9.649  0.3338 -0.3715 -0.2614
 1348HK4    C2913162   5.264   4.470   9.538  0.6160 -0.0132  0.0246
 1348HK4    H1513163   5.208   4.444   9.448  0.7297  1.5668 -0.5339
 1348HK4    C2813164   5.365   4.566   9.532  0.7319 -0.1423 -0.0292
 1348HK4    C2713165   5.442   4.590   9.647  0.0497 -0.0872  0.4195
 1348HK4    H1413166   5.504   4.680   9.657  1.3453 -0.9705  0.4670
 1348HK4    C3213167   5.438   4.502   9.755 -0.0230  0.0095  0.4939
 1348HK4    H1613168   5.505   4.524   9.838  0.2683 -0.8537  0.4948
 1348HK4    C3113169   5.341   4.404   9.764 -0.0500 -0.0167 -0.0209
 1348HK4    C3413170   5.311   4.292   9.852 -0.0428 -0.1933 -0.2482
 1348HK4    C3313171   5.219   4.207   9.779 -0.0834 -0.3113 -0.0569
 1348HK4    C3513172   5.198   4.079   9.829 -0.0909 -0.3462 -0.1523
 1348HK4    H1713173   5.112   4.026   9.788 -0.2161 -1.1290  1.0684
 1348HK4    C3613174   5.274   4.028   9.934 -0.1279 -0.0358  0.0239
 1348HK4    H1813175   5.264   3.923   9.964  1.3022  0.1730  1.2980
 1348HK4    C3713176   5.371   4.105   9.997 -0.0127 -0.0973 -0.0786
 1348HK4    H1913177   5.439   4.060  10.069  1.9573  0.2672 -1.6757
 1348HK4    C3813178   5.385   4.237   9.957 -0.1994 -0.0779 -0.0750
 1348HK4    H2013179   5.469   4.290  10.001 -0.5852  0.9857 -0.5916
 1348HK4    C1413180   5.416   4.594   9.397  0.0862 -0.4465 -0.3414
 1348HK4     C913181   5.550   4.600   9.357  0.0805 -0.3186 -0.3380
 1348HK4     C813182   5.594   4.678   9.248  0.2065 -0.4857 -0.4077
 1348HK4    C1113183   5.498   4.750   9.178  0.2554 -0.1007 -0.0758
 1348HK4     H413184   5.526   4.793   9.081 -1.1407  0.8618 -0.0722
 1348HK4    C1213185   5.362   4.745   9.206  0.3166  0.1246  0.2550
 1348HK4     H513186   5.285   4.786   9.139  0.2307  0.6915  0.6997
 1348HK4    C1313187   5.326   4.665   9.315  0.0636  0.0978  0.1541
 1348HK4     H613188   5.218   4.646   9.315 -0.1119  1.0209 -1.0736
 1348HK4     C713189   5.737   4.707   9.224  0.1734 -0.1818 -0.2345
 1348HK4     O213190   5.770   4.741   9.110 -0.2628 -0.2676 -0.3899
 1348HK4     C413191   5.835   4.661   9.324 -0.2032 -0.4903 -0.0079
 1348HK4     C313192   5.967   4.703   9.310 -0.3599  0.0021 -0.0003
 1348HK4     H313193   6.007   4.744   9.217  1.2472  1.4189  1.2766
 1348HK4     C213194   6.063   4.685   9.409 -0.1895  0.4221 -0.0884
 1348HK4     H213195   6.157   4.741   9.408 -0.4319  0.8968  1.5248
 1348HK4     C113196   6.017   4.620   9.523 -0.3378  0.6680 -0.0080
 1348HK4     H113197   6.092   4.572   9.587 -0.0145  2.6452  1.1323
 1348HK4     C613198   5.887   4.566   9.538  0.1070 -0.4450 -0.1645
 1348HK4     C513199   5.796   4.580   9.433 -0.2659 -0.1924  0.1936
 1348HK4    C1013200   5.655   4.531   9.436 -0.2207 -0.3341  0.0483
 1348HK4     O113201   5.634   4.410   9.450  0.4948 -0.4949 -0.2385
 1348HK4    C1613202   5.837   4.546   9.675  0.1818  0.0150 -0.0694
 1348HK4    C1513203   5.873   4.641   9.773 -0.1399 -0.0865  0.1446
 1348HK4     H713204   5.875   4.749   9.756  1.1499 -0.1806 -0.3521
 1348HK4    C2013205   5.894   4.600   9.904  1.1736 -0.3381 -0.1329
 1348HK4     H913206   5.917   4.670   9.984  2.6219 -1.5530  0.5429
 1348HK4    C1913207   5.860   4.470   9.941 -0.0765  0.0770  0.2019
 1348HK4    C1813208   5.814   4.374   9.843 -0.3752  0.3539  0.0709
 1348HK4    C1713209   5.804   4.416   9.710  0.2860 -0.0183 -0.0976
 1348HK4     H813210   5.755   4.349   9.640  0.0212 -0.8022  0.8283
 1348HK4     N113211   5.795   4.247   9.900 -0.3558  0.3383  0.0409
 1348HK4    C2113212   5.819   4.264  10.038  0.1657  0.2601 -0.0345
 1348HK4    C2213213   5.859   4.400  10.068  0.3121  0.1542  0.2465
 1348HK4    C2613214   5.879   4.437  10.201  0.8284 -0.4890  0.3539
 1348HK4    H1313215   5.897   4.541  10.226 -1.8312  0.4856 -1.4963
 1348HK4    C2513216   5.867   4.348  10.307 -0.1557 -0.4711  0.2616
 1348HK4    H1213217   5.913   4.368  10.404  3.7757 -0.2169 -1.5527
 1348HK4    C2413218   5.822   4.222  10.271 -0.2222 -0.3383 -0.1183
 1348HK4    H1113219   5.793   4.157  10.355  1.7349  0.8742  1.5207
 1348HK4    C2313220   5.795   4.175  10.142  0.2841 -0.0963 -0.3156
 1348HK4    H1013221   5.753   4.075  10.136  1.2807 -0.5505  0.1534
 1348HK4    C3913222   5.755   4.129   9.837  0.0162  0.0964  0.2538
 1348HK4    C4113223   5.790   4.003   9.889 -0.4592  0.0170  0.3888
 1348HK4    H2113224   5.886   3.989   9.942 -0.1075 -1.0610 -0.5273
 1348HK4    C4213225   5.721   3.888   9.856  0.3617 -0.2496 -0.3984
 1348HK4    H2213226   5.739   3.784   9.888 -0.3197  0.3631  2.0539
 1348HK4    C4313227   5.608   3.898   9.775 -0.1772  0.5760  0.4525
 1348HK4    H2313228   5.524   3.830   9.785 -0.2157  0.1332 -2.4919
 1348HK4    C4413229   5.572   4.020   9.720  0.2079  0.4466 -0.0916
 1348HK4    H2413230   5.484   4.026   9.654  0.5115  2.3449 -0.3445
 1348HK4    C4513231   5.647   4.134   9.746  0.4013  0.3428 -0.1933
 1348HK4    H2513232   5.599   4.232   9.732 -0.1583 -0.1002 -1.4918
 1349HK4    H2813233   0.760   9.538   0.736 -0.9638 -0.8353  1.9436
 1349HK4    C4813234   0.848   9.502   0.790  0.8190  0.3045 -0.1238
 1349HK4    C4713235   0.901   9.571   0.898  0.2956  0.6603 -0.0927
 1349HK4    H2713236   0.837   9.641   0.952 -3.7873 -2.8195 -0.1311
 1349HK4    C4613237   1.024   9.539   0.954 -0.0985  0.1706  0.4983
 1349HK4    H2613238   1.049   9.581   1.053 -2.4176  0.1708  1.1114
 1349HK4    C4013239   1.104   9.437   0.897 -0.0634  0.5040 -0.0549
 1349HK4    C5013240   1.047   9.365   0.790  0.5151 -0.0327 -0.0050
 1349HK4    H3013241   1.083   9.266   0.759  0.0742 -0.0832 -0.3622
 1349HK4    C4913242   0.922   9.396   0.738  0.0626 -0.6492  0.7190
 1349HK4    H2913243   0.882   9.336   0.655 -0.7024 -0.5421  1.0039
 1349HK4     N213244   1.243   9.442   0.914 -0.0671  0.2925  0.0434
 1349HK4    C3013245   1.316   9.562   0.930  0.1716  0.2366 -0.6339
 1349HK4    C2913246   1.284   9.695   0.951  0.0374  0.0002  0.6758
 1349HK4    H1513247   1.179   9.724   0.950 -0.1176 -0.6049 -1.0563
 1349HK4    C2813248   1.379   9.796   0.961  0.3368 -0.1630 -0.4709
 1349HK4    C2713249   1.512   9.750   0.954  0.5905  0.3613  0.6810
 1349HK4    H1413250   1.590   9.827   0.965 -0.6038  1.7398 -0.2927
 1349HK4    C3213251   1.554   9.618   0.941 -0.0728  0.1670  0.4755
 1349HK4    H1613252   1.659   9.590   0.950  0.4833  1.4260 -1.6852
 1349HK4    C3113253   1.456   9.521   0.928  0.1265  0.0724 -0.4265
 1349HK4    C3413254   1.466   9.378   0.903  0.0397 -0.0296  0.1147
 1349HK4    C3313255   1.329   9.332   0.901 -0.0775  0.3330 -0.3808
 1349HK4    C3513256   1.303   9.196   0.915 -0.0516  0.4009  0.3798
 1349HK4    H1713257   1.202   9.158   0.928  0.4614 -1.0295  0.3363
 1349HK4    C3613258   1.407   9.104   0.911 -0.3627  0.0636  0.0445
 1349HK4    H1813259   1.395   8.995   0.916  0.9935 -0.0570  0.8009
 1349HK4    C3713260   1.538   9.149   0.902 -0.3378 -0.0124  0.0244
 1349HK4    H1913261   1.622   9.090   0.941 -0.5093  1.6438  3.0532
 1349HK4    C3813262   1.569   9.284   0.905 -0.0112 -0.0846  0.0239
 1349HK4    H2013263   1.668   9.330   0.902  0.4047 -0.9903 -0.0230
 1349HK4    C1413264   1.331   9.935   0.951  0.6268 -0.0254  0.0220
 1349HK4     C913265   1.415  10.035   0.902 -0.4138  0.7127 -0.2692
 1349HK4     C813266   1.430  10.164   0.956  0.4476  0.4616  0.0990
 1349HK4    C1113267   1.328  10.200   1.045  0.5665 -0.1147  0.4665
 1349HK4     H413268   1.317  10.306   1.071 -0.9383  0.0750 -0.8545
 1349HK4    C1213269   1.233  10.107   1.086  0.1825 -0.1172 -0.4198
 1349HK4     H513270   1.150  10.157   1.139  0.3228 -1.0759  0.7156
 1349HK4    C1313271   1.237   9.973   1.049  0.3900 -0.1872 -0.1402
 1349HK4     H613272   1.178   9.905   1.111  0.9703 -1.7114 -1.2455
 1349HK4     C713273   1.544  10.251   0.920  0.7935 -0.0619 -0.0677
 1349HK4     O213274   1.577  10.348   0.988  0.6815 -0.1499  0.1135
 1349HK4     C413275   1.634  10.212   0.809  0.2232 -0.2414 -0.4720
 1349HK4     C313276   1.747  10.287   0.777  0.1395 -0.0414 -0.3034
 1349HK4     H313277   1.772  10.379   0.833 -0.2374 -0.8290  1.1972
 1349HK4     C213278   1.833  10.238   0.679  0.3369 -0.2139 -0.0466
 1349HK4     H213279   1.920  10.300   0.655  1.4826 -0.8217  2.4298
 1349HK4     C113280   1.810  10.121   0.608  0.3634 -0.0658 -0.3012
 1349HK4     H113281   1.863  10.106   0.513  1.1209 -1.6784  0.3533
 1349HK4     C613282   1.699  10.041   0.644  0.4851  0.1473  0.5539
 1349HK4     C513283   1.609  10.094   0.737 -0.4342 -0.3711 -0.0334
 1349HK4    C1013284   1.489  10.014   0.774 -0.1719 -0.7138  0.0935
 1349HK4     O113285   1.422   9.965   0.683 -0.1127 -0.5098 -0.0607
 1349HK4    C1613286   1.727   9.897   0.643  0.0325  0.0610  0.0826
 1349HK4    C1513287   1.834   9.838   0.713  0.2955 -0.0004 -0.3768
 1349HK4     H713288   1.910   9.900   0.764  0.6135 -0.7405  0.0540
 1349HK4    C2013289   1.857   9.701   0.720 -0.0966 -0.0317  0.3399
 1349HK4     H913290   1.920   9.649   0.792  1.2371 -0.4889 -1.1214
 1349HK4    C1913291   1.766   9.614   0.661  0.0962  0.0794 -0.1193
 1349HK4    C1813292   1.653   9.671   0.589 -0.1820 -0.0431  0.2195
 1349HK4    C1713293   1.638   9.809   0.582  0.3343 -0.0035 -0.2651
 1349HK4     H813294   1.558   9.839   0.514  1.1796  2.1398 -0.3530
 1349HK4     N113295   1.579   9.573   0.519  0.0413 -0.0963  0.0567
 1349HK4    C2113296   1.631   9.449   0.561  0.1654 -0.4161 -1.0199
 1349HK4    C2213297   1.748   9.471   0.644 -0.3286  0.1710 -0.4745
 1349HK4    C2613298   1.837   9.368   0.672  0.1158  0.4513 -0.8497
 1349HK4    H1313299   1.912   9.380   0.750  0.3849 -0.5558 -0.9547
 1349HK4    C2513300   1.818   9.244   0.611  0.6399 -0.0997  0.1074
 1349HK4    H1213301   1.892   9.166   0.623  2.9503  1.6603 -2.1718
 1349HK4    C2413302   1.710   9.220   0.528  0.5187 -0.0456  0.2477
 1349HK4    H1113303   1.687   9.121   0.485 -0.0408  0.9789 -1.8959
 1349HK4    C2313304   1.618   9.323   0.505  0.1782 -0.5511 -0.7152
 1349HK4    H1013305   1.527   9.303   0.450  0.6248  2.1005 -2.5098
 1349HK4    C3913306   1.444   9.590   0.485  0.0373 -0.3659 -0.0594
 1349HK4    C4113307   1.386   9.516   0.380  0.0122  0.3089 -0.5262
 1349HK4    H2113308   1.449   9.491   0.294 -0.2169  1.1900 -0.9603
 1349HK4    C4213309   1.248   9.499   0.380  0.0635 -0.1505  0.1388
 1349HK4    H2213310   1.198   9.428   0.312  1.1351  0.5520 -1.4165
 1349HK4    C4313311   1.166   9.558   0.475 -0.1077 -0.1585 -0.0026
 1349HK4    H2313312   1.058   9.564   0.465 -0.1771 -0.6001  0.4812
 1349HK4    C4413313   1.221   9.635   0.578 -0.2457  0.1028 -0.1226
 1349HK4    H2413314   1.161   9.656   0.668  0.4790  1.9426 -0.0467
 1349HK4    C4513315   1.359   9.647   0.582 -0.2020 -0.3187 -0.2977
 1349HK4    H2513316   1.406   9.697   0.668  0.8243 -0.1159 -0.9585
 1350HK4    H2813317  10.152  10.739   7.350  0.1109  0.8118 -0.2085
 1350HK4    C4813318  10.187  10.657   7.413  0.8786  0.8343 -0.6006
 1350HK4    C4713319  10.182  10.656   7.551  0.1086  0.2314 -0.6306
 1350HK4    H2713320  10.151  10.743   7.611  0.3909 -1.0607  1.4410
 1350HK4    C4613321  10.214  10.537   7.615 -0.3155  0.3933 -0.1100
 1350HK4    H2613322  10.205  10.537   7.725 -0.6817  2.2431 -0.1183
 1350HK4    C4013323  10.263  10.423   7.549 -0.5201  0.1052  0.2319
 1350HK4    C5013324  10.271  10.429   7.408  0.5280 -0.2271  0.2708
 1350HK4    H3013325  10.328  10.349   7.360  0.6917  0.7011 -1.1269
 1350HK4    C4913326  10.236  10.547   7.343  0.0743 -0.2348  0.4970
 1350HK4    H2913327  10.265  10.552   7.237 -0.7853  1.0884  0.3086
 1350HK4     N213328  10.322  10.313   7.612 -0.0602  0.3505  0.2283
 1350HK4    C3013329  10.393  10.322   7.734 -0.3947  0.3358  0.4237
 1350HK4    C2913330  10.457  10.428   7.795 -0.3426  0.7195 -0.2901
 1350HK4    H1513331  10.453  10.525   7.746  2.5711  0.9769 -0.1590
 1350HK4    C2813332  10.519  10.416   7.919  0.0079  0.8332 -0.4521
 1350HK4    C2713333  10.527  10.289   7.980 -1.1685  0.7401 -0.4873
 1350HK4    H1413334  10.585  10.276   8.073  0.1587  0.9141 -1.2807
 1350HK4    C3213335  10.460  10.182   7.921  0.5792 -0.6568  0.0196
 1350HK4    H1613336  10.448  10.096   7.987 -2.7221  0.3453  0.7872
 1350HK4    C3113337  10.393  10.193   7.800 -0.1188  0.3697  0.4903
 1350HK4    C3413338  10.330  10.097   7.710  0.1033  0.6144  0.0750
 1350HK4    C3313339  10.294  10.176   7.594  0.0065  0.3717 -0.0584
 1350HK4    C3513340  10.219  10.111   7.497 -0.1634  0.0854  0.2606
 1350HK4    H1713341  10.186  10.176   7.415  3.4023  0.9713 -0.5774
 1350HK4    C3613342  10.188   9.976   7.505 -0.4471  0.1183 -0.2304
 1350HK4    H1813343  10.160   9.935   7.407 -0.0075  0.0261 -0.3164
 1350HK4    C3713344  10.211   9.909   7.625 -0.5125  0.0942 -0.2314
 1350HK4    H1913345  10.185   9.804   7.630  1.3814 -0.3056  2.8948
 1350HK4    C3813346  10.280   9.969   7.730 -0.1843  0.6000 -0.7294
 1350HK4    H2013347  10.305   9.909   7.817  0.6146 -1.9684 -2.6932
 1350HK4    C1413348  10.587  10.533   7.976  0.2355  0.1931  0.6249
 1350HK4     C913349  10.694  10.532   8.065 -0.1016  0.1166  1.0267
 1350HK4     C813350  10.720  10.634   8.159  0.3717  0.2792  0.7240
 1350HK4    C1113351  10.631  10.741   8.153  0.1628  0.0490 -0.2971
 1350HK4     H413352  10.629  10.811   8.238  1.0026  1.8711 -1.7442
 1350HK4    C1213353  10.531  10.754   8.057 -0.0108 -0.5721 -0.2079
 1350HK4     H513354  10.469  10.844   8.064  1.1712  0.3312 -1.0508
 1350HK4    C1313355  10.505  10.648   7.971  0.0410  0.0037 -0.9446
 1350HK4     H613356  10.412  10.654   7.912 -2.1288 -1.3338  2.1849
 1350HK4     C713357  10.829  10.630   8.259  0.5157 -0.2332  0.5461
 1350HK4     O213358  10.834  10.711   8.351  0.0459 -0.0703  0.4296
 1350HK4     C413359  10.919  10.514   8.244 -0.0701 -0.6417  0.1694
 1350HK4     C313360  11.022  10.511   8.337 -0.3840  0.0456  0.5465
 1350HK4     H313361  11.060  10.592   8.401  3.2237 -1.4300  0.4434
 1350HK4     C213362  11.110  10.403   8.341 -0.6381 -0.1655  0.4377
 1350HK4     H213363  11.166  10.395   8.435  1.7519  1.0119 -0.8277
 1350HK4     C113364  11.080  10.297   8.256 -0.8073  0.3470 -0.1450
 1350HK4     H113365  11.162  10.232   8.223  0.4047  0.8101  1.8751
 1350HK4     C613366  10.964  10.280   8.177 -0.2410 -0.1967 -0.8677
 1350HK4     C513367  10.889  10.398   8.170 -0.9762 -0.5758  0.4353
 1350HK4    C1013368  10.791  10.419   8.059 -0.2930  0.0098 -0.0666
 1350HK4     O113369  10.839  10.393   7.949 -0.0406 -0.3998  0.1422
 1350HK4    C1613370  10.904  10.146   8.182 -0.1858 -0.2021 -0.2784
 1350HK4    C1513371  10.952  10.049   8.271  0.0235 -0.0326 -0.2083
 1350HK4     H713372  11.004  10.082   8.362 -1.0221 -0.7565  0.6655
 1350HK4    C2013373  10.922   9.914   8.257 -0.3490 -0.0051  0.2837
 1350HK4     H913374  10.952   9.833   8.324  0.6172  0.3860  0.3306
 1350HK4    C1913375  10.848   9.867   8.148  0.3164 -0.2543 -0.0659
 1350HK4    C1813376  10.814   9.963   8.046 -0.3470 -0.1075  0.2871
 1350HK4    C1713377  10.831  10.099   8.073 -0.4107  0.0030 -0.2193
 1350HK4     H813378  10.801  10.166   7.993 -1.4613 -0.4813 -0.2376
 1350HK4     N113379  10.754   9.906   7.932  0.2886 -0.3294  0.0627
 1350HK4    C2113380  10.758   9.768   7.961 -0.6284 -0.2541  0.5544
 1350HK4    C2213381  10.819   9.738   8.089  0.5428 -0.3307 -0.0094
 1350HK4    C2613382  10.848   9.604   8.113  0.3863 -0.4457 -0.4500
 1350HK4    H1313383  10.916   9.591   8.196 -0.4833  1.7147  0.6602
 1350HK4    C2513384  10.812   9.505   8.022 -0.1162 -0.4598 -0.2348
 1350HK4    H1213385  10.835   9.400   8.041 -2.8612 -0.6190  2.7495
 1350HK4    C2413386  10.752   9.535   7.900  0.6423  0.4510 -0.3892
 1350HK4    H1113387  10.707   9.449   7.847 -0.5675 -0.0375  1.3884
 1350HK4    C2313388  10.725   9.668   7.870  0.1413  0.3431 -0.4025
 1350HK4    H1013389  10.717   9.691   7.764 -1.1516  2.7705  0.1917
 1350HK4    C3913390  10.748   9.967   7.806  0.5717  0.2547  0.3287
 1350HK4    C4113391  10.642   9.937   7.718  0.3939  0.8983  0.3177
 1350HK4    H2113392  10.555   9.885   7.762 -0.4366  1.3728 -0.7503
 1350HK4    C4213393  10.634   9.986   7.588 -0.5877 -0.1530 -0.0272
 1350HK4    H2213394  10.534   9.994   7.543 -0.8473 -0.1198  0.5458
 1350HK4    C4313395  10.735  10.064   7.534 -0.2098 -0.2364  0.5573
 1350HK4    H2313396  10.727  10.116   7.439  2.2277 -0.3351  0.2573
 1350HK4    C4413397  10.843  10.092   7.617  0.1508  0.1924 -0.0544
 1350HK4    H2413398  10.922  10.163   7.588 -2.9266  2.8305 -2.3235
 1350HK4    C4513399  10.852  10.041   7.746  0.3848  0.1926 -0.0689
 1350HK4    H2513400  10.926  10.080   7.817 -3.2347  2.5059  2.6403
 1351HK4    H2813401   8.865   6.472   3.565  0.0389  0.4372 -0.9062
 1351HK4    C4813402   8.941   6.402   3.531  0.1808  0.1848 -0.0853
 1351HK4    C4713403   8.941   6.273   3.583 -0.1494  0.1613 -0.1455
 1351HK4    H2713404   8.868   6.243   3.660 -0.7451 -0.1739 -0.8361
 1351HK4    C4613405   9.034   6.187   3.526  0.3018  0.2480  0.4444
 1351HK4    H2613406   9.031   6.083   3.562  0.8330  0.2788  0.5776
 1351HK4    C4013407   9.138   6.216   3.435 -0.1779 -0.1443 -0.2386
 1351HK4    C5013408   9.142   6.352   3.396 -0.0957 -0.1857 -0.3743
 1351HK4    H3013409   9.238   6.396   3.366 -1.3171  1.8646 -1.4142
 1351HK4    C4913410   9.042   6.437   3.442  0.3799  0.1147  0.1111
 1351HK4    H2913411   9.017   6.529   3.387 -0.3376  1.1457  2.1222
 1351HK4     N213412   9.227   6.123   3.382  0.2525  0.1008  0.0436
 1351HK4    C3013413   9.245   5.994   3.437  0.4888  0.0082 -0.2489
 1351HK4    C2913414   9.240   5.947   3.567  0.5167 -0.3891 -0.3905
 1351HK4    H1513415   9.222   6.018   3.648  0.3105 -0.9848  0.0907
 1351HK4    C2813416   9.252   5.812   3.596  0.1553 -0.3113  0.1384
 1351HK4    C2713417   9.275   5.721   3.491 -0.1584 -0.1490 -0.0722
 1351HK4    H1413418   9.254   5.615   3.511 -2.6984 -0.0894 -2.0865
 1351HK4    C3213419   9.291   5.764   3.360  0.6837 -0.2543 -0.0031
 1351HK4    H1613420   9.323   5.699   3.278 -1.4327 -1.7112  0.2923
 1351HK4    C3113421   9.271   5.898   3.331 -0.0465 -0.3712 -0.0352
 1351HK4    C3413422   9.289   5.976   3.210  0.2176 -0.0638  0.2004
 1351HK4    C3313423   9.270   6.115   3.248 -0.1318 -0.0342 -0.0732
 1351HK4    C3513424   9.288   6.207   3.145 -0.0529 -0.0093 -0.0370
 1351HK4    H1713425   9.246   6.307   3.156 -0.4833 -0.0576 -1.1738
 1351HK4    C3613426   9.343   6.176   3.021 -0.1608  0.0732 -0.1058
 1351HK4    H1813427   9.359   6.250   2.941  0.4822 -0.1056 -0.1400
 1351HK4    C3713428   9.362   6.042   2.990  0.2462  0.1543 -0.2074
 1351HK4    H1913429   9.417   6.014   2.900  1.1898 -2.5435  1.1902
 1351HK4    C3813430   9.328   5.943   3.081  0.0307  0.4305  0.0160
 1351HK4    H2013431   9.332   5.839   3.049 -0.0474  0.3490  0.2714
 1351HK4    C1413432   9.257   5.767   3.736  0.0636  0.1183  0.2795
 1351HK4     C913433   9.307   5.640   3.768 -0.1895 -0.0628 -0.0500
 1351HK4     C813434   9.233   5.551   3.848 -0.3917 -0.1415 -0.3209
 1351HK4    C1113435   9.123   5.600   3.918 -0.2635  0.0877 -0.2804
 1351HK4     H413436   9.062   5.535   3.983  0.0704 -0.6010 -0.6515
 1351HK4    C1213437   9.077   5.730   3.900 -0.1824  0.2091  0.3825
 1351HK4     H513438   8.985   5.755   3.955 -0.0303 -0.3698  0.9051
 1351HK4    C1313439   9.149   5.813   3.815 -0.5008 -0.2172 -0.2970
 1351HK4     H613440   9.094   5.904   3.788 -1.3606 -0.7383 -0.3042
 1351HK4     C713441   9.284   5.416   3.879 -0.1724 -0.0508 -0.2906
 1351HK4     O213442   9.211   5.334   3.934  0.4333 -0.1562  0.3713
 1351HK4     C413443   9.425   5.384   3.844 -0.2888 -0.4667 -0.3778
 1351HK4     C313444   9.479   5.264   3.888  0.1213 -0.2885 -0.3964
 1351HK4     H313445   9.427   5.197   3.958 -0.3090  0.5769  0.1203
 1351HK4     C213446   9.587   5.206   3.822  0.2295 -0.6796  0.1174
 1351HK4     H213447   9.641   5.123   3.869  0.0131 -1.8117 -1.5684
 1351HK4     C113448   9.642   5.271   3.712 -0.9259  0.0823 -0.0222
 1351HK4     H113449   9.725   5.233   3.652 -0.4766  0.8916  0.0742
 1351HK4     C613450   9.595   5.397   3.671  0.5779  0.7750  0.3493
 1351HK4     C513451   9.490   5.457   3.742  0.0008  0.0114  0.1512
 1351HK4    C1013452   9.444   5.598   3.730 -0.2772 -0.1187 -0.3115
 1351HK4     O113453   9.525   5.690   3.713 -0.7241  0.3979  0.3094
 1351HK4    C1613454   9.615   5.429   3.529  0.1110  0.0302  0.1125
 1351HK4    C1513455   9.609   5.322   3.438 -0.2599  0.1119  0.0403
 1351HK4     H713456   9.541   5.239   3.463  0.7021  0.0138  2.4745
 1351HK4    C2013457   9.675   5.323   3.315 -0.0244 -0.3154  0.1645
 1351HK4     H913458   9.665   5.239   3.246  2.2133 -2.2711  2.1127
 1351HK4    C1913459   9.750   5.432   3.274 -0.2982 -0.1683  0.0658
 1351HK4    C1813460   9.745   5.547   3.363  0.1588  0.0833 -0.2284
 1351HK4    C1713461   9.681   5.544   3.486  0.4594 -0.2384 -0.0779
 1351HK4     H813462   9.707   5.625   3.555  1.8150  0.5735 -1.5160
 1351HK4     N113463   9.829   5.650   3.318  0.2861  0.1380  0.1381
 1351HK4    C2113464   9.882   5.603   3.196 -0.7854 -0.0239 -0.2611
 1351HK4    C2213465   9.843   5.466   3.168 -0.0228 -0.3442  0.2503
 1351HK4    C2613466   9.902   5.394   3.065 -0.4596  0.1534 -0.3467
 1351HK4    H1313467   9.872   5.290   3.059 -0.4390  0.2157 -1.6340
 1351HK4    C2513468   9.992   5.458   2.980  0.3473 -0.0542  0.3504
 1351HK4    H1213469  10.039   5.409   2.895 -0.2186  1.2264 -0.7315
 1351HK4    C2413470  10.020   5.593   2.999  0.2045 -0.0639  0.6348
 1351HK4    H1113471  10.065   5.633   2.907 -0.4600  1.4081  0.9331
 1351HK4    C2313472   9.970   5.665   3.107  0.1662 -0.0906  0.6348
 1351HK4    H1013473   9.992   5.771   3.115  4.8259 -0.9621  0.6493
 1351HK4    C3913474   9.801   5.786   3.336 -0.8218 -0.1150  0.3248
 1351HK4    C4113475   9.903   5.882   3.318 -0.5454 -0.6634 -1.0863
 1351HK4    H2113476  10.005   5.849   3.341 -0.3450  0.0452 -0.9486
 1351HK4    C4213477   9.879   6.012   3.274  0.6254 -0.0639  0.0342
 1351HK4    H2213478   9.953   6.092   3.287 -0.7196  1.0157  1.2674
 1351HK4    C4313479   9.751   6.057   3.247  0.6995  0.2594  0.2359
 1351HK4    H2313480   9.736   6.158   3.206 -0.4896 -0.2625 -0.6573
 1351HK4    C4413481   9.650   5.967   3.279  0.4609  0.3490 -0.2500
 1351HK4    H2413482   9.545   5.997   3.264 -0.3133 -2.1024  0.0370
 1351HK4    C4513483   9.670   5.838   3.326 -0.6767  0.1213 -0.3786
 1351HK4    H2513484   9.588   5.778   3.368  0.3752 -0.0765  1.4464
 1352HK4    H2813485  10.612   2.103   4.855 -0.3166  0.5969 -0.2484
 1352HK4    C4813486  10.646   2.127   4.754 -0.2961  0.1393 -0.3491
 1352HK4    C4713487  10.776   2.104   4.711 -0.0796 -0.1948  0.4645
 1352HK4    H2713488  10.845   2.075   4.792 -0.3283  0.0429  0.7608
 1352HK4    C4613489  10.804   2.121   4.576 -0.4977 -0.2283  0.3746
 1352HK4    H2613490  10.910   2.120   4.548 -0.7112 -3.9066 -0.5897
 1352HK4    C4013491  10.704   2.140   4.478 -0.0145 -0.0605 -0.0914
 1352HK4    C5013492  10.574   2.164   4.528  0.0855  0.4635 -0.0856
 1352HK4    H3013493  10.493   2.185   4.456 -2.0929  1.4067  2.5525
 1352HK4    C4913494  10.543   2.146   4.662 -0.4153 -0.2775 -0.2995
 1352HK4    H2913495  10.437   2.137   4.690 -0.2561 -0.0176  0.4045
 1352HK4     N213496  10.736   2.147   4.342  0.2604 -0.5417 -0.0563
 1352HK4    C3013497  10.847   2.208   4.279  0.1585  0.0244  0.3096
 1352HK4    C2913498  10.912   2.324   4.321  0.8879 -0.4551  0.5065
 1352HK4    H1513499  10.868   2.369   4.410  2.1319  2.3447 -0.2495
 1352HK4    C2813500  10.995   2.401   4.240  0.0083 -0.1482 -0.1180
 1352HK4    C2713501  11.008   2.361   4.106  0.4857 -0.1369 -0.0771
 1352HK4    H1413502  11.063   2.435   4.044  1.4452 -1.0312 -0.3078
 1352HK4    C3213503  10.938   2.251   4.060 -0.2601  0.2431  0.1472
 1352HK4    H1613504  10.947   2.226   3.954  2.0831  0.9570  0.1715
 1352HK4    C3113505  10.857   2.170   4.140 -0.0084  0.1167  0.2726
 1352HK4    C3413506  10.751   2.074   4.122 -0.0324  0.2051 -0.0782
 1352HK4    C3313507  10.669   2.075   4.242 -0.0395 -0.2294 -0.0782
 1352HK4    C3513508  10.552   2.000   4.247 -0.0753 -0.1486  0.3569
 1352HK4    H1713509  10.490   1.998   4.337  1.2496 -0.5637  1.2709
 1352HK4    C3613510  10.512   1.923   4.138  0.0404 -0.0281  0.2304
 1352HK4    H1813511  10.427   1.854   4.150 -0.8554  1.2394  1.2929
 1352HK4    C3713512  10.593   1.916   4.026 -0.0436  0.2493  0.1562
 1352HK4    H1913513  10.564   1.845   3.949  1.0461  0.4592 -0.4733
 1352HK4    C3813514  10.712   1.989   4.019  0.0760  0.0424  0.0156
 1352HK4    H2013515  10.793   1.963   3.951  0.4355 -0.2459  0.5519
 1352HK4    C1413516  11.066   2.517   4.297  0.0959 -0.1087 -0.3097
 1352HK4     C913517  11.119   2.626   4.229 -0.2165  0.4432  0.3253
 1352HK4     C813518  11.234   2.693   4.278  0.3254  0.1758 -0.5702
 1352HK4    C1113519   0.045   2.658   4.399 -0.2113  0.0721 -0.3343
 1352HK4     H413520   0.145   2.699   4.422 -0.3085 -0.1602  0.5032
 1352HK4    C1213521  11.235   2.558   4.475 -0.0748  0.2764  0.0410
 1352HK4     H513522  11.243   2.548   4.584  1.1525  0.2622 -0.0402
 1352HK4    C1313523  11.127   2.489   4.421  0.0918  0.2263 -0.2340
 1352HK4     H613524  11.084   2.407   4.480  1.6089 -1.5401 -1.5411
 1352HK4     C713525   0.045   2.807   4.205 -0.0804  0.6993 -0.0785
 1352HK4     O213526   0.140   2.865   4.256 -0.1719  0.6199  0.1824
 1352HK4     C413527  11.239   2.841   4.071 -0.1637  0.2674 -0.1575
 1352HK4     C313528   0.054   2.942   3.999  0.5721 -0.2450 -0.2353
 1352HK4     H313529   0.133   3.000   4.049  1.7010 -1.2500 -0.8326
 1352HK4     C213530   0.006   2.997   3.880 -0.3330  0.3704  0.4020
 1352HK4     H213531   0.066   3.063   3.815 -1.2492  1.0092  0.2057
 1352HK4     C113532  11.137   2.937   3.836 -0.3562  0.4830  0.3146
 1352HK4     H113533  11.115   2.940   3.728 -0.9107 -0.5528  0.3952
 1352HK4     C613534  11.061   2.842   3.906  0.0777 -0.3777 -0.3696
 1352HK4     C513535  11.113   2.795   4.027 -0.0779  0.0264 -0.1438
 1352HK4    C1013536  11.051   2.689   4.112  0.0692 -0.0116 -0.0844
 1352HK4     O113537  10.929   2.672   4.115  0.0542  0.1549  0.1977
 1352HK4    C1613538  10.917   2.837   3.876  0.0047  0.1778 -0.1263
 1352HK4    C1513539  10.863   2.961   3.835  0.3793  0.2919 -0.2791
 1352HK4     H713540  10.920   3.048   3.870  1.6149  0.0208 -1.5569
 1352HK4    C2013541  10.758   2.969   3.744  0.1857  0.6938 -0.0233
 1352HK4     H913542  10.724   3.069   3.718 -0.0666  1.0010  1.3943
 1352HK4    C1913543  10.700   2.853   3.693 -0.2636  0.7311  0.3920
 1352HK4    C1813544  10.749   2.725   3.740 -0.4172  0.5512  0.0674
 1352HK4    C1713545  10.856   2.722   3.829  0.2984  0.2842 -0.7849
 1352HK4     H813546  10.888   2.625   3.869 -0.5628  0.5870  0.6980
 1352HK4     N113547  10.667   2.617   3.701  0.4133 -0.0637  0.0112
 1352HK4    C2113548  10.571   2.677   3.617  0.6467  0.0353 -0.1879
 1352HK4    C2213549  10.587   2.821   3.608  0.1785  0.0999  0.0325
 1352HK4    C2613550  10.528   2.896   3.507  0.1844 -0.5356 -0.4458
 1352HK4    H1313551  10.553   3.001   3.487 -1.5217 -0.0073  0.0973
 1352HK4    C2513552  10.450   2.829   3.414 -0.3091  0.0310 -0.4396
 1352HK4    H1213553  10.394   2.888   3.340  0.4279  1.8078  0.3846
 1352HK4    C2413554  10.425   2.693   3.430 -0.6706  0.2088  0.5350
 1352HK4    H1113555  10.390   2.646   3.337  1.3007 -0.2691  0.0103
 1352HK4    C2313556  10.486   2.614   3.527  0.2677  0.2764 -0.0012
 1352HK4    H1013557  10.439   2.521   3.557 -1.9918  0.4329 -2.8540
 1352HK4    C3913558  10.659   2.489   3.755 -0.5648  0.0389  0.1028
 1352HK4    C4113559  10.612   2.384   3.673 -0.1755  0.3343 -0.4973
 1352HK4    H2113560  10.619   2.385   3.563 -0.7264 -1.3010 -0.5547
 1352HK4    C4213561  10.551   2.270   3.724 -0.0793  0.4496 -0.1264
 1352HK4    H2213562  10.511   2.192   3.658 -1.7024  2.1887 -1.2426
 1352HK4    C4313563  10.553   2.258   3.863 -0.0642  0.0896 -0.1559
 1352HK4    H2313564  10.510   2.170   3.909 -1.0823 -0.6733 -2.4695
 1352HK4    C4413565  10.607   2.353   3.949  0.3384 -0.0326 -0.2749
 1352HK4    H2413566  10.607   2.329   4.056 -0.2117  0.1623 -0.2315
 1352HK4    C4513567  10.668   2.466   3.894 -0.3235  0.5456  0.1718
 1352HK4    H2513568  10.725   2.532   3.961 -0.4772 -1.2408  2.1098
 1353HK4    H2813569   8.641   2.212   2.255  0.9900  0.5184  0.2264
 1353HK4    C4813570   8.697   2.119   2.249 -0.1000 -0.1254 -0.2421
 1353HK4    C4713571   8.698   2.025   2.351  0.5279  0.0332 -0.0981
 1353HK4    H2713572   8.644   2.033   2.447  0.2277 -1.1317 -0.1590
 1353HK4    C4613573   8.760   1.903   2.329  0.0263 -0.2235 -0.1054
 1353HK4    H2613574   8.749   1.824   2.405 -1.8889  1.3579  1.2942
 1353HK4    C4013575   8.820   1.867   2.206  0.2483 -0.2725  0.0163
 1353HK4    C5013576   8.815   1.963   2.103  1.2057 -0.0784  0.1435
 1353HK4    H3013577   8.867   1.932   2.011  0.7095 -0.8532  0.1146
 1353HK4    C4913578   8.757   2.087   2.128 -0.2511 -0.6742 -0.1728
 1353HK4    H2913579   8.762   2.170   2.056  0.3306  1.7828  2.5736
 1353HK4     N213580   8.918   1.767   2.199  0.1393 -0.3943  0.2225
 1353HK4    C3013581   9.007   1.724   2.300 -0.4929  0.1565  1.0229
 1353HK4    C2913582   9.058   1.806   2.400 -0.2802  0.9394  0.2831
 1353HK4    H1513583   9.004   1.897   2.427  1.2996  1.7294  0.8316
 1353HK4    C2813584   9.149   1.754   2.491 -0.2551  0.0339 -0.2564
 1353HK4    C2713585   9.178   1.616   2.480 -0.6214 -0.0551 -0.0807
 1353HK4    H1413586   9.213   1.564   2.570 -2.1779 -0.0926  0.5172
 1353HK4    C3213587   9.143   1.534   2.374  0.0534  0.1124 -0.4333
 1353HK4    H1613588   9.174   1.430   2.365  0.9043  0.3314  0.0291
 1353HK4    C3113589   9.057   1.590   2.279  0.5190  0.7486 -0.4864
 1353HK4    C3413590   8.988   1.547   2.159  0.2281  0.1485 -0.1109
 1353HK4    C3313591   8.913   1.660   2.108 -0.0056 -0.0419 -0.1885
 1353HK4    C3513592   8.824   1.638   2.004 -0.1984  0.4522 -0.1272
 1353HK4    H1713593   8.765   1.720   1.963  0.7235  2.4261  2.3585
 1353HK4    C3613594   8.818   1.515   1.940 -0.2100  0.0742  0.5996
 1353HK4    H1813595   8.775   1.513   1.838 -2.1396 -1.3965  1.4182
 1353HK4    C3713596   8.889   1.409   1.994  0.4200 -0.0508 -0.4634
 1353HK4    H1913597   8.880   1.306   1.957  2.3383  0.2728 -1.8862
 1353HK4    C3813598   8.967   1.419   2.108 -0.3299  0.1893  0.0276
 1353HK4    H2013599   9.007   1.333   2.162 -0.5770  0.4592  0.6560
 1353HK4    C1413600   9.252   1.847   2.541 -0.1985 -0.3538  0.3623
 1353HK4     C913601   9.387   1.818   2.558 -0.1529 -0.2552  0.1612
 1353HK4     C813602   9.467   1.872   2.661 -0.1517  0.4261 -0.1998
 1353HK4    C1113603   9.414   1.975   2.738  0.5474  0.6083  0.0466
 1353HK4     H413604   9.475   2.038   2.804 -0.2028  1.0520  0.3223
 1353HK4    C1213605   9.281   2.009   2.717  0.7340  0.5563 -1.2437
 1353HK4     H513606   9.241   2.081   2.790 -1.1230  0.5234 -2.1697
 1353HK4    C1313607   9.198   1.948   2.623 -0.0912  0.2999 -0.3573
 1353HK4     H613608   9.094   1.983   2.616 -0.0734  0.4538  0.1249
 1353HK4     C713609   9.602   1.817   2.689 -0.3123 -0.0409 -0.3482
 1353HK4     O213610   9.658   1.855   2.791  0.1778 -0.4805 -0.4543
 1353HK4     C413611   9.660   1.710   2.605  0.3761  0.2184 -0.1985
 1353HK4     C313612   9.785   1.654   2.629  0.3460  0.2559  0.0375
 1353HK4     H313613   9.851   1.709   2.698 -0.4123  0.2692  0.7611
 1353HK4     C213614   9.824   1.537   2.567  0.1350  0.2760 -0.1324
 1353HK4     H213615   9.934   1.525   2.565  0.3443  2.0833 -0.2126
 1353HK4     C113616   9.739   1.466   2.483  0.1227 -0.3364  0.3885
 1353HK4     H113617   9.754   1.366   2.440  0.4121 -0.2043  0.1762
 1353HK4     C613618   9.617   1.528   2.449  0.2138 -0.1445  0.4096
 1353HK4     C513619   9.579   1.650   2.506  0.3684  0.1770 -0.1662
 1353HK4    C1013620   9.458   1.726   2.465  0.4809  0.4294 -0.0381
 1353HK4     O113621   9.437   1.747   2.345 -0.1164 -0.4491 -0.0903
 1353HK4    C1613622   9.520   1.438   2.384  0.2429  0.3887 -0.3856
 1353HK4    C1513623   9.484   1.306   2.421  0.2068  0.4168 -0.3211
 1353HK4     H713624   9.531   1.258   2.508 -0.7178 -1.6875 -0.9466
 1353HK4    C2013625   9.401   1.222   2.347  0.5964 -0.1252 -0.1384
 1353HK4     H913626   9.378   1.122   2.383 -0.7219  0.4471  0.6397
 1353HK4    C1913627   9.351   1.256   2.222 -0.0451 -0.0272  0.1429
 1353HK4    C1813628   9.391   1.389   2.179 -0.2019 -0.0306 -0.0138
 1353HK4    C1713629   9.474   1.469   2.257 -0.0678  0.1433 -0.3336
 1353HK4     H813630   9.511   1.559   2.207  2.6210 -0.4062  0.6213
 1353HK4     N113631   9.364   1.399   2.041 -0.2782  0.0616  0.0084
 1353HK4    C2113632   9.297   1.282   2.000  0.2529 -0.0946 -0.4181
 1353HK4    C2213633   9.282   1.191   2.112  0.5166  0.0551 -0.2630
 1353HK4    C2613634   9.203   1.077   2.103  0.5129  0.0355 -0.0186
 1353HK4    H1313635   9.195   1.014   2.191  0.1683  2.0870  1.4475
 1353HK4    C2513636   9.128   1.049   1.989  0.8261 -0.2025 -0.1650
 1353HK4    H1213637   9.043   0.981   1.995  1.1275 -0.7277 -1.5131
 1353HK4    C2413638   9.144   1.132   1.879 -0.5980  0.0840 -0.1648
 1353HK4    H1113639   9.096   1.103   1.784 -4.3888  0.2831  1.5924
 1353HK4    C2313640   9.232   1.239   1.885  0.2795 -0.6277 -0.2393
 1353HK4    H1013641   9.231   1.315   1.807 -0.0216  0.5111  0.8574
 1353HK4    C3913642   9.361   1.523   1.976  0.4739  0.1281  0.1049
 1353HK4    C4113643   9.363   1.526   1.835 -0.0243  0.2419  0.1015
 1353HK4    H2113644   9.388   1.435   1.778  0.3538  0.6850 -0.4347
 1353HK4    C4213645   9.355   1.647   1.768 -0.6866  0.1144 -0.0587
 1353HK4    H2213646   9.352   1.648   1.658  0.3246 -1.8534 -0.1400
 1353HK4    C4313647   9.332   1.768   1.830 -0.4722 -0.1339  0.5060
 1353HK4    H2313648   9.317   1.863   1.778  1.2953  0.3670  0.8666
 1353HK4    C4413649   9.328   1.766   1.969 -0.0391 -0.1423  0.5196
 1353HK4    H2413650   9.292   1.854   2.025  2.2617  0.2376  1.4636
 1353HK4    C4513651   9.344   1.647   2.040 -0.2775 -0.1820  0.5078
 1353HK4    H2513652   9.330   1.647   2.149  3.9608 -0.3693  1.1126
 1354HK4    H2813653   7.815   4.222   7.664  0.0937  0.7214 -0.2278
 1354HK4    C4813654   7.858   4.231   7.564 -0.1835 -0.0297 -0.4169
 1354HK4    C4713655   7.990   4.273   7.548 -0.0716 -0.2154  0.0037
 1354HK4    H2713656   8.055   4.274   7.637  0.3872  2.7855 -0.3143
 1354HK4    C4613657   8.051   4.266   7.424  0.3209 -0.1015  0.1868
 1354HK4    H2613658   8.155   4.298   7.413  0.0637  1.6698  2.6208
 1354HK4    C4013659   7.987   4.220   7.307  0.0934 -0.4659  0.4536
 1354HK4    C5013660   7.850   4.189   7.319  0.0805 -0.6546 -0.1453
 1354HK4    H3013661   7.799   4.146   7.231 -0.0617  1.1707 -0.9826
 1354HK4    C4913662   7.796   4.189   7.447 -0.4962  0.3442 -0.3826
 1354HK4    H2913663   7.694   4.150   7.458 -0.4229  0.3214  0.2454
 1354HK4     N213664   8.063   4.176   7.198  0.1623 -0.1814  0.3869
 1354HK4    C3013665   8.202   4.150   7.195  0.1011 -0.4535 -0.2414
 1354HK4    C2913666   8.283   4.109   7.300 -0.0788  0.5106  0.2773
 1354HK4    H1513667   8.252   4.099   7.404  0.3779  4.0684  0.8064
 1354HK4    C2813668   8.417   4.082   7.275 -0.1396  0.2681  0.2005
 1354HK4    C2713669   8.466   4.090   7.143  0.0604  0.4090  0.2832
 1354HK4    H1413670   8.573   4.081   7.122 -0.4731 -0.7553 -2.1956
 1354HK4    C3213671   8.389   4.133   7.035  0.0321 -0.7095 -0.1473
 1354HK4    H1613672   8.427   4.139   6.932  2.2352 -3.1439  0.4691
 1354HK4    C3113673   8.253   4.150   7.059  0.1680  0.5230 -0.2197
 1354HK4    C3413674   8.139   4.156   6.970  0.0593 -0.4886 -0.1622
 1354HK4    C3313675   8.032   4.192   7.061  0.6767  0.1608  0.3108
 1354HK4    C3513676   7.909   4.217   7.001  0.7969  0.3420  0.1343
 1354HK4    H1713677   7.823   4.265   7.047  0.4453  2.0627 -2.2490
 1354HK4    C3613678   7.890   4.191   6.866  0.0567  0.4602  0.2113
 1354HK4    H1813679   7.791   4.171   6.823  0.5665 -0.1815 -0.6764
 1354HK4    C3713680   7.995   4.150   6.784 -0.3010  0.0025 -0.0174
 1354HK4    H1913681   7.963   4.135   6.681  2.0750  2.0525 -1.1188
 1354HK4    C3813682   8.124   4.138   6.833 -0.2803 -0.3145 -0.1491
 1354HK4    H2013683   8.205   4.104   6.768 -0.6477 -0.8736 -0.3193
 1354HK4    C1413684   8.507   4.082   7.391 -0.2031  0.3041  0.2511
 1354HK4     C913685   8.633   4.145   7.396 -0.0811  0.1320 -0.4867
 1354HK4     C813686   8.737   4.103   7.481 -0.2991  0.2732 -0.1475
 1354HK4    C1113687   8.698   4.009   7.576  0.3427 -0.4940 -0.6303
 1354HK4     H413688   8.767   3.979   7.656  1.6407 -0.5487 -1.7654
 1354HK4    C1213689   8.577   3.942   7.575 -0.2753  0.5349  1.1505
 1354HK4     H513690   8.554   3.858   7.642 -0.8288  0.6149  1.0636
 1354HK4    C1313691   8.482   3.976   7.479  0.5572  0.0103  0.1243
 1354HK4     H613692   8.391   3.915   7.466  1.4110 -0.8278 -2.0430
 1354HK4     C713693   8.858   4.188   7.494  0.0135 -0.1721 -0.1180
 1354HK4     O213694   8.955   4.134   7.546  0.3969  0.2206 -0.4288
 1354HK4     C413695   8.877   4.316   7.423 -0.3826  0.3683  0.7556
 1354HK4     C313696   8.989   4.398   7.432 -0.4739  0.5405  0.2983
 1354HK4     H313697   9.067   4.377   7.505  0.7424 -0.0780 -1.1478
 1354HK4     C213698   9.024   4.490   7.333  0.1295 -0.4510 -0.4189
 1354HK4     H213699   9.119   4.542   7.347 -0.8575  0.8017  1.9630
 1354HK4     C113700   8.939   4.494   7.222 -0.2119  0.5143 -0.1277
 1354HK4     H113701   8.965   4.568   7.145  0.7348  0.2769 -0.0538
 1354HK4     C613702   8.824   4.415   7.202  0.4848 -0.4991 -0.1884
 1354HK4     C513703   8.793   4.334   7.311  0.2691  0.1344  0.2255
 1354HK4    C1013704   8.659   4.269   7.318  0.1495  0.3477 -0.0680
 1354HK4     O113705   8.565   4.349   7.311  0.0399  0.1783 -0.5077
 1354HK4    C1613706   8.791   4.386   7.062 -0.0771 -0.6328 -0.0306
 1354HK4    C1513707   8.890   4.408   6.963 -0.1118 -0.3001  0.0083
 1354HK4     H713708   8.982   4.353   6.985  1.8460  2.7948 -0.1837
 1354HK4    C2013709   8.865   4.422   6.827  0.0339  0.0281  0.0153
 1354HK4     H913710   8.947   4.429   6.755  0.4931 -0.4302  0.4860
 1354HK4    C1913711   8.733   4.433   6.788 -0.0368 -0.6255  0.0682
 1354HK4    C1813712   8.627   4.409   6.884 -0.1863  0.2614  0.1233
 1354HK4    C1713713   8.660   4.383   7.017 -0.1243 -0.0378  0.0495
 1354HK4     H813714   8.573   4.340   7.067  1.1311 -2.7486 -0.0203
 1354HK4     N113715   8.502   4.433   6.823  0.0786  0.7030 -0.2519
 1354HK4    C2113716   8.528   4.465   6.688  0.2101  0.4045 -0.2983
 1354HK4    C2213717   8.670   4.467   6.661  0.3067  0.5313  0.2122
 1354HK4    C2613718   8.713   4.501   6.534  0.0568  0.2567  0.0552
 1354HK4    H1313719   8.812   4.546   6.542  0.4662 -0.8779  1.6596
 1354HK4    C2513720   8.624   4.518   6.428  0.1604 -1.1119 -0.2674
 1354HK4    H1213721   8.667   4.527   6.328  1.9008 -2.4379  0.3352
 1354HK4    C2413722   8.488   4.513   6.456  0.0755 -0.1782 -0.4925
 1354HK4    H1113723   8.411   4.529   6.378 -1.2193  0.7592  0.9458
 1354HK4    C2313724   8.439   4.486   6.583  0.2268  0.2110 -0.3506
 1354HK4    H1013725   8.333   4.485   6.606  0.5210 -0.6886  1.0389
 1354HK4    C3913726   8.397   4.494   6.891 -0.1088 -0.5408  0.6081
 1354HK4    C4113727   8.265   4.458   6.857 -0.0434 -0.2282  0.0156
 1354HK4    H2113728   8.254   4.370   6.791  3.4697 -0.3510 -0.4654
 1354HK4    C4213729   8.148   4.518   6.902 -0.1974 -0.1937 -0.4210
 1354HK4    H2213730   8.049   4.516   6.853  0.2473  3.9246 -1.6113
 1354HK4    C4313731   8.169   4.627   6.986  0.0441 -0.3974 -0.2193
 1354HK4    H2313732   8.081   4.684   7.015 -0.4883 -1.3170  0.0269
 1354HK4    C4413733   8.296   4.671   7.022 -0.0213 -0.4304  0.0612
 1354HK4    H2413734   8.302   4.741   7.106 -1.0540 -1.4062  0.9641
 1354HK4    C4513735   8.410   4.605   6.977  0.1350 -0.2406  0.1875
 1354HK4    H2513736   8.509   4.633   7.016 -0.7154  3.0610  0.1377
 1355HK4    H2813737   6.932  11.024   5.301 -0.6364  0.1059  0.6443
 1355HK4    C4813738   6.882  11.074   5.219 -0.3677 -0.1013  0.3563
 1355HK4    C4713739   6.811  11.009   5.118  0.3540  0.0031 -0.2247
 1355HK4    H2713740   6.827  10.900   5.115  3.6454  0.3930  0.5371
 1355HK4    C4613741   6.765  11.083   5.010  0.8679 -0.3316 -0.6748
 1355HK4    H2613742   6.724  11.029   4.923  3.5599 -1.1400 -1.4923
 1355HK4    C4013743   6.781  11.223   5.001  0.2258 -0.2042  0.1380
 1355HK4    C5013744   6.843   0.041   5.109 -0.5020  0.1340  0.3564
 1355HK4    H3013745   6.838   0.150   5.118 -0.6674  0.4557 -2.9749
 1355HK4    C4913746   6.894  11.213   5.214  0.3061 -0.1765 -0.2530
 1355HK4    H2913747   6.949   0.015   5.294 -0.7601 -0.7091  0.8256
 1355HK4     N213748   6.709   0.048   4.906 -0.1374 -0.0423  0.5390
 1355HK4    C3013749   6.742   0.178   4.863  0.1259 -0.3389 -0.1626
 1355HK4    C2913750   6.846   0.263   4.898  0.3483 -0.1328 -1.3362
 1355HK4    H1513751   6.945   0.229   4.928  0.4388  2.8665  2.0345
 1355HK4    C2813752   6.847   0.398   4.862 -0.5340  0.1736 -0.2200
 1355HK4    C2713753   6.744   0.444   4.778 -0.0666 -0.3906 -1.1083
 1355HK4    H1413754   6.766   0.530   4.714  3.3550 -0.5668 -0.2421
 1355HK4    C3213755   6.632   0.366   4.751 -0.2054 -0.3241 -0.7321
 1355HK4    H1613756   6.541   0.412   4.712  1.0983  3.3070  0.2859
 1355HK4    C3113757   6.626   0.234   4.796  0.2524 -0.1808 -0.2485
 1355HK4    C3413758   6.524   0.132   4.793 -0.4317  0.4580  1.1285
 1355HK4    C3313759   6.579   0.016   4.860  0.1134 -0.0454 -0.1688
 1355HK4    C3513760   6.495  11.156   4.886  0.0725 -0.0205 -0.2022
 1355HK4    H1713761   6.534  11.065   4.931 -0.4244  0.7652  1.8665
 1355HK4    C3613762   6.366  11.151   4.835 -0.0872  0.2611  0.1696
 1355HK4    H1813763   6.315  11.053   4.834  0.8597 -0.2580  1.3094
 1355HK4    C3713764   6.311   0.018   4.781 -0.4291 -0.1926 -0.4461
 1355HK4    H1913765   6.217   0.016   4.725  0.3586  0.6081 -1.8377
 1355HK4    C3813766   6.388   0.133   4.764 -0.1007 -0.4217 -0.4907
 1355HK4    H2013767   6.338   0.222   4.727 -0.2809  0.7246  2.3977
 1355HK4    C1413768   6.916   0.495   4.949 -0.0826 -0.1770 -0.1807
 1355HK4     C913769   6.868   0.624   4.976  0.3445  0.0410 -0.4709
 1355HK4     C813770   6.953   0.735   4.994  0.2440  0.0474 -0.0388
 1355HK4    C1113771   7.090   0.711   4.988  0.1689 -0.4047  0.0161
 1355HK4     H413772   7.164   0.792   4.995  0.8465 -0.9227 -0.9880
 1355HK4    C1213773   7.140   0.582   4.966  0.9813 -0.0808 -0.0592
 1355HK4     H513774   7.247   0.571   4.947  1.2475  1.2410  0.5773
 1355HK4    C1313775   7.055   0.473   4.955  0.0124  0.5929  0.5854
 1355HK4     H613776   7.099   0.373   4.940 -1.2552  0.1306 -0.2160
 1355HK4     C713777   6.900   0.872   4.983  0.1685  0.0214  0.0035
 1355HK4     O213778   6.969   0.969   5.013 -0.1784  0.2872 -0.0463
 1355HK4     C413779   6.755   0.888   4.955  0.1833 -0.3308 -0.2751
 1355HK4     C313780   6.713   1.015   4.918  0.3271 -0.1468  0.1848
 1355HK4     H313781   6.782   1.100   4.922  0.3119 -0.0398 -1.4850
 1355HK4     C213782   6.592   1.030   4.851  0.1673 -0.1990  0.4617
 1355HK4     H213783   6.569   1.127   4.805  0.9664 -0.3766 -0.3055
 1355HK4     C113784   6.511   0.917   4.835 -0.1930  0.0166  0.7447
 1355HK4     H113785   6.403   0.933   4.823 -0.5466 -0.2681  3.3654
 1355HK4     C613786   6.545   0.788   4.880 -0.0971 -0.3360 -0.3269
 1355HK4     C513787   6.665   0.779   4.952  0.0154 -0.1842 -0.4965
 1355HK4    C1013788   6.720   0.644   4.982  0.3516  0.0172 -0.2082
 1355HK4     O113789   6.659   0.569   5.058 -0.1218 -0.1590 -0.7615
 1355HK4    C1613790   6.458   0.681   4.828  0.0828 -0.4308 -0.4371
 1355HK4    C1513791   6.389   0.695   4.706  0.0365  0.0923 -0.3516
 1355HK4     H713792   6.437   0.738   4.617 -1.3186 -0.4669 -1.3792
 1355HK4    C2013793   6.270   0.630   4.676  0.1250 -0.0618 -0.3742
 1355HK4     H913794   6.202   0.678   4.605  0.7298  1.7387  0.2434
 1355HK4    C1913795   6.221   0.537   4.767  0.0928 -0.0289 -0.3578
 1355HK4    C1813796   6.289   0.515   4.893  0.2508 -0.5691 -0.5352
 1355HK4    C1713797   6.401   0.593   4.918 -0.0008 -0.2683 -0.3309
 1355HK4     H813798   6.425   0.604   5.024  1.7047 -0.1098 -0.7215
 1355HK4     N113799   6.232   0.405   4.960 -0.1405  0.1939  0.4073
 1355HK4    C2113800   6.135   0.349   4.874 -0.3928  0.7221  0.3485
 1355HK4    C2213801   6.124   0.430   4.754  0.2340 -0.1629 -0.3092
 1355HK4    C2613802   6.032   0.404   4.654  0.2160  0.0666 -0.3522
 1355HK4    H1313803   6.030   0.461   4.561  0.3083 -1.3266 -1.2276
 1355HK4    C2513804   5.940   0.302   4.675  0.2172  0.1077 -0.1404
 1355HK4    H1213805   5.873   0.266   4.596 -1.0640  0.9947  0.5299
 1355HK4    C2413806   5.939   0.231   4.794  0.4989  0.4324  0.0546
 1355HK4    H1113807   5.844   0.186   4.828  0.4042  0.7213  0.1716
 1355HK4    C2313808   6.041   0.247   4.887  0.0490  0.3420  0.5670
 1355HK4    H1013809   6.040   0.176   4.970 -0.3716 -1.9663 -1.3827
 1355HK4    C3913810   6.287   0.337   5.070  0.1737  0.3077  0.3198
 1355HK4    C4113811   6.216   0.252   5.156 -0.1146  0.4404  0.2154
 1355HK4    H2113812   6.106   0.258   5.165 -0.6025 -3.1496 -2.2832
 1355HK4    C4213813   6.279   0.178   5.255 -0.0681 -0.3226 -0.3785
 1355HK4    H2213814   6.217   0.115   5.321 -0.6612  0.2042 -0.4332
 1355HK4    C4313815   6.416   0.194   5.271 -0.2735  0.8624  0.2485
 1355HK4    H2313816   6.473   0.152   5.355  1.2594  1.2056 -0.6073
 1355HK4    C4413817   6.493   0.272   5.185  0.4399 -0.1152 -0.0127
 1355HK4    H2413818   6.602   0.263   5.184  0.3862 -1.6101  2.3660
 1355HK4    C4513819   6.427   0.339   5.083  0.1832  0.0616  0.2684
 1355HK4    H2513820   6.491   0.381   5.004  0.9485 -1.5452  0.0181
 1356HK4    H2813821   3.256   0.644   7.557 -0.1822  0.8560  0.9688
 1356HK4    C4813822   3.209   0.742   7.564 -0.8403  0.6115 -0.0608
 1356HK4    C4713823   3.244   0.832   7.663  0.2881 -0.1223  0.2127
 1356HK4    H2713824   3.321   0.802   7.736  0.1572  0.5706  0.6389
 1356HK4    C4613825   3.165   0.943   7.688 -0.5457 -0.6771  0.0799
 1356HK4    H2613826   3.205   1.019   7.757 -2.0714 -0.6954  0.9983
 1356HK4    C4013827   3.055   0.973   7.605 -0.9795 -0.6561  0.6615
 1356HK4    C5013828   3.026   0.884   7.499 -0.4188 -0.0785  0.0217
 1356HK4    H3013829   2.925   0.887   7.457 -0.2725 -1.5146 -0.4540
 1356HK4    C4913830   3.102   0.770   7.479 -0.7579 -0.2202 -0.4445
 1356HK4    H2913831   3.055   0.695   7.413 -0.4871 -0.7439 -0.0474
 1356HK4     N213832   2.980   1.090   7.624  0.0389  0.0153  0.5585
 1356HK4    C3013833   2.901   1.155   7.527 -0.0877 -0.3171  0.4383
 1356HK4    C2913834   2.926   1.164   7.390  0.2361 -0.0132  0.5175
 1356HK4    H1513835   3.006   1.105   7.346 -1.6141 -1.7023 -0.6340
 1356HK4    C2813836   2.857   1.255   7.312  0.8900 -0.1357 -0.2117
 1356HK4    C2713837   2.745   1.319   7.369  0.9163  0.2491 -0.5909
 1356HK4    H1413838   2.670   1.367   7.304  2.0400  0.3088 -1.8517
 1356HK4    C3213839   2.719   1.309   7.505  0.4310  0.0189 -0.6997
 1356HK4    H1613840   2.625   1.347   7.546  2.0550 -0.2010  3.4342
 1356HK4    C3113841   2.805   1.243   7.592  0.2257  0.4640 -0.1468
 1356HK4    C3413842   2.828   1.238   7.735 -0.9362 -0.3365  0.0118
 1356HK4    C3313843   2.932   1.138   7.747 -0.5573  0.0885  0.2977
 1356HK4    C3513844   2.949   1.087   7.876  0.3277 -0.0705  0.1202
 1356HK4    H1713845   3.012   0.999   7.885 -0.5469 -0.7757 -0.4776
 1356HK4    C3613846   2.871   1.121   7.986 -0.5837 -0.6677 -0.3291
 1356HK4    H1813847   2.910   1.099   8.087 -0.4853  0.8405 -0.0278
 1356HK4    C3713848   2.771   1.215   7.966 -0.1762 -0.2396 -0.3657
 1356HK4    H1913849   2.710   1.234   8.054 -0.6984  0.8523 -0.9548
 1356HK4    C3813850   2.751   1.278   7.844 -0.1554  0.7870  0.1557
 1356HK4    H2013851   2.692   1.370   7.837 -1.7422 -0.2850 -0.8275
 1356HK4    C1413852   2.920   1.318   7.195 -0.0261 -0.0033 -0.6445
 1356HK4     C913853   2.889   1.448   7.155 -0.1295  0.1889  0.0448
 1356HK4     C813854   2.909   1.493   7.022  0.2991  0.3336  0.1573
 1356HK4    C1113855   2.965   1.402   6.932 -0.1179 -0.0735  0.3066
 1356HK4     H413856   2.997   1.442   6.835 -2.6119 -1.3285 -1.0920
 1356HK4    C1213857   3.000   1.274   6.973 -0.4975 -0.4247 -0.4598
 1356HK4     H513858   3.076   1.231   6.907  2.6307  4.1247 -0.0792
 1356HK4    C1313859   2.988   1.233   7.105  0.2348 -0.1498 -0.3121
 1356HK4     H613860   2.980   1.124   7.116  2.5406 -0.3502 -0.2444
 1356HK4     C713861   2.843   1.614   6.970  0.0438 -0.0148 -0.3322
 1356HK4     O213862   2.863   1.655   6.855  0.0251  0.2583 -0.2376
 1356HK4     C413863   2.755   1.685   7.066  0.5435 -0.2524  0.3042
 1356HK4     C313864   2.667   1.781   7.019  0.4919 -0.4188  0.0572
 1356HK4     H313865   2.670   1.817   6.915 -0.0821 -0.7549 -0.0810
 1356HK4     C213866   2.593   1.854   7.112  0.9955 -0.3066  0.3736
 1356HK4     H213867   2.523   1.934   7.083 -0.9687 -2.5452 -1.2869
 1356HK4     C113868   2.608   1.828   7.248  0.0710  0.6048  0.6556
 1356HK4     H113869   2.535   1.873   7.316 -0.4539 -0.7725  1.0026
 1356HK4     C613870   2.703   1.739   7.302  0.1171  0.3944  0.2329
 1356HK4     C513871   2.774   1.669   7.204 -0.2022 -0.1832  0.4161
 1356HK4    C1013872   2.863   1.559   7.251 -0.1110 -0.1154  0.3969
 1356HK4     O113873   2.954   1.565   7.334  0.0006  0.0991  0.2589
 1356HK4    C1613874   2.681   1.692   7.440 -0.2050 -0.5489 -0.1390
 1356HK4    C1513875   2.552   1.712   7.492  0.0898  0.0298  0.3704
 1356HK4     H713876   2.463   1.706   7.426  0.4202 -2.1835  0.0930
 1356HK4    C2013877   2.520   1.714   7.627 -0.1785  0.1349  0.3064
 1356HK4     H913878   2.422   1.752   7.658  0.9012  1.2910  2.3727
 1356HK4    C1913879   2.625   1.696   7.716 -0.1157 -0.5521  0.1010
 1356HK4    C1813880   2.762   1.677   7.671 -0.3713 -1.2851 -0.3605
 1356HK4    C1713881   2.783   1.678   7.533 -0.0260 -0.3378 -0.3037
 1356HK4     H813882   2.882   1.716   7.510  0.1129  0.8063  2.0078
 1356HK4     N113883   2.846   1.636   7.776 -0.2191 -0.0709 -0.0111
 1356HK4    C2113884   2.771   1.648   7.895  0.3097  0.3266  0.2871
 1356HK4    C2213885   2.634   1.682   7.860  0.1202 -0.6282  0.0797
 1356HK4    C2613886   2.532   1.676   7.954  0.0929  0.7127  0.1557
 1356HK4    H1313887   2.432   1.699   7.919 -0.3918 -0.2963  0.8431
 1356HK4    C2513888   2.563   1.632   8.082  0.1354  0.6247  0.1163
 1356HK4    H1213889   2.485   1.614   8.156 -1.6422  0.2234 -1.8209
 1356HK4    C2413890   2.694   1.597   8.114 -0.0128 -0.4863 -0.4646
 1356HK4    H1113891   2.708   1.550   8.212 -0.3446  1.6135  0.6076
 1356HK4    C2313892   2.801   1.612   8.025  0.4321 -0.1814  0.1211
 1356HK4    H1013893   2.902   1.585   8.055  0.0930 -1.4884  0.1094
 1356HK4    C3913894   2.980   1.601   7.759 -0.1332  0.3697 -0.2695
 1356HK4    C4113895   3.064   1.615   7.872  0.2989  0.0056 -0.5442
 1356HK4    H2113896   3.037   1.704   7.930 -1.9115 -1.5467  0.8852
 1356HK4    C4213897   3.183   1.545   7.885  0.2357 -0.1072 -0.5684
 1356HK4    H2213898   3.265   1.561   7.957 -1.8129 -1.8775  2.3087
 1356HK4    C4313899   3.219   1.451   7.789  0.0449 -0.3034 -0.4477
 1356HK4    H2313900   3.303   1.382   7.795  0.6695  0.2981 -2.0704
 1356HK4    C4413901   3.135   1.428   7.681  0.1594  0.2254 -0.6513
 1356HK4    H2413902   3.160   1.349   7.608  0.5227 -0.1771 -0.0916
 1356HK4    C4513903   3.020   1.505   7.663  0.1639  0.3497 -0.1276
 1356HK4    H2513904   2.966   1.507   7.568 -0.9424  1.3716  0.5018
 1357HK4    H2813905   7.810   6.459   4.782  0.4431  2.4809  1.7613
 1357HK4    C4813906   7.729   6.512   4.732  0.0825  0.3597  0.0413
 1357HK4    C4713907   7.613   6.446   4.694 -0.0192  0.4279  0.2315
 1357HK4    H2713908   7.612   6.336   4.695 -1.5355  0.4230  0.3477
 1357HK4    C4613909   7.502   6.513   4.642 -0.2766 -0.0285  0.1846
 1357HK4    H2613910   7.411   6.457   4.617 -1.4822  1.9456  0.0638
 1357HK4    C4013911   7.500   6.653   4.626  0.2517 -0.0035  0.2985
 1357HK4    C5013912   7.621   6.710   4.669  0.4918 -0.2597 -0.0375
 1357HK4    H3013913   7.630   6.819   4.660 -0.5716 -0.2043 -0.4186
 1357HK4    C4913914   7.735   6.650   4.722  0.7826  0.3271  0.0037
 1357HK4    H2913915   7.817   6.707   4.767  1.3385 -0.0328 -0.5458
 1357HK4     N213916   7.418   6.715   4.530  0.0326 -0.3378  0.2678
 1357HK4    C3013917   7.357   6.656   4.418  0.1800 -0.4565  0.2510
 1357HK4    C2913918   7.387   6.537   4.352 -0.2789 -0.0044 -0.7842
 1357HK4    H1513919   7.464   6.474   4.396  0.3726  1.8591  0.8236
 1357HK4    C2813920   7.342   6.512   4.223 -0.0545 -0.6023 -0.7489
 1357HK4    C2713921   7.265   6.615   4.164 -0.0149  0.0933  0.3852
 1357HK4    H1413922   7.227   6.599   4.062 -0.6671  0.1647  0.6166
 1357HK4    C3213923   7.218   6.727   4.230 -0.2051 -0.1079  0.5922
 1357HK4    H1613924   7.168   6.805   4.172  0.9746 -1.4967 -2.3970
 1357HK4    C3113925   7.264   6.750   4.359  0.0819 -0.3729  0.5354
 1357HK4    C3413926   7.263   6.866   4.445 -0.0812 -0.2824  0.4123
 1357HK4    C3313927   7.358   6.841   4.552  0.3894 -0.1241  0.0320
 1357HK4    C3513928   7.370   6.921   4.664 -0.2721  0.2620 -0.1734
 1357HK4    H1713929   7.457   6.913   4.729  0.2505 -0.1183 -0.9122
 1357HK4    C3613930   7.292   7.037   4.664 -0.0875  0.3856 -0.2924
 1357HK4    H1813931   7.299   7.108   4.748 -2.4071  1.2788 -0.8211
 1357HK4    C3713932   7.204   7.062   4.560 -0.0304  0.0532 -0.4194
 1357HK4    H1913933   7.148   7.155   4.559 -0.0691  0.0324 -0.2673
 1357HK4    C3813934   7.178   6.976   4.453  0.2145  0.0111 -0.4465
 1357HK4    H2013935   7.096   6.993   4.383  0.6074  0.3796 -0.8202
 1357HK4    C1413936   7.389   6.397   4.145  0.2005 -0.5234 -0.7085
 1357HK4     C913937   7.407   6.402   4.006 -0.0535  0.0832 -0.7205
 1357HK4     C813938   7.364   6.294   3.927 -0.4450 -0.2343 -0.0856
 1357HK4    C1113939   7.323   6.181   3.997 -0.7207  0.0678  0.2353
 1357HK4     H413940   7.281   6.102   3.933 -1.9754  1.9266 -1.2878
 1357HK4    C1213941   7.320   6.164   4.135  0.2215 -0.4154  0.2062
 1357HK4     H513942   7.308   6.065   4.181  2.7527  0.4389  2.8847
 1357HK4    C1313943   7.354   6.277   4.210 -0.3476 -0.0390 -0.1016
 1357HK4     H613944   7.376   6.266   4.317 -1.0801  0.4803  0.1060
 1357HK4     C713945   7.397   6.281   3.783  0.3764 -0.0446  0.0820
 1357HK4     O213946   7.324   6.213   3.711  0.2650  0.2069 -0.0407
 1357HK4     C413947   7.500   6.370   3.726  0.1954  0.0616 -0.0743
 1357HK4     C313948   7.541   6.358   3.594 -0.4680 -0.1553 -0.2642
 1357HK4     H313949   7.467   6.327   3.518  0.6799 -0.6660 -1.1961
 1357HK4     C213950   7.656   6.419   3.544  0.0138 -0.3048  0.6605
 1357HK4     H213951   7.685   6.424   3.438  1.3118 -0.7003  0.9810
 1357HK4     C113952   7.714   6.518   3.623 -0.0956  0.0587  0.2868
 1357HK4     H113953   7.799   6.575   3.583  0.4877 -2.1663 -1.8283
 1357HK4     C613954   7.676   6.535   3.757  0.1043  0.3288  0.3098
 1357HK4     C513955   7.562   6.470   3.804 -0.0895  0.3196 -0.1725
 1357HK4    C1013956   7.501   6.495   3.938  0.3267  0.2528  0.0295
 1357HK4     O113957   7.501   6.609   3.984  0.8175  0.1978  0.1715
 1357HK4    C1613958   7.755   6.634   3.831 -0.5289  0.6460  0.5613
 1357HK4    C1513959   7.795   6.754   3.768 -0.3624  0.2870 -0.0173
 1357HK4     H713960   7.740   6.789   3.679 -0.7316  0.3614  0.2415
 1357HK4    C2013961   7.878   6.845   3.831 -0.3442  0.5201 -0.3769
 1357HK4     H913962   7.889   6.946   3.792  0.2152  1.6406  2.5030
 1357HK4    C1913963   7.930   6.812   3.956 -0.4115  0.2137 -0.4307
 1357HK4    C1813964   7.894   6.690   4.025 -0.4813  0.3928 -0.1490
 1357HK4    C1713965   7.812   6.603   3.954 -0.1662 -0.1769  0.1860
 1357HK4     H813966   7.805   6.499   3.987  1.5989 -0.1757  0.6403
 1357HK4     N113967   7.977   6.673   4.138 -0.4133 -0.1019 -0.2723
 1357HK4    C2113968   8.061   6.785   4.144 -0.2400 -0.2368 -0.2038
 1357HK4    C2213969   8.042   6.870   4.028 -0.0578 -0.4853 -0.4136
 1357HK4    C2613970   8.115   6.985   4.004 -0.1907 -0.3652 -0.2478
 1357HK4    H1313971   8.071   7.052   3.930 -1.8522 -0.4892  0.6090
 1357HK4    C2513972   8.218   7.010   4.094 -0.0821 -0.4519 -0.3452
 1357HK4    H1213973   8.290   7.087   4.067  1.0960 -1.9135 -1.4200
 1357HK4    C2413974   8.240   6.932   4.207 -0.6771 -0.4518 -0.2290
 1357HK4    H1113975   8.320   6.959   4.278  1.1761 -1.4444 -1.8920
 1357HK4    C2313976   8.165   6.817   4.231 -0.0057 -0.8924 -0.2381
 1357HK4    H1013977   8.160   6.772   4.330  2.0141  0.9314  0.7509
 1357HK4    C3913978   7.948   6.587   4.244  0.3893  0.3997  0.3600
 1357HK4    C4113979   8.054   6.534   4.320  0.6503  0.0085 -0.2738
 1357HK4    H2113980   8.158   6.557   4.295  1.1374 -1.3633  0.4135
 1357HK4    C4213981   8.029   6.458   4.434  0.1187  0.2568 -0.2234
 1357HK4    H2213982   8.112   6.419   4.495  0.9888  0.4576 -1.2581
 1357HK4    C4313983   7.899   6.432   4.475  0.4395 -0.5659  0.2613
 1357HK4    H2313984   7.884   6.372   4.565  0.0830  1.3342  1.5014
 1357HK4    C4413985   7.793   6.488   4.405  0.9166 -0.1089 -0.0911
 1357HK4    H2413986   7.696   6.478   4.455  0.9579 -1.8989 -0.3407
 1357HK4    C4513987   7.816   6.564   4.291  0.3005  0.3445  0.0822
 1357HK4    H2513988   7.731   6.599   4.231 -0.0712  1.3768  1.2066
 1358HK4    H2813989  10.072   7.576   1.066  1.0235  0.3777 -0.6421
 1358HK4    C4813990  10.070   7.474   1.027  0.4548  0.0891  0.1237
 1358HK4    C4713991  10.165   7.430   0.935  0.2505  0.4676 -0.2672
 1358HK4    H2713992  10.250   7.493   0.906  0.8074  1.0724  2.4860
 1358HK4    C4613993  10.145   7.310   0.867  0.0928  0.0801  0.4529
 1358HK4    H2613994  10.219   7.281   0.791  1.9472 -2.1447  2.9863
 1358HK4    C4013995  10.038   7.223   0.895  0.2234 -0.3377 -0.3687
 1358HK4    C5013996   9.948   7.263   0.996  0.1452  0.3768 -0.7098
 1358HK4    H3013997   9.851   7.213   1.012  0.5011 -1.1479 -3.0053
 1358HK4    C4913998   9.966   7.387   1.057  0.0966  0.2945 -0.5269
 1358HK4    H2913999   9.899   7.415   1.139  0.0108 -2.1169  0.2923
 1358HK4     N214000   9.997   7.123   0.806  0.5791 -0.4679 -0.3850
 1358HK4    C3014001  10.025   7.126   0.667  0.1161 -0.1703 -0.4703
 1358HK4    C2914002  10.055   7.235   0.585 -1.1375  0.6078  0.0881
 1358HK4    H1514003  10.084   7.331   0.627  1.4083 -0.9420  2.0082
 1358HK4    C2814004  10.053   7.217   0.448 -0.5327  0.2422  0.1296
 1358HK4    C2714005  10.027   7.089   0.394 -0.2549  0.0603  0.4273
 1358HK4    H1414006  10.081   7.059   0.303  1.8709  1.7852  1.0776
 1358HK4    C3214007   9.990   6.980   0.472 -1.0061 -0.1967 -0.2957
 1358HK4    H1614008   9.967   6.880   0.433 -0.4427  0.0343 -1.2204
 1358HK4    C3114009   9.980   7.001   0.609 -0.6036  0.0019 -0.2994
 1358HK4    C3414010   9.935   6.920   0.720 -0.6097  0.0313 -0.2800
 1358HK4    C3314011   9.941   6.999   0.841 -0.3829 -0.0034 -0.2683
 1358HK4    C3514012   9.905   6.939   0.961  0.3189  0.1049 -0.0056
 1358HK4    H1714013   9.907   7.005   1.048  1.7935 -2.1430  1.7461
 1358HK4    C3614014   9.871   6.804   0.972 -0.3476  0.2817  0.0801
 1358HK4    H1814015   9.871   6.750   1.068  0.4554  1.0470  0.5240
 1358HK4    C3714016   9.865   6.727   0.856  0.0160 -0.0169  0.2603
 1358HK4    H1914017   9.816   6.630   0.862  0.7009 -0.7061 -3.8520
 1358HK4    C3814018   9.903   6.785   0.736 -0.3987  0.0337  0.1539
 1358HK4    H2014019   9.906   6.719   0.650 -0.4915  2.0276 -1.4385
 1358HK4    C1414020  10.032   7.336   0.364 -0.1510  0.2595  0.0568
 1358HK4     C914021   9.950   7.355   0.253 -0.0609  0.4648  0.0266
 1358HK4     C814022   9.975   7.456   0.158  0.7398  0.3061  0.0684
 1358HK4    C1114023  10.077   7.546   0.186  0.6184  0.5447 -0.2496
 1358HK4     H414024  10.082   7.644   0.135 -1.8849  1.1571  0.6127
 1358HK4    C1214025  10.160   7.531   0.296  0.0019 -0.2028  0.1122
 1358HK4     H514026  10.227   7.610   0.331 -0.5663 -0.0132  0.7982
 1358HK4    C1314027  10.137   7.427   0.386  0.2904 -0.2575  0.1211
 1358HK4     H614028  10.222   7.408   0.454  1.4408  0.4291 -1.1049
 1358HK4     C714029   9.887   7.470   0.039  0.7405 -0.2467  0.0001
 1358HK4     O214030   9.912   7.559  11.206 -0.1140  0.1017  0.1180
 1358HK4     C414031   9.794   7.361   0.002  0.0536  0.3470 -0.0405
 1358HK4     C314032   9.736   7.369  11.125  0.0972 -0.4827 -0.1160
 1358HK4     H314033   9.736   7.456  11.057 -2.8525  1.7906  2.6632
 1358HK4     C214034   9.662   7.262  11.077 -0.0747 -0.6127  0.4421
 1358HK4     H214035   9.597   7.273  10.989  1.1530  1.5748 -0.2312
 1358HK4     C114036   9.642   7.153  11.162 -0.0125 -0.8909  0.1011
 1358HK4     H114037   9.578   7.074  11.120 -0.8717  1.2780 -2.8598
 1358HK4     C614038   9.702   7.144   0.041 -0.6707  0.3399  0.5041
 1358HK4     C514039   9.772   7.255   0.092 -0.3964  0.4239 -0.0614
 1358HK4    C1014040   9.840   7.258   0.224 -0.0586  0.5364 -0.2386
 1358HK4     O114041   9.766   7.227   0.318  0.5233 -0.3988 -0.0832
 1358HK4    C1614042   9.726   7.007   0.086 -0.5203  0.0415 -0.4787
 1358HK4    C1514043   9.775   6.906   0.000 -0.5968 -0.0916 -0.3682
 1358HK4     H714044   9.820   6.936  11.152  0.0594 -1.6905 -0.5732
 1358HK4    C2014045   9.773   6.769   0.018 -0.2868 -0.0555 -0.0343
 1358HK4     H914046   9.831   6.702  11.202 -0.9554 -0.8268  0.1490
 1358HK4    C1914047   9.712   6.715   0.131 -0.9229 -0.1261 -0.4094
 1358HK4    C1814048   9.667   6.813   0.227 -0.3662  0.1171 -0.3969
 1358HK4    C1714049   9.663   6.949   0.196 -0.1885  0.1622 -0.2252
 1358HK4     H814050   9.624   7.011   0.276 -0.8221 -2.3239  1.4789
 1358HK4     N114051   9.640   6.751   0.351 -0.2261  0.0175 -0.4171
 1358HK4    C2114052   9.651   6.612   0.330 -0.1285 -0.0343 -0.0216
 1358HK4    C2214053   9.705   6.587   0.198 -0.1265  0.0290 -0.0335
 1358HK4    C2614054   9.727   6.452   0.169 -0.0423 -0.0144  0.2251
 1358HK4    H1314055   9.769   6.422   0.073  0.1977 -3.4571  1.3410
 1358HK4    C2514056   9.696   6.349   0.256 -0.0911 -0.4479 -0.3054
 1358HK4    H1214057   9.720   6.246   0.228  2.0000  0.3561 -1.5646
 1358HK4    C2414058   9.631   6.376   0.376 -0.1364  0.1170 -0.4571
 1358HK4    H1114059   9.573   6.300   0.430  0.4196  0.7582  1.0619
 1358HK4    C2314060   9.608   6.508   0.413 -0.9542 -0.0297 -0.4369
 1358HK4    H1014061   9.545   6.532   0.499 -0.5715  2.1214 -0.7259
 1358HK4    C3914062   9.560   6.793   0.458 -0.0561  0.3069 -0.4034
 1358HK4    C4114063   9.463   6.894   0.445 -0.2080  0.2850  0.5010
 1358HK4    H2114064   9.414   6.926   0.352  1.2001 -0.9520 -0.6987
 1358HK4    C4214065   9.413   6.959   0.557 -0.6622  0.7656  0.0247
 1358HK4    H2214066   9.336   7.036   0.545 -2.0435 -0.9239 -2.5452
 1358HK4    C4314067   9.452   6.924   0.686  0.2848 -0.1272 -0.4989
 1358HK4    H2314068   9.414   6.987   0.766 -2.0141  0.5021 -2.0343
 1358HK4    C4414069   9.547   6.823   0.701 -0.2691 -0.6256 -0.3013
 1358HK4    H2414070   9.588   6.813   0.803 -0.4173 -2.5257 -0.4233
 1358HK4    C4514071   9.603   6.764   0.589 -0.1856 -0.2154 -0.4756
 1358HK4    H2514072   9.668   6.676   0.604 -0.3910 -0.5816 -1.6646
 1359HK4    H2814073   1.151   2.903   4.385  2.5217  2.0671 -0.7951
 1359HK4    C4814074   1.067   2.972   4.391  0.7391 -0.1338  0.1845
 1359HK4    C4714075   0.957   2.953   4.307  0.0974  0.3002  0.9181
 1359HK4    H2714076   0.974   2.888   4.220 -0.7974 -0.5183  1.3588
 1359HK4    C4614077   0.832   3.013   4.320 -0.2033 -0.1322  0.0564
 1359HK4    H2614078   0.742   2.970   4.274 -0.2660  0.9349 -0.8131
 1359HK4    C4014079   0.812   3.111   4.419 -0.1035 -0.0928  0.0377
 1359HK4    C5014080   0.923   3.131   4.504 -0.0742  0.3944 -0.1138
 1359HK4    H3014081   0.916   3.186   4.600 -0.5709  0.4552 -0.1806
 1359HK4    C4914082   1.044   3.063   4.493 -0.0227  0.5693 -0.6101
 1359HK4    H2914083   1.136   3.091   4.546 -0.1873 -2.3181  1.2797
 1359HK4     N214084   0.740   3.229   4.399 -0.2739 -0.2335 -0.1745
 1359HK4    C3014085   0.714   3.282   4.271  0.1161  0.0215 -0.1473
 1359HK4    C2914086   0.779   3.265   4.149  0.4624 -0.3709  0.0904
 1359HK4    H1514087   0.872   3.208   4.151  0.0854 -1.0664 -1.6762
 1359HK4    C2814088   0.722   3.305   4.029  0.1533 -0.4386  0.2137
 1359HK4    C2714089   0.586   3.342   4.026  0.3749  0.3510 -0.4187
 1359HK4    H1414090   0.529   3.334   3.932  0.9495  1.4349 -0.8702
 1359HK4    C3214091   0.517   3.359   4.145  0.4701  0.6959 -0.4132
 1359HK4    H1614092   0.418   3.405   4.154 -0.7098 -1.6804 -0.8715
 1359HK4    C3114093   0.585   3.348   4.266  0.2394  0.2536 -0.3256
 1359HK4    C3414094   0.546   3.351   4.405  0.0431 -0.5909 -0.3587
 1359HK4    C3314095   0.637   3.271   4.485 -0.1603 -0.4169  0.0500
 1359HK4    C3514096   0.621   3.256   4.623  0.7838  0.2891  0.2375
 1359HK4    H1714097   0.691   3.188   4.672  1.3737  0.5981 -0.1621
 1359HK4    C3614098   0.514   3.320   4.684 -0.1244 -0.0740 -0.9474
 1359HK4    H1814099   0.497   3.306   4.792 -1.3401 -3.5701 -1.5304
 1359HK4    C3714100   0.425   3.395   4.608 -0.4619  0.1477 -0.3412
 1359HK4    H1914101   0.343   3.445   4.659 -0.7823 -2.2981  1.6053
 1359HK4    C3814102   0.439   3.411   4.470 -0.1769 -0.8870 -0.4429
 1359HK4    H2014103   0.349   3.439   4.415 -0.4454  1.2444  0.9633
 1359HK4    C1414104   0.802   3.317   3.906 -0.2878 -0.3431 -0.0675
 1359HK4     C914105   0.768   3.398   3.798 -0.1063 -0.6572 -0.3620
 1359HK4     C814106   0.800   3.364   3.665 -0.0466 -0.1252 -0.4842
 1359HK4    C1114107   0.887   3.259   3.640 -0.8303 -0.9263  0.1569
 1359HK4     H414108   0.907   3.224   3.538  0.3508  0.9616 -0.2775
 1359HK4    C1214109   0.940   3.185   3.745  0.0427 -0.4166  0.0814
 1359HK4     H514110   0.990   3.087   3.732  0.4340 -0.3861  1.3156
 1359HK4    C1314111   0.898   3.219   3.873  0.1312  0.0463 -0.0136
 1359HK4     H614112   0.942   3.163   3.956 -0.1855 -0.2425 -0.0415
 1359HK4     C714113   0.716   3.424   3.559 -0.6885 -0.2806 -0.0614
 1359HK4     O214114   0.765   3.427   3.446  0.2569 -0.5235  0.3374
 1359HK4     C414115   0.604   3.515   3.591 -0.5239 -0.1808  0.2219
 1359HK4     C314116   0.509   3.551   3.496 -0.0745 -0.3458 -0.2922
 1359HK4     H314117   0.514   3.492   3.404 -0.5167  1.7980 -1.7092
 1359HK4     C214118   0.410   3.645   3.523  0.1883 -0.0595 -0.3226
 1359HK4     H214119   0.354   3.685   3.438  2.8148  0.0342 -2.0875
 1359HK4     C114120   0.406   3.701   3.650  0.3907  0.0636 -0.3692
 1359HK4     H114121   0.330   3.781   3.660 -1.8799 -1.5220 -3.7944
 1359HK4     C614122   0.491   3.660   3.754  0.4274  0.3263 -0.2947
 1359HK4     C514123   0.594   3.571   3.720  0.1563 -0.2235  0.2971
 1359HK4    C1014124   0.695   3.526   3.820  0.5951 -0.2874 -0.1692
 1359HK4     O114125   0.753   3.609   3.890  0.5279  0.2206 -0.7110
 1359HK4    C1614126   0.433   3.675   3.889  0.3267 -0.5681 -0.2331
 1359HK4    C1514127   0.294   3.670   3.907  0.3106 -0.0655 -0.2144
 1359HK4     H714128   0.240   3.588   3.858  0.6047 -1.0053  0.9978
 1359HK4    C2014129   0.221   3.730   4.009  0.7498  0.0030  0.0598
 1359HK4     H914130   0.112   3.727   4.007  0.8053 -2.8141 -0.2637
 1359HK4    C1914131   0.292   3.790   4.113  0.1496  0.7713  0.0379
 1359HK4    C1814132   0.437   3.791   4.103  0.2001 -0.9166  0.3286
 1359HK4    C1714133   0.501   3.738   3.992 -0.1177  0.1505 -0.3759
 1359HK4     H814134   0.607   3.762   3.982  0.4569 -1.2561  1.8610
 1359HK4     N114135   0.491   3.864   4.211 -0.1693 -0.0806 -0.0469
 1359HK4    C2114136   0.382   3.924   4.278 -0.0760 -0.5630  0.5424
 1359HK4    C2214137   0.257   3.875   4.225 -0.2986  0.2726  0.2790
 1359HK4    C2614138   0.138   3.933   4.267 -0.2892  0.7110 -0.2866
 1359HK4    H1314139   0.046   3.902   4.217 -1.5480  0.5442  2.0506
 1359HK4    C2514140   0.136   4.036   4.360 -0.0125  0.5216 -0.0667
 1359HK4    H1214141   0.040   4.059   4.405  0.3362 -1.7794  1.9319
 1359HK4    C2414142   0.257   4.080   4.412  0.1273  0.0664 -0.0065
 1359HK4    H1114143   0.248   4.141   4.504 -2.1410 -1.8232  1.0834
 1359HK4    C2314144   0.379   4.028   4.371  0.0590 -0.3670  0.3283
 1359HK4    H1014145   0.468   4.050   4.430 -1.1423  2.8566  1.0644
 1359HK4    C3914146   0.613   3.836   4.273 -0.2165  0.2372  0.1927
 1359HK4    C4114147   0.680   3.926   4.359 -0.5929  0.6557  0.0472
 1359HK4    H2114148   0.658   4.033   4.351  0.2470  0.7867 -0.5371
 1359HK4    C4214149   0.776   3.884   4.450 -0.5584 -0.2419 -0.4032
 1359HK4    H2214150   0.818   3.952   4.525  0.2389 -0.9362 -0.2030
 1359HK4    C4314151   0.810   3.749   4.462  0.1134  0.0172  0.6249
 1359HK4    H2314152   0.911   3.720   4.494  0.8747  1.0131 -0.8085
 1359HK4    C4414153   0.740   3.656   4.387  0.5446  0.2978 -0.1282
 1359HK4    H2414154   0.753   3.549   4.408  3.2310  0.1600 -2.0549
 1359HK4    C4514155   0.648   3.701   4.293  0.4869  0.3837 -0.0321
 1359HK4    H2514156   0.618   3.634   4.211  0.0794 -0.2954  0.6599
 1360HK4    H2814157   6.549   0.551   6.748 -1.7118  0.2562 -2.6799
 1360HK4    C4814158   6.512   0.451   6.771  0.1594  0.1864  0.2771
 1360HK4    C4714159   6.580   0.378   6.867  0.7270  0.2582 -0.0679
 1360HK4    H2714160   6.675   0.429   6.893 -0.5978  1.9571  1.5822
 1360HK4    C4614161   6.535   0.258   6.921  0.1005  0.3603 -0.3664
 1360HK4    H2614162   6.593   0.199   6.993  1.9066  2.7992  0.2726
 1360HK4    C4014163   6.417   0.196   6.876 -0.0920  0.0959  0.4993
 1360HK4    C5014164   6.354   0.272   6.776  0.3649  0.1344  0.2397
 1360HK4    H3014165   6.254   0.238   6.746  0.6705 -0.2250 -0.3803
 1360HK4    C4914166   6.394   0.394   6.723  0.2043  0.1667  0.1901
 1360HK4    H2914167   6.325   0.457   6.665 -1.6993 -2.2103 -0.1815
 1360HK4     N214168   6.370   0.068   6.908  0.0117 -0.0895 -0.0891
 1360HK4    C3014169   6.451  11.204   6.934  0.1830 -0.0004 -0.2387
 1360HK4    C2914170   6.588  11.186   6.921  0.3086  0.3095  0.6806
 1360HK4    H1514171   6.645   0.019   6.875  0.4684 -0.5875 -0.7235
 1360HK4    C2814172   6.656  11.073   6.964 -0.1657 -0.2694 -0.0853
 1360HK4    C2714173   6.579  10.977   7.033  0.0031 -0.2849  0.0817
 1360HK4    H1414174   6.631  10.887   7.068  0.0226 -1.0343 -1.7981
 1360HK4    C3214175   6.443  10.993   7.056  0.0521  0.2171  0.0327
 1360HK4    H1614176   6.394  10.927   7.128  2.2996 -1.0534  0.4594
 1360HK4    C3114177   6.375  11.103   7.005  0.0423  0.0482 -0.3235
 1360HK4    C3414178   6.238  11.152   7.000 -0.0111 -0.0311  0.2929
 1360HK4    C3314179   6.241   0.043   6.961  0.0610 -0.1070  0.0259
 1360HK4    C3514180   6.121   0.112   6.966 -0.2633 -0.5880 -1.0973
 1360HK4    H1714181   6.121   0.216   6.932 -1.6660 -0.5025 -0.8923
 1360HK4    C3614182   6.007   0.044   7.007 -0.4614  0.6818  0.5177
 1360HK4    H1814183   5.910   0.095   7.022 -0.3723  0.8447  0.5434
 1360HK4    C3714184   6.007  11.156   7.036  0.4018  0.4358 -0.5757
 1360HK4    H1914185   5.921  11.106   7.080  0.6538  0.5391  0.0376
 1360HK4    C3814186   6.123  11.080   7.029  0.0762 -0.1483  0.3464
 1360HK4    H2014187   6.124  10.974   7.057 -1.9218 -0.2519  0.0739
 1360HK4    C1414188   6.800  11.050   6.942 -0.0202 -0.0326  0.5964
 1360HK4     C914189   6.856  10.924   6.965 -0.3752 -0.1898  0.5820
 1360HK4     C814190   6.974  10.913   7.041 -0.4581 -0.2563  0.7022
 1360HK4    C1114191   7.042  11.031   7.069  0.4263 -0.5331 -0.2731
 1360HK4     H414192   7.138  11.026   7.123 -0.4103  0.6779  1.3762
 1360HK4    C1214193   6.996  11.156   7.028 -0.2895 -0.5486  0.4735
 1360HK4     H514194   7.069  11.238   7.029 -2.2157  1.2049  1.5343
 1360HK4    C1314195   6.875  11.168   6.961 -0.0553  0.0642  0.1565
 1360HK4     H614196   6.837   0.018   6.929 -2.3914 -1.4777 -1.9759
 1360HK4     C714197   7.036  10.780   7.062 -0.0006 -0.2002 -0.2743
 1360HK4     O214198   7.109  10.768   7.160 -0.0844  0.0501 -0.1789
 1360HK4     C414199   6.995  10.665   6.978  0.7363 -0.1630 -0.6899
 1360HK4     C314200   7.053  10.541   7.001 -0.1916 -0.3496  0.7349
 1360HK4     H314201   7.111  10.518   7.091 -0.4066  0.8290  1.1823
 1360HK4     C214202   7.033  10.438   6.909 -0.2097  0.0048  0.3437
 1360HK4     H214203   7.063  10.333   6.919 -0.1679 -0.2573 -2.1595
 1360HK4     C114204   6.959  10.466   6.794 -0.2681 -0.4461  0.2723
 1360HK4     H114205   6.960  10.393   6.712 -2.5132 -1.0082  0.7057
 1360HK4     C614206   6.895  10.589   6.771  0.3093 -0.2013 -0.0136
 1360HK4     C514207   6.909  10.688   6.869 -0.5303 -0.3476  0.2578
 1360HK4    C1014208   6.822  10.809   6.877 -0.2453 -0.1577  0.4877
 1360HK4     O114209   6.707  10.804   6.832 -0.1174  0.3977  0.0965
 1360HK4    C1614210   6.825  10.610   6.643 -0.2619  0.1769  0.3569
 1360HK4    C1514211   6.780  10.498   6.570 -0.1924  0.4462 -0.1015
 1360HK4     H714212   6.707  10.438   6.627 -1.0989  0.2682 -1.4313
 1360HK4    C2014213   6.778  10.490   6.431  0.1835 -0.0109 -0.0837
 1360HK4     H914214   6.757  10.394   6.385  0.1110 -1.1315  2.2081
 1360HK4    C1914215   6.813  10.602   6.356 -0.2563  0.1185 -0.0943
 1360HK4    C1814216   6.831  10.725   6.431  0.9381 -0.1479  0.0627
 1360HK4    C1714217   6.850  10.725   6.569 -0.1741  0.0679  0.2185
 1360HK4     H814218   6.890  10.818   6.610  1.7396 -0.2608 -0.8377
 1360HK4     N114219   6.827  10.839   6.348  0.5723 -0.2277 -0.0273
 1360HK4    C2114220   6.831  10.783   6.219  0.0842 -0.0087 -0.1351
 1360HK4    C2214221   6.807  10.640   6.216  0.1310 -0.0201 -0.1492
 1360HK4    C2614222   6.817  10.567   6.099 -0.6659 -0.4817  0.0627
 1360HK4    H1314223   6.793  10.461   6.093 -0.4762 -0.5267  0.1219
 1360HK4    C2514224   6.853  10.638   5.985  0.0001  0.5440  0.9009
 1360HK4    H1214225   6.871  10.582   5.893 -0.2917  0.4933  0.8765
 1360HK4    C2414226   6.880  10.774   5.981  0.1244  0.4989  0.0401
 1360HK4    H1114227   6.915  10.813   5.884 -0.5723  1.6625  0.2383
 1360HK4    C2314228   6.857  10.847   6.098  0.2393  0.4089  0.1165
 1360HK4    H1014229   6.819  10.948   6.089 -1.9947 -0.3556  0.6988
 1360HK4    C3914230   6.775  10.963   6.388  0.5350 -0.3204  0.2217
 1360HK4    C4114231   6.809  11.081   6.319  0.1409 -0.0502  0.4950
 1360HK4    H2114232   6.889  11.083   6.244  1.6057 -1.4492  1.9692
 1360HK4    C4214233   6.753  11.201   6.364  0.0526  0.1019 -0.0300
 1360HK4    H2214234   6.760   0.041   6.299  0.0393  0.0616 -0.0844
 1360HK4    C4314235   6.655  11.207   6.462  0.0288 -0.2231 -0.0293
 1360HK4    H2314236   6.596   0.048   6.479  3.8808  2.1514  1.5194
 1360HK4    C4414237   6.618  11.090   6.528 -0.2400 -0.0928  0.0456
 1360HK4    H2414238   6.542  11.093   6.607 -0.9162 -1.8364 -0.5122
 1360HK4    C4514239   6.680  10.971   6.491  0.1105  0.1641 -0.2072
 1360HK4    H2514240   6.666  10.885   6.559  0.7458 -1.4248 -2.0704
 1361HK4    H2814241   1.453   7.225   7.036 -3.2333  0.1843  0.6248
 1361HK4    C4814242   1.473   7.331   7.056  0.1802 -0.2412 -0.1681
 1361HK4    C4714243   1.485   7.374   7.187 -0.3181 -0.5107 -0.0313
 1361HK4    H2714244   1.497   7.302   7.269  0.3409 -1.7104 -1.1671
 1361HK4    C4614245   1.502   7.508   7.221  0.3179 -0.5263 -0.2752
 1361HK4    H2614246   1.536   7.540   7.321  1.1916 -0.9329 -0.4337
 1361HK4    C4014247   1.501   7.606   7.120 -0.1163 -0.0331  0.2052
 1361HK4    C5014248   1.486   7.565   6.986 -0.1714  0.0821  0.1758
 1361HK4    H3014249   1.489   7.637   6.903 -1.0038  0.8742  0.8160
 1361HK4    C4914250   1.477   7.430   6.958  0.5018  0.0432  0.1331
 1361HK4    H2914251   1.479   7.395   6.854  1.3390  1.1002 -0.2008
 1361HK4     N214252   1.458   7.736   7.149 -0.1320  0.0362 -0.1295
 1361HK4    C3014253   1.370   7.769   7.254  0.5979 -0.1399  0.5451
 1361HK4    C2914254   1.273   7.697   7.324  0.0008  0.1342  0.0042
 1361HK4    H1514255   1.265   7.592   7.299 -0.2920  0.0596  0.3965
 1361HK4    C2814256   1.183   7.757   7.412 -0.0927  0.1202 -0.0811
 1361HK4    C2714257   1.200   7.895   7.436 -0.3650  0.1558 -0.0963
 1361HK4    H1414258   1.143   7.949   7.513 -0.4921  0.6268 -0.5225
 1361HK4    C3214259   1.299   7.973   7.378  0.3695 -0.6059  0.1201
 1361HK4    H1614260   1.313   8.073   7.418  0.1656 -0.2911 -0.5884
 1361HK4    C3114261   1.379   7.910   7.283  0.4660  0.0249 -0.2141
 1361HK4    C3414262   1.474   7.965   7.188  0.3320  0.2607 -0.2138
 1361HK4    C3314263   1.520   7.855   7.106  0.3791 -0.0849  0.2679
 1361HK4    C3514264   1.592   7.888   6.992 -0.4477  0.3541 -0.1312
 1361HK4    H1714265   1.614   7.815   6.914  0.6045  1.4740 -0.9144
 1361HK4    C3614266   1.623   8.019   6.957  0.4007  0.2630  0.2622
 1361HK4    H1814267   1.699   8.046   6.882  0.0266 -1.3023 -0.6843
 1361HK4    C3714268   1.578   8.121   7.040 -0.3747  0.6421 -0.6176
 1361HK4    H1914269   1.559   8.218   6.994  2.2992  1.2098 -0.5807
 1361HK4    C3814270   1.512   8.096   7.160  0.8248  0.1533 -0.0582
 1361HK4    H2014271   1.499   8.173   7.236 -0.6282  0.0824 -0.2298
 1361HK4    C1414272   1.057   7.689   7.445  0.2411 -0.2906  0.3695
 1361HK4     C914273   0.931   7.748   7.463  0.3009 -0.0421 -0.0269
 1361HK4     C814274   0.822   7.680   7.520  0.3126  0.0326  0.0875
 1361HK4    C1114275   0.841   7.547   7.552  0.5065  0.0374 -0.0128
 1361HK4     H414276   0.759   7.481   7.584  0.3542 -0.2667 -1.0353
 1361HK4    C1214277   0.966   7.487   7.535  0.1504 -0.6237 -0.3201
 1361HK4     H514278   0.985   7.399   7.598 -1.8687  1.0038  2.6988
 1361HK4    C1314279   1.076   7.555   7.484  0.1907 -0.3767  0.0978
 1361HK4     H614280   1.163   7.491   7.465 -0.8331 -1.6136 -0.4789
 1361HK4     C714281   0.706   7.757   7.571  0.1603 -0.2370  0.1463
 1361HK4     O214282   0.609   7.692   7.609  0.0579 -0.2689 -0.1779
 1361HK4     C414283   0.705   7.905   7.562 -0.3379 -0.2730 -0.4031
 1361HK4     C314284   0.612   7.975   7.638  0.1282 -0.2241  0.1314
 1361HK4     H314285   0.554   7.927   7.718 -0.2944 -0.7213 -0.4618
 1361HK4     C214286   0.608   8.111   7.609  0.2882 -0.3238 -0.3621
 1361HK4     H214287   0.540   8.179   7.662 -0.7922  0.3210 -2.4814
 1361HK4     C114288   0.696   8.174   7.522  0.0368  0.5553  0.0171
 1361HK4     H114289   0.708   8.283   7.513 -2.3814  0.5768 -3.8443
 1361HK4     C614290   0.791   8.103   7.445  0.0196  0.3041  0.2301
 1361HK4     C514291   0.787   7.964   7.464  0.5724  0.3506  0.7150
 1361HK4    C1014292   0.893   7.879   7.403 -0.1604 -0.1253  0.0852
 1361HK4     O114293   0.900   7.878   7.280  0.3155 -0.3602  0.1151
 1361HK4    C1614294   0.916   8.177   7.425 -0.0559  0.2595 -0.4264
 1361HK4    C1514295   0.983   8.226   7.539  0.1661 -0.1360 -0.3889
 1361HK4     H714296   0.942   8.218   7.641  0.8190  0.3856 -0.0844
 1361HK4    C2014297   1.107   8.286   7.517  0.0153  0.0945 -0.5924
 1361HK4     H914298   1.137   8.348   7.601 -1.6035 -0.4829  0.4416
 1361HK4    C1914299   1.159   8.298   7.389  0.3627  0.1157 -0.4494
 1361HK4    C1814300   1.085   8.254   7.273  0.0770 -0.3211 -0.1002
 1361HK4    C1714301   0.963   8.191   7.295  0.1970 -0.6837 -0.4377
 1361HK4     H814302   0.889   8.167   7.219  0.0408 -1.8350  0.0675
 1361HK4     N114303   1.156   8.280   7.154  0.1080  0.3343  0.0639
 1361HK4    C2114304   1.272   8.351   7.194  0.0361  0.3937  0.1693
 1361HK4    C2214305   1.274   8.370   7.337  0.5247  0.3067  0.1731
 1361HK4    C2614306   1.373   8.446   7.398  0.6206 -0.3375  0.8266
 1361HK4    H1314307   1.367   8.462   7.506 -5.1413 -1.3971  0.8049
 1361HK4    C2514308   1.478   8.500   7.324  0.0907 -0.2226  0.1572
 1361HK4    H1214309   1.559   8.558   7.368  0.4265  0.2171 -1.0170
 1361HK4    C2414310   1.476   8.473   7.188 -0.0015  0.0774  0.0990
 1361HK4    H1114311   1.562   8.511   7.130  0.6657 -1.0344  0.3539
 1361HK4    C2314312   1.378   8.402   7.120  0.0902  0.0445  0.0028
 1361HK4    H1014313   1.378   8.389   7.012 -0.6432 -3.5221  0.3584
 1361HK4    C3914314   1.147   8.202   7.038 -0.0899  0.2049  0.1681
 1361HK4    C4114315   1.167   8.267   6.915  0.3261  0.0729  0.1670
 1361HK4    H2114316   1.163   8.377   6.910 -1.1722  0.0861  1.3207
 1361HK4    C4214317   1.188   8.192   6.800 -0.3004 -0.1024  0.1689
 1361HK4    H2214318   1.175   8.244   6.704  0.0054 -0.1669  0.0920
 1361HK4    C4314319   1.190   8.053   6.802 -0.3078 -0.1023  0.1174
 1361HK4    H2314320   1.207   7.992   6.713  0.7916 -2.8187  2.1120
 1361HK4    C4414321   1.174   7.987   6.924 -0.0872 -0.0452  0.1786
 1361HK4    H2414322   1.188   7.878   6.925  1.7000  0.1419 -1.3329
 1361HK4    C4514323   1.152   8.061   7.039  0.4770  0.2271  0.1131
 1361HK4    H2514324   1.129   8.019   7.138 -0.9020  2.1063  0.6209
 1362HK4    H2814325   3.519   5.525   5.375 -0.3065  0.3956 -1.4501
 1362HK4    C4814326   3.419   5.510   5.414  0.2799  0.0319 -0.0292
 1362HK4    C4714327   3.383   5.401   5.493 -0.3936  0.5786  0.4252
 1362HK4    H2714328   3.465   5.336   5.527  2.0908  1.9241 -2.7116
 1362HK4    C4614329   3.254   5.373   5.536 -0.5089  0.0150 -0.2886
 1362HK4    H2614330   3.234   5.278   5.588  0.0969 -0.2685 -0.5570
 1362HK4    C4014331   3.150   5.463   5.504  0.0387  0.8598  0.2829
 1362HK4    C5014332   3.187   5.571   5.423 -0.3664  0.3525 -0.5922
 1362HK4    H3014333   3.108   5.640   5.388 -1.1934 -0.1992  0.1750
 1362HK4    C4914334   3.316   5.596   5.377 -0.0143 -0.2836  0.0482
 1362HK4    H2914335   3.343   5.695   5.337 -0.5603 -1.7571 -4.1995
 1362HK4     N214336   3.024   5.454   5.564 -0.2326  0.7034 -0.3023
 1362HK4    C3014337   2.978   5.336   5.627 -0.5330  0.7806 -0.3737
 1362HK4    C2914338   2.955   5.211   5.571  0.2276  0.4001  0.1717
 1362HK4    H1514339   3.012   5.189   5.481  0.3479 -2.3107  0.8525
 1362HK4    C2814340   2.869   5.115   5.622  0.1751  0.3106 -0.0826
 1362HK4    C2714341   2.804   5.151   5.742 -0.1643  0.3514 -0.2775
 1362HK4    H1414342   2.756   5.066   5.793  3.2416 -0.5852  1.5437
 1362HK4    C3214343   2.811   5.277   5.801  0.0561 -0.0585  0.5935
 1362HK4    H1614344   2.777   5.293   5.903 -1.2755  2.1688 -0.1653
 1362HK4    C3114345   2.896   5.369   5.742 -0.1295 -0.1486  0.1783
 1362HK4    C3414346   2.891   5.514   5.748 -0.1885 -0.1272 -0.3761
 1362HK4    C3314347   2.963   5.562   5.632  0.7377  0.7170  0.5502
 1362HK4    C3514348   2.942   5.693   5.588 -0.1860  0.3059 -0.2334
 1362HK4    H1714349   3.004   5.738   5.511  0.6697  0.3344  0.4626
 1362HK4    C3614350   2.850   5.772   5.656 -0.1023  0.4053 -0.2373
 1362HK4    H1814351   2.814   5.867   5.613 -1.1403 -0.3120 -1.0131
 1362HK4    C3714352   2.776   5.723   5.763 -0.2119  0.1252 -0.4415
 1362HK4    H1914353   2.688   5.773   5.803  0.4270  0.2086  0.8599
 1362HK4    C3814354   2.795   5.593   5.808  0.5760  0.4307  0.1126
 1362HK4    H2014355   2.729   5.542   5.879 -1.8676  0.3971 -2.1078
 1362HK4    C1414356   2.801   5.023   5.529  0.0541  0.0866  0.2252
 1362HK4     C914357   2.664   4.998   5.537  0.0989 -0.1977  0.1272
 1362HK4     C814358   2.618   4.866   5.521 -0.4367  0.0419 -0.3065
 1362HK4    C1114359   2.708   4.768   5.480 -0.3952 -0.0532  0.0153
 1362HK4     H414360   2.677   4.663   5.478  0.2973 -0.2833  0.8348
 1362HK4    C1214361   2.841   4.795   5.447 -0.3762  0.1881  0.2829
 1362HK4     H514362   2.899   4.727   5.383 -0.4999  0.4864 -0.1561
 1362HK4    C1314363   2.883   4.925   5.469 -0.0213  0.1052  0.0952
 1362HK4     H614364   2.988   4.953   5.450  0.9710 -4.1263 -1.0338
 1362HK4     C714365   2.473   4.835   5.525 -0.2255 -0.8934  0.2952
 1362HK4     O214366   2.427   4.721   5.529 -0.2997 -0.8714  0.0625
 1362HK4     C414367   2.376   4.944   5.552  0.3049 -0.3445  0.0033
 1362HK4     C314368   2.242   4.928   5.520  0.2500  0.4895 -0.1798
 1362HK4     H314369   2.211   4.838   5.465 -0.6321  1.3292 -1.0827
 1362HK4     C214370   2.149   5.031   5.521 -0.2389  0.0483 -0.1830
 1362HK4     H214371   2.051   5.022   5.471 -0.1826  1.3102 -0.5443
 1362HK4     C114372   2.195   5.151   5.575  0.3705 -0.3878  0.2656
 1362HK4     H114373   2.123   5.234   5.575 -0.3953 -1.0287 -1.7258
 1362HK4     C614374   2.328   5.172   5.619  0.4108  0.0578 -0.0668
 1362HK4     C514375   2.421   5.074   5.581  0.0334 -0.1446 -0.4765
 1362HK4    C1014376   2.564   5.107   5.557  0.0179 -0.1466 -0.5692
 1362HK4     O114377   2.587   5.212   5.498 -0.8974  0.5425  0.2884
 1362HK4    C1614378   2.347   5.287   5.708 -0.1470 -0.0854  0.2442
 1362HK4    C1514379   2.464   5.282   5.786  0.1086 -0.0936 -0.1345
 1362HK4     H714380   2.525   5.191   5.792 -2.3619 -1.8185 -0.3711
 1362HK4    C2014381   2.493   5.392   5.866 -0.5505 -0.2177  0.2756
 1362HK4     H914382   2.571   5.369   5.939 -1.9814 -0.7509  1.6800
 1362HK4    C1914383   2.419   5.510   5.867 -0.5351 -0.2059 -0.1621
 1362HK4    C1814384   2.298   5.515   5.786 -0.2450  0.4644 -0.5605
 1362HK4    C1714385   2.272   5.405   5.706 -0.2633 -0.1587  0.2879
 1362HK4     H814386   2.207   5.416   5.619  1.8331 -1.6187 -1.5374
 1362HK4     N114387   2.232   5.639   5.799 -0.6191  0.2198 -0.0742
 1362HK4    C2114388   2.313   5.712   5.888 -0.0855  0.1129 -0.4643
 1362HK4    C2214389   2.429   5.638   5.933 -0.4854 -0.2693 -0.0463
 1362HK4    C2614390   2.521   5.694   6.022 -0.8424 -0.0676  0.1959
 1362HK4    H1314391   2.606   5.636   6.057  0.7487  1.3565 -1.2655
 1362HK4    C2514392   2.489   5.820   6.071  0.6220  0.3068  0.1865
 1362HK4    H1214393   2.544   5.852   6.160 -0.5753  1.7305  0.4322
 1362HK4    C2414394   2.384   5.897   6.022  0.2077 -0.0693  0.4806
 1362HK4    H1114395   2.386   6.005   6.039  0.3587  0.1916 -1.1421
 1362HK4    C2314396   2.295   5.844   5.930  0.4155 -0.0451  0.2645
 1362HK4    H1014397   2.193   5.884   5.929  0.3155 -0.2817  0.9368
 1362HK4    C3914398   2.094   5.655   5.781 -0.6936  0.4037  0.6461
 1362HK4    C4114399   2.004   5.546   5.787 -0.1710 -0.0889 -0.3572
 1362HK4    H2114400   2.037   5.450   5.828 -0.9514  0.0833  0.6776
 1362HK4    C4214401   1.874   5.547   5.738 -0.1702 -0.2119 -0.3627
 1362HK4    H2214402   1.812   5.457   5.739  1.0637 -1.0700  0.0471
 1362HK4    C4314403   1.824   5.663   5.680  0.1436  0.1185  0.0246
 1362HK4    H2314404   1.740   5.645   5.614 -0.8913 -0.0819  1.3697
 1362HK4    C4414405   1.911   5.772   5.673 -0.3272  0.4822 -0.1581
 1362HK4    H2414406   1.861   5.863   5.638  0.3745  0.8408 -0.2413
 1362HK4    C4514407   2.043   5.769   5.717 -0.4713  0.2935  0.2622
 1362HK4    H2514408   2.107   5.858   5.717 -0.0242 -0.0275 -0.4306
 1363HK4    H2814409   3.766  10.866   7.592 -0.0351  0.7974  1.1377
 1363HK4    C4814410   3.850  10.913   7.540 -0.3854  0.0127 -0.1580
 1363HK4    C4714411   3.885  10.874   7.412 -0.1491 -0.5787  0.0847
 1363HK4    H2714412   3.817  10.810   7.353 -0.6947 -1.6834  1.8912
 1363HK4    C4614413   4.001  10.924   7.354 -0.2949 -0.0734  0.2333
 1363HK4    H2614414   4.031  10.874   7.261 -0.7012  0.2426 -0.0686
 1363HK4    C4014415   4.094  11.007   7.421  0.0438 -0.1694 -0.1175
 1363HK4    C5014416   4.048  11.041   7.550 -0.2048  0.1707 -0.2953
 1363HK4    H3014417   4.121  11.095   7.612  0.4616  1.9099 -2.5092
 1363HK4    C4914418   3.930  11.001   7.612 -0.4236  0.3874 -0.5731
 1363HK4    H2914419   3.920  11.018   7.720  2.3460  1.9788 -0.5099
 1363HK4     N214420   4.232  10.994   7.400 -0.0155 -0.3528 -0.3989
 1363HK4    C3014421   4.297  10.879   7.351 -0.2441 -0.4282 -0.5308
 1363HK4    C2914422   4.277  10.744   7.379 -0.0503 -0.3280  0.0926
 1363HK4    H1514423   4.186  10.724   7.436 -1.4705  1.7581 -1.3531
 1363HK4    C2814424   4.366  10.647   7.337 -0.0002 -0.0474 -0.4459
 1363HK4    C2714425   4.482  10.689   7.269 -0.2363 -0.0131 -0.8346
 1363HK4    H1414426   4.543  10.610   7.222  0.6433 -0.1720  0.5294
 1363HK4    C3214427   4.507  10.823   7.244  0.1803  0.0885  0.1054
 1363HK4    H1614428   4.602  10.863   7.209  0.4430 -0.0050  0.6918
 1363HK4    C3114429   4.414  10.921   7.277  0.2471  0.0250  0.4875
 1363HK4    C3414430   4.428  11.065   7.289  0.5305  0.0337  0.0865
 1363HK4    C3314431   4.311  11.106   7.364  0.6198 -0.4999  0.5199
 1363HK4    C3514432   4.309  11.233   7.419 -0.6318 -0.1593 -0.2908
 1363HK4    H1714433   4.230   0.007   7.491 -0.5980 -0.4715 -0.1561
 1363HK4    C3614434   4.413   0.077   7.405 -0.1468 -0.6830 -0.1425
 1363HK4    H1814435   4.411   0.181   7.440  0.7405 -0.4608 -0.7464
 1363HK4    C3714436   4.525   0.033   7.336 -0.0608  0.1262 -0.5158
 1363HK4    H1914437   4.618   0.089   7.326  0.1199 -0.2124 -0.7446
 1363HK4    C3814438   4.534  11.154   7.280  0.5514 -0.0117 -0.1069
 1363HK4    H2014439   4.630  11.109   7.256  0.1624 -0.5897 -0.6038
 1363HK4    C1414440   4.362  10.514   7.400 -0.0138  0.0021 -0.3433
 1363HK4     C914441   4.475  10.440   7.438 -0.1622  0.2646  0.6171
 1363HK4     C814442   4.478  10.299   7.444 -0.0550  0.2378  0.0035
 1363HK4    C1114443   4.358  10.231   7.427 -0.1254  0.3301  0.1266
 1363HK4     H414444   4.359  10.121   7.429 -1.6979  0.3190  1.0846
 1363HK4    C1214445   4.241  10.302   7.406 -0.1996  0.2473  0.2644
 1363HK4     H514446   4.150  10.239   7.403  1.0217 -1.5270 -0.8308
 1363HK4    C1314447   4.243  10.439   7.387 -0.1628  0.1971 -0.1035
 1363HK4     H614448   4.150  10.489   7.356  0.3637  0.4330 -1.3837
 1363HK4     C714449   4.607  10.228   7.440  0.0124  0.3315  0.4359
 1363HK4     O214450   4.617  10.114   7.484 -0.3111 -0.0469 -0.4652
 1363HK4     C414451   4.723  10.314   7.408  0.1658  0.0402  0.2031
 1363HK4     C314452   4.836  10.249   7.359 -0.1686 -0.5530  0.2208
 1363HK4     H314453   4.821  10.147   7.319 -0.1942 -0.3385 -0.3308
 1363HK4     C214454   4.954  10.320   7.346 -0.3282 -0.3031  0.1353
 1363HK4     H214455   5.050  10.276   7.316 -0.7273 -0.3706 -1.0560
 1363HK4     C114456   4.951  10.456   7.376 -0.4851 -0.3974  0.5513
 1363HK4     H114457   5.041  10.517   7.363 -0.6756  0.0865  1.4533
 1363HK4     C614458   4.841  10.528   7.427 -0.3325  0.0727  0.2089
 1363HK4     C514459   4.728  10.449   7.448 -0.4668  0.1686 -0.1583
 1363HK4    C1014460   4.597  10.516   7.477 -0.1877  0.7430 -0.2054
 1363HK4     O114461   4.579  10.559   7.591  0.4153  0.2410  0.0862
 1363HK4    C1614462   4.838  10.672   7.399 -0.1029 -0.0075 -0.2444
 1363HK4    C1514463   4.904  10.737   7.292 -0.0359 -0.0437 -0.2235
 1363HK4     H714464   4.927  10.675   7.205 -0.9223  0.9569 -1.1902
 1363HK4    C2014465   4.918  10.876   7.285  0.1187 -0.0665 -0.3984
 1363HK4     H914466   4.981  10.916   7.206 -0.7664  1.0246 -0.5667
 1363HK4    C1914467   4.863  10.960   7.381  0.1658 -0.2685 -0.1961
 1363HK4    C1814468   4.781  10.899   7.485 -0.4877 -0.2624 -0.7042
 1363HK4    C1714469   4.785  10.761   7.492 -0.2208 -0.2284 -0.1046
 1363HK4     H814470   4.782  10.719   7.593  1.1051 -0.3504 -0.1009
 1363HK4     N114471   4.732  10.996   7.576 -0.1780 -0.0239 -0.7925
 1363HK4    C2114472   4.775  11.119   7.522  0.7891 -0.0511 -0.1019
 1363HK4    C2214473   4.863  11.102   7.408  0.9249 -0.3094  0.0397
 1363HK4    C2614474   4.932  11.213   7.360 -0.1737  0.5236  0.3567
 1363HK4    H1314475   4.972  11.213   7.259  1.0027  0.7696  0.8205
 1363HK4    C2514476   4.920   0.090   7.420  0.3168  0.4409  0.6262
 1363HK4    H1214477   4.972   0.176   7.378  0.2233 -0.4544 -1.3565
 1363HK4    C2414478   4.832   0.106   7.527 -0.2525 -0.3116  0.2763
 1363HK4    H1114479   4.797   0.208   7.544  0.6212  0.1334 -0.5028
 1363HK4    C2314480   4.756  11.247   7.573 -0.0176 -0.3952  0.4713
 1363HK4    H1014481   4.665   0.020   7.630 -0.2272 -2.4052  0.8870
 1363HK4    C3914482   4.619  10.976   7.655  0.0998  0.1366 -0.3556
 1363HK4    C4114483   4.595  11.057   7.768  0.3105 -0.4069  0.0827
 1363HK4    H2114484   4.676  11.114   7.816  1.5160 -0.2193 -2.1267
 1363HK4    C4214485   4.480  11.047   7.846  0.1703  0.2259 -0.0451
 1363HK4    H2214486   4.470  11.100   7.942 -1.3779  3.0086 -1.6773
 1363HK4    C4314487   4.378  10.958   7.815  0.0309  0.3980 -0.0832
 1363HK4    H2314488   4.300  10.954   7.891 -1.2945  0.6030 -1.4174
 1363HK4    C4414489   4.393  10.878   7.703  0.1281 -0.4619  0.5330
 1363HK4    H2414490   4.312  10.822   7.655 -0.7207  0.2194  1.1745
 1363HK4    C4514491   4.513  10.885   7.633  0.0316  0.0213  0.4155
 1363HK4    H2514492   4.524  10.830   7.538 -4.2352 -1.3262  0.6211
 1364HK4    H2814493   3.226   8.566   8.238  0.2791  0.6185  0.7192
 1364HK4    C4814494   3.245   8.469   8.283  0.2651  0.3179  0.0789
 1364HK4    C4714495   3.368   8.405   8.274  0.1928  0.1802  0.0574
 1364HK4    H2714496   3.458   8.458   8.239  0.0148 -1.8492 -3.7310
 1364HK4    C4614497   3.384   8.275   8.322  0.2222  0.2218  0.1607
 1364HK4    H2614498   3.475   8.217   8.299 -0.1066  0.1647 -1.0389
 1364HK4    C4014499   3.275   8.220   8.392  0.3560  0.3318  0.4541
 1364HK4    C5014500   3.152   8.283   8.416  0.1831  0.0989  0.1780
 1364HK4    H3014501   3.072   8.246   8.483  0.6354  1.1177  1.2979
 1364HK4    C4914502   3.146   8.411   8.362  0.0131 -0.2564 -0.6501
 1364HK4    H2914503   3.055   8.469   8.382  0.6766 -0.2642  2.5843
 1364HK4     N214504   3.294   8.105   8.470  0.1535  0.1813  0.2846
 1364HK4    C3014505   3.410   8.079   8.545  0.5374 -0.1700 -0.4249
 1364HK4    C2914506   3.518   8.156   8.585  0.1348  0.1013  0.1503
 1364HK4    H1514507   3.514   8.259   8.551  1.8945  0.6741  1.5649
 1364HK4    C2814508   3.629   8.107   8.653  0.2698  0.4452  0.1767
 1364HK4    C2714509   3.620   7.973   8.695  0.1006  0.6630  0.8531
 1364HK4    H1414510   3.691   7.939   8.772  1.2311  0.1793 -0.3885
 1364HK4    C3214511   3.515   7.891   8.656  0.1578  0.7153  0.5836
 1364HK4    H1614512   3.530   7.783   8.663 -1.2576  0.6039  2.3777
 1364HK4    C3114513   3.410   7.937   8.577  0.0479 -0.0100  0.3008
 1364HK4    C3414514   3.295   7.876   8.514  0.0827  0.2576 -0.0234
 1364HK4    C3314515   3.218   7.986   8.459  0.2168  0.1981 -0.3279
 1364HK4    C3514516   3.131   7.959   8.354  0.1218  0.0849 -0.2195
 1364HK4    H1714517   3.073   8.038   8.308 -0.0309  0.2172  0.1972
 1364HK4    C3614518   3.124   7.830   8.301  0.0188 -0.0365  0.0878
 1364HK4    H1814519   3.096   7.825   8.195  0.2129  1.8877 -0.0659
 1364HK4    C3714520   3.197   7.725   8.356  0.0532  0.0921  0.2859
 1364HK4    H1914521   3.182   7.623   8.320  1.0193 -0.0674  0.3243
 1364HK4    C3814522   3.284   7.747   8.462 -0.5874 -0.0316  0.8386
 1364HK4    H2014523   3.357   7.674   8.496  0.5018 -0.0880 -1.5972
 1364HK4    C1414524   3.762   8.167   8.630  0.4390  0.1336  0.3456
 1364HK4     C914525   3.878   8.089   8.638  0.4884  0.1492 -0.2028
 1364HK4     C814526   3.994   8.136   8.703  0.4715  0.1864 -0.2006
 1364HK4    C1114527   3.999   8.268   8.746 -0.0727  0.0594  0.2712
 1364HK4     H414528   4.082   8.302   8.809  1.8335 -1.6648 -1.2282
 1364HK4    C1214529   3.893   8.355   8.716  0.2094  0.1959 -0.3384
 1364HK4     H514530   3.907   8.464   8.720  1.2983  0.0262  1.2244
 1364HK4    C1314531   3.775   8.302   8.666 -0.0084  0.2365  0.1308
 1364HK4     H614532   3.689   8.370   8.667  0.0467  0.3011  0.2980
 1364HK4     C714533   4.104   8.042   8.736 -0.0494 -0.4570 -0.2816
 1364HK4     O214534   4.210   8.080   8.784  0.3271 -1.1059 -0.5980
 1364HK4     C414535   4.102   7.900   8.695  0.5489 -0.3121 -0.8276
 1364HK4     C314536   4.187   7.807   8.754 -0.1461 -0.3015  0.2162
 1364HK4     H314537   4.260   7.836   8.831  1.5727 -2.7532 -0.4313
 1364HK4     C214538   4.164   7.672   8.734 -0.0100 -0.3104  0.1246
 1364HK4     H214539   4.219   7.596   8.792 -1.3709 -1.0782  0.4149
 1364HK4     C114540   4.066   7.631   8.645 -0.0157 -0.1776  0.0666
 1364HK4     H114541   4.059   7.523   8.627 -1.6474  0.1514 -1.4935
 1364HK4     C614542   3.977   7.723   8.585 -0.0245 -0.2083  0.0350
 1364HK4     C514543   3.998   7.859   8.609  0.0686 -0.1573 -0.3243
 1364HK4    C1014544   3.896   7.959   8.567 -0.0364 -0.0875  0.0919
 1364HK4     O114545   3.843   7.969   8.456 -0.0358 -0.0502  0.0940
 1364HK4    C1614546   3.840   7.668   8.574 -0.1169  0.0406 -0.0506
 1364HK4    C1514547   3.784   7.570   8.658 -0.4212  0.3882  0.1460
 1364HK4     H714548   3.800   7.595   8.764  0.4749 -1.2432  0.4029
 1364HK4    C2014549   3.682   7.481   8.624  0.4568 -0.4118 -0.3942
 1364HK4     H914550   3.652   7.403   8.692  1.7744  0.4761  1.2511
 1364HK4    C1914551   3.632   7.488   8.494  0.1733  0.0245 -0.2621
 1364HK4    C1814552   3.689   7.587   8.404  0.0438  0.1298 -0.2276
 1364HK4    C1714553   3.789   7.674   8.445  0.3442 -0.2080 -0.2484
 1364HK4     H814554   3.844   7.723   8.365  1.2888  0.8040  1.0071
 1364HK4     N114555   3.637   7.569   8.274 -0.1010  0.3113 -0.1975
 1364HK4    C2114556   3.549   7.459   8.280 -0.0146  0.2930  0.7647
 1364HK4    C2214557   3.536   7.412   8.417 -0.2625 -0.2552  0.5532
 1364HK4    C2614558   3.460   7.299   8.444 -0.2101 -0.4539 -0.1348
 1364HK4    H1314559   3.435   7.281   8.548 -0.6030 -2.0470 -0.4923
 1364HK4    C2514560   3.406   7.222   8.341 -0.0511 -0.4362 -0.2319
 1364HK4    H1214561   3.314   7.166   8.356 -1.0928  1.7799  1.9961
 1364HK4    C2414562   3.431   7.263   8.211  0.1855 -0.0277 -0.0571
 1364HK4    H1114563   3.408   7.196   8.127 -1.6014  1.3713 -0.7198
 1364HK4    C2314564   3.492   7.384   8.178  0.9140 -0.2098  0.6170
 1364HK4    H1014565   3.489   7.421   8.076 -0.1083 -0.9048  0.3886
 1364HK4    C3914566   3.613   7.670   8.180 -0.2728  0.3580 -0.1015
 1364HK4    C4114567   3.604   7.640   8.043 -0.2527 -0.2555  0.0271
 1364HK4    H2114568   3.685   7.578   8.001 -0.2287  1.2456 -2.2188
 1364HK4    C4214569   3.530   7.720   7.957  0.1621 -0.0940 -0.1840
 1364HK4    H2214570   3.522   7.681   7.854 -0.0679  2.2657 -1.0972
 1364HK4    C4314571   3.456   7.829   8.002  0.2277  0.0925 -0.5206
 1364HK4    H2314572   3.407   7.881   7.920  1.2044 -1.4469 -2.1305
 1364HK4    C4414573   3.465   7.860   8.137 -0.6355 -0.8484 -0.2465
 1364HK4    H2414574   3.454   7.967   8.162  2.1276  0.1795 -3.1472
 1364HK4    C4514575   3.544   7.785   8.224  0.0204  0.4029  0.2413
 1364HK4    H2514576   3.555   7.814   8.329  3.6165 -2.5017  0.7629
 1365HK4    H2814577   4.168   7.196   5.389  2.3377  0.5671 -0.7099
 1365HK4    C4814578   4.184   7.099   5.342  0.5649 -0.0746 -0.0134
 1365HK4    C4714579   4.194   6.985   5.422 -0.8172 -0.1077  0.1246
 1365HK4    H2714580   4.182   6.989   5.531 -0.1549 -1.7798  0.2810
 1365HK4    C4614581   4.222   6.862   5.363  0.0024  0.1378 -0.0023
 1365HK4    H2614582   4.214   6.772   5.425 -1.2258  1.0892  1.2478
 1365HK4    C4014583   4.236   6.844   5.224  0.2094 -0.0203  0.0393
 1365HK4    C5014584   4.223   6.962   5.148  0.1996  0.1456  0.2963
 1365HK4    H3014585   4.219   6.957   5.038 -0.2941 -1.1834  0.3593
 1365HK4    C4914586   4.191   7.085   5.204 -0.1669  0.2284 -0.0872
 1365HK4    H2914587   4.164   7.169   5.138 -0.7938  0.1567  0.0789
 1365HK4     N214588   4.308   6.735   5.174 -0.1700 -0.3580  0.2283
 1365HK4    C3014589   4.414   6.663   5.234  0.0214 -0.2972 -0.0401
 1365HK4    C2914590   4.520   6.705   5.314 -0.2094 -0.3122  0.2710
 1365HK4    H1514591   4.513   6.797   5.372 -1.5111  0.4479 -1.0637
 1365HK4    C2814592   4.634   6.626   5.324 -0.0434 -0.0732  0.2617
 1365HK4    C2714593   4.638   6.501   5.258 -0.3367  0.1949 -0.2658
 1365HK4    H1414594   4.735   6.450   5.252  0.5564  2.1186 -3.8432
 1365HK4    C3214595   4.537   6.456   5.174  0.1086 -0.1704 -0.6064
 1365HK4    H1614596   4.534   6.352   5.141  0.9847 -0.7021  0.9191
 1365HK4    C3114597   4.426   6.539   5.161  0.0552 -0.1816 -0.2332
 1365HK4    C3414598   4.316   6.531   5.067 -0.0013  0.1153 -0.1934
 1365HK4    C3314599   4.250   6.660   5.069 -0.4908 -0.1404  0.2505
 1365HK4    C3514600   4.141   6.678   4.985 -0.0826  0.1993 -0.2095
 1365HK4    H1714601   4.099   6.778   4.973  0.2018  0.3232 -0.1721
 1365HK4    C3614602   4.081   6.572   4.918  0.0169  0.2530 -0.3834
 1365HK4    H1814603   3.984   6.593   4.869 -1.0213  1.2036  1.9976
 1365HK4    C3714604   4.140   6.446   4.921 -0.1091  0.1845 -0.8131
 1365HK4    H1914605   4.090   6.364   4.870 -0.1160 -0.1780 -0.2234
 1365HK4    C3814606   4.258   6.430   4.991 -0.4005  0.3972 -0.2684
 1365HK4    H2014607   4.308   6.334   5.008  1.9118  1.2916 -1.7967
 1365HK4    C1414608   4.764   6.691   5.347  0.2905 -0.5571 -0.2413
 1365HK4     C914609   4.881   6.671   5.273  0.2721  0.2230 -0.4931
 1365HK4     C814610   5.005   6.640   5.332  0.3051  0.9138 -0.2012
 1365HK4    C1114611   5.016   6.658   5.470  0.0905  0.1432 -0.0851
 1365HK4     H414612   5.114   6.653   5.518 -1.1302  0.8256  2.5555
 1365HK4    C1214613   4.906   6.702   5.542  0.4466  1.1491 -0.1542
 1365HK4     H514614   4.912   6.719   5.650  1.0542  0.0382 -0.0075
 1365HK4    C1314615   4.781   6.721   5.483  0.1073 -0.8790 -0.1463
 1365HK4     H614616   4.692   6.751   5.541  0.0818 -1.3881  0.0793
 1365HK4     C714617   5.118   6.586   5.252  0.0571 -0.0916  0.1195
 1365HK4     O214618   5.233   6.573   5.294  0.2427 -0.0589 -0.3880
 1365HK4     C414619   5.092   6.565   5.108 -0.7257 -0.0778  0.2522
 1365HK4     C314620   5.177   6.492   5.025 -0.5480  0.2027  0.1857
 1365HK4     H314621   5.237   6.412   5.072 -1.3569 -2.4736 -3.1279
 1365HK4     C214622   5.176   6.501   4.886  0.5099  0.5185  0.1958
 1365HK4     H214623   5.239   6.436   4.823 -0.6644  0.7559 -1.2324
 1365HK4     C114624   5.090   6.591   4.825  0.5438  0.0642 -0.5224
 1365HK4     H114625   5.090   6.606   4.716  1.4867  2.3982 -0.2261
 1365HK4     C614626   5.007   6.670   4.906 -0.1430 -0.6652 -0.5034
 1365HK4     C514627   4.994   6.641   5.042 -0.0374  0.3741 -0.2618
 1365HK4    C1014628   4.873   6.672   5.124 -0.0878  0.7234 -0.4701
 1365HK4     O114629   4.765   6.663   5.068 -0.2452 -0.2643 -0.0123
 1365HK4    C1614630   4.937   6.780   4.836  0.3392  0.2699  0.4704
 1365HK4    C1514631   4.923   6.787   4.696  0.4992  0.3643  0.4590
 1365HK4     H714632   4.910   6.698   4.632  2.6825 -0.2769  0.8611
 1365HK4    C2014633   4.879   6.900   4.629 -0.1434  0.0096  0.2788
 1365HK4     H914634   4.855   6.904   4.523  2.7409  1.6173 -0.3519
 1365HK4    C1914635   4.849   7.009   4.711  0.3017  0.2715  0.0905
 1365HK4    C1814636   4.855   7.005   4.855 -0.0268  0.2191  0.1040
 1365HK4    C1714637   4.908   6.891   4.915 -0.1246  0.2730  0.2956
 1365HK4     H814638   4.929   6.891   5.021 -0.6901  1.0939  0.4075
 1365HK4     N114639   4.794   7.120   4.909 -0.3977  0.0541  0.0412
 1365HK4    C2114640   4.764   7.200   4.797  0.4420  0.3031 -0.0133
 1365HK4    C2214641   4.803   7.141   4.670 -0.0696  0.0941 -0.0759
 1365HK4    C2614642   4.791   7.210   4.550 -0.4076  0.0202 -0.0834
 1365HK4    H1314643   4.837   7.173   4.459 -0.4701  2.2516 -1.0421
 1365HK4    C2514644   4.732   7.336   4.547 -1.3612 -0.4211 -0.1451
 1365HK4    H1214645   4.726   7.388   4.452 -0.4062  0.2188  0.1335
 1365HK4    C2414646   4.701   7.396   4.669  0.1297  0.6378 -0.2758
 1365HK4    H1114647   4.664   7.499   4.670 -0.4356  0.4384  0.3597
 1365HK4    C2314648   4.724   7.333   4.791  0.1363  0.1920 -0.5047
 1365HK4    H1014649   4.683   7.388   4.876  0.6145 -0.2813  0.0358
 1365HK4    C3914650   4.725   7.122   5.031 -0.2123  0.0341  0.1463
 1365HK4    C4114651   4.715   7.240   5.106 -0.2196  0.1078  0.0297
 1365HK4    H2114652   4.799   7.311   5.104  0.4254 -0.6161  0.7507
 1365HK4    C4214653   4.626   7.255   5.212  0.0443  0.3073  0.2266
 1365HK4    H2214654   4.622   7.349   5.269 -1.6661  0.0403  0.5874
 1365HK4    C4314655   4.547   7.146   5.247 -0.1543  0.3554 -0.0662
 1365HK4    H2314656   4.453   7.163   5.300 -0.5342  0.3695 -0.7447
 1365HK4    C4414657   4.555   7.029   5.174  0.1303  0.2078  0.1984
 1365HK4    H2414658   4.487   6.947   5.202 -0.2884 -0.4727 -2.6237
 1365HK4    C4514659   4.643   7.013   5.067 -0.0250 -0.1193  0.1147
 1365HK4    H2514660   4.638   6.929   4.997 -0.6211  0.8692 -1.0526
 1366HK4    H2814661  10.190   0.561   1.010 -0.2483  1.9242 -0.1642
 1366HK4    C4814662  10.219   0.574   1.114 -0.5243  0.5475  0.0957
 1366HK4    C4714663  10.334   0.646   1.143  0.3608 -0.7406 -0.1820
 1366HK4    H2714664  10.394   0.702   1.069 -1.2796  1.1743 -0.1075
 1366HK4    C4614665  10.363   0.664   1.278 -0.0340 -0.0591 -0.1864
 1366HK4    H2614666  10.462   0.699   1.311  0.1102 -0.4697 -0.1832
 1366HK4    C4014667  10.275   0.619   1.378  0.1618  0.2736  0.1391
 1366HK4    C5014668  10.158   0.547   1.344 -0.1403  0.6166  0.4416
 1366HK4    H3014669  10.100   0.484   1.414  0.3498 -1.3219 -0.8520
 1366HK4    C4914670  10.131   0.525   1.210  0.4197 -0.3916  0.4880
 1366HK4    H2914671  10.054   0.458   1.170 -1.2666  1.1413  1.1331
 1366HK4     N214672  10.307   0.638   1.513  0.6372  0.2345  0.0337
 1366HK4    C3014673  10.437   0.645   1.566  0.5098 -0.9975  0.5245
 1366HK4    C2914674  10.562   0.601   1.525  0.5489 -0.0933 -0.3478
 1366HK4    H1514675  10.573   0.547   1.431  0.4511 -1.1377  0.2323
 1366HK4    C2814676  10.674   0.593   1.608 -0.1906  0.0187  0.6633
 1366HK4    C2714677  10.655   0.628   1.743  0.5909  0.2434  0.7119
 1366HK4    H1414678  10.716   0.584   1.823  1.4386 -1.0090 -0.6062
 1366HK4    C3214679  10.539   0.690   1.787  0.0107 -0.5382  0.3028
 1366HK4    H1614680  10.524   0.728   1.888  0.3734  1.0550 -0.2178
 1366HK4    C3114681  10.432   0.703   1.699  0.5471  0.6423 -0.1834
 1366HK4    C3414682  10.294   0.736   1.725  0.4544  0.3010 -0.2585
 1366HK4    C3314683  10.218   0.680   1.614  0.4116 -0.1320 -0.0117
 1366HK4    C3514684  10.080   0.668   1.619  0.4210 -0.2000  0.0889
 1366HK4    H1714685  10.015   0.622   1.544 -0.9002  0.9046  0.5253
 1366HK4    C3614686  10.024   0.713   1.738  0.2775  0.3675 -0.1921
 1366HK4    H1814687   9.917   0.693   1.754  0.4696 -1.1202 -0.7158
 1366HK4    C3714688  10.089   0.761   1.851  0.2862 -0.1657  0.0295
 1366HK4    H1914689  10.036   0.805   1.935 -0.3250  0.9336 -0.9117
 1366HK4    C3814690  10.226   0.779   1.838  0.2466 -0.0504 -0.2464
 1366HK4    H2014691  10.276   0.839   1.915 -1.3005  1.1291 -0.1279
 1366HK4    C1414692  10.797   0.530   1.560 -0.3776 -0.1241  0.3550
 1366HK4     C914693  10.890   0.465   1.642 -0.0574 -0.3877 -0.2123
 1366HK4     C814694  11.026   0.456   1.607 -0.0638 -0.4137 -0.2388
 1366HK4    C1114695  11.066   0.513   1.487 -0.4323 -0.7168 -0.5071
 1366HK4     H414696  11.171   0.539   1.466 -0.0072 -3.0258 -1.3072
 1366HK4    C1214697  10.975   0.568   1.397 -0.3243 -0.1133 -0.2507
 1366HK4     H514698  11.013   0.591   1.296  3.0224 -0.5105  0.8631
 1366HK4    C1314699  10.842   0.578   1.435 -0.1880 -0.4064  0.3151
 1366HK4     H614700  10.770   0.579   1.352  0.9576  5.8158 -0.8070
 1366HK4     C714701  11.112   0.356   1.675 -0.1237 -0.9230 -0.9109
 1366HK4     O214702  11.228   0.342   1.635  0.2017  0.1091 -0.3301
 1366HK4     C414703  11.060   0.290   1.796 -0.0144  0.1652 -0.2618
 1366HK4     C314704  11.146   0.211   1.871 -0.8277 -0.2632  0.2269
 1366HK4     H314705  11.248   0.193   1.834 -1.6830 -2.3667 -1.1996
 1366HK4     C214706  11.106   0.144   1.987  0.4040  0.0773  0.8551
 1366HK4     H214707  11.165   0.063   2.034  0.1765 -1.5664 -1.5816
 1366HK4     C114708  10.977   0.166   2.032  0.0690 -0.1739  0.0303
 1366HK4     H114709  10.958   0.147   2.138  0.3386 -0.8340 -0.0397
 1366HK4     C614710  10.884   0.244   1.960  0.1856  0.0752  0.1484
 1366HK4     C514711  10.927   0.305   1.841  0.0547 -0.0761  0.0227
 1366HK4    C1014712  10.834   0.376   1.749  0.0083 -0.3119 -0.1157
 1366HK4     O114713  10.730   0.316   1.722 -0.3357  0.2282 -0.0025
 1366HK4    C1614714  10.758   0.267   2.033  0.0811 -0.2785  0.0813
 1366HK4    C1514715  10.688   0.389   2.028  0.3004 -0.1469  0.2501
 1366HK4     H714716  10.730   0.481   1.986  0.3453 -0.0486  0.5162
 1366HK4    C2014717  10.556   0.403   2.069 -0.0414 -0.3197 -0.7619
 1366HK4     H914718  10.507   0.500   2.083 -1.4867 -0.8953 -1.6846
 1366HK4    C1914719  10.493   0.286   2.108 -0.0483 -0.2190 -0.4701
 1366HK4    C1814720  10.557   0.156   2.111  0.1804 -0.1029 -0.3716
 1366HK4    C1714721  10.693   0.154   2.080  0.3224 -0.3480  0.2481
 1366HK4     H814722  10.752   0.071   2.119  0.4214 -1.8546 -2.9386
 1366HK4     N114723  10.484   0.055   2.177 -0.0188 -0.0522 -0.5140
 1366HK4    C2114724  10.360   0.114   2.208  0.2014 -0.0663  0.4211
 1366HK4    C2214725  10.367   0.255   2.173  0.1365 -0.1897 -0.0892
 1366HK4    C2614726  10.256   0.332   2.205 -0.1618 -0.2328 -1.0013
 1366HK4    H1314727  10.250   0.438   2.180 -2.3314 -0.4471 -1.5528
 1366HK4    C2514728  10.139   0.273   2.252  0.6011 -0.0958  1.1341
 1366HK4    H1214729  10.054   0.341   2.266  0.2546  0.2261 -2.1508
 1366HK4    C2414730  10.129   0.138   2.281 -0.4378 -0.2267  0.2303
 1366HK4    H1114731  10.051   0.107   2.352 -1.2530  3.7700  1.2108
 1366HK4    C2314732  10.241   0.060   2.256 -0.1871  0.2582 -0.1586
 1366HK4    H1014733  10.238  11.200   2.271 -2.8569  0.4772  1.1726
 1366HK4    C3914734  10.510  11.166   2.177 -0.2127 -0.0893 -0.2915
 1366HK4    C4114735  10.440  11.073   2.258 -0.2851  0.1971 -0.0268
 1366HK4    H2114736  10.406  11.108   2.357 -1.7140  0.4240 -0.5783
 1366HK4    C4214737  10.441  10.936   2.235 -0.2594  0.3494 -0.9625
 1366HK4    H2214738  10.377  10.871   2.296 -0.5119 -0.0501 -1.6541
 1366HK4    C4314739  10.526  10.888   2.136  0.2933  0.1615 -0.4009
 1366HK4    H2314740  10.539  10.780   2.125 -1.6518 -0.2803  1.3393
 1366HK4    C4414741  10.600  10.975   2.056  1.0517  0.3497  0.4983
 1366HK4    H2414742  10.653  10.937   1.967 -0.9935 -3.6670  0.8576
 1366HK4    C4514743  10.588  11.112   2.073 -0.1640  0.3816 -0.5003
 1366HK4    H2514744  10.611  11.174   1.986 -2.3585 -0.6145 -1.8304
 1367HK4    H2814745   4.785   3.820   4.851 -2.0452  1.6818  0.3883
 1367HK4    C4814746   4.823   3.912   4.805  0.7664  0.2041 -0.3469
 1367HK4    C4714747   4.793   3.945   4.674 -0.4959 -0.1777 -0.1577
 1367HK4    H2714748   4.746   3.875   4.603  0.5054 -0.0870 -0.9225
 1367HK4    C4614749   4.853   4.059   4.621  0.2820 -0.2873  0.4858
 1367HK4    H2614750   4.817   4.091   4.522 -0.2490 -0.1162  0.7300
 1367HK4    C4014751   4.951   4.136   4.686  0.2035 -0.1049  0.3874
 1367HK4    C5014752   4.984   4.097   4.818  0.8950 -0.6760  0.0480
 1367HK4    H3014753   5.051   4.156   4.882 -2.5567  2.1422  1.2287
 1367HK4    C4914754   4.919   3.987   4.872  0.5567 -0.2619  0.4866
 1367HK4    H2914755   4.966   3.942   4.961  2.0241  0.6578  0.1900
 1367HK4     N214756   5.010   4.246   4.622 -0.2823 -0.2367 -0.2789
 1367HK4    C3014757   5.030   4.246   4.482 -0.0493 -0.2590 -0.2457
 1367HK4    C2914758   5.081   4.149   4.396 -0.8353 -0.4964 -0.4415
 1367HK4    H1514759   5.157   4.082   4.436 -1.5912 -0.3979  1.2306
 1367HK4    C2814760   5.075   4.173   4.260  0.1388  0.1256 -0.3789
 1367HK4    C2714761   5.031   4.298   4.209  0.6085  0.3918 -0.1304
 1367HK4    H1414762   5.024   4.314   4.101  4.4385  1.7779 -0.2754
 1367HK4    C3214763   4.993   4.400   4.294  0.4840  0.2102  0.0328
 1367HK4    H1614764   4.991   4.502   4.256 -1.2779  0.5446  0.9388
 1367HK4    C3114765   4.999   4.378   4.432  0.0977 -0.1311 -0.0028
 1367HK4    C3414766   4.977   4.465   4.545 -0.2203 -0.2656  0.0369
 1367HK4    C3314767   4.994   4.380   4.661 -0.0973 -0.2947 -0.0021
 1367HK4    C3514768   4.977   4.437   4.787  0.0738 -0.1029 -0.0659
 1367HK4    H1714769   4.987   4.379   4.879  0.5154  0.3533  0.1704
 1367HK4    C3614770   4.962   4.574   4.807  0.6568  0.0913 -0.9572
 1367HK4    H1814771   4.929   4.613   4.904 -1.9309  2.0373 -2.5664
 1367HK4    C3714772   4.960   4.657   4.696  0.3607  0.3202 -0.7781
 1367HK4    H1914773   4.960   4.765   4.711 -0.1049  0.2260 -0.0864
 1367HK4    C3814774   4.962   4.602   4.568 -0.3923 -0.1796 -0.5757
 1367HK4    H2014775   4.985   4.666   4.483  3.1072 -2.3889 -1.3794
 1367HK4    C1414776   5.111   4.063   4.170  0.0474 -0.1128 -0.1258
 1367HK4     C914777   5.153   4.083   4.038 -0.3111  0.2995 -0.1786
 1367HK4     C814778   5.122   3.981   3.946  0.3352 -0.1279  0.0740
 1367HK4    C1114779   5.070   3.861   3.992  0.0731  0.0400  0.2112
 1367HK4     H414780   5.054   3.777   3.922 -0.5461  0.1732  0.1890
 1367HK4    C1214781   5.034   3.835   4.124  0.0261 -0.3162  0.1289
 1367HK4     H514782   4.968   3.750   4.147  0.4422 -0.8380 -0.5842
 1367HK4    C1314783   5.056   3.940   4.212  0.2983 -0.2062 -0.0709
 1367HK4     H614784   5.046   3.913   4.318 -2.9695  0.6104 -0.1126
 1367HK4     C714785   5.138   4.013   3.802  0.1863 -0.4255 -0.0093
 1367HK4     O214786   5.131   3.932   3.710  0.2174 -0.3102 -0.1131
 1367HK4     C414787   5.159   4.155   3.765 -1.0265 -0.1773  0.2417
 1367HK4     C314788   5.134   4.192   3.634 -0.4418 -0.2025  0.1205
 1367HK4     H314789   5.107   4.115   3.560  1.2431 -0.2034 -0.4996
 1367HK4     C214790   5.144   4.326   3.597 -0.3758 -0.1233  0.4248
 1367HK4     H214791   5.150   4.355   3.492  1.3206  0.4083  0.6523
 1367HK4     C114792   5.163   4.425   3.693 -0.5673  0.1170  0.2146
 1367HK4     H114793   5.129   4.527   3.671  2.2233  1.3555  1.4232
 1367HK4     C614794   5.205   4.389   3.823  0.3703 -0.3432 -0.2125
 1367HK4     C514795   5.207   4.253   3.855  0.1277 -0.3417 -0.1879
 1367HK4    C1014796   5.224   4.207   3.995 -0.6474  0.6314  0.2272
 1367HK4     O114797   5.322   4.245   4.059  0.2755 -0.3106 -0.6184
 1367HK4    C1614798   5.285   4.494   3.888  0.4880 -0.5726  0.0133
 1367HK4    C1514799   5.361   4.581   3.807 -0.5387  0.0603 -0.2768
 1367HK4     H714800   5.397   4.539   3.712 -3.4247 -3.0849 -0.0717
 1367HK4    C2014801   5.417   4.700   3.855  0.4590 -0.4748 -0.1071
 1367HK4     H914802   5.494   4.750   3.797 -0.3893  1.9708  0.8419
 1367HK4    C1914803   5.396   4.739   3.987 -0.0637  0.3397 -0.4288
 1367HK4    C1814804   5.326   4.649   4.077 -0.0534  0.4515 -0.3065
 1367HK4    C1714805   5.268   4.536   4.019  0.3979  0.1832 -0.2384
 1367HK4     H814806   5.199   4.480   4.082 -0.5276  2.2955  0.7021
 1367HK4     N114807   5.346   4.693   4.209 -1.0112  0.3782 -0.1393
 1367HK4    C2114808   5.422   4.811   4.209 -0.6174  0.1244 -0.4755
 1367HK4    C2214809   5.448   4.846   4.070 -0.0442  0.2579 -0.3358
 1367HK4    C2614810   5.514   4.964   4.040  0.7928 -0.2324 -0.4249
 1367HK4    H1314811   5.509   4.992   3.934 -2.2452  1.7624  0.2185
 1367HK4    C2514812   5.542   5.051   4.144 -0.2713 -0.2304 -0.1396
 1367HK4    H1214813   5.594   5.142   4.113 -0.6943  0.8213  2.1750
 1367HK4    C2414814   5.518   5.020   4.277  0.3634  0.1779  0.0731
 1367HK4    H1114815   5.556   5.091   4.352 -3.2183 -0.0156  2.2130
 1367HK4    C2314816   5.457   4.900   4.310  0.6156 -0.1509 -0.6501
 1367HK4    H1014817   5.460   4.867   4.414 -0.3872 -2.0615 -1.1888
 1367HK4    C3914818   5.354   4.612   4.323 -0.9223  0.3516 -0.1641
 1367HK4    C4114819   5.388   4.475   4.317 -1.0155  0.3246 -0.0682
 1367HK4    H2114820   5.415   4.432   4.220  0.4861  0.8469  0.1009
 1367HK4    C4214821   5.387   4.399   4.433  0.2275 -0.0752 -0.3144
 1367HK4    H2214822   5.392   4.289   4.433 -3.1556 -0.2758  0.1435
 1367HK4    C4314823   5.350   4.457   4.554 -1.3227 -0.0383 -0.7993
 1367HK4    H2314824   5.346   4.389   4.638  1.2873  1.0618  0.2680
 1367HK4    C4414825   5.314   4.591   4.565 -0.3832  0.1217  0.3840
 1367HK4    H2414826   5.259   4.620   4.656 -1.8720 -0.6381 -0.2522
 1367HK4    C4514827   5.315   4.665   4.448  0.2626  0.0520  0.3441
 1367HK4    H2514828   5.257   4.758   4.444  0.8398  0.3818 -0.7135
 1368HK4    H2814829   4.737   8.975  10.762 -2.2631 -1.0363 -2.0051
 1368HK4    C4814830   4.802   8.897  10.724 -0.4231 -0.5645  0.0792
 1368HK4    C4714831   4.896   8.926  10.625  0.2853  0.1840  0.9627
 1368HK4    H2714832   4.887   9.019  10.567  0.8785 -0.7562 -0.6620
 1368HK4    C4614833   4.993   8.833  10.594 -0.3602 -0.0094 -0.5017
 1368HK4    H2614834   5.063   8.866  10.515 -0.8163 -0.5647 -1.1474
 1368HK4    C4014835   5.005   8.707  10.656 -0.3103  0.0812 -0.3295
 1368HK4    C5014836   4.907   8.683  10.754 -0.1130 -0.1057 -0.1757
 1368HK4    H3014837   4.908   8.591  10.815 -1.8467 -1.6145 -2.3310
 1368HK4    C4914838   4.810   8.775  10.790  0.1021 -0.2102  0.6680
 1368HK4    H2914839   4.741   8.741  10.869  0.3749 -0.4750  0.7924
 1368HK4     N214840   5.084   8.603  10.604  0.0166  0.2143 -0.1045
 1368HK4    C3014841   5.125   8.591  10.470 -0.3201 -0.2952 -0.1667
 1368HK4    C2914842   5.067   8.648  10.358 -0.0700  0.4721  0.0894
 1368HK4    H1514843   4.966   8.688  10.362 -0.8338 -1.7168  4.4669
 1368HK4    C2814844   5.133   8.637  10.236  0.0498 -0.2112  0.2145
 1368HK4    C2714845   5.260   8.577  10.232  0.6430  1.0445 -0.2166
 1368HK4    H1414846   5.321   8.570  10.140  1.8162 -1.1597  0.6878
 1368HK4    C3214847   5.318   8.513  10.341 -0.4953 -0.3501 -0.4103
 1368HK4    H1614848   5.416   8.469  10.321 -0.7522  0.2860 -3.2833
 1368HK4    C3114849   5.253   8.522  10.463  0.1389  0.5467 -0.1322
 1368HK4    C3414850   5.292   8.484  10.598 -0.2720 -0.2340 -0.2279
 1368HK4    C3314851   5.187   8.542  10.679 -0.3437 -0.4657 -0.1594
 1368HK4    C3514852   5.175   8.502  10.811  0.4242  0.1796  0.1118
 1368HK4    H1714853   5.117   8.560  10.882  1.0951 -0.2054  0.9870
 1368HK4    C3614854   5.252   8.398  10.862 -0.2439 -0.2826  0.1868
 1368HK4    H1814855   5.258   8.382  10.971 -0.0938  0.8031  0.3483
 1368HK4    C3714856   5.348   8.340  10.781  0.0338  0.0208  0.2982
 1368HK4    H1914857   5.423   8.279  10.832  0.6902  1.1311  0.6663
 1368HK4    C3814858   5.368   8.380  10.649 -0.2191  0.0493  0.2669
 1368HK4    H2014859   5.428   8.317  10.584  0.4638  2.4090 -1.4374
 1368HK4    C1414860   5.057   8.650  10.111 -0.2129 -0.2514  0.3703
 1368HK4     C914861   5.083   8.592   9.986  0.2547  0.3094  0.2054
 1368HK4     C814862   5.043   8.653   9.865 -1.0803 -0.4937  0.2302
 1368HK4    C1114863   4.958   8.762   9.873 -0.4982 -0.0269  0.0426
 1368HK4     H414864   4.957   8.819   9.779  0.1271  2.4900  1.5091
 1368HK4    C1214865   4.905   8.806   9.994  0.3815 -0.3193  0.5342
 1368HK4     H514866   4.820   8.875   9.989  0.2895 -0.4289  0.5931
 1368HK4    C1314867   4.952   8.743  10.109 -0.0605 -0.0718  0.8480
 1368HK4     H614868   4.918   8.791  10.203  1.3134  1.8683  0.3888
 1368HK4     C714869   5.088   8.610   9.731 -0.3433  0.1168  0.2791
 1368HK4     O214870   5.103   8.696   9.645  0.3146 -0.5350 -0.2725
 1368HK4     C414871   5.148   8.474   9.724 -0.3700  0.1351 -0.2745
 1368HK4     C314872   5.180   8.425   9.598  0.5526  0.4628 -0.1747
 1368HK4     H314873   5.147   8.469   9.502 -3.4733  1.4141  1.5233
 1368HK4     C214874   5.266   8.317   9.586  0.4176  0.2647  0.6313
 1368HK4     H214875   5.262   8.255   9.496  1.0469 -0.4179  1.0643
 1368HK4     C114876   5.336   8.271   9.697 -0.0962 -0.9172  0.4692
 1368HK4     H114877   5.396   8.179   9.690  3.2154  0.9919  2.1665
 1368HK4     C614878   5.309   8.322   9.826  0.4641  0.9149 -0.1208
 1368HK4     C514879   5.208   8.419   9.838 -0.2803  0.1713 -0.3069
 1368HK4    C1014880   5.152   8.461   9.970  0.1854  0.3145 -0.1502
 1368HK4     O114881   5.114   8.370  10.044  0.0641  0.5109  0.0241
 1368HK4    C1614882   5.419   8.315   9.923  0.3609  0.4969 -0.0338
 1368HK4    C1514883   5.553   8.343   9.890  0.3993  0.9164  0.4853
 1368HK4     H714884   5.581   8.371   9.788 -0.2600  1.8243  0.5550
 1368HK4    C2014885   5.657   8.333   9.982  0.4513  0.0061  0.3293
 1368HK4     H914886   5.758   8.353   9.947 -0.4422 -2.2072 -3.8163
 1368HK4    C1914887   5.632   8.280  10.108  0.0969 -0.5407  0.0331
 1368HK4    C1814888   5.496   8.238  10.139 -0.1613 -0.2494 -0.6955
 1368HK4    C1714889   5.394   8.259  10.047 -0.3933  0.1329 -0.3453
 1368HK4     H814890   5.300   8.205  10.055 -0.5034  0.4065  0.3128
 1368HK4     N114891   5.500   8.150  10.248  0.0895 -0.3683 -0.7978
 1368HK4    C2114892   5.635   8.134  10.285 -0.1032  0.1200  0.1360
 1368HK4    C2214893   5.722   8.216  10.202  0.0726  0.7687  0.9575
 1368HK4    C2614894   5.860   8.224  10.211  0.1199  0.5799  0.4017
 1368HK4    H1314895   5.922   8.281  10.141  0.0208  1.4848  1.0466
 1368HK4    C2514896   5.924   8.151  10.311 -0.0529 -0.5111 -0.2712
 1368HK4    H1214897   6.032   8.141  10.322 -0.1962 -1.3036  0.4110
 1368HK4    C2414898   5.843   8.082  10.400 -0.3709  0.4874  0.2265
 1368HK4    H1114899   5.886   8.041  10.493 -3.7556  0.8819  2.0416
 1368HK4    C2314900   5.705   8.072  10.388 -0.2834 -0.5052 -0.1132
 1368HK4    H1014901   5.643   8.026  10.465  1.0218 -2.9003 -0.4510
 1368HK4    C3914902   5.389   8.123  10.330  0.1036 -0.0651 -0.6793
 1368HK4    C4114903   5.398   8.019  10.425  0.6414  0.4869 -0.1230
 1368HK4    H2114904   5.465   7.935  10.403 -2.9755 -3.0548  1.7495
 1368HK4    C4214905   5.313   8.006  10.534  0.0464  0.2350 -0.6144
 1368HK4    H2214906   5.324   7.918  10.600 -0.5075  0.8064  0.2580
 1368HK4    C4314907   5.214   8.100  10.561 -0.2980 -0.3543  0.2047
 1368HK4    H2314908   5.175   8.121  10.660 -1.7992 -1.4406 -0.1360
 1368HK4    C4414909   5.194   8.196  10.463 -0.7784 -0.8513 -0.1786
 1368HK4    H2414910   5.109   8.264  10.477 -0.4353 -0.6827  1.1703
 1368HK4    C4514911   5.281   8.209  10.355  0.0395 -0.4879  0.5080
 1368HK4    H2514912   5.259   8.273  10.268  0.6923 -0.1744  0.5751
 1369HK4    H2814913   2.004  10.477   4.217 -1.6445  1.0470 -0.2704
 1369HK4    C4814914   2.021  10.480   4.109  0.3687  0.1747  0.0116
 1369HK4    C4714915   2.051  10.600   4.046  0.5469  0.3956  0.5044
 1369HK4    H2714916   2.010  10.693   4.087  0.8528  0.5621  0.4275
 1369HK4    C4614917   2.121  10.602   3.926 -0.0621 -0.5235  0.1299
 1369HK4    H2614918   2.147  10.692   3.867 -1.0524 -1.8060 -2.3611
 1369HK4    C4014919   2.162  10.480   3.869  0.2108 -0.1405 -0.4967
 1369HK4    C5014920   2.120  10.358   3.926  0.2017  0.1913  0.2037
 1369HK4    H3014921   2.154  10.261   3.886 -1.3922 -0.7125  1.0175
 1369HK4    C4914922   2.044  10.360   4.042  0.2876  0.0192  0.2627
 1369HK4    H2914923   1.966  10.282   4.050 -0.5059  0.7512 -0.2790
 1369HK4     N214924   2.254  10.485   3.763 -0.1433 -0.4355 -0.8171
 1369HK4    C3014925   2.257  10.574   3.654 -0.3547 -0.4897 -0.8696
 1369HK4    C2914926   2.166  10.661   3.595 -0.5521 -0.0346  0.1049
 1369HK4    H1514927   2.066  10.670   3.637 -0.4610  2.0943 -0.0810
 1369HK4    C2814928   2.180  10.734   3.478  0.1209 -0.0190  0.1949
 1369HK4    C2714929   2.304  10.709   3.415  0.0167  0.4730 -0.2099
 1369HK4    H1414930   2.330  10.778   3.334  0.6567  0.1363 -0.2937
 1369HK4    C3214931   2.399  10.616   3.455 -0.2868 -0.0379 -0.6682
 1369HK4    H1614932   2.474  10.592   3.380  1.4469  1.2974  0.5825
 1369HK4    C3114933   2.378  10.552   3.576 -0.0024  0.1620 -0.5106
 1369HK4    C3414934   2.439  10.437   3.639 -0.1042  0.6452  0.4776
 1369HK4    C3314935   2.364  10.398   3.757 -0.1176 -0.4655  0.1018
 1369HK4    C3514936   2.434  10.335   3.860  0.1904 -0.2280  0.0399
 1369HK4    H1714937   2.387  10.307   3.954  0.2660 -0.1187  0.1092
 1369HK4    C3614938   2.561  10.285   3.836 -0.0299 -0.4213 -0.7490
 1369HK4    H1814939   2.617  10.247   3.923 -1.5468 -0.5410  0.1979
 1369HK4    C3714940   2.634  10.313   3.721  0.1776  0.2090 -0.4690
 1369HK4    H1914941   2.736  10.280   3.705  1.2742  2.6994  1.1460
 1369HK4    C3814942   2.571  10.393   3.626 -0.2413  0.3848 -0.0431
 1369HK4    H2014943   2.619  10.420   3.532  1.5760  0.5452  0.9104
 1369HK4    C1414944   2.066  10.804   3.417  0.1949  0.1054  0.1952
 1369HK4     C914945   2.040  10.823   3.280  0.1729 -0.4289  0.1246
 1369HK4     C814946   1.959  10.931   3.241  0.2173 -0.2163  0.6175
 1369HK4    C1114947   1.899  11.015   3.334 -0.6318 -0.0606 -0.0611
 1369HK4     H414948   1.827  11.088   3.294  1.7629  2.3475 -0.1674
 1369HK4    C1214949   1.921  10.994   3.470 -0.2612 -0.0442 -0.1184
 1369HK4     H514950   1.882  11.060   3.549  2.1983  1.3967 -0.0457
 1369HK4    C1314951   2.007  10.892   3.509 -0.1012  0.1298 -0.0158
 1369HK4     H614952   2.010  10.881   3.619  1.3741 -3.3986 -0.3464
 1369HK4     C714953   1.954  10.982   3.102  0.3278 -0.1827  0.6263
 1369HK4     O214954   1.848  11.031   3.064  0.4288 -0.2149  0.3047
 1369HK4     C414955   2.053  10.929   3.007 -0.0735  0.1591  0.0158
 1369HK4     C314956   2.079  10.999   2.890 -0.4255 -0.2292 -0.2995
 1369HK4     H314957   2.047  11.103   2.874  0.3796 -0.0358 -0.6767
 1369HK4     C214958   2.158  10.944   2.789  0.3302  0.1495  0.0755
 1369HK4     H214959   2.212  11.009   2.719  1.2619 -0.0403  0.6082
 1369HK4     C114960   2.192  10.810   2.807 -0.0602  0.0548  0.1076
 1369HK4     H114961   2.259  10.766   2.733 -0.8052  1.9518 -1.7469
 1369HK4     C614962   2.146  10.731   2.915  0.2992 -0.1048  0.1468
 1369HK4     C514963   2.087  10.793   3.026 -0.3837  0.0363 -0.2887
 1369HK4    C1014964   2.091  10.743   3.166 -0.4563 -0.1491 -0.3543
 1369HK4     O114965   2.110  10.623   3.186  0.1267  0.0686  0.4269
 1369HK4    C1614966   2.153  10.585   2.897  0.2939 -0.1509  0.5405
 1369HK4    C1514967   2.257  10.537   2.814 -0.1228  0.3564 -0.2856
 1369HK4     H714968   2.361  10.554   2.844  0.0069  0.5617 -0.8500
 1369HK4    C2014969   2.238  10.471   2.693 -0.0130  0.4174 -0.3363
 1369HK4     H914970   2.324  10.450   2.629 -0.2373 -0.5512 -0.3270
 1369HK4    C1914971   2.108  10.426   2.674  0.0240  0.0996  0.1343
 1369HK4    C1814972   2.013  10.428   2.783 -0.0119 -0.2932  0.1120
 1369HK4    C1714973   2.031  10.520   2.885  0.1608  0.2650 -0.4172
 1369HK4     H814974   1.937  10.543   2.936 -0.8605 -0.1556 -2.0947
 1369HK4     N114975   1.892  10.363   2.751 -0.1451  0.1303 -0.2627
 1369HK4    C2114976   1.913  10.319   2.619  0.0556 -0.0504 -0.1712
 1369HK4    C2214977   2.045  10.351   2.567  0.0099  0.3545 -0.0379
 1369HK4    C2614978   2.072  10.323   2.434 -0.0941  0.2041 -0.0273
 1369HK4    H1314979   2.165  10.361   2.390  0.9748 -1.2087  0.9744
 1369HK4    C2514980   1.978  10.265   2.350  0.3824 -0.3279 -0.2005
 1369HK4    H1214981   1.999  10.251   2.244  1.9911  1.6117 -0.1388
 1369HK4    C2414982   1.854  10.229   2.402  0.5799 -0.5808  0.1017
 1369HK4    H1114983   1.795  10.159   2.342  1.3382  0.6265 -2.1050
 1369HK4    C2314984   1.818  10.271   2.530  0.1102 -0.1961 -0.1504
 1369HK4    H1014985   1.719  10.261   2.574  0.8276 -2.2625  1.1014
 1369HK4    C3914986   1.790  10.313   2.832  0.2510  0.2847  0.3328
 1369HK4    C4114987   1.653  10.311   2.797  0.1003  0.7332  0.8718
 1369HK4    H2114988   1.616  10.375   2.716 -0.1017 -0.9740 -0.4096
 1369HK4    C4214989   1.551  10.261   2.878 -0.1241 -0.0672  0.1013
 1369HK4    H2214990   1.447  10.263   2.842 -1.0182  0.9520  2.6430
 1369HK4    C4314991   1.590  10.213   3.002 -0.5687  0.2205  0.3515
 1369HK4    H2314992   1.507  10.193   3.070  0.2813  1.7094  1.8578
 1369HK4    C4414993   1.721  10.217   3.048 -0.3651 -0.4179 -0.1519
 1369HK4    H2414994   1.763  10.177   3.142  2.0350 -1.5924 -1.7008
 1369HK4    C4514995   1.817  10.271   2.964  0.0007 -0.7232  0.0694
 1369HK4    H2514996   1.914  10.288   3.014  0.4683 -0.7944 -0.8136
 1370HK4    H2814997   2.506   0.555   0.968  1.3384 -2.9612 -0.4133
 1370HK4    C4814998   2.536   0.594   0.871 -0.4854  0.0339  0.1718
 1370HK4    C4714999   2.447   0.586   0.765  0.1369 -0.4422 -0.3187
 1370HK4    H2715000   2.364   0.513   0.758  0.1411 -0.8129  2.8581
 1370HK4    C4615001   2.455   0.682   0.664 -0.7045  0.3280  0.3378
 1370HK4    H2615002   2.370   0.686   0.595 -0.7160  1.4005  0.3985
 1370HK4    C4015003   2.554   0.782   0.655 -0.0168 -0.3436  0.3575
 1370HK4    C5015004   2.644   0.787   0.764  0.3647 -0.1345  0.0352
 1370HK4    H3015005   2.709   0.875   0.777  0.7566 -0.6101  1.3337
 1370HK4    C4915006   2.630   0.696   0.869 -0.4402 -0.0107  0.0410
 1370HK4    H2915007   2.702   0.701   0.952 -0.4715 -0.8649  0.1199
 1370HK4     N215008   2.569   0.848   0.533 -0.0774 -0.4681  0.2829
 1370HK4    C3015009   2.549   0.793   0.405  0.1527  0.0860  0.0052
 1370HK4    C2915010   2.583   0.668   0.354  0.5117  0.4138 -0.5656
 1370HK4    H1515011   2.633   0.602   0.425 -1.0846  1.4850  1.5957
 1370HK4    C2815012   2.554   0.622   0.226  0.0045  0.2078 -0.3752
 1370HK4    C2715013   2.486   0.717   0.147 -0.1922  0.1433 -0.2853
 1370HK4    H1415014   2.449   0.690   0.047 -0.6171 -0.6198  0.0706
 1370HK4    C3215015   2.472   0.852   0.177 -0.1932  0.0308  0.2211
 1370HK4    H1615016   2.447   0.929   0.104  0.1655 -0.0358  0.0252
 1370HK4    C3115017   2.502   0.890   0.308 -0.1715  0.1162  0.1910
 1370HK4    C3415018   2.512   1.016   0.379  0.5707  0.3229 -0.2684
 1370HK4    C3315019   2.548   0.987   0.517 -0.1370 -0.5387 -0.2591
 1370HK4    C3515020   2.553   1.090   0.610  0.5120 -0.2523 -0.6067
 1370HK4    H1715021   2.530   1.069   0.714  2.5047 -1.9880 -0.4684
 1370HK4    C3615022   2.536   1.221   0.567 -0.0741 -0.2273 -0.3013
 1370HK4    H1815023   2.542   1.303   0.640 -0.0010 -0.1227 -0.4256
 1370HK4    C3715024   2.513   1.247   0.432 -0.2869  0.2311 -0.1772
 1370HK4    H1915025   2.499   1.352   0.409  1.3887  0.5046 -0.0165
 1370HK4    C3815026   2.497   1.147   0.337  0.5682  0.2869 -0.3783
 1370HK4    H2015027   2.515   1.169   0.231  0.3697 -1.7944 -0.8700
 1370HK4    C1415028   2.621   0.508   0.161 -0.8982 -0.3509 -0.3517
 1370HK4     C915029   2.640   0.479   0.026  0.7274 -0.3915 -0.1220
 1370HK4     C815030   2.634   0.348  11.222  0.3578 -0.2711 -0.3795
 1370HK4    C1115031   2.620   0.240   0.061  0.3267  0.1832  0.1798
 1370HK4     H415032   2.630   0.136   0.027  2.4530  0.7592 -1.0293
 1370HK4    C1215033   2.611   0.266   0.197  0.2935 -0.1340  0.2379
 1370HK4     H515034   2.608   0.183   0.268  3.3730  1.0414  1.8454
 1370HK4    C1315035   2.610   0.396   0.246 -0.2482 -0.0835  0.0952
 1370HK4     H615036   2.588   0.400   0.353 -0.7236  1.4105 -0.0498
 1370HK4     C715037   2.619   0.320  11.077  0.3424 -0.3889 -0.3567
 1370HK4     O215038   2.571   0.214  11.038 -0.0056 -0.1771 -0.5072
 1370HK4     C415039   2.632   0.436  10.985  0.5214 -0.3234 -0.2469
 1370HK4     C315040   2.613   0.408  10.850 -0.7124 -0.0204 -0.1491
 1370HK4     H315041   2.654   0.319  10.799  2.6202  1.8942 -0.9644
 1370HK4     C215042   2.552   0.504  10.770 -0.2384  0.2971 -0.1313
 1370HK4     H215043   2.535   0.490  10.663 -0.1503  2.8584 -0.5001
 1370HK4     C115044   2.517   0.628  10.821 -0.1904  0.1718  0.2092
 1370HK4     H115045   2.440   0.689  10.771  0.4563  0.0266 -0.9833
 1370HK4     C615046   2.553   0.664  10.953  0.7691  0.0075 -0.0114
 1370HK4     C515047   2.616   0.568  11.032  0.0448 -0.4656 -0.0051
 1370HK4    C1015048   2.653   0.590  11.175  0.2725 -0.3087 -0.0851
 1370HK4     O115049   2.734   0.679  11.200 -0.3709  0.2451  0.0266
 1370HK4    C1615050   2.481   0.777  11.012  0.0051 -0.2072 -0.5186
 1370HK4    C1515051   2.343   0.799  10.994  0.1216  0.2289 -0.8937
 1370HK4     H715052   2.287   0.722  10.939 -0.8584 -1.0102  1.7497
 1370HK4    C2015053   2.283   0.922  11.015  0.2071  0.2601 -0.8339
 1370HK4     H915054   2.177   0.938  10.999 -0.6336 -0.8017  3.1541
 1370HK4    C1915055   2.359   1.028  11.064  0.1497  0.0257 -0.2228
 1370HK4    C1815056   2.503   1.013  11.078  0.1482 -0.0870 -0.3224
 1370HK4    C1715057   2.556   0.889  11.046 -0.1094 -0.2697 -0.0523
 1370HK4     H815058   2.665   0.889  11.050 -0.1761 -0.5537  2.0813
 1370HK4     N115059   2.566   1.139  11.084 -0.2176  0.0785  0.1578
 1370HK4    C2115060   2.463   1.235  11.074 -0.1326  0.1877  0.3209
 1370HK4    C2215061   2.333   1.171  11.069 -0.0220 -0.0137  0.0000
 1370HK4    C2615062   2.221   1.251  11.083 -0.1938 -0.2225 -0.1872
 1370HK4    H1315063   2.122   1.211  11.103 -1.1458  2.9263  1.7800
 1370HK4    C2515064   2.235   1.389  11.073  0.2846 -0.2104  0.6347
 1370HK4    H1215065   2.144   1.448  11.084 -0.4052 -1.1365  0.0335
 1370HK4    C2415066   2.359   1.452  11.068  0.0721  0.1771  0.2270
 1370HK4    H1115067   2.361   1.562  11.066 -0.0469  0.1623 -1.6317
 1370HK4    C2315068   2.474   1.374  11.075  0.1028  0.1788 -0.2036
 1370HK4    H1015069   2.568   1.426  11.089 -0.6380  1.1811  1.2127
 1370HK4    C3915070   2.694   1.153  11.138 -0.2896  0.2835  0.2724
 1370HK4    C4115071   2.767   1.270  11.107 -0.2392  0.1395 -0.1523
 1370HK4    H2115072   2.775   1.308  11.004  3.6069 -2.1816 -0.8356
 1370HK4    C4215073   2.843   1.334  11.205 -0.4793  0.0736  0.0770
 1370HK4    H2215074   2.879   1.436  11.187  0.4698 -0.1052  0.9067
 1370HK4    C4315075   2.852   1.283   0.086  0.2052  0.0434  0.0173
 1370HK4    H2315076   2.890   1.347   0.167 -3.4322 -0.0129  1.8893
 1370HK4    C4415077   2.788   1.163   0.114 -0.0888  0.1605 -0.1573
 1370HK4    H2415078   2.776   1.128   0.217 -1.1635 -2.2202 -1.0597
 1370HK4    C4515079   2.719   1.094   0.016  0.1584 -0.2309 -0.0563
 1370HK4    H2515080   2.700   0.986   0.026  0.8316 -0.2219  1.4695
 1371HK4    H2815081   3.433   4.302   0.675 -1.4444 -1.6713  0.9128
 1371HK4    C4815082   3.501   4.318   0.759 -0.2170  0.1945 -0.3801
 1371HK4    C4715083   3.530   4.441   0.817  0.0598  0.0503 -0.2174
 1371HK4    H2715084   3.476   4.531   0.784  1.1190  1.4006  1.6494
 1371HK4    C4615085   3.628   4.448   0.915 -0.0354  0.1577 -0.1304
 1371HK4    H2615086   3.669   4.546   0.942 -3.1271  1.3710  0.3770
 1371HK4    C4015087   3.694   4.335   0.968 -0.3238 -0.1399 -0.4002
 1371HK4    C5015088   3.656   4.213   0.909  0.3290 -0.5178 -0.0481
 1371HK4    H3015089   3.689   4.112   0.938 -1.4860 -0.9582  0.5650
 1371HK4    C4915090   3.568   4.204   0.801 -0.0660  0.4916  0.1792
 1371HK4    H2915091   3.560   4.113   0.740 -1.4027  1.1501 -0.6268
 1371HK4     N215092   3.805   4.335   1.054 -0.4368 -0.4518 -0.2555
 1371HK4    C3015093   3.905   4.434   1.060 -0.4848 -0.3999 -0.3004
 1371HK4    C2915094   3.958   4.508   0.955 -0.1230  0.1346  0.2559
 1371HK4    H1515095   3.908   4.510   0.858 -0.9843 -1.5625  0.6426
 1371HK4    C2815096   4.060   4.601   0.973 -0.0340  0.0319  0.2850
 1371HK4    C2715097   4.106   4.627   1.103 -0.3230  0.3471  0.3261
 1371HK4    H1415098   4.158   4.721   1.127 -0.0605 -0.0026  1.1491
 1371HK4    C3215099   4.066   4.542   1.206  0.2968 -0.6897 -0.2780
 1371HK4    H1615100   4.118   4.541   1.302 -0.1342 -0.6582 -0.0407
 1371HK4    C3115101   3.969   4.444   1.190 -0.2350 -0.1408 -0.4430
 1371HK4    C3415102   3.899   4.344   1.267  0.1514  0.1849  0.3362
 1371HK4    C3315103   3.805   4.274   1.181  1.0605 -0.3664 -0.2120
 1371HK4    C3515104   3.738   4.160   1.224 -0.0253  0.5824  0.6509
 1371HK4    H1715105   3.666   4.109   1.159  1.2472 -0.4706  0.0507
 1371HK4    C3615106   3.769   4.104   1.347 -0.0194 -0.1557  0.3163
 1371HK4    H1815107   3.739   4.003   1.380  0.1019 -0.3366 -0.1210
 1371HK4    C3715108   3.849   4.179   1.432 -0.4598  0.1851  0.4283
 1371HK4    H1915109   3.863   4.138   1.532  0.3805  2.1338  1.1344
 1371HK4    C3815110   3.915   4.296   1.397  0.0327 -0.1534  0.2270
 1371HK4    H2015111   3.976   4.354   1.465 -0.7539  2.8292 -1.5111
 1371HK4    C1415112   4.146   4.626   0.857 -0.2853 -0.2473  0.0356
 1371HK4     C915113   4.285   4.623   0.840 -0.2392 -0.4138  0.4319
 1371HK4     C815114   4.354   4.688   0.735 -0.2004 -0.6188  0.3330
 1371HK4    C1115115   4.278   4.746   0.634  0.4388 -0.8028 -0.2619
 1371HK4     H415116   4.317   4.814   0.557 -0.3500 -0.4089 -0.3287
 1371HK4    C1215117   4.139   4.741   0.644  0.3996  0.4461 -0.0214
 1371HK4     H515118   4.077   4.788   0.567 -0.6076 -0.2814  0.3333
 1371HK4    C1315119   4.072   4.687   0.753  0.3561  0.1946 -0.1718
 1371HK4     H615120   3.963   4.689   0.764  0.4614 -1.1889  1.3296
 1371HK4     C715121   4.500   4.675   0.715 -0.1479  0.2095  0.1895
 1371HK4     O215122   4.551   4.748   0.630  0.1933 -0.3525 -0.0929
 1371HK4     C415123   4.574   4.585   0.805 -0.0354 -0.0925 -0.2021
 1371HK4     C315124   4.707   4.548   0.788 -0.0607 -0.1237 -0.3328
 1371HK4     H315125   4.747   4.547   0.685  0.1301  1.3429 -0.2889
 1371HK4     C215126   4.785   4.481   0.881 -0.6348  0.3813  0.5111
 1371HK4     H215127   4.878   4.430   0.851  0.5667  1.5198  2.2335
 1371HK4     C115128   4.734   4.455   1.008  0.1020 -0.5880  0.6120
 1371HK4     H115129   4.799   4.417   1.088 -0.7413 -0.5286  1.3350
 1371HK4     C615130   4.602   4.501   1.029  0.2573  0.0513  0.1851
 1371HK4     C515131   4.517   4.548   0.928  0.3962 -0.0794  0.0051
 1371HK4    C1015132   4.368   4.541   0.933  0.4034 -0.2229  0.0334
 1371HK4     O115133   4.321   4.433   0.969 -0.0731  0.1675  0.5816
 1371HK4    C1615134   4.571   4.531   1.169  0.7241  0.2523  0.2487
 1371HK4    C1515135   4.490   4.638   1.213 -0.1960 -0.1135 -0.5250
 1371HK4     H715136   4.465   4.717   1.140 -0.0545  0.1068 -0.3359
 1371HK4    C2015137   4.439   4.649   1.342  0.4890 -0.1532 -0.2488
 1371HK4     H915138   4.386   4.737   1.378  0.7337  0.2852 -0.9320
 1371HK4    C1915139   4.449   4.539   1.426 -0.4472  0.1410  0.2465
 1371HK4    C1815140   4.524   4.423   1.383  0.2591  0.5149  0.4614
 1371HK4    C1715141   4.587   4.426   1.259 -0.3357 -0.0027  0.1480
 1371HK4     H815142   4.653   4.341   1.243 -1.7573 -1.0348 -0.3897
 1371HK4     N115143   4.534   4.329   1.487 -0.2150 -0.1506 -0.0901
 1371HK4    C2115144   4.441   4.372   1.585 -0.6719  0.0041 -0.5882
 1371HK4    C2215145   4.389   4.503   1.553 -0.6718  0.1840  0.1534
 1371HK4    C2615146   4.300   4.563   1.641 -0.3084  0.4715  0.3297
 1371HK4    H1315147   4.263   4.664   1.624 -1.2928  0.1168  0.3023
 1371HK4    C2515148   4.250   4.495   1.752  0.1316 -0.1218  0.1669
 1371HK4    H1215149   4.181   4.541   1.823 -0.5725 -0.5442 -0.2346
 1371HK4    C2415150   4.299   4.368   1.778  0.3254 -0.1737 -0.4396
 1371HK4    H1115151   4.273   4.320   1.874  3.2396  0.5458  0.7512
 1371HK4    C2315152   4.394   4.306   1.698  0.2472 -0.3410 -0.4038
 1371HK4    H1015153   4.394   4.197   1.694 -1.4429 -0.4396  1.7878
 1371HK4    C3915154   4.587   4.199   1.483  0.1755 -0.0036  0.2337
 1371HK4    C4115155   4.656   4.153   1.597 -0.0680 -0.5353  0.1677
 1371HK4    H2115156   4.644   4.210   1.690  2.4079  0.1791  0.0972
 1371HK4    C4215157   4.750   4.051   1.588  0.1218 -0.3467  0.0032
 1371HK4    H2215158   4.826   4.038   1.666  0.5793 -0.3975 -0.4543
 1371HK4    C4315159   4.771   3.990   1.465  0.2685 -0.3091  0.0097
 1371HK4    H2315160   4.855   3.923   1.447  0.1678 -0.1726 -0.9804
 1371HK4    C4415161   4.698   4.025   1.352 -0.2718  0.2991  0.5429
 1371HK4    H2415162   4.713   3.963   1.262 -0.6042 -1.5891  1.7422
 1371HK4    C4515163   4.605   4.128   1.363 -0.5334  0.1201  0.0469
 1371HK4    H2515164   4.534   4.135   1.280  1.1144 -0.9699 -1.5036
 1372HK4    H2815165   5.173  10.985   1.343  1.5892  0.0768 -0.6630
 1372HK4    C4815166   5.159  10.894   1.285 -0.3530 -0.1041  0.0527
 1372HK4    C4715167   5.187  10.770   1.342 -0.3885 -0.1320  0.0102
 1372HK4    H2715168   5.232  10.768   1.442 -0.6528  0.4797  0.1457
 1372HK4    C4615169   5.167  10.654   1.267  0.3313 -0.3251  0.1076
 1372HK4    H2615170   5.210  10.559   1.301 -0.6298 -0.0611  2.1456
 1372HK4    C4015171   5.116  10.653   1.135  0.3255  0.3703  0.1011
 1372HK4    C5015172   5.094  10.782   1.083 -0.3658  0.1830 -0.0824
 1372HK4    H3015173   5.062  10.783   0.978 -0.7744 -3.0211 -0.0395
 1372HK4    C4915174   5.116  10.901   1.153 -0.2761  0.0966  0.0376
 1372HK4    H2915175   5.078  10.996   1.113 -0.1052  0.8262  1.5839
 1372HK4     N215176   5.130  10.542   1.052 -0.2095  0.2519  0.1661
 1372HK4    C3015177   5.047  10.503   0.945  0.2364  0.6295 -0.3197
 1372HK4    C2915178   4.910  10.517   0.932  0.2563  0.8594 -0.2892
 1372HK4    H1515179   4.858  10.584   1.001 -0.5329  0.6857 -0.7065
 1372HK4    C2815180   4.838  10.441   0.840  0.4438 -0.1904  0.4258
 1372HK4    C2715181   4.907  10.350   0.757 -0.1736 -0.6391  0.4019
 1372HK4    H1415182   4.855  10.310   0.669 -0.3209  0.0333  0.1758
 1372HK4    C3215183   5.045  10.336   0.767  0.0767  0.8052 -0.8257
 1372HK4    H1615184   5.093  10.271   0.694  2.4950 -0.7942  2.0698
 1372HK4    C3115185   5.118  10.409   0.859 -0.1937 -0.0947  0.1125
 1372HK4    C3415186   5.253  10.405   0.911 -0.1971 -0.2242  0.1133
 1372HK4    C3315187   5.259  10.488   1.030 -0.2480  0.3381 -0.2787
 1372HK4    C3515188   5.382  10.518   1.087 -0.1548 -0.0277 -0.2901
 1372HK4    H1715189   5.386  10.581   1.176 -1.6457 -0.3048 -0.0100
 1372HK4    C3615190   5.498  10.464   1.032  0.1496  0.8845 -0.5606
 1372HK4    H1815191   5.597  10.491   1.072  0.3885  0.9860 -1.2294
 1372HK4    C3715192   5.495  10.374   0.926  0.1262  0.1576  0.0471
 1372HK4    H1915193   5.591  10.358   0.876  1.0953 -0.3446  2.0018
 1372HK4    C3815194   5.373  10.350   0.866  0.0792  0.4476  0.0247
 1372HK4    H2015195   5.372  10.282   0.781 -3.2920 -1.3804  1.4347
 1372HK4    C1415196   4.700  10.413   0.882  0.3226 -0.1505  0.0478
 1372HK4     C915197   4.658  10.280   0.886 -0.0540 -0.0299  0.2344
 1372HK4     C815198   4.534  10.234   0.837  0.0255  0.0621 -0.0487
 1372HK4    C1115199   4.447  10.336   0.799  0.0829 -0.0934 -0.5978
 1372HK4     H415200   4.339  10.314   0.795  0.3950 -1.9321  0.2380
 1372HK4    C1215201   4.478  10.469   0.820  0.1819 -0.3382  0.8403
 1372HK4     H515202   4.400  10.546   0.813 -1.8188 -2.4206 -0.2443
 1372HK4    C1315203   4.605  10.514   0.857  0.3043 -0.1375  0.1782
 1372HK4     H615204   4.647  10.614   0.837  0.4568  0.0594  1.4160
 1372HK4     C715205   4.513  10.090   0.811 -0.1095  0.0193  0.3103
 1372HK4     O215206   4.403  10.043   0.783 -0.1153 -0.0549  0.4582
 1372HK4     C415207   4.623   9.995   0.841  0.2239  0.1609 -0.4405
 1372HK4     C315208   4.625   9.871   0.780  0.2028 -0.2889  0.4646
 1372HK4     H315209   4.565   9.850   0.690  1.2097 -1.2268 -0.0109
 1372HK4     C215210   4.725   9.778   0.808  0.3407 -0.4552 -0.5534
 1372HK4     H215211   4.733   9.678   0.762 -1.4238 -0.4092 -0.9963
 1372HK4     C115212   4.820   9.813   0.903 -0.2620  0.0733 -0.1491
 1372HK4     H115213   4.892   9.734   0.926  0.1636  0.0003 -1.7362
 1372HK4     C615214   4.822   9.943   0.959  0.0878  0.1892 -0.4290
 1372HK4     C515215   4.724  10.038   0.930 -0.1571  0.0806  0.0335
 1372HK4    C1015216   4.742  10.182   0.962 -0.2210 -0.0036  0.4512
 1372HK4     O115217   4.791  10.215   1.070  0.5428 -0.4649  0.2414
 1372HK4    C1615218   4.960   9.983   0.989  0.1700  0.1115 -0.7079
 1372HK4    C1515219   5.066   9.958   0.900  0.1863  0.2421 -0.7251
 1372HK4     H715220   5.048   9.928   0.795 -0.2861 -1.6279 -0.1264
 1372HK4    C2015221   5.199   9.962   0.941  0.0324 -0.4113 -0.1566
 1372HK4     H915222   5.279   9.942   0.869  0.4863  0.9221 -0.0330
 1372HK4    C1915223   5.226   9.998   1.072 -0.4436  0.6509 -0.3480
 1372HK4    C1815224   5.120  10.031   1.165 -0.2896  0.3303 -0.0602
 1372HK4    C1715225   4.989  10.017   1.121 -0.0571 -0.2567 -0.5599
 1372HK4     H815226   4.908  10.003   1.192  0.5008 -2.2839 -0.2993
 1372HK4     N115227   5.175  10.107   1.271  0.4757  0.2321 -0.3796
 1372HK4    C2115228   5.315  10.113   1.256  0.5710 -0.4898  0.2049
 1372HK4    C2215229   5.349  10.044   1.134 -0.1564 -0.8362  0.1933
 1372HK4    C2615230   5.477  10.050   1.078  0.0027 -0.5536  0.5927
 1372HK4    H1315231   5.499   9.984   0.995  0.2261 -0.9619  0.9739
 1372HK4    C2515232   5.574  10.125   1.143  0.0861 -0.0028 -0.1641
 1372HK4    H1215233   5.673  10.132   1.099 -0.1484  0.3982 -0.6402
 1372HK4    C2415234   5.543  10.188   1.264  0.1198 -0.0041 -0.1556
 1372HK4    H1115235   5.606  10.273   1.295 -1.0936 -0.3037  3.2295
 1372HK4    C2315236   5.417  10.182   1.321  0.2566  0.0221  0.1512
 1372HK4    H1015237   5.408  10.218   1.423  2.6192 -1.0796  0.7855
 1372HK4    C3915238   5.122  10.115   1.400 -0.0703  0.0740 -0.5903
 1372HK4    C4115239   5.040  10.017   1.459 -0.0550  0.2138 -0.3329
 1372HK4    H2115240   5.014   9.921   1.413 -1.0339 -0.1841  1.0161
 1372HK4    C4215241   4.971  10.045   1.577  0.0188 -0.3304 -0.1603
 1372HK4    H2215242   4.917   9.968   1.635  1.2764 -0.6533  0.5984
 1372HK4    C4315243   4.969  10.169   1.638 -0.7499 -0.2226 -0.3956
 1372HK4    H2315244   4.917  10.174   1.733 -0.2991 -1.3046 -0.0876
 1372HK4    C4415245   5.050  10.268   1.581 -0.3419 -0.4806 -0.2652
 1372HK4    H2415246   5.054  10.369   1.623  0.6199 -0.5929 -0.0749
 1372HK4    C4515247   5.126  10.238   1.469  0.2992 -0.3404  0.1333
 1372HK4    H2515248   5.202  10.308   1.430  0.9685 -0.5266  1.0738
 1373HK4    H2815249   8.363   7.471  10.767  1.7570 -0.2803  0.9755
 1373HK4    C4815250   8.379   7.571  10.727 -0.0686 -0.4067 -0.1304
 1373HK4    C4715251   8.407   7.678  10.811  0.3249 -0.4901 -0.1517
 1373HK4    H2715252   8.413   7.667  10.921 -2.0316 -0.3393  0.0276
 1373HK4    C4615253   8.422   7.805  10.757  0.5507 -0.5061 -0.1304
 1373HK4    H2615254   8.470   7.882  10.819 -0.8246 -0.9975  1.5935
 1373HK4    C4015255   8.385   7.834  10.624 -0.5006  0.0240  0.2649
 1373HK4    C5015256   8.355   7.723  10.542 -0.6132  0.5802 -0.4408
 1373HK4    H3015257   8.352   7.741  10.433 -4.2636  0.0953 -0.5022
 1373HK4    C4915258   8.360   7.594  10.591 -0.1509  0.7945  0.0781
 1373HK4    H2915259   8.359   7.507  10.524  2.2927 -0.1881  1.2686
 1373HK4     N215260   8.410   7.960  10.570 -0.0364 -0.1582  0.0478
 1373HK4    C3015261   8.498   8.057  10.623  0.4020 -0.0212 -0.9113
 1373HK4    C2915262   8.622   8.046  10.685  0.2453 -0.1875 -0.6316
 1373HK4    H1515263   8.653   7.945  10.713  0.2994  0.4942  1.9207
 1373HK4    C2815264   8.704   8.155  10.711 -0.0773 -0.1299  0.1889
 1373HK4    C2715265   8.653   8.284  10.689  0.0451 -0.0683  0.2570
 1373HK4    H1415266   8.706   8.375  10.720 -0.4575 -0.6890  3.0836
 1373HK4    C3215267   8.527   8.303  10.631  0.0701 -0.2031  0.1572
 1373HK4    H1615268   8.477   8.399  10.624  3.2562  1.3307 -2.9236
 1373HK4    C3115269   8.459   8.191  10.584 -0.0711  0.0410 -0.2196
 1373HK4    C3415270   8.350   8.174  10.491 -0.4589 -0.0850  0.2535
 1373HK4    C3315271   8.317   8.032  10.492  0.0416 -0.2013 -0.0807
 1373HK4    C3515272   8.214   7.986  10.411  0.1165 -0.4592 -0.0353
 1373HK4    H1715273   8.206   7.878  10.399  2.4102 -0.6325 -0.2263
 1373HK4    C3615274   8.135   8.070  10.335  0.3798 -0.6587 -0.5297
 1373HK4    H1815275   8.070   8.032  10.255  0.7003  0.1614 -1.1985
 1373HK4    C3715276   8.167   8.206  10.343  0.0483 -0.6108 -0.0415
 1373HK4    H1915277   8.102   8.281  10.298 -0.5996 -1.2046 -0.1067
 1373HK4    C3815278   8.273   8.260  10.414 -0.0876 -0.1514 -0.1939
 1373HK4    H2015279   8.264   8.362  10.451  0.7642  0.1963 -0.9143
 1373HK4    C1415280   8.848   8.143  10.740 -0.0017  0.4439  0.0600
 1373HK4     C915281   8.919   8.232  10.821 -0.1900  0.8911 -0.2707
 1373HK4     C815282   9.057   8.253  10.803  0.0113 -0.2011 -0.0451
 1373HK4    C1115283   9.121   8.178  10.705 -0.3451  0.4343 -0.7700
 1373HK4     H415284   9.227   8.201  10.688  0.7210 -1.4735  2.6805
 1373HK4    C1215285   9.056   8.076  10.637 -0.1141 -0.0285 -0.2955
 1373HK4     H515286   9.113   8.047  10.548  3.8059  1.2670  1.6978
 1373HK4    C1315287   8.920   8.055  10.657 -0.0968  0.2611  0.1693
 1373HK4     H615288   8.870   7.971  10.605 -1.1580 -0.6879  2.6074
 1373HK4     C715289   9.131   8.349  10.888 -0.5228  0.0062  0.1898
 1373HK4     O215290   9.231   8.403  10.841 -0.4489 -0.0012  0.3448
 1373HK4     C415291   9.069   8.403  11.011  0.0980  0.1960  0.4223
 1373HK4     C315292   9.155   8.462  11.103  0.0733  0.3843  0.3278
 1373HK4     H315293   9.262   8.482  11.087 -0.2582  0.7912 -1.4268
 1373HK4     C215294   9.099   8.496  11.226 -0.2522  0.3002  0.2036
 1373HK4     H215295   9.169   8.522   0.059 -0.0714  0.9711 -0.1626
 1373HK4     C115296   8.962   8.483  11.244 -0.2693  0.4992  0.1997
 1373HK4     H115297   8.928   8.499   0.100  0.9716 -0.8568  0.8240
 1373HK4     C615298   8.870   8.439  11.147 -0.0048 -0.2376  0.2810
 1373HK4     C515299   8.931   8.385  11.034  0.1244 -0.1398  0.3011
 1373HK4    C1015300   8.863   8.282  10.950 -0.0258  0.1245  0.1008
 1373HK4     O115301   8.789   8.200  11.003 -0.2276 -0.2468 -0.7434
 1373HK4    C1615302   8.734   8.495  11.154  0.3730  0.7570 -0.1547
 1373HK4    C1515303   8.683   8.570   0.014 -0.2455  0.1913 -0.0504
 1373HK4     H715304   8.760   8.601   0.087  1.6572 -1.2649 -1.3879
 1373HK4    C2015305   8.555   8.619   0.036 -0.0519  0.7486 -0.1715
 1373HK4     H915306   8.529   8.701   0.103 -1.9939  1.0436 -1.2525
 1373HK4    C1915307   8.463   8.591  11.184  0.0312 -0.1637  0.0036
 1373HK4    C1815308   8.507   8.517  11.068 -0.0726 -0.3186  0.0647
 1373HK4    C1715309   8.637   8.467  11.059  0.1575  0.2462  0.2102
 1373HK4     H815310   8.672   8.437  10.960 -2.1578  1.2152 -0.9615
 1373HK4     N115311   8.398   8.484  10.984  0.1210 -0.4225 -0.1464
 1373HK4    C2115312   8.289   8.559  11.032 -0.1500 -0.9530  0.0624
 1373HK4    C2215313   8.323   8.619  11.160  0.1305 -0.0463 -0.4338
 1373HK4    C2615314   8.248   8.725  11.210  0.2551 -0.0708 -0.1968
 1373HK4    H1315315   8.264   8.778   0.056 -3.0883  0.0031  0.4006
 1373HK4    C2515316   8.137   8.770  11.139 -0.0768 -0.3290  0.1585
 1373HK4    H1215317   8.060   8.828  11.189  0.9610  1.0815  0.1539
 1373HK4    C2415318   8.106   8.717  11.014  0.0855  0.2198 -0.1146
 1373HK4    H1115319   8.022   8.758  10.956  1.2006 -0.4797 -2.2888
 1373HK4    C2315320   8.177   8.609  10.965  0.1476  0.0711  0.3122
 1373HK4    H1015321   8.140   8.556  10.878 -3.7467  1.5396  1.0040
 1373HK4    C3915322   8.378   8.357  10.928  0.6569 -0.3174 -0.5864
 1373HK4    C4115323   8.273   8.326  10.840 -0.0523 -0.0485  0.1659
 1373HK4    H2115324   8.274   8.380  10.744  0.0642 -1.7220 -0.7746
 1373HK4    C4215325   8.192   8.214  10.854 -0.6001  0.4272  0.9231
 1373HK4    H2215326   8.092   8.220  10.809  0.0413  1.9537 -0.3557
 1373HK4    C4315327   8.229   8.115  10.945  0.1025 -0.1270  0.0450
 1373HK4    H2315328   8.158   8.041  10.980 -0.0631 -0.1117 -0.2498
 1373HK4    C4415329   8.349   8.131  11.012 -0.1629  0.1672  0.4512
 1373HK4    H2415330   8.383   8.056  11.086 -0.6950 -0.7248 -0.2016
 1373HK4    C4515331   8.423   8.248  11.005 -0.1237  0.1471  0.5510
 1373HK4    H2515332   8.532   8.243  11.023 -0.2726 -0.7853  1.2384
 1374HK4    H2815333   7.029   3.584   9.410 -0.9101  1.3244  1.5478
 1374HK4    C4815334   7.119   3.643   9.425 -0.1493  0.6070 -0.1131
 1374HK4    C4715335   7.161   3.699   9.305 -0.0770  0.4332 -0.1715
 1374HK4    H2715336   7.091   3.694   9.220 -1.4104  1.4515  0.8518
 1374HK4    C4615337   7.294   3.736   9.292  0.0370  0.1150  0.0741
 1374HK4    H2615338   7.325   3.747   9.187 -0.6812  0.3585 -0.1134
 1374HK4    C4015339   7.390   3.721   9.394 -0.0383 -0.5766  0.0454
 1374HK4    C5015340   7.347   3.665   9.516 -0.2859 -0.2043  0.1299
 1374HK4    H3015341   7.403   3.685   9.609 -0.9951 -1.3637  0.8132
 1374HK4    C4915342   7.214   3.628   9.526 -0.2511 -0.4174 -0.1688
 1374HK4    H2915343   7.173   3.604   9.626  1.2192 -0.7326  0.3666
 1374HK4     N215344   7.519   3.773   9.376 -0.1401 -0.3166  0.0723
 1374HK4    C3015345   7.548   3.873   9.280  0.5118 -0.4517  0.1308
 1374HK4    C2915346   7.482   3.989   9.243  0.0737 -0.7709 -0.1094
 1374HK4    H1515347   7.389   4.019   9.291  1.0759 -1.2145  2.1856
 1374HK4    C2815348   7.534   4.077   9.149  0.2011  0.2214  0.8726
 1374HK4    C2715349   7.657   4.042   9.089 -0.0084  0.5642  0.2293
 1374HK4    H1415350   7.700   4.105   9.010  1.2518 -0.5670  0.0012
 1374HK4    C3215351   7.734   3.937   9.136  0.2272  0.7261  0.2009
 1374HK4    H1615352   7.835   3.934   9.094 -0.0617 -3.4510 -0.4381
 1374HK4    C3115353   7.683   3.850   9.231  0.2465 -0.2901 -0.6971
 1374HK4    C3415354   7.748   3.750   9.314  0.2141 -0.0284 -0.3512
 1374HK4    C3315355   7.642   3.711   9.405  0.0668 -0.2355 -0.6129
 1374HK4    C3515356   7.681   3.640   9.518  0.0530  0.0222 -0.4461
 1374HK4    H1715357   7.612   3.591   9.587 -0.1573 -0.5937 -1.0874
 1374HK4    C3615358   7.816   3.612   9.536 -0.0159  0.3327  0.5675
 1374HK4    H1815359   7.830   3.520   9.595  2.1117 -0.4594 -1.0876
 1374HK4    C3715360   7.919   3.662   9.458  0.1551 -0.8441  0.0296
 1374HK4    H1915361   8.023   3.650   9.490  0.7248  0.8289 -1.1399
 1374HK4    C3815362   7.883   3.729   9.342  0.0207 -0.2375  0.4202
 1374HK4    H2015363   7.962   3.762   9.274  0.0806  0.8355  0.9866
 1374HK4    C1415364   7.443   4.180   9.096  0.7629  0.2813  0.0161
 1374HK4     C915365   7.440   4.214   8.960 -0.0921 -0.4329 -0.1508
 1374HK4     C815366   7.390   4.336   8.910  0.6434 -0.1369 -0.1699
 1374HK4    C1115367   7.350   4.431   9.003  0.6848  0.1618 -0.4561
 1374HK4     H415368   7.308   4.525   8.965  1.1851 -0.1703 -1.8535
 1374HK4    C1215369   7.350   4.402   9.139  0.3732  0.1492 -0.4587
 1374HK4     H515370   7.353   4.478   9.218 -2.3034  1.1001 -1.2287
 1374HK4    C1315371   7.378   4.272   9.180  0.6616  0.3218 -0.1085
 1374HK4     H615372   7.342   4.235   9.278  0.1728  0.7367 -0.1279
 1374HK4     C715373   7.401   4.375   8.768 -0.0587  0.0135 -0.1857
 1374HK4     O215374   7.333   4.470   8.729  0.0776  0.3267  0.3481
 1374HK4     C415375   7.476   4.288   8.674 -0.0017 -0.0940 -0.0399
 1374HK4     C315376   7.503   4.321   8.541  0.8302  0.3388  0.2374
 1374HK4     H315377   7.479   4.423   8.508  0.4747  0.1691 -0.0325
 1374HK4     C215378   7.576   4.248   8.448 -0.0702 -0.0918 -0.1290
 1374HK4     H215379   7.606   4.285   8.349  3.8304 -1.1293  0.5699
 1374HK4     C115380   7.633   4.134   8.503 -0.0483 -0.0384 -0.0356
 1374HK4     H115381   7.672   4.061   8.431  2.4652 -0.9310  2.1459
 1374HK4     C615382   7.614   4.089   8.635  0.9045  0.4199  0.2624
 1374HK4     C515383   7.527   4.164   8.716  0.0918 -0.0870 -0.1339
 1374HK4    C1015384   7.490   4.121   8.854 -0.2483 -0.3419 -0.3022
 1374HK4     O115385   7.449   4.006   8.865 -0.3340 -0.2882 -0.0484
 1374HK4    C1615386   7.723   4.004   8.685  0.0807 -0.6171  0.3145
 1374HK4    C1515387   7.857   4.035   8.657  0.0320  0.0987  0.8592
 1374HK4     H715388   7.881   4.128   8.602  1.6491 -0.6202  0.3122
 1374HK4    C2015389   7.962   3.945   8.671  0.0073 -0.1481 -0.4831
 1374HK4     H915390   8.064   3.969   8.640  0.7091 -2.4453 -0.0597
 1374HK4    C1915391   7.928   3.818   8.717 -0.5586 -0.0271 -0.5655
 1374HK4    C1815392   7.792   3.785   8.755 -0.2579  0.2175  0.7589
 1374HK4    C1715393   7.691   3.879   8.738 -0.7667 -0.4008  0.3222
 1374HK4     H815394   7.587   3.851   8.753 -1.3370  0.6611 -1.4746
 1374HK4     N115395   7.771   3.647   8.773 -0.4931  0.1106 -0.3159
 1374HK4    C2115396   7.894   3.585   8.745 -0.2800  0.3614  0.0693
 1374HK4    C2215397   7.990   3.688   8.709 -0.0660  0.1676  0.0863
 1374HK4    C2615398   8.127   3.661   8.704 -0.1144 -0.1480  0.4602
 1374HK4    H1315399   8.205   3.729   8.671 -0.7975  0.3361 -0.1599
 1374HK4    C2515400   8.168   3.531   8.734  0.5545 -0.0820 -0.1751
 1374HK4    H1215401   8.276   3.517   8.740  0.7012  0.9242 -0.3188
 1374HK4    C2415402   8.079   3.431   8.770 -0.0430  0.3288 -0.4933
 1374HK4    H1115403   8.125   3.332   8.788 -0.2012  0.0561 -1.5725
 1374HK4    C2315404   7.943   3.458   8.775 -0.0259  0.3785 -0.2683
 1374HK4    H1015405   7.879   3.371   8.788 -2.6432  2.3830  0.6885
 1374HK4    C3915406   7.670   3.575   8.837 -0.7220  0.0047 -0.7916
 1374HK4    C4115407   7.627   3.447   8.794 -0.3468 -0.3817 -0.0199
 1374HK4    H2115408   7.679   3.397   8.711  0.4482 -0.7801  0.7068
 1374HK4    C4215409   7.528   3.384   8.868 -0.1904  0.0999  0.6093
 1374HK4    H2215410   7.487   3.292   8.822  1.9272 -0.0056 -1.1379
 1374HK4    C4315411   7.474   3.443   8.982 -0.4156 -0.3800  0.7545
 1374HK4    H2315412   7.393   3.391   9.033 -1.5575 -0.3183 -0.9605
 1374HK4    C4415413   7.512   3.572   9.020 -0.4040 -0.0152 -0.4760
 1374HK4    H2415414   7.474   3.613   9.114  1.9933  1.3175 -0.0571
 1374HK4    C4515415   7.618   3.633   8.955  0.3681 -0.7646  0.0759
 1374HK4    H2515416   7.639   3.739   8.978  0.0978 -1.3899  3.4910
 1375HK4    H2815417   3.139   3.194   5.247  0.0549 -0.6474  0.8490
 1375HK4    C4815418   3.064   3.170   5.173 -0.0664  0.2185  0.6789
 1375HK4    C4715419   3.070   3.196   5.037 -0.2658 -0.0557  0.6168
 1375HK4    H2715420   3.160   3.248   5.001 -1.0260  0.0879 -1.1452
 1375HK4    C4615421   2.970   3.161   4.947  0.2107 -0.7518  0.3537
 1375HK4    H2615422   2.981   3.170   4.838 -2.2837 -2.4657 -0.0899
 1375HK4    C4015423   2.853   3.096   4.993 -0.7970  0.5436 -0.3341
 1375HK4    C5015424   2.849   3.073   5.132  0.3105  0.1080 -0.3647
 1375HK4    H3015425   2.767   3.007   5.165 -0.1530  1.0494  0.4004
 1375HK4    C4915426   2.947   3.113   5.222  0.0798 -0.5243  0.1730
 1375HK4    H2915427   2.926   3.111   5.330  1.7643  3.0364  0.6153
 1375HK4     N215428   2.770   3.032   4.900 -0.1160 -0.5716 -0.1796
 1375HK4    C3015429   2.806   2.979   4.775  0.0790 -0.3343 -0.2232
 1375HK4    C2915430   2.924   2.910   4.748  0.4506  0.2106  0.0136
 1375HK4    H1515431   3.001   2.896   4.823 -1.5881  0.0065  2.1035
 1375HK4    C2815432   2.932   2.837   4.630  0.1458  0.0696  0.0804
 1375HK4    C2715433   2.824   2.832   4.540 -0.1823 -0.7063  0.5087
 1375HK4    H1415434   2.826   2.764   4.454  1.1212  1.1212 -0.9461
 1375HK4    C3215435   2.703   2.893   4.574 -0.0329 -0.1221 -0.0027
 1375HK4    H1615436   2.617   2.855   4.520  0.1818 -3.1839  1.7235
 1375HK4    C3115437   2.687   2.963   4.693  0.0386  0.4409 -0.3195
 1375HK4    C3415438   2.575   3.003   4.776  0.1038  0.3967 -0.2110
 1375HK4    C3315439   2.629   3.039   4.906 -0.1131 -0.8201  0.2190
 1375HK4    C3515440   2.543   3.097   4.998 -0.1172  0.3564 -0.5192
 1375HK4    H1715441   2.578   3.108   5.101  2.1474  0.5255 -1.2710
 1375HK4    C3615442   2.407   3.113   4.977 -0.2214  0.0134 -0.1118
 1375HK4    H1815443   2.339   3.152   5.054 -0.4904 -2.2588  0.8323
 1375HK4    C3715444   2.355   3.077   4.853  0.7622  0.1670 -0.5701
 1375HK4    H1915445   2.251   3.092   4.826  0.3682  0.7270  1.1981
 1375HK4    C3815446   2.440   3.027   4.755  0.0706 -0.3808 -0.8920
 1375HK4    H2015447   2.416   3.009   4.650  2.0106 -0.1822 -1.3944
 1375HK4    C1415448   3.053   2.759   4.601 -0.0574 -0.0786 -0.3661
 1375HK4     C915449   3.101   2.717   4.476  0.1409  0.1241 -0.3580
 1375HK4     C815450   3.184   2.604   4.461 -0.1698 -0.0997 -0.3770
 1375HK4    C1115451   3.206   2.524   4.572 -0.3042  0.4411  0.0398
 1375HK4     H415452   3.257   2.427   4.560 -1.5138 -0.0358 -1.3929
 1375HK4    C1215453   3.159   2.558   4.698  0.0478 -0.3689  0.3949
 1375HK4     H515454   3.155   2.488   4.784 -1.0750  0.7923  1.3089
 1375HK4    C1315455   3.089   2.677   4.710  0.1385 -0.2199 -0.5338
 1375HK4     H615456   3.066   2.704   4.815 -3.2644  0.0439 -1.2846
 1375HK4     C715457   3.220   2.556   4.325 -0.5249 -0.4242 -0.3584
 1375HK4     O215458   3.315   2.480   4.307  0.1606  0.1343  0.8207
 1375HK4     C415459   3.151   2.617   4.210  0.2094  0.3961 -0.3690
 1375HK4     C315460   3.164   2.554   4.086 -0.2478 -0.0902 -0.1732
 1375HK4     H315461   3.198   2.449   4.083  1.7604  0.5162  0.3405
 1375HK4     C215462   3.117   2.610   3.969 -0.2958 -0.3485 -0.2778
 1375HK4     H215463   3.101   2.548   3.879  1.0525 -0.4128 -0.4817
 1375HK4     C115464   3.056   2.734   3.981 -0.2398 -0.3760  0.2803
 1375HK4     H115465   3.027   2.783   3.887  2.5502 -1.3835 -1.1546
 1375HK4     C615466   3.031   2.799   4.104  0.0349 -0.0050  0.1434
 1375HK4     C515467   3.086   2.742   4.220  1.0317  0.7868  0.0582
 1375HK4    C1015468   3.075   2.801   4.356 -0.4562  0.5221  0.0514
 1375HK4     O115469   3.110   2.919   4.363 -0.1983  0.4628 -0.2396
 1375HK4    C1615470   2.959   2.926   4.086 -0.2824 -0.2659 -0.4385
 1375HK4    C1515471   2.881   2.971   4.194 -0.5659 -0.4583 -0.5614
 1375HK4     H715472   2.835   2.896   4.260  1.6778 -1.0895  0.3482
 1375HK4    C2015473   2.841   3.101   4.218 -0.3648 -0.4546 -0.2343
 1375HK4     H915474   2.787   3.128   4.308 -1.5267 -0.3630 -0.9452
 1375HK4    C1915475   2.876   3.197   4.123  0.3229 -0.1155  0.3587
 1375HK4    C1815476   2.954   3.154   4.010  0.1141  0.3733  0.0260
 1375HK4    C1715477   2.993   3.022   3.991  0.1333  0.3382  0.3177
 1375HK4     H815478   3.061   2.994   3.911 -1.7545  0.3708 -1.3344
 1375HK4     N115479   3.015   3.257   3.934  0.6377 -0.2178 -0.3677
 1375HK4    C2115480   2.979   3.371   4.010 -0.4726 -0.3232 -0.7255
 1375HK4    C2215481   2.899   3.341   4.127 -0.0589 -0.0321 -0.3682
 1375HK4    C2615482   2.853   3.442   4.210  0.1039  0.0562 -0.3863
 1375HK4    H1315483   2.801   3.418   4.303  1.0186  0.0213  0.1316
 1375HK4    C2515484   2.882   3.574   4.177 -0.2673  0.1053 -0.5162
 1375HK4    H1215485   2.881   3.639   4.264 -1.2567  0.0384 -0.4711
 1375HK4    C2415486   2.949   3.601   4.058 -0.3755 -0.2058 -0.6493
 1375HK4    H1115487   2.950   3.707   4.028  0.1569  0.1956  0.7412
 1375HK4    C2315488   3.006   3.503   3.978 -0.0145 -0.3064 -0.2753
 1375HK4    H1015489   3.063   3.538   3.892 -1.7687 -1.3233 -1.8920
 1375HK4    C3915490   3.053   3.253   3.800 -0.2227  0.2614 -0.6305
 1375HK4    C4115491   2.984   3.167   3.712 -0.5611 -0.2064  0.0941
 1375HK4    H2115492   2.887   3.119   3.733  0.9549 -3.6662 -0.5579
 1375HK4    C4215493   3.020   3.150   3.579 -0.2884  0.5089  0.0738
 1375HK4    H2215494   2.963   3.078   3.518  0.2875  0.3881 -0.3282
 1375HK4    C4315495   3.121   3.233   3.532  0.2403 -0.3653 -0.3496
 1375HK4    H2315496   3.135   3.237   3.424 -0.3351  0.3191 -0.4003
 1375HK4    C4415497   3.196   3.317   3.614 -0.3982 -0.0327 -0.0980
 1375HK4    H2415498   3.291   3.347   3.568 -0.1505 -0.5739  0.0481
 1375HK4    C4515499   3.165   3.323   3.749  0.1042  0.2071  0.0108
 1375HK4    H2515500   3.231   3.373   3.820 -1.1152 -1.6181  2.5082
 1376HK4    H2815501   4.082   8.548   4.251 -0.7446 -0.7140  0.4274
 1376HK4    C4815502   4.059   8.610   4.338 -0.6957  0.3125 -0.2969
 1376HK4    C4715503   4.096   8.744   4.333 -0.6486  0.3058 -0.0433
 1376HK4    H2715504   4.109   8.798   4.238  1.1055  2.1546  1.2131
 1376HK4    C4615505   4.094   8.824   4.447 -1.0172  0.2608 -0.0181
 1376HK4    H2615506   4.105   8.932   4.429 -0.5938  0.4579  1.3702
 1376HK4    C4015507   4.071   8.770   4.575 -0.8511 -0.0084 -0.1037
 1376HK4    C5015508   4.021   8.638   4.571 -0.4352 -0.1808  0.1871
 1376HK4    H3015509   3.969   8.610   4.664  0.6157 -1.4314  0.4115
 1376HK4    C4915510   4.006   8.561   4.456 -0.1803  0.2097 -0.1073
 1376HK4    H2915511   3.949   8.466   4.454 -1.0069  0.6958 -0.1370
 1376HK4     N215512   4.135   8.823   4.687 -0.0585 -0.0250 -0.5431
 1376HK4    C3015513   4.252   8.902   4.684 -0.2508  0.2746 -0.2361
 1376HK4    C2915514   4.356   8.905   4.591  0.1389 -0.0763  0.1893
 1376HK4    H1515515   4.365   8.818   4.527  2.0383  0.7616 -0.7083
 1376HK4    C2815516   4.469   8.986   4.592  0.1091 -0.0394  0.5572
 1376HK4    C2715517   4.479   9.059   4.712  0.4189  0.2943  0.3304
 1376HK4    H1415518   4.544   9.147   4.715 -2.1601  2.3314 -1.4676
 1376HK4    C3215519   4.385   9.052   4.815  0.2674 -0.6124  0.1407
 1376HK4    H1615520   4.409   9.120   4.897  0.2074  0.5931 -0.8282
 1376HK4    C3115521   4.268   8.978   4.806 -0.0880 -0.0262 -0.0697
 1376HK4    C3415522   4.152   8.944   4.885 -0.4247 -0.0088 -0.5573
 1376HK4    C3315523   4.070   8.851   4.809 -0.1208 -0.3140 -0.5120
 1376HK4    C3515524   3.943   8.817   4.853  0.0851  0.3842  0.6508
 1376HK4    H1715525   3.873   8.754   4.797 -0.2318  2.2421 -1.1000
 1376HK4    C3615526   3.892   8.870   4.971 -0.0576  0.5740  0.5029
 1376HK4    H1815527   3.791   8.845   5.006 -0.1945  3.1264  2.1142
 1376HK4    C3715528   3.972   8.959   5.043  0.0728  0.1953  0.8291
 1376HK4    H1915529   3.944   8.984   5.145  2.7231 -0.8221  1.8440
 1376HK4    C3815530   4.098   8.998   5.001 -0.3250  0.0497 -0.5384
 1376HK4    H2015531   4.153   9.061   5.071 -2.9439 -0.2689  1.8890
 1376HK4    C1415532   4.576   8.973   4.492 -0.4705  0.6047 -0.1546
 1376HK4     C915533   4.712   8.997   4.517 -0.2795 -0.3792 -0.2390
 1376HK4     C815534   4.786   9.042   4.407  0.1571  0.6185  0.4583
 1376HK4    C1115535   4.731   9.051   4.279  0.2509  0.4314  0.4041
 1376HK4     H415536   4.788   9.104   4.201 -0.1346  0.9121  0.4453
 1376HK4    C1215537   4.601   9.011   4.253  0.6005 -0.4708 -0.0023
 1376HK4     H515538   4.565   9.015   4.149  2.2726 -1.4338 -0.6220
 1376HK4    C1315539   4.522   8.976   4.362 -0.2496  0.6294 -0.2462
 1376HK4     H615540   4.413   8.970   4.351  0.0232 -1.9034 -2.1999
 1376HK4     C715541   4.932   9.064   4.418  0.2337  0.5534 -0.3651
 1376HK4     O215542   5.001   9.110   4.328  0.6332  0.1452 -0.2721
 1376HK4     C415543   4.998   9.033   4.547 -0.2871  0.1434 -0.1937
 1376HK4     C315544   5.136   9.045   4.558 -0.2742 -0.2812  0.1095
 1376HK4     H315545   5.191   9.033   4.463  0.2136 -0.8182  0.4575
 1376HK4     C215546   5.199   9.063   4.680 -0.3873 -0.1929  0.1569
 1376HK4     H215547   5.308   9.067   4.683 -0.4355  0.9803  1.1979
 1376HK4     C115548   5.121   9.071   4.795  0.1140 -0.0363  0.4846
 1376HK4     H115549   5.169   9.075   4.895  0.4891 -1.4251  0.3684
 1376HK4     C615550   4.982   9.049   4.792  0.2315 -0.7974  0.4612
 1376HK4     C515551   4.924   9.022   4.667  0.4596 -0.2346  0.2309
 1376HK4    C1015552   4.784   8.975   4.646  0.7039 -0.5028 -0.8114
 1376HK4     O115553   4.751   8.874   4.707  0.4228  0.2417  0.2669
 1376HK4    C1615554   4.908   9.112   4.902 -0.0734 -0.1206 -0.1224
 1376HK4    C1515555   4.953   9.233   4.959 -0.0309 -0.1733 -0.0475
 1376HK4     H715556   5.005   9.301   4.890 -1.1396  0.3365 -0.3910
 1376HK4    C2015557   4.912   9.284   5.082 -0.0206  0.0089 -0.1198
 1376HK4     H915558   4.930   9.389   5.105 -0.8093  0.7863 -2.7864
 1376HK4    C1915559   4.841   9.204   5.170 -0.0743  0.2454  0.0516
 1376HK4    C1815560   4.794   9.076   5.118 -0.0867  0.2854 -0.0377
 1376HK4    C1715561   4.833   9.036   4.991 -0.5457  0.2799 -0.1797
 1376HK4     H815562   4.815   8.935   4.956 -0.4886 -0.0474  0.7275
 1376HK4     N115563   4.711   9.011   5.212  0.5237 -0.2386  0.1387
 1376HK4    C2115564   4.704   9.098   5.323  0.4579 -0.2972  0.1809
 1376HK4    C2215565   4.789   9.215   5.304 -0.9313  0.6557 -0.3094
 1376HK4    C2615566   4.797   9.304   5.410  0.6367 -0.0607  0.1982
 1376HK4    H1315567   4.859   9.393   5.398 -0.6297  0.7599 -0.5011
 1376HK4    C2515568   4.720   9.294   5.526  0.0227 -0.2336 -0.2200
 1376HK4    H1215569   4.714   9.378   5.596  0.6159 -1.1226  0.9222
 1376HK4    C2415570   4.630   9.189   5.537 -1.0328  0.6728 -0.1238
 1376HK4    H1115571   4.572   9.183   5.629 -1.5292  0.2985 -0.4579
 1376HK4    C2315572   4.623   9.093   5.436  0.4136  0.2444  0.1749
 1376HK4    H1015573   4.543   9.020   5.439  1.2307 -0.5982  2.6321
 1376HK4    C3915574   4.635   8.897   5.182  0.3398 -0.0959  0.0543
 1376HK4    C4115575   4.574   8.829   5.290 -0.1065 -0.3134 -0.3312
 1376HK4    H2115576   4.626   8.820   5.386 -0.0600 -1.4352 -0.4585
 1376HK4    C4215577   4.458   8.754   5.279 -0.2095 -0.1655 -0.2485
 1376HK4    H2215578   4.417   8.715   5.373  3.3479 -0.2004  1.3744
 1376HK4    C4315579   4.404   8.744   5.151 -0.0394 -0.0489 -0.3295
 1376HK4    H2315580   4.319   8.678   5.136 -0.4143  0.4159 -0.2300
 1376HK4    C4415581   4.464   8.803   5.041  0.0341 -0.0738 -0.3031
 1376HK4    H2415582   4.417   8.793   4.942 -0.7187 -0.0295  0.0489
 1376HK4    C4515583   4.579   8.880   5.054  0.3452 -0.6018  0.1186
 1376HK4    H2515584   4.612   8.942   4.968  2.7245 -1.5719  0.2854
 1377HK4    H2815585   2.786   0.425   1.034 -0.5700 -0.7556 -0.3666
 1377HK4    C4815586   2.875   0.412   0.974  0.1303  0.3275  0.4334
 1377HK4    C4715587   2.997   0.412   1.041  0.2787  0.1515  0.1657
 1377HK4    H2715588   3.000   0.395   1.150 -2.8095 -0.1823  0.2305
 1377HK4    C4615589   3.118   0.434   0.975  0.0824  0.9030  0.0411
 1377HK4    H2615590   3.209   0.415   1.035 -1.0890 -1.0373  1.2600
 1377HK4    C4015591   3.122   0.472   0.840  0.1480  0.5364 -0.0601
 1377HK4    C5015592   2.997   0.484   0.775  0.0216  0.0769  0.0925
 1377HK4    H3015593   2.988   0.529   0.675 -1.6709 -0.1541  0.1282
 1377HK4    C4915594   2.879   0.457   0.842  0.1479  0.5891  0.5218
 1377HK4    H2915595   2.789   0.498   0.794 -1.9910 -2.0111  2.1208
 1377HK4     N215596   3.244   0.467   0.771 -0.3365 -0.2334 -0.8752
 1377HK4    C3015597   3.353   0.382   0.795 -0.1610  0.3961  0.6149
 1377HK4    C2915598   3.359   0.259   0.860  0.8239 -0.2903 -0.7314
 1377HK4    H1515599   3.267   0.223   0.907  1.3215 -0.4974  0.0898
 1377HK4    C2815600   3.476   0.186   0.866  0.8753 -0.1472  0.1209
 1377HK4    C2715601   3.593   0.237   0.805  0.9468 -0.5868 -0.1174
 1377HK4    H1415602   3.688   0.193   0.838  0.4893 -0.9039  0.7832
 1377HK4    C3215603   3.589   0.359   0.738  0.0002 -0.5497 -0.0037
 1377HK4    H1615604   3.678   0.407   0.698  0.2973  0.9961  2.3950
 1377HK4    C3115605   3.472   0.434   0.730 -0.0050 -0.5442  0.1312
 1377HK4    C3415606   3.425   0.551   0.658 -0.1195 -0.7468 -0.1223
 1377HK4    C3315607   3.282   0.564   0.676 -0.0886  0.0698 -0.4620
 1377HK4    C3515608   3.220   0.672   0.615 -0.0453  0.5890  0.4048
 1377HK4    H1715609   3.114   0.688   0.637  0.1411  1.6651  0.5742
 1377HK4    C3615610   3.276   0.767   0.531 -0.2059 -0.0252 -0.3930
 1377HK4    H1815611   3.220   0.847   0.480  0.5290  0.6247 -0.1954
 1377HK4    C3715612   3.413   0.746   0.514 -0.0942  0.1441  0.2904
 1377HK4    H1915613   3.459   0.813   0.442  0.9486 -0.9385 -0.0587
 1377HK4    C3815614   3.487   0.647   0.579 -0.5467 -0.4475 -0.0886
 1377HK4    H2015615   3.594   0.661   0.569 -0.2300 -2.8437 -0.3113
 1377HK4    C1415616   3.479   0.079   0.967 -0.1040  0.0848  0.3912
 1377HK4     C915617   3.580   0.051   1.058  0.1535  0.4987  0.2336
 1377HK4     C815618   3.609  11.165   1.093  0.6433  0.4605 -0.3077
 1377HK4    C1115619   3.528  11.064   1.040  0.5647  0.6253 -0.5104
 1377HK4     H415620   3.542  10.957   1.062 -0.2908  0.8590  1.2921
 1377HK4    C1215621   3.422  11.093   0.956  0.3267 -0.3493 -0.5435
 1377HK4     H515622   3.375  11.013   0.896 -2.5739 -0.4914  1.8303
 1377HK4    C1315623   3.396  11.224   0.917  0.7265 -0.2194 -0.3814
 1377HK4     H615624   3.310  11.244   0.852  0.0326  0.7535  0.8185
 1377HK4     C715625   3.707  11.131   1.198  0.2674  0.0295 -0.0947
 1377HK4     O215626   3.739  11.013   1.216  0.0240  0.0011  0.1704
 1377HK4     C415627   3.756  11.241   1.285  0.1169 -0.3143  0.4284
 1377HK4     C315628   3.833  11.214   1.397  0.1422 -0.0345  0.4776
 1377HK4     H315629   3.812  11.120   1.451  0.1106  1.0963  2.4833
 1377HK4     C215630   3.908   0.061   1.465 -0.4159  0.4651  0.3928
 1377HK4     H215631   3.922   0.059   1.574 -1.0689  1.3712  0.5010
 1377HK4     C115632   3.925   0.184   1.402  0.3194 -0.1083 -0.5511
 1377HK4     H115633   3.973   0.264   1.461  2.4152 -1.3196 -0.5870
 1377HK4     C615634   3.852   0.217   1.286  0.0481  0.0424 -0.3388
 1377HK4     C515635   3.760   0.124   1.235 -0.1011 -0.2790  0.5008
 1377HK4    C1015636   3.656   0.156   1.133  1.2226  0.3770 -0.6622
 1377HK4     O115637   3.615   0.272   1.128  0.3787  0.1268  0.3042
 1377HK4    C1615638   3.916   0.321   1.205  0.0712 -0.2706 -0.7285
 1377HK4    C1515639   4.056   0.323   1.192  0.1258 -0.4379 -0.1957
 1377HK4     H715640   4.102   0.224   1.180 -0.5825 -0.6312 -1.3387
 1377HK4    C2015641   4.139   0.435   1.176 -0.0269 -0.2980 -0.0064
 1377HK4     H915642   4.244   0.427   1.203 -0.2062 -0.4047  0.6804
 1377HK4    C1915643   4.081   0.561   1.170 -0.1093 -0.3220  0.2567
 1377HK4    C1815644   3.937   0.563   1.184 -0.1865 -0.1913 -0.5527
 1377HK4    C1715645   3.860   0.448   1.198  0.0139 -0.2537  0.0174
 1377HK4     H815646   3.757   0.464   1.233  1.1646  0.0522  3.4990
 1377HK4     N115647   3.887   0.692   1.159  0.1045  0.0875  0.3027
 1377HK4    C2115648   3.999   0.772   1.125  0.0571  0.1367  0.2649
 1377HK4    C2215649   4.121   0.699   1.149 -0.1435 -0.3931 -0.3009
 1377HK4    C2615650   4.244   0.756   1.119 -0.2384  0.2541  0.5091
 1377HK4    H1315651   4.329   0.688   1.121 -1.5824 -1.5288 -1.1571
 1377HK4    C2515652   4.255   0.882   1.061 -0.4459  0.0334 -0.0181
 1377HK4    H1215653   4.347   0.933   1.034 -0.7630  0.0993 -0.9764
 1377HK4    C2415654   4.137   0.949   1.031 -0.2714  0.3807  0.0586
 1377HK4    H1115655   4.128   1.043   0.974 -0.7658  1.8146  2.4597
 1377HK4    C2315656   4.012   0.892   1.056 -0.1020 -0.0854 -0.1579
 1377HK4    H1015657   3.930   0.938   1.001  1.2694  2.3200 -0.2832
 1377HK4    C3915658   3.753   0.731   1.145  0.1310  0.0780  0.0121
 1377HK4    C4115659   3.716   0.864   1.174 -0.2206 -0.0121 -0.0215
 1377HK4    H2115660   3.788   0.916   1.239 -0.0574  2.3570 -2.0244
 1377HK4    C4215661   3.601   0.928   1.130 -0.1765 -0.0659 -0.2135
 1377HK4    H2215662   3.569   1.027   1.166 -2.1333 -0.7462 -0.0199
 1377HK4    C4315663   3.520   0.858   1.042  0.3634 -0.4540 -0.4011
 1377HK4    H2315664   3.431   0.908   1.004  1.0077  0.7074 -0.4006
 1377HK4    C4415665   3.546   0.724   1.013 -0.1921 -0.7177  0.3250
 1377HK4    H2415666   3.493   0.678   0.928 -0.7671  1.5845 -0.6148
 1377HK4    C4515667   3.663   0.665   1.059  0.3083 -0.0474 -0.0790
 1377HK4    H2515668   3.681   0.561   1.027  0.9920  0.2729 -0.7399
 1378HK4    H2815669   7.670   4.939   6.170 -1.8559 -0.3598 -1.4292
 1378HK4    C4815670   7.618   4.917   6.263  0.2001 -0.4728 -0.2687
 1378HK4    C4715671   7.652   4.999   6.370 -0.3426 -1.0158  0.3215
 1378HK4    H2715672   7.743   5.060   6.361 -0.9849 -0.1826 -0.5449
 1378HK4    C4615673   7.583   5.006   6.491  0.1779 -0.1718  0.5730
 1378HK4    H2615674   7.608   5.069   6.578 -1.8157 -1.4629  2.1205
 1378HK4    C4015675   7.471   4.921   6.507 -0.0738  0.0008 -0.2329
 1378HK4    C5015676   7.437   4.841   6.396 -0.6824 -0.0747  0.0107
 1378HK4    H3015677   7.347   4.779   6.407 -1.1853  0.2060 -2.2622
 1378HK4    C4915678   7.510   4.831   6.278  0.0769 -0.1883  0.4882
 1378HK4    H2915679   7.507   4.741   6.215 -3.0997 -0.8449  1.4820
 1378HK4     N215680   7.387   4.922   6.619 -0.1419  0.0529 -0.2845
 1378HK4    C3015681   7.325   4.810   6.677 -0.3937  0.4727  0.2623
 1378HK4    C2915682   7.369   4.678   6.669 -0.6908  0.3713  0.3160
 1378HK4    H1515683   7.445   4.644   6.599 -0.3247 -1.6844  1.6640
 1378HK4    C2815684   7.311   4.587   6.757 -0.2346 -0.3715 -0.1533
 1378HK4    C2715685   7.204   4.623   6.840 -0.2385  0.0769 -0.3509
 1378HK4    H1415686   7.142   4.548   6.892  2.0471 -1.9987 -0.5096
 1378HK4    C3215687   7.165   4.756   6.839 -0.1879  0.0936 -0.1133
 1378HK4    H1615688   7.098   4.776   6.924 -0.5566  1.0071 -0.6063
 1378HK4    C3115689   7.222   4.860   6.766 -0.4077  0.4720  0.2496
 1378HK4    C3415690   7.227   5.005   6.772 -0.1489  0.4995 -0.5871
 1378HK4    C3315691   7.325   5.038   6.670  0.1740  0.2574 -0.3586
 1378HK4    C3515692   7.349   5.172   6.641  0.2988  0.3573  0.2042
 1378HK4    H1715693   7.420   5.211   6.568 -0.9794  1.0547 -0.6847
 1378HK4    C3615694   7.270   5.262   6.712  0.1669  0.2841  0.1501
 1378HK4    H1815695   7.259   5.362   6.668 -0.8640 -0.4310 -1.2507
 1378HK4    C3715696   7.175   5.233   6.809 -0.3870  0.5670 -0.3078
 1378HK4    H1915697   7.107   5.312   6.841  0.5724  1.6034 -0.8231
 1378HK4    C3815698   7.151   5.099   6.839  0.1421  0.4868 -0.2384
 1378HK4    H2015699   7.088   5.065   6.922 -0.3544  2.2965  0.1644
 1378HK4    C1415700   7.357   4.447   6.753  0.0684 -0.2899  0.4012
 1378HK4     C915701   7.279   4.340   6.799 -0.6378  0.2287  0.4268
 1378HK4     C815702   7.338   4.236   6.874 -0.3700 -0.1904 -0.3574
 1378HK4    C1115703   7.475   4.230   6.893 -0.4622  0.0123  0.4026
 1378HK4     H415704   7.519   4.145   6.948 -1.1086  1.6105  3.4690
 1378HK4    C1215705   7.558   4.326   6.835 -0.2713 -0.5226 -0.2152
 1378HK4     H515706   7.666   4.328   6.855 -0.2085  0.6849 -0.6937
 1378HK4    C1315707   7.496   4.430   6.768  0.1497 -0.3985 -0.4133
 1378HK4     H615708   7.560   4.495   6.706 -0.0631  1.1525  0.9597
 1378HK4     C715709   7.252   4.132   6.934 -0.1537  0.1407  0.5407
 1378HK4     O215710   7.303   4.044   7.003  0.2767 -0.2925 -0.3273
 1378HK4     C415711   7.105   4.140   6.915 -0.0614  0.0547 -0.2530
 1378HK4     C315712   7.026   4.038   6.967 -0.0225 -0.0794 -0.4563
 1378HK4     H315713   7.064   3.958   7.032 -0.4221  2.7010  3.3744
 1378HK4     C215714   6.888   4.035   6.952 -0.0269  0.0673 -0.4552
 1378HK4     H215715   6.836   3.940   6.973  2.5766 -1.5402 -0.9722
 1378HK4     C115716   6.828   4.147   6.896 -0.2037  0.0513 -0.2999
 1378HK4     H115717   6.720   4.133   6.887 -0.3652  0.1225  1.3279
 1378HK4     C615718   6.903   4.257   6.850 -0.3666  0.2143 -0.1744
 1378HK4     C515719   7.042   4.244   6.843 -0.4175 -0.2288 -0.3505
 1378HK4    C1015720   7.134   4.333   6.767 -0.5009  0.0298 -0.1521
 1378HK4     O115721   7.111   4.356   6.648 -0.0481  0.1901 -0.2110
 1378HK4    C1615722   6.836   4.387   6.868  0.2508  0.5015  0.0695
 1378HK4    C1515723   6.756   4.418   6.979  0.0289 -0.2559  0.1216
 1378HK4     H715724   6.736   4.343   7.058  0.3144  0.7579  1.1662
 1378HK4    C2015725   6.688   4.539   6.992 -0.1488 -0.3369 -0.0555
 1378HK4     H915726   6.611   4.555   7.067 -0.4781  3.7454 -1.1669
 1378HK4    C1915727   6.708   4.638   6.896 -0.2409 -0.1468  0.1225
 1378HK4    C1815728   6.790   4.607   6.781  0.2318  0.1343  0.3816
 1378HK4    C1715729   6.842   4.479   6.763 -0.3606  0.0008 -0.4047
 1378HK4     H815730   6.875   4.440   6.667  0.7556 -0.2807  0.0895
 1378HK4     N115731   6.808   4.723   6.704 -0.0972 -0.0897 -0.0308
 1378HK4    C2115732   6.742   4.829   6.770  0.2051  0.0118  0.1090
 1378HK4    C2215733   6.672   4.778   6.886  0.1690 -0.0428  0.0652
 1378HK4    C2615734   6.595   4.866   6.961  0.0500  0.2302 -0.3826
 1378HK4    H1315735   6.538   4.823   7.044  3.6294  1.3327  2.7663
 1378HK4    C2515736   6.584   5.000   6.925 -0.1306  0.3211  0.0036
 1378HK4    H1215737   6.503   5.059   6.967 -0.0470 -0.4479  1.2735
 1378HK4    C2415738   6.657   5.054   6.819  0.1662  0.2113  0.1496
 1378HK4    H1115739   6.651   5.161   6.793 -0.8331 -0.1187 -1.0566
 1378HK4    C2315740   6.735   4.965   6.746 -0.1938 -0.0192  0.0436
 1378HK4    H1015741   6.798   4.998   6.663 -0.6293 -1.1231 -0.7317
 1378HK4    C3915742   6.889   4.746   6.592  0.0552  0.2537  0.1482
 1378HK4    C4115743   6.851   4.840   6.494 -0.1504 -0.3278 -0.3341
 1378HK4    H2115744   6.743   4.858   6.496 -0.0944  0.0657 -0.6693
 1378HK4    C4215745   6.930   4.869   6.383 -0.1429 -0.4055 -0.3471
 1378HK4    H2215746   6.912   4.960   6.323  0.0463  0.0658  0.2988
 1378HK4    C4315747   7.046   4.795   6.360 -0.0017 -0.2694 -0.0874
 1378HK4    H2315748   7.091   4.790   6.261  0.1930  1.5112 -0.1102
 1378HK4    C4415749   7.081   4.698   6.453  0.0583  0.3964  0.5874
 1378HK4    H2415750   7.144   4.615   6.420  0.3990  0.3652  1.3022
 1378HK4    C4515751   7.012   4.680   6.573 -0.0512 -0.0378  0.4601
 1378HK4    H2515752   7.046   4.602   6.642  0.2007  1.0242  1.5596
 1379HK4    H2815753   4.548   8.484   9.113  0.0810 -0.5403 -1.8868
 1379HK4    C4815754   4.648   8.526   9.101  0.1180 -0.1066 -0.1421
 1379HK4    C4715755   4.736   8.561   9.203 -0.0802 -0.0634  0.0161
 1379HK4    H2715756   4.695   8.541   9.303 -2.0653 -0.5741 -0.8653
 1379HK4    C4615757   4.860   8.620   9.181 -0.2051  0.2639  0.2056
 1379HK4    H2615758   4.934   8.632   9.261  0.2824  1.5264 -0.4244
 1379HK4    C4015759   4.901   8.640   9.047  0.3077 -0.7960  0.1972
 1379HK4    C5015760   4.817   8.596   8.943 -0.1396 -0.1782  0.2937
 1379HK4    H3015761   4.863   8.584   8.844 -1.4574 -0.6730 -0.2714
 1379HK4    C4915762   4.688   8.552   8.971 -0.3984  0.2475 -0.2315
 1379HK4    H2915763   4.621   8.533   8.886  0.4560 -3.2466 -0.2113
 1379HK4     N215764   5.016   8.714   9.016 -0.2536 -0.0625 -0.1436
 1379HK4    C3015765   5.136   8.730   9.088 -0.3038  0.0849 -0.0895
 1379HK4    C2915766   5.200   8.642   9.174  0.0535  0.2864 -0.1481
 1379HK4    H1515767   5.142   8.555   9.207  2.0187 -0.6696  0.8840
 1379HK4    C2815768   5.332   8.653   9.215  0.0288 -0.4449  0.1413
 1379HK4    C2715769   5.401   8.771   9.179 -0.2235 -0.4284 -0.2916
 1379HK4    H1415770   5.496   8.797   9.228 -0.4719 -1.8009  0.9597
 1379HK4    C3215771   5.339   8.866   9.099  0.1772 -0.1742 -0.3029
 1379HK4    H1615772   5.394   8.957   9.075 -0.3995  0.3192  0.2271
 1379HK4    C3115773   5.209   8.850   9.052  0.0714 -0.1183 -0.0278
 1379HK4    C3415774   5.130   8.908   8.945 -0.1837  0.5270  0.5047
 1379HK4    C3315775   5.014   8.823   8.926  0.2324  0.0679  0.0003
 1379HK4    C3515776   4.922   8.861   8.829  0.4154 -0.2925 -0.3157
 1379HK4    H1715777   4.836   8.797   8.812  2.3101 -2.8861 -0.3997
 1379HK4    C3615778   4.940   8.974   8.750  0.3037 -0.1269 -0.1058
 1379HK4    H1815779   4.866   9.008   8.675  2.8626  0.7636 -2.2943
 1379HK4    C3715780   5.053   9.054   8.764  0.0432  0.2624 -0.2128
 1379HK4    H1915781   5.066   9.133   8.690  0.3331 -1.9763 -2.6226
 1379HK4    C3815782   5.144   9.019   8.863 -0.2000  0.1258 -0.0372
 1379HK4    H2015783   5.223   9.091   8.881  1.2169 -1.3658 -0.2017
 1379HK4    C1415784   5.392   8.555   9.307 -0.0434 -0.5888  0.0303
 1379HK4     C915785   5.499   8.584   9.393 -0.4848 -0.1161  0.4224
 1379HK4     C815786   5.591   8.483   9.426 -0.3811 -0.0473  0.3519
 1379HK4    C1115787   5.573   8.352   9.382  0.2711 -0.2170  0.5942
 1379HK4     H415788   5.649   8.277   9.408  0.4874 -0.4064 -0.5528
 1379HK4    C1215789   5.462   8.317   9.305  0.1797  0.0648  0.5949
 1379HK4     H515790   5.458   8.216   9.261  0.4990 -0.8387  2.5932
 1379HK4    C1315791   5.372   8.418   9.278 -0.5533 -0.6159  0.4812
 1379HK4     H615792   5.270   8.391   9.247  0.1870 -0.7349 -1.9818
 1379HK4     C715793   5.722   8.515   9.487 -0.1647  0.0171 -0.1473
 1379HK4     O215794   5.779   8.431   9.556  0.1801  0.4709  0.1213
 1379HK4     C415795   5.756   8.657   9.505 -0.0709 -0.0214 -0.0331
 1379HK4     C315796   5.887   8.689   9.542 -0.0283 -0.2474  0.0126
 1379HK4     H315797   5.962   8.620   9.502  0.4630 -0.4660  1.3039
 1379HK4     C215798   5.916   8.815   9.593  0.0637 -0.1866 -0.1869
 1379HK4     H215799   6.022   8.839   9.613 -0.0786  1.3442 -1.2027
 1379HK4     C115800   5.815   8.907   9.617 -0.0940 -0.3422 -0.2606
 1379HK4     H115801   5.836   9.002   9.668 -0.4228  0.0983 -0.9367
 1379HK4     C615802   5.682   8.875   9.580 -0.2386  0.0362 -0.0653
 1379HK4     C515803   5.654   8.753   9.518 -0.2242 -0.2516  0.4869
 1379HK4    C1015804   5.520   8.712   9.465 -0.0978  0.1389 -0.1422
 1379HK4     O115805   5.419   8.762   9.512 -0.1294 -0.0637 -0.0007
 1379HK4    C1615806   5.584   8.965   9.642  0.2442  0.3425  0.2548
 1379HK4    C1515807   5.603   9.018   9.771  0.5229 -0.1401  0.4126
 1379HK4     H715808   5.655   8.963   9.852 -0.3518 -2.6207 -0.6736
 1379HK4    C2015809   5.540   9.134   9.816  0.1860 -0.3423  0.4544
 1379HK4     H915810   5.592   9.191   9.893 -0.8784 -0.8779  1.5877
 1379HK4    C1915811   5.444   9.195   9.736  0.9811  0.1511 -0.1264
 1379HK4    C1815812   5.426   9.142   9.602 -0.0386 -0.1647  0.1360
 1379HK4    C1715813   5.502   9.036   9.555 -0.1381 -0.2391  0.1434
 1379HK4     H815814   5.511   9.012   9.449  0.1554  0.7591 -0.0641
 1379HK4     N115815   5.331   9.215   9.527 -0.1672 -0.2119  0.2502
 1379HK4    C2115816   5.315   9.329   9.608  0.2739 -0.0960  0.1817
 1379HK4    C2215817   5.378   9.324   9.738 -0.1777 -0.4459  0.3902
 1379HK4    C2615818   5.373   9.427   9.831 -0.7323 -0.7698  0.7209
 1379HK4    H1315819   5.419   9.424   9.930 -0.3697 -0.4479  0.5601
 1379HK4    C2515820   5.287   9.531   9.797  0.2944 -0.4264 -0.8501
 1379HK4    H1215821   5.267   9.609   9.870 -0.5739 -3.0283  1.7811
 1379HK4    C2415822   5.221   9.543   9.675  0.1034  0.2671 -0.6796
 1379HK4    H1115823   5.148   9.626   9.673  1.0117  1.0994  0.1650
 1379HK4    C2315824   5.240   9.443   9.580  0.5330 -0.0382 -0.2740
 1379HK4    H1015825   5.188   9.447   9.485  0.2767  1.4304 -0.0767
 1379HK4    C3915826   5.237   9.154   9.443  0.3602  0.1271 -0.5843
 1379HK4    C4115827   5.175   9.226   9.339 -0.0541  0.2560 -0.2499
 1379HK4    H2115828   5.225   9.314   9.296 -3.1954  0.1444 -4.4223
 1379HK4    C4215829   5.064   9.178   9.270 -0.2933  0.1224  0.2300
 1379HK4    H2215830   5.042   9.216   9.169 -0.6509  1.3751  0.7666
 1379HK4    C4315831   5.017   9.053   9.309  0.2712 -0.2588 -0.3106
 1379HK4    H2315832   4.922   9.015   9.271 -1.9812  1.1604  3.5710
 1379HK4    C4415833   5.072   8.981   9.414  0.2139  0.3832  0.1587
 1379HK4    H2415834   5.012   8.901   9.459 -2.3480  1.9107 -0.4295
 1379HK4    C4515835   5.188   9.027   9.475 -0.2305  0.6954  0.7726
 1379HK4    H2515836   5.252   8.962   9.537 -0.1016 -0.4066 -0.5039
 1380HK4    H2815837   0.127  10.604   2.163 -0.0798  0.9529  0.5317
 1380HK4    C4815838   0.172  10.677   2.095 -0.0379  0.7229  0.3094
 1380HK4    C4715839   0.310  10.682   2.080 -0.0183 -0.1371  0.1788
 1380HK4    H2715840   0.382  10.621   2.136  0.6889 -1.9147 -2.5625
 1380HK4    C4615841   0.365  10.769   1.987  0.1148  0.0952  0.4751
 1380HK4    H2615842   0.471  10.770   1.956  0.4982  5.1465  1.4418
 1380HK4    C4015843   0.284  10.860   1.916  0.2538  0.2066  0.4591
 1380HK4    C5015844   0.145  10.858   1.936  0.1709  0.1697 -0.1151
 1380HK4    H3015845   0.075  10.900   1.862  1.5464  1.4545 -0.6957
 1380HK4    C4915846   0.091  10.764   2.023 -0.0956  0.2583 -0.1838
 1380HK4    H2915847  11.235  10.780   2.054  0.1165  1.3360 -0.0191
 1380HK4     N215848   0.341  10.945   1.820 -0.0677  0.1897  0.2528
 1380HK4    C3015849   0.456  10.915   1.745 -0.8833 -0.2140 -0.8501
 1380HK4    C2915850   0.493  10.798   1.680 -0.4728 -0.3344 -0.3992
 1380HK4    H1515851   0.452  10.702   1.713 -1.4385 -0.2438 -1.3253
 1380HK4    C2815852   0.598  10.792   1.589 -0.1449  0.1271 -0.0532
 1380HK4    C2715853   0.675  10.908   1.566  0.1890 -0.0018  0.4193
 1380HK4    H1415854   0.750  10.909   1.485 -0.4517  1.7819 -0.1754
 1380HK4    C3215855   0.641  11.026   1.631  0.1312  0.2309 -0.0250
 1380HK4    H1615856   0.696  11.119   1.620 -0.1358  0.5306  1.1363
 1380HK4    C3115857   0.530  11.036   1.714 -0.0354 -0.5470 -0.1496
 1380HK4    C3415858   0.460  11.147   1.774  0.6031 -0.2961  0.1355
 1380HK4    C3315859   0.343  11.085   1.834 -0.0581  0.2693 -0.5578
 1380HK4    C3515860   0.268  11.163   1.921 -0.3827  0.3955 -0.9446
 1380HK4    H1715861   0.165  11.131   1.939  0.6743 -1.4853  2.3415
 1380HK4    C3615862   0.304   0.042   1.965 -0.0393 -0.1087  0.2768
 1380HK4    H1815863   0.248   0.089   2.047 -1.0032  0.2735 -0.5748
 1380HK4    C3715864   0.418   0.101   1.911 -0.1315  0.1087  0.3175
 1380HK4    H1915865   0.457   0.199   1.938  1.1081 -0.4264  0.5425
 1380HK4    C3815866   0.490   0.028   1.817 -0.4566 -0.0643  0.2030
 1380HK4    H2015867   0.583   0.069   1.778 -0.9068 -0.8509 -1.7474
 1380HK4    C1415868   0.646  10.663   1.538  0.0891  0.1840  0.0171
 1380HK4     C915869   0.773  10.631   1.489  0.0707 -0.5900  0.4584
 1380HK4     C815870   0.794  10.547   1.378  0.2289  0.3905 -0.2654
 1380HK4    C1115871   0.686  10.486   1.316  0.0154  0.6144 -0.1106
 1380HK4     H415872   0.705  10.418   1.232 -0.7604  1.3038 -0.8574
 1380HK4    C1215873   0.559  10.506   1.370  0.0336  0.1902  0.0843
 1380HK4     H515874   0.477  10.467   1.307  0.0990 -1.8035  1.1950
 1380HK4    C1315875   0.541  10.589   1.479  0.1390 -0.1901  0.3925
 1380HK4     H615876   0.437  10.611   1.509 -0.7282 -1.9151 -1.2555
 1380HK4     C715877   0.929  10.541   1.317  0.3271 -0.0894 -0.0042
 1380HK4     O215878   0.954  10.443   1.247 -0.0103 -0.5075  0.4545
 1380HK4     C415879   1.034  10.638   1.355  0.3544 -0.1564  0.0999
 1380HK4     C315880   1.154  10.647   1.286 -0.1124  0.1128 -0.6781
 1380HK4     H315881   1.176  10.585   1.197 -0.7687  0.5753 -1.1651
 1380HK4     C215882   1.247  10.746   1.315 -0.1754  0.2301 -0.8665
 1380HK4     H215883   1.351  10.742   1.279  0.6025 -0.9914  1.4524
 1380HK4     C115884   1.218  10.839   1.414 -0.0205 -0.8822  0.2268
 1380HK4     H115885   1.303  10.899   1.449  0.5385 -2.2123  1.1800
 1380HK4     C615886   1.100  10.828   1.491 -0.1177  0.0841  0.2195
 1380HK4     C515887   1.011  10.724   1.465 -0.6871  0.8311 -0.8752
 1380HK4    C1015888   0.891  10.700   1.549  0.0571 -0.1154 -0.0579
 1380HK4     O115889   0.897  10.698   1.672 -0.4008  0.1513 -0.0278
 1380HK4    C1615890   1.065  10.957   1.554  0.1625  0.4415 -0.3636
 1380HK4    C1515891   1.082  11.080   1.487  0.9388  0.4489 -0.1640
 1380HK4     H715892   1.151  11.077   1.402 -0.3733  1.4169 -1.2813
 1380HK4    C2015893   1.028  11.198   1.536 -0.2659 -0.1817  0.0310
 1380HK4     H915894   1.038   0.043   1.479  0.5109 -0.0948  0.3078
 1380HK4    C1915895   0.956  11.193   1.656 -0.3231  0.0870  0.0098
 1380HK4    C1815896   0.965  11.079   1.745 -0.3267 -0.0037 -0.1068
 1380HK4    C1715897   1.025  10.968   1.686 -0.0920  0.2899 -0.4274
 1380HK4     H815898   1.059  10.888   1.753 -3.0498 -0.4646  0.2656
 1380HK4     N115899   0.917  11.112   1.873  0.0394 -0.2318  0.0902
 1380HK4    C2115900   0.864  11.242   1.861  0.3421 -0.0522  0.6742
 1380HK4    C2215901   0.882   0.046   1.727  0.4879  0.1511  0.7733
 1380HK4    C2615902   0.832   0.174   1.703 -0.2587 -0.4146 -0.7089
 1380HK4    H1315903   0.840   0.212   1.601 -3.3709  1.5786 -0.2876
 1380HK4    C2515904   0.772   0.246   1.805 -0.5466 -0.7017 -0.6738
 1380HK4    H1215905   0.765   0.354   1.793  1.0853 -0.4410  0.5969
 1380HK4    C2415906   0.758   0.197   1.934  0.0999  0.0850 -0.3016
 1380HK4    H1115907   0.716   0.260   2.014 -0.6564 -0.0515 -0.5897
 1380HK4    C2315908   0.802   0.068   1.961  0.4379  0.3533  0.4312
 1380HK4    H1015909   0.756   0.021   2.048  0.2234  1.7571  1.0908
 1380HK4    C3915910   0.861  11.013   1.955 -0.3728  0.0084  0.0931
 1380HK4    C4115911   0.843  11.033   2.094 -0.1588  0.3619  0.0706
 1380HK4    H2115912   0.886  11.119   2.147 -1.1058  0.5566  0.5303
 1380HK4    C4215913   0.790  10.933   2.175 -0.4789 -0.0282 -0.6102
 1380HK4    H2215914   0.772  10.963   2.280 -3.0893  0.1352 -1.0731
 1380HK4    C4315915   0.739  10.818   2.116 -0.2367 -0.4163 -0.0662
 1380HK4    H2315916   0.719  10.736   2.186 -0.9056 -0.5464 -0.4156
 1380HK4    C4415917   0.741  10.806   1.978  0.1275 -0.2651 -0.0748
 1380HK4    H2415918   0.681  10.735   1.919  0.9714  0.6927 -2.1409
 1380HK4    C4515919   0.807  10.897   1.896  0.5435 -0.4167  0.0889
 1380HK4    H2515920   0.793  10.886   1.788  0.2059 -2.1204  0.2866
 1381HK4    H2815921   4.490   7.395   5.823 -3.3287 -1.2868  0.8591
 1381HK4    C4815922   4.464   7.441   5.728  0.0900 -0.2243  0.3724
 1381HK4    C4715923   4.499   7.571   5.695  0.6382 -0.6078 -0.5744
 1381HK4    H2715924   4.577   7.625   5.751  0.8382  0.9194 -2.2798
 1381HK4    C4615925   4.453   7.628   5.577  0.1975  0.1871 -0.0276
 1381HK4    H2615926   4.498   7.723   5.545 -0.5757  1.1975  1.8239
 1381HK4    C4015927   4.358   7.563   5.494  0.2078  0.0987  0.0295
 1381HK4    C5015928   4.324   7.431   5.531 -0.0148  0.0888 -0.2146
 1381HK4    H3015929   4.250   7.376   5.471 -0.1853 -1.7994  1.7050
 1381HK4    C4915930   4.379   7.371   5.643 -0.1287  0.4421  0.0346
 1381HK4    H2915931   4.320   7.286   5.680 -0.1645  0.6380  0.4273
 1381HK4     N215932   4.297   7.629   5.386 -0.5768 -0.2704  0.2440
 1381HK4    C3015933   4.278   7.767   5.365  0.4674 -0.1681 -0.0761
 1381HK4    C2915934   4.252   7.868   5.457 -0.2576 -0.1515 -0.2948
 1381HK4    H1515935   4.268   7.845   5.562  1.2844 -0.7262 -0.6346
 1381HK4    C2815936   4.216   7.998   5.425  0.5605  0.2597  0.4411
 1381HK4    C2715937   4.207   8.026   5.287  0.2848 -0.3181  0.3408
 1381HK4    H1415938   4.216   8.128   5.247  2.2293 -0.3940  0.5402
 1381HK4    C3215939   4.230   7.930   5.189 -0.2137 -0.2134  0.1202
 1381HK4    H1615940   4.205   7.948   5.084  0.7322  0.7572  0.0515
 1381HK4    C3115941   4.257   7.799   5.225  0.0171 -0.2041 -0.0173
 1381HK4    C3415942   4.251   7.670   5.158 -0.2983 -0.0791 -0.2302
 1381HK4    C3315943   4.278   7.570   5.260  0.5937  0.2186 -0.1717
 1381HK4    C3515944   4.322   7.449   5.209  0.0810  0.1261 -0.4015
 1381HK4    H1715945   4.363   7.375   5.278  2.3443  1.5190 -0.2155
 1381HK4    C3615946   4.344   7.409   5.077 -0.5629 -1.0773 -0.1494
 1381HK4    H1815947   4.400   7.321   5.041  0.1330 -0.2093 -1.2079
 1381HK4    C3715948   4.321   7.511   4.986  0.2929 -0.5921  0.1764
 1381HK4    H1915949   4.329   7.486   4.880 -0.3902  1.5182 -0.3994
 1381HK4    C3815950   4.270   7.634   5.026  1.0720 -0.2022 -0.0045
 1381HK4    H2015951   4.256   7.713   4.952 -2.6053  1.3952  2.2707
 1381HK4    C1415952   4.185   8.106   5.520 -0.6402 -0.0692  0.4288
 1381HK4     C915953   4.138   8.230   5.476  0.0122  0.0160 -0.0297
 1381HK4     C815954   4.190   8.353   5.521  0.0754  0.0727 -0.2584
 1381HK4    C1115955   4.287   8.348   5.620 -0.2816 -0.0905  0.0885
 1381HK4     H415956   4.345   8.438   5.648 -0.0250 -0.0228 -0.6380
 1381HK4    C1215957   4.320   8.228   5.682 -0.0090 -0.1027 -0.0813
 1381HK4     H515958   4.394   8.232   5.763 -0.8985  0.8861  0.7070
 1381HK4    C1315959   4.274   8.108   5.630 -0.4360 -0.0903  0.2660
 1381HK4     H615960   4.291   8.015   5.686 -0.0666 -0.4598 -0.4506
 1381HK4     C715961   4.178   8.476   5.440  0.4046  0.4803  0.3118
 1381HK4     O215962   4.210   8.582   5.494 -0.0100  0.6399  0.2438
 1381HK4     C415963   4.106   8.471   5.311  0.5010 -0.1839  0.2801
 1381HK4     C315964   4.101   8.586   5.232  0.2826  0.0756  0.6721
 1381HK4     H315965   4.157   8.674   5.264  0.6544  0.3887 -0.8356
 1381HK4     C215966   4.035   8.586   5.109  0.4091 -0.0039  0.6059
 1381HK4     H215967   4.042   8.676   5.048  0.8775  0.1992  0.9498
 1381HK4     C115968   3.981   8.465   5.067  0.6179  0.0870  0.0771
 1381HK4     H115969   3.954   8.461   4.960 -0.1519 -0.6690  0.2996
 1381HK4     C615970   3.973   8.349   5.146  0.0137  0.0987  0.0363
 1381HK4     C515971   4.034   8.356   5.272 -0.4614  0.4206  0.2487
 1381HK4    C1015972   4.042   8.238   5.362 -0.2875  0.4370  0.2569
 1381HK4     O115973   3.937   8.184   5.393 -0.3794  0.4084 -0.1060
 1381HK4    C1615974   3.969   8.221   5.073 -0.9551  0.4313 -0.5036
 1381HK4    C1515975   4.047   8.201   4.958 -0.5059  0.2967 -0.1752
 1381HK4     H715976   4.128   8.274   4.943  0.8286 -1.3603 -1.2051
 1381HK4    C2015977   4.037   8.085   4.883 -0.3914 -0.0462  0.3305
 1381HK4     H915978   4.100   8.069   4.795  0.8046 -0.3402  1.2359
 1381HK4    C1915979   3.955   7.979   4.919 -0.2658 -0.2798 -0.0580
 1381HK4    C1815980   3.873   7.998   5.038  0.3747  0.1257  0.3178
 1381HK4    C1715981   3.879   8.119   5.105 -0.4915  0.2347  0.1920
 1381HK4     H815982   3.796   8.136   5.174  0.7358  2.9161  1.0972
 1381HK4     N115983   3.807   7.878   5.071  0.4095  0.0826  0.2354
 1381HK4    C2115984   3.844   7.782   4.974 -0.1917 -0.0904  0.1672
 1381HK4    C2215985   3.934   7.842   4.877 -0.1175 -0.3426  0.0807
 1381HK4    C2615986   4.013   7.761   4.796  0.0551 -0.4061  0.3090
 1381HK4    H1315987   4.056   7.809   4.709 -0.8496  1.4163  0.8545
 1381HK4    C2515988   4.011   7.622   4.810 -0.3673 -0.4580 -0.2583
 1381HK4    H1215989   4.083   7.563   4.754  0.9334 -0.2582  1.1731
 1381HK4    C2415990   3.936   7.565   4.911 -0.3176 -0.3138 -0.1404
 1381HK4    H1115991   3.972   7.469   4.952 -1.1259 -0.4642  0.2209
 1381HK4    C2315992   3.848   7.644   4.984  0.0739 -0.0875  0.0895
 1381HK4    H1015993   3.782   7.590   5.053  3.3109  0.2613  3.6121
 1381HK4    C3915994   3.775   7.846   5.203  0.2879  0.0647  0.2005
 1381HK4    C4115995   3.670   7.755   5.227  0.1779  0.1604  0.0815
 1381HK4    H2115996   3.593   7.741   5.149 -0.4582  3.8703 -0.0596
 1381HK4    C4215997   3.663   7.691   5.350  0.6857 -0.7460 -0.3566
 1381HK4    H2215998   3.577   7.623   5.361 -0.5903  0.8750 -0.1190
 1381HK4    C4315999   3.752   7.718   5.453 -0.1145  0.2541  0.0854
 1381HK4    H2316000   3.762   7.644   5.532 -1.0857  0.6876  0.6140
 1381HK4    C4416001   3.855   7.808   5.429  0.5535 -0.4346  0.3347
 1381HK4    H2416002   3.927   7.837   5.506  1.7385 -1.2431 -0.4594
 1381HK4    C4516003   3.871   7.867   5.304  0.1532 -0.2068  0.3882
 1381HK4    H2516004   3.960   7.925   5.272 -0.9069  0.3051 -1.7486
 1382HK4    H2816005  10.933   8.814   3.719 -0.7085  1.0156  0.7951
 1382HK4    C4816006  10.876   8.833   3.628  0.1720 -0.1559 -0.0134
 1382HK4    C4716007  10.945   8.859   3.510 -0.0424 -0.3442 -0.1807
 1382HK4    H2716008  11.040   8.806   3.494  1.0317  1.2054  0.8575
 1382HK4    C4616009  10.887   8.938   3.412 -0.0403 -0.1375 -0.0146
 1382HK4    H2616010  10.934   8.950   3.313 -1.2753  2.2087 -0.3523
 1382HK4    C4016011  10.751   8.974   3.415 -0.0743 -0.1854 -0.7947
 1382HK4    C5016012  10.686   8.951   3.538  0.4590  0.5789 -0.3674
 1382HK4    H3016013  10.578   8.972   3.543  0.3229 -0.3859  1.2393
 1382HK4    C4916014  10.744   8.875   3.639  0.3685  0.5592 -0.3308
 1382HK4    H2916015  10.705   8.837   3.734  1.5272  0.5606  0.1562
 1382HK4     N216016  10.690   9.057   3.321 -0.4135 -0.1100 -0.5127
 1382HK4    C3016017  10.749   9.169   3.258  0.4605 -0.6738 -0.7022
 1382HK4    C2916018  10.872   9.234   3.270  0.2024 -0.2094 -0.5747
 1382HK4    H1516019  10.945   9.188   3.337  1.5427  0.6490 -1.4305
 1382HK4    C2816020  10.903   9.342   3.188 -0.2989  0.4975  0.1604
 1382HK4    C2716021  10.818   9.387   3.086 -0.0700  0.2096 -0.1550
 1382HK4    H1416022  10.843   9.471   3.020  1.3006 -0.1038 -0.0406
 1382HK4    C3216023  10.694   9.326   3.070 -0.1773  0.2639  0.4289
 1382HK4    H1616024  10.613   9.363   3.007  0.0401  0.4510  0.2603
 1382HK4    C3116025  10.662   9.221   3.155 -0.2187  0.1612  0.2843
 1382HK4    C3416026  10.546   9.133   3.161  0.1361 -0.3731 -0.7228
 1382HK4    C3316027  10.563   9.033   3.264 -0.2107 -0.5134 -0.7984
 1382HK4    C3516028  10.470   8.931   3.281 -0.4688 -0.1296  0.1229
 1382HK4    H1716029  10.486   8.847   3.349 -1.1757 -0.6078 -0.2975
 1382HK4    C3616030  10.351   8.940   3.209 -0.5265  0.2320  0.2590
 1382HK4    H1816031  10.278   8.858   3.215  0.1803 -0.3814  0.7370
 1382HK4    C3716032  10.325   9.039   3.116 -0.3335  0.5256  0.5187
 1382HK4    H1916033  10.239   9.023   3.051 -0.7186 -1.7400  1.5554
 1382HK4    C3816034  10.425   9.133   3.093 -0.0567  0.0231 -0.3790
 1382HK4    H2016035  10.401   9.220   3.031  2.6371 -0.1346 -1.6974
 1382HK4    C1416036  11.021   9.419   3.230 -0.0352  0.2133 -0.0562
 1382HK4     C916037  11.037   9.552   3.189  0.1767  0.4561  0.8024
 1382HK4     C816038  11.161   9.601   3.144  0.2083  0.0014  0.4017
 1382HK4    C1116039   0.027   9.521   3.157 -0.0946 -0.5022  0.0194
 1382HK4     H416040   0.124   9.558   3.122  1.5815 -2.8107  2.1103
 1382HK4    C1216041   0.018   9.390   3.202  0.1697 -0.4085  0.3412
 1382HK4     H516042   0.106   9.328   3.220  0.2934 -0.5362 -0.6454
 1382HK4    C1316043  11.140   9.345   3.242 -0.1799 -0.0733 -0.3666
 1382HK4     H616044  11.129   9.244   3.285 -0.6240 -0.2189 -0.8181
 1382HK4     C716045  11.185   9.743   3.113 -0.0975 -0.1359 -0.4937
 1382HK4     O216046   0.024   9.770   3.030  0.0954 -0.7857 -0.5029
 1382HK4     C416047  11.075   9.838   3.140  0.0693 -0.1799  0.3494
 1382HK4     C316048  11.103   9.974   3.128 -0.0073 -0.1837  0.1076
 1382HK4     H316049  11.199  10.020   3.099  0.8098 -1.3773  0.8801
 1382HK4     C216050  11.011  10.073   3.160 -0.0700 -0.4734  0.8219
 1382HK4     H216051  11.046  10.177   3.163  0.3913 -0.6455  1.5508
 1382HK4     C116052  10.881  10.028   3.183 -0.2435 -0.3043  0.2091
 1382HK4     H116053  10.809  10.107   3.209  0.2272  0.9167 -2.0419
 1382HK4     C616054  10.845   9.892   3.189 -0.2991 -0.3257 -0.6478
 1382HK4     C516055  10.947   9.796   3.183 -0.0978 -0.1461 -0.1215
 1382HK4    C1016056  10.929   9.652   3.215 -0.6997 -0.1500 -0.4760
 1382HK4     O116057  10.828   9.621   3.277 -0.3173 -0.0804  0.1825
 1382HK4    C1616058  10.701   9.866   3.185 -0.2975 -0.3407 -0.5911
 1382HK4    C1516059  10.620   9.940   3.096  0.0925  0.2003 -0.4958
 1382HK4     H716060  10.661   9.977   3.001 -0.3312  0.8452 -0.4320
 1382HK4    C2016061  10.489   9.977   3.124  0.1723 -0.1593  0.3741
 1382HK4     H916062  10.427  10.030   3.052  0.9753  0.5522  0.2091
 1382HK4    C1916063  10.436   9.933   3.245  0.2073  0.0751  0.4722
 1382HK4    C1816064  10.514   9.854   3.339  0.4643 -0.0936  0.1192
 1382HK4    C1716065  10.645   9.824   3.305  0.3226 -0.2679 -0.2773
 1382HK4     H816066  10.708   9.795   3.389  0.7470 -1.1591 -0.8961
 1382HK4     N116067  10.434   9.815   3.449  0.2885 -0.9128 -0.3024
 1382HK4    C2116068  10.311   9.879   3.431  0.3977 -0.5982  0.0570
 1382HK4    C2216069  10.306   9.953   3.306  0.0056 -0.3824  0.1973
 1382HK4    C2616070  10.191  10.022   3.271  0.0148 -0.4231  0.0932
 1382HK4    H1316071  10.201  10.110   3.209  0.6467  0.2988  1.1927
 1382HK4    C2516072  10.073   9.999   3.342  0.2398 -0.1272  0.5705
 1382HK4    H1216073   9.979  10.044   3.309  0.1990 -1.3170 -1.0025
 1382HK4    C2416074  10.078   9.926   3.459 -0.1140  0.0964  0.7261
 1382HK4    H1116075   9.983   9.919   3.515  0.3573 -2.0835  1.3329
 1382HK4    C2316076  10.196   9.873   3.510  0.3200  0.4046  0.0296
 1382HK4    H1016077  10.201   9.842   3.614  0.1916 -0.2050 -0.1477
 1382HK4    C3916078  10.480   9.759   3.569 -0.0691 -0.2460  0.1430
 1382HK4    C4116079  10.396   9.679   3.649 -0.1716 -0.2463  0.0358
 1382HK4    H2116080  10.311   9.635   3.595  1.3105 -2.5212 -0.4726
 1382HK4    C4216081  10.436   9.637   3.775  0.1892  0.0892  0.0352
 1382HK4    H2216082  10.390   9.545   3.814  0.9051 -0.2872  0.0066
 1382HK4    C4316083  10.558   9.674   3.829  0.4814 -0.7201 -0.0553
 1382HK4    H2316084  10.584   9.650   3.932 -1.5058  0.9318  0.8879
 1382HK4    C4416085  10.638   9.761   3.755 -0.4201  0.1733  0.0122
 1382HK4    H2416086  10.738   9.780   3.797 -0.7477  0.4282  0.7026
 1382HK4    C4516087  10.598   9.806   3.630  0.1846 -0.2586 -0.3350
 1382HK4    H2516088  10.648   9.889   3.578 -1.2915  1.5246  0.9894
 1383HK4    H2816089  10.794   7.819   5.171  1.4248 -1.7284 -0.9241
 1383HK4    C4816090  10.713   7.829   5.098  0.3942  0.1791  0.4343
 1383HK4    C4716091  10.582   7.865   5.129 -0.1480 -1.1174 -0.2607
 1383HK4    H2716092  10.559   7.885   5.235  4.8295  1.8442  0.4444
 1383HK4    C4616093  10.485   7.890   5.034  0.1561 -0.6540 -0.4484
 1383HK4    H2616094  10.382   7.914   5.063  0.2244 -0.5953 -0.2548
 1383HK4    C4016095  10.515   7.881   4.896  0.6534 -0.1028 -0.3819
 1383HK4    C5016096  10.649   7.856   4.861  0.6471 -0.0881 -0.4216
 1383HK4    H3016097  10.690   7.866   4.760  0.1407 -0.9788 -0.7137
 1383HK4    C4916098  10.739   7.824   4.962 -0.4031 -0.7795  0.3064
 1383HK4    H2916099  10.848   7.824   4.942 -0.4358  3.3836 -0.1799
 1383HK4     N216100  10.416   7.860   4.799  0.4279  0.3786 -0.2522
 1383HK4    C3016101  10.285   7.809   4.816  0.4384  0.3496 -0.2442
 1383HK4    C2916102  10.227   7.768   4.936  0.1165 -0.4292 -0.6677
 1383HK4    H1516103  10.283   7.733   5.023  0.0153  0.2085 -0.3508
 1383HK4    C2816104  10.090   7.748   4.946  0.0079  0.5118 -0.2954
 1383HK4    C2716105  10.012   7.742   4.829 -0.9119 -0.1288  0.3504
 1383HK4    H1416106   9.913   7.693   4.823  0.5464 -3.1172 -0.6632
 1383HK4    C3216107  10.067   7.784   4.709  0.2132 -0.3220  0.7958
 1383HK4    H1616108  10.003   7.793   4.621 -1.4658  0.8815  2.1160
 1383HK4    C3116109  10.197   7.834   4.704 -0.0936  0.4258  0.1921
 1383HK4    C3416110  10.271   7.923   4.617 -0.0670 -0.3022 -0.5435
 1383HK4    C3316111  10.401   7.933   4.680 -0.2196  0.1844 -0.2927
 1383HK4    C3516112  10.498   8.012   4.619 -0.4700  0.5991 -0.1533
 1383HK4    H1716113  10.589   8.041   4.671  0.1019  1.4571 -1.5806
 1383HK4    C3616114  10.469   8.081   4.501 -0.0683 -0.3507 -0.8142
 1383HK4    H1816115  10.550   8.130   4.445 -0.0171  0.7728  0.1999
 1383HK4    C3716116  10.340   8.085   4.450 -0.3929  0.5018  0.0499
 1383HK4    H1916117  10.319   8.140   4.358  0.2723 -0.2817 -0.5754
 1383HK4    C3816118  10.241   8.009   4.512 -0.2488  0.2111 -0.0778
 1383HK4    H2016119  10.138   8.020   4.478 -0.3229  0.6659  0.2897
 1383HK4    C1416120  10.036   7.744   5.083  0.2597  0.2289 -0.2045
 1383HK4     C916121   9.904   7.704   5.107  0.0620  0.7026 -0.4993
 1383HK4     C816122   9.822   7.777   5.195 -0.4989  0.1723 -0.5846
 1383HK4    C1116123   9.877   7.890   5.254  0.3064 -0.6608  0.2818
 1383HK4     H416124   9.805   7.954   5.307 -0.3374 -1.7915  0.8086
 1383HK4    C1216125  10.011   7.924   5.242  0.0463  0.4006  0.3504
 1383HK4     H516126  10.048   8.015   5.292 -0.8661 -0.5075  2.7540
 1383HK4    C1316127  10.093   7.846   5.162 -0.3172  0.4735 -0.1019
 1383HK4     H616128  10.200   7.864   5.180 -0.3509  0.7526 -0.1724
 1383HK4     C716129   9.685   7.731   5.229 -0.2492 -0.0783  0.0978
 1383HK4     O216130   9.619   7.790   5.315 -0.1155  0.0609  0.1038
 1383HK4     C416131   9.630   7.610   5.165  0.1959 -0.0002 -0.4324
 1383HK4     C316132   9.496   7.582   5.188  0.4688 -0.5701  0.5170
 1383HK4     H316133   9.445   7.643   5.264  0.7956  0.4863 -0.1082
 1383HK4     C216134   9.431   7.489   5.107 -0.1760  0.5921 -0.3206
 1383HK4     H216135   9.350   7.426   5.148  1.6724 -0.4005  1.9394
 1383HK4     C116136   9.509   7.439   5.003 -0.0641  0.3836 -0.1366
 1383HK4     H116137   9.448   7.386   4.929  0.1554  0.8591 -0.6606
 1383HK4     C616138   9.643   7.469   4.972 -0.1265  0.5141 -0.2876
 1383HK4     C516139   9.710   7.545   5.069  0.4374 -0.2783 -0.0466
 1383HK4    C1016140   9.854   7.576   5.051  0.3749  0.2237  0.3105
 1383HK4     O116141   9.935   7.483   5.038 -0.1594 -0.2574  0.4071
 1383HK4    C1616142   9.674   7.460   4.828 -0.3071  0.0260 -0.2977
 1383HK4    C1516143   9.574   7.494   4.735 -0.2375  0.0654 -0.3563
 1383HK4     H716144   9.494   7.557   4.775 -0.7602  0.8601 -2.5330
 1383HK4    C2016145   9.581   7.457   4.601 -0.2680  0.0783 -0.3614
 1383HK4     H916146   9.510   7.492   4.526 -1.6371 -0.7334  0.5356
 1383HK4    C1916147   9.685   7.371   4.567 -0.2343  0.1247 -0.3773
 1383HK4    C1816148   9.790   7.335   4.660 -0.2201  0.2819 -0.3316
 1383HK4    C1716149   9.781   7.378   4.791 -0.0923  0.3207 -0.3348
 1383HK4     H816150   9.862   7.343   4.854 -0.5089 -1.0198 -0.5218
 1383HK4     N116151   9.882   7.243   4.605 -0.0200 -0.0731  0.6055
 1383HK4    C2116152   9.821   7.197   4.487  0.0027  0.0401  0.5506
 1383HK4    C2216153   9.705   7.278   4.457 -0.1380 -0.3473  0.0394
 1383HK4    C2616154   9.616   7.237   4.358 -0.9840 -0.5803  0.8801
 1383HK4    H1316155   9.537   7.306   4.329 -2.7306 -2.3887  1.3149
 1383HK4    C2516156   9.636   7.116   4.293 -0.2812 -0.2587  0.4812
 1383HK4    H1216157   9.560   7.081   4.223 -1.2853 -0.6303  1.7386
 1383HK4    C2416158   9.750   7.041   4.319 -0.2045 -0.1871  0.3373
 1383HK4    H1116159   9.774   6.956   4.253  0.9535 -0.8443  1.5785
 1383HK4    C2316160   9.835   7.074   4.424  0.3618  0.5349 -0.3464
 1383HK4    H1016161   9.934   7.028   4.416 -1.2307 -3.2860  0.6181
 1383HK4    C3916162  10.017   7.280   4.616  0.0019  0.1729 -0.4656
 1383HK4    C4116163  10.118   7.183   4.631  0.1530  0.3860 -0.1323
 1383HK4    H2116164  10.087   7.081   4.659 -1.1186  1.1208  1.1876
 1383HK4    C4216165  10.253   7.216   4.624  0.3431 -0.3148  0.1492
 1383HK4    H2216166  10.322   7.137   4.657 -0.3480 -1.6414 -1.5373
 1383HK4    C4316167  10.293   7.348   4.607 -0.1015 -0.1841  0.1118
 1383HK4    H2316168  10.396   7.369   4.579 -0.5147  1.8432  0.0433
 1383HK4    C4416169  10.194   7.443   4.588 -0.1248 -0.0176  1.0358
 1383HK4    H2416170  10.217   7.550   4.575  2.1022 -0.2690  2.5838
 1383HK4    C4516171  10.059   7.410   4.584 -0.1625  0.2811 -0.2383
 1383HK4    H2516172   9.983   7.482   4.549 -0.0024  0.5588 -0.0244
 1384HK4    H2816173  10.223  10.815   7.848  0.8455  2.1834 -0.2871
 1384HK4    C4816174  10.133  10.862   7.885 -0.0818  0.1339  0.1342
 1384HK4    C4716175  10.106  10.870   8.021 -0.1835  0.6524  0.0844
 1384HK4    H2716176  10.179  10.857   8.103 -0.0104 -2.2430 -0.4895
 1384HK4    C4616177   9.981  10.916   8.061 -0.2235  0.1672  0.5266
 1384HK4    H2616178   9.957  10.903   8.168 -0.0534  0.2100  0.5701
 1384HK4    C4016179   9.885  10.958   7.967 -0.0717 -0.2044  0.2037
 1384HK4    C5016180   9.917  10.953   7.829 -0.7099 -0.1134  0.0505
 1384HK4    H3016181   9.843  10.990   7.758 -0.6551  0.6278  0.3750
 1384HK4    C4916182  10.042  10.907   7.789 -0.5741 -0.1201  0.4787
 1384HK4    H2916183  10.084  10.908   7.688 -0.3151  1.6663  0.5897
 1384HK4     N216184   9.785  11.050   7.998  0.1173  0.2267 -0.4273
 1384HK4    C3016185   9.776  11.131   8.114  0.0276 -0.1568 -0.1619
 1384HK4    C2916186   9.884  11.178   8.187 -0.2108 -0.5615  0.4452
 1384HK4    H1516187   9.978  11.180   8.133  0.1342  0.9579  1.0557
 1384HK4    C2816188   9.861   0.006   8.301  0.2440 -0.0020  0.1684
 1384HK4    C2716189   9.728   0.036   8.336  0.1476  0.5165 -0.6291
 1384HK4    H1416190   9.713   0.114   8.413  0.1790  0.3966 -0.5024
 1384HK4    C3216191   9.618  11.242   8.262  0.0877 -0.0148 -0.2438
 1384HK4    H1616192   9.520   0.037   8.285  0.1030  0.0268 -0.2599
 1384HK4    C3116193   9.640  11.170   8.146  0.1177  0.4870 -0.5552
 1384HK4    C3416194   9.559  11.110   8.041 -0.0231  0.3976 -0.3961
 1384HK4    C3316195   9.651  11.035   7.958 -0.0086 -0.1613  0.1190
 1384HK4    C3516196   9.594  10.973   7.847  0.2626  0.1489 -0.1978
 1384HK4    H1716197   9.645  10.887   7.804 -0.0484  0.0408 -0.3476
 1384HK4    C3616198   9.459  10.979   7.812  0.3062 -0.2433 -0.4459
 1384HK4    H1816199   9.422  10.913   7.733 -1.0866  0.9841 -0.8437
 1384HK4    C3716200   9.373  11.052   7.894  0.3082 -0.4552 -0.2520
 1384HK4    H1916201   9.268  11.061   7.866 -0.0987 -2.5663  0.4973
 1384HK4    C3816202   9.425  11.116   8.006 -0.0491  0.0239 -0.3633
 1384HK4    H2016203   9.356  11.157   8.080  2.6261  3.0774  0.5680
 1384HK4    C1416204   9.958  11.236   8.410 -0.1395 -0.2354  0.4717
 1384HK4     C916205   9.926  11.203   8.542 -0.5076 -0.2831  0.3678
 1384HK4     C816206   9.994   0.017   8.649 -0.5314  1.1135 -0.4227
 1384HK4    C1116207  10.104   0.097   8.618  0.4110 -0.0377 -0.0986
 1384HK4     H416208  10.178   0.118   8.696 -0.2708 -0.9223  0.8143
 1384HK4    C1216209  10.147   0.128   8.490 -0.2286  0.3513 -0.2262
 1384HK4     H516210  10.228   0.198   8.466  0.4433 -0.5531 -0.6585
 1384HK4    C1316211  10.070   0.070   8.389 -0.0652 -0.4288  0.0941
 1384HK4     H616212  10.111   0.087   8.288  1.0161 -2.0158  0.2514
 1384HK4     C716213   9.964  11.248   8.792  0.1961  0.0058 -0.3912
 1384HK4     O216214  10.018   0.064   8.882  0.1456 -0.0848 -0.2937
 1384HK4     C416215   9.855  11.151   8.820  0.3423 -0.1165 -0.2568
 1384HK4     C316216   9.844  11.106   8.951  0.1513 -0.1330 -0.2760
 1384HK4     H316217   9.916  11.133   9.030  1.9829 -0.2933 -1.8569
 1384HK4     C216218   9.752  11.010   8.992  0.9306 -0.7391  0.0644
 1384HK4     H216219   9.754  10.951   9.084 -1.4157 -0.7537  0.1226
 1384HK4     C116220   9.652  10.989   8.898  0.3326  0.6451  0.3742
 1384HK4     H116221   9.555  10.977   8.950  0.3482  1.0784  0.5022
 1384HK4     C616222   9.659  11.023   8.762 -0.3419 -0.0169  0.1686
 1384HK4     C516223   9.773  11.094   8.721  0.1812 -0.7892  0.2662
 1384HK4    C1016224   9.819  11.106   8.580  0.0193 -0.9355  0.2004
 1384HK4     O116225   9.802  11.010   8.504 -0.5126 -0.4026 -0.3585
 1384HK4    C1616226   9.534  11.011   8.684  0.0376 -0.1716 -0.4119
 1384HK4    C1516227   9.509  11.083   8.566  0.1155  0.5882  0.0280
 1384HK4     H716228   9.545  11.187   8.563  1.2646  0.1621 -2.1791
 1384HK4    C2016229   9.420  11.048   8.465 -0.0964  0.3044  0.3105
 1384HK4     H916230   9.414  11.103   8.371 -1.2832 -0.8086 -0.2825
 1384HK4    C1916231   9.346  10.932   8.480  0.3896 -0.1574 -0.7804
 1384HK4    C1816232   9.371  10.853   8.599 -0.2319 -0.1801 -0.6618
 1384HK4    C1716233   9.448  10.904   8.703 -0.5971  0.2981 -0.6269
 1384HK4     H816234   9.441  10.847   8.796 -2.0342  1.4550 -0.0002
 1384HK4     N116235   9.301  10.730   8.599 -0.0011 -0.3069 -0.3550
 1384HK4    C2116236   9.223  10.731   8.482 -0.3475  0.3149 -0.1221
 1384HK4    C2216237   9.246  10.854   8.409 -0.3223  0.2475 -0.2263
 1384HK4    C2616238   9.213  10.850   8.274  0.0755  0.0534 -0.3168
 1384HK4    H1316239   9.238  10.942   8.220 -0.4830  1.9960  2.6059
 1384HK4    C2516240   9.161  10.741   8.206  0.2333 -0.2383  0.0276
 1384HK4    H1216241   9.134  10.746   8.101 -1.1193  0.9778  0.4055
 1384HK4    C2416242   9.135  10.627   8.282  0.8271 -0.4616 -0.1043
 1384HK4    H1116243   9.063  10.551   8.247 -0.4334  0.3121  0.7599
 1384HK4    C2316244   9.168  10.621   8.417  0.1988 -0.0771  0.0711
 1384HK4    H1016245   9.164  10.526   8.469  0.3348  0.0146  0.2474
 1384HK4    C3916246   9.344  10.617   8.671 -0.1312 -0.2824 -0.2345
 1384HK4    C4116247   9.255  10.513   8.705 -0.0643 -0.4083 -0.4443
 1384HK4    H2116248   9.148  10.534   8.690  0.0836 -0.2968 -1.3953
 1384HK4    C4216249   9.293  10.389   8.753  0.0926 -0.1968 -0.0208
 1384HK4    H2216250   9.220  10.324   8.803  0.5651 -0.9225 -0.2619
 1384HK4    C4316251   9.430  10.362   8.758  0.2315  0.4670 -0.1455
 1384HK4    H2316252   9.468  10.271   8.804 -0.1931 -0.2546 -1.1973
 1384HK4    C4416253   9.520  10.461   8.722  0.3550  0.4520  0.1099
 1384HK4    H2416254   9.616  10.435   8.676 -0.5763 -2.2126 -0.4233
 1384HK4    C4516255   9.482  10.590   8.685 -0.0586  0.4144  0.4134
 1384HK4    H2516256   9.561  10.656   8.647 -1.4047  2.5350  1.2309
 1385HK4    H2816257   8.594   3.110   6.985  1.3727 -1.2708 -0.2920
 1385HK4    C4816258   8.663   3.173   6.929  0.0681  0.1529 -0.3350
 1385HK4    C4716259   8.703   3.135   6.801  0.3330 -0.0904 -0.1795
 1385HK4    H2716260   8.669   3.040   6.758 -1.7233  0.6382 -0.2245
 1385HK4    C4616261   8.803   3.207   6.737  0.1621  0.2063 -0.1169
 1385HK4    H2616262   8.843   3.169   6.641  0.7152 -1.4886  0.7693
 1385HK4    C4016263   8.859   3.324   6.790  0.4690  0.1437 -0.2996
 1385HK4    C5016264   8.803   3.375   6.910  0.3871 -0.5541 -0.0354
 1385HK4    H3016265   8.818   3.481   6.936 -3.0714 -0.0709  0.1286
 1385HK4    C4916266   8.711   3.295   6.975 -0.7096  0.4582 -0.3276
 1385HK4    H2916267   8.667   3.344   7.064  1.9852 -1.8996  2.4091
 1385HK4     N216268   8.988   3.356   6.748  0.3410  0.3455 -0.5421
 1385HK4    C3016269   9.098   3.279   6.704  0.3836 -0.4252  0.8851
 1385HK4    C2916270   9.116   3.142   6.694  0.5803 -0.3164 -0.3774
 1385HK4    H1516271   9.025   3.082   6.689  1.2375 -1.3258 -0.4247
 1385HK4    C2816272   9.238   3.081   6.664  0.5532 -0.4911 -0.1360
 1385HK4    C2716273   9.347   3.160   6.625 -0.1486  0.3903 -0.3261
 1385HK4    H1416274   9.435   3.110   6.581 -0.3763  0.2029 -0.5654
 1385HK4    C3216275   9.326   3.298   6.624 -0.2928  0.3627 -1.1572
 1385HK4    H1616276   9.404   3.366   6.590  2.0245 -1.5566  0.1406
 1385HK4    C3116277   9.207   3.362   6.657 -0.0799 -0.0500  0.4604
 1385HK4    C3416278   9.160   3.498   6.671 -0.0179 -0.0050  0.2357
 1385HK4    C3316279   9.024   3.490   6.719 -0.2615  0.5466 -0.3482
 1385HK4    C3516280   8.939   3.600   6.717 -0.7142  0.2084 -0.1079
 1385HK4    H1716281   8.832   3.593   6.733 -0.8573  3.0799  0.5661
 1385HK4    C3616282   8.994   3.721   6.677  0.0775 -0.0972  0.0420
 1385HK4    H1816283   8.938   3.815   6.684 -0.0290 -0.2221  0.8750
 1385HK4    C3716284   9.126   3.735   6.635  0.0764  0.4620  0.2270
 1385HK4    H1916285   9.155   3.838   6.617 -2.1620  1.2807  1.2018
 1385HK4    C3816286   9.206   3.622   6.626 -0.3265  0.1631  0.3797
 1385HK4    H2016287   9.295   3.621   6.563  0.2390  1.6747  1.1455
 1385HK4    C1416288   9.251   2.946   6.721 -0.2839 -0.4430  0.1889
 1385HK4     C916289   9.353   2.901   6.806  0.0836  0.0067 -0.0157
 1385HK4     C816290   9.393   2.766   6.796  0.1444  0.0010  0.3187
 1385HK4    C1116291   9.328   2.682   6.708  0.0807  0.2049  0.1739
 1385HK4     H416292   9.360   2.579   6.687  0.8210  0.4097  0.2901
 1385HK4    C1216293   9.216   2.722   6.636 -0.0696 -0.2276  0.1631
 1385HK4     H516294   9.173   2.655   6.560 -0.8448 -0.7567  1.0533
 1385HK4    C1316295   9.177   2.856   6.642 -0.4034 -0.3239  0.1651
 1385HK4     H616296   9.092   2.885   6.579 -0.5722  1.2179  1.0768
 1385HK4     C716297   9.507   2.718   6.878  0.2571 -0.2779 -0.0020
 1385HK4     O216298   9.583   2.628   6.841 -0.1822 -0.5553 -0.2389
 1385HK4     C416299   9.548   2.797   6.996  0.4517 -0.2608 -0.0817
 1385HK4     C316300   9.633   2.744   7.092  0.0639  0.2562  0.5500
 1385HK4     H316301   9.643   2.636   7.106  2.1873  0.5666  1.6898
 1385HK4     C216302   9.699   2.823   7.185  0.4444  0.2219  0.3064
 1385HK4     H216303   9.723   2.780   7.284  1.1640  1.2685  0.6031
 1385HK4     C116304   9.689   2.961   7.168  0.5710  0.1510 -0.3233
 1385HK4     H116305   9.775   3.018   7.208 -0.4830  1.1449  0.5425
 1385HK4     C616306   9.602   3.018   7.072  0.1761 -0.0826 -0.1039
 1385HK4     C516307   9.523   2.936   6.991  0.4386 -0.2666 -0.1777
 1385HK4    C1016308   9.405   2.987   6.916 -0.0130 -0.4626  0.3962
 1385HK4     O116309   9.340   3.080   6.965  0.3076  0.1187 -0.2785
 1385HK4    C1616310   9.598   3.164   7.082  0.2753 -0.1086  0.3420
 1385HK4    C1516311   9.602   3.238   6.962  0.0056  0.1735  0.5054
 1385HK4     H716312   9.670   3.206   6.882 -0.7979 -1.5710  0.5186
 1385HK4    C2016313   9.527   3.355   6.961 -0.3770 -0.0797 -0.3383
 1385HK4     H916314   9.531   3.422   6.875 -0.7207  2.1627  1.3331
 1385HK4    C1916315   9.454   3.401   7.070  0.0341 -0.1139 -0.0456
 1385HK4    C1816316   9.463   3.330   7.196  0.0073 -0.6652 -0.3530
 1385HK4    C1716317   9.539   3.214   7.198 -0.0067 -0.6620  0.4385
 1385HK4     H816318   9.568   3.170   7.293  2.1141 -0.7281 -0.2154
 1385HK4     N116319   9.352   3.365   7.276  0.4384 -0.1886  0.0404
 1385HK4    C2116320   9.268   3.451   7.203  0.2410 -0.7129 -0.3501
 1385HK4    C2216321   9.336   3.485   7.080 -0.0366 -0.1704 -0.3511
 1385HK4    C2616322   9.272   3.568   6.988 -0.0912 -0.0657 -0.2169
 1385HK4    H1316323   9.326   3.585   6.895 -1.5989 -1.4955 -1.3852
 1385HK4    C2516324   9.160   3.643   7.022  0.4947  0.5001  0.5048
 1385HK4    H1216325   9.127   3.730   6.966  0.6527  1.5700  2.0464
 1385HK4    C2416326   9.097   3.609   7.141  0.3695 -0.1916  0.2451
 1385HK4    H1116327   9.024   3.684   7.174  1.3172 -0.8771  4.2409
 1385HK4    C2316328   9.146   3.513   7.229  0.5317 -0.2995  0.0367
 1385HK4    H1016329   9.088   3.490   7.318  0.3600  3.2144  0.8967
 1385HK4    C3916330   9.346   3.334   7.413 -0.2543 -0.0502  0.0420
 1385HK4    C4116331   9.226   3.312   7.483 -0.4331 -0.3232 -0.3448
 1385HK4    H2116332   9.140   3.257   7.443 -0.0662 -1.6369  0.6396
 1385HK4    C4216333   9.216   3.344   7.618  0.8415  0.5417 -0.4410
 1385HK4    H2216334   9.129   3.313   7.679  0.5228 -0.1083 -1.2203
 1385HK4    C4316335   9.331   3.384   7.685  0.6043  0.6576 -0.1040
 1385HK4    H2316336   9.330   3.403   7.792 -0.0794  0.1580 -0.0196
 1385HK4    C4416337   9.454   3.395   7.622  0.5901 -0.2310 -0.2930
 1385HK4    H2416338   9.548   3.419   7.674  0.1374  1.9489 -0.4290
 1385HK4    C4516339   9.462   3.367   7.486  0.0512 -0.3536 -0.2982
 1385HK4    H2516340   9.563   3.363   7.442 -0.0230 -2.0868 -0.3505
 1386HK4    H2816341  10.596   8.191   4.931 -0.4498  2.2899 -1.6427
 1386HK4    C4816342  10.532   8.207   5.018  0.4905  0.4065 -0.5702
 1386HK4    C4716343  10.395   8.213   5.000  0.4246 -0.6679 -0.4792
 1386HK4    H2716344  10.346   8.236   4.904  0.2279 -0.8837 -0.4319
 1386HK4    C4616345  10.314   8.208   5.113  0.7402 -0.5751 -0.2491
 1386HK4    H2616346  10.205   8.199   5.097  0.3761 -0.6871  2.1478
 1386HK4    C4016347  10.357   8.199   5.247 -0.0466 -0.1014  0.0364
 1386HK4    C5016348  10.497   8.195   5.259 -0.0383  0.1942  0.0523
 1386HK4    H3016349  10.554   8.180   5.352  1.1407  0.7707 -0.5616
 1386HK4    C4916350  10.581   8.198   5.148 -0.4662 -1.2940 -0.3209
 1386HK4    H2916351  10.691   8.194   5.157 -0.4665  0.9854  0.9172
 1386HK4     N216352  10.288   8.241   5.361  0.4086  0.3734  0.1370
 1386HK4    C3016353  10.193   8.345   5.369 -0.2456 -0.1897 -0.3218
 1386HK4    C2916354  10.167   8.454   5.287  0.1330  0.5720  0.5675
 1386HK4    H1516355  10.239   8.461   5.205  2.4803 -0.2984  2.4662
 1386HK4    C2816356  10.081   8.559   5.315  0.0536  0.6163  0.1385
 1386HK4    C2716357  10.022   8.552   5.443  0.5831  0.0075  0.3492
 1386HK4    H1416358   9.950   8.631   5.469 -0.3945  0.3844 -3.1979
 1386HK4    C3216359  10.045   8.450   5.534  0.0795 -0.1706  0.2779
 1386HK4    H1616360  10.004   8.450   5.635  0.4693 -1.7116  0.4516
 1386HK4    C3116361  10.120   8.340   5.495  0.3548  0.1027  0.0410
 1386HK4    C3416362  10.184   8.233   5.568  0.0648 -0.0307  0.1058
 1386HK4    C3316363  10.285   8.171   5.483  0.2292  0.2824  0.0798
 1386HK4    C3516364  10.373   8.078   5.536 -0.0126 -0.0190 -0.0367
 1386HK4    H1716365  10.426   8.007   5.474 -0.2781  0.6982 -1.0892
 1386HK4    C3616366  10.368   8.063   5.674 -0.4030 -0.0283 -0.0491
 1386HK4    H1816367  10.466   8.044   5.721  0.0799  2.3419 -0.0187
 1386HK4    C3716368  10.271   8.115   5.759  0.3682  0.5684  0.4794
 1386HK4    H1916369  10.272   8.111   5.868  0.5427  0.3825  0.4722
 1386HK4    C3816370  10.180   8.205   5.705  0.0752  0.0495  0.1227
 1386HK4    H2016371  10.095   8.238   5.765 -0.5982  0.2783 -0.9260
 1386HK4    C1416372  10.084   8.682   5.234  0.4362  0.4369 -0.1248
 1386HK4     C916373  10.074   8.808   5.295 -0.3712  0.1551  0.3307
 1386HK4     C816374   9.990   8.900   5.230  0.1121  0.3468 -0.0257
 1386HK4    C1116375   9.949   8.885   5.098 -0.2648  0.2816  0.0976
 1386HK4     H416376   9.910   8.974   5.046 -4.0591 -0.4532  1.4860
 1386HK4    C1216377   9.972   8.763   5.036 -0.1895  0.0139  0.6426
 1386HK4     H516378   9.951   8.755   4.928 -2.4582 -2.4859  1.1980
 1386HK4    C1316379  10.040   8.661   5.101  0.2870 -0.0820  0.0043
 1386HK4     H616380  10.050   8.562   5.056  0.0592 -1.2432  2.4187
 1386HK4     C716381   9.950   9.019   5.309  0.0698  0.4149 -0.1481
 1386HK4     O216382   9.849   9.076   5.270 -0.2620 -0.1895 -0.1694
 1386HK4     C416383  10.008   9.042   5.444  0.2358 -0.2980 -0.0942
 1386HK4     C316384   9.956   9.149   5.515  0.4627 -0.3828  0.2026
 1386HK4     H316385   9.901   9.234   5.471  1.9269  1.0253  1.0279
 1386HK4     C216386   9.980   9.156   5.652  0.3653 -0.0939  0.2057
 1386HK4     H216387   9.903   9.211   5.708  0.3812 -0.5039  0.6298
 1386HK4     C116388  10.057   9.057   5.713  0.7378  0.2853  0.3541
 1386HK4     H116389  10.102   9.078   5.811 -1.5352  3.1042  0.8790
 1386HK4     C616390  10.105   8.946   5.642 -0.0537  0.0434  0.1899
 1386HK4     C516391  10.089   8.943   5.503  0.3293 -0.0766  0.1469
 1386HK4    C1016392  10.150   8.835   5.420  0.2007 -0.0642  0.0342
 1386HK4     O116393  10.269   8.807   5.432  0.2265 -0.0981 -0.3264
 1386HK4    C1616394  10.080   8.820   5.715  0.0696 -0.0537  0.0700
 1386HK4    C1516395   9.955   8.803   5.777 -0.0730 -0.2247 -0.2625
 1386HK4     H716396   9.872   8.874   5.763  1.0471  1.4990  1.5864
 1386HK4    C2016397   9.930   8.685   5.846 -0.0440  0.3185  0.6876
 1386HK4     H916398   9.828   8.653   5.870 -0.1728 -1.1300 -1.7582
 1386HK4    C1916399  10.032   8.593   5.862 -0.2188  0.1518  0.8421
 1386HK4    C1816400  10.167   8.614   5.811 -0.4101 -0.2510  0.1604
 1386HK4    C1716401  10.181   8.726   5.730 -0.3624 -0.5773 -0.2896
 1386HK4     H816402  10.279   8.762   5.699 -0.0774 -0.7509  0.3991
 1386HK4     N116403  10.262   8.520   5.856  0.2218  0.5801  0.5657
 1386HK4    C2116404  10.184   8.436   5.937  0.3634  0.0146  0.1241
 1386HK4    C2216405  10.043   8.471   5.939  0.2659 -0.3644 -0.0304
 1386HK4    C2616406   9.950   8.400   6.015  0.1524 -0.0372  0.1351
 1386HK4    H1316407   9.855   8.446   6.040 -0.5032 -0.5840 -1.2814
 1386HK4    C2516408   9.988   8.291   6.093 -0.2243 -0.3045 -0.0495
 1386HK4    H1216409   9.921   8.242   6.163 -0.4007 -1.2479 -0.8640
 1386HK4    C2416410  10.125   8.265   6.096 -0.1031  0.3120 -0.0568
 1386HK4    H1116411  10.160   8.221   6.190  1.2658  0.4574 -0.4860
 1386HK4    C2316412  10.220   8.331   6.020  0.2196 -0.2010 -0.0884
 1386HK4    H1016413  10.315   8.284   5.994 -0.2821 -1.7263  0.7751
 1386HK4    C3916414  10.380   8.484   5.789 -0.1503 -0.3029  0.3763
 1386HK4    C4116415  10.481   8.415   5.858 -0.0340  0.0243  0.5365
 1386HK4    H2116416  10.479   8.408   5.968  1.6901 -0.8919  0.5274
 1386HK4    C4216417  10.580   8.347   5.789 -0.4839  0.0295 -0.1201
 1386HK4    H2216418  10.651   8.286   5.848  1.9200  1.7003 -1.1803
 1386HK4    C4316419  10.587   8.350   5.650  0.2316  0.4307 -0.0793
 1386HK4    H2316420  10.637   8.265   5.604  1.6584  1.4569 -0.4720
 1386HK4    C4416421  10.501   8.435   5.583 -0.1586  0.3426  0.3183
 1386HK4    H2416422  10.491   8.432   5.474 -0.9838 -2.7704  0.4360
 1386HK4    C4516423  10.397   8.499   5.650  0.2015  0.7239  0.5236
 1386HK4    H2516424  10.345   8.580   5.596  2.6677  1.6057 -0.5834
 1387HK4    H2816425   8.614   1.695   9.952 -4.6255  2.1921  2.1055
 1387HK4    C4816426   8.679   1.767  10.004 -0.0356  0.0272 -0.3613
 1387HK4    C4716427   8.814   1.789   9.978 -0.0099  0.2783 -0.0019
 1387HK4    H2716428   8.865   1.724   9.905  0.6017  1.3730 -0.5650
 1387HK4    C4616429   8.880   1.890  10.046  0.1394  0.3946 -0.3202
 1387HK4    H2616430   8.974   1.927  10.002 -0.5376  0.3759 -1.8100
 1387HK4    C4016431   8.816   1.956  10.154 -0.0005 -0.2146 -0.0338
 1387HK4    C5016432   8.685   1.918  10.187 -0.0985  0.1323 -0.0188
 1387HK4    H3016433   8.639   1.952  10.281 -0.3177 -0.1119 -0.0354
 1387HK4    C4916434   8.613   1.828  10.109  0.3065 -0.2047 -0.0057
 1387HK4    H2916435   8.511   1.807  10.146  0.3651 -1.4357 -0.5194
 1387HK4     N216436   8.885   2.032  10.249 -0.0905  0.0416 -0.1763
 1387HK4    C3016437   9.022   2.019  10.280 -0.1678 -0.0071  0.1538
 1387HK4    C2916438   9.103   1.913  10.242  0.1592  0.1984  0.2848
 1387HK4    H1516439   9.065   1.813  10.266  2.6863 -0.7717  0.4522
 1387HK4    C2816440   9.239   1.933  10.218  0.0257  0.3535 -0.3666
 1387HK4    C2716441   9.291   2.059  10.254 -0.0081  0.2574  0.0330
 1387HK4    H1416442   9.396   2.085  10.236 -0.3697  1.8295  0.1812
 1387HK4    C3216443   9.215   2.165  10.302  0.2289  0.3342  0.2348
 1387HK4    H1616444   9.259   2.251  10.351  0.0110  1.6966 -1.8851
 1387HK4    C3116445   9.077   2.150  10.308  0.2529 -0.1143 -0.1652
 1387HK4    C3416446   8.964   2.241  10.317  0.3152 -0.0642  0.0465
 1387HK4    C3316447   8.848   2.166  10.273  0.1835  0.0494  0.1940
 1387HK4    C3516448   8.728   2.235  10.279  0.0944 -0.1234  0.3656
 1387HK4    H1716449   8.635   2.177  10.284 -0.2846  0.5379  1.0674
 1387HK4    C3616450   8.720   2.365  10.326  0.0416 -0.1287  0.3702
 1387HK4    H1816451   8.621   2.401  10.358 -0.9542 -1.8691 -0.6411
 1387HK4    C3716452   8.834   2.434  10.365  0.1391 -0.0317 -0.0851
 1387HK4    H1916453   8.832   2.530  10.417 -3.0541 -0.3121  0.4264
 1387HK4    C3816454   8.959   2.374  10.357  0.1196 -0.0987  0.1352
 1387HK4    H2016455   9.044   2.441  10.359  0.0959 -0.0696  0.1922
 1387HK4    C1416456   9.321   1.825  10.162 -0.1778  0.2728 -0.5079
 1387HK4     C916457   9.461   1.832  10.174 -0.2181  0.1060  0.0897
 1387HK4     C816458   9.533   1.769  10.070 -0.5440  0.1195 -0.1436
 1387HK4    C1116459   9.472   1.702   9.965  0.1764  0.3443 -0.7059
 1387HK4     H416460   9.526   1.657   9.879 -0.7333 -0.5726 -0.8057
 1387HK4    C1216461   9.334   1.695   9.951  0.1294  0.6671 -0.4065
 1387HK4     H516462   9.270   1.701   9.861 -2.9311  0.5580  1.6764
 1387HK4    C1316463   9.264   1.749  10.058 -0.1069 -0.5331  0.0396
 1387HK4     H616464   9.154   1.745  10.058 -0.2084  1.7205  0.4870
 1387HK4     C716465   9.680   1.786  10.065 -0.4869 -0.2515  0.2467
 1387HK4     O216466   9.747   1.698  10.011 -0.2385  0.1563 -0.1073
 1387HK4     C416467   9.740   1.876  10.166 -0.2700 -0.1743  0.0531
 1387HK4     C316468   9.871   1.915  10.145 -0.3618  0.0926 -0.0075
 1387HK4     H316469   9.921   1.892  10.050  0.4561  2.3046 -0.1434
 1387HK4     C216470   9.939   1.983  10.246  0.0181 -0.1197 -0.1219
 1387HK4     H216471  10.049   1.995  10.242 -0.0555  0.2307 -1.2549
 1387HK4     C116472   9.874   2.024  10.361  0.1529 -0.1894 -0.0217
 1387HK4     H116473   9.927   2.096  10.425  2.2596 -0.1983 -1.7263
 1387HK4     C616474   9.738   1.993  10.384  0.1970 -0.2906  0.1108
 1387HK4     C516475   9.677   1.913  10.287 -0.0953 -0.0739  0.1133
 1387HK4    C1016476   9.534   1.871  10.297 -0.1957  0.2510  0.0322
 1387HK4     O116477   9.498   1.813  10.400  0.6572 -0.5297 -0.1029
 1387HK4    C1616478   9.683   2.055  10.505  0.0930 -0.2704  0.0505
 1387HK4    C1516479   9.771   2.098  10.607 -0.7574 -0.2197  0.7755
 1387HK4     H716480   9.871   2.054  10.618 -0.2297  0.7728  0.1241
 1387HK4    C2016481   9.735   2.181  10.712  0.3251  0.9882  0.2090
 1387HK4     H916482   9.806   2.227  10.781 -0.9284  1.5232  1.1671
 1387HK4    C1916483   9.601   2.213  10.727  0.0712 -0.2473  0.6049
 1387HK4    C1816484   9.506   2.167  10.627  0.4637 -0.0378  0.1299
 1387HK4    C1716485   9.550   2.093  10.518  0.1584 -0.0154 -0.0094
 1387HK4     H816486   9.480   2.070  10.438 -0.7912  0.4843  0.6671
 1387HK4     N116487   9.379   2.229  10.642  0.2188 -0.6053  0.4049
 1387HK4    C2116488   9.400   2.332  10.735  0.0973  0.0164 -0.2506
 1387HK4    C2216489   9.534   2.326  10.788 -0.0017  0.0421 -0.0013
 1387HK4    C2616490   9.591   2.435  10.854  0.2957 -0.1187  0.0121
 1387HK4    H1316491   9.697   2.439  10.880 -0.4013  2.9447  2.6228
 1387HK4    C2516492   9.511   2.543  10.889 -0.0572 -0.4888  0.3460
 1387HK4    H1216493   9.551   2.633  10.934 -1.6042 -0.4994  1.8079
 1387HK4    C2416494   9.378   2.543  10.846  0.0223  0.4762  0.0937
 1387HK4    H1116495   9.318   2.631  10.874  0.6169  1.2634 -1.0789
 1387HK4    C2316496   9.323   2.443  10.767  0.3172 -0.0562  0.5528
 1387HK4    H1016497   9.215   2.440  10.753  0.2830  1.5236  0.3467
 1387HK4    C3916498   9.255   2.165  10.627 -0.2723  0.4500 -0.0486
 1387HK4    C4116499   9.135   2.239  10.625  0.1253  1.0899 -0.2362
 1387HK4    H2116500   9.141   2.339  10.579 -0.0596  1.0771 -0.2871
 1387HK4    C4216501   9.004   2.194  10.632  0.4049  0.2514 -0.3592
 1387HK4    H2216502   8.915   2.258  10.629 -0.5153 -1.0735 -2.3413
 1387HK4    C4316503   8.990   2.056  10.640 -0.6550  0.3754  0.0333
 1387HK4    H2316504   8.892   2.011  10.649 -0.7870  0.7241  0.3325
 1387HK4    C4416505   9.103   1.975  10.646 -0.0361  1.2664  0.5781
 1387HK4    H2416506   9.096   1.865  10.645  3.7559  0.9557 -1.6300
 1387HK4    C4516507   9.232   2.027  10.638  0.2969  0.3170 -0.4728
 1387HK4    H2516508   9.320   1.964  10.659  0.1602  0.2405 -0.1297
 1388HK4    H2816509   9.915   6.722   7.821 -0.1209  0.8067  0.3477
 1388HK4    C4816510   9.837   6.646   7.833  0.2410  0.4035  0.1209
 1388HK4    C4716511   9.858   6.514   7.794 -0.5833  0.3237 -0.0559
 1388HK4    H2716512   9.960   6.485   7.764 -0.5234  2.5408 -2.1363
 1388HK4    C4616513   9.753   6.424   7.783 -0.3662  0.0935 -0.2637
 1388HK4    H2616514   9.782   6.319   7.768 -0.6319 -0.2247  1.3312
 1388HK4    C4016515   9.619   6.467   7.799 -0.3284 -0.0099  0.3156
 1388HK4    C5016516   9.601   6.603   7.833 -0.0818 -0.0690  0.6928
 1388HK4    H3016517   9.504   6.656   7.830 -0.3497 -0.6161 -0.7030
 1388HK4    C4916518   9.707   6.688   7.860  0.1090 -0.2435  0.4918
 1388HK4    H2916519   9.685   6.792   7.885 -2.6744 -0.8318  0.6565
 1388HK4     N216520   9.509   6.381   7.799 -0.2391 -0.1285  0.6288
 1388HK4    C3016521   9.507   6.253   7.741  0.0591  0.3532 -0.4480
 1388HK4    C2916522   9.566   6.219   7.619  0.6878  0.5436 -0.2001
 1388HK4    H1516523   9.623   6.295   7.567  0.6677  1.1566  0.6546
 1388HK4    C2816524   9.533   6.100   7.556 -0.3788  0.6283  0.1832
 1388HK4    C2716525   9.437   6.012   7.610 -0.2509  0.0251 -0.5537
 1388HK4    H1416526   9.422   5.908   7.578  0.0728 -0.2543  0.1871
 1388HK4    C3216527   9.377   6.042   7.732  0.0706  0.4568 -0.5031
 1388HK4    H1616528   9.299   5.976   7.767  1.4699 -0.5950  0.6887
 1388HK4    C3116529   9.415   6.158   7.800  0.3516  0.2057 -0.2311
 1388HK4    C3416530   9.350   6.239   7.900 -0.1969 -0.2188 -0.2444
 1388HK4    C3316531   9.409   6.371   7.898 -0.6626  0.0005  0.2204
 1388HK4    C3516532   9.350   6.466   7.981 -0.5293  0.7257 -0.5068
 1388HK4    H1716533   9.407   6.553   8.014 -0.5910  0.7572 -0.4843
 1388HK4    C3616534   9.240   6.433   8.060  0.0581  0.1483  0.0782
 1388HK4    H1816535   9.197   6.513   8.122 -2.1025 -2.5348  2.1835
 1388HK4    C3716536   9.196   6.302   8.074 -0.9019  0.4446 -0.2011
 1388HK4    H1916537   9.134   6.274   8.159  1.8452 -0.7916  1.4326
 1388HK4    C3816538   9.248   6.205   7.989  0.0139  0.5209  0.2819
 1388HK4    H2016539   9.195   6.111   7.973 -0.1546  0.0102  3.4407
 1388HK4    C1416540   9.590   6.068   7.424 -0.0225 -0.5278  0.6036
 1388HK4     C916541   9.525   5.985   7.332  0.1452 -0.5376  0.4918
 1388HK4     C816542   9.597   5.904   7.242 -0.3680 -0.1743 -0.2533
 1388HK4    C1116543   9.735   5.906   7.249 -0.3763  0.5458 -0.3395
 1388HK4     H416544   9.802   5.840   7.193  0.9005 -0.4847  2.3022
 1388HK4    C1216545   9.802   5.987   7.341 -0.5756  0.1570  0.1473
 1388HK4     H516546   9.912   5.988   7.341 -0.5687  3.0238 -1.4784
 1388HK4    C1316547   9.731   6.071   7.426 -0.0355  0.3019  0.4607
 1388HK4     H616548   9.786   6.135   7.495 -0.4316  1.4058 -0.2282
 1388HK4     C716549   9.527   5.800   7.162 -0.2385 -0.4921  0.0443
 1388HK4     O216550   9.583   5.701   7.116  0.5402 -0.5103  1.0128
 1388HK4     C416551   9.379   5.792   7.169 -0.3479  0.4780 -0.8941
 1388HK4     C316552   9.310   5.709   7.082 -0.0635 -0.8953  0.1647
 1388HK4     H316553   9.366   5.668   6.996  1.0469  2.8902 -1.0348
 1388HK4     C216554   9.173   5.689   7.097 -0.1321 -0.2821  0.3496
 1388HK4     H216555   9.122   5.621   7.028 -1.4257  1.6949 -0.6924
 1388HK4     C116556   9.114   5.751   7.207  0.1808  0.3030  0.1914
 1388HK4     H116557   9.014   5.715   7.235 -0.2693 -1.2273 -3.1294
 1388HK4     C616558   9.173   5.841   7.298  0.1005  0.4778  0.0704
 1388HK4     C516559   9.307   5.866   7.266  0.1654 -0.0683 -0.0859
 1388HK4    C1016560   9.376   5.985   7.322  0.2012  0.0652 -0.4117
 1388HK4     O116561   9.321   6.094   7.310  0.6325  0.2641 -0.5868
 1388HK4    C1616562   9.137   5.844   7.441 -0.1874 -0.5172  0.0246
 1388HK4    C1516563   9.104   5.721   7.501 -0.2460 -0.3954  0.2437
 1388HK4     H716564   9.098   5.631   7.438  1.4964 -1.0906  1.0510
 1388HK4    C2016565   9.062   5.719   7.633 -0.4094 -0.1708  0.1966
 1388HK4     H916566   9.091   5.628   7.686  0.0170 -0.2398 -0.1523
 1388HK4    C1916567   9.029   5.838   7.697 -0.6584  0.1294 -0.4906
 1388HK4    C1816568   9.040   5.966   7.629  0.3169  0.3055 -0.0105
 1388HK4    C1716569   9.104   5.963   7.506 -0.2304 -0.3599 -0.2845
 1388HK4     H816570   9.103   6.054   7.447 -0.8911  0.8898  1.6196
 1388HK4     N116571   8.997   6.072   7.711 -0.2178 -0.1646  0.3243
 1388HK4    C2116572   8.958   6.012   7.832  0.3584 -0.4989  0.3487
 1388HK4    C2216573   8.978   5.868   7.829 -0.4736 -0.6062 -0.2526
 1388HK4    C2616574   8.950   5.788   7.940 -0.2495  0.1517  0.3576
 1388HK4    H1316575   8.970   5.681   7.938  2.3475  0.5910 -0.2137
 1388HK4    C2516576   8.892   5.845   8.052 -0.0851  0.0654  0.4860
 1388HK4    H1216577   8.832   5.787   8.122 -2.4472  0.3942 -1.1835
 1388HK4    C2416578   8.865   5.981   8.054  0.2225  0.1381 -0.2273
 1388HK4    H1116579   8.807   6.011   8.143 -1.7923 -2.3010 -0.6795
 1388HK4    C2316580   8.896   6.063   7.946  0.1512  0.3064 -0.1218
 1388HK4    H1016581   8.851   6.161   7.935  0.1139  0.5610  2.1590
 1388HK4    C3916582   8.963   6.199   7.663  0.3421  0.0159  0.3950
 1388HK4    C4116583   8.974   6.315   7.743  0.3427  0.1914  0.1393
 1388HK4    H2116584   9.021   6.305   7.842 -0.2547 -0.3382  0.3696
 1388HK4    C4216585   8.909   6.432   7.706 -0.1577  0.0910  0.6955
 1388HK4    H2216586   8.909   6.519   7.773 -1.1183  0.5740  0.0618
 1388HK4    C4316587   8.839   6.448   7.587  0.0967 -0.1516  0.5110
 1388HK4    H2316588   8.776   6.535   7.569 -0.8995 -1.1942 -1.1486
 1388HK4    C4416589   8.829   6.334   7.508  1.0517 -0.0042  0.1781
 1388HK4    H2416590   8.747   6.329   7.435  0.8500  1.9503  0.2308
 1388HK4    C4516591   8.891   6.214   7.543  0.1389 -0.3959  0.4608
 1388HK4    H2516592   8.890   6.142   7.460  0.5458  1.1795 -0.9641
 1389HK4    H2816593   4.982  10.901   0.781 -1.0955  1.2052 -0.9098
 1389HK4    C4816594   5.007  10.864   0.682 -0.2403 -0.2705 -0.1623
 1389HK4    C4716595   4.954  10.948   0.584  0.1621  0.0134 -0.1383
 1389HK4    H2716596   4.916  11.049   0.606  0.4512  0.4434 -1.6108
 1389HK4    C4616597   4.950  10.902   0.453  0.3431 -0.3942 -0.0041
 1389HK4    H2616598   4.928  10.973   0.371 -0.0496  0.2709  0.6647
 1389HK4    C4016599   5.009  10.778   0.422  0.1355 -0.4701 -0.0997
 1389HK4    C5016600   5.077  10.704   0.521  0.0715 -0.3884  0.0056
 1389HK4    H3016601   5.153  10.630   0.490 -0.0325 -0.3936 -0.2388
 1389HK4    C4916602   5.070  10.743   0.654  0.1819 -0.0718 -0.0802
 1389HK4    H2916603   5.130  10.692   0.731 -3.3276 -0.8419  2.2788
 1389HK4     N216604   4.951  10.706   0.317 -0.0900 -0.1679 -0.1818
 1389HK4    C3016605   4.816  10.705   0.275 -0.1194  0.5352 -0.1077
 1389HK4    C2916606   4.714  10.725   0.367 -0.1534 -0.3188  0.0352
 1389HK4    H1516607   4.737  10.789   0.452 -1.8596  0.1992  0.1304
 1389HK4    C2816608   4.583  10.687   0.339 -0.2206 -0.0971  0.0531
 1389HK4    C2716609   4.558  10.631   0.212 -0.7929  1.0202 -0.3388
 1389HK4    H1416610   4.459  10.621   0.165 -1.0863  1.1326  0.2426
 1389HK4    C3216611   4.657  10.608   0.118 -0.0709 -0.2039  0.6982
 1389HK4    H1616612   4.646  10.543   0.031  1.7206 -0.5980  0.7482
 1389HK4    C3116613   4.787  10.649   0.145 -0.1328  0.5533 -0.1123
 1389HK4    C3416614   4.923  10.615   0.104 -0.3481 -0.0056 -0.3726
 1389HK4    C3316615   5.018  10.648   0.208 -0.1725  0.9240 -0.8218
 1389HK4    C3516616   5.154  10.624   0.186 -0.1015  0.2726  0.2973
 1389HK4    H1716617   5.229  10.659   0.257  0.2380  0.0189  0.0582
 1389HK4    C3616618   5.198  10.585   0.061  0.0456 -0.7784  0.6686
 1389HK4    H1816619   5.300  10.609   0.026 -0.2400 -2.3560 -1.3066
 1389HK4    C3716620   5.106  10.555  11.209  0.2568  0.8358 -0.0326
 1389HK4    H1916621   5.135  10.541  11.105  0.9290 -0.2899  0.2994
 1389HK4    C3816622   4.970  10.571  11.230  0.1270 -0.0385 -0.1789
 1389HK4    H2016623   4.897  10.546  11.152  1.5957 -0.5423 -1.4223
 1389HK4    C1416624   4.487  10.689   0.450  0.0212  0.3498  0.2574
 1389HK4     C916625   4.402  10.580   0.475 -0.1271  0.2279 -0.7797
 1389HK4     C816626   4.276  10.608   0.531  0.4371 -0.1868  0.7150
 1389HK4    C1116627   4.246  10.734   0.582  0.5814  0.0887  0.1243
 1389HK4     H416628   4.149  10.761   0.625 -0.3529  3.4906 -3.7882
 1389HK4    C1216629   4.335  10.840   0.566  0.4982  0.1173 -0.1403
 1389HK4     H516630   4.307  10.936   0.611  0.2350 -0.0650  0.0847
 1389HK4    C1316631   4.457  10.816   0.503  0.7511  0.5547  0.1853
 1389HK4     H616632   4.537  10.890   0.520  1.8028 -0.2842 -1.0039
 1389HK4     C716633   4.180  10.495   0.533 -0.1697  0.3027 -0.2654
 1389HK4     O216634   4.071  10.518   0.586 -0.2398  0.2263 -0.3750
 1389HK4     C416635   4.214  10.362   0.478 -0.1138  0.5133 -0.7422
 1389HK4     C316636   4.113  10.267   0.483  0.6445 -0.2622 -0.0519
 1389HK4     H316637   4.031  10.276   0.556 -0.1737 -1.3162 -0.8160
 1389HK4     C216638   4.128  10.147   0.414 -0.0903 -0.2424 -0.2512
 1389HK4     H216639   4.039  10.083   0.404 -0.0318 -0.5720  1.1331
 1389HK4     C116640   4.241  10.131   0.335 -0.2802 -0.2179 -0.5286
 1389HK4     H116641   4.262  10.036   0.282 -0.9752 -0.0350 -1.1464
 1389HK4     C616642   4.343  10.228   0.327 -0.5168  0.0540 -0.2183
 1389HK4     C516643   4.337  10.338   0.413  0.2642 -0.2561  0.2442
 1389HK4    C1016644   4.441  10.444   0.429  0.0411 -0.0119  0.0758
 1389HK4     O116645   4.553  10.403   0.458 -0.3037 -1.2350 -0.2817
 1389HK4    C1616646   4.420  10.226   0.202  0.1169 -0.3318  0.1754
 1389HK4    C1516647   4.368  10.187   0.077  0.3286  0.4924 -0.1725
 1389HK4     H716648   4.276  10.127   0.083  2.1364 -2.0430  3.2228
 1389HK4    C2016649   4.441  10.173  11.207 -0.0946 -0.4278 -0.3285
 1389HK4     H916650   4.397  10.133  11.116 -0.3677  0.9485 -0.8265
 1389HK4    C1916651   4.578  10.192  11.221 -0.1793  0.2248 -0.3561
 1389HK4    C1816652   4.639  10.216   0.103  0.1778  0.5049 -0.5749
 1389HK4    C1716653   4.558  10.221   0.216  0.1937 -0.2225 -0.5290
 1389HK4     H816654   4.598  10.214   0.317 -1.4014 -2.1077 -0.0029
 1389HK4     N116655   4.780  10.217   0.096  0.2136  0.7697  0.1760
 1389HK4    C2116656   4.808  10.202  11.207 -0.2073  0.3931  0.1293
 1389HK4    C2216657   4.688  10.176  11.129  0.0138  0.0809 -0.1032
 1389HK4    C2616658   4.701  10.158  10.991 -0.8289 -0.5747 -0.0985
 1389HK4    H1316659   4.610  10.133  10.938 -0.9365  0.9881 -0.6641
 1389HK4    C2516660   4.825  10.148  10.928 -0.5883  0.4154  0.2068
 1389HK4    H1216661   4.833  10.127  10.821  0.4588 -0.2002  0.3949
 1389HK4    C2416662   4.939  10.171  11.004 -0.2008  0.3088 -0.3472
 1389HK4    H1116663   5.039  10.143  10.968  0.5168  0.6330  1.3486
 1389HK4    C2316664   4.929  10.203  11.138 -0.4134 -0.1597 -0.2523
 1389HK4    H1016665   5.016  10.246  11.188  0.3453 -1.6512 -0.2588
 1389HK4    C3916666   4.860  10.256   0.204  0.0901 -0.4892  0.7356
 1389HK4    C4116667   4.994  10.212   0.207  0.0221 -0.6984  0.6774
 1389HK4    H2116668   5.008  10.112   0.163  0.4478  0.0146 -0.8345
 1389HK4    C4216669   5.088  10.269   0.292  0.3319  0.2416 -0.2924
 1389HK4    H2216670   5.196  10.251   0.276  0.3888  1.1337 -0.9246
 1389HK4    C4316671   5.048  10.357   0.392 -0.0027 -0.0655 -0.1571
 1389HK4    H2316672   5.126  10.413   0.443 -1.0763  1.9003 -0.6109
 1389HK4    C4416673   4.915  10.399   0.396  0.2343  0.6945 -0.2847
 1389HK4    H2416674   4.877  10.447   0.487  1.9066  0.6141  0.4698
 1389HK4    C4516675   4.826  10.353   0.300  0.1495  0.2683 -0.0035
 1389HK4    H2516676   4.729  10.404   0.297 -0.7913 -1.5696 -2.2167
 1390HK4    H2816677   6.817   0.675  10.965 -1.9612  1.5271 -0.0361
 1390HK4    C4816678   6.873   0.769  10.975  0.1491  0.3524 -0.4733
 1390HK4    C4716679   6.846   0.851  11.084 -0.5459  0.2459 -0.5601
 1390HK4    H2716680   6.780   0.817  11.165  0.5573  0.0103  0.2546
 1390HK4    C4616681   6.938   0.952  11.111  0.4202 -0.6442 -0.5006
 1390HK4    H2616682   6.920   1.015  11.199 -1.0039  0.7240 -1.7530
 1390HK4    C4016683   7.055   0.970  11.035  0.6006 -0.7342 -0.2471
 1390HK4    C5016684   7.077   0.891  10.920  0.1020 -0.2511 -0.6751
 1390HK4    H3016685   7.160   0.918  10.853  0.2447  1.5627  0.2014
 1390HK4    C4916686   6.986   0.789  10.898  0.1737 -0.3263 -0.6181
 1390HK4    H2916687   7.001   0.718  10.815 -0.2971  0.3905 -1.3205
 1390HK4     N216688   7.125   1.091  11.043 -0.0592 -0.3908  0.4185
 1390HK4    C3016689   7.073   1.213  11.090 -0.0931 -0.1694 -0.1929
 1390HK4    C2916690   6.940   1.248  11.067 -0.0560 -0.3016 -0.6138
 1390HK4    H1516691   6.872   1.189  11.007 -0.5160  0.0243 -0.4113
 1390HK4    C2816692   6.908   1.380  11.095 -0.1415 -0.5054  0.2488
 1390HK4    C2716693   7.003   1.469  11.149  0.0397 -0.2689 -0.4603
 1390HK4    H1416694   6.969   1.573  11.163  0.7865 -0.1428  0.4625
 1390HK4    C3216695   7.135   1.433  11.174 -0.0944 -0.3503  0.1418
 1390HK4    H1616696   7.208   1.510  11.200  1.6242 -0.8016 -3.0539
 1390HK4    C3116697   7.173   1.303  11.143 -0.0623 -0.3004 -0.0250
 1390HK4    C3416698   7.297   1.231  11.123  0.0266 -0.1694  0.0545
 1390HK4    C3316699   7.264   1.104  11.062 -0.0025 -0.0196 -0.2449
 1390HK4    C3516700   7.360   1.003  11.075  0.3215  0.2901 -0.2245
 1390HK4    H1716701   7.331   0.900  11.055 -0.2640  0.2609  0.7586
 1390HK4    C3616702   7.479   1.024  11.143  0.0452 -0.4054  0.4795
 1390HK4    H1816703   7.543   0.940  11.174 -0.6846 -1.3640 -0.6012
 1390HK4    C3716704   7.510   1.150  11.195 -0.4854  0.1005 -0.4223
 1390HK4    H1916705   7.602   1.160   0.004 -0.7805  1.8586 -0.2449
 1390HK4    C3816706   7.419   1.254  11.186 -0.3549  0.3095  0.6213
 1390HK4    H2016707   7.436   1.357  11.219 -1.2171  0.3577  0.9355
 1390HK4    C1416708   6.775   1.432  11.059  0.1756  0.1645  0.0463
 1390HK4     C916709   6.745   1.566  11.031 -0.5274 -0.0615 -0.2932
 1390HK4     C816710   6.624   1.619  11.080 -0.5336 -0.2456 -0.1111
 1390HK4    C1116711   6.533   1.540  11.149 -0.6947  0.0761  0.0524
 1390HK4     H416712   6.438   1.573  11.193 -1.5376 -1.6955 -0.3622
 1390HK4    C1216713   6.557   1.404  11.170  0.0361  0.2421  0.3243
 1390HK4     H516714   6.494   1.345  11.237 -0.4820  1.2929  0.7792
 1390HK4    C1316715   6.674   1.352  11.116 -0.0047  0.4103  0.0759
 1390HK4     H616716   6.689   1.244  11.128  2.1146  0.7660  0.7305
 1390HK4     C716717   6.587   1.761  11.059  0.1123 -0.0304  0.1819
 1390HK4     O216718   6.491   1.809  11.120  0.0957  0.2197 -0.0411
 1390HK4     C416719   6.687   1.842  10.986  0.0618  0.1066  0.2597
 1390HK4     C316720   6.665   1.979  10.979 -0.3939  0.0112 -0.2469
 1390HK4     H316721   6.607   2.032  11.056  1.4024  0.1454  1.0543
 1390HK4     C216722   6.728   2.055  10.881  0.1413 -0.0532  0.0487
 1390HK4     H216723   6.695   2.158  10.863 -2.7245 -0.9676 -0.1808
 1390HK4     C116724   6.795   1.993  10.776 -0.0667  0.1291 -0.1921
 1390HK4     H116725   6.847   2.062  10.708 -0.7852 -1.1909 -2.1311
 1390HK4     C616726   6.808   1.853  10.771 -0.2322  0.1164 -0.2640
 1390HK4     C516727   6.769   1.784  10.887 -0.1265  0.3933 -0.0598
 1390HK4    C1016728   6.814   1.648  10.927 -0.4188  0.3420  0.0921
 1390HK4     O116729   6.925   1.612  10.888 -0.5849 -0.0001 -0.0646
 1390HK4    C1616730   6.800   1.797  10.636  0.3613  0.1239 -0.3007
 1390HK4    C1516731   6.778   1.876  10.521 -0.3046  0.7303  0.2381
 1390HK4     H716732   6.713   1.965  10.520 -0.2273  0.7804 -0.7075
 1390HK4    C2016733   6.811   1.840  10.391  0.0470  0.2742  0.4545
 1390HK4     H916734   6.766   1.905  10.316  0.8401  0.4124  0.0904
 1390HK4    C1916735   6.861   1.713  10.363 -1.0411 -0.1555  0.4323
 1390HK4    C1816736   6.883   1.627  10.478  0.3316 -0.3632  0.0307
 1390HK4    C1716737   6.858   1.674  10.607  0.1368 -0.0239 -0.1293
 1390HK4     H816738   6.825   1.598  10.677 -1.1541  0.5499 -0.1118
 1390HK4     N116739   6.895   1.493  10.436  0.1433 -0.3316 -0.1218
 1390HK4    C2116740   6.892   1.494  10.295  0.7872 -0.1415 -0.1335
 1390HK4    C2216741   6.862   1.628  10.246 -0.2162 -0.1526  0.4354
 1390HK4    C2616742   6.862   1.656  10.110 -0.0333 -0.2871  0.4054
 1390HK4    H1316743   6.876   1.760  10.083  0.0057 -0.2235  0.6638
 1390HK4    C2516744   6.911   1.562  10.020 -0.5496 -0.1510 -0.0220
 1390HK4    H1216745   6.952   1.589   9.923  1.9058 -0.8875  0.7747
 1390HK4    C2416746   6.942   1.435  10.068  0.7879  0.0722 -0.2679
 1390HK4    H1116747   6.985   1.371   9.990  1.6525  1.2305 -0.7488
 1390HK4    C2316748   6.931   1.399  10.202 -0.4762 -0.3299 -0.4738
 1390HK4    H1016749   6.952   1.294  10.222  3.3968  0.2640 -1.0918
 1390HK4    C3916750   6.931   1.393  10.526  0.2796 -0.0941  0.0875
 1390HK4    C4116751   6.891   1.262  10.491  0.3032 -0.0442 -0.1249
 1390HK4    H2116752   6.810   1.242  10.419 -1.3147 -1.8623  2.1014
 1390HK4    C4216753   6.946   1.155  10.561 -0.4232  0.1022  0.6869
 1390HK4    H2216754   6.910   1.053  10.539 -0.0016  0.5600 -2.4171
 1390HK4    C4316755   7.043   1.174  10.658  0.3734  0.2137 -0.1168
 1390HK4    H2316756   7.085   1.081  10.699 -2.2938 -1.4894 -1.0975
 1390HK4    C4416757   7.092   1.301  10.684  0.0577  0.1945  0.5843
 1390HK4    H2416758   7.162   1.297  10.768  1.5493 -0.6469 -0.6798
 1390HK4    C4516759   7.035   1.411  10.620  0.1512  0.0229  0.2120
 1390HK4    H2516760   7.071   1.513  10.639  2.4016 -0.3558 -1.8515
 1391HK4    H2816761   7.194   9.896   9.007 -1.9941  0.6951  0.5166
 1391HK4    C4816762   7.226   9.983   8.951 -0.0042  0.0843  0.6655
 1391HK4    C4716763   7.348  10.045   8.973 -0.0858  0.2819  0.5597
 1391HK4    H2716764   7.415  10.024   9.058  0.0019  1.9864  0.9386
 1391HK4    C4616765   7.390  10.146   8.887 -0.1988  0.0127  0.1848
 1391HK4    H2616766   7.489  10.192   8.903  0.2140 -0.8820  0.2242
 1391HK4    C4016767   7.313  10.190   8.778  0.3286  0.3133 -0.0678
 1391HK4    C5016768   7.186  10.131   8.763  0.3122  0.3534 -0.0951
 1391HK4    H3016769   7.115  10.180   8.695  0.7354 -0.5760 -1.2094
 1391HK4    C4916770   7.142  10.033   8.852  0.7368  0.4370  0.2049
 1391HK4    H2916771   7.046   9.979   8.846  0.9924 -0.1671  1.3421
 1391HK4     N216772   7.344  10.308   8.710  0.6376  0.1447 -0.2191
 1391HK4    C3016773   7.421  10.413   8.764 -0.7067  0.8360  0.3571
 1391HK4    C2916774   7.445  10.449   8.896 -0.0453  0.1881  0.4129
 1391HK4    H1516775   7.378  10.405   8.970 -1.7278 -1.0975 -1.8115
 1391HK4    C2816776   7.534  10.550   8.931  0.5897 -0.2278  0.0094
 1391HK4    C2716777   7.601  10.626   8.833  0.6420 -0.4351 -0.1146
 1391HK4    H1416778   7.660  10.711   8.868 -0.6507 -0.5084  2.3262
 1391HK4    C3216779   7.574  10.595   8.700 -1.1080  1.0308 -0.1215
 1391HK4    H1616780   7.593  10.664   8.617 -0.2653  0.1126 -0.7022
 1391HK4    C3116781   7.491  10.490   8.663  0.1972 -0.1339  0.2411
 1391HK4    C3416782   7.450  10.432   8.537  0.4991  0.0024  0.0811
 1391HK4    C3316783   7.356  10.327   8.570  0.4650 -0.0794 -0.2640
 1391HK4    C3516784   7.298  10.253   8.467 -0.1112  0.1637 -0.1123
 1391HK4    H1716785   7.222  10.179   8.491  1.9581 -2.1923 -0.5637
 1391HK4    C3616786   7.320  10.289   8.335 -0.6506  0.0179 -0.2394
 1391HK4    H1816787   7.256  10.241   8.259  0.3787 -0.3430 -0.8844
 1391HK4    C3716788   7.408  10.391   8.301  0.0001 -0.2772  0.5613
 1391HK4    H1916789   7.413  10.420   8.196  0.8890  1.1896  0.9795
 1391HK4    C3816790   7.475  10.459   8.403  0.0688  0.3788  0.0786
 1391HK4    H2016791   7.542  10.541   8.377  1.7539 -1.5980 -2.0288
 1391HK4    C1416792   7.551  10.578   9.074  0.0967  0.1255 -0.0014
 1391HK4     C916793   7.606  10.695   9.129  0.1044  0.2713 -0.3212
 1391HK4     C816794   7.685  10.689   9.245 -0.3741 -0.1376 -0.0109
 1391HK4    C1116795   7.705  10.568   9.310  0.2426  0.1255  0.2886
 1391HK4     H416796   7.776  10.567   9.394 -1.5900  0.3445  1.8538
 1391HK4    C1216797   7.645  10.451   9.264 -0.7944  0.6433  0.2990
 1391HK4     H516798   7.650  10.354   9.315  3.6341 -0.6702 -2.3382
 1391HK4    C1316799   7.568  10.460   9.150 -0.6347  0.1203  0.1510
 1391HK4     H616800   7.516  10.367   9.122  1.2008 -0.8810  0.0385
 1391HK4     C716801   7.735  10.814   9.308 -1.1485 -0.0185  0.3703
 1391HK4     O216802   7.810  10.815   9.405 -0.2538  0.0811 -0.3129
 1391HK4     C416803   7.700  10.944   9.247  0.1334 -0.0190 -0.3808
 1391HK4     C316804   7.738  11.066   9.302 -0.2747 -0.0427 -0.0414
 1391HK4     H316805   7.777  11.070   9.404  2.3143  1.9701 -1.0436
 1391HK4     C216806   7.740  11.182   9.225  0.2849 -0.1055 -0.1229
 1391HK4     H216807   7.737   0.029   9.281  1.2727 -0.0571 -0.1412
 1391HK4     C116808   7.698  11.179   9.093 -0.4337  0.3251  0.0931
 1391HK4     H116809   7.709   0.017   9.024  0.3555 -1.5099 -2.1235
 1391HK4     C616810   7.652  11.059   9.036 -0.0992  0.1828  0.1130
 1391HK4     C516811   7.643  10.946   9.118 -0.2094 -0.0602 -0.2294
 1391HK4    C1016812   7.570  10.826   9.068  0.1971  0.0004 -0.9639
 1391HK4     O116813   7.451  10.846   9.044 -0.1122 -0.1475  0.4269
 1391HK4    C1616814   7.684  11.052   8.893  0.1012  0.1668  0.1603
 1391HK4    C1516815   7.601  10.980   8.805  0.4805 -0.0878  0.0093
 1391HK4     H716816   7.495  11.008   8.820  0.6511 -0.0895  1.2145
 1391HK4    C2016817   7.643  10.917   8.688 -0.4760 -0.2593 -0.2515
 1391HK4     H916818   7.585  10.854   8.620  0.3239 -0.5413 -0.6774
 1391HK4    C1916819   7.778  10.929   8.657 -0.3075  0.1350  0.6331
 1391HK4    C1816820   7.866  11.012   8.737  0.0804 -0.2738  0.6268
 1391HK4    C1716821   7.816  11.070   8.853 -0.0116  0.8032  0.0599
 1391HK4     H816822   7.893  11.114   8.917 -0.1391 -0.2873  0.9840
 1391HK4     N116823   8.003  10.994   8.711  0.0126  0.2169 -0.0582
 1391HK4    C2116824   8.006  10.891   8.615 -0.1308  0.0280  0.1403
 1391HK4    C2216825   7.871  10.848   8.582 -0.3038  0.4239  0.3236
 1391HK4    C2616826   7.844  10.735   8.505 -0.1222  0.1383  0.6683
 1391HK4    H1316827   7.741  10.722   8.472  0.2182 -0.8361 -0.0290
 1391HK4    C2516828   7.948  10.658   8.454  0.2754  0.8405  0.4073
 1391HK4    H1216829   7.928  10.568   8.398  1.3953 -0.1171  1.5153
 1391HK4    C2416830   8.076  10.697   8.492  0.9363 -0.2898 -0.6363
 1391HK4    H1116831   8.162  10.640   8.453  0.7090 -1.3030  0.3027
 1391HK4    C2316832   8.108  10.811   8.565 -0.4584 -0.4068  0.1649
 1391HK4    H1016833   8.211  10.836   8.591 -1.3665  0.7334  2.9274
 1391HK4    C3916834   8.098  11.097   8.716  0.4133 -0.1649  0.2371
 1391HK4    C4116835   8.237  11.074   8.718  0.3934 -0.2961  0.0877
 1391HK4    H2116836   8.269  10.990   8.781 -1.0334  0.0541  1.3160
 1391HK4    C4216837   8.334  11.165   8.678  0.3938 -0.3390 -0.0120
 1391HK4    H2216838   8.438  11.138   8.702 -0.4622 -3.0844  0.7335
 1391HK4    C4316839   8.292   0.045   8.645 -0.2682 -0.5916 -0.1474
 1391HK4    H2316840   8.363   0.122   8.616 -2.2634  1.6821  0.8007
 1391HK4    C4416841   8.161   0.087   8.669 -0.1004 -0.1039 -0.0785
 1391HK4    H2416842   8.130   0.192   8.662 -0.0347  0.0003  1.0824
 1391HK4    C4516843   8.070  11.235   8.701  0.1193 -0.2364  0.1368
 1391HK4    H2516844   7.964   0.014   8.707  0.2375  0.2959 -0.1664
 1392HK4    H2816845   7.555   6.051   4.612  0.5625  2.4566  1.1132
 1392HK4    C4816846   7.453   6.088   4.619 -0.2401  0.4159  0.4562
 1392HK4    C4716847   7.365   6.090   4.511  0.0396  0.6984  0.2376
 1392HK4    H2716848   7.375   6.034   4.417 -4.5162  2.5214 -1.4674
 1392HK4    C4616849   7.235   6.135   4.533 -0.2133  0.1357 -0.1091
 1392HK4    H2616850   7.165   6.144   4.449  0.4979 -1.2058 -0.8671
 1392HK4    C4016851   7.193   6.175   4.661 -0.3766 -0.6165  0.0763
 1392HK4    C5016852   7.288   6.183   4.765 -0.6485 -1.0826  0.3639
 1392HK4    H3016853   7.258   6.241   4.854 -0.0098  0.4083 -0.3639
 1392HK4    C4916854   7.418   6.136   4.744 -0.2374 -0.0908  0.6558
 1392HK4    H2916855   7.489   6.137   4.828  1.5517  0.7570 -0.8227
 1392HK4     N216856   7.059   6.197   4.696  0.0010  0.3212  0.9687
 1392HK4    C3016857   6.964   6.235   4.599  0.8202  0.1096  0.0663
 1392HK4    C2916858   6.976   6.313   4.485 -0.0859  0.4134  0.1716
 1392HK4    H1516859   7.070   6.368   4.477 -0.2799  0.6938 -0.2036
 1392HK4    C2816860   6.868   6.359   4.410 -0.2536 -0.2377  0.0129
 1392HK4    C2716861   6.740   6.313   4.446 -0.4586  0.4196  0.1275
 1392HK4    H1416862   6.648   6.336   4.390  0.3586  2.6924 -0.3656
 1392HK4    C3216863   6.720   6.243   4.564  0.4702  0.1780  0.1449
 1392HK4    H1616864   6.619   6.224   4.600  0.8221  0.1060  1.1333
 1392HK4    C3116865   6.828   6.210   4.645  0.7266  0.0260 -0.2625
 1392HK4    C3416866   6.842   6.148   4.775 -0.1508 -0.0347 -0.1940
 1392HK4    C3316867   6.985   6.143   4.803 -0.2652 -0.6381  0.3043
 1392HK4    C3516868   7.034   6.097   4.924  0.3326  0.1412  0.3605
 1392HK4    H1716869   7.140   6.118   4.942  0.3954  2.5044 -2.4120
 1392HK4    C3616870   6.938   6.050   5.011  0.0178  0.1889  0.0404
 1392HK4    H1816871   6.958   5.994   5.104 -1.8708  5.0130  3.5996
 1392HK4    C3716872   6.800   6.056   4.990  0.0777 -0.3197 -0.4958
 1392HK4    H1916873   6.732   6.018   5.065 -1.1752 -0.7814 -1.8392
 1392HK4    C3816874   6.750   6.105   4.870 -0.1949 -0.9007 -0.6220
 1392HK4    H2016875   6.644   6.092   4.851 -0.5278 -0.6450  0.9710
 1392HK4    C1416876   6.881   6.482   4.330 -0.4447 -0.4184 -0.2960
 1392HK4     C916877   6.785   6.581   4.309 -0.3265 -0.2037  0.1697
 1392HK4     C816878   6.772   6.650   4.187  0.2209  0.6153  0.5733
 1392HK4    C1116879   6.869   6.629   4.090  0.1109 -0.5238  0.7008
 1392HK4     H416880   6.872   6.695   4.002 -0.5849 -1.0540  0.2721
 1392HK4    C1216881   6.969   6.535   4.106  0.6117 -0.0943  0.1482
 1392HK4     H516882   7.037   6.509   4.024 -0.2902 -0.0938 -0.6006
 1392HK4    C1316883   6.975   6.465   4.226 -0.0862 -0.3805  0.0195
 1392HK4     H616884   7.058   6.392   4.230 -1.4442 -2.1538 -3.0544
 1392HK4     C716885   6.656   6.736   4.154 -0.3185 -0.5424 -0.5901
 1392HK4     O216886   6.653   6.807   4.053 -0.6333 -0.1445 -0.3026
 1392HK4     C416887   6.544   6.741   4.250  0.3677  0.4801  0.1720
 1392HK4     C316888   6.432   6.819   4.223  0.0522 -0.0598 -0.0776
 1392HK4     H316889   6.430   6.904   4.154  2.4054 -0.6961 -0.9825
 1392HK4     C216890   6.323   6.811   4.309  0.0583 -0.2714 -0.0848
 1392HK4     H216891   6.246   6.891   4.306  0.0000 -0.3284 -0.0859
 1392HK4     C116892   6.318   6.726   4.419  0.0200 -0.2527 -0.0697
 1392HK4     H116893   6.239   6.734   4.495 -0.1084 -2.7324  0.0818
 1392HK4     C616894   6.434   6.655   4.456  0.1761 -0.0012 -0.0742
 1392HK4     C516895   6.544   6.669   4.371  0.2186  0.2166  0.0184
 1392HK4    C1016896   6.678   6.615   4.408 -0.0824 -0.2443  0.4473
 1392HK4     O116897   6.721   6.631   4.522  0.1017 -0.4456  0.4087
 1392HK4    C1616898   6.411   6.536   4.539  0.0163 -0.0027 -0.1198
 1392HK4    C1516899   6.316   6.440   4.499 -0.0540 -0.1803  0.4725
 1392HK4     H716900   6.270   6.451   4.400  1.2690 -0.7669 -0.2215
 1392HK4    C2016901   6.288   6.326   4.574 -0.1432 -0.6978 -0.3452
 1392HK4     H916902   6.224   6.251   4.528  0.6765 -2.4002  1.2200
 1392HK4    C1916903   6.344   6.312   4.700  0.4105  0.4260 -0.4671
 1392HK4    C1816904   6.431   6.417   4.750 -0.0310  0.4887  0.1737
 1392HK4    C1716905   6.465   6.523   4.666 -0.0716  0.3275 -0.0486
 1392HK4     H816906   6.527   6.606   4.701 -0.4271  0.1094  1.1066
 1392HK4     N116907   6.477   6.387   4.880  0.3155 -0.4809 -0.1664
 1392HK4    C2116908   6.408   6.272   4.922  0.1094 -0.5401 -0.6612
 1392HK4    C2216909   6.322   6.226   4.814 -0.7990  0.7098 -0.4789
 1392HK4    C2616910   6.266   6.099   4.816 -0.2016  0.4446  0.0300
 1392HK4    H1316911   6.181   6.091   4.748 -0.4924  0.7241  0.3618
 1392HK4    C2516912   6.296   6.015   4.922 -1.0025  0.3860  0.2183
 1392HK4    H1216913   6.249   5.917   4.928 -0.8802  0.4097  1.8675
 1392HK4    C2416914   6.378   6.060   5.025 -0.4398  0.1624 -0.1264
 1392HK4    H1116915   6.421   5.984   5.092 -0.2243 -0.7380 -1.2648
 1392HK4    C2316916   6.431   6.188   5.031 -0.5210  0.1878  0.0334
 1392HK4    H1016917   6.462   6.225   5.129 -1.0455  1.5140 -0.2878
 1392HK4    C3916918   6.601   6.422   4.934  0.0441  0.2545 -0.0020
 1392HK4    C4116919   6.635   6.417   5.071  0.1646 -0.0914 -0.0413
 1392HK4    H2116920   6.549   6.408   5.139 -1.9127  1.9034 -2.2836
 1392HK4    C4216921   6.763   6.421   5.126 -0.0940  0.1585  0.5434
 1392HK4    H2216922   6.788   6.387   5.227  0.7773  0.6083  0.4842
 1392HK4    C4316923   6.867   6.451   5.039 -0.1866 -0.5762  0.1777
 1392HK4    H2316924   6.969   6.452   5.076  0.2670  0.9576 -1.0723
 1392HK4    C4416925   6.838   6.466   4.904  0.0708 -0.3909  0.1431
 1392HK4    H2416926   6.924   6.494   4.841 -0.5993  0.9503 -0.2055
 1392HK4    C4516927   6.711   6.450   4.850  0.0528  0.2056 -0.0048
 1392HK4    H2516928   6.710   6.446   4.740 -1.8775  1.3290 -0.0503
 1393HK4    H2816929   7.853   6.405   9.332 -1.2705 -1.1749  0.9255
 1393HK4    C4816930   7.848   6.318   9.267  0.1714 -0.6560  0.0930
 1393HK4    C4716931   7.733   6.241   9.254 -0.1717 -0.1393  0.0822
 1393HK4    H2716932   7.640   6.284   9.293  1.3100  1.8423  1.5365
 1393HK4    C4616933   7.738   6.125   9.178 -0.4746  0.2006 -0.4679
 1393HK4    H2616934   7.651   6.061   9.157  0.4095 -0.8523 -0.9614
 1393HK4    C4016935   7.854   6.088   9.107 -0.3484 -0.1388 -0.0884
 1393HK4    C5016936   7.968   6.170   9.126 -0.1938 -0.4089  0.1504
 1393HK4    H3016937   8.050   6.169   9.053 -1.2403  1.1370 -1.1012
 1393HK4    C4916938   7.966   6.288   9.199  0.2812 -0.4192  0.1784
 1393HK4    H2916939   8.046   6.363   9.196 -0.1942  0.1105  0.6709
 1393HK4     N216940   7.863   5.956   9.063 -0.4140  0.0880 -0.7978
 1393HK4    C3016941   7.794   5.837   9.099 -0.0068  0.1015  0.0522
 1393HK4    C2916942   7.742   5.804   9.223  0.5706  0.0531  0.2810
 1393HK4    H1516943   7.724   5.884   9.295 -2.3021 -0.2483 -0.0661
 1393HK4    C2816944   7.724   5.671   9.257  0.3505 -0.0313 -0.1652
 1393HK4    C2716945   7.742   5.571   9.159  0.3887  0.1664 -0.3613
 1393HK4    H1416946   7.697   5.471   9.171  0.0289  0.6123  2.4453
 1393HK4    C3216947   7.788   5.599   9.031  0.0633 -0.2905 -0.5833
 1393HK4    H1616948   7.819   5.518   8.966 -0.0859  0.7543 -1.9644
 1393HK4    C3116949   7.817   5.732   9.002  0.3808 -0.1338  0.4009
 1393HK4    C3416950   7.893   5.792   8.894  0.7037 -0.3682  0.4970
 1393HK4    C3316951   7.922   5.926   8.939  0.8515 -0.1865 -0.1395
 1393HK4    C3516952   7.992   6.007   8.850  0.0044  0.3923 -0.2878
 1393HK4    H1716953   7.993   6.115   8.869  0.2027  0.8801 -2.9447
 1393HK4    C3616954   8.041   5.958   8.730 -0.3666  0.2331 -0.3754
 1393HK4    H1816955   8.072   6.031   8.654 -1.2685  2.4920  1.3751
 1393HK4    C3716956   8.012   5.827   8.691 -0.2696  0.0258  0.2526
 1393HK4    H1916957   8.050   5.790   8.596  1.6682  1.1686  0.5470
 1393HK4    C3816958   7.938   5.742   8.772 -0.4514 -0.0940 -0.0427
 1393HK4    H2016959   7.964   5.636   8.772 -0.3081 -0.0562  0.7884
 1393HK4    C1416960   7.716   5.630   9.399  0.1821  0.3363 -0.0671
 1393HK4     C916961   7.762   5.506   9.445  0.5478  0.5194  0.0639
 1393HK4     C816962   7.687   5.431   9.538  1.0078  0.4985  0.4200
 1393HK4    C1116963   7.572   5.482   9.596  0.6754  0.2790 -0.0427
 1393HK4     H416964   7.520   5.436   9.682 -1.4769 -0.2317 -1.5730
 1393HK4    C1216965   7.530   5.609   9.558  0.0671 -0.0659 -0.5370
 1393HK4     H516966   7.430   5.643   9.591 -0.0270 -0.4466 -0.4299
 1393HK4    C1316967   7.602   5.681   9.464  0.2213  0.4156 -0.0587
 1393HK4     H616968   7.579   5.787   9.449  0.7409  0.5173 -0.1383
 1393HK4     C716969   7.724   5.290   9.564  0.1077  0.1401 -0.2016
 1393HK4     O216970   7.677   5.234   9.663 -0.3762  0.0238 -0.4971
 1393HK4     C416971   7.819   5.220   9.475  0.2644  0.0328  0.0518
 1393HK4     C316972   7.828   5.082   9.490 -0.4271 -0.0369 -0.1512
 1393HK4     H316973   7.762   5.022   9.554 -0.7795 -0.6922 -1.1007
 1393HK4     C216974   7.913   5.014   9.403  0.0663  0.2220  0.1290
 1393HK4     H216975   7.943   4.912   9.432 -1.0498  0.0939  0.8806
 1393HK4     C116976   7.979   5.084   9.303  0.2097  0.0987  0.1361
 1393HK4     H116977   8.049   5.021   9.247 -0.8325 -0.6209 -0.3879
 1393HK4     C616978   7.968   5.223   9.282  0.3821  0.1075  0.1060
 1393HK4     C516979   7.892   5.291   9.378 -0.0608  0.0325 -0.1903
 1393HK4    C1016980   7.882   5.439   9.387  0.5008  0.0258  0.5421
 1393HK4     O116981   7.989   5.499   9.381  0.4347  0.0994  0.1019
 1393HK4    C1616982   7.986   5.267   9.143 -0.7146  0.3888  0.0505
 1393HK4    C1516983   7.946   5.185   9.036  0.8174  0.0681 -0.3013
 1393HK4     H716984   7.868   5.111   9.059  2.5575 -1.2890  1.3422
 1393HK4    C2016985   7.989   5.198   8.905 -0.1943 -0.0759 -0.6587
 1393HK4     H916986   7.937   5.140   8.828  1.5011 -1.7912 -0.5785
 1393HK4    C1916987   8.072   5.307   8.880  0.0667 -0.1602 -0.1418
 1393HK4    C1816988   8.127   5.385   8.989  0.0334 -0.1779 -0.1120
 1393HK4    C1716989   8.080   5.367   9.119 -0.2812 -0.0802 -0.2094
 1393HK4     H816990   8.135   5.408   9.204 -2.1597  0.3840  0.8092
 1393HK4     N116991   8.219   5.480   8.941 -0.0659  0.0210  0.0899
 1393HK4    C2116992   8.220   5.470   8.801  0.7854 -0.2415  0.1069
 1393HK4    C2216993   8.137   5.358   8.761 -0.0179  0.3689  0.0382
 1393HK4    C2616994   8.087   5.346   8.632 -0.1406  0.5534  0.0662
 1393HK4    H1316995   8.017   5.265   8.613  2.8877 -2.1390 -0.1649
 1393HK4    C2516996   8.121   5.441   8.536  0.4132  0.0413 -0.2443
 1393HK4    H1216997   8.101   5.434   8.429  1.2741 -2.7741 -0.2713
 1393HK4    C2416998   8.210   5.541   8.572 -0.1624  0.4204  0.1120
 1393HK4    H1116999   8.226   5.620   8.497 -0.2875  0.8220  0.5105
 1393HK4    C2317000   8.261   5.557   8.700 -0.6532  0.6631  0.2810
 1393HK4    H1017001   8.344   5.627   8.707 -0.3719  0.3990 -0.3280
 1393HK4    C3917002   8.254   5.596   9.012 -0.1628 -0.1188  0.3674
 1393HK4    C4117003   8.372   5.668   8.983  0.0093 -0.2539  0.7529
 1393HK4    H2117004   8.459   5.612   8.943 -1.0025 -1.5454  0.3296
 1393HK4    C4217005   8.381   5.801   9.023  0.1760  0.1637 -0.6631
 1393HK4    H2217006   8.474   5.857   9.013 -0.0497  0.6887  0.1765
 1393HK4    C4317007   8.280   5.872   9.087  0.4036  0.0862 -0.2177
 1393HK4    H2317008   8.273   5.980   9.077 -1.6096  0.2663  2.4797
 1393HK4    C4417009   8.170   5.798   9.130  0.0804  0.4252 -0.4637
 1393HK4    H2417010   8.113   5.844   9.212 -2.3474  2.2419 -3.0912
 1393HK4    C4517011   8.160   5.665   9.091  0.1192  0.1371  0.4878
 1393HK4    H2517012   8.059   5.621   9.103  0.1469  0.1345  0.6915
 1394HK4    H2817013   2.431   1.391   2.210 -0.0342 -0.3151  1.2070
 1394HK4    C4817014   2.339   1.333   2.216 -0.2843 -0.0306  0.1446
 1394HK4    C4717015   2.364   1.198   2.239  0.6141  0.1508  0.2563
 1394HK4    H2717016   2.454   1.143   2.208 -0.4943 -0.9454 -1.1021
 1394HK4    C4617017   2.256   1.119   2.279  0.6894  0.0350  0.2315
 1394HK4    H2617018   2.273   1.016   2.315  1.8777 -0.8198 -2.6563
 1394HK4    C4017019   2.130   1.177   2.303  0.3886 -0.4021 -0.3065
 1394HK4    C5017020   2.111   1.312   2.270  0.2475 -0.4882 -0.5804
 1394HK4    H3017021   2.007   1.347   2.255  0.0084 -0.4451  1.1022
 1394HK4    C4917022   2.215   1.394   2.228 -0.1480  0.2848 -0.0627
 1394HK4    H2917023   2.191   1.488   2.175  0.9684  0.8692  0.4489
 1394HK4     N217024   2.022   1.111   2.363  0.6804 -0.2350  0.4016
 1394HK4    C3017025   1.993   0.974   2.347 -0.1625  0.0556 -0.6282
 1394HK4    C2917026   2.038   0.880   2.256 -0.3318 -0.0815 -0.5704
 1394HK4    H1517027   2.061   0.924   2.159  2.2999 -1.0518 -0.4034
 1394HK4    C2817028   2.010   0.745   2.273  0.5165 -0.1194  0.5879
 1394HK4    C2717029   1.923   0.710   2.379 -0.4351 -0.0576 -0.1555
 1394HK4    H1417030   1.891   0.606   2.391  1.3835 -0.4363  1.7668
 1394HK4    C3217031   1.868   0.802   2.469  0.4325  0.1920  0.1279
 1394HK4    H1617032   1.801   0.763   2.544  0.2593 -0.7152 -0.4850
 1394HK4    C3117033   1.901   0.936   2.453 -0.0028  0.2364 -0.4243
 1394HK4    C3417034   1.872   1.053   2.533 -0.5830 -0.1003 -0.1364
 1394HK4    C3317035   1.943   1.162   2.469 -0.5573 -0.3098 -0.4657
 1394HK4    C3517036   1.924   1.292   2.514  0.0404 -0.6352  0.7520
 1394HK4    H1717037   1.977   1.376   2.469 -1.9724 -0.3158 -1.1116
 1394HK4    C3617038   1.834   1.310   2.619 -0.2522  0.4335  0.3292
 1394HK4    H1817039   1.800   1.414   2.628  1.2581  1.2337 -2.5675
 1394HK4    C3717040   1.764   1.206   2.679 -0.1302  0.3663  0.3567
 1394HK4    H1917041   1.680   1.216   2.748  0.7796  1.2893  1.3369
 1394HK4    C3817042   1.782   1.075   2.636  0.0774  0.3990  0.3426
 1394HK4    H2017043   1.735   0.990   2.687  0.6405 -0.5585 -0.7201
 1394HK4    C1417044   2.054   0.653   2.166  0.0739  0.5787 -0.1997
 1394HK4     C917045   1.984   0.537   2.130  0.0097  0.6877 -0.4272
 1394HK4     C817046   2.055   0.421   2.094 -0.1574  0.3544  0.3058
 1394HK4    C1117047   2.194   0.424   2.084 -0.2358  0.9094 -0.7108
 1394HK4     H417048   2.243   0.325   2.075  0.3231  1.1065  0.0956
 1394HK4    C1217049   2.265   0.541   2.107 -0.1978  0.7515 -0.0223
 1394HK4     H517050   2.374   0.541   2.093 -0.1990  1.2134 -0.0363
 1394HK4    C1317051   2.192   0.654   2.142  0.2660  0.7781  0.8768
 1394HK4     H617052   2.249   0.741   2.179  2.2729 -0.2801  0.3927
 1394HK4     C717053   1.981   0.305   2.042  0.0531  0.2012  0.3463
 1394HK4     O217054   2.033   0.194   2.048  0.1960  0.2361 -0.2496
 1394HK4     C417055   1.838   0.313   2.004  0.3410 -0.1769 -0.8351
 1394HK4     C317056   1.762   0.203   1.968 -0.1599 -0.2917  0.5701
 1394HK4     H317057   1.810   0.105   1.952  0.2583 -0.0127  0.1280
 1394HK4     C217058   1.627   0.222   1.938 -0.0915 -0.1407  0.3615
 1394HK4     H217059   1.557   0.137   1.942  0.4345 -0.7656 -2.4859
 1394HK4     C117060   1.585   0.351   1.907 -0.1183 -0.1865  0.2048
 1394HK4     H117061   1.482   0.365   1.871  0.2116  1.8495 -0.0030
 1394HK4     C617062   1.666   0.465   1.923 -0.1341 -0.1083 -0.2838
 1394HK4     C517063   1.785   0.444   1.994 -0.2039 -0.3519 -0.2382
 1394HK4    C1017064   1.842   0.545   2.086 -0.0726 -0.3175 -0.3571
 1394HK4     O117065   1.754   0.603   2.151 -0.0240 -0.1950 -0.4011
 1394HK4    C1617066   1.638   0.583   1.841 -0.5281  0.2122  0.3145
 1394HK4    C1517067   1.538   0.576   1.742 -0.0677 -0.1375 -0.1323
 1394HK4     H717068   1.506   0.478   1.705 -1.8714  0.1527  0.5889
 1394HK4    C2017069   1.468   0.687   1.694 -0.0490 -0.0738 -0.0128
 1394HK4     H917070   1.387   0.688   1.622  0.1746 -1.6383 -0.3104
 1394HK4    C1917071   1.504   0.813   1.740  0.2549 -0.0991 -0.1820
 1394HK4    C1817072   1.608   0.828   1.840  0.4899  0.2798 -0.4781
 1394HK4    C1717073   1.676   0.712   1.877 -0.2638  0.1081  0.4128
 1394HK4     H817074   1.772   0.722   1.927  0.3273 -0.1814 -0.6442
 1394HK4     N117075   1.631   0.965   1.866  0.0930  0.3457 -0.4689
 1394HK4    C2117076   1.543   1.039   1.784 -0.1388  0.3547 -0.2131
 1394HK4    C2217077   1.474   0.948   1.695 -0.1271 -0.0578  0.1974
 1394HK4    C2617078   1.415   1.003   1.581  0.1692  0.2395  0.1887
 1394HK4    H1317079   1.337   0.945   1.533 -0.3298 -0.9195  2.2935
 1394HK4    C2517080   1.431   1.134   1.538 -0.5254  0.1572 -0.3147
 1394HK4    H1217081   1.383   1.179   1.451  0.1149  1.0976 -0.1906
 1394HK4    C2417082   1.497   1.220   1.624 -0.2632 -0.1897 -0.1675
 1394HK4    H1117083   1.525   1.321   1.588  0.3136  0.1284  1.1339
 1394HK4    C2317084   1.553   1.171   1.741  0.0336  0.3918 -0.0591
 1394HK4    H1017085   1.580   1.250   1.811 -0.0878  1.5722 -1.3348
 1394HK4    C3917086   1.706   1.010   1.975 -0.1430  0.1884 -0.2393
 1394HK4    C4117087   1.754   1.143   1.967 -0.2268  0.1680 -1.1211
 1394HK4    H2117088   1.779   1.186   1.869  2.8632  2.1062  0.4626
 1394HK4    C4217089   1.777   1.220   2.080 -0.1868 -0.7736 -0.4781
 1394HK4    H2217090   1.780   1.329   2.066 -1.2760 -1.0578 -3.2773
 1394HK4    C4317091   1.754   1.165   2.206 -0.2518 -0.4285 -0.3402
 1394HK4    H2317092   1.768   1.234   2.289  1.0757  0.5422 -1.3384
 1394HK4    C4417093   1.699   1.038   2.214 -0.1736 -0.4562 -0.2331
 1394HK4    H2417094   1.675   1.004   2.315 -0.6565  0.0155 -0.1890
 1394HK4    C4517095   1.678   0.957   2.102 -0.6002 -0.0589 -0.4409
 1394HK4    H2517096   1.627   0.863   2.128  0.0038 -0.0112  0.9664
 1395HK4    H2817097  10.587   5.685   8.233 -2.2351 -2.8348  0.4391
 1395HK4    C4817098  10.668   5.621   8.268  0.0765 -0.1845  0.0378
 1395HK4    C4717099  10.646   5.528   8.368 -0.1608  0.0499  0.2069
 1395HK4    H2717100  10.542   5.505   8.399 -0.8762  0.6722 -1.6811
 1395HK4    C4617101  10.751   5.449   8.414  0.0588 -0.1612 -0.6625
 1395HK4    H2617102  10.736   5.394   8.508  1.2679 -0.2328 -0.4991
 1395HK4    C4017103  10.884   5.461   8.367  0.2660 -0.2323 -0.0945
 1395HK4    C5017104  10.903   5.561   8.269 -0.0468  0.0201  0.0999
 1395HK4    H3017105  11.006   5.575   8.233  0.9568 -1.3514  2.2915
 1395HK4    C4917106  10.797   5.634   8.217  0.0666  0.1922  0.1105
 1395HK4    H2917107  10.803   5.682   8.118 -2.2368  0.6367  0.1636
 1395HK4     N217108  10.965   5.350   8.393  0.4152 -0.0958  0.0258
 1395HK4    C3017109  11.106   5.352   8.396  0.4210  0.3884 -0.4912
 1395HK4    C2917110  11.190   5.457   8.431  0.6242 -0.0501  0.3450
 1395HK4    H1517111  11.175   5.558   8.394  2.2717 -0.6206 -1.9379
 1395HK4    C2817112   0.073   5.449   8.475  0.7370 -0.2590 -0.0337
 1395HK4    C2717113   0.126   5.320   8.452  0.0124 -0.4840 -0.4589
 1395HK4    H1417114   0.235   5.313   8.466 -0.4435 -1.4593  3.0170
 1395HK4    C3217115   0.057   5.209   8.404 -0.3377 -0.2412 -0.5199
 1395HK4    H1617116   0.112   5.122   8.369  0.5087 -0.2645  0.8072
 1395HK4    C3117117  11.169   5.222   8.383 -0.3685 -0.0226 -0.2009
 1395HK4    C3417118  11.055   5.132   8.378 -0.3233 -0.1173  0.4677
 1395HK4    C3317119  10.934   5.213   8.382 -0.2351  0.0192  0.3584
 1395HK4    C3517120  10.813   5.147   8.371  0.1030 -0.4742 -0.4239
 1395HK4    H1717121  10.726   5.212   8.364  0.0217 -0.7736 -2.7034
 1395HK4    C3617122  10.803   5.009   8.360 -0.2843 -0.4990  0.1941
 1395HK4    H1817123  10.710   4.957   8.390  0.8343 -1.5013  1.9965
 1395HK4    C3717124  10.919   4.934   8.351 -0.1398 -0.1445 -0.9310
 1395HK4    H1917125  10.911   4.828   8.328  3.4601 -0.7315  0.1669
 1395HK4    C3817126  11.044   4.994   8.366 -0.2380 -0.0359 -0.5545
 1395HK4    H2017127  11.129   4.930   8.388 -0.6305  0.1433  1.5642
 1395HK4    C1417128   0.152   5.568   8.510 -0.0105  0.4484 -0.7360
 1395HK4     C917129   0.289   5.584   8.485  0.1966  0.1742  0.2072
 1395HK4     C817130   0.375   5.648   8.577  0.5593  0.1348 -0.1059
 1395HK4    C1117131   0.311   5.709   8.683  0.4561 -0.3744  0.1279
 1395HK4     H417132   0.366   5.781   8.745  1.1337  0.4180 -1.3597
 1395HK4    C1217133   0.174   5.711   8.708  0.4067  0.3070 -0.1788
 1395HK4     H517134   0.121   5.772   8.783 -0.0781  0.4801 -0.6611
 1395HK4    C1317135   0.097   5.637   8.620  0.6369  0.0364 -0.1505
 1395HK4     H617136  11.236   5.633   8.628  0.7749 -4.1985  1.3392
 1395HK4     C717137   0.522   5.644   8.554  0.6180  0.5009  0.2034
 1395HK4     O217138   0.598   5.700   8.632  0.4626  0.3528  0.4604
 1395HK4     C417139   0.576   5.594   8.425 -0.4692 -0.3927  0.0879
 1395HK4     C317140   0.711   5.595   8.396 -0.5391 -0.1989 -0.2278
 1395HK4     H317141   0.774   5.672   8.444 -1.7941  1.8968 -1.8621
 1395HK4     C217142   0.768   5.525   8.290  0.3611 -0.3029  0.3178
 1395HK4     H217143   0.865   5.550   8.245 -0.4380  0.2393 -1.1460
 1395HK4     C117144   0.686   5.449   8.209  0.2879  0.4061 -0.2776
 1395HK4     H117145   0.722   5.409   8.113  0.4467 -1.4299  0.5275
 1395HK4     C617146   0.547   5.442   8.236  0.3353  0.2164 -0.0808
 1395HK4     C517147   0.492   5.521   8.338 -0.4043  0.0703 -0.3649
 1395HK4    C1017148   0.345   5.538   8.355 -0.3767 -0.0969  0.0552
 1395HK4     O117149   0.303   5.610   8.265 -0.0520  0.3314  0.2499
 1395HK4    C1617150   0.494   5.320   8.175  0.1579  0.3028 -0.0962
 1395HK4    C1517151   0.564   5.202   8.141 -0.3773 -0.0015 -0.1530
 1395HK4     H717152   0.670   5.191   8.168 -0.3411  1.1065  0.1969
 1395HK4    C2017153   0.506   5.088   8.086  0.1165 -0.3764  0.1027
 1395HK4     H917154   0.558   4.992   8.085  0.6910 -0.1411  2.6612
 1395HK4    C1917155   0.368   5.085   8.068  0.1316  0.2211 -0.1454
 1395HK4    C1817156   0.298   5.210   8.089 -0.2825 -0.0384  0.0271
 1395HK4    C1717157   0.362   5.326   8.131  0.0465 -0.2623  0.1530
 1395HK4     H817158   0.324   5.422   8.096 -0.0754 -0.2730  0.2597
 1395HK4     N117159   0.159   5.194   8.072 -0.2254 -0.1618 -0.3111
 1395HK4    C2117160   0.144   5.056   8.045  0.2032 -0.2004 -0.3676
 1395HK4    C2217161   0.270   4.986   8.028  0.3879  0.2430 -0.8390
 1395HK4    C2617162   0.268   4.848   8.011  0.2861  0.1446 -0.0309
 1395HK4    H1317163   0.358   4.792   7.988 -0.3922 -1.1847  0.5309
 1395HK4    C2517164   0.148   4.779   8.025  0.5716 -0.2935  0.2614
 1395HK4    H1217165   0.144   4.671   8.017 -1.3410 -0.2543  0.3952
 1395HK4    C2417166   0.031   4.848   8.054  0.4752 -0.1338 -0.5040
 1395HK4    H1117167  11.182   4.797   8.054  1.5169 -2.2964  3.1408
 1395HK4    C2317168   0.025   4.987   8.062  0.3076 -0.1905  0.4073
 1395HK4    H1017169  11.173   5.031   8.053  1.1061  1.3748 -0.7758
 1395HK4    C3917170   0.079   5.290   8.010  0.0564  0.4126  0.2118
 1395HK4    C4117171   0.124   5.392   7.923  0.2884  0.5394  0.4812
 1395HK4    H2117172   0.225   5.372   7.886  0.6422 -0.8797  2.1378
 1395HK4    C4217173   0.038   5.487   7.869 -0.0921 -0.2694 -0.3397
 1395HK4    H2217174   0.068   5.562   7.794 -0.8471 -0.3086 -0.6871
 1395HK4    C4317175  11.152   5.484   7.905  0.1079  0.6865  0.4957
 1395HK4    H2317176  11.086   5.555   7.855 -0.0956 -2.0809 -3.3167
 1395HK4    C4417177  11.107   5.392   7.998 -0.0597 -0.0448 -0.3058
 1395HK4    H2417178  11.005   5.403   8.038 -0.6921 -0.6778 -1.7138
 1395HK4    C4517179  11.191   5.293   8.048  0.0309  0.2483  0.1322
 1395HK4    H2517180  11.161   5.238   8.138 -0.0977 -0.5088 -0.3768
 1396HK4    H2817181   6.407   3.556   6.663  0.0120  0.8076 -0.6624
 1396HK4    C4817182   6.515   3.553   6.646  0.1293  0.1559  0.1610
 1396HK4    C4717183   6.604   3.475   6.719 -0.3027 -0.5181 -0.0321
 1396HK4    H2717184   6.590   3.443   6.824  4.1854  1.3280  1.2227
 1396HK4    C4617185   6.725   3.443   6.659 -0.1243  0.0376  0.0290
 1396HK4    H2617186   6.778   3.365   6.716  0.2296  1.7249  2.0638
 1396HK4    C4017187   6.771   3.491   6.535  0.5029  0.2414  0.3376
 1396HK4    C5017188   6.678   3.574   6.469  0.3280 -0.0923  0.1655
 1396HK4    H3017189   6.696   3.590   6.362 -1.3810  0.1534 -0.1031
 1396HK4    C4917190   6.554   3.606   6.524  0.5096  0.2973  0.3436
 1396HK4    H2917191   6.486   3.676   6.473 -0.5942 -0.6621  0.4955
 1396HK4     N217192   6.904   3.512   6.497  0.3062 -0.0663 -0.5460
 1396HK4    C3017193   7.015   3.523   6.583 -0.0268  0.0478 -0.1300
 1396HK4    C2917194   7.014   3.539   6.721 -0.3638 -0.1752 -0.1048
 1396HK4    H1517195   6.926   3.560   6.782 -1.2830 -1.1996 -1.0560
 1396HK4    C2817196   7.136   3.534   6.787 -0.3079 -0.1175 -0.2036
 1396HK4    C2717197   7.255   3.503   6.719  0.0122  0.5328  0.0607
 1396HK4    H1417198   7.341   3.473   6.781  0.0813  2.2531  0.8359
 1396HK4    C3217199   7.261   3.494   6.580 -0.2133 -0.1097  0.0924
 1396HK4    H1617200   7.349   3.456   6.528  0.2802  0.8414  0.2126
 1396HK4    C3117201   7.141   3.510   6.512  0.0444  0.8469 -0.1523
 1396HK4    C3417202   7.105   3.489   6.373  0.3241 -0.3503 -0.0483
 1396HK4    C3317203   6.961   3.479   6.372  0.3131 -0.1835 -0.5111
 1396HK4    C3517204   6.901   3.458   6.249 -0.2280 -0.6307 -0.1774
 1396HK4    H1717205   6.799   3.420   6.247 -0.4388 -0.0700 -0.5483
 1396HK4    C3617206   6.970   3.460   6.128 -0.3992  0.0502 -0.2654
 1396HK4    H1817207   6.928   3.431   6.030  2.6714 -2.9383 -0.7683
 1396HK4    C3717208   7.108   3.472   6.128 -0.4016  0.1027  0.3615
 1396HK4    H1917209   7.165   3.455   6.036 -2.2593 -1.8989 -0.4679
 1396HK4    C3817210   7.171   3.476   6.251  0.4668  0.7204 -0.0948
 1396HK4    H2017211   7.280   3.477   6.257  0.5166 -0.6416 -0.5637
 1396HK4    C1417212   7.146   3.589   6.923  0.2686  0.2315 -0.3864
 1396HK4     C917213   7.259   3.655   6.973 -0.0651  0.4387  0.0986
 1396HK4     C817214   7.290   3.659   7.111 -0.1742  0.6148  0.1182
 1396HK4    C1117215   7.200   3.594   7.194 -0.3830  0.3920 -0.2786
 1396HK4     H417216   7.217   3.581   7.302  1.5842 -1.0585 -0.7310
 1396HK4    C1217217   7.081   3.540   7.148 -0.2182 -0.3898  0.1872
 1396HK4     H517218   7.009   3.506   7.224  1.0824  0.9073  2.0398
 1396HK4    C1317219   7.050   3.537   7.012  0.5801  0.2983 -0.0132
 1396HK4     H617220   6.967   3.473   6.979 -0.5943  1.4023  0.7592
 1396HK4     C717221   7.411   3.721   7.169  0.2549 -0.0411 -0.0605
 1396HK4     O217222   7.403   3.754   7.288 -0.5106  0.0465 -0.1337
 1396HK4     C417223   7.510   3.782   7.078  0.2390 -0.0524 -0.0840
 1396HK4     C317224   7.626   3.840   7.130 -0.1367  0.2113  0.4583
 1396HK4     H317225   7.636   3.864   7.237 -0.8093  1.9820  0.1531
 1396HK4     C217226   7.720   3.902   7.050 -0.4130  0.0995  0.0466
 1396HK4     H217227   7.808   3.951   7.094 -0.1535  1.6155 -2.0963
 1396HK4     C117228   7.705   3.893   6.912 -0.6336  0.3785  0.0521
 1396HK4     H117229   7.776   3.950   6.852  0.2806 -2.5678 -1.7944
 1396HK4     C617230   7.586   3.839   6.857 -0.1353 -0.2498 -0.4163
 1396HK4     C517231   7.486   3.786   6.940 -0.1871  0.4988  0.0046
 1396HK4    C1017232   7.354   3.735   6.891  0.0290  0.0813 -0.1369
 1396HK4     O117233   7.310   3.797   6.795 -0.4057  0.1630  0.1145
 1396HK4    C1617234   7.585   3.842   6.711 -0.2141  0.2126 -0.4086
 1396HK4    C1517235   7.541   3.725   6.645  0.3965 -0.3383  0.1566
 1396HK4     H717236   7.534   3.632   6.705  0.3383 -0.1524  0.4392
 1396HK4    C2017237   7.497   3.728   6.514  0.0203  0.1713  0.2937
 1396HK4     H917238   7.469   3.635   6.465 -1.6270 -0.2515  1.9906
 1396HK4    C1917239   7.487   3.852   6.452 -0.3518  0.2173  0.4454
 1396HK4    C1817240   7.538   3.973   6.515  0.0596 -0.0691  0.6567
 1396HK4    C1717241   7.583   3.965   6.646 -0.3335  0.8787  0.8497
 1396HK4     H817242   7.578   4.058   6.703  1.5563  0.0853  2.3599
 1396HK4     N117243   7.524   4.083   6.428 -0.0257 -0.2909  0.3882
 1396HK4    C2117244   7.464   4.033   6.311  0.4235 -0.3558  0.1820
 1396HK4    C2217245   7.430   3.892   6.325  0.7024 -0.4643 -0.2446
 1396HK4    C2617246   7.385   3.820   6.215  0.1992 -0.0700 -0.2993
 1396HK4    H1317247   7.362   3.714   6.228  0.3624  0.0340  0.9522
 1396HK4    C2517248   7.375   3.880   6.091 -0.1933  0.0832 -0.1942
 1396HK4    H1217249   7.331   3.828   6.006 -0.4571 -1.0962  0.6570
 1396HK4    C2417250   7.409   4.014   6.076  0.5403 -0.1088 -0.3014
 1396HK4    H1117251   7.388   4.065   5.981 -1.4620 -1.3556 -0.5627
 1396HK4    C2317252   7.452   4.090   6.185  0.4978 -0.6073  0.0623
 1396HK4    H1017253   7.503   4.185   6.169  1.0841 -0.7564  1.0506
 1396HK4    C3917254   7.583   4.209   6.443 -0.3803 -0.0780 -0.0002
 1396HK4    C4117255   7.523   4.328   6.397  0.1159  0.0846 -0.2313
 1396HK4    H2117256   7.420   4.329   6.356  0.1565  0.5630 -0.3245
 1396HK4    C4217257   7.592   4.448   6.407 -0.0825  0.2067 -0.3048
 1396HK4    H2217258   7.534   4.531   6.364  0.0512  0.8352  0.7129
 1396HK4    C4317259   7.716   4.457   6.469 -0.2458  0.1184  0.0343
 1396HK4    H2317260   7.774   4.547   6.450  1.7380 -1.0054  0.6328
 1396HK4    C4417261   7.777   4.341   6.517 -0.3321  0.0500 -0.0267
 1396HK4    H2417262   7.876   4.344   6.566 -0.2039 -0.1317 -0.2749
 1396HK4    C4517263   7.714   4.220   6.494 -0.1285  0.0565 -0.6599
 1396HK4    H2517264   7.771   4.127   6.506 -1.6090 -1.0973 -2.3215
 1397HK4    H2817265   9.702   7.558   0.949  0.7111 -1.3771 -0.5202
 1397HK4    C4817266   9.726   7.600   0.851 -0.1810 -0.1880 -0.2244
 1397HK4    C4717267   9.807   7.529   0.763  0.6290  0.4843 -0.0330
 1397HK4    H2717268   9.862   7.441   0.799 -0.3541  0.3535  1.1925
 1397HK4    C4617269   9.843   7.587   0.642  0.1181 -0.1378 -0.4814
 1397HK4    H2617270   9.900   7.525   0.571  0.4085  1.7903 -1.9683
 1397HK4    C4017271   9.808   7.720   0.610  0.3319  0.0945  0.2537
 1397HK4    C5017272   9.730   7.791   0.703  0.1568  0.2766 -0.0311
 1397HK4    H3017273   9.704   7.898   0.695  0.3391  0.6445  3.5623
 1397HK4    C4917274   9.685   7.729   0.819  0.1238 -0.0945 -0.2431
 1397HK4    H2917275   9.599   7.775   0.871  0.0605  1.5722 -1.7601
 1397HK4     N217276   9.876   7.799   0.517  0.1103  0.2543  0.2289
 1397HK4    C3017277  10.017   7.794   0.507  0.0745 -0.1960 -0.0504
 1397HK4    C2917278  10.112   7.729   0.584  0.4162  0.3140 -0.0379
 1397HK4    H1517279  10.076   7.648   0.647 -1.7292 -0.0098 -1.6017
 1397HK4    C2817280  10.248   7.756   0.572  0.4942 -0.1106 -0.1202
 1397HK4    C2717281  10.280   7.848   0.470 -0.1709  0.1232 -0.1187
 1397HK4    H1417282  10.388   7.866   0.459 -0.4652  2.6927  0.7168
 1397HK4    C3217283  10.191   7.918   0.389  0.0162  0.0930 -0.3464
 1397HK4    H1617284  10.238   8.001   0.337 -3.1879  1.3580 -1.4064
 1397HK4    C3117285  10.055   7.896   0.411  0.1214  0.3562  0.5594
 1397HK4    C3417286   9.934   7.964   0.369 -0.1009 -0.5897 -0.3442
 1397HK4    C3317287   9.822   7.902   0.437 -0.1130  0.3803  0.5405
 1397HK4    C3517288   9.691   7.941   0.411 -0.2123 -0.2245  0.0816
 1397HK4    H1717289   9.609   7.878   0.446 -0.1463 -0.3758 -0.0412
 1397HK4    C3617290   9.667   8.055   0.337 -0.1271  0.0217  0.4300
 1397HK4    H1817291   9.563   8.079   0.310  0.7009  1.2097 -1.9498
 1397HK4    C3717292   9.773   8.119   0.273 -0.1914 -0.6297 -0.3217
 1397HK4    H1917293   9.746   8.203   0.209  0.0068 -0.8145 -0.6565
 1397HK4    C3817294   9.904   8.075   0.291 -0.1832 -0.6285 -0.3669
 1397HK4    H2017295   9.985   8.136   0.250  0.4598  1.8589  4.2904
 1397HK4    C1417296  10.345   7.710   0.672 -0.0019  0.1638  0.4905
 1397HK4     C917297  10.455   7.785   0.715  0.2250  0.1935 -0.1424
 1397HK4     C817298  10.576   7.716   0.737 -0.0060 -0.0467  0.3748
 1397HK4    C1117299  10.583   7.578   0.748 -0.3401 -0.0813  0.1689
 1397HK4     H417300  10.676   7.531   0.785  0.5016  1.8515  0.5717
 1397HK4    C1217301  10.468   7.505   0.720 -0.3181 -0.1280  0.1990
 1397HK4     H517302  10.465   7.397   0.741  0.0971 -0.0814  0.5028
 1397HK4    C1317303  10.354   7.569   0.673  0.1098  0.1670 -0.4368
 1397HK4     H617304  10.285   7.497   0.627  1.4699 -1.8469  0.6113
 1397HK4     C717305  10.705   7.784   0.766  0.0444  0.1060 -0.1854
 1397HK4     O217306  10.812   7.729   0.740  0.3370  0.1815  0.8336
 1397HK4     C417307  10.700   7.929   0.794  0.1368  0.1867 -0.5751
 1397HK4     C317308  10.820   7.997   0.804 -0.0595  0.4207  0.3017
 1397HK4     H317309  10.911   7.937   0.824 -0.9409 -0.5792  1.3729
 1397HK4     C217310  10.822   8.134   0.825 -0.0712  0.5072 -0.2701
 1397HK4     H217311  10.912   8.195   0.812  2.2886 -3.2437 -2.2787
 1397HK4     C117312  10.699   8.198   0.841 -0.2932  0.1910 -0.6723
 1397HK4     H117313  10.700   8.301   0.802 -3.0125  0.1123 -1.0393
 1397HK4     C617314  10.577   8.129   0.841 -0.2813  0.1758 -0.3435
 1397HK4     C517315  10.575   7.993   0.807  0.1468  0.1397 -0.2303
 1397HK4    C1017316  10.455   7.931   0.745 -0.0226  0.1460  0.0875
 1397HK4     O117317  10.372   8.006   0.694  0.0853 -0.0873 -0.4289
 1397HK4    C1617318  10.461   8.207   0.888 -0.1057  0.0313  0.3364
 1397HK4    C1517319  10.458   8.348   0.885 -0.3860  0.0134 -0.2535
 1397HK4     H717320  10.529   8.405   0.823  2.0655 -0.8203  1.7393
 1397HK4    C2017321  10.365   8.420   0.959 -0.2195 -0.1819  0.1482
 1397HK4     H917322  10.357   8.527   0.937 -0.4830  0.0422  1.3200
 1397HK4    C1917323  10.268   8.359   1.038  0.1910 -0.2278  0.6160
 1397HK4    C1817324  10.259   8.215   1.024 -0.1022 -0.1551  0.0258
 1397HK4    C1717325  10.359   8.144   0.958 -0.0465 -0.2268  0.1868
 1397HK4     H817326  10.368   8.038   0.981 -2.9819 -0.5734 -0.0850
 1397HK4     N117327  10.144   8.164   1.087  0.0889 -0.1347  0.3960
 1397HK4    C2117328  10.081   8.279   1.140 -0.1881 -0.1899  0.1802
 1397HK4    C2217329  10.156   8.402   1.118 -0.4234 -0.1317 -0.2907
 1397HK4    C2617330  10.098   8.526   1.143  0.1235 -0.0185  0.4291
 1397HK4    H1317331  10.151   8.609   1.097 -1.2654  0.3842 -0.4601
 1397HK4    C2517332   9.972   8.537   1.201 -0.1953 -0.2163 -0.2121
 1397HK4    H1217333   9.934   8.631   1.242  2.1924  0.4961  0.4522
 1397HK4    C2417334   9.897   8.421   1.220 -0.1936 -0.1788  0.0131
 1397HK4    H1117335   9.794   8.430   1.258  0.0324  0.7803  0.3989
 1397HK4    C2317336   9.952   8.297   1.188 -0.1145 -0.2446  0.4091
 1397HK4    H1017337   9.876   8.221   1.169 -0.9981  0.4847  0.9699
 1397HK4    C3917338  10.083   8.040   1.064  0.1717  0.0269 -0.6862
 1397HK4    C4117339  10.002   7.976   1.159  0.0542  0.3376 -0.5792
 1397HK4    H2117340   9.995   8.018   1.260  2.1983 -0.6197 -0.0147
 1397HK4    C4217341   9.936   7.857   1.132  0.3204  0.0917 -0.1322
 1397HK4    H2217342   9.873   7.816   1.213  2.5801 -2.1143  0.6060
 1397HK4    C4317343   9.954   7.789   1.012  0.2173 -0.5089  0.1873
 1397HK4    H2317344   9.905   7.693   0.998 -0.7519  0.2987 -2.1534
 1397HK4    C4417345  10.037   7.847   0.916 -0.8624  0.5270 -0.1325
 1397HK4    H2417346  10.080   7.781   0.840 -1.2352 -0.5969  0.6195
 1397HK4    C4517347  10.103   7.966   0.945  0.7553 -0.2916 -0.3912
 1397HK4    H2517348  10.147   8.014   0.857  2.2073 -1.3226 -0.2552
 1398HK4    H2817349  10.275  10.194   8.620  1.3491 -2.5353 -0.0505
 1398HK4    C4817350  10.198  10.147   8.558  0.0494 -0.2734 -0.2049
 1398HK4    C4717351  10.064  10.186   8.553  0.0963 -0.0608  0.1100
 1398HK4    H2717352  10.042  10.279   8.607 -2.3658 -0.2608 -0.4830
 1398HK4    C4617353   9.970  10.128   8.468 -0.3380 -0.0475  0.5859
 1398HK4    H2617354   9.876  10.183   8.455  1.1024  1.7220 -3.1193
 1398HK4    C4017355   9.997  10.020   8.382 -0.0036  0.5603 -0.0763
 1398HK4    C5017356  10.130   9.975   8.395 -0.3311 -0.2699  0.4581
 1398HK4    H3017357  10.155   9.881   8.344 -2.3529 -0.3219 -0.4719
 1398HK4    C4917358  10.224  10.039   8.475  0.2411 -0.1536 -0.3024
 1398HK4    H2917359  10.326   9.997   8.473  0.2093 -0.2948  0.6695
 1398HK4     N217360   9.900   9.937   8.325 -0.1943  1.0154 -0.4209
 1398HK4    C3017361   9.764   9.920   8.360 -0.1105  0.1848 -0.4792
 1398HK4    C2917362   9.725   9.930   8.493  0.1062  0.1490 -0.4128
 1398HK4    H1517363   9.782   9.987   8.567  0.7373  1.3720 -1.8191
 1398HK4    C2817364   9.600   9.875   8.522  0.2739 -0.1766 -0.3043
 1398HK4    C2717365   9.515   9.847   8.413 -0.6036 -0.2625  0.4026
 1398HK4    H1417366   9.410   9.820   8.434 -0.6878  0.6624  1.2208
 1398HK4    C3217367   9.555   9.840   8.281  0.0577  0.2898  0.5723
 1398HK4    H1617368   9.485   9.822   8.199 -0.2165  2.4267  0.3066
 1398HK4    C3117369   9.690   9.859   8.252  0.1095 -0.9187 -0.0097
 1398HK4    C3417370   9.782   9.847   8.140 -0.0148  0.0242 -0.2191
 1398HK4    C3317371   9.909   9.892   8.192 -0.0732  0.0454 -0.0927
 1398HK4    C3517372  10.018   9.891   8.105 -0.1754  0.5423 -0.2192
 1398HK4    H1717373  10.117   9.875   8.148 -0.9000 -0.8028  0.9961
 1398HK4    C3617374  10.007   9.858   7.971 -0.0717  0.4945 -0.2170
 1398HK4    H1817375  10.101   9.853   7.914  0.1370 -0.7660  0.2096
 1398HK4    C3717376   9.889   9.801   7.925 -0.0309  0.3571 -0.1513
 1398HK4    H1917377   9.895   9.741   7.835 -2.5418 -1.9519  1.1306
 1398HK4    C3817378   9.779   9.797   8.010  0.1373 -0.6287  0.0245
 1398HK4    H2017379   9.689   9.744   7.977  0.7005 -2.4678  1.3983
 1398HK4    C1417380   9.573   9.828   8.659  0.0687 -0.0649 -0.3094
 1398HK4     C917381   9.489   9.720   8.688 -0.0524  0.1477  0.1292
 1398HK4     C817382   9.417   9.726   8.810 -0.3408 -0.1111 -0.0271
 1398HK4    C1117383   9.428   9.841   8.887 -0.4147 -0.4706  0.5218
 1398HK4     H417384   9.362   9.860   8.973 -1.3228 -0.1376 -0.2415
 1398HK4    C1217385   9.513   9.948   8.866 -0.2690 -0.7963 -0.5935
 1398HK4     H517386   9.522  10.027   8.943  1.4424 -0.3082 -1.2564
 1398HK4    C1317387   9.583   9.938   8.746  0.2762 -0.0509 -0.3493
 1398HK4     H617388   9.660  10.014   8.727  0.9684 -0.2122  1.6526
 1398HK4     C717389   9.358   9.601   8.863  0.1395 -0.3792 -0.1142
 1398HK4     O217390   9.311   9.594   8.976 -0.1263  0.0493 -0.1942
 1398HK4     C417391   9.357   9.476   8.784  0.2163 -0.4277 -0.0356
 1398HK4     C317392   9.265   9.376   8.812 -0.3678  0.1081  0.0018
 1398HK4     H317393   9.192   9.384   8.894  0.4320 -0.3503  0.7780
 1398HK4     C217394   9.262   9.254   8.744  0.1356  0.0925  0.0058
 1398HK4     H217395   9.203   9.169   8.780  0.1784  0.6390  1.3885
 1398HK4     C117396   9.367   9.241   8.653 -0.5146  0.0797 -0.7432
 1398HK4     H117397   9.392   9.141   8.615  1.6393  0.5392 -0.6014
 1398HK4     C617398   9.467   9.335   8.622 -0.1341 -0.0456  0.0752
 1398HK4     C517399   9.453   9.461   8.682  0.2170  0.0815 -0.1058
 1398HK4    C1017400   9.515   9.586   8.629  0.0485  0.2188  0.0159
 1398HK4     O117401   9.566   9.587   8.517 -0.0124 -0.5879 -0.0263
 1398HK4    C1617402   9.573   9.290   8.531 -0.0014 -0.1634  0.2918
 1398HK4    C1517403   9.548   9.189   8.436  0.3902 -0.1010  0.1207
 1398HK4     H717404   9.449   9.181   8.390 -0.1673 -0.1284  1.3103
 1398HK4    C2017405   9.654   9.128   8.371  0.0266  0.0835 -0.6483
 1398HK4     H917406   9.635   9.037   8.314 -1.2478 -0.3207  0.4046
 1398HK4    C1917407   9.783   9.176   8.389 -0.0521 -0.3006  0.9641
 1398HK4    C1817408   9.816   9.284   8.480 -0.1636  0.2280  0.3731
 1398HK4    C1717409   9.705   9.329   8.551 -0.1967  0.6388  0.0624
 1398HK4     H817410   9.716   9.404   8.629 -1.4217  0.1540  0.7139
 1398HK4     N117411   9.954   9.315   8.482 -0.0219 -0.3825  0.0991
 1398HK4    C2117412  10.015   9.224   8.393  0.1080 -0.2360  0.0359
 1398HK4    C2217413   9.912   9.143   8.330 -0.1865 -0.3972  0.7238
 1398HK4    C2617414   9.946   9.040   8.243 -0.0993  0.7012 -0.5560
 1398HK4    H1317415   9.863   8.980   8.209  0.6831 -1.3268  1.0400
 1398HK4    C2517416  10.082   9.013   8.227 -0.1784  0.2787 -0.5371
 1398HK4    H1217417  10.106   8.941   8.150  1.1805 -1.5684  1.5458
 1398HK4    C2417418  10.181   9.088   8.290 -0.1948 -0.1414 -0.0043
 1398HK4    H1117419  10.288   9.067   8.279 -0.1745 -0.1529  0.2404
 1398HK4    C2317420  10.149   9.196   8.371  0.1431 -0.1677  0.1663
 1398HK4    H1017421  10.237   9.247   8.412  1.2521 -0.2528 -2.0319
 1398HK4    C3917422  10.010   9.437   8.522 -0.0575 -0.4148  0.2528
 1398HK4    C4117423  10.145   9.435   8.560 -0.0918  0.1361  0.4109
 1398HK4    H2117424  10.193   9.343   8.599  1.0996  0.6702  0.2373
 1398HK4    C4217425  10.221   9.549   8.580 -0.0851  0.1227  0.4511
 1398HK4    H2217426  10.330   9.536   8.585  0.2401  1.9476 -1.1401
 1398HK4    C4317427  10.156   9.672   8.572  0.2601  0.2819  0.0473
 1398HK4    H2317428  10.216   9.760   8.549 -0.8163  0.8442 -0.6409
 1398HK4    C4417429  10.020   9.673   8.548  0.1670 -0.9127  0.4619
 1398HK4    H2417430   9.972   9.771   8.564  2.5699  0.8457 -2.6667
 1398HK4    C4517431   9.943   9.561   8.517 -0.1646 -0.4915 -0.2738
 1398HK4    H2517432   9.833   9.565   8.518 -0.2162 -0.5950 -2.5514
 1399HK4    H2817433   7.053   2.854   3.976  0.6927 -1.7569  2.0530
 1399HK4    C4817434   6.945   2.842   3.980  0.3538  0.1065 -0.1994
 1399HK4    C4717435   6.859   2.925   3.910  0.0221 -0.3541 -0.3450
 1399HK4    H2717436   6.914   3.002   3.853  0.3533 -0.3724 -0.0517
 1399HK4    C4617437   6.722   2.927   3.933  0.0118  0.1189 -0.4235
 1399HK4    H2617438   6.656   3.003   3.889 -0.4477 -1.0819 -1.8783
 1399HK4    C4017439   6.662   2.820   4.004  0.2609  0.1248 -0.2025
 1399HK4    C5017440   6.751   2.736   4.072 -0.0365  0.0871  0.1396
 1399HK4    H3017441   6.710   2.664   4.145 -3.4489 -0.2029 -1.9846
 1399HK4    C4917442   6.890   2.744   4.062 -0.0615  0.7269  0.2662
 1399HK4    H2917443   6.946   2.697   4.144 -2.6074 -0.8328  1.1918
 1399HK4     N217444   6.526   2.791   3.986  0.2285 -0.1703  0.5164
 1399HK4    C3017445   6.454   2.726   4.088 -0.2768 -0.1701  0.1630
 1399HK4    C2917446   6.456   2.749   4.225  0.2856 -0.4103  0.1987
 1399HK4    H1517447   6.540   2.805   4.268 -0.0124 -0.2494  0.5826
 1399HK4    C2817448   6.365   2.681   4.306 -0.0759  0.0905  0.2201
 1399HK4    C2717449   6.269   2.595   4.250 -0.2577  0.1944  0.3738
 1399HK4    H1417450   6.181   2.562   4.308 -2.2952  2.3956 -1.3540
 1399HK4    C3217451   6.269   2.566   4.114 -0.3928 -0.1130  0.4365
 1399HK4    H1617452   6.184   2.514   4.072  0.2431  1.5376 -3.0287
 1399HK4    C3117453   6.356   2.636   4.031 -0.4510 -0.1168  0.3753
 1399HK4    C3417454   6.373   2.656   3.889 -0.1659 -0.2287  0.3916
 1399HK4    C3317455   6.463   2.767   3.862  0.2349 -0.5115  0.5785
 1399HK4    C3517456   6.467   2.827   3.737 -0.7473 -0.5137  0.5452
 1399HK4    H1717457   6.507   2.928   3.725 -2.0669 -0.3853 -3.4623
 1399HK4    C3617458   6.397   2.766   3.634 -0.8351  0.0229  0.2846
 1399HK4    H1817459   6.415   2.799   3.530 -1.3846  1.8112  0.7272
 1399HK4    C3717460   6.315   2.656   3.652 -0.5671 -0.2460 -0.1091
 1399HK4    H1917461   6.232   2.634   3.585 -0.9539 -0.4459  0.4295
 1399HK4    C3817462   6.311   2.598   3.779  0.5341 -0.1723 -0.0370
 1399HK4    H2017463   6.237   2.520   3.798  0.7809  0.0674  1.9433
 1399HK4    C1417464   6.398   2.666   4.449  0.7383 -0.0184  0.0221
 1399HK4     C917465   6.368   2.551   4.523  0.6247 -0.0043 -0.0026
 1399HK4     C817466   6.317   2.564   4.654 -0.7743 -0.0257 -0.5274
 1399HK4    C1117467   6.318   2.689   4.713  0.4224 -0.1858 -0.1951
 1399HK4     H417468   6.291   2.703   4.819  0.2591  0.7174 -0.3531
 1399HK4    C1217469   6.368   2.801   4.647 -0.3324  0.1303 -0.2329
 1399HK4     H517470   6.325   2.896   4.682 -2.0953 -0.3225 -1.1544
 1399HK4    C1317471   6.415   2.788   4.517  0.4925 -0.0112  0.0684
 1399HK4     H617472   6.472   2.869   4.471  1.0419 -1.1875 -1.3527
 1399HK4     C717473   6.279   2.450   4.740 -0.1259  0.0808 -0.0962
 1399HK4     O217474   6.185   2.463   4.819  0.8449 -0.2169  1.1208
 1399HK4     C417475   6.324   2.316   4.696 -0.0485 -0.0896  0.4924
 1399HK4     C317476   6.312   2.210   4.785 -0.2972 -0.0001  0.5636
 1399HK4     H317477   6.307   2.223   4.894 -0.0904 -0.6559  0.6512
 1399HK4     C217478   6.299   2.082   4.732  0.4550  0.1274  0.0703
 1399HK4     H217479   6.280   1.997   4.799 -1.3391 -0.3164 -0.9610
 1399HK4     C117480   6.301   2.062   4.594 -0.0243  0.0304  0.0757
 1399HK4     H117481   6.272   1.963   4.557 -2.6033  1.3402 -1.6114
 1399HK4     C617482   6.324   2.168   4.504  0.1568  0.1918  0.3145
 1399HK4     C517483   6.345   2.296   4.558 -0.1691  0.1952  0.4312
 1399HK4    C1017484   6.385   2.411   4.474  0.3443 -0.1247  0.2365
 1399HK4     O117485   6.484   2.391   4.404  0.2859 -0.1619  0.1651
 1399HK4    C1617486   6.270   2.159   4.368  0.0144  0.7971  0.3302
 1399HK4    C1517487   6.152   2.083   4.352  0.9757 -0.5967 -0.2168
 1399HK4     H717488   6.096   2.064   4.445  0.5767 -2.0131 -0.7361
 1399HK4    C2017489   6.092   2.035   4.237 -0.0183  0.7281 -0.2622
 1399HK4     H917490   6.015   1.958   4.234  0.5767  0.1207  0.1050
 1399HK4    C1917491   6.164   2.061   4.121  0.0431 -0.3520 -0.4744
 1399HK4    C1817492   6.285   2.141   4.122 -0.2123  0.0296 -0.0983
 1399HK4    C1717493   6.330   2.186   4.246 -0.2355 -0.1720 -0.0152
 1399HK4     H817494   6.436   2.209   4.257 -0.5695  2.0528 -1.0758
 1399HK4     N117495   6.348   2.145   3.996 -0.3039  0.9973 -0.1168
 1399HK4    C2117496   6.262   2.075   3.908  0.1309  0.1924  0.0988
 1399HK4    C2217497   6.151   2.019   3.982 -0.2392  0.0371 -0.5688
 1399HK4    C2617498   6.043   1.961   3.917 -0.1464 -0.5143 -0.2371
 1399HK4    H1317499   5.957   1.912   3.963 -1.7308  2.2757 -0.1345
 1399HK4    C2517500   6.046   1.951   3.778 -0.2510 -0.2041 -0.2635
 1399HK4    H1217501   5.966   1.891   3.733  1.0433 -0.8520 -1.7597
 1399HK4    C2417502   6.158   1.994   3.708 -0.8105  0.9611 -0.4428
 1399HK4    H1117503   6.146   2.005   3.599  0.0160 -0.4312 -0.6872
 1399HK4    C2317504   6.268   2.051   3.771 -1.2393  1.5243 -0.1987
 1399HK4    H1017505   6.356   2.078   3.714 -1.9316  2.8298 -0.6651
 1399HK4    C3917506   6.473   2.196   3.961  0.1290  0.2496  0.3124
 1399HK4    C4117507   6.518   2.310   4.030  0.0364  0.7235 -0.3957
 1399HK4    H2117508   6.439   2.375   4.071  1.3271  0.4569  2.6317
 1399HK4    C4217509   6.652   2.332   4.058 -0.0398 -0.2414  0.8200
 1399HK4    H2217510   6.686   2.432   4.088  1.6995 -0.3263 -0.7356
 1399HK4    C4317511   6.747   2.236   4.025  0.4811  0.4049  0.4133
 1399HK4    H2317512   6.852   2.238   4.054  0.1490 -2.6898  1.9723
 1399HK4    C4417513   6.711   2.128   3.945  0.2816  0.3892  0.5242
 1399HK4    H2417514   6.774   2.039   3.932 -1.0447 -0.8151  2.0487
 1399HK4    C4517515   6.577   2.116   3.909  0.3598  0.6471  0.1563
 1399HK4    H2517516   6.549   2.051   3.825 -1.4714  2.6405 -0.8272
 1400HK4    H2817517   5.938   0.590   4.955  1.0301 -3.2285 -0.4384
 1400HK4    C4817518   5.951   0.575   5.062  0.7203  0.3631  0.1780
 1400HK4    C4717519   6.036   0.671   5.115  0.5267  0.5142  0.2098
 1400HK4    H2717520   6.057   0.762   5.057 -2.7027  0.8396 -0.5924
 1400HK4    C4617521   6.090   0.651   5.242  0.0286  0.2963  0.3899
 1400HK4    H2617522   6.173   0.715   5.275  0.2460  0.8554 -1.1753
 1400HK4    C4017523   6.047   0.547   5.326 -0.6258  0.2609  0.0195
 1400HK4    C5017524   5.949   0.459   5.277 -0.3178  0.0408 -0.1998
 1400HK4    H3017525   5.921   0.369   5.333  0.6847 -0.2729 -0.1974
 1400HK4    C4917526   5.905   0.474   5.146 -0.3277  0.5748 -0.1384
 1400HK4    H2917527   5.855   0.383   5.110 -0.9568  0.1796  1.7145
 1400HK4     N217528   6.097   0.520   5.454 -0.7303  0.7674  0.1687
 1400HK4    C3017529   6.221   0.566   5.502 -0.1162 -0.5608 -0.1288
 1400HK4    C2917530   6.335   0.603   5.430 -0.0544 -0.0381  0.2359
 1400HK4    H1517531   6.338   0.581   5.323 -0.4020 -2.5223  0.6972
 1400HK4    C2817532   6.448   0.658   5.488  0.0077 -0.1225  0.1916
 1400HK4    C2717533   6.450   0.662   5.629  0.1404  0.2081  0.1828
 1400HK4    H1417534   6.535   0.708   5.681  0.5574  1.7998 -1.8394
 1400HK4    C3217535   6.351   0.602   5.705  0.1571 -0.0405  0.0094
 1400HK4    H1617536   6.348   0.593   5.814 -2.3908 -2.2827 -0.1907
 1400HK4    C3117537   6.236   0.552   5.645  0.2466 -0.0948 -0.1196
 1400HK4    C3417538   6.106   0.508   5.692  0.3395 -0.1217  0.1115
 1400HK4    C3317539   6.027   0.485   5.572 -0.0457 -0.0235  0.3452
 1400HK4    C3517540   5.891   0.466   5.590 -0.1229  0.1555 -0.0523
 1400HK4    H1717541   5.829   0.444   5.503  1.3537 -0.4774 -0.9705
 1400HK4    C3617542   5.827   0.467   5.713 -0.6425 -0.5496 -0.3125
 1400HK4    H1817543   5.720   0.441   5.718 -0.9472  1.0065  2.2784
 1400HK4    C3717544   5.909   0.481   5.825 -0.2668 -0.7319 -0.5622
 1400HK4    H1917545   5.850   0.499   5.915 -0.9969  0.2812 -1.2196
 1400HK4    C3817546   6.046   0.500   5.818 -0.3022 -0.3224 -0.2023
 1400HK4    H2017547   6.104   0.494   5.910  0.2969 -0.2342 -0.5709
 1400HK4    C1417548   6.571   0.677   5.409  0.1192 -0.1624  0.3561
 1400HK4     C917549   6.703   0.658   5.452  0.2993  0.3710  0.0367
 1400HK4     C817550   6.803   0.748   5.410  0.4037  0.1834 -0.1154
 1400HK4    C1117551   6.772   0.856   5.329 -0.2471  0.0750 -0.0123
 1400HK4     H417552   6.846   0.938   5.326 -0.5989  0.4362  0.8629
 1400HK4    C1217553   6.644   0.875   5.278 -0.3146 -0.2550  0.0367
 1400HK4     H517554   6.625   0.941   5.192 -1.6646 -0.0703  0.4625
 1400HK4    C1317555   6.549   0.781   5.317 -0.1931 -0.2598  0.3176
 1400HK4     H617556   6.444   0.801   5.291 -0.8169 -2.5798  0.9672
 1400HK4     C717557   6.939   0.733   5.466  0.0479  0.4982  0.8374
 1400HK4     O217558   7.014   0.830   5.469  0.0182  0.5617 -0.2790
 1400HK4     C417559   6.978   0.608   5.536  0.1025 -0.3442 -0.6694
 1400HK4     C317560   7.111   0.592   5.572  0.0851  0.4747 -0.2027
 1400HK4     H317561   7.189   0.621   5.500 -0.1154 -0.2088 -0.7056
 1400HK4     C217562   7.140   0.504   5.676 -0.1109  0.6775  0.0227
 1400HK4     H217563   7.242   0.486   5.713 -1.0713 -0.5749  2.1540
 1400HK4     C117564   7.036   0.453   5.753  0.1420  0.3863  0.1711
 1400HK4     H117565   7.066   0.379   5.829 -0.6971 -0.4707 -0.3119
 1400HK4     C617566   6.899   0.469   5.723  0.0871 -0.1536  0.1332
 1400HK4     C517567   6.875   0.543   5.607  0.4415  0.0118  0.1641
 1400HK4    C1017568   6.739   0.548   5.545  0.9191 -0.2332 -0.9175
 1400HK4     O117569   6.683   0.439   5.527  0.0490 -0.0463  0.5633
 1400HK4    C1617570   6.808   0.465   5.839 -0.0797  0.0432  0.0110
 1400HK4    C1517571   6.851   0.490   5.971  0.1484 -0.3839  0.0177
 1400HK4     H717572   6.938   0.557   5.978  1.2760 -1.9062  0.8949
 1400HK4    C2017573   6.787   0.447   6.087 -0.1979  0.5114  0.1686
 1400HK4     H917574   6.823   0.491   6.180  0.5156  2.4329 -0.9885
 1400HK4    C1917575   6.672   0.370   6.075  0.1615 -0.0374  0.2318
 1400HK4    C1817576   6.622   0.337   5.943  0.0913 -0.5861  0.3928
 1400HK4    C1717577   6.696   0.383   5.835 -0.2155  0.2011  0.5162
 1400HK4     H817578   6.687   0.314   5.751  0.7702  0.8345 -0.1174
 1400HK4     N117579   6.507   0.256   5.948 -0.1203 -0.2830  0.4670
 1400HK4    C2117580   6.480   0.245   6.086 -0.4760  0.9913  0.5036
 1400HK4    C2217581   6.578   0.313   6.169  0.4126 -0.1607  0.4115
 1400HK4    C2617582   6.553   0.327   6.305  0.3793 -1.0809  0.5065
 1400HK4    H1317583   6.617   0.392   6.366  0.9665 -1.3098  0.1401
 1400HK4    C2517584   6.441   0.271   6.365 -0.6142  0.4814  0.1469
 1400HK4    H1217585   6.425   0.292   6.471 -0.5185 -0.0880  0.2781
 1400HK4    C2417586   6.347   0.207   6.285  0.1411 -0.1753 -0.2205
 1400HK4    H1117587   6.286   0.123   6.322  2.1879 -1.0747  1.2200
 1400HK4    C2317588   6.365   0.197   6.148 -0.2656 -0.5024 -0.2528
 1400HK4    H1017589   6.292   0.137   6.094  0.3589 -0.4772 -1.1333
 1400HK4    C3917590   6.442   0.196   5.840  0.0127  0.1349  0.1519
 1400HK4    C4117591   6.374   0.073   5.857 -0.2187  0.2912  0.3555
 1400HK4    H2117592   6.392   0.012   5.947  0.2777 -0.0663  0.0175
 1400HK4    C4217593   6.291   0.033   5.754  0.1657 -0.1383  0.2094
 1400HK4    H2217594   6.237  11.186   5.766  1.4621 -0.6341  2.3047
 1400HK4    C4317595   6.267   0.110   5.641 -0.3910 -0.1767  0.2981
 1400HK4    H2317596   6.195   0.078   5.566 -0.1065 -2.0160  0.8042
 1400HK4    C4417597   6.338   0.227   5.616 -0.3441 -0.2067  0.2907
 1400HK4    H2417598   6.314   0.292   5.531 -1.0816 -1.2202 -0.2838
 1400HK4    C4517599   6.425   0.265   5.718  0.0114 -0.1726 -0.0243
 1400HK4    H2517600   6.496   0.344   5.689  0.1454 -0.3288 -0.1217
 1401HK4    H2817601   6.822  11.239   7.236  0.7410  0.8604  0.6442
 1401HK4    C4817602   6.752   0.074   7.246 -0.2881  0.0414  0.2641
 1401HK4    C4717603   6.626   0.070   7.306 -0.3646 -0.0772  0.1006
 1401HK4    H2717604   6.569  11.228   7.280 -0.4174 -0.1696  0.5305
 1401HK4    C4617605   6.570   0.189   7.351 -0.0957  0.1987 -0.2812
 1401HK4    H2617606   6.466   0.177   7.387 -0.5119 -0.6577 -1.7415
 1401HK4    C4017607   6.619   0.318   7.322  0.3714  0.1119  0.1043
 1401HK4    C5017608   6.731   0.317   7.237  0.3027 -0.1324  0.0123
 1401HK4    H3017609   6.746   0.410   7.180 -1.7698  0.8804  1.0712
 1401HK4    C4917610   6.798   0.199   7.209  0.9724 -0.0840  1.3603
 1401HK4    H2917611   6.886   0.209   7.143 -0.2388 -0.0207 -0.2912
 1401HK4     N217612   6.551   0.439   7.341  0.0434 -0.1073  0.3294
 1401HK4    C3017613   6.411   0.453   7.352  0.0169  0.0923 -0.2437
 1401HK4    C2917614   6.304   0.376   7.306  0.2254 -0.2716 -0.1231
 1401HK4    H1517615   6.323   0.308   7.223 -1.6501  0.4284 -1.1467
 1401HK4    C2817616   6.171   0.390   7.342  0.2503 -0.9230  0.2275
 1401HK4    C2717617   6.146   0.512   7.407  0.4242 -0.1202 -1.1765
 1401HK4    H1417618   6.044   0.531   7.444  1.5357  2.5004  0.6989
 1401HK4    C3217619   6.247   0.597   7.450 -0.0801 -0.1759  0.1601
 1401HK4    H1617620   6.228   0.699   7.486  3.6062  1.1099 -1.3345
 1401HK4    C3117621   6.382   0.573   7.427 -0.1020  0.0269 -0.1838
 1401HK4    C3417622   6.508   0.639   7.454 -0.2226 -0.0762  0.6263
 1401HK4    C3317623   6.610   0.556   7.392 -0.3077  0.1080  0.2427
 1401HK4    C3517624   6.742   0.593   7.411 -0.4324  0.7696 -0.1618
 1401HK4    H1717625   6.820   0.540   7.357  0.5360  1.0552  0.9136
 1401HK4    C3617626   6.784   0.702   7.487 -0.3043  0.2554  0.5159
 1401HK4    H1817627   6.892   0.721   7.491  0.0068 -1.5238  0.8092
 1401HK4    C3717628   6.686   0.781   7.545 -0.3123  0.2253  0.5434
 1401HK4    H1917629   6.710   0.868   7.607 -2.1281  1.6423 -0.6821
 1401HK4    C3817630   6.552   0.748   7.528 -0.2597  0.0635  0.4415
 1401HK4    H2017631   6.478   0.821   7.563 -1.6507  0.3293 -2.9277
 1401HK4    C1417632   6.061   0.302   7.299 -0.3055 -0.2109  0.1866
 1401HK4     C917633   5.925   0.338   7.298 -0.1491  0.3828  0.1886
 1401HK4     C817634   5.830   0.239   7.330 -0.1268  0.2396 -0.1798
 1401HK4    C1117635   5.867   0.106   7.345 -0.2020  0.1906 -0.4277
 1401HK4     H417636   5.800   0.036   7.396 -0.7517  1.4914  0.6719
 1401HK4    C1217637   6.000   0.068   7.333 -0.2347 -0.0924  0.1057
 1401HK4     H517638   6.018  11.207   7.338  0.5405 -0.0138 -0.6624
 1401HK4    C1317639   6.095   0.166   7.308 -0.1726 -0.1950 -0.0725
 1401HK4     H617640   6.201   0.139   7.293 -0.2164  0.0830 -0.8907
 1401HK4     C717641   5.696   0.286   7.373 -0.3505 -0.2536 -0.3318
 1401HK4     O217642   5.622   0.207   7.431 -0.2450 -0.2234 -0.1565
 1401HK4     C417643   5.666   0.431   7.377  0.3357 -0.1228  0.2287
 1401HK4     C317644   5.560   0.471   7.457  0.2734 -0.0808  0.1247
 1401HK4     H317645   5.506   0.402   7.524 -1.3605 -0.2385 -1.3211
 1401HK4     C217646   5.532   0.607   7.452 -0.2769 -0.2129 -0.4854
 1401HK4     H217647   5.482   0.646   7.543 -1.1462 -0.6819 -0.7565
 1401HK4     C117648   5.593   0.691   7.359 -0.7555 -0.1369 -0.7333
 1401HK4     H117649   5.581   0.799   7.372 -0.9132 -0.1987 -0.3512
 1401HK4     C617650   5.680   0.639   7.262  0.1000 -0.3106  0.1199
 1401HK4     C517651   5.733   0.511   7.283 -0.0893 -0.4700 -0.3728
 1401HK4    C1017652   5.871   0.467   7.247  0.0248  0.1165 -0.6753
 1401HK4     O117653   5.936   0.527   7.161  0.3014  0.3156 -0.3269
 1401HK4    C1617654   5.684   0.703   7.129  0.1325 -0.1278  0.2069
 1401HK4    C1517655   5.656   0.841   7.122  0.2863 -0.1079 -0.0094
 1401HK4     H717656   5.678   0.906   7.208  2.2060  0.0705 -0.6151
 1401HK4    C2017657   5.632   0.908   7.002 -0.5914  0.1450  0.3067
 1401HK4     H917658   5.579   1.003   6.992 -0.3544  0.0846 -1.6881
 1401HK4    C1917659   5.648   0.841   6.882 -0.3231 -0.1059  0.4841
 1401HK4    C1817660   5.681   0.699   6.888  0.5707  0.0420 -0.6639
 1401HK4    C1717661   5.695   0.633   7.010  0.4305  0.7318 -0.2702
 1401HK4     H817662   5.705   0.525   7.014  1.7671  0.8705  0.3182
 1401HK4     N117663   5.705   0.648   6.759  0.4976  0.1703 -0.7291
 1401HK4    C2117664   5.664   0.747   6.668 -0.4767  0.1956 -0.2637
 1401HK4    C2217665   5.631   0.868   6.741  0.4762  0.0536  0.4119
 1401HK4    C2617666   5.578   0.975   6.669 -0.0709 -0.4467  0.0646
 1401HK4    H1317667   5.553   1.072   6.712 -1.7578  0.0356 -1.9230
 1401HK4    C2517668   5.544   0.950   6.536 -0.1717 -0.0215  0.0112
 1401HK4    H1217669   5.458   1.005   6.498  0.5158  1.5361  0.6458
 1401HK4    C2417670   5.585   0.838   6.465  0.1344 -0.3298  0.6647
 1401HK4    H1117671   5.553   0.832   6.360 -2.3543 -0.6006  1.4079
 1401HK4    C2317672   5.645   0.732   6.531  0.3414 -0.8015 -0.2718
 1401HK4    H1017673   5.659   0.634   6.484 -0.9742 -1.5865  0.9412
 1401HK4    C3917674   5.799   0.547   6.733 -0.0197 -0.4618 -0.1719
 1401HK4    C4117675   5.768   0.464   6.623  0.0638  0.1020 -0.6231
 1401HK4    H2117676   5.665   0.435   6.600  0.4537 -1.0092 -1.0095
 1401HK4    C4217677   5.875   0.399   6.563  0.5071  0.5432 -0.3180
 1401HK4    H2217678   5.853   0.351   6.466 -0.9885  0.8124 -0.1218
 1401HK4    C4317679   6.005   0.417   6.610  0.2774  0.0325  0.5336
 1401HK4    H2317680   6.083   0.375   6.546 -0.6551 -0.1892 -0.4836
 1401HK4    C4417681   6.035   0.499   6.718  0.4191  0.0913  0.4483
 1401HK4    H2417682   6.141   0.522   6.739 -0.0573  0.0297  3.0772
 1401HK4    C4517683   5.930   0.565   6.781 -0.0597 -0.0241 -0.2241
 1401HK4    H2517684   5.942   0.621   6.874 -1.6507 -1.9627  1.1957
 1402HK4    H2817685   7.956   0.928   2.207  0.2285  0.8600 -1.6383
 1402HK4    C4817686   7.964   0.835   2.150  0.4316 -0.1155 -0.0656
 1402HK4    C4717687   7.887   0.812   2.036  0.1263  0.1357  0.0865
 1402HK4    H2717688   7.803   0.880   2.018 -0.0958  0.5255  2.3888
 1402HK4    C4617689   7.919   0.707   1.952  0.2079 -0.2945  0.6511
 1402HK4    H2617690   7.861   0.689   1.860  2.8578 -0.4383 -1.0662
 1402HK4    C4017691   8.031   0.624   1.977  0.5832 -0.0356 -0.1381
 1402HK4    C5017692   8.102   0.650   2.096  0.2302 -0.3271  0.1383
 1402HK4    H3017693   8.193   0.592   2.116  0.8238  1.4038  2.6309
 1402HK4    C4917694   8.070   0.753   2.184  0.0201 -0.5119  0.2795
 1402HK4    H2917695   8.125   0.778   2.276  1.5061  3.6147 -1.5770
 1402HK4     N217696   8.111   0.552   1.888  0.4167 -0.2672 -0.0991
 1402HK4    C3017697   8.127   0.578   1.750  0.1012 -0.2687 -0.1363
 1402HK4    C2917698   8.125   0.703   1.689  0.2450 -0.2296 -0.0614
 1402HK4    H1517699   8.066   0.783   1.734 -1.1026 -1.6652  0.7922
 1402HK4    C2817700   8.164   0.721   1.557  0.3398  0.1877  0.0245
 1402HK4    C2717701   8.193   0.604   1.485 -0.3705  0.0866 -0.0973
 1402HK4    H1417702   8.257   0.622   1.397  0.6743  0.2271  0.6802
 1402HK4    C3217703   8.184   0.474   1.531 -0.3312  0.1336  0.0429
 1402HK4    H1617704   8.200   0.387   1.467 -1.3517 -0.6182  0.7776
 1402HK4    C3117705   8.149   0.462   1.665  0.2708 -0.4456  0.1499
 1402HK4    C3417706   8.156   0.353   1.760 -0.5000 -0.4312  0.2269
 1402HK4    C3317707   8.126   0.412   1.889 -0.5704 -0.3764  0.1852
 1402HK4    C3517708   8.119   0.328   2.000 -0.5708 -0.2155  0.3075
 1402HK4    H1717709   8.075   0.363   2.093 -0.1088  0.2673  0.3437
 1402HK4    C3617710   8.149   0.193   1.990  0.0118 -0.0871  0.3132
 1402HK4    H1817711   8.144   0.124   2.076 -1.2160  0.2151  0.4826
 1402HK4    C3717712   8.181   0.140   1.865 -0.3769  0.4993 -0.0393
 1402HK4    H1917713   8.192   0.031   1.865 -1.0323  0.4208 -2.3729
 1402HK4    C3817714   8.179   0.216   1.749  0.1081 -0.2727 -0.5639
 1402HK4    H2017715   8.180   0.164   1.654  1.8025 -2.7558  0.7642
 1402HK4    C1417716   8.135   0.852   1.496 -0.2454  0.3456  0.6322
 1402HK4     C917717   8.063   0.882   1.380  0.4426  0.1210  0.1448
 1402HK4     C817718   8.084   0.995   1.298  0.1998  0.0297 -0.0438
 1402HK4    C1117719   8.182   1.085   1.339 -0.6362  0.6797  0.5662
 1402HK4     H417720   8.192   1.182   1.290 -1.3176  0.2834 -0.3662
 1402HK4    C1217721   8.256   1.058   1.453  0.5452 -0.3502 -0.4237
 1402HK4     H517722   8.331   1.136   1.475  0.7293 -0.2887 -1.2572
 1402HK4    C1317723   8.233   0.946   1.532  0.1374  0.1328  0.1484
 1402HK4     H617724   8.308   0.913   1.607  1.0971 -0.9421 -1.2645
 1402HK4     C717725   8.002   1.032   1.181  0.1337 -0.0077 -0.0092
 1402HK4     O217726   8.011   1.144   1.131 -0.2524  0.2557  0.5062
 1402HK4     C417727   7.909   0.927   1.133  0.2833 -0.2836  0.3051
 1402HK4     C317728   7.828   0.954   1.024  0.3620 -0.4674  0.2001
 1402HK4     H317729   7.837   1.052   0.974 -1.5175 -0.3447  0.0362
 1402HK4     C217730   7.762   0.851   0.959 -0.5113  0.1867  0.0375
 1402HK4     H217731   7.714   0.874   0.862 -0.2481  1.9322  0.3045
 1402HK4     C117732   7.789   0.721   1.000  0.6062  0.4064  0.0141
 1402HK4     H117733   7.750   0.634   0.945  0.0515  1.7506 -1.7499
 1402HK4     C617734   7.870   0.689   1.110 -0.2348 -0.1934  0.4711
 1402HK4     C517735   7.919   0.797   1.186 -0.2449 -0.2320  0.5330
 1402HK4    C1017736   7.968   0.781   1.326  0.5628 -0.0609  0.2705
 1402HK4     O117737   7.887   0.723   1.397  0.4430 -0.2209  0.0039
 1402HK4    C1617738   7.886   0.546   1.141 -0.4754 -0.3316 -0.0400
 1402HK4    C1517739   8.007   0.505   1.201 -0.2287  0.2119 -0.1567
 1402HK4     H717740   8.098   0.567   1.202 -0.3178  0.3550 -0.6757
 1402HK4    C2017741   8.020   0.385   1.270 -0.0133  0.0845 -0.4147
 1402HK4     H917742   8.121   0.348   1.287 -1.1508 -3.7130 -1.2486
 1402HK4    C1917743   7.909   0.302   1.284  0.2670 -0.2547 -0.2026
 1402HK4    C1817744   7.783   0.345   1.227  0.0953  0.2109  0.5370
 1402HK4    C1717745   7.775   0.464   1.155 -0.6214 -0.1194  0.0595
 1402HK4     H817746   7.680   0.490   1.110 -0.3907  1.2229  0.3317
 1402HK4     N117747   7.682   0.252   1.258  0.1814 -0.0296  0.1033
 1402HK4    C2117748   7.745   0.150   1.333  0.2080 -0.0164  0.0980
 1402HK4    C2217749   7.886   0.177   1.354  0.4158 -0.5170 -0.6136
 1402HK4    C2617750   7.970   0.086   1.416  0.0199 -0.0516  0.6298
 1402HK4    H1317751   8.077   0.108   1.414  0.2882 -1.3990 -1.6024
 1402HK4    C2517752   7.923  11.211   1.461 -0.4026 -0.1057  0.0475
 1402HK4    H1217753   7.978  11.143   1.527 -0.6421  0.6677  1.0544
 1402HK4    C2417754   7.788  11.187   1.438 -0.4815 -0.1963  0.5702
 1402HK4    H1117755   7.741  11.118   1.508  1.3344  0.0903  2.0997
 1402HK4    C2317756   7.700   0.025   1.374  0.3153 -0.3242 -0.7196
 1402HK4    H1017757   7.600  11.239   1.346 -1.1068  2.7768  0.3394
 1402HK4    C3917758   7.549   0.286   1.286  0.1301 -0.0904 -0.0698
 1402HK4    C4117759   7.517   0.410   1.345 -0.2988 -0.1732 -0.1271
 1402HK4    H2117760   7.582   0.457   1.420 -1.1515 -0.1659  0.6252
 1402HK4    C4217761   7.386   0.457   1.335 -0.2060  0.0648 -0.2030
 1402HK4    H2217762   7.357   0.554   1.378  1.6650  0.5067  0.1423
 1402HK4    C4317763   7.286   0.383   1.275 -0.3462 -0.0558  0.1763
 1402HK4    H2317764   7.188   0.409   1.315 -1.1335 -0.9688 -1.1051
 1402HK4    C4417765   7.319   0.256   1.227 -0.4129 -0.2842  0.7367
 1402HK4    H2417766   7.244   0.221   1.155  1.6254 -2.6741 -0.2643
 1402HK4    C4517767   7.449   0.206   1.226 -0.1292  0.4668 -0.3840
 1402HK4    H2517768   7.476   0.101   1.214  0.1197  0.2066  2.1915
 1403HK4    H2817769   3.634   3.695   0.863 -1.3245 -1.2333  0.3346
 1403HK4    C4817770   3.609   3.719   0.760 -0.8028  0.0709  0.4993
 1403HK4    C4717771   3.525   3.644   0.678 -0.3289 -0.0846  0.1494
 1403HK4    H2717772   3.488   3.548   0.717  2.7856 -0.9260  1.1353
 1403HK4    C4617773   3.504   3.686   0.547 -0.1991  0.1484  0.2042
 1403HK4    H2617774   3.424   3.639   0.489  1.4449  0.1325 -2.1394
 1403HK4    C4017775   3.563   3.799   0.487  0.4882 -0.2956  0.0354
 1403HK4    C5017776   3.645   3.874   0.575 -0.0067 -0.0753  0.3101
 1403HK4    H3017777   3.713   3.954   0.545 -1.2452  1.9031  2.5689
 1403HK4    C4917778   3.664   3.835   0.707 -0.2448 -0.2882  0.2842
 1403HK4    H2917779   3.732   3.897   0.769  0.0063 -1.1721  0.9026
 1403HK4     N217780   3.600   3.788   0.352 -0.2771 -0.0090 -0.1987
 1403HK4    C3017781   3.616   3.671   0.276 -0.0540 -0.0237 -0.1290
 1403HK4    C2917782   3.639   3.538   0.308  0.3821  0.0688 -0.0552
 1403HK4    H1517783   3.637   3.519   0.416  0.1833  0.0361 -0.0643
 1403HK4    C2817784   3.663   3.437   0.216  0.7192  0.0877  0.0117
 1403HK4    C2717785   3.662   3.469   0.078  0.1448 -0.1683 -0.0425
 1403HK4    H1417786   3.648   3.387   0.006 -2.1701 -0.7585  1.0164
 1403HK4    C3217787   3.646   3.602   0.041  0.0747 -0.2082 -0.1563
 1403HK4    H1617788   3.662   3.632  11.186 -0.0280  0.8716  0.1439
 1403HK4    C3117789   3.627   3.703   0.134  0.2049 -0.1925 -0.1474
 1403HK4    C3417790   3.602   3.845   0.124 -0.3690 -0.2811 -0.0249
 1403HK4    C3317791   3.594   3.894   0.260 -0.3164  0.0421 -0.1375
 1403HK4    C3517792   3.562   4.028   0.281 -0.7381 -0.1043  0.1663
 1403HK4    H1717793   3.503   4.051   0.370  0.7683 -0.3697  1.2557
 1403HK4    C3617794   3.547   4.112   0.171  0.3719  0.0689  0.1395
 1403HK4    H1817795   3.541   4.221   0.186  2.7025  0.2027  0.3353
 1403HK4    C3717796   3.556   4.064   0.041  1.3500 -0.0084  0.2336
 1403HK4    H1917797   3.541   4.136  11.208  2.4087 -0.0277  0.0002
 1403HK4    C3817798   3.582   3.930   0.015 -0.1951 -0.2601 -0.0407
 1403HK4    H2017799   3.606   3.900  11.161  1.2742  0.3709  0.1149
 1403HK4    C1417800   3.726   3.313   0.262  0.3172 -0.0199  0.2714
 1403HK4     C917801   3.818   3.231   0.195  0.1702 -0.1094  0.1808
 1403HK4     C817802   3.842   3.095   0.224  0.9036  0.0981  0.5514
 1403HK4    C1117803   3.769   3.045   0.331  0.1039 -0.1477 -0.0995
 1403HK4     H417804   3.806   2.954   0.380 -0.6386  0.0743  0.8724
 1403HK4    C1217805   3.672   3.119   0.398  0.1735 -0.0264 -0.1324
 1403HK4     H517806   3.610   3.070   0.474 -0.3209 -1.0782 -1.1999
 1403HK4    C1317807   3.650   3.252   0.364 -0.1449 -0.0718 -0.1030
 1403HK4     H617808   3.557   3.299   0.401 -1.4453 -0.4328 -2.7755
 1403HK4     C717809   3.931   3.008   0.144  0.0753 -0.2305 -0.0292
 1403HK4     O217810   3.974   2.907   0.199  0.3775 -0.2086 -0.2218
 1403HK4     C417811   3.990   3.059   0.018 -0.1465  0.3629  0.1066
 1403HK4     C317812   4.061   2.977  11.180 -0.3127  0.2701  0.0560
 1403HK4     H317813   4.088   2.878  11.218 -2.8034  0.3240  2.0294
 1403HK4     C217814   4.091   3.014  11.049 -0.0498 -0.1067  0.0118
 1403HK4     H217815   4.116   2.929  10.982 -2.9222 -1.1067  0.1454
 1403HK4     C117816   4.054   3.144  11.020  0.4515  0.1530  0.5271
 1403HK4     H117817   4.088   3.185  10.924  0.1723 -1.7943 -0.4290
 1403HK4     C617818   3.994   3.243  11.101  0.3551  0.5411 -0.0090
 1403HK4     C517819   3.967   3.193  11.229 -0.4033  0.2101 -0.2950
 1403HK4    C1017820   3.902   3.282   0.083  0.2010  0.0173  0.2610
 1403HK4     O117821   3.951   3.391   0.109  0.0170  0.2029 -0.1632
 1403HK4    C1617822   3.934   3.358  11.033  0.4931  0.3160 -0.5111
 1403HK4    C1517823   3.878   3.335  10.905  0.0580 -0.0157 -0.2616
 1403HK4     H717824   3.857   3.229  10.884 -0.2635 -0.0829  0.3803
 1403HK4    C2017825   3.859   3.443  10.820  0.5516  0.2173 -0.0800
 1403HK4     H917826   3.816   3.426  10.721  0.9625 -0.3231 -0.1727
 1403HK4    C1917827   3.899   3.573  10.847  0.2216  0.2937  0.0404
 1403HK4    C1817828   3.962   3.592  10.976  0.1493 -0.0721  0.1340
 1403HK4    C1717829   3.979   3.486  11.064  0.5169  0.1149  0.2894
 1403HK4     H817830   4.037   3.506  11.153  0.8320  1.6564 -0.2499
 1403HK4     N117831   4.024   3.719  10.970  0.2301 -0.1225 -0.0775
 1403HK4    C2117832   4.023   3.769  10.838 -0.2303  0.1556  0.0310
 1403HK4    C2217833   3.935   3.683  10.760  0.5921 -0.2306 -0.4786
 1403HK4    C2617834   3.913   3.720  10.628 -0.1520 -0.1624 -0.3350
 1403HK4    H1317835   3.839   3.668  10.567  1.0404 -1.8754 -0.3737
 1403HK4    C2517836   3.979   3.828  10.573  0.5218 -0.4063 -0.0079
 1403HK4    H1217837   3.983   3.837  10.464 -0.4063 -0.1245 -0.0219
 1403HK4    C2417838   4.064   3.907  10.650  0.0394  0.2767 -0.1687
 1403HK4    H1117839   4.105   3.999  10.606  0.2958  0.1797 -0.1346
 1403HK4    C2317840   4.091   3.877  10.783 -0.3124  0.1256 -0.1294
 1403HK4    H1017841   4.191   3.901  10.819  1.0440 -2.1897 -2.2072
 1403HK4    C3917842   4.051   3.796  11.083 -0.3728  0.3690 -0.2726
 1403HK4    C4117843   4.146   3.900  11.093 -0.1256  0.1353 -0.1861
 1403HK4    H2117844   4.232   3.902  11.025  2.2818 -0.3866  2.7561
 1403HK4    C4217845   4.133   3.993  11.195 -0.2770 -0.2926  0.1862
 1403HK4    H2217846   4.194   4.083  11.181 -1.4278  0.5093  0.2429
 1403HK4    C4317847   4.033   3.983   0.043  0.0116 -0.7040  0.4483
 1403HK4    H2317848   4.035   4.041   0.136  0.3716 -0.2718  0.1741
 1403HK4    C4417849   3.939   3.881   0.037 -0.8543  0.1338 -0.5388
 1403HK4    H2417850   3.842   3.897   0.088 -1.2065 -0.8626 -0.8816
 1403HK4    C4517851   3.950   3.789  11.182 -0.3109 -0.1368 -0.2429
 1403HK4    H2517852   3.897   3.693  11.194  0.3438 -0.6214 -1.2091
 1404HK4    H2817853   2.283   3.253   7.806  0.9835  0.8898  0.1822
 1404HK4    C4817854   2.256   3.314   7.720 -0.0826  0.4444  0.1860
 1404HK4    C4717855   2.156   3.409   7.740 -0.2891  0.2396  0.1197
 1404HK4    H2717856   2.116   3.422   7.841 -0.6983 -2.0968  0.2898
 1404HK4    C4617857   2.111   3.490   7.636 -0.3893 -0.1031 -0.1052
 1404HK4    H2617858   2.062   3.583   7.667 -0.4057  0.0834 -0.6822
 1404HK4    C4017859   2.165   3.472   7.507 -0.0812 -0.0577  0.0168
 1404HK4    C5017860   2.259   3.368   7.490  0.7209  0.6835 -0.0693
 1404HK4    H3017861   2.269   3.336   7.386  2.7951  0.0241  0.3071
 1404HK4    C4917862   2.307   3.288   7.593 -0.3489  0.2806  0.1144
 1404HK4    H2917863   2.377   3.204   7.576 -0.2039  0.1462  1.2743
 1404HK4     N217864   2.098   3.514   7.392 -0.2586  0.0561  0.1615
 1404HK4    C3017865   1.959   3.529   7.380 -0.1621  0.6798 -0.2304
 1404HK4    C2917866   1.849   3.482   7.451  0.1276  0.2078 -0.0943
 1404HK4    H1517867   1.874   3.420   7.537  0.0810  0.4231  0.0741
 1404HK4    C2817868   1.717   3.509   7.418 -0.0078  0.3564  0.5652
 1404HK4    C2717869   1.696   3.591   7.304 -0.2990 -0.3621  0.0939
 1404HK4    H1417870   1.594   3.623   7.279  0.3223  1.5919 -0.0254
 1404HK4    C3217871   1.804   3.637   7.229 -0.2699 -0.1932  0.2386
 1404HK4    H1617872   1.789   3.685   7.132  1.0317  0.4424  0.3433
 1404HK4    C3117873   1.936   3.611   7.262  0.0438  1.0325 -0.0242
 1404HK4    C3417874   2.063   3.650   7.204  0.3153  0.0633 -0.0961
 1404HK4    C3317875   2.160   3.576   7.281  0.0115  0.1195  0.3466
 1404HK4    C3517876   2.292   3.590   7.238 -0.0489 -0.0573  0.1024
 1404HK4    H1717877   2.366   3.519   7.274  0.4505  0.4982  0.1757
 1404HK4    C3617878   2.339   3.674   7.137 -0.1494 -0.0208  0.0860
 1404HK4    H1817879   2.446   3.674   7.113 -0.1812 -2.7018 -0.2227
 1404HK4    C3717880   2.242   3.744   7.067  0.0953 -0.5939 -0.8318
 1404HK4    H1917881   2.271   3.821   6.995  0.1887  0.5876  0.4608
 1404HK4    C3817882   2.107   3.730   7.099  0.2468  0.8379  0.4619
 1404HK4    H2017883   2.031   3.792   7.052 -0.4583 -0.9832 -0.8347
 1404HK4    C1417884   1.609   3.425   7.470 -0.2760  0.3816  0.0590
 1404HK4     C917885   1.489   3.398   7.404 -0.1066 -0.1589 -0.0342
 1404HK4     C817886   1.364   3.404   7.469 -0.0990 -0.3138 -0.0074
 1404HK4    C1117887   1.361   3.410   7.608  0.2566 -0.0963 -0.0086
 1404HK4     H417888   1.266   3.381   7.655  1.9076 -1.2580  2.7258
 1404HK4    C1217889   1.482   3.423   7.676  0.2051 -0.4728  0.1574
 1404HK4     H517890   1.477   3.413   7.785 -2.1674  1.6800  0.3053
 1404HK4    C1317891   1.604   3.434   7.611  0.1192  0.1323  0.0913
 1404HK4     H617892   1.688   3.463   7.676  0.1035  0.1257  0.1134
 1404HK4     C717893   1.242   3.421   7.387 -0.0404  0.4979  0.0740
 1404HK4     O217894   1.133   3.418   7.444 -0.0830 -0.0550 -0.0350
 1404HK4     C417895   1.251   3.430   7.239  0.2843  0.3637  0.0852
 1404HK4     C317896   1.138   3.478   7.174  0.5740  1.0451  0.0849
 1404HK4     H317897   1.041   3.470   7.225  0.8358 -1.0523  0.3129
 1404HK4     C217898   1.145   3.520   7.042 -0.2741  0.3605 -0.1812
 1404HK4     H217899   1.061   3.552   6.979  0.2564  2.6529  0.2463
 1404HK4     C117900   1.268   3.505   6.978 -0.2124 -0.3119  0.0962
 1404HK4     H117901   1.286   3.570   6.892  1.6919 -0.1779  0.5810
 1404HK4     C617902   1.381   3.441   7.035 -0.0146 -0.0001  0.0552
 1404HK4     C517903   1.369   3.400   7.168  0.2118  0.0573  0.0912
 1404HK4    C1017904   1.487   3.376   7.256  0.2878 -0.0934 -0.0509
 1404HK4     O117905   1.570   3.293   7.221  0.2990 -0.0688 -0.0829
 1404HK4    C1617906   1.509   3.458   6.965 -0.1019  0.0125 -0.1037
 1404HK4    C1517907   1.549   3.578   6.903  0.2329 -0.2140 -0.3280
 1404HK4     H717908   1.512   3.669   6.952  2.1024 -0.5171  1.7195
 1404HK4    C2017909   1.642   3.583   6.799  0.2545  0.2593 -0.2872
 1404HK4     H917910   1.687   3.671   6.754  0.9085 -0.1052 -0.3345
 1404HK4    C1917911   1.697   3.463   6.756 -0.0966 -0.0253  0.0488
 1404HK4    C1817912   1.657   3.336   6.814 -0.0476 -0.1331 -0.1513
 1404HK4    C1717913   1.562   3.339   6.916  0.3933  0.0829  0.2540
 1404HK4     H817914   1.531   3.239   6.944 -1.2793 -0.3405 -2.8548
 1404HK4     N117915   1.722   3.226   6.756 -0.3315 -0.2398 -0.2673
 1404HK4    C2117916   1.795   3.286   6.651  0.5517 -0.0154  0.4751
 1404HK4    C2217917   1.781   3.430   6.643 -0.1972 -0.1138 -0.0012
 1404HK4    C2617918   1.843   3.508   6.546 -0.0978  0.1120  0.2431
 1404HK4    H1317919   1.816   3.613   6.542 -0.0618  0.0578 -2.2544
 1404HK4    C2517920   1.933   3.447   6.459 -0.3263  0.0908  0.0208
 1404HK4    H1217921   1.987   3.501   6.382 -0.2043 -0.1875 -0.0919
 1404HK4    C2417922   1.951   3.309   6.466  0.4997  0.2186  0.4661
 1404HK4    H1117923   2.036   3.272   6.406 -1.4151  1.3109 -3.0694
 1404HK4    C2317924   1.884   3.231   6.559 -0.3238 -0.0580 -0.3510
 1404HK4    H1017925   1.883   3.123   6.542 -3.6648 -0.1758  0.1874
 1404HK4    C3917926   1.746   3.102   6.818  0.1557 -0.0423 -0.0640
 1404HK4    C4117927   1.784   2.989   6.743  0.3256 -0.0350  0.0108
 1404HK4    H2117928   1.759   2.983   6.636  1.6631 -0.5713 -0.2839
 1404HK4    C4217929   1.839   2.879   6.808  0.0889 -0.2312 -0.1218
 1404HK4    H2217930   1.877   2.796   6.747  1.0987  1.5919 -2.0440
 1404HK4    C4317931   1.868   2.874   6.943  0.5599  0.3865 -0.2014
 1404HK4    H2317932   1.918   2.788   6.987  0.4473 -0.2021 -1.2163
 1404HK4    C4417933   1.834   2.985   7.020 -0.4011 -0.3091  0.3880
 1404HK4    H2417934   1.852   2.988   7.128  1.9739 -0.6885  0.0369
 1404HK4    C4517935   1.774   3.093   6.956  0.6746 -0.0315 -0.1663
 1404HK4    H2517936   1.735   3.172   7.023  3.1701  1.2523 -0.1789
 1405HK4    H2817937   8.007   7.416   7.574 -2.0769 -0.9510  1.7518
 1405HK4    C4817938   7.959   7.497   7.519 -0.1367 -0.6781  0.4127
 1405HK4    C4717939   7.897   7.470   7.397 -0.2135  0.0305  0.2931
 1405HK4    H2717940   7.937   7.382   7.344 -0.9631 -0.8000  1.0844
 1405HK4    C4617941   7.806   7.560   7.342 -0.2319 -0.1025  0.1117
 1405HK4    H2617942   7.779   7.556   7.235  0.0373 -1.4948  0.0757
 1405HK4    C4017943   7.779   7.683   7.404 -0.1129 -0.2264  0.4110
 1405HK4    C5017944   7.840   7.704   7.529 -0.1309  0.0429  0.3765
 1405HK4    H3017945   7.813   7.802   7.571 -0.8932  0.1483 -0.3387
 1405HK4    C4917946   7.932   7.616   7.585 -0.4047 -0.4951 -0.0205
 1405HK4    H2917947   7.964   7.633   7.689 -0.5571 -1.4798  0.2021
 1405HK4     N217948   7.704   7.783   7.341  0.4028 -0.1315 -0.0633
 1405HK4    C3017949   7.682   7.778   7.202 -0.0092 -0.6650  0.0160
 1405HK4    C2917950   7.779   7.770   7.103 -0.6898 -0.2812 -0.6951
 1405HK4    H1517951   7.876   7.726   7.128 -1.6878 -0.8829  2.2707
 1405HK4    C2817952   7.750   7.806   6.972  0.0831 -0.3831 -0.9020
 1405HK4    C2717953   7.614   7.828   6.943 -0.0252 -0.1272 -0.2133
 1405HK4    H1417954   7.588   7.843   6.837 -0.8936 -0.1540 -0.0145
 1405HK4    C3217955   7.513   7.832   7.039  0.3097  0.1041  0.1287
 1405HK4    H1617956   7.409   7.839   7.008  0.1169  0.7336  0.8962
 1405HK4    C3117957   7.543   7.809   7.173  0.1483  0.2108  0.1829
 1405HK4    C3417958   7.481   7.836   7.301  0.2582  0.3731  0.2020
 1405HK4    C3317959   7.586   7.832   7.402  0.4605 -0.0403 -0.0264
 1405HK4    C3517960   7.554   7.880   7.528 -0.1211  0.1927 -0.2618
 1405HK4    H1717961   7.638   7.894   7.597 -0.3398 -0.2343  0.0903
 1405HK4    C3617962   7.435   7.944   7.562  0.0226  0.0799  0.4555
 1405HK4    H1817963   7.425   7.969   7.669 -0.7017 -2.4690  1.0244
 1405HK4    C3717964   7.337   7.940   7.464 -0.2185 -0.5156  0.7192
 1405HK4    H1917965   7.249   8.002   7.484  1.7473  2.4019  0.5092
 1405HK4    C3817966   7.356   7.882   7.339  0.2938  0.3021  0.4111
 1405HK4    H2017967   7.267   7.871   7.277 -1.0056 -1.3682  2.4990
 1405HK4    C1417968   7.855   7.881   6.902  0.3877 -0.3190 -0.3834
 1405HK4     C917969   7.831   7.986   6.813 -0.1054 -0.0292  0.0907
 1405HK4     C817970   7.904   8.002   6.693  0.0985  0.1331  0.2368
 1405HK4    C1117971   8.023   7.932   6.676  0.0182  0.0097  0.1838
 1405HK4     H417972   8.069   7.924   6.576  2.7720  0.0442  1.4265
 1405HK4    C1217973   8.060   7.848   6.779  0.2155 -0.7601 -0.5108
 1405HK4     H517974   8.157   7.795   6.780  1.9769  2.3457  1.1231
 1405HK4    C1317975   7.977   7.811   6.884  0.3391 -0.4262 -0.2970
 1405HK4     H617976   8.016   7.740   6.958  1.7238  0.8702  0.2293
 1405HK4     C717977   7.854   8.103   6.597 -0.0482  0.0770  0.2561
 1405HK4     O217978   7.915   8.124   6.492 -0.0404 -0.6629  0.1092
 1405HK4     C417979   7.725   8.173   6.616 -0.1205  0.0092  0.0217
 1405HK4     C317980   7.667   8.238   6.508  0.2047  0.4687  0.1230
 1405HK4     H317981   7.708   8.242   6.406  0.3114 -3.4040 -0.0550
 1405HK4     C217982   7.537   8.285   6.517  0.0494  0.0271  0.2276
 1405HK4     H217983   7.504   8.338   6.426  3.3609  1.3957 -0.2492
 1405HK4     C117984   7.468   8.268   6.636 -0.6514 -0.2326 -0.2071
 1405HK4     H117985   7.367   8.311   6.628 -0.9136 -0.8084  0.0216
 1405HK4     C617986   7.521   8.204   6.750  0.1067  0.4857 -0.1434
 1405HK4     C517987   7.654   8.164   6.738  0.1656  0.5566  0.2319
 1405HK4    C1017988   7.719   8.080   6.842 -0.1513 -0.0392 -0.0475
 1405HK4     O117989   7.722   8.129   6.955  0.3893 -0.4043  0.0973
 1405HK4    C1617990   7.421   8.162   6.850  0.1978  0.3034 -0.1313
 1405HK4    C1517991   7.300   8.102   6.808  0.4996 -0.5677  0.2334
 1405HK4     H717992   7.294   8.024   6.732 -3.3770  0.0239 -0.1528
 1405HK4    C2017993   7.184   8.107   6.885  0.2849 -0.3565 -0.1054
 1405HK4     H917994   7.093   8.070   6.838 -0.3271 -0.6117  1.2563
 1405HK4    C1917995   7.191   8.161   7.014 -0.5037 -0.6075  0.0420
 1405HK4    C1817996   7.315   8.216   7.063 -0.5562 -0.1240 -0.3631
 1405HK4    C1717997   7.425   8.214   6.979 -0.3657  0.3546 -0.1301
 1405HK4     H817998   7.522   8.250   7.013 -0.1924  0.4164 -0.6789
 1405HK4     N117999   7.308   8.257   7.198  0.0985  0.3426 -0.4680
 1405HK4    C2118000   7.178   8.224   7.241  0.3685  0.2477  0.2860
 1405HK4    C2218001   7.106   8.162   7.131 -0.0079  0.5053  0.3908
 1405HK4    C2618002   6.970   8.133   7.140  0.1914 -0.4672  0.3084
 1405HK4    H1318003   6.925   8.077   7.058  0.3109 -1.0537  0.6406
 1405HK4    C2518004   6.908   8.158   7.261 -0.2472  0.3338 -0.0791
 1405HK4    H1218005   6.805   8.126   7.272 -1.5255  3.0469 -3.2586
 1405HK4    C2418006   6.977   8.210   7.370 -0.3023 -0.5873  0.4005
 1405HK4    H1118007   6.922   8.239   7.461  2.4835  0.4724  1.7953
 1405HK4    C2318008   7.112   8.240   7.362 -0.6078  0.6498 -0.2925
 1405HK4    H1018009   7.163   8.271   7.454  1.8022  0.5163 -1.5275
 1405HK4    C3918010   7.419   8.282   7.280  0.0948 -0.0046 -0.3608
 1405HK4    C4118011   7.406   8.372   7.388  0.2668 -0.7549  0.2969
 1405HK4    H2118012   7.313   8.428   7.399  0.4394 -0.3640 -0.2146
 1405HK4    C4218013   7.511   8.384   7.478 -0.0366  0.0603  0.5453
 1405HK4    H2218014   7.500   8.458   7.559 -1.3974 -0.0484  0.4656
 1405HK4    C4318015   7.619   8.297   7.467  0.3500  0.6580 -0.4926
 1405HK4    H2318016   7.705   8.296   7.535 -0.5000  0.7528  0.6126
 1405HK4    C4418017   7.627   8.199   7.369  0.0215  0.0971  0.0286
 1405HK4    H2418018   7.697   8.117   7.392 -1.2679 -1.6733 -2.1167
 1405HK4    C4518019   7.528   8.193   7.271 -0.2424 -0.4928  0.3323
 1405HK4    H2518020   7.557   8.132   7.184  2.0834  0.8516  0.1136
 1406HK4    H2818021   5.336   1.143   5.240 -1.7002  3.1891 -0.6106
 1406HK4    C4818022   5.378   1.149   5.139 -0.0881 -0.6994 -0.2772
 1406HK4    C4718023   5.484   1.238   5.129 -0.2821 -0.4142  0.1470
 1406HK4    H2718024   5.541   1.261   5.221  1.2059 -0.3696 -0.7619
 1406HK4    C4618025   5.526   1.276   5.002 -0.1235  0.1345  0.3629
 1406HK4    H2618026   5.621   1.331   5.013  1.4031 -1.9086 -2.1565
 1406HK4    C4018027   5.467   1.221   4.886  0.4673 -0.2497  0.2457
 1406HK4    C5018028   5.358   1.134   4.900  0.5516 -0.4474 -0.3241
 1406HK4    H3018029   5.299   1.111   4.810  0.5822  2.9523 -1.2815
 1406HK4    C4918030   5.318   1.094   5.027 -0.0067 -0.3811 -0.4778
 1406HK4    H2918031   5.247   1.010   5.037 -0.7068  0.0990 -1.2577
 1406HK4     N218032   5.494   1.275   4.759  0.2022 -0.1540  0.2290
 1406HK4    C3018033   5.544   1.401   4.721  0.0455 -0.2758 -0.3899
 1406HK4    C2918034   5.571   1.508   4.805  0.4897 -0.4839 -0.2633
 1406HK4    H1518035   5.515   1.524   4.897  2.8467  1.1239  0.9592
 1406HK4    C2818036   5.656   1.613   4.771 -0.0552  0.0612  0.0345
 1406HK4    C2718037   5.704   1.610   4.638  0.2878  0.3911  0.1484
 1406HK4    H1418038   5.771   1.693   4.612  0.1203  1.4520  2.8806
 1406HK4    C3218039   5.667   1.508   4.551  0.2062  0.0171  0.6184
 1406HK4    H1618040   5.713   1.504   4.452 -0.5297 -1.2893  0.3120
 1406HK4    C3118041   5.587   1.399   4.583 -0.1024 -0.0687 -0.4392
 1406HK4    C3418042   5.567   1.264   4.534 -0.1674 -0.0854 -0.3678
 1406HK4    C3318043   5.503   1.194   4.644 -0.2053  0.3176 -0.1338
 1406HK4    C3518044   5.502   1.056   4.629 -0.1956  0.3386 -0.3355
 1406HK4    H1718045   5.444   0.990   4.694  0.1555  0.7588  0.4119
 1406HK4    C3618046   5.568   0.990   4.526 -0.1488  0.3509 -0.3153
 1406HK4    H1818047   5.563   0.880   4.521  1.2411  0.2154  0.8374
 1406HK4    C3718048   5.624   1.060   4.420 -0.0295 -0.5313 -0.8386
 1406HK4    H1918049   5.670   1.010   4.335  1.3066  1.8463 -1.5547
 1406HK4    C3818050   5.615   1.199   4.421 -0.1691 -0.5424 -0.1073
 1406HK4    H2018051   5.647   1.258   4.335  1.3301 -0.5595  0.4271
 1406HK4    C1418052   5.709   1.710   4.867  0.1848 -0.1138  0.0800
 1406HK4     C918053   5.773   1.828   4.827  0.2631 -0.1554  0.0829
 1406HK4     C818054   5.881   1.876   4.904 -0.1027  0.6555  0.0947
 1406HK4    C1118055   5.920   1.803   5.015 -0.2042 -0.1033 -0.3591
 1406HK4     H418056   6.018   1.823   5.061 -1.4445  3.5905  0.8913
 1406HK4    C1218057   5.849   1.696   5.067  0.5801 -0.5461 -0.2001
 1406HK4     H518058   5.887   1.634   5.150 -0.6643 -1.7131 -0.4905
 1406HK4    C1318059   5.738   1.656   4.994  0.2037 -0.0517  0.1009
 1406HK4     H618060   5.666   1.580   5.030  1.7956 -2.2287 -1.1866
 1406HK4     C718061   5.935   2.012   4.882  0.2070  0.4797 -0.2364
 1406HK4     O218062   6.030   2.048   4.952 -0.6474  0.3285  1.0157
 1406HK4     C418063   5.880   2.100   4.777 -0.2985  0.4441  0.0014
 1406HK4     C318064   5.941   2.222   4.750 -0.0177  0.3071  0.0147
 1406HK4     H318065   6.017   2.263   4.818  0.9793  0.7486 -1.3613
 1406HK4     C218066   5.890   2.308   4.654 -0.5283  0.2473  0.2322
 1406HK4     H218067   5.937   2.407   4.646 -2.2818  1.0041 -1.1696
 1406HK4     C118068   5.779   2.263   4.582 -0.2946  0.0771 -0.0219
 1406HK4     H118069   5.718   2.333   4.524  2.0201  0.9676 -1.4931
 1406HK4     C618070   5.722   2.135   4.592 -0.3806  0.1366  0.2272
 1406HK4     C518071   5.770   2.057   4.698  0.2940 -0.3301 -0.4189
 1406HK4    C1018072   5.707   1.928   4.737 -0.0325  0.1344  0.6181
 1406HK4     O118073   5.585   1.922   4.739 -0.0503  0.2768 -0.0884
 1406HK4    C1618074   5.698   2.069   4.463  0.2383  0.3365  0.0111
 1406HK4    C1518075   5.782   2.099   4.354  0.4018 -0.0697  0.0217
 1406HK4     H718076   5.854   2.182   4.362 -0.7381  0.9709 -0.3450
 1406HK4    C2018077   5.751   2.053   4.226  0.2667  0.1676 -0.0318
 1406HK4     H918078   5.824   2.067   4.147 -0.6757  0.6331 -0.8229
 1406HK4    C1918079   5.641   1.970   4.210  0.0896  0.3727  0.1195
 1406HK4    C1818080   5.549   1.941   4.318  0.0838  0.4191  0.1273
 1406HK4    C1718081   5.588   1.987   4.444  0.5720 -0.1555  0.1845
 1406HK4     H818082   5.517   1.972   4.524  1.7328  1.8758  1.6293
 1406HK4     N118083   5.442   1.861   4.272  0.6430 -0.1334 -0.2035
 1406HK4    C2118084   5.468   1.829   4.137  0.6417  0.1232 -0.2638
 1406HK4    C2218085   5.579   1.910   4.093  0.3762  0.5660 -0.1291
 1406HK4    C2618086   5.611   1.904   3.957  0.6831 -0.3855 -0.0150
 1406HK4    H1318087   5.688   1.969   3.916  0.0129  0.2694 -0.2339
 1406HK4    C2518088   5.547   1.825   3.863 -0.4139  0.5298 -0.0412
 1406HK4    H1218089   5.576   1.820   3.758 -1.6200 -0.0255 -0.3563
 1406HK4    C2418090   5.443   1.745   3.909  0.0982  0.1120  0.4053
 1406HK4    H1118091   5.410   1.667   3.839  1.4539 -0.4887  0.4250
 1406HK4    C2318092   5.402   1.752   4.041 -0.3660  0.3283  0.2532
 1406HK4    H1018093   5.310   1.697   4.061 -0.0407 -0.2623  0.1288
 1406HK4    C3918094   5.349   1.787   4.346  0.3255  0.1152 -0.3579
 1406HK4    C4118095   5.221   1.758   4.293  0.2874  0.0458 -0.2264
 1406HK4    H2118096   5.183   1.827   4.217 -1.6261 -0.5167  0.1856
 1406HK4    C4218097   5.137   1.673   4.364  0.1583  0.2499 -0.1354
 1406HK4    H2218098   5.046   1.644   4.311 -0.6379  1.4296  0.5584
 1406HK4    C4318099   5.175   1.621   4.488 -0.1652  0.4175  0.0359
 1406HK4    H2318100   5.110   1.554   4.544  0.8897  1.1408  2.1702
 1406HK4    C4418101   5.305   1.644   4.533  0.0520 -0.5428 -0.0892
 1406HK4    H2418102   5.339   1.594   4.625 -0.2320 -0.3883  0.1005
 1406HK4    C4518103   5.394   1.723   4.463 -0.4945  0.1399 -0.0194
 1406HK4    H2518104   5.491   1.749   4.509 -1.0949  1.9685  0.2409
 1407HK4    H2818105   0.707   5.673   3.891 -0.1853 -0.1191  0.3704
 1407HK4    C4818106   0.679   5.574   3.927  0.3131 -0.2407  0.4241
 1407HK4    C4718107   0.669   5.474   3.831  0.6875  0.0097  0.1211
 1407HK4    H2718108   0.673   5.502   3.725  1.6871 -1.6749 -0.3083
 1407HK4    C4618109   0.649   5.342   3.871  0.0051 -0.0553 -0.4286
 1407HK4    H2618110   0.704   5.264   3.816  1.7808 -1.2174  2.8853
 1407HK4    C4018111   0.610   5.307   4.002 -0.0092  0.2639 -0.3452
 1407HK4    C5018112   0.620   5.410   4.097  0.0195  0.3587 -0.4532
 1407HK4    H3018113   0.610   5.396   4.206  2.2387  1.2298 -0.0981
 1407HK4    C4918114   0.653   5.539   4.059 -0.6468  0.8206  0.5182
 1407HK4    H2918115   0.651   5.624   4.130  0.5588  0.2738  1.2102
 1407HK4     N218116   0.528   5.199   4.036  0.3202  0.1253  0.0075
 1407HK4    C3018117   0.446   5.130   3.945 -0.1822  0.2686  0.3535
 1407HK4    C2918118   0.397   5.169   3.821 -0.8917 -0.0042  0.5393
 1407HK4    H1518119   0.391   5.275   3.796 -2.3500 -0.3495 -0.5706
 1407HK4    C2818120   0.339   5.077   3.735 -0.0263 -0.0049 -0.0569
 1407HK4    C2718121   0.326   4.942   3.773 -0.4224  0.1938  0.5182
 1407HK4    H1418122   0.307   4.868   3.694  1.4310 -1.5281  1.6298
 1407HK4    C3218123   0.359   4.900   3.902  0.1605 -0.2473  0.2272
 1407HK4    H1618124   0.314   4.808   3.939 -0.5441 -0.1944 -0.4646
 1407HK4    C3118125   0.422   4.992   3.985  0.4341 -0.0132 -0.2369
 1407HK4    C3418126   0.480   4.981   4.117 -0.6599  0.3392  0.2817
 1407HK4    C3318127   0.544   5.108   4.144  1.0010 -0.3295 -0.4726
 1407HK4    C3518128   0.616   5.120   4.262  0.0803  0.0055  0.0614
 1407HK4    H1718129   0.632   5.219   4.305 -0.7498  0.5645 -0.8885
 1407HK4    C3618130   0.637   5.008   4.341 -0.1832  0.1987  0.4065
 1407HK4    H1818131   0.714   5.009   4.419  1.5513  2.2092 -1.2507
 1407HK4    C3718132   0.580   4.885   4.310  0.0638  0.1757  0.0387
 1407HK4    H1918133   0.591   4.799   4.375 -0.3289  0.4160  0.4277
 1407HK4    C3818134   0.500   4.869   4.197 -0.2658  0.3802  0.2418
 1407HK4    H2018135   0.461   4.769   4.177 -1.7901  0.5671  2.1168
 1407HK4    C1418136   0.267   5.131   3.619 -0.0849  0.0847  0.0201
 1407HK4     C918137   0.148   5.095   3.554 -0.3440  0.2414  0.4086
 1407HK4     C818138   0.110   5.156   3.432  0.2967 -0.1323  0.0204
 1407HK4    C1118139   0.191   5.251   3.372  0.2386 -0.3608 -0.4199
 1407HK4     H418140   0.153   5.300   3.281 -1.4306 -0.1296  0.3838
 1407HK4    C1218141   0.314   5.286   3.425  0.1734 -0.6256 -0.0924
 1407HK4     H518142   0.369   5.368   3.376 -0.3762  0.2563  0.7311
 1407HK4    C1318143   0.342   5.226   3.547  0.2251 -0.0299  0.1907
 1407HK4     H618144   0.444   5.243   3.585  0.8046  1.7163 -2.0431
 1407HK4     C718145   0.002   5.092   3.354 -0.0330 -0.2591  0.5702
 1407HK4     O218146  11.181   5.167   3.284  0.3460 -0.2595  0.1928
 1407HK4     C418147  11.190   4.964   3.398 -0.0632 -0.4900 -0.1308
 1407HK4     C318148  11.085   4.913   3.323 -0.0095 -0.0745 -0.4934
 1407HK4     H318149  11.046   4.967   3.236 -0.9295  1.4995  0.8743
 1407HK4     C218150  11.025   4.794   3.362 -0.4884  0.1746 -0.4731
 1407HK4     H218151  10.930   4.759   3.320 -1.0830 -0.8345  1.6542
 1407HK4     C118152  11.083   4.720   3.464  0.5325  0.0611 -1.1283
 1407HK4     H118153  11.043   4.619   3.482  0.9562 -0.2073 -1.6792
 1407HK4     C618154  11.195   4.764   3.538 -0.2913  0.2916  0.0115
 1407HK4     C518155  11.236   4.895   3.512  0.1190  0.2057  0.2220
 1407HK4    C1018156   0.073   4.976   3.604 -0.3044  0.2753  0.5509
 1407HK4     O118157   0.032   4.995   3.718 -0.4333 -0.3261  0.6053
 1407HK4    C1618158   0.041   4.663   3.590 -0.1065  0.2720 -0.3607
 1407HK4    C1518159   0.051   4.536   3.529  0.7542  0.1396  0.0494
 1407HK4     H718160   0.048   4.527   3.420  0.3981  0.7980 -0.0003
 1407HK4    C2018161   0.085   4.420   3.598 -0.1346 -0.0224  0.2198
 1407HK4     H918162   0.093   4.324   3.547 -0.1529  0.3727 -0.5296
 1407HK4    C1918163   0.115   4.429   3.734  0.1022  0.2728  0.1491
 1407HK4    C1818164   0.113   4.559   3.799  0.3563  0.4116 -0.1143
 1407HK4    C1718165   0.071   4.669   3.726 -0.4744  0.0001 -0.2676
 1407HK4     H818166   0.078   4.763   3.781 -2.9350 -0.2341  0.4840
 1407HK4     N118167   0.166   4.551   3.929 -0.3626  0.3855  0.1771
 1407HK4    C2118168   0.206   4.418   3.951 -0.0423  0.4755  0.1263
 1407HK4    C2218169   0.170   4.340   3.834 -0.0458  0.2929  0.2472
 1407HK4    C2618170   0.227   4.215   3.812  1.0073  0.8385 -0.1741
 1407HK4    H1318171   0.221   4.166   3.714 -0.9387  1.3451 -0.3208
 1407HK4    C2518172   0.307   4.162   3.912 -0.0837 -0.3040  0.1023
 1407HK4    H1218173   0.344   4.060   3.901 -1.1562 -0.9929  2.5407
 1407HK4    C2418174   0.335   4.230   4.030  0.1854  0.4465 -0.3910
 1407HK4    H1118175   0.392   4.178   4.109  2.8579  2.0705 -1.1852
 1407HK4    C2318176   0.283   4.357   4.050 -0.1858  0.2196  0.0805
 1407HK4    H1018177   0.284   4.391   4.154 -1.3001 -0.8997  0.4803
 1407HK4    C3918178   0.133   4.636   4.036 -0.0654  0.8195 -0.0758
 1407HK4    C4118179   0.227   4.653   4.139  0.4619 -0.0595 -0.4032
 1407HK4    H2118180   0.327   4.608   4.128  1.6046  2.1666  0.4274
 1407HK4    C4218181   0.191   4.732   4.248 -0.0808 -0.0433 -0.5926
 1407HK4    H2218182   0.268   4.768   4.318 -1.1183  1.9006 -0.4300
 1407HK4    C4318183   0.063   4.786   4.258 -0.2376 -0.4890 -0.1890
 1407HK4    H2318184   0.054   4.848   4.347  1.4675  1.4460 -1.3314
 1407HK4    C4418185  11.213   4.757   4.164 -0.3713 -0.0016 -0.1936
 1407HK4    H2418186  11.108   4.787   4.182  0.5330  1.9656  2.2004
 1407HK4    C4518187   0.002   4.687   4.050 -0.4640 -0.1635 -0.1254
 1407HK4    H2518188  11.187   4.667   3.962  0.3146  1.8141 -1.1625
 1408HK4    H2818189   4.718   2.360   9.963 -1.5700 -0.7894 -2.8138
 1408HK4    C4818190   4.792   2.287   9.929  0.0021 -0.4180 -0.3368
 1408HK4    C4718191   4.924   2.327   9.909 -0.1401  0.0338 -0.3929
 1408HK4    H2718192   4.975   2.391   9.981  2.6374 -1.4668 -0.9752
 1408HK4    C4618193   5.011   2.254   9.828  0.4516  0.2214  0.0780
 1408HK4    H2618194   5.108   2.302   9.811  0.9041 -0.2205  1.3508
 1408HK4    C4018195   4.975   2.132   9.766  0.2792  0.2250  0.1688
 1408HK4    C5018196   4.844   2.090   9.798  0.0891  0.4347 -0.3271
 1408HK4    H3018197   4.810   1.991   9.767  0.5353  0.0610  0.3798
 1408HK4    C4918198   4.755   2.164   9.876 -0.3951 -0.4212 -0.0628
 1408HK4    H2918199   4.664   2.111   9.908  0.4853 -0.9724  1.5888
 1408HK4     N218200   5.071   2.049   9.708  0.3651  0.2610  0.2601
 1408HK4    C3018201   5.039   1.936   9.630  0.0511  0.4525  0.1086
 1408HK4    C2918202   4.928   1.919   9.548  0.3544 -0.1410 -0.1835
 1408HK4    H1518203   4.862   2.004   9.528 -0.1315 -0.9551 -2.1578
 1408HK4    C2818204   4.914   1.805   9.470  0.5053  0.0707 -0.5219
 1408HK4    C2718205   5.019   1.710   9.475  0.2464 -0.1836  0.2544
 1408HK4    H1418206   5.010   1.617   9.417  0.8154 -0.7493  1.0639
 1408HK4    C3218207   5.133   1.722   9.553  0.2696 -0.0156  0.1934
 1408HK4    H1618208   5.197   1.639   9.584  1.2164  1.8942  3.5465
 1408HK4    C3118209   5.144   1.837   9.630 -0.3703  0.0003  0.2650
 1408HK4    C3418210   5.247   1.894   9.716 -0.3975  0.0179  0.2866
 1408HK4    C3318211   5.200   2.024   9.760  0.4135  0.3489  0.1785
 1408HK4    C3518212   5.284   2.094   9.845  0.3582  0.0717  0.4590
 1408HK4    H1718213   5.246   2.184   9.893 -1.9860 -0.5778 -0.0919
 1408HK4    C3618214   5.408   2.043   9.883  0.3478  0.0150  0.4186
 1408HK4    H1818215   5.477   2.108   9.940  2.0944 -0.5933 -0.9560
 1408HK4    C3718216   5.448   1.917   9.841  0.0173 -0.0391  0.2624
 1408HK4    H1918217   5.538   1.873   9.885  0.5610  1.7939  1.0159
 1408HK4    C3818218   5.371   1.843   9.752 -0.3873  0.1587  0.4496
 1408HK4    H2018219   5.394   1.738   9.733 -0.0919  0.7416 -2.7182
 1408HK4    C1418220   4.778   1.769   9.428  0.5481 -0.1395 -0.4873
 1408HK4     C918221   4.728   1.639   9.417 -0.0133  0.0234  0.1183
 1408HK4     C818222   4.622   1.616   9.327  0.2715  0.3401 -0.2947
 1408HK4    C1118223   4.568   1.723   9.256  0.0094  0.0359 -0.5498
 1408HK4     H418224   4.496   1.699   9.176 -1.4876  2.2381  0.0812
 1408HK4    C1218225   4.608   1.855   9.271  0.1251 -0.0624  0.0091
 1408HK4     H518226   4.585   1.933   9.197  0.0582  0.5428  0.6724
 1408HK4    C1318227   4.718   1.873   9.354  0.1188 -0.0338  0.0099
 1408HK4     H618228   4.731   1.980   9.376  2.5516 -0.4812  0.8682
 1408HK4     C718229   4.595   1.481   9.274 -0.2029  0.2983  0.0605
 1408HK4     O218230   4.561   1.457   9.159  0.0957 -0.5770  0.1468
 1408HK4     C418231   4.632   1.370   9.365  0.0669 -0.1523 -0.5988
 1408HK4     C318232   4.579   1.245   9.333 -0.0706 -0.2679  0.0818
 1408HK4     H318233   4.491   1.236   9.267 -0.6185  0.0379  0.7606
 1408HK4     C218234   4.633   1.132   9.393  0.5109 -0.1846 -0.2828
 1408HK4     H218235   4.576   1.038   9.380  1.7892 -0.9516 -0.4096
 1408HK4     C118236   4.743   1.141   9.476  0.5009 -0.0159 -0.2911
 1408HK4     H118237   4.780   1.061   9.541 -1.2714  0.5260  1.4487
 1408HK4     C618238   4.804   1.267   9.499 -0.3716  0.3117  0.2582
 1408HK4     C518239   4.740   1.383   9.454 -0.5292  0.1576  0.0838
 1408HK4    C1018240   4.771   1.522   9.499  0.3218  0.0186 -0.0691
 1408HK4     O118241   4.786   1.538   9.620 -0.3296  0.2631 -0.0200
 1408HK4    C1618242   4.937   1.252   9.561 -0.0085  0.2596 -0.5323
 1408HK4    C1518243   5.049   1.309   9.498  0.3959  0.1527  0.0919
 1408HK4     H718244   5.043   1.301   9.389  1.8732 -1.5040  0.1166
 1408HK4    C2018245   5.160   1.359   9.566  0.4395 -0.1369  0.2361
 1408HK4     H918246   5.241   1.401   9.507 -0.3270 -1.4341 -1.7847
 1408HK4    C1918247   5.161   1.351   9.705  0.0970 -0.6947  0.2065
 1408HK4    C1818248   5.049   1.295   9.777 -0.3583 -0.1941 -0.1048
 1408HK4    C1718249   4.945   1.244   9.699  0.0343 -0.2915 -0.5622
 1408HK4     H818250   4.873   1.187   9.757 -1.7600  0.1351 -2.3258
 1408HK4     N118251   5.069   1.295   9.917  0.3128 -0.3585 -0.1987
 1408HK4    C2118252   5.195   1.357   9.929  0.2802 -0.2815 -0.2569
 1408HK4    C2218253   5.256   1.398   9.804 -0.0765  0.4978 -0.1796
 1408HK4    C2618254   5.383   1.455   9.801  0.3486 -0.3997  0.4025
 1408HK4    H1318255   5.425   1.472   9.702 -1.4215  0.3719 -0.2346
 1408HK4    C2518256   5.450   1.479   9.920  0.0889  0.4170  0.3882
 1408HK4    H1218257   5.546   1.531   9.918  1.7013 -2.4193  1.0907
 1408HK4    C2418258   5.389   1.453  10.042  0.0957 -0.1111  0.2764
 1408HK4    H1118259   5.450   1.453  10.133  0.5636  2.3861 -0.0068
 1408HK4    C2318260   5.266   1.388  10.045  0.1623 -0.2679 -0.1878
 1408HK4    H1018261   5.237   1.338  10.137  1.9253 -1.4572 -0.2751
 1408HK4    C3918262   4.977   1.272  10.019  0.1008 -0.0144 -0.3102
 1408HK4    C4118263   5.008   1.230  10.150  0.4496  0.1377 -0.3467
 1408HK4    H2118264   5.111   1.190  10.153  0.1231 -0.7468 -0.6046
 1408HK4    C4218265   4.906   1.218  10.244  0.1279  0.4089 -0.6612
 1408HK4    H2218266   4.941   1.217  10.348 -1.2063 -0.2990 -0.2090
 1408HK4    C4318267   4.770   1.240  10.222 -0.0489 -0.2820 -0.2532
 1408HK4    H2318268   4.694   1.205  10.292 -2.5700  3.0260 -1.2590
 1408HK4    C4418269   4.738   1.283  10.094  0.3783  0.4207 -0.1204
 1408HK4    H2418270   4.635   1.265  10.061 -0.2231 -0.0772  1.9590
 1408HK4    C4518271   4.839   1.295   9.999  0.1378  0.1272 -0.4078
 1408HK4    H2518272   4.802   1.324   9.899  2.4926  2.8289 -0.5407
 1409HK4    H2818273   2.688   6.982   8.700 -0.0087  0.1023 -1.3112
 1409HK4    C4818274   2.695   7.050   8.786 -0.0340  0.2579 -1.4329
 1409HK4    C4718275   2.588   7.120   8.840  0.2309 -0.3525 -0.1123
 1409HK4    H2718276   2.502   7.151   8.779 -0.3330 -1.4967  0.0754
 1409HK4    C4618277   2.603   7.194   8.957  0.1761 -0.1596 -0.2289
 1409HK4    H2618278   2.517   7.232   9.014  2.2963  0.9911  2.2704
 1409HK4    C4018279   2.730   7.209   9.015  0.0080  0.0521  0.0853
 1409HK4    C5018280   2.841   7.142   8.958 -0.0695  0.2144 -0.2528
 1409HK4    H3018281   2.945   7.154   8.990  0.6134 -3.8792 -0.6245
 1409HK4    C4918282   2.820   7.063   8.845 -0.4325  1.0316 -0.7623
 1409HK4    H2918283   2.903   7.003   8.804 -0.9870  0.0147 -0.4031
 1409HK4     N218284   2.752   7.296   9.122 -0.1561  0.1738  0.0248
 1409HK4    C3018285   2.682   7.416   9.147 -0.1783  0.1794 -0.0685
 1409HK4    C2918286   2.592   7.492   9.073  0.0400  0.0903 -0.4248
 1409HK4    H1518287   2.601   7.470   8.967 -1.8837 -2.6373 -0.0967
 1409HK4    C2818288   2.506   7.588   9.126  0.3514  0.2648 -0.2396
 1409HK4    C2718289   2.512   7.605   9.266 -0.0787 -0.3533 -0.1397
 1409HK4    H1418290   2.422   7.647   9.314  1.1003 -0.6201  2.3532
 1409HK4    C3218291   2.605   7.537   9.344 -0.0464  0.0641  0.1854
 1409HK4    H1618292   2.601   7.546   9.452 -2.1934 -0.3055  0.1449
 1409HK4    C3118293   2.694   7.446   9.288 -0.1298  0.1328 -0.0592
 1409HK4    C3418294   2.777   7.343   9.347 -0.4599 -0.1229 -0.0344
 1409HK4    C3318295   2.823   7.259   9.238 -0.4035 -0.2056  0.0545
 1409HK4    C3518296   2.902   7.148   9.268  0.0875  0.1645  0.1400
 1409HK4    H1718297   2.954   7.093   9.190 -0.1296  1.2146 -0.7593
 1409HK4    C3618298   2.937   7.118   9.399 -0.2119 -0.0825  0.1636
 1409HK4    H1818299   2.990   7.026   9.428  1.0498  0.5710 -0.0488
 1409HK4    C3718300   2.897   7.200   9.503 -0.5923 -0.4436  0.3054
 1409HK4    H1918301   2.946   7.185   9.599  3.4666 -2.0884 -1.9161
 1409HK4    C3818302   2.817   7.311   9.477  0.1038 -0.0507 -0.1865
 1409HK4    H2018303   2.787   7.379   9.556 -3.2771 -0.9025 -0.6633
 1409HK4    C1418304   2.398   7.642   9.043  0.0192 -0.1474 -0.0755
 1409HK4     C918305   2.318   7.744   9.094  0.1320  0.1894 -0.5740
 1409HK4     C818306   2.178   7.746   9.076  0.1315  0.2839 -0.5556
 1409HK4    C1118307   2.125   7.655   8.986 -0.2372 -0.0650  0.0132
 1409HK4     H418308   2.019   7.665   8.958 -0.5047  0.1652  1.0987
 1409HK4    C1218309   2.204   7.562   8.919 -0.0379  0.3429 -0.3187
 1409HK4     H518310   2.157   7.477   8.867 -1.0986  2.3315 -2.7313
 1409HK4    C1318311   2.337   7.550   8.955 -0.1297 -0.0276 -0.0990
 1409HK4     H618312   2.403   7.493   8.887  1.6343  0.4019  1.2014
 1409HK4     C718313   2.088   7.852   9.128 -0.0153  0.0458 -0.3210
 1409HK4     O218314   1.970   7.822   9.140  0.0514  0.1661  0.6939
 1409HK4     C418315   2.142   7.973   9.194 -0.4080  0.1120 -0.1247
 1409HK4     C318316   2.056   8.070   9.245 -0.4595  0.1050 -0.2001
 1409HK4     H318317   1.947   8.055   9.248 -0.6429  0.9347 -1.8568
 1409HK4     C218318   2.105   8.190   9.294 -0.0462  0.0027 -0.3632
 1409HK4     H218319   2.036   8.262   9.338  0.7389  2.3084 -2.7611
 1409HK4     C118320   2.243   8.210   9.295 -0.0262 -0.1250 -0.4630
 1409HK4     H118321   2.286   8.295   9.351  0.0105  0.7908 -1.8661
 1409HK4     C618322   2.329   8.107   9.252  0.1268 -0.2149  0.0540
 1409HK4     C518323   2.282   7.988   9.195 -0.3876 -0.0879  0.2185
 1409HK4    C1018324   2.365   7.879   9.136 -0.3518  0.3522 -0.5556
 1409HK4     O118325   2.480   7.901   9.099 -0.2514 -0.1046 -0.5139
 1409HK4    C1618326   2.470   8.145   9.272 -0.0199  0.1942  0.3214
 1409HK4    C1518327   2.518   8.275   9.244  0.0961  0.0285 -0.2546
 1409HK4     H718328   2.459   8.344   9.183 -0.5115  1.2290  1.6335
 1409HK4    C2018329   2.634   8.325   9.303 -0.6315  0.5465  0.7591
 1409HK4     H918330   2.671   8.419   9.261 -0.8345  0.2859 -0.0187
 1409HK4    C1918331   2.705   8.252   9.397 -0.0838 -0.0455 -0.1016
 1409HK4    C1818332   2.659   8.118   9.426 -0.3000  0.1821  0.6100
 1409HK4    C1718333   2.549   8.068   9.356  0.2678 -0.0227 -0.1478
 1409HK4     H818334   2.547   7.963   9.327  1.6626 -0.1443  0.1558
 1409HK4     N118335   2.719   8.062   9.541  0.2372 -0.3544  0.0779
 1409HK4    C2118336   2.800   8.165   9.592 -0.3997  0.0447  0.2926
 1409HK4    C2218337   2.801   8.280   9.502 -0.1187 -0.2019 -0.0293
 1409HK4    C2618338   2.889   8.385   9.525 -0.1466 -0.1358 -0.2393
 1409HK4    H1318339   2.886   8.472   9.459 -0.8280 -1.5940 -2.1961
 1409HK4    C2518340   2.983   8.375   9.627 -0.2393 -0.6598 -0.2030
 1409HK4    H1218341   3.048   8.461   9.638 -2.3153  0.9044  0.2254
 1409HK4    C2418342   2.988   8.261   9.707 -0.4299 -0.5502 -0.0306
 1409HK4    H1118343   3.062   8.258   9.788  1.6389  2.8015 -1.6907
 1409HK4    C2318344   2.894   8.159   9.694 -0.2567 -0.7277  0.1175
 1409HK4    H1018345   2.893   8.073   9.761  1.8364 -0.9977 -0.1672
 1409HK4    C3918346   2.727   7.924   9.563  0.1443 -0.3314  0.2600
 1409HK4    C4118347   2.723   7.872   9.694  0.3216 -0.0402  0.3812
 1409HK4    H2118348   2.666   7.929   9.769 -0.2817 -1.4421  1.0239
 1409HK4    C4218349   2.784   7.751   9.722  0.0258 -0.1778  0.4455
 1409HK4    H2218350   2.798   7.708   9.823 -2.1329 -2.4793 -0.1805
 1409HK4    C4318351   2.835   7.675   9.617  0.1737 -0.0234  0.4050
 1409HK4    H2318352   2.858   7.570   9.638  2.3469  0.3597  0.0646
 1409HK4    C4418353   2.842   7.726   9.488  0.0592  0.2243  0.5002
 1409HK4    H2418354   2.879   7.670   9.401 -0.8253 -0.9158  0.8570
 1409HK4    C4518355   2.790   7.852   9.460  0.1547  0.1371 -0.0624
 1409HK4    H2518356   2.786   7.885   9.355  1.2372  0.4261 -0.0225
 1410HK4    H2818357  10.155   7.038   1.353 -2.8015 -3.3191 -1.8160
 1410HK4    C4818358  10.236   7.026   1.282  0.3308  0.2646  0.9529
 1410HK4    C4718359  10.306   6.906   1.271 -0.6115 -0.1691 -0.3621
 1410HK4    H2718360  10.311   6.835   1.355  1.4037  0.4731  0.0718
 1410HK4    C4618361  10.380   6.881   1.156 -0.5403 -0.6011 -0.2258
 1410HK4    H2618362  10.426   6.783   1.138 -1.6726 -1.2706  0.5074
 1410HK4    C4018363  10.400   6.979   1.056 -0.2859 -0.0983  0.3158
 1410HK4    C5018364  10.341   7.105   1.078 -0.2491 -0.0524  0.1562
 1410HK4    H3018365  10.362   7.192   1.013  0.7386 -1.0986 -0.9582
 1410HK4    C4918366  10.254   7.123   1.184 -0.3715 -0.4492  0.1174
 1410HK4    H2918367  10.182   7.206   1.174  1.9461  1.9259  2.4470
 1410HK4     N218368  10.509   6.981   0.968 -0.8117 -0.1379 -0.3374
 1410HK4    C3018369  10.633   6.918   0.989 -0.2939  0.9767  0.0070
 1410HK4    C2918370  10.695   6.874   1.106 -0.6078 -0.6672 -0.4287
 1410HK4    H1518371  10.658   6.921   1.197 -2.0780 -1.0789 -0.8018
 1410HK4    C2818372  10.818   6.810   1.110  0.0566  0.5630 -0.6032
 1410HK4    C2718373  10.890   6.785   0.991  0.1754 -0.1933 -0.3746
 1410HK4    H1418374  10.989   6.739   0.977 -0.5297 -1.8367 -0.1281
 1410HK4    C3218375  10.826   6.826   0.875 -0.2248  0.2736  0.0088
 1410HK4    H1618376  10.878   6.823   0.779 -1.8002 -0.3054 -0.8410
 1410HK4    C3118377  10.704   6.892   0.866 -0.2333  0.2870  0.1863
 1410HK4    C3418378  10.627   6.959   0.763  0.5158  0.6423 -0.1474
 1410HK4    C3318379  10.504   6.998   0.828  0.2021  0.0096 -0.3627
 1410HK4    C3518380  10.410   7.068   0.752  0.0849  0.1041 -0.1322
 1410HK4    H1718381  10.305   7.075   0.780  0.4233 -2.8873  2.1412
 1410HK4    C3618382  10.443   7.113   0.625 -0.0074  0.0951 -0.1591
 1410HK4    H1818383  10.359   7.143   0.560 -0.3123 -0.1172  0.1350
 1410HK4    C3718384  10.567   7.087   0.568  0.2949  0.6463  0.2437
 1410HK4    H1918385  10.590   7.128   0.470  2.6333 -1.6559 -0.2156
 1410HK4    C3818386  10.658   7.007   0.636  0.2443 -0.0007 -0.4553
 1410HK4    H2018387  10.739   6.956   0.584 -0.5873 -0.2281 -1.5671
 1410HK4    C1418388  10.871   6.763   1.239 -0.4728  0.0803 -0.5614
 1410HK4     C918389  11.003   6.727   1.268 -0.5012  0.6931  0.3286
 1410HK4     C818390  11.037   6.632   1.366 -0.4467  0.6081  0.2255
 1410HK4    C1118391  10.938   6.576   1.445 -0.1025 -0.2890  0.0259
 1410HK4     H418392  10.962   6.501   1.522 -0.3791 -1.8319 -1.3738
 1410HK4    C1218393  10.808   6.618   1.420  0.2321  0.8874  0.2507
 1410HK4     H518394  10.730   6.548   1.454 -2.5570  3.6640 -0.1724
 1410HK4    C1318395  10.772   6.718   1.329 -0.2046  0.4120 -0.1044
 1410HK4     H618396  10.667   6.749   1.322  0.5070  3.1888  0.8677
 1410HK4     C718397  11.178   6.595   1.391 -0.4565  0.0220 -0.5633
 1410HK4     O218398  11.200   6.474   1.403  0.2749  0.2158  0.1387
 1410HK4     C418399   0.033   6.680   1.325 -0.1329  0.0986  0.0326
 1410HK4     C318400   0.165   6.656   1.360 -0.1604  0.5623  0.4539
 1410HK4     H318401   0.181   6.602   1.454  0.4697  0.9083  0.5464
 1410HK4     C218402   0.276   6.718   1.303  0.0324 -0.1151  0.0935
 1410HK4     H218403   0.378   6.679   1.320  0.6393  0.7391 -1.4855
 1410HK4     C118404   0.243   6.815   1.209  0.2142 -0.0830  0.0631
 1410HK4     H118405   0.321   6.886   1.177  1.6459 -1.6010  0.0525
 1410HK4     C618406   0.111   6.845   1.170  0.1261 -0.0293  0.4048
 1410HK4     C518407   0.003   6.783   1.234 -0.1827 -0.1718 -0.2564
 1410HK4    C1018408  11.108   6.822   1.221 -0.1150  0.2833  0.3611
 1410HK4     O118409  11.098   6.943   1.242  0.8017  0.6863 -1.4203
 1410HK4    C1618410   0.102   6.873   1.026 -0.1764 -0.3297  0.3656
 1410HK4    C1518411   0.204   6.823   0.943 -0.4642  0.0743 -0.2277
 1410HK4     H718412   0.236   6.721   0.969  0.9430  0.4348 -0.5081
 1410HK4    C2018413   0.231   6.868   0.814  0.3319  0.2673  0.0040
 1410HK4     H918414   0.324   6.837   0.766 -0.0262 -1.4379  0.3949
 1410HK4    C1918415   0.161   6.980   0.768 -0.0555  0.1003  0.1834
 1410HK4    C1818416   0.063   7.041   0.856 -0.5320 -0.1828 -0.1575
 1410HK4    C1718417   0.031   6.982   0.978  0.1852 -0.2588 -0.0069
 1410HK4     H818418  11.220   7.043   1.046  0.3827  2.4965 -2.1788
 1410HK4     N118419   0.024   7.163   0.797 -0.3905 -0.0352  0.0593
 1410HK4    C2118420   0.098   7.181   0.678 -0.0379 -0.1762  0.2564
 1410HK4    C2218421   0.190   7.070   0.659 -0.1733 -0.2236 -0.1136
 1410HK4    C2618422   0.264   7.066   0.542 -0.1989 -0.4090 -0.1238
 1410HK4    H1318423   0.315   6.972   0.520  1.0863  0.5890 -1.5731
 1410HK4    C2518424   0.258   7.164   0.443  0.1591  0.4909  0.7415
 1410HK4    H1218425   0.324   7.158   0.357 -1.8921  1.6764 -0.9783
 1410HK4    C2418426   0.182   7.276   0.477 -0.7045  0.4100 -0.8832
 1410HK4    H1118427   0.195   7.363   0.411  2.1079  0.4805 -0.2890
 1410HK4    C2318428   0.103   7.288   0.590  0.4604 -0.3783  0.0338
 1410HK4    H1018429   0.066   7.388   0.612  1.5446  0.0798 -0.2234
 1410HK4    C3918430  11.143   7.216   0.810 -0.4698 -0.0911 -0.4931
 1410HK4    C4118431  11.127   7.354   0.782 -0.5635  0.1502  0.7256
 1410HK4    H2118432  11.207   7.427   0.801 -0.3064  0.5185 -1.6014
 1410HK4    C4218433  11.006   7.412   0.747 -0.3734  0.2977  0.3095
 1410HK4    H2218434  11.005   7.515   0.708  0.5317 -0.5501 -2.0923
 1410HK4    C4318435  10.895   7.328   0.751 -0.2214  0.0393 -0.6447
 1410HK4    H2318436  10.796   7.371   0.741 -0.5942 -0.5401  0.4279
 1410HK4    C4418437  10.904   7.195   0.790  0.3131  0.3933  0.4648
 1410HK4    H2418438  10.809   7.141   0.809  0.3795 -0.2833 -1.0537
 1410HK4    C4518439  11.027   7.137   0.820 -0.0670 -0.6127  0.1124
 1410HK4    H2518440  11.039   7.033   0.852  0.9614 -0.9471 -1.3004
 1411HK4    H2818441   6.422  11.102   0.347  2.5524 -0.3401  0.4195
 1411HK4    C4818442   6.409  11.121   0.454 -0.5812 -0.2791  0.0757
 1411HK4    C4718443   6.314  11.215   0.495 -0.8211 -0.5624  0.1597
 1411HK4    H2718444   6.249   0.017   0.422  0.4250 -0.8874 -1.2026
 1411HK4    C4618445   6.299  11.233   0.632 -0.4148 -0.3539  0.1764
 1411HK4    H2618446   6.229   0.062   0.666  0.5998  0.6464  0.0630
 1411HK4    C4018447   6.354  11.142   0.725  0.3909  0.0975  0.1525
 1411HK4    C5018448   6.436  11.036   0.681 -0.0285  0.0985 -0.6498
 1411HK4    H3018449   6.474  10.954   0.744  0.2220 -0.3660 -1.4023
 1411HK4    C4918450   6.470  11.037   0.546  0.7935  0.1300 -0.4467
 1411HK4    H2918451   6.515  10.947   0.502  0.0397 -1.3710  1.7599
 1411HK4     N218452   6.295  11.131   0.851  0.1759 -0.0993  0.0355
 1411HK4    C3018453   6.160  11.152   0.888  0.1428  0.2640 -0.2859
 1411HK4    C2918454   6.046  11.167   0.810  0.0531  0.3964 -0.1274
 1411HK4    H1518455   6.044  11.146   0.703 -0.0398 -1.0343  0.1439
 1411HK4    C2818456   5.924  11.206   0.864  0.1696  0.2552  0.2445
 1411HK4    C2718457   5.913  11.214   1.005  0.1325  0.4636  0.2305
 1411HK4    H1418458   5.809  11.213   1.039 -0.3848  0.3693 -1.2991
 1411HK4    C3218459   6.020  11.192   1.091  0.3158  0.3482 -0.0269
 1411HK4    H1618460   5.996  11.181   1.196  0.7204 -0.1465  0.0218
 1411HK4    C3118461   6.143  11.165   1.031  0.0831 -0.2753 -0.2400
 1411HK4    C3418462   6.279  11.154   1.083  0.0200  0.1302  0.0186
 1411HK4    C3318463   6.369  11.140   0.970  0.0948  0.3160  0.0559
 1411HK4    C3518464   6.507  11.145   0.992  0.1763  0.5217 -0.5107
 1411HK4    H1718465   6.578  11.129   0.911  0.6215  2.6943 -0.5874
 1411HK4    C3618466   6.553  11.170   1.120 -0.1086 -1.2659 -0.0509
 1411HK4    H1818467   6.658  11.197   1.137 -0.1089  0.3918 -2.4295
 1411HK4    C3718468   6.469  11.177   1.231  0.3301  0.4434  0.1821
 1411HK4    H1918469   6.514  11.227   1.317  3.9049 -0.4011 -1.1027
 1411HK4    C3818470   6.332  11.166   1.211  0.3922  0.2913 -0.1507
 1411HK4    H2018471   6.271  11.186   1.298  1.3535  4.3898 -0.3238
 1411HK4    C1418472   5.830   0.041   0.788 -0.1048 -0.3818 -0.1115
 1411HK4     C918473   5.764   0.147   0.852  0.3350 -0.0730 -0.1705
 1411HK4     C818474   5.624   0.152   0.844  0.3155 -0.2444  0.0891
 1411HK4    C1118475   5.551   0.068   0.761  0.4647 -0.3854  0.1014
 1411HK4     H418476   5.441   0.069   0.767  0.4371 -2.6459  0.4841
 1411HK4    C1218477   5.617  11.221   0.683 -0.5085 -1.1397  0.1919
 1411HK4     H518478   5.560  11.163   0.608 -2.1865 -0.4078  0.8732
 1411HK4    C1318479   5.754  11.207   0.703 -0.3331 -0.0463 -0.2301
 1411HK4     H618480   5.799  11.137   0.630 -2.6183  0.0990 -1.8413
 1411HK4     C718481   5.550   0.257   0.917  0.1797 -0.2785  0.0015
 1411HK4     O218482   5.441   0.229   0.967 -0.0820  0.4194 -0.1714
 1411HK4     C418483   5.626   0.373   0.969  0.0912  0.0146 -0.5220
 1411HK4     C318484   5.559   0.486   1.013 -0.1454 -0.0755 -0.6517
 1411HK4     H318485   5.451   0.498   0.995 -0.0532 -0.6970 -1.6232
 1411HK4     C218486   5.622   0.587   1.085  0.0748 -0.4357 -0.3416
 1411HK4     H218487   5.573   0.684   1.095 -0.9418 -0.8689 -1.0563
 1411HK4     C118488   5.758   0.574   1.113  0.0137  0.3425  0.3279
 1411HK4     H118489   5.809   0.653   1.169 -1.7664  1.9346 -0.2315
 1411HK4     C618490   5.829   0.457   1.081 -0.0784  0.5032 -0.4784
 1411HK4     C518491   5.764   0.365   0.998  0.0038  0.0882 -0.0830
 1411HK4    C1018492   5.835   0.259   0.920 -0.0167  0.2030 -0.2582
 1411HK4     O118493   5.950   0.282   0.883  0.0328  0.1438 -0.1384
 1411HK4    C1618494   5.951   0.433   1.160 -0.3216 -0.1179 -0.2854
 1411HK4    C1518495   6.002   0.302   1.169  0.1650  0.0799 -0.1545
 1411HK4     H718496   5.944   0.209   1.171 -0.7063  0.5334 -2.9099
 1411HK4    C2018497   6.136   0.276   1.197  0.0595  0.0082  0.2914
 1411HK4     H918498   6.170   0.181   1.157  0.9429  0.5168 -0.1633
 1411HK4    C1918499   6.224   0.382   1.213 -0.0739  0.2287 -0.4178
 1411HK4    C1818500   6.176   0.519   1.209 -0.1178  0.2324  0.1747
 1411HK4    C1718501   6.039   0.536   1.192 -0.1615 -0.3305 -0.0365
 1411HK4     H818502   6.003   0.631   1.231  0.2235 -0.5883  0.9401
 1411HK4     N118503   6.260   0.604   1.283 -0.0486  0.0254  0.3336
 1411HK4    C2118504   6.353   0.516   1.342  0.0814 -0.2518 -0.2820
 1411HK4    C2218505   6.338   0.378   1.302 -0.4742 -0.2962  0.0743
 1411HK4    C2618506   6.432   0.279   1.332  0.1849  0.1364 -0.5372
 1411HK4    H1318507   6.398   0.177   1.312 -0.3534  0.2682 -0.3214
 1411HK4    C2518508   6.550   0.319   1.392  0.2167 -0.3902 -0.2505
 1411HK4    H1218509   6.637   0.255   1.372  1.6335  1.8907 -1.6395
 1411HK4    C2418510   6.562   0.448   1.442 -0.3369 -0.2496 -0.4867
 1411HK4    H1118511   6.647   0.477   1.505  0.5424 -0.1446 -1.7054
 1411HK4    C2318512   6.469   0.547   1.413  0.1826  0.1903 -0.6428
 1411HK4    H1018513   6.466   0.638   1.473  1.6647  0.6429 -1.2381
 1411HK4    C3918514   6.269   0.743   1.265 -0.4251  0.0367  0.2360
 1411HK4    C4118515   6.234   0.806   1.144  0.0559 -0.1452  0.0032
 1411HK4    H2118516   6.199   0.746   1.059 -3.3018 -0.3880  1.4726
 1411HK4    C4218517   6.220   0.944   1.141  0.1064 -0.1372  0.1175
 1411HK4    H2218518   6.241   0.998   1.048  1.5382  1.8842  1.5589
 1411HK4    C4318519   6.229   1.022   1.256 -0.6679 -0.0076  0.0933
 1411HK4    H2318520   6.247   1.129   1.250 -1.8168  0.1818 -0.1949
 1411HK4    C4418521   6.244   0.948   1.373 -0.2134 -0.1138 -0.0308
 1411HK4    H2418522   6.220   1.003   1.465 -0.7730 -2.3901  1.2335
 1411HK4    C4518523   6.278   0.814   1.387  0.1708  0.0089  0.2092
 1411HK4    H2518524   6.301   0.763   1.482 -0.0633 -2.9370 -1.2548
 1412HK4    H2818525   2.475   1.851   2.665  0.2129  2.1942 -0.1027
 1412HK4    C4818526   2.502   1.827   2.562  0.3189  0.5587  0.2888
 1412HK4    C4718527   2.602   1.734   2.538 -0.1663  0.1298 -0.0863
 1412HK4    H2718528   2.621   1.664   2.620 -0.7963  1.4889  1.2552
 1412HK4    C4618529   2.655   1.717   2.410  0.0713 -0.0026  0.0287
 1412HK4    H2618530   2.735   1.644   2.396 -0.0699 -0.1777  0.1239
 1412HK4    C4018531   2.611   1.795   2.302  0.1071  0.0575  0.0573
 1412HK4    C5018532   2.505   1.884   2.329  0.0964  0.0185  0.1424
 1412HK4    H3018533   2.479   1.960   2.254  1.0849  1.0736  0.8407
 1412HK4    C4918534   2.446   1.895   2.455  0.2005  0.2701  0.1692
 1412HK4    H2918535   2.365   1.968   2.467 -1.0862 -1.4941  2.5211
 1412HK4     N218536   2.674   1.795   2.176  0.1308 -0.3442  0.0673
 1412HK4    C3018537   2.802   1.740   2.158  0.2149 -0.1321  0.0092
 1412HK4    C2918538   2.915   1.746   2.240  0.1568  0.5850  0.0342
 1412HK4    H1518539   2.902   1.802   2.332 -3.0313  0.5991 -0.3681
 1412HK4    C2818540   3.041   1.703   2.201  0.1340 -0.3749  1.0234
 1412HK4    C2718541   3.044   1.656   2.068 -0.1548 -0.2344  0.9668
 1412HK4    H1418542   3.137   1.617   2.024  0.2573  0.8515  0.8561
 1412HK4    C3218543   2.941   1.664   1.976  0.3784 -0.1134  0.3764
 1412HK4    H1618544   2.962   1.651   1.870  1.0306  1.4777  0.2946
 1412HK4    C3118545   2.814   1.700   2.019  0.1587 -0.6007  0.1369
 1412HK4    C3418546   2.697   1.744   1.945  0.3493 -0.1740  0.0913
 1412HK4    C3318547   2.608   1.785   2.052  0.2894  0.0680 -0.0514
 1412HK4    C3518548   2.472   1.787   2.023  0.2610  0.7977  0.1220
 1412HK4    H1718549   2.399   1.804   2.103  2.2007 -0.2693  2.1717
 1412HK4    C3618550   2.423   1.754   1.897  0.3904  0.0299  0.2679
 1412HK4    H1818551   2.317   1.773   1.876 -0.3929 -2.8636  1.4364
 1412HK4    C3718552   2.509   1.723   1.793  0.1746 -0.0539  0.1144
 1412HK4    H1918553   2.471   1.688   1.697 -4.0040  1.7409  1.0244
 1412HK4    C3818554   2.646   1.716   1.819  0.2472  0.6918 -0.0654
 1412HK4    H2018555   2.715   1.689   1.740  1.5978 -1.3588  1.7500
 1412HK4    C1418556   3.154   1.723   2.293 -0.1032  0.9117  1.0343
 1412HK4     C918557   3.282   1.724   2.236 -0.3641 -0.7808  0.3980
 1412HK4     C818558   3.384   1.642   2.287  0.1200 -0.3421  0.1325
 1412HK4    C1118559   3.355   1.577   2.406  0.3240  0.5670  0.6831
 1412HK4     H418560   3.421   1.496   2.442 -0.1637 -0.6577 -1.1196
 1412HK4    C1218561   3.236   1.591   2.476 -0.0721 -0.2558  0.1766
 1412HK4     H518562   3.212   1.546   2.574  2.4358 -0.5331  0.6994
 1412HK4    C1318563   3.135   1.670   2.422 -0.4490 -0.6108  0.3611
 1412HK4     H618564   3.043   1.686   2.480 -0.0794  0.5265  0.6294
 1412HK4     C718565   3.509   1.620   2.210 -0.0852  0.1167 -0.3350
 1412HK4     O218566   3.558   1.507   2.215 -0.1392  0.1483  0.9956
 1412HK4     C418567   3.531   1.712   2.097  0.6482  0.4751  0.1008
 1412HK4     C318568   3.635   1.696   2.005  0.9619 -0.2263  0.5720
 1412HK4     H318569   3.709   1.617   2.021 -1.1458 -2.7550 -1.5204
 1412HK4     C218570   3.669   1.803   1.922  0.7005 -0.3627  0.2873
 1412HK4     H218571   3.739   1.788   1.839  1.0635 -1.2369  0.7349
 1412HK4     C118572   3.617   1.930   1.942  0.1457 -0.4657 -0.4911
 1412HK4     H118573   3.674   2.015   1.902  1.6844 -1.1636  0.1749
 1412HK4     C618574   3.526   1.953   2.047 -0.0190 -0.2216 -0.6874
 1412HK4     C518575   3.469   1.838   2.103 -0.3533  0.0178 -0.5370
 1412HK4    C1018576   3.327   1.835   2.148 -0.0303 -0.8757  0.4479
 1412HK4     O118577   3.245   1.898   2.080  0.5318 -0.3926  0.2122
 1412HK4    C1618578   3.482   2.091   2.073  0.5106 -0.2173  0.1794
 1412HK4    C1518579   3.497   2.199   1.984 -0.0001 -0.0657  0.2767
 1412HK4     H718580   3.514   2.181   1.877  0.5276 -1.2143  0.5510
 1412HK4    C2018581   3.484   2.334   2.018  0.1690  0.0631 -0.1737
 1412HK4     H918582   3.492   2.402   1.933  2.0477  0.1254  0.0298
 1412HK4    C1918583   3.434   2.360   2.145 -0.3877 -0.1395 -0.3481
 1412HK4    C1818584   3.402   2.251   2.235 -0.3254 -0.0465 -0.2148
 1412HK4    C1718585   3.439   2.122   2.202  0.1725  0.0373  0.0073
 1412HK4     H818586   3.438   2.041   2.276  0.5754  0.8537  0.9122
 1412HK4     N118587   3.333   2.297   2.349  0.2516 -0.1982  0.2023
 1412HK4    C2118588   3.315   2.436   2.334 -0.0433 -0.2510  0.0528
 1412HK4    C2218589   3.378   2.477   2.210 -0.2072 -0.2336 -0.0245
 1412HK4    C2618590   3.356   2.606   2.165  0.2532 -0.3085 -0.4679
 1412HK4    H1318591   3.380   2.622   2.059  1.0427 -0.5162 -0.3225
 1412HK4    C2518592   3.276   2.697   2.232  0.1150 -0.2861 -0.6632
 1412HK4    H1218593   3.248   2.786   2.176  2.0660  0.3982 -0.5957
 1412HK4    C2418594   3.217   2.659   2.352  0.1145 -0.1425 -0.6170
 1412HK4    H1118595   3.149   2.726   2.406 -0.5624 -0.5853 -0.9143
 1412HK4    C2318596   3.239   2.531   2.401 -0.5303 -0.2226 -0.5316
 1412HK4    H1018597   3.190   2.509   2.497  1.7118  1.8663  1.1453
 1412HK4    C3918598   3.252   2.215   2.428  0.3687 -0.1279  0.3976
 1412HK4    C4118599   3.225   2.251   2.562  0.0592 -0.0449  0.3124
 1412HK4    H2118600   3.261   2.347   2.601 -0.4786  0.6794 -0.9429
 1412HK4    C4218601   3.126   2.177   2.627 -0.5325  0.4461 -0.0266
 1412HK4    H2218602   3.118   2.197   2.735  1.4664  1.1083  0.0151
 1412HK4    C4318603   3.060   2.073   2.563 -0.0631  0.1818 -0.0831
 1412HK4    H2318604   2.993   2.011   2.621  0.0569 -0.4874 -0.6509
 1412HK4    C4418605   3.088   2.034   2.432  0.4502 -0.1110  0.1126
 1412HK4    H2418606   3.006   1.974   2.390 -0.7731  0.4342  1.6558
 1412HK4    C4518607   3.183   2.109   2.365  0.0888  0.2742  0.0360
 1412HK4    H2518608   3.190   2.102   2.255 -1.7648  2.7260 -0.2985
 1413HK4    H2818609   4.509   1.538   4.263 -2.4720  1.4506 -2.0641
 1413HK4    C4818610   4.560   1.634   4.267  0.1577  0.0300 -0.3211
 1413HK4    C4718611   4.492   1.754   4.282 -0.6024 -0.3543 -0.6882
 1413HK4    H2718612   4.386   1.761   4.312 -0.2180  1.5156  0.2853
 1413HK4    C4618613   4.570   1.869   4.287 -0.3380 -0.5333 -0.6693
 1413HK4    H2618614   4.519   1.966   4.298  2.8540  1.2334 -0.7250
 1413HK4    C4018615   4.711   1.875   4.281 -0.3487  0.1161 -0.3148
 1413HK4    C5018616   4.778   1.751   4.268 -0.1133  0.2409 -0.2872
 1413HK4    H3018617   4.887   1.748   4.260 -0.2774 -1.4648 -2.1507
 1413HK4    C4918618   4.699   1.637   4.261  0.1807  0.0102  0.1566
 1413HK4    H2918619   4.739   1.541   4.224  0.6528 -0.6785  2.3765
 1413HK4     N218620   4.783   1.967   4.357 -0.1227 -0.6096  0.3689
 1413HK4    C3018621   4.739   2.027   4.477 -0.0713  0.0371  0.0664
 1413HK4    C2918622   4.664   1.971   4.579 -0.3211 -0.0895 -0.1863
 1413HK4    H1518623   4.609   1.878   4.562  0.3306 -0.0509 -2.7651
 1413HK4    C2818624   4.658   2.038   4.700 -0.5412  0.2780 -0.3999
 1413HK4    C2718625   4.727   2.159   4.725  0.0797 -0.1482 -0.0417
 1413HK4    H1418626   4.709   2.213   4.819  1.1300 -0.5892  0.4348
 1413HK4    C3218627   4.801   2.217   4.622 -0.2325 -0.0752 -0.2245
 1413HK4    H1618628   4.817   2.325   4.618  2.1361 -0.4310 -0.7845
 1413HK4    C3118629   4.810   2.152   4.500  0.0692  0.0177 -0.2530
 1413HK4    C3418630   4.903   2.164   4.390  0.3387  0.0255 -0.0268
 1413HK4    C3318631   4.884   2.049   4.303  0.0192 -0.5248  0.7635
 1413HK4    C3518632   4.973   2.027   4.199 -0.6654  0.5494 -0.0663
 1413HK4    H1718633   4.938   1.972   4.112  0.9528  0.4917 -0.7098
 1413HK4    C3618634   5.084   2.110   4.188 -0.2512 -0.0474 -0.4646
 1413HK4    H1818635   5.168   2.087   4.121  0.2909 -2.5616  1.0354
 1413HK4    C3718636   5.108   2.213   4.278 -0.2308 -0.5334  0.0850
 1413HK4    H1918637   5.191   2.283   4.280 -1.0495  0.4624 -0.1682
 1413HK4    C3818638   5.015   2.245   4.376  0.0500  0.4337  0.0388
 1413HK4    H2018639   5.042   2.313   4.457  1.3907  0.6938 -0.6117
 1413HK4    C1418640   4.551   1.998   4.792  0.3303 -0.1546  0.4355
 1413HK4     C918641   4.483   2.089   4.874  0.3357 -0.1722  0.4611
 1413HK4     C818642   4.431   2.033   4.992  0.1714 -0.2679  0.3419
 1413HK4    C1118643   4.421   1.897   5.019 -0.3579 -0.2914  0.0249
 1413HK4     H418644   4.378   1.858   5.112 -1.2552  0.1529 -0.1979
 1413HK4    C1218645   4.488   1.809   4.935  0.0002 -0.0272  0.0350
 1413HK4     H518646   4.507   1.706   4.968 -0.0196  1.2397  4.3629
 1413HK4    C1318647   4.549   1.860   4.821 -0.2593 -0.2802 -0.2164
 1413HK4     H618648   4.598   1.786   4.756  1.8546  0.3340  0.6563
 1413HK4     C718649   4.370   2.126   5.091  0.0357  0.1940 -0.1717
 1413HK4     O218650   4.372   2.102   5.212 -0.0291 -0.3398 -0.2749
 1413HK4     C418651   4.331   2.263   5.051  0.5435  0.4943  0.3441
 1413HK4     C318652   4.253   2.335   5.141 -0.7093  0.2622 -0.5488
 1413HK4     H318653   4.200   2.286   5.224  2.6865 -2.1927  0.2877
 1413HK4     C218654   4.220   2.467   5.110  0.2637  0.8524  0.8994
 1413HK4     H218655   4.164   2.527   5.182 -0.0524  2.8879 -1.0215
 1413HK4     C118656   4.269   2.526   4.994 -0.1090 -0.1298  0.2342
 1413HK4     H118657   4.251   2.632   4.968 -0.8553 -0.8221 -2.2662
 1413HK4     C618658   4.352   2.457   4.903 -0.2630  0.2491 -0.1988
 1413HK4     C518659   4.375   2.322   4.931 -0.5194  0.2039 -0.2040
 1413HK4    C1018660   4.442   2.227   4.837 -0.6263 -0.4714  0.3911
 1413HK4     O118661   4.444   2.257   4.718  0.2044  0.1424  0.5488
 1413HK4    C1618662   4.434   2.547   4.822  0.9405 -0.4699  0.2060
 1413HK4    C1518663   4.500   2.664   4.866  0.3969 -0.0999  0.0468
 1413HK4     H718664   4.517   2.673   4.974  2.2611  0.2377 -0.2567
 1413HK4    C2018665   4.537   2.775   4.791  0.6103 -0.4536 -0.3736
 1413HK4     H918666   4.591   2.857   4.837 -0.8390  0.6730 -0.6375
 1413HK4    C1918667   4.503   2.775   4.656 -0.0418  0.4531 -0.2095
 1413HK4    C1818668   4.453   2.652   4.597  0.1799  0.0654  0.4174
 1413HK4    C1718669   4.417   2.550   4.684 -0.4086  0.2367  0.3762
 1413HK4     H818670   4.361   2.473   4.631 -2.7022  2.5621 -0.6610
 1413HK4     N118671   4.443   2.665   4.457  0.1848 -0.1277  0.3992
 1413HK4    C2118672   4.487   2.795   4.427  0.4499 -0.2965  0.0610
 1413HK4    C2218673   4.519   2.870   4.547 -0.7939  0.6330 -0.1737
 1413HK4    C2618674   4.592   2.988   4.543  0.2051  0.0323 -0.0739
 1413HK4    H1318675   4.630   3.027   4.637 -0.0770  0.7849 -0.2666
 1413HK4    C2518676   4.614   3.039   4.416 -0.5549 -0.0178 -0.2283
 1413HK4    H1218677   4.663   3.136   4.408 -0.6545  0.0268 -0.3091
 1413HK4    C2418678   4.585   2.976   4.295 -1.0988  0.2158 -0.2190
 1413HK4    H1118679   4.628   3.015   4.202 -0.0369 -0.3507  0.0303
 1413HK4    C2318680   4.530   2.849   4.306  0.4639 -0.4447 -0.0021
 1413HK4    H1018681   4.527   2.780   4.222 -1.6592 -0.3311 -0.0529
 1413HK4    C3918682   4.455   2.557   4.369  0.0171  0.5057 -0.4000
 1413HK4    C4118683   4.391   2.569   4.244 -0.1979  0.2951 -0.3099
 1413HK4    H2118684   4.306   2.640   4.244 -1.2167 -0.8461  2.6150
 1413HK4    C4218685   4.412   2.478   4.142  0.0600 -0.1625  0.1492
 1413HK4    H2218686   4.364   2.498   4.044  0.4840 -1.7205 -0.3825
 1413HK4    C4318687   4.505   2.377   4.162  0.3844  0.1269  0.1001
 1413HK4    H2318688   4.532   2.324   4.071 -3.9681 -1.4056 -0.3926
 1413HK4    C4418689   4.571   2.362   4.283 -0.3355 -0.6081  0.4033
 1413HK4    H2418690   4.634   2.272   4.294  0.9699  0.0047 -1.7573
 1413HK4    C4518691   4.543   2.449   4.388 -0.0877  0.4236 -0.3746
 1413HK4    H2518692   4.586   2.430   4.488 -1.4041  2.0421  0.5016
 1414HK4    H2818693   9.872  10.116   4.711 -2.7129  1.6501  1.0372
 1414HK4    C4818694   9.869  10.054   4.801  0.2061  0.0077  0.0806
 1414HK4    C4718695   9.872  10.099   4.933  0.0996  0.7650 -0.1706
 1414HK4    H2718696   9.900  10.203   4.956  2.0220  0.0569  0.8045
 1414HK4    C4618697   9.860  10.012   5.040  0.3996  0.0867 -0.6832
 1414HK4    H2618698   9.861  10.047   5.145  1.0638 -0.4222 -0.5117
 1414HK4    C4018699   9.842   9.873   5.022 -0.0960  0.0584 -0.0052
 1414HK4    C5018700   9.837   9.831   4.887  0.5985 -0.3259  0.0874
 1414HK4    H3018701   9.809   9.727   4.862  1.2709  0.1353 -2.7729
 1414HK4    C4918702   9.851   9.918   4.780  0.2870 -0.0336  0.2844
 1414HK4    H2918703   9.812   9.885   4.683  0.4674  2.1403 -0.5581
 1414HK4     N218704   9.888   9.787   5.122 -0.4320 -0.2001 -0.0742
 1414HK4    C3018705   9.996   9.815   5.208 -0.4113  0.0337 -0.1763
 1414HK4    C2918706  10.114   9.882   5.178 -0.2355 -0.0987  0.2248
 1414HK4    H1518707  10.116   9.917   5.075  0.1478  2.3711  1.0387
 1414HK4    C2818708  10.221   9.883   5.267  0.0505 -0.2747 -0.1144
 1414HK4    C2718709  10.196   9.828   5.395  0.3854 -0.4551 -0.1276
 1414HK4    H1418710  10.265   9.849   5.478 -1.0620  0.3935  0.8923
 1414HK4    C3218711  10.083   9.753   5.425 -0.0020  0.1276 -0.1260
 1414HK4    H1618712  10.085   9.702   5.521 -0.5328  0.1192 -0.1175
 1414HK4    C3118713   9.986   9.733   5.327  0.2688 -0.2636 -0.3219
 1414HK4    C3418714   9.872   9.645   5.311 -0.1795  0.2526  0.0138
 1414HK4    C3318715   9.814   9.683   5.184 -0.5900  0.0338  0.1339
 1414HK4    C3518716   9.717   9.603   5.126 -0.0922 -0.2847 -0.2551
 1414HK4    H1718717   9.660   9.637   5.040  0.1407 -1.0472 -0.7242
 1414HK4    C3618718   9.696   9.472   5.169 -0.2364 -0.0640  0.3278
 1414HK4    H1818719   9.602   9.425   5.138 -0.6052  1.5035 -1.0291
 1414HK4    C3718720   9.758   9.432   5.287 -0.1168  0.1323  0.3332
 1414HK4    H1918721   9.755   9.327   5.318  1.2846 -0.3449 -1.0256
 1414HK4    C3818722   9.837   9.519   5.360  0.6920 -0.0944 -0.2661
 1414HK4    H2018723   9.857   9.498   5.465 -0.3366  1.2899  0.2233
 1414HK4    C1418724  10.356   9.918   5.220 -0.0631 -0.3424 -0.4916
 1414HK4     C918725  10.473   9.902   5.295 -0.4835  0.1781  0.2810
 1414HK4     C818726  10.588   9.982   5.277 -0.2467 -0.2358 -0.0797
 1414HK4    C1118727  10.590  10.066   5.167  0.0841 -0.2983 -0.1191
 1414HK4     H418728  10.666  10.146   5.161  1.1009 -1.2077  0.4226
 1414HK4    C1218729  10.485  10.065   5.076  0.2094  1.1550 -0.2944
 1414HK4     H518730  10.498  10.123   4.983 -0.5438 -2.0205 -2.4715
 1414HK4    C1318731  10.371   9.990   5.100  0.6458  0.6334  0.1700
 1414HK4     H618732  10.287   9.982   5.029 -1.2896 -2.0982  2.6486
 1414HK4     C718733  10.691   9.997   5.382 -0.4371  0.2517  0.0363
 1414HK4     O218734  10.799  10.049   5.356 -0.2719  0.0076  0.2380
 1414HK4     C418735  10.669   9.927   5.511  0.1844 -0.0092  0.0028
 1414HK4     C318736  10.735   9.964   5.628  0.1933  0.2846 -0.0968
 1414HK4     H318737  10.784  10.063   5.623 -0.5740  0.5874 -2.1396
 1414HK4     C218738  10.725   9.889   5.744 -0.1178  0.1070 -0.2377
 1414HK4     H218739  10.765   9.933   5.836 -0.5858 -0.5957  0.3078
 1414HK4     C118740  10.661   9.767   5.726 -0.7594  0.3532  0.3692
 1414HK4     H118741  10.627   9.710   5.814  1.3688 -0.5010  0.6585
 1414HK4     C618742  10.614   9.714   5.603  0.3179  0.0753  0.0695
 1414HK4     C518743  10.599   9.805   5.498 -0.0786  0.1216  0.1696
 1414HK4    C1018744  10.492   9.793   5.395 -0.3119  0.3069  0.3912
 1414HK4     O118745  10.443   9.681   5.379 -0.2851  0.3626 -0.0749
 1414HK4    C1618746  10.602   9.568   5.595  0.1445  0.0714  0.3276
 1414HK4    C1518747  10.553   9.493   5.703 -0.1013 -0.0908  0.1035
 1414HK4     H718748  10.460   9.534   5.745 -0.4211 -0.5377 -0.1675
 1414HK4    C2018749  10.602   9.365   5.726 -0.3744 -0.2203 -0.0119
 1414HK4     H918750  10.559   9.301   5.803  0.7300  0.2091  0.9706
 1414HK4    C1918751  10.698   9.305   5.646 -0.3318  0.0094 -0.1346
 1414HK4    C1818752  10.733   9.374   5.524 -0.6577 -0.4314 -0.4795
 1414HK4    C1718753  10.685   9.503   5.504  0.2054  0.0353  0.4116
 1414HK4     H818754  10.722   9.567   5.424  3.3272  1.2939  2.7991
 1414HK4     N118755  10.839   9.314   5.454 -0.0279  0.1751 -0.0526
 1414HK4    C2118756  10.864   9.198   5.530 -0.2088  0.1955  0.0410
 1414HK4    C2218757  10.785   9.189   5.651 -0.1843  0.1314  0.0523
 1414HK4    C2618758  10.822   9.102   5.753 -0.0929 -0.1305 -0.2030
 1414HK4    H1318759  10.739   9.084   5.822 -0.6953 -1.2673 -1.1969
 1414HK4    C2518760  10.936   9.024   5.735 -0.5792 -0.7624 -0.5787
 1414HK4    H1218761  10.974   8.969   5.822 -0.1746 -2.3597 -1.7487
 1414HK4    C2418762  11.006   9.025   5.615 -0.6153  0.2414 -0.5925
 1414HK4    H1118763  11.091   8.956   5.607  0.1237  1.0718 -0.0396
 1414HK4    C2318764  10.968   9.107   5.510 -0.7852 -0.2573 -0.9154
 1414HK4    H1018765  11.024   9.095   5.417  1.8001  0.5154  0.5132
 1414HK4    C3918766  10.854   9.316   5.315 -0.2089  0.5040 -0.0674
 1414HK4    C4118767  10.984   9.311   5.260 -0.1416 -0.3167  0.1598
 1414HK4    H2118768  11.075   9.337   5.316  1.2222  0.2748 -2.2766
 1414HK4    C4218769  11.000   9.283   5.125 -0.3969  0.0066  0.0620
 1414HK4    H2218770  11.097   9.259   5.078 -0.7296  0.8134 -1.0418
 1414HK4    C4318771  10.895   9.249   5.041 -0.1750 -0.0199 -0.2063
 1414HK4    H2318772  10.915   9.226   4.936  3.2269  0.5782  0.2545
 1414HK4    C4418773  10.767   9.260   5.094 -0.1328  0.2809 -0.1703
 1414HK4    H2418774  10.680   9.233   5.031  0.2779  2.6095 -1.7976
 1414HK4    C4518775  10.746   9.290   5.228 -0.0372 -0.6602  0.0585
 1414HK4    H2518776  10.641   9.308   5.257 -0.0900 -2.1052  0.8496
 1415HK4    H2818777   0.277   3.774   9.148 -0.7588 -0.7707  0.4702
 1415HK4    C4818778   0.352   3.740   9.220 -0.0808 -0.0835  0.1022
 1415HK4    C4718779   0.478   3.698   9.179 -0.0055 -0.0851  0.3330
 1415HK4    H2718780   0.499   3.696   9.072 -0.5049  0.3520  0.2248
 1415HK4    C4618781   0.570   3.649   9.272  0.1189 -0.4700  0.0112
 1415HK4    H2618782   0.672   3.638   9.232 -0.0169 -0.9409 -0.2057
 1415HK4    C4018783   0.535   3.641   9.408 -0.3831 -0.0802 -0.0882
 1415HK4    C5018784   0.407   3.686   9.446  0.0777  0.7356  0.5217
 1415HK4    H3018785   0.392   3.684   9.555 -0.5354 -1.6693  0.4118
 1415HK4    C4918786   0.314   3.732   9.354  0.1136  0.0914  0.1667
 1415HK4    H2918787   0.227   3.790   9.387 -1.0322 -0.3426 -1.9667
 1415HK4     N218788   0.620   3.576   9.499 -0.2882 -0.0277 -0.1400
 1415HK4    C3018789   0.636   3.612   9.635 -0.0479  0.3264 -0.2595
 1415HK4    C2918790   0.618   3.734   9.697 -0.0488  0.2343 -0.0823
 1415HK4    H1518791   0.590   3.819   9.634 -0.3795 -1.1150 -1.7805
 1415HK4    C2818792   0.626   3.746   9.835 -0.9624 -0.1342  0.0091
 1415HK4    C2718793   0.666   3.634   9.911 -0.0075  0.3401  0.2083
 1415HK4    H1418794   0.649   3.632  10.019 -0.6004  3.1136  0.2145
 1415HK4    C3218795   0.698   3.511   9.854 -0.5988  0.4427 -0.3573
 1415HK4    H1618796   0.730   3.426   9.915  0.9160  0.5653 -0.9470
 1415HK4    C3118797   0.679   3.500   9.717 -0.1352  0.1846 -0.4048
 1415HK4    C3418798   0.695   3.390   9.625  1.3570 -0.0380  0.1118
 1415HK4    C3318799   0.655   3.439   9.495  0.5163  0.1623  0.4425
 1415HK4    C3518800   0.639   3.350   9.389  0.3022  0.2958  0.3636
 1415HK4    H1718801   0.568   3.377   9.311  2.0757  0.0266 -1.3832
 1415HK4    C3618802   0.674   3.217   9.403  0.1953  0.1854 -0.3962
 1415HK4    H1818803   0.643   3.144   9.326 -3.6417  1.4584 -0.1383
 1415HK4    C3718804   0.722   3.172   9.526 -0.0138 -0.2496 -0.4711
 1415HK4    H1918805   0.774   3.076   9.522  2.9805  1.3527 -2.5621
 1415HK4    C3818806   0.733   3.256   9.636 -0.4828 -0.5894 -0.1682
 1415HK4    H2018807   0.783   3.216   9.724  0.3422  1.1059  0.1538
 1415HK4    C1418808   0.629   3.879   9.898  0.0179 -0.2449  0.2013
 1415HK4     C918809   0.714   3.910  10.005 -0.0102 -0.5753  0.3195
 1415HK4     C818810   0.680   4.015  10.092  0.5670  0.3172 -0.5273
 1415HK4    C1118811   0.563   4.089  10.077  0.6907  0.5163 -0.5261
 1415HK4     H418812   0.522   4.151  10.157  0.5412 -0.1107 -0.1110
 1415HK4    C1218813   0.480   4.065   9.967 -0.0390 -0.1923  0.1727
 1415HK4     H518814   0.386   4.117   9.947  1.3207  1.9727 -0.7326
 1415HK4    C1318815   0.515   3.961   9.882  0.3171  0.1214 -0.0668
 1415HK4     H618816   0.456   3.942   9.791  0.7318 -2.2790  0.1312
 1415HK4     C718817   0.756   4.038  10.217  0.0846  0.2266 -0.2199
 1415HK4     O218818   0.747   4.149  10.269 -0.0003 -0.1197  0.5151
 1415HK4     C418819   0.857   3.938  10.260 -0.3014 -0.0832 -0.0284
 1415HK4     C318820   0.900   3.942  10.392 -0.2258  0.2196 -0.0621
 1415HK4     H318821   0.881   4.028  10.459 -0.8206 -1.2064  1.6476
 1415HK4     C218822   0.983   3.838  10.432 -0.2117 -0.0371 -0.7526
 1415HK4     H218823   1.018   3.826  10.536 -2.4237  3.5826  0.5104
 1415HK4     C118824   1.019   3.743  10.337  0.5218 -0.2552 -0.2639
 1415HK4     H118825   1.094   3.668  10.368  0.1798 -0.5686 -0.1888
 1415HK4     C618826   0.980   3.733  10.202  0.3782  0.0513 -0.2471
 1415HK4     C518827   0.898   3.840  10.168 -0.1329 -0.2058  0.1764
 1415HK4    C1018828   0.842   3.837  10.030  0.0712 -0.5088  0.1003
 1415HK4     O118829   0.918   3.843   9.933 -0.3802 -0.1559 -0.2391
 1415HK4    C1618830   0.973   3.598  10.144  0.3204 -0.1326  0.1860
 1415HK4    C1518831   0.908   3.498  10.219 -0.3250  0.2962  0.1955
 1415HK4     H718832   0.836   3.536  10.294 -0.3047  1.5929 -0.4194
 1415HK4    C2018833   0.929   3.366  10.181  0.6561  0.4356  0.2596
 1415HK4     H918834   0.924   3.291  10.260  1.0216 -1.5877 -1.6185
 1415HK4    C1918835   0.991   3.337  10.060  0.5000 -0.0214  0.2887
 1415HK4    C1818836   1.051   3.441   9.979  0.0131 -0.1865 -0.2839
 1415HK4    C1718837   1.043   3.571  10.027  0.3303 -0.3628  0.2426
 1415HK4     H818838   1.091   3.656   9.978 -4.0855  2.9174  1.2882
 1415HK4     N118839   1.111   3.400   9.858  0.5426  0.1151 -0.1278
 1415HK4    C2118840   1.081   3.262   9.854 -0.0871  0.2399  0.2258
 1415HK4    C2218841   1.005   3.223   9.972  0.3646 -0.1238  0.3999
 1415HK4    C2618842   0.973   3.090   9.992  0.1315 -0.1612 -0.2259
 1415HK4    H1318843   0.940   3.057  10.090  0.3476 -1.0256 -0.4362
 1415HK4    C2518844   1.011   2.998   9.895  0.3980 -0.2866 -0.0016
 1415HK4    H1218845   0.971   2.897   9.892 -1.3652  0.4122 -0.5770
 1415HK4    C2418846   1.075   3.036   9.777 -0.5824  0.1558 -0.3981
 1415HK4    H1118847   1.114   2.964   9.704  0.4213  0.9323 -0.6348
 1415HK4    C2318848   1.115   3.168   9.758  0.0859  0.0788  0.4449
 1415HK4    H1018849   1.147   3.205   9.661 -1.3292  1.2580  0.4282
 1415HK4    C3918850   1.121   3.484   9.747 -0.3103  0.0996 -0.2235
 1415HK4    C4118851   1.212   3.447   9.646 -0.0826 -0.5677  0.2226
 1415HK4    H2118852   1.312   3.415   9.677  0.9547  0.0939 -2.3109
 1415HK4    C4218853   1.192   3.487   9.514 -0.1196  0.3881  0.5170
 1415HK4    H2218854   1.249   3.440   9.432 -0.8003  0.8233 -0.2067
 1415HK4    C4318855   1.093   3.578   9.480  0.2964  0.6362 -0.0407
 1415HK4    H2318856   1.101   3.633   9.386  1.0792 -0.2898 -0.5328
 1415HK4    C4418857   1.006   3.621   9.579  0.2997  0.5076  0.0164
 1415HK4    H2418858   0.933   3.699   9.551  0.0927  0.4655  0.4433
 1415HK4    C4518859   1.018   3.572   9.708  0.0434  0.6622  0.1011
 1415HK4    H2518860   0.938   3.584   9.783  0.7343 -1.6239  1.2520
 1416HK4    H2818861   4.604  10.392   4.041  0.1480  0.4698 -0.0698
 1416HK4    C4818862   4.660  10.317   4.096  0.1972  0.2367 -0.4327
 1416HK4    C4718863   4.616  10.186   4.082 -0.5722  0.4028  0.4017
 1416HK4    H2718864   4.556  10.149   3.998  0.9861 -4.2452  1.1935
 1416HK4    C4618865   4.657  10.094   4.179 -0.2114  0.4371  0.2804
 1416HK4    H2618866   4.599  10.001   4.173 -0.4017  0.6474 -1.6352
 1416HK4    C4018867   4.746  10.123   4.284 -0.2625  0.2941  0.3616
 1416HK4    C5018868   4.796  10.254   4.296  0.9515 -0.1196 -0.0614
 1416HK4    H3018869   4.836  10.287   4.394 -0.4969  2.4820 -0.2990
 1416HK4    C4918870   4.747  10.343   4.201 -0.0828 -0.5928  0.0153
 1416HK4    H2918871   4.772  10.450   4.210 -1.9886 -0.0161 -1.3358
 1416HK4     N218872   4.766  10.039   4.394  0.1865 -0.4216 -0.2676
 1416HK4    C3018873   4.681   9.939   4.445 -0.5925  0.4880  0.2225
 1416HK4    C2918874   4.545   9.917   4.431 -0.3878 -0.7422  0.0903
 1416HK4    H1518875   4.484   9.977   4.362 -0.3265 -0.4595  0.2835
 1416HK4    C2818876   4.484   9.809   4.493 -0.3264 -0.6809  0.2561
 1416HK4    C2718877   4.556   9.729   4.585  0.2548 -0.0016  0.3892
 1416HK4    H1418878   4.505   9.642   4.627  0.1150  1.1022  2.6037
 1416HK4    C3218879   4.691   9.751   4.609  0.1391  0.2206  0.8419
 1416HK4    H1618880   4.744   9.695   4.687 -0.0259 -1.3022 -0.1197
 1416HK4    C3118881   4.753   9.852   4.537 -0.5707 -0.3401 -0.5720
 1416HK4    C3418882   4.889   9.902   4.546 -0.5710 -0.4417  0.0092
 1416HK4    C3318883   4.889  10.019   4.460 -0.0481 -0.3019  0.1982
 1416HK4    C3518884   5.013  10.075   4.433  0.0169 -0.5670 -0.0507
 1416HK4    H1718885   5.026  10.140   4.346 -0.0743 -0.0414  0.3309
 1416HK4    C3618886   5.133  10.035   4.490  0.3025 -0.6104 -0.6778
 1416HK4    H1818887   5.225  10.084   4.454  0.4504  0.0993  0.6207
 1416HK4    C3718888   5.128   9.919   4.565  0.0534 -0.2938 -0.2025
 1416HK4    H1918889   5.225   9.883   4.601  0.5073 -1.0862 -2.1382
 1416HK4    C3818890   5.009   9.853   4.595 -0.1936  0.0538 -0.4202
 1416HK4    H2018891   5.002   9.793   4.686 -0.7287 -0.2962 -0.6955
 1416HK4    C1418892   4.337   9.799   4.501 -0.4510  0.5562 -0.5176
 1416HK4     C918893   4.265   9.804   4.621 -0.1139  0.5743 -0.3162
 1416HK4     C818894   4.137   9.747   4.628  0.2448 -0.1850  0.1379
 1416HK4    C1118895   4.084   9.672   4.524  0.0574  0.3703 -0.1691
 1416HK4     H418896   4.016   9.589   4.549  0.1127 -0.2782 -2.0586
 1416HK4    C1218897   4.158   9.664   4.407  0.2744  0.0659 -0.0145
 1416HK4     H518898   4.134   9.587   4.332  0.2559  0.8992 -0.8730
 1416HK4    C1318899   4.280   9.730   4.392 -0.0181  0.4553 -0.6797
 1416HK4     H618900   4.316   9.745   4.289  0.6507  2.2737 -0.2039
 1416HK4     C718901   4.065   9.752   4.758 -0.2352  0.9060 -0.1639
 1416HK4     O218902   3.948   9.716   4.757  0.0400 -0.0132 -0.1598
 1416HK4     C418903   4.128   9.809   4.879 -0.0111  0.1211  0.0929
 1416HK4     C318904   4.046   9.825   4.990 -0.1238  0.5238 -0.0440
 1416HK4     H318905   3.953   9.766   4.992 -1.5163  2.7214  1.3252
 1416HK4     C218906   4.099   9.887   5.103 -0.1914  0.2795  0.1240
 1416HK4     H218907   4.031   9.913   5.185  1.8300  1.2675  1.5091
 1416HK4     C118908   4.233   9.921   5.108 -0.1907  0.2875  0.0685
 1416HK4     H118909   4.273   9.933   5.210 -1.0873  1.2951  0.3064
 1416HK4     C618910   4.316   9.902   4.996 -0.0747  0.3477  0.1451
 1416HK4     C518911   4.259   9.861   4.874 -0.0364  0.1940  0.1792
 1416HK4    C1018912   4.320   9.876   4.739  0.6120 -1.0023  0.3261
 1416HK4     O118913   4.369   9.987   4.718 -0.0860 -0.6616  0.4755
 1416HK4    C1618914   4.459   9.929   5.013  0.0516  0.0391 -0.3979
 1416HK4    C1518915   4.554   9.878   4.922  0.6022 -0.1916  0.2998
 1416HK4     H718916   4.545   9.775   4.883 -1.9647  0.1913 -0.2060
 1416HK4    C2018917   4.679   9.936   4.904  0.3743  0.2601  0.1908
 1416HK4     H918918   4.756   9.900   4.836 -0.9105  1.8807 -2.2481
 1416HK4    C1918919   4.721  10.042   4.983 -0.0636  0.2618  0.4225
 1416HK4    C1818920   4.632  10.073   5.094 -0.5163  0.1024  0.1084
 1416HK4    C1718921   4.500  10.029   5.100 -0.3794 -0.2973  0.1989
 1416HK4     H818922   4.430  10.082   5.165 -1.2512  0.7423 -1.5426
 1416HK4     N118923   4.695  10.158   5.187 -0.0044  0.0539 -0.1915
 1416HK4    C2118924   4.829  10.165   5.142  0.1237  0.3272  0.2232
 1416HK4    C2218925   4.847  10.108   5.010 -0.0102  0.2288  0.2460
 1416HK4    C2618926   4.974  10.091   4.955 -0.1513 -0.2842  0.0697
 1416HK4    H1318927   4.976  10.042   4.858  1.1511  0.1176 -0.1071
 1416HK4    C2518928   5.088  10.122   5.029  0.0564 -0.6840 -0.0847
 1416HK4    H1218929   5.187  10.117   4.985  0.4631  0.3124  0.7086
 1416HK4    C2418930   5.070  10.188   5.150 -0.1606 -0.0737 -0.4483
 1416HK4    H1118931   5.160  10.235   5.192  0.6820  1.7661 -4.0674
 1416HK4    C2318932   4.944  10.207   5.207  0.1635  0.3545  0.1321
 1416HK4    H1018933   4.937  10.258   5.302  1.1580 -0.4368  0.6479
 1416HK4    C3918934   4.628  10.252   5.267 -0.5594 -0.6443  0.1704
 1416HK4    C4118935   4.677  10.296   5.392 -0.8472 -0.1163  0.1008
 1416HK4    H2118936   4.765  10.246   5.435 -0.6840 -1.1131 -1.3323
 1416HK4    C4218937   4.618  10.405   5.455  0.0921  0.1841  0.4663
 1416HK4    H2218938   4.644  10.424   5.560 -0.4847 -2.3504  1.1193
 1416HK4    C4318939   4.510  10.474   5.403  0.2832 -0.0457 -0.2532
 1416HK4    H2318940   4.475  10.566   5.451  2.9172  2.4168 -2.8264
 1416HK4    C4418941   4.461  10.431   5.280 -0.0844  0.1290 -0.1698
 1416HK4    H2418942   4.368  10.472   5.239 -0.0047  0.0829 -0.3980
 1416HK4    C4518943   4.521  10.325   5.212  0.2451  0.3087 -0.1597
 1416HK4    H2518944   4.480  10.306   5.112 -0.1282  2.6320 -0.4839
 1417HK4    H2818945   4.342  10.717  11.089  0.4458  0.1591  0.9190
 1417HK4    C4818946   4.446  10.710  11.056  0.2954 -0.0246  0.4807
 1417HK4    C4718947   4.525  10.816  11.014 -0.4971  0.1813 -0.4941
 1417HK4    H2718948   4.472  10.911  11.030  1.2727  1.0181  0.5242
 1417HK4    C4618949   4.638  10.798  10.936 -0.0173  0.0855  0.2159
 1417HK4    H2618950   4.704  10.884  10.914  0.5505 -0.0147  1.4670
 1417HK4    C4018951   4.690  10.671  10.903 -0.2417 -0.0218  0.2868
 1417HK4    C5018952   4.615  10.566  10.960 -0.1207 -0.1308  0.2475
 1417HK4    H3018953   4.667  10.469  10.969  1.0950  0.4363 -0.4978
 1417HK4    C4918954   4.494  10.583  11.026 -0.0146 -0.1346  0.4403
 1417HK4    H2918955   4.440  10.496  11.067  2.5056 -1.9983 -0.0440
 1417HK4     N218956   4.804  10.642  10.828 -0.6024  0.0765 -0.2975
 1417HK4    C3018957   4.932  10.699  10.845 -0.5497 -0.2076  0.2572
 1417HK4    C2918958   4.988  10.773  10.949 -0.1912 -0.1943  0.0525
 1417HK4    H1518959   4.919  10.819  11.019 -0.7180  0.7439 -1.0684
 1417HK4    C2818960   5.126  10.787  10.961 -0.2924  0.3042  0.6406
 1417HK4    C2718961   5.210  10.733  10.862 -0.3437  0.3923  0.5499
 1417HK4    H1418962   5.319  10.748  10.867 -0.2054 -0.3313 -0.0769
 1417HK4    C3218963   5.156  10.664  10.754 -0.0552  0.7518  0.1716
 1417HK4    H1618964   5.221  10.627  10.675  0.1182  0.3866  0.4804
 1417HK4    C3118965   5.018  10.655  10.738 -0.0585  0.1699  0.4942
 1417HK4    C3418966   4.932  10.586  10.643  0.4939 -0.0297  0.1377
 1417HK4    C3318967   4.800  10.579  10.702  0.3509 -0.1776 -0.2033
 1417HK4    C3518968   4.688  10.522  10.642  0.0159  0.2380  0.0259
 1417HK4    H1718969   4.589  10.520  10.689  1.3734 -0.3467  2.9750
 1417HK4    C3618970   4.723  10.469  10.518 -0.2396 -0.3293  0.1965
 1417HK4    H1818971   4.644  10.415  10.463 -0.8045 -0.1111  0.7703
 1417HK4    C3718972   4.844  10.474  10.451 -0.3411  0.2207  0.0591
 1417HK4    H1918973   4.864  10.456  10.345 -0.6394  1.7570 -0.2705
 1417HK4    C3818974   4.949  10.541  10.513  0.0884 -0.6692  0.3018
 1417HK4    H2018975   5.043  10.570  10.465  0.0513 -1.5080 -0.2966
 1417HK4    C1418976   5.178  10.898  11.042  0.5893  0.0164  0.4739
 1417HK4     C918977   5.274  10.991  10.998  0.1695 -0.1032 -0.7171
 1417HK4     C818978   5.355  11.063  11.088 -0.3595 -0.5172  0.0956
 1417HK4    C1118979   5.318  11.057  11.223  0.4653  0.1961  0.3566
 1417HK4     H418980   5.389  11.090   0.052  2.8673 -0.8541 -1.3309
 1417HK4    C1218981   5.219  10.972   0.021 -0.0434  0.2808 -0.5556
 1417HK4     H518982   5.196  10.966   0.129  2.7529 -1.5440 -0.0208
 1417HK4    C1318983   5.151  10.890  11.180 -0.2644 -0.4550  0.2790
 1417HK4     H618984   5.075  10.816  11.210 -0.3855 -1.0407 -1.4206
 1417HK4     C718985   5.467  11.148  11.041 -0.2095 -0.6309  0.2479
 1417HK4     O218986   5.518  11.233  11.114 -0.0934 -0.3867 -0.1219
 1417HK4     C418987   5.492  11.150  10.896 -0.0787 -0.1582  0.2744
 1417HK4     C318988   5.611  11.200  10.845 -0.2326  0.1868  0.2626
 1417HK4     H318989   5.695  11.211  10.916 -0.6464 -0.4522  0.8555
 1417HK4     C218990   5.625  11.235  10.711  0.4521 -0.2633  0.2139
 1417HK4     H218991   5.725  11.246  10.666  0.1693  0.8312 -0.1602
 1417HK4     C118992   5.511  11.244  10.633  0.3011 -0.6935  0.3868
 1417HK4     H118993   5.501   0.039  10.532 -0.4535 -1.6809  0.0259
 1417HK4     C618994   5.388  11.195  10.683 -0.1920 -0.4130 -0.5554
 1417HK4     C518995   5.381  11.136  10.810  0.3727 -0.0136 -0.3347
 1417HK4    C1018996   5.269  11.054  10.863 -0.2257  0.8246 -0.2804
 1417HK4     O118997   5.158  11.052  10.811 -0.3570 -0.1529  0.0212
 1417HK4    C1618998   5.272   0.001  10.610 -0.3021 -0.0451 -0.1104
 1417HK4    C1518999   5.270   0.139  10.579  0.2215 -0.1344 -0.5463
 1417HK4     H719000   5.337   0.200  10.641  0.4707 -1.1930  0.2574
 1417HK4    C2019001   5.183   0.200  10.491  0.2368  0.2796 -0.2714
 1417HK4     H919002   5.195   0.306  10.465 -2.4349  0.3887 -1.2844
 1417HK4    C1919003   5.092   0.121  10.421  0.0371  0.1385  0.1486
 1417HK4    C1819004   5.080  11.231  10.466 -0.3198  0.2236  0.3202
 1417HK4    C1719005   5.175  11.171  10.547  0.3549 -0.2854 -0.8351
 1417HK4     H819006   5.175  11.063  10.561 -1.4139 -0.0867  0.9099
 1417HK4     N119007   4.967  11.169  10.409 -0.1125 -0.1051  0.2705
 1417HK4    C2119008   4.916   0.017  10.319 -0.2322 -0.1733  0.2674
 1417HK4    C2219009   4.981   0.146  10.332 -0.0515 -0.2524  0.1497
 1417HK4    C2619010   4.936   0.257  10.262  0.1233 -0.2319  0.0701
 1417HK4    H1319011   5.008   0.339  10.253  0.4420 -0.4216  0.8904
 1417HK4    C2519012   4.825   0.246  10.178  0.2745 -0.0843 -0.1504
 1417HK4    H1219013   4.797   0.330  10.114 -2.6728 -0.5390  0.4664
 1417HK4    C2419014   4.761   0.124  10.165 -0.1722  0.1420 -0.0715
 1417HK4    H1119015   4.655   0.125  10.134 -0.8177 -2.0965  1.8379
 1417HK4    C2319016   4.807   0.011  10.232 -0.0887  0.2538  0.0547
 1417HK4    H1019017   4.760  11.162  10.219 -0.8611  0.8610 -1.7595
 1417HK4    C3919018   4.890  11.072  10.475 -0.1320 -0.2617  0.0156
 1417HK4    C4119019   4.793  10.992  10.410 -0.4464  0.3079 -0.2178
 1417HK4    H2119020   4.803  10.974  10.302 -1.0922  1.1519 -0.4237
 1417HK4    C4219021   4.698  10.920  10.480  0.0400  0.6364  0.7897
 1417HK4    H2219022   4.626  10.853  10.431  1.0689  1.5492 -2.0734
 1417HK4    C4319023   4.684  10.936  10.618 -0.1231 -0.4178  0.8978
 1417HK4    H2319024   4.585  10.919  10.661 -0.2551 -1.9468  0.0589
 1417HK4    C4419025   4.774  11.019  10.682  0.3059 -0.0888 -0.1096
 1417HK4    H2419026   4.745  11.071  10.775  1.9203  0.8511 -0.1167
 1417HK4    C4519027   4.881  11.077  10.615  0.3591 -0.0147  0.0417
 1417HK4    H2519028   4.945  11.137  10.682 -0.3129 -2.1361  2.6927
 1418HK4    H2819029   6.328   3.539   4.765 -1.3815 -1.1296  0.6475
 1418HK4    C4819030   6.338   3.586   4.863 -0.1392  0.1167 -0.0634
 1418HK4    C4719031   6.233   3.549   4.947 -0.5906 -0.0329 -0.6889
 1418HK4    H2719032   6.170   3.461   4.926  1.4623 -1.5553 -0.6687
 1418HK4    C4619033   6.221   3.620   5.065 -0.2204  0.2235 -0.8047
 1418HK4    H2619034   6.161   3.575   5.145  1.0889  0.0859  0.1169
 1418HK4    C4019035   6.304   3.730   5.100  0.2954 -0.4766  0.2011
 1418HK4    C5019036   6.405   3.765   5.008  0.0206 -0.7858 -0.2253
 1418HK4    H3019037   6.488   3.833   5.031  0.5268 -0.3384 -3.2280
 1418HK4    C4919038   6.422   3.693   4.890  0.0748  0.1355 -0.7782
 1418HK4    H2919039   6.511   3.710   4.828  1.5231  0.2649  1.2621
 1418HK4     N219040   6.265   3.826   5.194  0.1111 -0.4375  0.0853
 1418HK4    C3019041   6.135   3.871   5.225  0.2479  0.5692 -0.7571
 1418HK4    C2919042   6.012   3.824   5.179  0.1166 -0.4268  0.5865
 1418HK4    H1519043   6.002   3.776   5.082  0.9078 -1.5034  1.0288
 1418HK4    C2819044   5.891   3.858   5.239 -0.0080 -0.0679  0.1296
 1418HK4    C2719045   5.900   3.949   5.346  0.1640  0.4594 -0.3281
 1418HK4    H1419046   5.814   3.944   5.415  0.4006 -1.4265 -0.1374
 1418HK4    C3219047   6.015   4.020   5.378  0.1890  0.1680  0.2475
 1418HK4    H1619048   6.029   4.068   5.475  1.9404  3.0907 -1.3681
 1418HK4    C3119049   6.134   3.982   5.318  0.0102 -0.1257  0.0786
 1418HK4    C3419050   6.275   4.008   5.342  0.1203 -0.5001 -0.1637
 1418HK4    C3319051   6.351   3.907   5.270  0.2771 -0.4042 -0.1344
 1418HK4    C3519052   6.486   3.895   5.298  0.2039  0.2804  0.5185
 1418HK4    H1719053   6.548   3.833   5.233 -1.2074  0.4460 -1.0023
 1418HK4    C3619054   6.547   3.972   5.397  0.6158  0.6419 -0.0116
 1418HK4    H1819055   6.657   3.973   5.406  0.6175 -2.3122  1.1459
 1418HK4    C3719056   6.470   4.061   5.471  0.1130  0.0164  0.2201
 1418HK4    H1919057   6.506   4.110   5.561 -0.4144 -1.2690  1.1667
 1418HK4    C3819058   6.334   4.079   5.446  0.1727 -0.2933 -0.3340
 1418HK4    H2019059   6.276   4.129   5.523  1.5200  0.8106 -0.0178
 1418HK4    C1419060   5.759   3.809   5.198 -0.0202  0.1630 -0.1039
 1418HK4     C919061   5.633   3.867   5.219 -0.0423  0.2683 -0.5282
 1418HK4     C819062   5.516   3.793   5.193 -0.1840  0.3249 -0.0382
 1418HK4    C1119063   5.523   3.666   5.136  0.2798  0.5507 -0.4813
 1418HK4     H419064   5.429   3.621   5.099 -0.0289 -0.9155  2.0050
 1418HK4    C1219065   5.646   3.613   5.102 -0.1294 -0.5620 -0.2334
 1418HK4     H519066   5.650   3.528   5.032 -0.4906 -0.4518 -0.3847
 1418HK4    C1319067   5.762   3.682   5.137 -0.5934  0.0632  0.0689
 1418HK4     H619068   5.853   3.622   5.145 -0.5739 -0.0013 -0.5404
 1418HK4     C719069   5.387   3.835   5.254 -0.1882 -0.1777  0.3047
 1418HK4     O219070   5.285   3.769   5.240  0.0375 -0.5098  0.2096
 1418HK4     C419071   5.382   3.959   5.335  0.5260 -0.4020  0.7026
 1418HK4     C319072   5.272   3.988   5.416 -0.3379 -0.2351 -0.5179
 1418HK4     H319073   5.181   3.929   5.401 -0.3925 -0.4291  0.5236
 1418HK4     C219074   5.263   4.091   5.509  0.4603 -0.6745  0.0537
 1418HK4     H219075   5.186   4.113   5.585  1.1961 -0.3383  0.7085
 1418HK4     C119076   5.366   4.184   5.497 -0.3524  0.2286 -0.0269
 1418HK4     H119077   5.344   4.267   5.566 -0.7204  0.4803 -0.4448
 1418HK4     C619078   5.478   4.165   5.413 -0.3440  0.1645  0.0007
 1418HK4     C519079   5.489   4.050   5.334  0.0082  0.1929  0.0052
 1418HK4    C1019080   5.610   4.008   5.259  0.2686  0.0202  0.5216
 1418HK4     O119081   5.663   4.094   5.188 -0.0436 -0.4901 -0.3330
 1418HK4    C1619082   5.591   4.255   5.440  0.0401 -0.3782  0.1889
 1418HK4    C1519083   5.638   4.277   5.571  0.4603  0.2122 -0.0555
 1418HK4     H719084   5.621   4.200   5.648  0.7860  0.1945 -0.0040
 1418HK4    C2019085   5.718   4.388   5.594 -0.1265  0.5831  0.2148
 1418HK4     H919086   5.748   4.403   5.698 -0.1512 -2.2780  0.6664
 1418HK4    C1919087   5.766   4.462   5.487 -0.2420  0.3301 -0.0127
 1418HK4    C1819088   5.720   4.442   5.351 -0.3839  0.0259  0.0821
 1418HK4    C1719089   5.628   4.339   5.335 -0.3525 -0.0387  0.3210
 1418HK4     H819090   5.590   4.318   5.235  0.9246  0.2664 -0.2354
 1418HK4     N119091   5.790   4.530   5.266 -0.1810 -0.1883  0.0252
 1418HK4    C2119092   5.884   4.597   5.347 -0.0485 -0.4114  0.0578
 1418HK4    C2219093   5.879   4.553   5.485  0.6551 -0.7680 -0.0279
 1418HK4    C2619094   5.986   4.575   5.570  0.5396 -0.2997 -0.0005
 1418HK4    H1319095   5.972   4.550   5.675  0.9272  3.1833  0.9453
 1418HK4    C2519096   6.095   4.652   5.530  0.0717  0.2101 -0.2963
 1418HK4    H1219097   6.184   4.660   5.592 -0.1723  2.5374 -0.1832
 1418HK4    C2419098   6.100   4.699   5.399 -0.0692  0.2673 -0.2799
 1418HK4    H1119099   6.195   4.730   5.354 -0.6170  0.1410 -1.5286
 1418HK4    C2319100   5.996   4.671   5.312 -0.1773 -0.2372  0.0078
 1418HK4    H1019101   5.999   4.735   5.223 -3.5609  0.3576  0.2687
 1418HK4    C3919102   5.826   4.508   5.133 -0.2500 -0.1198 -0.0052
 1418HK4    C4119103   5.860   4.614   5.046 -0.0279 -0.0081  0.2182
 1418HK4    H2119104   5.833   4.718   5.067 -0.9338 -0.4886  1.5431
 1418HK4    C4219105   5.903   4.588   4.916  0.0670  0.0491  0.2367
 1418HK4    H2219106   5.940   4.665   4.847  0.5708 -1.4343 -1.1780
 1418HK4    C4319107   5.907   4.458   4.868 -0.9266 -0.0681  0.4529
 1418HK4    H2319108   5.960   4.435   4.775 -0.5256  0.6598  0.4943
 1418HK4    C4419109   5.873   4.351   4.951 -0.5959 -0.2687  0.3324
 1418HK4    H2419110   5.867   4.252   4.903 -0.7440 -1.0737  1.9872
 1418HK4    C4519111   5.834   4.376   5.082 -0.7457 -0.2615  0.2851
 1418HK4    H2519112   5.828   4.298   5.158 -0.4418 -0.8473 -0.2910
 1419HK4    H2819113   2.548   2.228   7.097  0.9373  0.2227  0.3606
 1419HK4    C4819114   2.526   2.322   7.148  0.2301 -0.0304  0.5241
 1419HK4    C4719115   2.539   2.342   7.285  0.0429  0.1109  0.5215
 1419HK4    H2719116   2.572   2.258   7.348 -0.5985  0.7454  1.7081
 1419HK4    C4619117   2.491   2.454   7.353 -0.3763  0.1735  0.1285
 1419HK4    H2619118   2.534   2.478   7.451  2.2218 -0.8585 -0.7012
 1419HK4    C4019119   2.418   2.559   7.294  0.0541  0.2209 -0.3248
 1419HK4    C5019120   2.404   2.530   7.157 -0.0113 -0.7706 -0.1122
 1419HK4    H3019121   2.349   2.604   7.097  2.8482  1.6260  0.0768
 1419HK4    C4919122   2.460   2.426   7.082 -0.1097 -0.7264 -0.2461
 1419HK4    H2919123   2.444   2.429   6.974 -3.6585 -0.0753  0.2416
 1419HK4     N219124   2.314   2.632   7.352  0.5560  0.2310  0.5589
 1419HK4    C3019125   2.243   2.597   7.469 -0.1305  0.1074  0.1018
 1419HK4    C2919126   2.263   2.493   7.559 -0.2202 -0.0089 -0.0106
 1419HK4    H1519127   2.357   2.439   7.551 -0.4785 -0.6574  1.1538
 1419HK4    C2819128   2.175   2.464   7.663 -0.4994 -0.6704 -0.4287
 1419HK4    C2719129   2.063   2.549   7.674  0.0155 -0.1103  0.5783
 1419HK4    H1419130   1.993   2.520   7.753  1.5434 -0.1126  1.9364
 1419HK4    C3219131   2.042   2.658   7.590  0.2676 -0.2736  0.3010
 1419HK4    H1619132   1.946   2.709   7.600  0.4291  0.2401 -0.6236
 1419HK4    C3119133   2.133   2.689   7.489 -0.4346 -0.1635 -0.3037
 1419HK4    C3419134   2.143   2.793   7.388  0.1829  0.0150 -0.0565
 1419HK4    C3319135   2.258   2.754   7.309  0.6601  0.2600  0.5074
 1419HK4    C3519136   2.295   2.837   7.203  0.0137  0.0950  0.1496
 1419HK4    H1719137   2.391   2.818   7.154  1.3953 -0.1627  2.8656
 1419HK4    C3619138   2.216   2.946   7.169  0.1340 -0.0077 -0.4556
 1419HK4    H1819139   2.261   3.016   7.097 -2.7433  0.9806 -1.3799
 1419HK4    C3719140   2.110   2.984   7.250  0.5400  0.5090 -0.1712
 1419HK4    H1919141   2.055   3.075   7.225  0.9690  0.4959 -1.1654
 1419HK4    C3819142   2.071   2.907   7.359  0.5457  0.1550 -0.4168
 1419HK4    H2019143   1.981   2.929   7.417  2.0085 -1.1191  2.4114
 1419HK4    C1419144   2.191   2.336   7.733  0.2588 -0.6014 -0.4654
 1419HK4     C919145   2.094   2.236   7.750 -0.0735 -0.2095 -0.0379
 1419HK4     C819146   2.113   2.146   7.856  0.0834 -0.1814 -0.0421
 1419HK4    C1119147   2.225   2.150   7.938  0.3968 -0.3051 -0.4635
 1419HK4     H419148   2.233   2.088   8.028  0.8346 -0.0597 -0.3277
 1419HK4    C1219149   2.325   2.243   7.908 -0.3060  0.7469  0.4148
 1419HK4     H519150   2.415   2.260   7.968 -0.0928  1.1838 -0.0260
 1419HK4    C1319151   2.313   2.334   7.804  0.1816 -0.0116 -0.3103
 1419HK4     H619152   2.393   2.407   7.789  0.1651  0.2169  0.6738
 1419HK4     C719153   2.003   2.051   7.884 -0.1549  0.0697 -0.1284
 1419HK4     O219154   2.003   1.992   7.992 -0.1588  0.0892 -0.1180
 1419HK4     C419155   1.896   2.029   7.783  0.3512 -0.0187 -0.6472
 1419HK4     C319156   1.806   1.925   7.801 -0.2746  0.7057  0.4311
 1419HK4     H319157   1.822   1.847   7.877  0.7626  1.1547  0.6763
 1419HK4     C219158   1.699   1.910   7.714  0.4720 -0.0715 -0.3555
 1419HK4     H219159   1.617   1.842   7.739 -0.7803  0.7282 -2.1323
 1419HK4     C119160   1.668   2.015   7.627  0.2020 -0.1139 -0.3100
 1419HK4     H119161   1.573   2.015   7.572  0.9032 -0.1398 -1.5344
 1419HK4     C619162   1.748   2.131   7.620  0.0865 -0.0441 -0.4745
 1419HK4     C519163   1.871   2.129   7.686 -0.2490  0.6421  0.1801
 1419HK4    C1019164   1.980   2.226   7.655 -0.0179  0.2735 -0.1601
 1419HK4     O119165   1.986   2.263   7.538  0.0239  0.8569  0.0250
 1419HK4    C1619166   1.688   2.244   7.548 -0.2396  0.2603  0.2666
 1419HK4    C1519167   1.706   2.377   7.590  0.2454  0.0782  0.6436
 1419HK4     H719168   1.716   2.401   7.697 -2.3562 -2.2319  1.4643
 1419HK4    C2019169   1.703   2.481   7.498 -0.4497 -0.4227  0.0991
 1419HK4     H919170   1.728   2.580   7.536 -0.1538 -1.6039  3.1228
 1419HK4    C1919171   1.683   2.459   7.362 -0.2774  0.2497 -0.0396
 1419HK4    C1819172   1.669   2.320   7.322  0.6566  0.2404 -0.3479
 1419HK4    C1719173   1.655   2.218   7.416  0.1831  0.6928  0.0740
 1419HK4     H819174   1.607   2.124   7.390  0.0462  0.6522  0.4785
 1419HK4     N119175   1.647   2.323   7.183  0.4099 -0.0068 -0.3149
 1419HK4    C2119176   1.648   2.455   7.135  0.0954  0.1487  0.1130
 1419HK4    C2219177   1.669   2.546   7.247  0.3766  0.3153 -0.0736
 1419HK4    C2619178   1.636   2.681   7.244 -0.0956  0.2010 -0.2251
 1419HK4    H1319179   1.652   2.745   7.331  0.1534  0.5801 -0.5506
 1419HK4    C2519180   1.602   2.738   7.123 -0.6166  0.2657 -0.0476
 1419HK4    H1219181   1.575   2.844   7.116 -2.5545 -0.1796  0.2025
 1419HK4    C2419182   1.584   2.655   7.013 -0.1809 -0.0104  0.0887
 1419HK4    H1119183   1.597   2.702   6.914 -2.1157  0.4926  0.0515
 1419HK4    C2319184   1.601   2.517   7.020  0.0875  0.0223  0.0477
 1419HK4    H1019185   1.558   2.464   6.935  0.3582 -0.1574  0.0195
 1419HK4    C3919186   1.682   2.213   7.102  0.0498  0.0764 -0.5844
 1419HK4    C4119187   1.639   2.197   6.969  0.0201  1.1011 -0.7021
 1419HK4    H2119188   1.560   2.261   6.925 -1.0450  1.2517  1.3782
 1419HK4    C4219189   1.693   2.101   6.884  0.2334 -0.1631  0.8528
 1419HK4    H2219190   1.644   2.076   6.789 -1.3574  1.5404  1.1809
 1419HK4    C4319191   1.800   2.023   6.926  0.3874  0.0288  0.8217
 1419HK4    H2319192   1.855   1.963   6.853  0.7291 -0.0071  1.1060
 1419HK4    C4419193   1.845   2.029   7.058  0.6523 -0.2572  0.7461
 1419HK4    H2419194   1.913   1.951   7.095 -1.4395 -2.0200  0.9527
 1419HK4    C4519195   1.789   2.129   7.137 -0.1455  0.0101 -0.1394
 1419HK4    H2519196   1.845   2.147   7.230  1.1572 -0.2805 -0.8521
 1420HK4    H2819197   1.143   3.185   1.800 -0.8715  1.7424  1.1172
 1420HK4    C4819198   1.247   3.185   1.833 -0.3520  0.5929 -0.4780
 1420HK4    C4719199   1.286   3.169   1.965 -0.3121  0.0237 -0.5572
 1420HK4    H2719200   1.213   3.164   2.048  1.5592  1.1343  1.2257
 1420HK4    C4619201   1.420   3.163   2.001 -0.5446  0.6881  0.4571
 1420HK4    H2619202   1.446   3.153   2.107 -0.7929 -1.4237  0.3509
 1420HK4    C4019203   1.522   3.176   1.905 -0.3362 -0.2503  0.5397
 1420HK4    C5019204   1.478   3.185   1.771  0.0209 -0.2759  0.4183
 1420HK4    H3019205   1.550   3.176   1.689  0.1000 -1.8095  0.6346
 1420HK4    C4919206   1.344   3.196   1.735  0.1785  0.2822  0.0078
 1420HK4    H2919207   1.318   3.212   1.629 -0.6920 -0.9677  0.0259
 1420HK4     N219208   1.660   3.177   1.928 -0.2532 -0.0735  0.0416
 1420HK4    C3019209   1.700   3.129   2.054  1.1565 -0.9391 -0.7202
 1420HK4    C2919210   1.654   3.018   2.124  0.2711 -0.0732  0.0844
 1420HK4    H1519211   1.592   2.952   2.064 -0.6088  1.5406 -0.8122
 1420HK4    C2819212   1.696   2.999   2.255  0.5913 -0.7759 -0.1200
 1420HK4    C2719213   1.783   3.091   2.317 -0.3511 -0.0333  0.0981
 1420HK4    H1419214   1.798   3.096   2.425  0.7450  1.3309 -0.0988
 1420HK4    C3219215   1.828   3.204   2.249 -0.0011 -0.3591 -0.2101
 1420HK4    H1619216   1.888   3.276   2.304  0.5103  0.7782 -2.1944
 1420HK4    C3119217   1.783   3.229   2.120  0.0284 -0.3235 -0.2141
 1420HK4    C3419218   1.800   3.339   2.028  0.3795 -0.2918 -0.1127
 1420HK4    C3319219   1.730   3.298   1.908 -0.1421 -0.1221  0.1313
 1420HK4    C3519220   1.726   3.387   1.801 -0.3812  0.0675  0.2961
 1420HK4    H1719221   1.661   3.363   1.716 -1.5821  2.8909  0.3643
 1420HK4    C3619222   1.795   3.507   1.811 -0.3203  0.0966 -0.4011
 1420HK4    H1819223   1.830   3.567   1.726  0.5511 -0.1624 -0.2338
 1420HK4    C3719224   1.861   3.544   1.928 -0.1124 -0.7730 -0.2366
 1420HK4    H1919225   1.913   3.639   1.918  0.3088 -1.0218 -0.3984
 1420HK4    C3819226   1.865   3.462   2.040 -0.2115 -0.0210  0.3226
 1420HK4    H2019227   1.882   3.505   2.139  0.5795  3.9874 -1.4562
 1420HK4    C1419228   1.606   2.911   2.331 -0.0399 -0.2975 -0.3150
 1420HK4     C919229   1.532   2.946   2.445  0.3481  0.0696 -0.1760
 1420HK4     C819230   1.506   2.854   2.549  0.1742 -0.0856 -0.3556
 1420HK4    C1119231   1.535   2.720   2.528 -0.0130 -0.2501  0.4087
 1420HK4     H419232   1.526   2.646   2.609 -0.4083  1.0198  1.5295
 1420HK4    C1219233   1.586   2.682   2.404  0.2579 -0.1542  0.4892
 1420HK4     H519234   1.582   2.577   2.372  0.5766 -0.3445  1.0654
 1420HK4    C1319235   1.620   2.773   2.304  0.0871 -0.3893  0.2157
 1420HK4     H619236   1.634   2.747   2.199 -2.0472  0.7993 -0.3998
 1420HK4     C719237   1.460   2.902   2.681 -0.6839 -0.5495 -0.4853
 1420HK4     O219238   1.443   2.817   2.768 -0.0839 -0.1262  0.0553
 1420HK4     C419239   1.431   3.047   2.694  0.4714 -0.3300 -0.2539
 1420HK4     C319240   1.395   3.093   2.820  0.1671  0.5224 -0.6468
 1420HK4     H319241   1.378   3.021   2.901 -0.7888  1.9315  0.4233
 1420HK4     C219242   1.373   3.228   2.845  0.2894  0.4243 -0.0072
 1420HK4     H219243   1.316   3.253   2.936 -2.8779  1.7964 -2.2589
 1420HK4     C119244   1.391   3.320   2.743 -0.3643  0.4983 -0.0576
 1420HK4     H119245   1.407   3.421   2.784 -2.0654  1.0008 -0.5602
 1420HK4     C619246   1.431   3.281   2.614 -0.7269  0.0864 -0.0453
 1420HK4     C519247   1.447   3.143   2.592  0.4355  0.1762  0.2185
 1420HK4    C1019248   1.483   3.086   2.459  0.0093 -0.0889  0.2186
 1420HK4     O119249   1.420   3.122   2.360 -0.6837 -0.2486  0.5960
 1420HK4    C1619250   1.438   3.394   2.521  0.4267  0.1759  0.1500
 1420HK4    C1519251   1.529   3.397   2.413 -0.3355 -1.0148 -0.5311
 1420HK4     H719252   1.624   3.346   2.433 -0.8520 -0.8586  2.5302
 1420HK4    C2019253   1.499   3.460   2.292 -0.4840  0.4225  0.2386
 1420HK4     H919254   1.562   3.436   2.206 -1.3574  2.4234 -0.9814
 1420HK4    C1919255   1.383   3.534   2.277 -0.2264  0.7306 -0.2487
 1420HK4    C1819256   1.292   3.538   2.390 -0.0821  0.2115 -0.1141
 1420HK4    C1719257   1.318   3.462   2.504  0.4008  0.0035 -0.3591
 1420HK4     H819258   1.239   3.475   2.578  0.4843  0.4482 -0.3471
 1420HK4     N119259   1.212   3.653   2.376  0.6094  0.7549  0.3288
 1420HK4    C2119260   1.258   3.720   2.261  0.0998  0.1850 -0.2156
 1420HK4    C2219261   1.362   3.648   2.190  0.1219  0.5563 -0.5634
 1420HK4    C2619262   1.440   3.707   2.092  1.1295  0.3633  0.1126
 1420HK4    H1319263   1.531   3.653   2.064  0.7790  0.3278 -0.9820
 1420HK4    C2519264   1.415   3.842   2.066 -0.2620  0.0844  0.0067
 1420HK4    H1219265   1.475   3.914   2.011  0.0698  2.2160  3.0523
 1420HK4    C2419266   1.312   3.910   2.131 -0.1934 -0.0911  0.3015
 1420HK4    H1119267   1.278   4.007   2.093  0.7638  0.1254 -0.0296
 1420HK4    C2319268   1.233   3.853   2.230 -0.3849  0.2217  0.3262
 1420HK4    H1019269   1.160   3.915   2.283  1.6904  1.2460  2.0575
 1420HK4    C3919270   1.082   3.656   2.429  0.3709  0.5103 -0.2346
 1420HK4    C4119271   1.020   3.779   2.456  0.0746  0.2182  0.4246
 1420HK4    H2119272   1.085   3.865   2.476  0.3770 -0.3356  1.8672
 1420HK4    C4219273   0.885   3.786   2.490 -0.0542  0.1142 -0.0668
 1420HK4    H2219274   0.839   3.879   2.524 -1.3629 -1.0179  1.3156
 1420HK4    C4319275   0.812   3.668   2.501  0.2702 -0.1128 -0.3430
 1420HK4    H2319276   0.708   3.676   2.531  0.2296  0.2747 -0.5926
 1420HK4    C4419277   0.870   3.545   2.472 -0.1124 -0.3689 -0.0257
 1420HK4    H2419278   0.808   3.454   2.463 -0.9865  0.3216 -1.2267
 1420HK4    C4519279   1.004   3.539   2.435 -0.0404  0.7985  0.0291
 1420HK4    H2519280   1.053   3.445   2.407  1.8778  1.4031  1.2671
 1421HK4    H2819281   4.632   1.402  10.403  0.1023 -0.4826  0.4738
 1421HK4    C4819282   4.524   1.407  10.415  0.0495  0.2544 -0.2819
 1421HK4    C4719283   4.433   1.305  10.392  0.0271  0.1768  0.1389
 1421HK4    H2719284   4.458   1.201  10.365  0.5338  0.3410 -0.0275
 1421HK4    C4619285   4.297   1.333  10.401 -0.1238 -0.2970 -0.6092
 1421HK4    H2619286   4.222   1.252  10.396 -0.2404 -0.2977  0.9768
 1421HK4    C4019287   4.249   1.464  10.416  0.1091 -0.2852  0.0472
 1421HK4    C5019288   4.345   1.566  10.432  0.0499 -0.1196 -0.6260
 1421HK4    H3019289   4.309   1.670  10.428 -0.6604 -0.3856 -1.2960
 1421HK4    C4919290   4.481   1.538  10.433  0.1060  0.1451  0.7021
 1421HK4    H2919291   4.554   1.618  10.447  0.7467  0.0871 -2.0102
 1421HK4     N219292   4.131   1.497  10.348  0.3623  0.2908 -0.1239
 1421HK4    C3019293   4.080   1.426  10.237  0.5323  0.0358 -0.0396
 1421HK4    C2919294   4.149   1.342  10.151  0.0192  0.4427 -0.8547
 1421HK4    H1519295   4.257   1.350  10.138  0.0794 -1.7192 -1.9613
 1421HK4    C2819296   4.078   1.261  10.063 -0.4257  0.3850 -0.4479
 1421HK4    C2719297   3.939   1.278  10.051 -0.4808  0.0098 -0.3425
 1421HK4    H1419298   3.877   1.199  10.005  1.9586 -1.3078 -1.4218
 1421HK4    C3219299   3.875   1.381  10.120  0.3386 -0.0098  0.4522
 1421HK4    H1619300   3.776   1.413  10.089 -0.3636 -2.1065  0.4495
 1421HK4    C3119301   3.938   1.453  10.221  0.3415 -0.4652  0.7732
 1421HK4    C3419302   3.903   1.538  10.333 -0.0245  0.0445  0.2686
 1421HK4    C3319303   4.026   1.575  10.400  0.2199  0.1808 -0.2441
 1421HK4    C3519304   4.025   1.676  10.496  0.2899  0.4405 -0.5222
 1421HK4    H1719305   4.118   1.709  10.542 -0.0706 -0.4604  0.8559
 1421HK4    C3619306   3.911   1.748  10.529  0.3297 -0.0782  0.7530
 1421HK4    H1819307   3.917   1.807  10.622 -0.6346 -1.0156  1.4239
 1421HK4    C3719308   3.795   1.718  10.460  0.9208 -0.1998 -0.2036
 1421HK4    H1919309   3.705   1.774  10.485  2.0728  2.3864 -1.7462
 1421HK4    C3819310   3.792   1.616  10.366 -0.1561  0.2818 -0.7057
 1421HK4    H2019311   3.700   1.570  10.330  0.1693  0.5896 -1.9641
 1421HK4    C1419312   4.157   1.164   9.985 -0.4504 -0.1586  0.2092
 1421HK4     C919313   4.108   1.113   9.864  0.2772 -0.0258 -0.1457
 1421HK4     C819314   4.141   0.982   9.823  0.1798 -0.1214  0.0821
 1421HK4    C1119315   4.222   0.905   9.906  0.5995  0.4977  0.2478
 1421HK4     H419316   4.247   0.801   9.880  2.2588  0.6014  1.3263
 1421HK4    C1219317   4.280   0.953  10.023  0.7452  0.3414  0.2389
 1421HK4     H519318   4.358   0.897  10.077  0.5339 -2.4330 -2.1767
 1421HK4    C1319319   4.254   1.086  10.052  0.0178  0.2517  0.0021
 1421HK4     H619320   4.295   1.133  10.143 -1.2165  0.1852  0.6181
 1421HK4     C719321   4.094   0.934   9.691  0.2398  0.0849 -0.0161
 1421HK4     O219322   4.129   0.822   9.654 -0.0542  0.0064 -0.0647
 1421HK4     C419323   4.017   1.024   9.602  0.2078 -0.0004 -0.0763
 1421HK4     C319324   3.990   0.977   9.474  0.1133  0.0550 -0.0769
 1421HK4     H319325   4.021   0.879   9.433 -0.2837  0.2309 -0.8030
 1421HK4     C219326   3.904   1.047   9.391  0.0182 -0.1724 -0.1685
 1421HK4     H219327   3.877   1.000   9.295  0.5308 -0.9194  0.0431
 1421HK4     C119328   3.850   1.166   9.438  0.4012  0.0304 -0.2456
 1421HK4     H119329   3.776   1.208   9.368  0.0993 -0.4078 -0.1905
 1421HK4     C619330   3.871   1.209   9.571 -0.1526 -0.8377  0.1222
 1421HK4     C519331   3.963   1.143   9.654 -0.1496 -0.3961  0.4687
 1421HK4    C1019332   4.030   1.201   9.773 -0.1893  0.0160  0.2901
 1421HK4     O119333   4.060   1.320   9.761  0.2647 -0.1807 -0.5540
 1421HK4    C1619334   3.747   1.255   9.635  0.1373  0.0117  0.0703
 1421HK4    C1519335   3.619   1.225   9.584  0.1423  0.7509 -0.3989
 1421HK4     H719336   3.594   1.167   9.494 -2.1340 -0.8142  1.1516
 1421HK4    C2019337   3.504   1.291   9.626  0.0086  0.3508 -0.1288
 1421HK4     H919338   3.409   1.248   9.596  0.2910 -0.3654 -0.0110
 1421HK4    C1919339   3.516   1.401   9.711  0.3873  0.5927 -0.4941
 1421HK4    C1819340   3.646   1.436   9.764  0.1777 -0.1605  0.5164
 1421HK4    C1719341   3.755   1.358   9.728  0.0377 -0.3400  0.4687
 1421HK4     H819342   3.830   1.347   9.806 -0.8357  1.9777  1.6881
 1421HK4     N119343   3.638   1.552   9.843 -0.3070 -0.1925  0.5150
 1421HK4    C2119344   3.505   1.597   9.834 -0.2912 -0.1245  0.6198
 1421HK4    C2219345   3.424   1.503   9.758 -0.0720 -0.3245  0.6318
 1421HK4    C2619346   3.287   1.522   9.754  0.1100  0.8739 -0.2691
 1421HK4    H1319347   3.219   1.466   9.690 -0.7142  0.8614  0.5982
 1421HK4    C2519348   3.227   1.613   9.842 -0.1767 -0.0885  0.5387
 1421HK4    H1219349   3.118   1.611   9.845 -0.1465  0.8944  2.3423
 1421HK4    C2419350   3.309   1.695   9.918 -0.2028  0.4126  0.0232
 1421HK4    H1119351   3.263   1.754   9.999  2.6833  1.3775  1.0086
 1421HK4    C2319352   3.448   1.698   9.910 -0.1795  0.1569  0.3259
 1421HK4    H1019353   3.495   1.790   9.945 -1.3661  0.0182  2.3248
 1421HK4    C3919354   3.752   1.625   9.881  0.0719 -0.4576 -0.0928
 1421HK4    C4119355   3.742   1.714   9.991  0.6931  0.1347 -0.5088
 1421HK4    H2119356   3.672   1.688  10.072  1.4077 -1.1800 -0.2826
 1421HK4    C4219357   3.835   1.812  10.023  0.0334  0.8708 -0.8426
 1421HK4    H2219358   3.839   1.864  10.120 -0.3732  0.1816 -0.4510
 1421HK4    C4319359   3.946   1.826   9.940  0.7501  0.4023  0.0398
 1421HK4    H2319360   4.033   1.885   9.969  0.6961  0.8806 -0.7778
 1421HK4    C4419361   3.953   1.746   9.827  0.0684  0.0773  0.2219
 1421HK4    H2419362   4.042   1.757   9.764 -0.5296  0.5580 -0.5499
 1421HK4    C4519363   3.866   1.641   9.800  0.1692  0.0147  0.1351
 1421HK4    H2519364   3.868   1.578   9.710 -2.3656  1.1667 -0.7967
 1422HK4    H2819365   3.528   9.600   6.338 -0.0842 -1.0306  1.2248
 1422HK4    C4819366   3.520   9.667   6.424  0.0702 -0.4418  0.7835
 1422HK4    C4719367   3.395   9.704   6.472 -0.1013  0.4428 -0.3169
 1422HK4    H2719368   3.309   9.645   6.438 -0.2295  1.0369 -1.0397
 1422HK4    C4619369   3.380   9.796   6.574 -0.4611  0.0216  0.0138
 1422HK4    H2619370   3.283   9.847   6.582 -1.3133 -1.6893  0.6349
 1422HK4    C4019371   3.489   9.863   6.635 -0.0668 -0.8518  0.2762
 1422HK4    C5019372   3.616   9.827   6.584  0.1468  0.5121 -0.1727
 1422HK4    H3019373   3.704   9.869   6.634  0.1387  0.6146 -0.2457
 1422HK4    C4919374   3.628   9.727   6.488  0.0648 -0.2995  0.6597
 1422HK4    H2919375   3.729   9.700   6.455 -0.4860  0.3516 -1.6689
 1422HK4     N219376   3.487   9.920   6.762  0.2399  0.0490 -0.1179
 1422HK4    C3019377   3.419   9.870   6.875 -0.3095  0.4594 -0.2643
 1422HK4    C2919378   3.324   9.769   6.888  0.0437  0.1283 -0.2418
 1422HK4    H1519379   3.273   9.720   6.805 -1.1174 -0.9434  1.0763
 1422HK4    C2819380   3.255   9.749   7.007  0.4217 -0.4699 -0.1228
 1422HK4    C2719381   3.294   9.825   7.119  0.2684 -0.3736 -0.1365
 1422HK4    H1419382   3.258   9.792   7.218  1.3522  1.2698  0.8303
 1422HK4    C3219383   3.392   9.923   7.116  0.0060 -0.1270 -0.6014
 1422HK4    H1619384   3.421   9.976   7.207 -1.3357  0.2564 -0.3756
 1422HK4    C3119385   3.452   9.948   6.993  0.4122  0.2596 -0.3296
 1422HK4    C3419386   3.533  10.058   6.946  0.0646  0.5973 -0.1467
 1422HK4    C3319387   3.544  10.043   6.802 -0.0611  0.1888 -0.1158
 1422HK4    C3519388   3.569  10.154   6.722  0.5402  0.3871  0.3380
 1422HK4    H1719389   3.593  10.143   6.616  0.1450 -1.3039  0.4045
 1422HK4    C3619390   3.574  10.281   6.778  0.4522  0.2866  0.5791
 1422HK4    H1819391   3.583  10.362   6.704  2.4323 -0.6307 -0.2054
 1422HK4    C3719392   3.554  10.300   6.914 -0.3170  0.3360  0.4619
 1422HK4    H1919393   3.586  10.397   6.953 -1.4971  0.4994  1.0618
 1422HK4    C3819394   3.538  10.188   6.995 -0.1201  0.3506  0.5268
 1422HK4    H2019395   3.516  10.213   7.099  0.4380  1.2413  0.4320
 1422HK4    C1419396   3.119   9.694   6.995  0.1822  0.0323  0.2800
 1422HK4     C919397   3.005   9.749   7.055  0.0686 -0.2129  0.2911
 1422HK4     C819398   2.896   9.667   7.090 -0.2305  0.1028  0.1057
 1422HK4    C1119399   2.896   9.533   7.053 -0.0575 -0.0003  0.4840
 1422HK4     H419400   2.801   9.478   7.055 -0.0628 -0.0922 -1.3915
 1422HK4    C1219401   3.009   9.478   6.995  0.0486  0.7397 -0.0207
 1422HK4     H519402   3.026   9.370   7.009 -0.7326  0.5183 -0.7157
 1422HK4    C1319403   3.119   9.557   6.964  0.4504  0.1324 -0.1570
 1422HK4     H619404   3.200   9.511   6.905  0.1037 -0.5510 -0.1081
 1422HK4     C719405   2.787   9.714   7.179 -0.6909  0.6827 -0.7495
 1422HK4     O219406   2.684   9.648   7.189  0.1838 -0.6363 -0.3095
 1422HK4     C419407   2.810   9.840   7.253 -0.5124  0.1823  0.0503
 1422HK4     C319408   2.738   9.864   7.370 -0.1995  0.5027  0.1792
 1422HK4     H319409   2.655   9.798   7.401 -0.4782 -0.3133 -2.1906
 1422HK4     C219410   2.764   9.980   7.441 -0.2147  0.5676  0.0797
 1422HK4     H219411   2.713  10.001   7.537 -1.4498  1.3559 -0.7347
 1422HK4     C119412   2.861  10.069   7.397 -0.5623  0.6114 -0.6073
 1422HK4     H119413   2.854  10.170   7.442 -1.1167  0.0033  0.7230
 1422HK4     C619414   2.939  10.042   7.283 -0.3839  0.1023 -0.3653
 1422HK4     C519415   2.907   9.929   7.205 -0.4584 -0.0023 -0.1841
 1422HK4    C1019416   3.000   9.893   7.095  0.5270 -0.3171  0.7331
 1422HK4     O119417   3.022   9.974   7.005  0.3905 -0.2943  0.7218
 1422HK4    C1619418   3.065  10.117   7.280 -0.4629  0.2653  0.2542
 1422HK4    C1519419   3.141  10.145   7.395  0.0838  0.3128 -0.1179
 1422HK4     H719420   3.115  10.093   7.489  1.8954  1.7427  1.2031
 1422HK4    C2019421   3.230  10.250   7.413 -0.0097  0.3211  0.3104
 1422HK4     H919422   3.291  10.266   7.502 -1.5205  0.5077  1.3226
 1422HK4    C1919423   3.248  10.338   7.307 -0.4994  0.3345  0.2371
 1422HK4    C1819424   3.182  10.313   7.180  0.3866 -0.2922 -0.1033
 1422HK4    C1719425   3.094  10.205   7.176  0.1265 -0.0909  0.1205
 1422HK4     H819426   3.031  10.206   7.088  0.9122  2.8775 -0.4625
 1422HK4     N119427   3.230  10.405   7.085 -0.2051  0.4184  0.2811
 1422HK4    C2119428   3.328  10.484   7.147  0.4421  0.0276 -0.2253
 1422HK4    C2219429   3.329  10.457   7.290  0.4130 -0.3510 -0.2984
 1422HK4    C2619430   3.417  10.521   7.376  0.2494 -0.8555  0.2477
 1422HK4    H1319431   3.407  10.527   7.484 -0.0188  1.6251  0.1286
 1422HK4    C2519432   3.514  10.609   7.329 -0.5287  0.0694  0.3602
 1422HK4    H1219433   3.587  10.666   7.387 -0.0753  0.4654 -0.5884
 1422HK4    C2419434   3.515  10.635   7.192  0.2475 -0.1705  0.3207
 1422HK4    H1119435   3.588  10.705   7.149 -0.7369  0.2875 -0.6289
 1422HK4    C2319436   3.425  10.575   7.105  0.7270 -0.2336 -0.1343
 1422HK4    H1019437   3.430  10.618   7.005  0.4163 -0.5636 -0.2901
 1422HK4    C3919438   3.213  10.398   6.946  1.2409  0.2962  0.0935
 1422HK4    C4119439   3.196  10.516   6.870 -1.0538 -0.1691 -0.1682
 1422HK4    H2119440   3.175  10.615   6.914 -1.2588  0.6419 -2.0502
 1422HK4    C4219441   3.204  10.509   6.731  0.3429 -0.1323 -0.0943
 1422HK4    H2219442   3.192  10.599   6.670 -0.3358 -1.0414 -1.3181
 1422HK4    C4319443   3.225  10.389   6.665  0.2697  0.0421 -0.4357
 1422HK4    H2319444   3.253  10.384   6.559 -0.8645 -0.7522 -0.7021
 1422HK4    C4419445   3.230  10.271   6.738 -0.1029  0.0025 -0.4745
 1422HK4    H2419446   3.267  10.180   6.688 -0.6549  0.0325 -0.9291
 1422HK4    C4519447   3.221  10.275   6.877  0.1089  0.5236 -0.4759
 1422HK4    H2519448   3.226  10.181   6.934 -0.1668  1.5746  1.3183
 1423HK4    H2819449   1.465   1.004   8.374 -1.7760  0.5854 -0.9747
 1423HK4    C4819450   1.473   0.929   8.296  0.3668  0.2132 -0.4243
 1423HK4    C4719451   1.570   0.829   8.296  0.4219  0.2663  0.0606
 1423HK4    H2719452   1.619   0.812   8.393 -1.1627  0.6003  0.9467
 1423HK4    C4619453   1.587   0.740   8.191  0.2462 -0.0186  0.2709
 1423HK4    H2619454   1.685   0.692   8.178 -0.4636 -1.4317  0.0945
 1423HK4    C4019455   1.501   0.751   8.080  0.1924  0.1801  0.3334
 1423HK4    C5019456   1.407   0.856   8.079 -0.2258 -0.1972 -0.4799
 1423HK4    H3019457   1.322   0.838   8.011 -0.4132 -2.2243  0.2392
 1423HK4    C4919458   1.389   0.943   8.186  0.5680  0.1089 -0.5887
 1423HK4    H2919459   1.296   1.001   8.195  0.1046 -0.6932 -0.0671
 1423HK4     N219460   1.500   0.652   7.981  0.0593  0.4904  0.0217
 1423HK4    C3019461   1.530   0.515   7.993  0.3674  0.5337 -0.2126
 1423HK4    C2919462   1.591   0.438   8.092 -0.0246 -0.1031 -0.4617
 1423HK4    H1519463   1.618   0.482   8.188 -2.4939 -1.9557  1.1536
 1423HK4    C2819464   1.624   0.304   8.076 -0.4354 -0.2982  0.3402
 1423HK4    C2719465   1.597   0.247   7.950 -0.0097  0.4164 -0.0739
 1423HK4    H1419466   1.623   0.141   7.934 -2.3604 -0.4893  1.9347
 1423HK4    C3219467   1.540   0.316   7.844  0.1457 -0.2090 -0.5659
 1423HK4    H1619468   1.532   0.273   7.744  0.8530 -2.4787  0.3017
 1423HK4    C3119469   1.506   0.448   7.866 -0.1654 -0.4493  0.3988
 1423HK4    C3419470   1.470   0.551   7.771  0.8351 -0.0726  0.4243
 1423HK4    C3319471   1.468   0.676   7.845 -0.1561  0.1627  0.0168
 1423HK4    C3519472   1.446   0.797   7.780 -0.3156 -0.0317 -0.2923
 1423HK4    H1719473   1.412   0.881   7.840 -1.5442 -0.3635 -0.5166
 1423HK4    C3619474   1.442   0.804   7.642 -0.0743 -0.1378 -0.3062
 1423HK4    H1819475   1.451   0.900   7.589 -1.1765  0.6567  0.9164
 1423HK4    C3719476   1.449   0.686   7.568 -0.3350 -0.1436 -0.3231
 1423HK4    H1919477   1.458   0.679   7.459  0.8780 -2.8387 -0.0728
 1423HK4    C3819478   1.459   0.564   7.633 -0.4454  0.3034  0.5452
 1423HK4    H2019479   1.455   0.473   7.572 -0.4077  0.2905  0.5625
 1423HK4    C1419480   1.734   0.256   8.161 -0.2583 -0.0044  0.2809
 1423HK4     C919481   1.839   0.178   8.110  0.3333  0.5261  0.6824
 1423HK4     C819482   1.901   0.073   8.182  0.0506 -0.2564 -0.1989
 1423HK4    C1119483   1.864   0.058   8.316 -0.0697  0.2058 -0.1789
 1423HK4     H419484   1.905  11.225   8.378  1.7910  1.0026 -0.3580
 1423HK4    C1219485   1.770   0.143   8.372  0.0330 -0.0799  0.4310
 1423HK4     H519486   1.754   0.136   8.481 -0.9241  2.7990  0.5251
 1423HK4    C1319487   1.705   0.242   8.298 -0.2064 -0.3691  0.2523
 1423HK4     H619488   1.650   0.321   8.351 -0.5227 -0.7877  0.5507
 1423HK4     C719489   1.978  11.211   8.122  0.2919 -0.1043 -0.1719
 1423HK4     O219490   2.041  11.128   8.186  0.1466  0.0983  0.2325
 1423HK4     C419491   1.986  11.210   7.974 -0.0144  0.1586 -0.1930
 1423HK4     C319492   2.033  11.098   7.906 -0.4500 -0.1250 -0.0268
 1423HK4     H319493   2.090  11.012   7.946  1.1381  1.1441  0.4655
 1423HK4     C219494   2.016  11.085   7.769 -0.2506 -0.5492 -0.0134
 1423HK4     H219495   2.029  10.985   7.725  2.4542 -0.0348 -0.4845
 1423HK4     C119496   1.965  11.188   7.691  0.2626  0.0619  0.4474
 1423HK4     H119497   1.964  11.177   7.582 -0.3031 -1.5899  0.6015
 1423HK4     C619498   1.935   0.062   7.755  0.0865  0.1602  0.1792
 1423HK4     C519499   1.947   0.071   7.894  0.0238  0.4373  0.1658
 1423HK4    C1019500   1.892   0.186   7.971 -0.6281  0.0543  0.2817
 1423HK4     O119501   1.940   0.296   7.942 -0.4721 -0.0803  0.0269
 1423HK4    C1619502   1.846   0.151   7.678 -0.1730 -0.5042 -0.2879
 1423HK4    C1519503   1.740   0.101   7.600 -0.0235 -0.9639 -0.2037
 1423HK4     H719504   1.688   0.008   7.627 -0.3499 -0.0024  2.5683
 1423HK4    C2019505   1.681   0.175   7.497 -0.1435  0.0599  0.5941
 1423HK4     H919506   1.607   0.126   7.435  1.1586 -1.7327  0.4167
 1423HK4    C1919507   1.714   0.309   7.478  0.0854 -0.1164 -0.2398
 1423HK4    C1819508   1.814   0.371   7.562 -0.3747  0.2773  0.0191
 1423HK4    C1719509   1.878   0.283   7.649 -0.6714 -0.4226 -0.4655
 1423HK4     H819510   1.956   0.332   7.708 -2.6172  1.8466  0.3240
 1423HK4     N119511   1.823   0.511   7.550  0.3977  0.1948 -0.4388
 1423HK4    C2119512   1.736   0.540   7.443  0.0271 -0.2816 -0.2699
 1423HK4    C2219513   1.670   0.420   7.396 -0.3258 -0.1630 -0.0841
 1423HK4    C2619514   1.595   0.428   7.279 -0.4177  0.5177  0.0188
 1423HK4    H1319515   1.562   0.333   7.236 -2.5628  0.0520  2.6031
 1423HK4    C2519516   1.591   0.547   7.208 -0.0655  0.0820 -0.7376
 1423HK4    H1219517   1.545   0.544   7.108  0.4249 -1.3372 -0.9281
 1423HK4    C2419518   1.661   0.659   7.249 -0.5020 -0.0019  0.2306
 1423HK4    H1119519   1.639   0.756   7.201 -2.4023  0.2883  1.6059
 1423HK4    C2319520   1.734   0.657   7.368 -0.2481 -0.0628  0.0759
 1423HK4    H1019521   1.816   0.726   7.383  0.7149 -1.5839  1.9839
 1423HK4    C3919522   1.839   0.601   7.656 -0.2110  0.2570 -0.3977
 1423HK4    C4119523   1.887   0.732   7.639 -0.0281  0.2690  0.1877
 1423HK4    H2119524   1.946   0.748   7.547  0.7276 -0.9092  0.4544
 1423HK4    C4219525   1.884   0.830   7.737 -1.0082  0.4543 -0.0228
 1423HK4    H2219526   1.921   0.929   7.707  0.7264 -0.3998 -0.7959
 1423HK4    C4319527   1.839   0.797   7.864 -0.0245 -0.0196  0.2047
 1423HK4    H2319528   1.835   0.875   7.940 -1.2552 -1.0657  1.2231
 1423HK4    C4419529   1.809   0.664   7.891  0.2073 -0.1925 -0.3922
 1423HK4    H2419530   1.819   0.641   7.998 -0.3424  0.1118 -0.2741
 1423HK4    C4519531   1.804   0.569   7.789  0.7378 -0.3317 -0.2903
 1423HK4    H2519532   1.759   0.469   7.799 -0.5701  0.2466 -0.3089
 1424HK4    H2819533   9.773   5.592   7.236  0.6496 -0.4121 -0.7062
 1424HK4    C4819534   9.793   5.537   7.328 -0.3201  0.0206 -0.2313
 1424HK4    C4719535   9.912   5.469   7.349 -0.5659 -0.3782 -0.1028
 1424HK4    H2719536   9.992   5.482   7.274 -1.1679 -0.2097 -0.7158
 1424HK4    C4619537   9.932   5.396   7.466 -0.4202  0.0998  0.1682
 1424HK4    H2619538  10.019   5.329   7.465  0.7773  1.6269  0.3715
 1424HK4    C4019539   9.830   5.376   7.561 -0.5406 -0.8849 -0.1633
 1424HK4    C5019540   9.710   5.446   7.538  0.2928  0.5901 -0.1097
 1424HK4    H3019541   9.641   5.454   7.624 -0.0349 -3.6468  0.1280
 1424HK4    C4919542   9.695   5.528   7.427 -0.3481  0.3115 -0.2340
 1424HK4    H2919543   9.610   5.596   7.437  0.4715  1.3444 -0.2062
 1424HK4     N219544   9.857   5.294   7.671  0.3110  0.4208  0.6122
 1424HK4    C3019545   9.984   5.279   7.730  0.2278 -0.1892  0.6371
 1424HK4    C2919546  10.094   5.364   7.734 -0.1993  0.4470 -0.9050
 1424HK4    H1519547  10.102   5.451   7.669  4.4464  0.2170 -0.8285
 1424HK4    C2819548  10.199   5.335   7.820 -0.7924 -0.1426 -0.3677
 1424HK4    C2719549  10.200   5.219   7.900  0.1318  0.2303  0.1777
 1424HK4    H1419550  10.275   5.204   7.979 -1.2541 -2.3212  1.0503
 1424HK4    C3219551  10.096   5.127   7.885  0.2711  0.1374 -0.2318
 1424HK4    H1619552  10.092   5.042   7.952 -3.2234 -0.0316 -0.5745
 1424HK4    C3119553   9.992   5.150   7.796 -0.2695 -0.4119  0.2620
 1424HK4    C3419554   9.861   5.090   7.779 -0.2614 -0.1740 -0.6606
 1424HK4    C3319555   9.778   5.181   7.702  0.0046  0.3854 -0.2792
 1424HK4    C3519556   9.640   5.175   7.694  0.0255 -0.1617 -0.2319
 1424HK4    H1719557   9.586   5.257   7.647  0.2009  1.6791  2.6635
 1424HK4    C3619558   9.582   5.082   7.780 -0.0370  0.5051  0.4517
 1424HK4    H1819559   9.474   5.074   7.800 -0.3364 -1.5276 -1.7133
 1424HK4    C3719560   9.656   4.991   7.854  0.3049  0.5712  0.1916
 1424HK4    H1919561   9.609   4.926   7.928 -1.2308  1.1172 -0.2864
 1424HK4    C3819562   9.794   4.987   7.845  0.2508 -0.3341 -0.3910
 1424HK4    H2019563   9.843   4.890   7.845 -1.4732 -1.2019 -0.9782
 1424HK4    C1419564  10.323   5.412   7.799 -0.4292 -0.5785  0.1930
 1424HK4     C919565  10.450   5.358   7.821 -0.2810 -0.0494  0.6703
 1424HK4     C819566  10.561   5.436   7.862  0.3161 -0.0020 -0.9714
 1424HK4    C1119567  10.545   5.574   7.864 -0.5926 -0.1157  0.8907
 1424HK4     H419568  10.631   5.632   7.901 -1.6208  1.1333  1.3550
 1424HK4    C1219569  10.422   5.631   7.830 -0.1275 -0.0527 -0.7587
 1424HK4     H519570  10.416   5.740   7.822 -1.5506 -0.1316 -0.9154
 1424HK4    C1319571  10.311   5.553   7.801 -0.0546 -0.5476  0.2758
 1424HK4     H619572  10.231   5.608   7.751  1.3584  2.9596  1.7616
 1424HK4     C719573  10.678   5.372   7.927 -0.4173 -0.0375  0.3375
 1424HK4     O219574  10.773   5.432   7.978  0.1472 -0.0419 -0.6918
 1424HK4     C419575  10.685   5.225   7.912  0.3309  0.0605 -0.3557
 1424HK4     C319576  10.790   5.155   7.970 -0.2481 -0.6943 -0.2114
 1424HK4     H319577  10.859   5.220   8.026 -0.1073  1.9576 -3.3424
 1424HK4     C219578  10.804   5.017   7.974  0.1437 -0.6437  0.1607
 1424HK4     H219579  10.887   4.962   8.021  1.3128  1.0248  0.0713
 1424HK4     C119580  10.707   4.949   7.900 -0.0947 -0.3030  0.1639
 1424HK4     H119581  10.691   4.845   7.930  0.5879 -0.0640  1.4205
 1424HK4     C619582  10.612   5.011   7.816 -0.1408  0.3052  0.6631
 1424HK4     C519583  10.600   5.150   7.828  0.0787  0.4211 -0.4264
 1424HK4    C1019584  10.482   5.221   7.772 -0.1127  0.2897 -0.1915
 1424HK4     O119585  10.453   5.200   7.655  0.7462  0.3327 -0.4133
 1424HK4    C1619586  10.507   4.915   7.779 -0.0862  0.5792 -0.2111
 1424HK4    C1519587  10.459   4.812   7.863 -0.2304  0.2019 -0.7575
 1424HK4     H719588  10.436   4.832   7.968  1.6111 -2.7009  0.2609
 1424HK4    C2019589  10.420   4.688   7.815  0.5474 -0.2158 -0.3164
 1424HK4     H919590  10.433   4.604   7.884  2.1476  0.5841  0.3803
 1424HK4    C1919591  10.415   4.667   7.677 -0.4140  0.0201 -0.3216
 1424HK4    C1819592  10.439   4.779   7.589 -0.0688  0.1832 -0.0241
 1424HK4    C1719593  10.486   4.898   7.643  0.3494  0.1121 -0.2217
 1424HK4     H819594  10.518   4.983   7.582 -0.2022  0.7240  0.3282
 1424HK4     N119595  10.420   4.743   7.454  0.1031 -0.0384  0.0105
 1424HK4    C2119596  10.381   4.607   7.457 -0.1260  0.0309  0.2234
 1424HK4    C2219597  10.380   4.555   7.592  0.0762 -0.4208  0.0503
 1424HK4    C2619598  10.369   4.419   7.619  0.5429 -0.5188 -0.2449
 1424HK4    H1319599  10.347   4.390   7.722  2.3286  1.0165  0.5887
 1424HK4    C2519600  10.357   4.333   7.510 -0.3222 -0.5120 -0.1614
 1424HK4    H1219601  10.324   4.230   7.529  0.5838 -1.1161 -1.8094
 1424HK4    C2419602  10.356   4.383   7.381  0.5405 -0.3739 -0.1165
 1424HK4    H1119603  10.334   4.322   7.292  1.5357 -1.7786  0.5884
 1424HK4    C2319604  10.373   4.518   7.351  0.1692 -0.2094  0.4034
 1424HK4    H1019605  10.372   4.540   7.244 -0.3036 -2.3038 -0.0453
 1424HK4    C3919606  10.394   4.833   7.350  0.3691  0.2560  0.1959
 1424HK4    C4119607  10.432   4.803   7.217 -0.2135 -0.0486  0.0918
 1424HK4    H2119608  10.522   4.740   7.212  0.0894  0.2054  1.9893
 1424HK4    C4219609  10.385   4.874   7.107  0.2319  0.0796 -0.0158
 1424HK4    H2219610  10.419   4.842   7.008 -0.5845  2.0437 -0.9663
 1424HK4    C4319611  10.305   4.986   7.127 -0.1211 -0.1062 -0.3780
 1424HK4    H2319612  10.273   5.038   7.037 -1.0873 -1.3044 -0.7268
 1424HK4    C4419613  10.266   5.026   7.255 -0.4220 -0.9238 -0.2152
 1424HK4    H2419614  10.204   5.115   7.270  0.0923 -0.5028 -0.5907
 1424HK4    C4519615  10.314   4.949   7.360  0.2206  0.1463  0.2824
 1424HK4    H2519616  10.300   4.989   7.461  3.0755 -2.7483  1.9458
 1425HK4    H2819617   2.263   8.269  10.105 -0.0008 -1.4661  2.3194
 1425HK4    C4819618   2.156   8.289  10.117 -0.0209  0.2042 -0.3106
 1425HK4    C4719619   2.068   8.200  10.056  0.0937 -0.1133 -0.0103
 1425HK4    H2719620   2.099   8.105  10.010  0.1181 -0.6126  1.0104
 1425HK4    C4619621   1.932   8.227  10.065  0.1704  0.2353  0.1150
 1425HK4    H2619622   1.866   8.164  10.004  1.0131 -1.2192  0.6750
 1425HK4    C4019623   1.882   8.337  10.138  0.0590  0.0992  0.2452
 1425HK4    C5019624   1.976   8.421  10.200  0.0576  0.1135  0.2230
 1425HK4    H3019625   1.966   8.529  10.220  2.3646  0.5188 -0.6651
 1425HK4    C4919626   2.113   8.395  10.195  0.0722  0.2893 -0.3715
 1425HK4    H2919627   2.186   8.436  10.266  1.4679 -0.4019 -1.3897
 1425HK4     N219628   1.745   8.364  10.156 -0.1934 -1.0249  0.1062
 1425HK4    C3019629   1.643   8.293  10.089 -1.0054  0.0352  0.2084
 1425HK4    C2919630   1.626   8.272   9.953  0.2224  0.4685 -0.0218
 1425HK4    H1519631   1.718   8.289   9.897  0.4310 -0.6525 -0.0237
 1425HK4    C2819632   1.527   8.202   9.886  0.3917  0.2780 -0.0726
 1425HK4    C2719633   1.437   8.141   9.976 -0.0060  0.0937 -0.5912
 1425HK4    H1419634   1.363   8.068   9.941  0.9868 -1.3672  0.3053
 1425HK4    C3219635   1.439   8.171  10.111  0.5217 -0.8963 -0.3748
 1425HK4    H1619636   1.375   8.121  10.184  0.2637  3.5411  2.6648
 1425HK4    C3119637   1.530   8.258  10.172 -0.8485  0.0005  0.4105
 1425HK4    C3419638   1.550   8.342  10.288 -0.0419  0.7478 -0.2715
 1425HK4    C3319639   1.678   8.408  10.272  0.2166  0.2794 -0.1408
 1425HK4    C3519640   1.711   8.515  10.355  0.2071  0.5861 -0.5244
 1425HK4    H1719641   1.811   8.558  10.364  0.8640 -0.8829 -0.5361
 1425HK4    C3619642   1.617   8.549  10.451 -0.0530 -0.0822 -0.5393
 1425HK4    H1819643   1.641   8.633  10.518  0.2566 -0.2607 -0.4274
 1425HK4    C3719644   1.493   8.486  10.465  0.2579 -0.5696  0.0609
 1425HK4    H1919645   1.439   8.499  10.558 -0.9005 -0.1950 -0.6561
 1425HK4    C3819646   1.459   8.376  10.387 -0.2269 -0.3241 -0.0721
 1425HK4    H2019647   1.359   8.333  10.398 -0.8458  0.6698 -1.7509
 1425HK4    C1419648   1.483   8.247   9.753  0.1355 -0.2381 -0.1632
 1425HK4     C919649   1.349   8.252   9.711  0.0880  0.3739  0.0581
 1425HK4     C819650   1.318   8.233   9.575 -0.3082  0.0804  0.1910
 1425HK4    C1119651   1.417   8.212   9.480 -0.1566  0.1369  0.3384
 1425HK4     H419652   1.394   8.223   9.373  1.5214  0.1110 -0.0383
 1425HK4    C1219653   1.550   8.225   9.518  0.0128  0.0893 -0.2337
 1425HK4     H519654   1.629   8.231   9.442  0.6881  3.7101  0.6852
 1425HK4    C1319655   1.582   8.243   9.652  0.0439  0.4005 -0.2819
 1425HK4     H619656   1.682   8.275   9.682 -0.3996 -0.1726  1.8957
 1425HK4     C719657   1.182   8.205   9.524 -0.1952 -0.1211 -0.0046
 1425HK4     O219658   1.154   8.211   9.404  0.0232 -0.3342 -0.0644
 1425HK4     C419659   1.080   8.197   9.631 -0.1650  0.4005  0.0666
 1425HK4     C319660   0.957   8.143   9.597  0.0102  0.2048 -0.2531
 1425HK4     H319661   0.939   8.083   9.506 -0.6321 -2.7797  1.7873
 1425HK4     C219662   0.860   8.130   9.696  0.2571 -0.4775 -0.1019
 1425HK4     H219663   0.767   8.073   9.685  1.3320 -2.2881 -0.0184
 1425HK4     C119664   0.880   8.175   9.826  0.1086 -0.1456 -0.1938
 1425HK4     H119665   0.797   8.164   9.897 -0.1920 -2.4389 -0.8595
 1425HK4     C619666   1.002   8.236   9.861  0.0134 -0.1115  0.0776
 1425HK4     C519667   1.101   8.242   9.763 -0.1402  0.6660 -0.0284
 1425HK4    C1019668   1.236   8.295   9.798 -0.0113  0.3562 -0.0614
 1425HK4     O119669   1.258   8.397   9.862  0.2827  0.2426  0.0197
 1425HK4    C1619670   1.026   8.230  10.006 -0.0222 -0.3213  0.0752
 1425HK4    C1519671   1.003   8.115  10.085  0.4542 -0.4466  0.0312
 1425HK4     H719672   0.953   8.029  10.038  0.3038 -0.3366 -0.0029
 1425HK4    C2019673   1.023   8.114  10.222  0.1309 -0.2267  0.0787
 1425HK4     H919674   1.027   8.018  10.274 -2.8528 -0.4025  0.0785
 1425HK4    C1919675   1.048   8.235  10.286 -0.4678  0.1955 -0.4747
 1425HK4    C1819676   1.071   8.356  10.209 -0.0213  0.2799 -0.2167
 1425HK4    C1719677   1.054   8.350  10.071 -0.6986 -0.0576 -0.1209
 1425HK4     H819678   1.064   8.444  10.017 -2.1426 -0.0010 -0.3099
 1425HK4     N119679   1.099   8.463  10.295  0.0152  0.1922 -0.1196
 1425HK4    C2119680   1.088   8.418  10.429  0.0388 -1.0013 -0.5162
 1425HK4    C2219681   1.066   8.275  10.424  0.1832 -1.0339 -0.1916
 1425HK4    C2619682   1.063   8.207  10.545 -0.0075 -0.2292  0.2584
 1425HK4    H1319683   1.047   8.099  10.538 -3.1928  0.4018 -3.9615
 1425HK4    C2519684   1.094   8.276  10.662 -0.2202  0.2533  0.0302
 1425HK4    H1219685   1.124   8.223  10.752 -0.9199  1.3057  0.8906
 1425HK4    C2419686   1.123   8.412  10.665  0.6590  0.0604  0.6037
 1425HK4    H1119687   1.156   8.456  10.760 -1.0852 -2.9642  2.6668
 1425HK4    C2319688   1.110   8.486  10.548  0.0451 -1.4225 -0.2740
 1425HK4    H1019689   1.143   8.590  10.553  2.2964 -2.0025 -1.9692
 1425HK4    C3919690   1.161   8.582  10.255 -0.0535  0.0978 -0.5083
 1425HK4    C4119691   1.136   8.702  10.324  0.2578 -0.1626  0.0663
 1425HK4    H2119692   1.033   8.742  10.328  0.7232  1.0369  0.4785
 1425HK4    C4219693   1.235   8.799  10.339 -0.1821  0.3303 -0.1884
 1425HK4    H2219694   1.211   8.875  10.415  1.2259  0.7521 -0.1576
 1425HK4    C4319695   1.356   8.792  10.272  0.1029 -0.4391  0.4030
 1425HK4    H2319696   1.420   8.879  10.260  0.6763 -0.7603  1.1461
 1425HK4    C4419697   1.384   8.675  10.202  0.3416 -0.3389  0.3254
 1425HK4    H2419698   1.483   8.638  10.170  0.5770 -0.0185  0.6715
 1425HK4    C4519699   1.286   8.576  10.191  0.4548 -0.4736  0.5163
 1425HK4    H2519700   1.295   8.489  10.125  0.0837  0.8397 -1.2976
 1426HK4    H2819701   8.502   1.560   5.462  1.5268  0.7141 -1.3766
 1426HK4    C4819702   8.498   1.454   5.439 -1.4947  0.4253  0.2970
 1426HK4    C4719703   8.495   1.354   5.536  0.2079 -0.2059 -0.2916
 1426HK4    H2719704   8.504   1.368   5.644  0.4180 -2.0700 -0.0550
 1426HK4    C4619705   8.480   1.222   5.494 -0.2634 -0.4105  0.5248
 1426HK4    H2619706   8.457   1.146   5.570  0.9050  0.4288  1.7551
 1426HK4    C4019707   8.474   1.182   5.359  0.4064  0.3658  0.2609
 1426HK4    C5019708   8.472   1.286   5.264  0.7876  0.0924 -0.0449
 1426HK4    H3019709   8.486   1.254   5.160  0.4581 -1.0069  0.2465
 1426HK4    C4919710   8.480   1.419   5.306  1.0759  0.0572  0.0171
 1426HK4    H2919711   8.484   1.502   5.234  0.0528 -0.0763 -0.2035
 1426HK4     N219712   8.504   1.053   5.314  0.0429  0.3723 -0.0033
 1426HK4    C3019713   8.467   1.003   5.188 -0.0325 -0.1424  0.2229
 1426HK4    C2919714   8.365   1.034   5.099 -0.1282  0.0918  0.4134
 1426HK4    H1519715   8.301   1.120   5.119  0.7355  0.7454  0.3945
 1426HK4    C2819716   8.338   0.969   4.979 -0.0003  0.2454  0.3009
 1426HK4    C2719717   8.421   0.859   4.949  0.0857  0.3031  0.3277
 1426HK4    H1419718   8.419   0.812   4.849  0.0508 -4.0145  2.2304
 1426HK4    C3219719   8.514   0.812   5.042  0.8892  0.3865 -0.4330
 1426HK4    H1619720   8.570   0.722   5.019  0.7375 -0.1616  1.3194
 1426HK4    C3119721   8.542   0.882   5.159  0.1064  0.0029 -0.0137
 1426HK4    C3419722   8.621   0.851   5.276  0.4403  0.3963 -0.1318
 1426HK4    C3319723   8.593   0.959   5.370 -0.5661 -0.1095  0.1553
 1426HK4    C3519724   8.667   0.963   5.487 -0.3394 -0.3807  0.0217
 1426HK4    H1719725   8.685   1.062   5.530 -1.6352  0.3713 -1.1332
 1426HK4    C3619726   8.747   0.857   5.527  0.0281 -0.1110  0.0023
 1426HK4    H1819727   8.798   0.865   5.624 -1.8086  2.0984  0.8367
 1426HK4    C3719728   8.771   0.749   5.443  0.0354  0.0321 -0.1821
 1426HK4    H1919729   8.849   0.678   5.472  1.4755  1.3648 -0.7608
 1426HK4    C3819730   8.710   0.753   5.319  0.0202 -0.0048 -0.1759
 1426HK4    H2019731   8.703   0.662   5.259 -0.6822 -0.7454  1.0191
 1426HK4    C1419732   8.215   0.996   4.903 -0.3124 -0.0793  0.6929
 1426HK4     C919733   8.164   0.909   4.806  0.3196  0.1925  0.1187
 1426HK4     C819734   8.126   0.951   4.677  0.2764  0.0159  0.0723
 1426HK4    C1119735   8.116   1.088   4.659  0.9614  0.0833  0.2091
 1426HK4     H419736   8.081   1.128   4.563 -1.1183 -0.1840  0.8433
 1426HK4    C1219737   8.147   1.178   4.761 -0.5010  0.7037  0.1218
 1426HK4     H519738   8.127   1.282   4.732 -0.0846  0.6660 -0.2981
 1426HK4    C1319739   8.191   1.133   4.885 -0.4240 -0.2173 -0.2286
 1426HK4     H619740   8.183   1.202   4.971  0.9543 -0.1790 -0.1116
 1426HK4     C719741   8.105   0.854   4.567  0.2126 -0.0488  0.1425
 1426HK4     O219742   8.021   0.884   4.483 -0.0090 -0.0658  0.3568
 1426HK4     C419743   8.137   0.711   4.588 -1.2791 -0.3820  0.1919
 1426HK4     C319744   8.148   0.629   4.476 -0.1133 -0.0641  0.0671
 1426HK4     H319745   8.135   0.660   4.372 -0.5163 -1.7157 -0.3886
 1426HK4     C219746   8.169   0.494   4.499  0.3643 -0.0527 -0.2960
 1426HK4     H219747   8.161   0.425   4.414  0.3460 -0.7867  0.2874
 1426HK4     C119748   8.172   0.446   4.630  0.2489 -0.1369 -0.3251
 1426HK4     H119749   8.185   0.339   4.650 -1.5906 -0.5352 -1.2422
 1426HK4     C619750   8.169   0.529   4.744 -0.0473 -0.1340 -0.3360
 1426HK4     C519751   8.145   0.665   4.721  0.1864  0.0072  0.2482
 1426HK4    C1019752   8.146   0.763   4.833  0.0136  0.2203  0.0629
 1426HK4     O119753   8.093   0.741   4.941 -0.0704  0.4877  0.0773
 1426HK4    C1619754   8.163   0.448   4.866  0.3237  0.2912 -0.0357
 1426HK4    C1519755   8.109   0.317   4.864 -0.1816  0.4816  0.7301
 1426HK4     H719756   8.034   0.292   4.787  1.3333  1.4950 -1.1432
 1426HK4    C2019757   8.153   0.213   4.945 -0.5897  0.1320  0.5028
 1426HK4     H919758   8.114   0.112   4.934  0.4821 -0.1753 -0.5307
 1426HK4    C1919759   8.251   0.237   5.040  0.4350 -0.5192 -0.3855
 1426HK4    C1819760   8.298   0.373   5.056 -0.0874 -0.3830 -0.0228
 1426HK4    C1719761   8.258   0.471   4.966  0.1348 -0.0604  0.2297
 1426HK4     H819762   8.283   0.575   4.989 -0.8885  0.5413 -1.2669
 1426HK4     N119763   8.400   0.372   5.153 -0.4852 -0.2313  0.3988
 1426HK4    C2119764   8.435   0.238   5.176  0.2792 -0.1240 -0.1359
 1426HK4    C2219765   8.342   0.148   5.110  0.6159 -0.3110 -0.3596
 1426HK4    C2619766   8.366   0.012   5.093  0.0468 -0.3689 -0.6892
 1426HK4    H1319767   8.278  11.196   5.085 -0.9836  0.6155  2.0819
 1426HK4    C2519768   8.490  11.210   5.129 -0.0723  0.0935  0.3877
 1426HK4    H1219769   8.503  11.103   5.140 -0.9807  0.2093  2.9206
 1426HK4    C2419770   8.579   0.053   5.186  0.0341  0.3204 -0.1382
 1426HK4    H1119771   8.680   0.008   5.192 -0.6440 -1.2050  0.1517
 1426HK4    C2319772   8.560   0.188   5.210  0.3472  0.2986  0.2299
 1426HK4    H1019773   8.636   0.259   5.245  1.4904 -1.6152  1.7669
 1426HK4    C3919774   8.405   0.470   5.253  0.5813  0.0328  0.0923
 1426HK4    C4119775   8.520   0.477   5.334  0.5176 -0.2051  0.2023
 1426HK4    H2119776   8.620   0.448   5.298  0.2022  0.6829 -1.4496
 1426HK4    C4219777   8.518   0.535   5.460 -0.3977  0.6444 -0.1942
 1426HK4    H2219778   8.612   0.548   5.517  0.5042  1.2803 -1.7989
 1426HK4    C4319779   8.402   0.598   5.503 -0.1366  0.9482  0.0629
 1426HK4    H2319780   8.410   0.656   5.596  2.5166  0.4238  0.2144
 1426HK4    C4419781   8.288   0.597   5.425  0.1015 -0.2922 -0.2810
 1426HK4    H2419782   8.195   0.645   5.460 -1.1387 -1.4866 -1.8824
 1426HK4    C4519783   8.288   0.532   5.302  0.2755 -0.2184 -0.3214
 1426HK4    H2519784   8.198   0.550   5.241  0.5221  1.2222 -0.2854
 1427HK4    H2819785   1.630  10.970   8.259 -2.9933 -2.6589  0.8869
 1427HK4    C4819786   1.675  10.960   8.358 -0.1671 -0.9705 -0.1528
 1427HK4    C4719787   1.601  10.944   8.475 -0.1796  0.3596  0.0321
 1427HK4    H2719788   1.492  10.935   8.474 -0.1224 -0.2851 -2.1004
 1427HK4    C4619789   1.666  10.915   8.595  0.0639  0.2421 -0.1273
 1427HK4    H2619790   1.604  10.905   8.685  1.1883  1.7420  0.8420
 1427HK4    C4019791   1.806  10.906   8.612  0.1016  0.2343 -0.4465
 1427HK4    C5019792   1.875  10.927   8.491  0.7345  0.4647 -0.0424
 1427HK4    H3019793   1.984  10.937   8.501  0.4846  2.5044  0.7882
 1427HK4    C4919794   1.813  10.950   8.369 -0.0814  0.6710  0.4086
 1427HK4    H2919795   1.861  10.962   8.271 -2.1410  0.4098 -0.6764
 1427HK4     N219796   1.865  10.871   8.734  0.2958  0.0883 -0.5816
 1427HK4    C3019797   1.812  10.898   8.862  0.3378  0.3182 -0.6122
 1427HK4    C2919798   1.732  11.000   8.913  0.5805  0.1952  0.0134
 1427HK4    H1519799   1.723  11.089   8.850 -1.7094  2.0669  2.8682
 1427HK4    C2819800   1.686  11.005   9.044  0.0334  0.5764 -0.1900
 1427HK4    C2719801   1.710  10.889   9.121  0.0877  0.4280 -0.4305
 1427HK4    H1419802   1.662  10.892   9.220  2.2864  1.9277  0.6285
 1427HK4    C3219803   1.785  10.780   9.080 -0.1017  0.2293 -0.2471
 1427HK4    H1619804   1.810  10.700   9.150  4.4736  2.0204  0.3237
 1427HK4    C3119805   1.836  10.787   8.951 -0.1283  0.5076 -0.2428
 1427HK4    C3419806   1.927  10.699   8.879  0.0396  0.5146 -0.0400
 1427HK4    C3319807   1.947  10.758   8.748  0.4053  0.2273 -0.1155
 1427HK4    C3519808   2.051  10.707   8.671  0.4648 -0.1179  0.1909
 1427HK4    H1719809   2.078  10.747   8.574  0.6066 -0.0652  0.2495
 1427HK4    C3619810   2.128  10.601   8.719  0.3702 -0.0873  0.4125
 1427HK4    H1819811   2.210  10.570   8.653 -0.2628 -0.4760 -0.1976
 1427HK4    C3719812   2.096  10.540   8.839 -0.0098 -0.2270  0.2417
 1427HK4    H1919813   2.146  10.447   8.867  0.3645  0.7429  3.0412
 1427HK4    C3819814   2.000  10.590   8.926 -0.3040  0.1689 -0.3116
 1427HK4    H2019815   1.969  10.545   9.020  0.0125  0.0545 -0.2601
 1427HK4    C1419816   1.689  11.140   9.102  0.2515  0.7126 -0.5155
 1427HK4     C919817   1.771  11.185   9.206 -0.3250  0.3569  0.0964
 1427HK4     C819818   1.725   0.034   9.298  0.1773  0.2953  0.4083
 1427HK4    C1119819   1.604   0.098   9.278 -0.2792 -0.5490  0.4687
 1427HK4     H419820   1.549   0.156   9.354  0.5014  0.9241 -0.0732
 1427HK4    C1219821   1.531   0.072   9.162  0.0548  0.2975  0.0659
 1427HK4     H519822   1.448   0.139   9.140 -1.3897  0.0417  4.2399
 1427HK4    C1319823   1.572  11.216   9.079  0.0488  0.4987 -0.1898
 1427HK4     H619824   1.507  11.185   8.996 -0.4254  0.1494  0.3117
 1427HK4     C719825   1.818   0.093   9.397  0.2709  0.3087  0.3140
 1427HK4     O219826   1.768   0.146   9.496 -0.3535  0.3330 -0.0114
 1427HK4     C419827   1.959   0.050   9.389  0.1410 -0.0968  0.1870
 1427HK4     C319828   2.060   0.126   9.449 -0.2150  0.1257  0.5036
 1427HK4     H319829   2.041   0.233   9.459 -0.6236  0.1633 -0.5495
 1427HK4     C219830   2.183   0.069   9.478 -0.4011 -0.4229  0.2488
 1427HK4     H219831   2.261   0.137   9.517 -2.2832  1.8054  0.2707
 1427HK4     C119832   2.204  11.184   9.445  0.3707 -0.2377 -0.0293
 1427HK4     H119833   2.310  11.157   9.441  0.8469  1.0212  2.9572
 1427HK4     C619834   2.102  11.105   9.387  0.0296  0.2899 -0.1510
 1427HK4     C519835   1.984  11.167   9.343  0.0048  0.0763 -0.3819
 1427HK4    C1019836   1.904  11.123   9.225 -0.4349  0.0661 -0.0832
 1427HK4     O119837   1.967  11.098   9.122 -0.2237 -0.1915  0.1062
 1427HK4    C1619838   2.118  10.965   9.427  0.1781  0.1551 -0.6799
 1427HK4    C1519839   2.042  10.868   9.358 -0.6128  0.0974  0.2673
 1427HK4     H719840   1.967  10.887   9.279  1.6159  1.2647 -1.6394
 1427HK4    C2019841   2.051  10.735   9.397  0.3126 -0.0532 -0.4378
 1427HK4     H919842   1.962  10.676   9.373 -0.0775  0.8010 -1.1465
 1427HK4    C1919843   2.136  10.695   9.499  0.2241 -0.2489 -0.4379
 1427HK4    C1819844   2.206  10.794   9.577 -0.5508 -0.3661  0.4133
 1427HK4    C1719845   2.191  10.927   9.538  0.0695 -0.6700 -0.8858
 1427HK4     H819846   2.257  11.000   9.585 -0.5027 -0.3092 -0.6441
 1427HK4     N119847   2.280  10.736   9.682  0.0456  0.0468  0.2268
 1427HK4    C2119848   2.251  10.598   9.677  0.3922 -0.0224  0.0693
 1427HK4    C2219849   2.168  10.568   9.562  0.1577  0.0589  0.2163
 1427HK4    C2619850   2.144  10.434   9.531  0.0429  0.0179  0.4838
 1427HK4    H1319851   2.085  10.419   9.441  0.7871 -1.2568  0.2037
 1427HK4    C2519852   2.182  10.326   9.610  0.4399 -0.3670 -0.2249
 1427HK4    H1219853   2.166  10.228   9.565  0.2615 -0.5644  0.2658
 1427HK4    C2419854   2.261  10.353   9.722 -0.1762 -0.3858  0.2202
 1427HK4    H1119855   2.298  10.280   9.794  1.5947  0.2386 -0.0312
 1427HK4    C2319856   2.291  10.486   9.749 -0.2191 -0.3198 -0.0521
 1427HK4    H1019857   2.348  10.507   9.840 -0.7860  1.3269 -0.0591
 1427HK4    C3919858   2.322  10.807   9.795  0.5614  0.9681 -0.5357
 1427HK4    C4119859   2.437  10.759   9.861 -0.4235 -0.3626  0.2500
 1427HK4    H2119860   2.521  10.727   9.797 -1.1092 -3.6739  0.9062
 1427HK4    C4219861   2.460  10.767   9.998 -0.0148 -0.1156  0.1659
 1427HK4    H2219862   2.543  10.716  10.049 -1.2873 -2.4949 -0.0875
 1427HK4    C4319863   2.370  10.842  10.073 -0.0020 -0.1815  0.2528
 1427HK4    H2319864   2.381  10.867  10.179 -1.2512  1.0293  0.0940
 1427HK4    C4419865   2.254  10.894  10.017  0.2704  0.1399 -0.0125
 1427HK4    H2419866   2.186  10.951  10.081  0.3079 -0.0703  0.2126
 1427HK4    C4519867   2.235  10.878   9.880  0.2656 -0.0239  0.0068
 1427HK4    H2519868   2.138  10.908   9.836  0.3960  3.7011  2.0360
 1428HK4    H2819869   2.020   4.531   5.020  0.3461  1.2715 -0.0995
 1428HK4    C4819870   2.111   4.496   5.067 -0.2523 -0.2213 -0.0293
 1428HK4    C4719871   2.199   4.421   4.989  0.3071  0.6537 -0.2449
 1428HK4    H2719872   2.164   4.384   4.891 -2.0273 -1.9107  1.4885
 1428HK4    C4619873   2.328   4.400   5.036  0.2681 -0.3193 -0.5649
 1428HK4    H2619874   2.403   4.343   4.979  0.4868 -1.6978  1.0551
 1428HK4    C4019875   2.369   4.442   5.164 -0.3226  0.2881 -0.5721
 1428HK4    C5019876   2.277   4.518   5.238 -0.1299 -0.0115 -0.0211
 1428HK4    H3019877   2.310   4.548   5.339  0.8685 -1.2059  0.0101
 1428HK4    C4919878   2.151   4.551   5.189  0.0811  0.2862 -0.3657
 1428HK4    H2919879   2.075   4.595   5.254 -0.9273 -0.3643 -1.0845
 1428HK4     N219880   2.506   4.450   5.190 -0.4131 -0.6261  0.2316
 1428HK4    C3019881   2.620   4.491   5.117 -0.2401 -0.6074  0.5104
 1428HK4    C2919882   2.626   4.508   4.979  0.7912  0.3354  0.6700
 1428HK4    H1519883   2.530   4.513   4.927  2.3290 -0.3714 -2.3531
 1428HK4    C2819884   2.749   4.506   4.914  0.2320  0.8053 -0.4141
 1428HK4    C2719885   2.860   4.505   5.001 -0.1405  0.2093  0.0617
 1428HK4    H1419886   2.962   4.517   4.961  0.7443 -2.3411  1.4387
 1428HK4    C3219887   2.864   4.501   5.140  0.3847  0.4463  0.0557
 1428HK4    H1619888   2.954   4.490   5.200 -0.4862 -0.1239  1.3036
 1428HK4    C3119889   2.738   4.495   5.200  0.2508  0.3497 -0.2312
 1428HK4    C3419890   2.697   4.452   5.332  0.5141 -0.2105 -0.3315
 1428HK4    C3319891   2.558   4.414   5.316  0.1210  0.8710  0.4546
 1428HK4    C3519892   2.511   4.314   5.401  0.0211  0.5009 -0.0313
 1428HK4    H1719893   2.410   4.274   5.400  0.3781 -0.4037 -2.2209
 1428HK4    C3619894   2.596   4.261   5.498  0.4337  0.0464 -0.6385
 1428HK4    H1819895   2.560   4.187   5.572 -0.7557  1.4940  0.2582
 1428HK4    C3719896   2.722   4.310   5.529  0.1150  0.3348  0.2060
 1428HK4    H1919897   2.789   4.256   5.595  0.5187 -0.2212 -0.6555
 1428HK4    C3819898   2.770   4.408   5.442  0.3902 -0.2017 -0.2464
 1428HK4    H2019899   2.877   4.427   5.447  0.7932 -2.5144  0.5405
 1428HK4    C1419900   2.754   4.425   4.792 -0.1636 -0.3838  0.3525
 1428HK4     C919901   2.836   4.316   4.763 -0.0072 -0.2349  0.2374
 1428HK4     C819902   2.882   4.289   4.632 -0.1098 -0.6733  0.2908
 1428HK4    C1119903   2.830   4.369   4.531  0.1257 -0.2652  0.4892
 1428HK4     H419904   2.868   4.360   4.428  1.6323  2.7284  0.7418
 1428HK4    C1219905   2.736   4.469   4.552  0.1706 -0.1757  0.2757
 1428HK4     H519906   2.696   4.524   4.466  1.2479 -2.7586 -1.9183
 1428HK4    C1319907   2.697   4.495   4.683 -0.0060 -0.3939  0.2646
 1428HK4     H619908   2.623   4.574   4.701 -0.1945 -0.4757 -0.1421
 1428HK4     C719909   2.964   4.171   4.597  0.3639 -0.1775 -0.2942
 1428HK4     O219910   3.013   4.159   4.485  0.0905 -0.7461 -0.3568
 1428HK4     C419911   2.984   4.077   4.709  0.0633 -0.0017 -0.0948
 1428HK4     C319912   3.052   3.958   4.686  0.1161 -0.1135  0.6332
 1428HK4     H319913   3.059   3.922   4.583 -0.2921  0.1115  0.5286
 1428HK4     C219914   3.110   3.877   4.784  0.4568  0.0407  0.5593
 1428HK4     H219915   3.142   3.773   4.770  0.7157  0.1715  0.1735
 1428HK4     C119916   3.115   3.927   4.913  0.9045  0.2132  0.4744
 1428HK4     H119917   3.163   3.874   4.996  3.1617  1.5043  0.0398
 1428HK4     C619918   3.049   4.049   4.938 -0.8408 -0.6188  0.0143
 1428HK4     C519919   2.970   4.116   4.844  0.2345  0.3760 -0.1865
 1428HK4    C1019920   2.872   4.224   4.874  0.0180  0.0056  0.4281
 1428HK4     O119921   2.793   4.199   4.965 -0.0311 -0.4938  0.2475
 1428HK4    C1619922   3.066   4.106   5.073 -0.0412 -0.0034 -0.3446
 1428HK4    C1519923   3.133   4.230   5.089  0.1048 -0.1561  0.2326
 1428HK4     H719924   3.165   4.285   4.999  0.8605 -0.8219  0.0911
 1428HK4    C2019925   3.151   4.280   5.217  0.0295  0.1015  0.1429
 1428HK4     H919926   3.208   4.369   5.244  0.6422 -0.6713  1.4559
 1428HK4    C1919927   3.105   4.209   5.327 -0.6299  0.6899  0.2508
 1428HK4    C1819928   3.038   4.081   5.314 -0.0560  0.3966  0.1442
 1428HK4    C1719929   3.023   4.035   5.184  0.2751  0.4634  0.0819
 1428HK4     H819930   2.989   3.933   5.167 -1.0257  0.8932  0.0839
 1428HK4     N119931   3.034   4.015   5.438 -0.0278  0.2267  0.0555
 1428HK4    C2119932   3.093   4.100   5.534 -0.3436 -0.0069  0.4586
 1428HK4    C2219933   3.144   4.218   5.467  0.3187 -0.5099  0.0712
 1428HK4    C2619934   3.184   4.324   5.547 -0.4779  0.0571 -0.2749
 1428HK4    H1319935   3.177   4.422   5.500  0.7104  0.0635 -0.4498
 1428HK4    C2519936   3.204   4.321   5.684 -0.0790 -0.0206 -0.3317
 1428HK4    H1219937   3.239   4.404   5.745  0.6914 -1.7041  1.5584
 1428HK4    C2419938   3.157   4.204   5.743  0.1189  0.2050  0.2679
 1428HK4    H1119939   3.150   4.198   5.853 -1.0985  1.1087  0.2516
 1428HK4    C2319940   3.110   4.094   5.672  0.0123  0.1511  0.4216
 1428HK4    H1019941   3.080   4.002   5.721 -2.0860 -0.6959 -2.3997
 1428HK4    C3919942   2.927   3.932   5.473 -0.0545  0.2297 -0.0231
 1428HK4    C4119943   2.941   3.821   5.558  0.3590  0.2367 -0.0821
 1428HK4    H2119944   3.035   3.789   5.605  1.3004  0.7685 -1.5556
 1428HK4    C4219945   2.829   3.757   5.610 -0.0126  1.0394  0.1045
 1428HK4    H2219946   2.844   3.662   5.663  0.0608 -0.3374 -2.3143
 1428HK4    C4319947   2.701   3.805   5.584 -0.4460 -0.1220  0.0758
 1428HK4    H2319948   2.624   3.729   5.595 -0.9933  0.3912 -0.2034
 1428HK4    C4419949   2.689   3.916   5.502 -0.1067  0.1924  0.4487
 1428HK4    H2419950   2.590   3.964   5.496 -1.3679 -2.4026 -0.0116
 1428HK4    C4519951   2.797   3.982   5.445 -0.1494  0.2326  0.4150
 1428HK4    H2519952   2.782   4.084   5.406  0.3992  0.0553 -0.2821
 1429HK4    H2819953  11.093   8.386   7.002  1.3176 -0.2695 -0.3609
 1429HK4    C4819954  11.098   8.391   6.893  0.3199 -0.5621 -0.4223
 1429HK4    C4719955  11.205   8.332   6.827  1.1355  0.0423  0.3346
 1429HK4    H2719956   0.028   8.275   6.888 -0.4470  0.9659  3.1126
 1429HK4    C4619957  11.206   8.342   6.688 -0.4346  0.7279  0.3636
 1429HK4    H2619958   0.040   8.304   6.626  0.0136  0.0663  1.3474
 1429HK4    C4019959  11.099   8.400   6.617 -0.3312  0.3939 -0.0696
 1429HK4    C5019960  10.997   8.462   6.693 -0.4803  0.1936 -0.1009
 1429HK4    H3019961  10.919   8.523   6.645 -0.5827 -0.0757 -0.2714
 1429HK4    C4919962  10.992   8.457   6.832  0.2234 -0.4187 -0.0995
 1429HK4    H2919963  10.895   8.476   6.879 -0.8922  1.9217 -3.1946
 1429HK4     N219964  11.058   8.344   6.496 -0.3034 -0.3228  0.2543
 1429HK4    C3019965  11.056   8.211   6.448  0.2473 -0.0639 -0.5043
 1429HK4    C2919966  11.102   8.092   6.503 -0.6845  0.0417  0.5400
 1429HK4    H1519967  11.151   8.096   6.601 -0.8789  1.2772  0.6027
 1429HK4    C2819968  11.075   7.973   6.438  0.1442  0.2061 -0.1228
 1429HK4    C2719969  10.985   7.971   6.329  0.0898  0.4592 -0.0831
 1429HK4    H1419970  10.936   7.876   6.304 -1.4369  1.0418  0.6771
 1429HK4    C3219971  10.933   8.087   6.273 -0.1520  0.0311 -0.7479
 1429HK4    H1619972  10.852   8.086   6.200 -2.9261  0.4836  2.2166
 1429HK4    C3119973  10.975   8.208   6.328 -0.7951 -0.1624  0.1846
 1429HK4    C3419974  10.930   8.343   6.299 -0.4135  0.0833  0.7335
 1429HK4    C3319975  10.994   8.425   6.400  0.2448  0.1316  0.2762
 1429HK4    C3519976  10.969   8.562   6.395  0.0295  0.0718 -0.3578
 1429HK4    H1719977  11.020   8.626   6.467 -0.8790 -0.1472  0.4933
 1429HK4    C3619978  10.878   8.625   6.311  0.4122  0.1857 -0.6839
 1429HK4    H1819979  10.856   8.733   6.310 -0.2451  0.0922 -3.7800
 1429HK4    C3719980  10.826   8.541   6.213 -0.1867 -0.1249 -0.1060
 1429HK4    H1919981  10.794   8.591   6.121 -0.7377 -0.6591 -0.2087
 1429HK4    C3819982  10.845   8.404   6.208  0.0277 -0.1049  0.1889
 1429HK4    H2019983  10.803   8.353   6.121  1.5959 -2.6094  0.8420
 1429HK4    C1419984  11.134   7.844   6.478  0.4430  0.3624 -0.0621
 1429HK4     C919985  11.144   7.728   6.400 -0.1611  0.2016  0.0979
 1429HK4     C819986  11.147   7.601   6.460  0.5943 -0.0229 -0.4276
 1429HK4    C1119987  11.146   7.594   6.599  0.0526 -0.0050 -0.4329
 1429HK4     H419988  11.181   7.502   6.646 -0.6447  0.6712  1.4410
 1429HK4    C1219989  11.141   7.704   6.684 -0.3750  0.3334 -0.8937
 1429HK4     H519990  11.118   7.686   6.790 -2.5415 -0.0147 -1.3968
 1429HK4    C1319991  11.132   7.826   6.618 -0.9914  0.7612 -0.0257
 1429HK4     H619992  11.090   7.911   6.674 -3.1152  0.1418 -0.6215
 1429HK4     C719993  11.168   7.479   6.378 -1.1018 -0.1590 -0.6730
 1429HK4     O219994  11.133   7.370   6.424 -0.2721  0.0349  0.4414
 1429HK4     C419995  11.206   7.488   6.236 -0.3069  0.3141 -0.4315
 1429HK4     C319996  11.247   7.378   6.161 -0.4724 -0.0106 -0.0446
 1429HK4     H319997   0.017   7.278   6.203 -0.7081 -0.7814 -1.7311
 1429HK4     C219998   0.044   7.400   6.031  0.1369 -0.1448  0.1443
 1429HK4     H219999   0.110   7.325   5.985  1.2739  1.0289 -0.1484
 1429HK4     C120000   0.029   7.524   5.972  0.2551 -0.1083  0.1932
 1429HK4     H120001   0.111   7.557   5.905  0.2416 -1.2611 -0.4018
 1429HK4     C620002  11.207   7.627   6.037 -0.0363  0.0058 -0.2987
 1429HK4     C520003  11.200   7.616   6.176 -0.1133  0.3996 -0.2697
 1429HK4    C1020004  11.190   7.740   6.259  0.5145  0.0644  0.3059
 1429HK4     O120005  11.248   7.840   6.217  0.3700 -0.3408 -0.8758
 1429HK4    C1620006  11.125   7.714   5.951 -0.5539 -0.4101 -0.2296
 1429HK4    C1520007  11.011   7.786   5.992 -0.1678  0.2006 -0.2160
 1429HK4     H720008  10.991   7.810   6.098  0.7407 -0.9712  0.2415
 1429HK4    C2020009  10.921   7.849   5.908 -0.6221 -0.0050  0.1128
 1429HK4     H920010  10.840   7.908   5.949  0.1164 -0.1896  1.8631
 1429HK4    C1920011  10.952   7.850   5.772 -0.0339 -0.6074  0.2340
 1429HK4    C1820012  11.071   7.785   5.722  0.3948  0.3006  0.0701
 1429HK4    C1720013  11.150   7.717   5.814  0.3070  0.0100 -0.0680
 1429HK4     H820014  11.225   7.653   5.767  2.0577  1.5752  0.5757
 1429HK4     N120015  11.098   7.827   5.590 -0.4456 -0.0519 -0.2144
 1429HK4    C2120016  10.993   7.913   5.551 -0.1798  0.5183  0.3246
 1429HK4    C2220017  10.905   7.935   5.664 -0.2560 -0.4444  0.4569
 1429HK4    C2620018  10.776   7.982   5.645  0.1443  0.3165 -0.4004
 1429HK4    H1320019  10.713   8.009   5.730  0.3942  0.3570 -0.2305
 1429HK4    C2520020  10.723   7.999   5.517  0.2128 -0.0237 -0.4721
 1429HK4    H1220021  10.619   8.016   5.491 -0.2454 -0.8334  0.7671
 1429HK4    C2420022  10.810   7.982   5.410 -0.1053  0.0342 -0.7396
 1429HK4    H1120023  10.771   8.020   5.314 -1.6877 -0.1347 -0.1687
 1429HK4    C2320024  10.942   7.940   5.425 -0.4881 -0.8686  0.1498
 1429HK4    H1020025  11.004   7.955   5.337 -0.3097 -2.5575 -0.0286
 1429HK4    C3920026  11.227   7.827   5.535 -0.2939 -0.5717  0.1433
 1429HK4    C4120027  11.244   7.828   5.395  0.1950 -0.2424  0.2033
 1429HK4    H2120028  11.162   7.804   5.326 -0.1052  0.1719  0.4164
 1429HK4    C4220029   0.119   7.841   5.333  0.0007 -0.3962 -0.2178
 1429HK4    H2220030   0.124   7.854   5.224  0.4020 -0.3740 -0.1959
 1429HK4    C4320031   0.235   7.848   5.409 -0.0600 -0.2531 -0.1363
 1429HK4    H2320032   0.336   7.851   5.366  0.3768 -0.2322  0.8868
 1429HK4    C4420033   0.222   7.860   5.546 -0.1563  0.1100 -0.1771
 1429HK4    H2420034   0.309   7.844   5.613 -1.5419 -3.5534  0.8696
 1429HK4    C4520035   0.097   7.856   5.606 -0.1463 -0.3749 -0.1836
 1429HK4    H2520036   0.094   7.866   5.716  1.9229 -0.7722 -0.0634
 1430HK4    H2820037   3.721   8.428   3.376  0.3541  0.3888  0.1017
 1430HK4    C4820038   3.800   8.448   3.303  0.2287 -0.2987 -0.2299
 1430HK4    C4720039   3.795   8.561   3.223  0.7743  0.3625  0.6586
 1430HK4    H2720040   3.732   8.646   3.256  1.3193  0.8794  0.3708
 1430HK4    C4620041   3.884   8.580   3.118 -0.2795  0.1565 -0.2749
 1430HK4    H2620042   3.878   8.671   3.056  1.7432 -0.2050 -1.0502
 1430HK4    C4020043   3.979   8.480   3.091  0.6608  0.7843  0.6890
 1430HK4    C5020044   3.980   8.365   3.173  0.5069  0.4334  0.1989
 1430HK4    H3020045   4.049   8.281   3.155 -1.6698 -0.8449 -2.6433
 1430HK4    C4920046   3.898   8.351   3.284  0.5689 -0.0399  0.1861
 1430HK4    H2920047   3.909   8.263   3.350 -0.7729 -0.6222 -0.3463
 1430HK4     N220048   4.045   8.476   2.968 -0.3084 -0.1452  0.1903
 1430HK4    C3020049   4.014   8.533   2.842 -0.1215  0.1683  0.2866
 1430HK4    C2920050   3.889   8.561   2.788 -0.0451  0.5568  0.3055
 1430HK4    H1520051   3.801   8.516   2.834  1.9046 -2.0427  1.6842
 1430HK4    C2820052   3.881   8.620   2.663  0.3821 -0.3901 -0.1774
 1430HK4    C2720053   3.998   8.642   2.588  0.2102  0.0089 -0.3308
 1430HK4    H1420054   3.989   8.687   2.488  0.1368 -0.5034 -0.5589
 1430HK4    C3220055   4.122   8.603   2.636 -0.0411 -0.1342  0.2068
 1430HK4    H1620056   4.202   8.617   2.563 -0.3218  2.4659  0.3569
 1430HK4    C3120057   4.135   8.549   2.763 -0.0116  0.7020  0.5599
 1430HK4    C3420058   4.243   8.497   2.845  0.2735 -0.0102 -0.2616
 1430HK4    C3320059   4.184   8.452   2.969 -0.1521  0.6973 -0.2071
 1430HK4    C3520060   4.268   8.415   3.073 -0.0491  0.6597 -0.3043
 1430HK4    H1720061   4.231   8.375   3.168 -3.1153  1.2684 -1.1929
 1430HK4    C3620062   4.405   8.417   3.050  0.0125 -0.4373 -0.0562
 1430HK4    H1820063   4.473   8.399   3.134 -1.3835  0.0591  1.1972
 1430HK4    C3720064   4.461   8.457   2.929 -0.0747 -0.3725 -0.0757
 1430HK4    H1920065   4.568   8.448   2.908  0.3402 -0.0220  1.7850
 1430HK4    C3820066   4.381   8.503   2.826  0.2857  0.1674 -0.1146
 1430HK4    H2020067   4.417   8.569   2.747  1.7470 -1.3019 -0.6906
 1430HK4    C1420068   3.752   8.624   2.592  0.2301  0.0201  0.1180
 1430HK4     C920069   3.724   8.607   2.456  0.9844  0.7368 -0.1362
 1430HK4     C820070   3.616   8.681   2.403 -0.5242 -1.0733  0.3438
 1430HK4    C1120071   3.530   8.753   2.484 -0.4337 -0.7515  0.1571
 1430HK4     H420072   3.446   8.810   2.441 -0.2797  0.4132  1.3516
 1430HK4    C1220073   3.547   8.760   2.622  0.1550  0.5091  0.0262
 1430HK4     H520074   3.491   8.826   2.690 -1.4999 -1.4398  0.6255
 1430HK4    C1320075   3.659   8.694   2.672  0.0518  0.1530 -0.2057
 1430HK4     H620076   3.657   8.689   2.781 -1.4424  3.3316 -0.0444
 1430HK4     C720077   3.588   8.680   2.257 -0.1001 -0.5643  0.2589
 1430HK4     O220078   3.488   8.731   2.209  0.1586  0.0478  0.3706
 1430HK4     C420079   3.670   8.593   2.170  0.0289  0.0170 -0.2029
 1430HK4     C320080   3.679   8.605   2.031  0.5346 -0.3165 -0.2011
 1430HK4     H320081   3.632   8.684   1.972  1.6157  0.9495  0.6219
 1430HK4     C220082   3.736   8.506   1.952  0.1545 -0.2659 -0.5442
 1430HK4     H220083   3.796   8.540   1.866 -0.4732  2.2449 -0.0176
 1430HK4     C120084   3.765   8.385   2.014 -0.0922  0.0195  0.1252
 1430HK4     H120085   3.823   8.313   1.955  0.0083  0.0991  0.1260
 1430HK4     C620086   3.747   8.364   2.153 -0.0563 -0.0070  0.1253
 1430HK4     C520087   3.718   8.476   2.232  0.0306  0.1141 -0.0169
 1430HK4    C1020088   3.770   8.494   2.370 -0.0616  0.1819  0.0090
 1430HK4     O120089   3.874   8.434   2.395  0.1544  0.5899  0.1090
 1430HK4    C1620090   3.724   8.226   2.199  0.3833 -0.1247 -0.0041
 1430HK4    C1520091   3.704   8.116   2.113 -0.7071  0.0896 -0.0381
 1430HK4     H720092   3.767   8.106   2.023 -0.9185 -3.4588  0.1358
 1430HK4    C2020093   3.648   7.993   2.146 -0.0253 -0.2232 -0.0174
 1430HK4     H920094   3.656   7.911   2.075  2.2765 -0.1756  0.1643
 1430HK4    C1920095   3.601   7.974   2.275  0.3045 -0.4975  0.0601
 1430HK4    C1820096   3.612   8.085   2.368 -0.2188 -0.0428 -0.4270
 1430HK4    C1720097   3.668   8.204   2.324  1.0575 -0.3833  0.2560
 1430HK4     H820098   3.652   8.285   2.395 -2.3223 -0.5519 -0.2403
 1430HK4     N120099   3.567   8.053   2.497  0.7851  0.2423 -0.0030
 1430HK4    C2120100   3.543   7.914   2.491  0.4055  0.2956  0.1667
 1430HK4    C2220101   3.551   7.864   2.355 -0.2918 -0.0797  0.2642
 1430HK4    C2620102   3.538   7.727   2.333 -0.1364 -0.1093  0.3509
 1430HK4    H1320103   3.538   7.692   2.230  0.7453 -0.1415  0.3525
 1430HK4    C2520104   3.512   7.635   2.433  0.8372 -0.4125  0.3367
 1430HK4    H1220105   3.555   7.536   2.421 -2.0953 -1.4887 -2.1028
 1430HK4    C2420106   3.500   7.687   2.561  0.6697 -0.1559  0.2164
 1430HK4    H1120107   3.499   7.616   2.645  2.7592 -1.8880 -1.1825
 1430HK4    C2320108   3.516   7.822   2.591  0.8179 -0.1050 -0.0881
 1430HK4    H1020109   3.486   7.853   2.691 -0.9559 -2.5961  0.1983
 1430HK4    C3920110   3.599   8.121   2.616 -0.3306  0.3127  0.2731
 1430HK4    C4120111   3.510   8.125   2.724 -0.4303  0.2461  0.1942
 1430HK4    H2120112   3.411   8.079   2.714  0.2279 -1.3069  0.7354
 1430HK4    C4220113   3.540   8.199   2.838  0.3728 -0.5283  0.4929
 1430HK4    H2220114   3.462   8.224   2.912 -0.3864  0.0205 -0.4859
 1430HK4    C4320115   3.660   8.269   2.849 -0.0759  0.2366  0.6033
 1430HK4    H2320116   3.692   8.323   2.938  0.0059  0.2494  0.5670
 1430HK4    C4420117   3.750   8.254   2.744 -0.5642  0.0597  0.2037
 1430HK4    H2420118   3.848   8.304   2.750 -1.4022  1.8485 -0.7242
 1430HK4    C4520119   3.725   8.183   2.627 -0.3739  0.4668 -0.0874
 1430HK4    H2520120   3.806   8.171   2.553 -1.5324 -1.1043 -1.1275
 1431HK4    H2820121   2.389   6.745   4.398 -3.8958 -2.7200 -0.5132
 1431HK4    C4820122   2.387   6.787   4.297 -0.1352 -0.4569  0.2508
 1431HK4    C4720123   2.274   6.843   4.239 -0.2426 -0.6453  0.2785
 1431HK4    H2720124   2.191   6.875   4.304 -0.9433  0.2374 -1.0367
 1431HK4    C4620125   2.264   6.850   4.101 -0.2928 -0.3233  0.2986
 1431HK4    H2620126   2.191   6.911   4.047 -0.2818 -1.0491 -0.5518
 1431HK4    C4020127   2.374   6.812   4.021  0.0710  0.7447  0.2813
 1431HK4    C5020128   2.490   6.763   4.086 -0.1923  0.1606  0.3116
 1431HK4    H3020129   2.573   6.724   4.025  0.0355 -0.3189  0.9284
 1431HK4    C4920130   2.500   6.751   4.224 -0.0663 -0.2770  0.2658
 1431HK4    H2920131   2.595   6.711   4.263 -1.0409 -2.4913  0.4650
 1431HK4     N220132   2.364   6.801   3.882  0.1023  0.4844  0.2983
 1431HK4    C3020133   2.242   6.781   3.813  0.2288  0.3278  0.1221
 1431HK4    C2920134   2.118   6.740   3.858  0.2586 -0.3121 -0.3629
 1431HK4    H1520135   2.118   6.704   3.961 -1.3440 -1.2978 -0.6943
 1431HK4    C2820136   2.002   6.737   3.781  0.0323  0.4509 -0.0607
 1431HK4    C2720137   2.023   6.753   3.643 -0.1911 -0.4033 -0.1929
 1431HK4    H1420138   1.939   6.761   3.572  1.6105 -2.3566 -2.6750
 1431HK4    C3220139   2.148   6.780   3.588 -0.0901 -0.1774  0.1508
 1431HK4    H1620140   2.149   6.794   3.480 -0.8610 -0.3315  0.1197
 1431HK4    C3120141   2.260   6.792   3.669 -0.0930  0.3286  0.0809
 1431HK4    C3420142   2.402   6.817   3.652 -0.0355  0.0016  0.0571
 1431HK4    C3320143   2.462   6.828   3.784  0.1785 -0.7956  0.0239
 1431HK4    C3520144   2.597   6.861   3.787  0.0037 -0.1132  0.4168
 1431HK4    H1720145   2.626   6.928   3.868  0.5776 -0.9846  0.9321
 1431HK4    C3620146   2.666   6.879   3.668  0.3465  0.4693  0.6991
 1431HK4    H1820147   2.764   6.927   3.673  0.1428  1.1868 -1.7514
 1431HK4    C3720148   2.609   6.856   3.543  0.0395  0.4617  0.8392
 1431HK4    H1920149   2.664   6.905   3.462 -0.8651 -2.9448 -1.9877
 1431HK4    C3820150   2.474   6.827   3.534  0.1823 -0.0176  0.1861
 1431HK4    H2020151   2.428   6.817   3.435  1.9559 -0.0994 -0.6454
 1431HK4    C1420152   1.871   6.696   3.835  0.6063 -0.7900  0.4032
 1431HK4     C920153   1.762   6.658   3.756  0.2908 -0.4311  0.6669
 1431HK4     C820154   1.636   6.721   3.765  0.3346 -0.3458  0.6808
 1431HK4    C1120155   1.614   6.812   3.868 -0.0435  0.1165  0.1980
 1431HK4     H420156   1.527   6.877   3.881  1.0114  1.6020 -0.0465
 1431HK4    C1220157   1.712   6.840   3.962 -0.0416  0.0648  0.2115
 1431HK4     H520158   1.697   6.906   4.048  1.0969 -0.0468  0.5095
 1431HK4    C1320159   1.837   6.782   3.941 -0.1148  0.2092 -0.6279
 1431HK4     H620160   1.917   6.815   4.009 -0.0641 -0.4321 -0.3823
 1431HK4     C720161   1.529   6.703   3.664  0.5569  0.0418  0.3726
 1431HK4     O220162   1.413   6.702   3.702  0.3918  0.1658 -0.1235
 1431HK4     C420163   1.572   6.651   3.532 -0.1197 -0.2848  0.2785
 1431HK4     C320164   1.494   6.673   3.419 -0.1167  0.1280  0.3559
 1431HK4     H320165   1.410   6.744   3.420  0.0560  0.3606  2.9996
 1431HK4     C220166   1.532   6.619   3.297  0.0985  0.1453  0.4153
 1431HK4     H220167   1.467   6.639   3.211  0.3548  2.4238  0.7252
 1431HK4     C120168   1.654   6.552   3.291  0.3960  0.6944  0.2855
 1431HK4     H120169   1.686   6.527   3.189  0.3996  0.8173  0.2559
 1431HK4     C620170   1.733   6.524   3.404  0.1165  0.0113  0.3149
 1431HK4     C520171   1.685   6.567   3.529  0.0936  0.0020  0.3097
 1431HK4    C1020172   1.767   6.551   3.652 -0.5404 -0.4762  0.6692
 1431HK4     O120173   1.778   6.436   3.694  0.2093 -0.5040  0.3967
 1431HK4    C1620174   1.844   6.431   3.379 -0.0625 -0.0312 -0.3058
 1431HK4    C1520175   1.831   6.338   3.273  0.4084 -0.0736 -0.3267
 1431HK4     H720176   1.742   6.273   3.281  1.0903 -1.2043 -1.7268
 1431HK4    C2020177   1.942   6.283   3.210  0.1893 -0.6261 -0.2291
 1431HK4     H920178   1.934   6.236   3.111 -1.2623  0.6261 -0.7294
 1431HK4    C1920179   2.068   6.316   3.256 -0.2619  0.2979  0.3396
 1431HK4    C1820180   2.084   6.406   3.369  0.2222  0.6226  0.0147
 1431HK4    C1720181   1.970   6.461   3.427 -0.1366  0.1124 -0.2009
 1431HK4     H820182   1.993   6.540   3.498 -2.0046  2.0193 -1.6699
 1431HK4     N120183   2.217   6.411   3.417  0.1094 -0.2990  0.4461
 1431HK4    C2120184   2.283   6.313   3.340  0.2913  0.4861 -0.4081
 1431HK4    C2220185   2.196   6.250   3.243 -0.4417 -0.1094  0.6294
 1431HK4    C2620186   2.247   6.160   3.150  0.2420  0.7887  0.1261
 1431HK4    H1320187   2.184   6.121   3.070  1.4127 -1.2475  0.1370
 1431HK4    C2520188   2.383   6.131   3.151  0.0892  0.0360 -0.6287
 1431HK4    H1220189   2.422   6.055   3.082  1.6184 -2.4153  2.7848
 1431HK4    C2420190   2.467   6.182   3.249 -0.4995 -0.3116  0.0623
 1431HK4    H1120191   2.577   6.168   3.247 -0.3329  1.0161 -0.1286
 1431HK4    C2320192   2.417   6.273   3.340  0.1432 -0.0144  0.1247
 1431HK4    H1020193   2.487   6.324   3.407  0.3165  1.5654 -1.2286
 1431HK4    C3920194   2.245   6.426   3.553 -0.2148 -0.0824  0.4883
 1431HK4    C4120195   2.373   6.470   3.592 -0.0864 -0.1484  0.1518
 1431HK4    H2120196   2.436   6.527   3.523  0.1723  0.3594  0.7973
 1431HK4    C4220197   2.418   6.459   3.723 -0.2601 -0.2550  0.2016
 1431HK4    H2220198   2.508   6.512   3.756 -1.7320  1.7230  1.1530
 1431HK4    C4320199   2.334   6.403   3.819 -0.6097  0.5628  0.3786
 1431HK4    H2320200   2.361   6.415   3.924 -0.1985 -0.6185  0.4165
 1431HK4    C4420201   2.213   6.347   3.780 -0.2531 -0.1704  0.3036
 1431HK4    H2420202   2.160   6.285   3.854  1.9032 -0.5558  1.5577
 1431HK4    C4520203   2.166   6.361   3.650 -0.1336 -0.6006  0.2130
 1431HK4    H2520204   2.075   6.304   3.626  0.0090 -1.8025  2.3605
 1432HK4    H2820205   3.990   8.284   4.009 -0.5791 -1.4472  0.1567
 1432HK4    C4820206   4.069   8.260   3.938 -0.4347 -0.2194 -0.1223
 1432HK4    C4720207   4.042   8.217   3.809 -0.2213  0.4339 -0.3852
 1432HK4    H2720208   3.936   8.216   3.780 -0.2900 -0.6375 -0.1148
 1432HK4    C4620209   4.141   8.160   3.730 -0.2068 -0.6086  0.3693
 1432HK4    H2620210   4.123   8.145   3.623 -0.1902  2.3776 -0.0989
 1432HK4    C4020211   4.275   8.145   3.772  0.2320  0.3662 -0.6498
 1432HK4    C5020212   4.304   8.194   3.901 -0.4722  0.1578 -0.4090
 1432HK4    H3020213   4.405   8.215   3.940 -0.5246  0.2230 -0.3085
 1432HK4    C4920214   4.202   8.246   3.979 -0.3750  0.0709 -0.2224
 1432HK4    H2920215   4.221   8.262   4.086 -1.0019  2.8400 -0.4635
 1432HK4     N220216   4.352   8.046   3.710 -0.0264 -0.0188 -0.3580
 1432HK4    C3020217   4.296   7.933   3.647  0.2615 -0.2501 -0.2046
 1432HK4    C2920218   4.178   7.869   3.684  0.1753  0.0287  0.0108
 1432HK4    H1520219   4.119   7.897   3.771 -2.2068 -0.9102 -1.2619
 1432HK4    C2820220   4.131   7.772   3.596  0.3859 -0.0242 -0.0430
 1432HK4    C2720221   4.203   7.745   3.477  0.3147 -0.1447 -0.0592
 1432HK4    H1420222   4.155   7.705   3.387  0.9835  3.0476 -1.8822
 1432HK4    C3220223   4.329   7.798   3.449  0.5158 -0.5054  0.1498
 1432HK4    H1620224   4.390   7.757   3.369  1.0496  0.5797  0.0076
 1432HK4    C3120225   4.380   7.894   3.535  0.0605  0.3995 -0.5850
 1432HK4    C3420226   4.498   7.978   3.534  0.2496  0.1508  0.4222
 1432HK4    C3320227   4.477   8.067   3.647  0.2229  0.3629  0.2516
 1432HK4    C3520228   4.576   8.161   3.673  0.1170  0.5196  0.0839
 1432HK4    H1720229   4.555   8.243   3.741  0.1687 -0.2002  0.9688
 1432HK4    C3620230   4.695   8.155   3.602  0.0330 -0.1952 -0.0037
 1432HK4    H1820231   4.765   8.240   3.600 -0.2195  0.0357  0.8840
 1432HK4    C3720232   4.716   8.054   3.508  0.1421 -0.0299 -0.1582
 1432HK4    H1920233   4.810   8.049   3.454 -0.8298 -0.9646 -1.8012
 1432HK4    C3820234   4.620   7.961   3.470 -0.0199  0.1078 -0.0855
 1432HK4    H2020235   4.636   7.904   3.379  0.1312 -0.0663  0.0483
 1432HK4    C1420236   4.042   7.672   3.656  0.2412  0.2141  0.1371
 1432HK4     C920237   4.049   7.536   3.627 -0.6221  0.1944  0.0057
 1432HK4     C820238   3.932   7.458   3.628 -0.4819 -0.0193 -0.1296
 1432HK4    C1120239   3.818   7.510   3.688 -0.6010 -0.8484  0.3825
 1432HK4     H420240   3.731   7.444   3.699 -1.7504  0.9161  2.4186
 1432HK4    C1220241   3.812   7.638   3.742 -0.0758 -0.7397  0.1827
 1432HK4     H520242   3.723   7.672   3.797 -1.5058  0.1833 -2.6055
 1432HK4    C1320243   3.924   7.718   3.718 -0.1695 -0.6611  0.0005
 1432HK4     H620244   3.908   7.822   3.750  2.2023 -0.6027  1.0956
 1432HK4     C720245   3.930   7.312   3.600 -0.0360 -0.0527  0.0094
 1432HK4     O220246   3.834   7.263   3.541  0.0855 -0.1103 -0.1402
 1432HK4     C420247   4.060   7.243   3.588  0.0345  0.0111  0.4188
 1432HK4     C320248   4.062   7.104   3.586  0.1253  0.0161  0.1488
 1432HK4     H320249   3.968   7.052   3.564 -0.9423  1.2264  1.7033
 1432HK4     C220250   4.179   7.032   3.606  0.4822  0.5660  0.0714
 1432HK4     H220251   4.169   6.929   3.646 -0.7083  0.4234 -0.5465
 1432HK4     C120252   4.297   7.105   3.608  0.7793  0.0794  0.6274
 1432HK4     H120253   4.388   7.051   3.638  0.3332  0.1387  2.1451
 1432HK4     C620254   4.299   7.244   3.585 -0.4071  0.0254  0.1436
 1432HK4     C520255   4.180   7.317   3.596 -0.1832  0.4206 -0.0522
 1432HK4    C1020256   4.178   7.461   3.632 -0.4836  0.4308 -0.1038
 1432HK4     O120257   4.265   7.509   3.706 -0.2980 -0.1126  0.0309
 1432HK4    C1620258   4.432   7.296   3.549 -0.5579  0.4845  0.2512
 1432HK4    C1520259   4.436   7.411   3.468 -0.0508  0.1155 -0.2511
 1432HK4     H720260   4.349   7.455   3.417  0.0700  1.8832  1.0026
 1432HK4    C2020261   4.555   7.482   3.452  0.0677  0.0391  0.2711
 1432HK4     H920262   4.554   7.542   3.361 -1.9806  0.7266  0.7279
 1432HK4    C1920263   4.671   7.449   3.520  0.1700 -0.1158  0.0190
 1432HK4    C1820264   4.668   7.326   3.597  0.0251 -0.5281 -0.6386
 1432HK4    C1720265   4.550   7.253   3.608 -0.5182  0.4622  0.1551
 1432HK4     H820266   4.554   7.159   3.662 -4.0127  0.8691  1.2560
 1432HK4     N120267   4.788   7.315   3.671 -0.0432 -0.1078 -0.4622
 1432HK4    C2120268   4.861   7.432   3.646 -0.2297  0.2774  0.7492
 1432HK4    C2220269   4.791   7.522   3.556  0.1506 -0.1060  0.0659
 1432HK4    C2620270   4.836   7.651   3.531  0.2465 -0.2629 -0.5890
 1432HK4    H1320271   4.764   7.717   3.482 -0.1227  0.1667  0.5117
 1432HK4    C2520272   4.960   7.688   3.583 -0.1470 -0.0707  0.2294
 1432HK4    H1220273   4.998   7.788   3.566  0.1472 -0.2470 -0.1503
 1432HK4    C2420274   5.029   7.605   3.671 -0.0547 -0.1333  0.0974
 1432HK4    H1120275   5.126   7.647   3.702 -0.5992  1.2039  0.0530
 1432HK4    C2320276   4.979   7.479   3.702  0.2796 -0.2525  0.1365
 1432HK4    H1020277   5.035   7.410   3.766 -0.3415  0.3972  1.3961
 1432HK4    C3920278   4.836   7.200   3.735  0.2725  0.1930 -0.1624
 1432HK4    C4120279   4.922   7.205   3.847  0.1059  0.4037 -0.0452
 1432HK4    H2120280   4.919   7.290   3.917 -1.0630 -0.6726  1.2315
 1432HK4    C4220281   4.998   7.094   3.881 -0.8625 -0.2550 -0.0202
 1432HK4    H2220282   5.078   7.100   3.955  0.9465 -1.3856 -1.8229
 1432HK4    C4320283   4.990   6.972   3.815  0.3778 -0.0357 -0.5894
 1432HK4    H2320284   5.030   6.877   3.851 -0.7617  0.1106  1.1401
 1432HK4    C4420285   4.916   6.973   3.698 -0.0427 -0.0904 -0.3224
 1432HK4    H2420286   4.911   6.884   3.634 -0.1576 -0.9833  0.8993
 1432HK4    C4520287   4.834   7.080   3.662  0.2788  0.2047 -0.1826
 1432HK4    H2520288   4.739   7.055   3.612  0.9246 -0.7369 -0.9903
 1433HK4    H2820289   6.707  10.862   1.085 -0.0953  0.4407  0.0943
 1433HK4    C4820290   6.708  10.822   0.984 -0.6549  0.0349  0.2449
 1433HK4    C4720291   6.670  10.689   0.972 -0.5521  0.0083  0.1994
 1433HK4    H2720292   6.632  10.637   1.062 -0.7502 -2.6700 -1.3568
 1433HK4    C4620293   6.654  10.640   0.843  0.4504  0.2187 -0.0017
 1433HK4    H2620294   6.658  10.531   0.828 -2.4331  0.1477 -0.5635
 1433HK4    C4020295   6.671  10.717   0.725  0.3121 -0.0259 -0.1807
 1433HK4    C5020296   6.710  10.850   0.747 -0.9626  0.3095  0.1419
 1433HK4    H3020297   6.725  10.919   0.662 -2.0015 -0.7864 -0.9296
 1433HK4    C4920298   6.729  10.904   0.874 -0.5947 -0.0114  0.2232
 1433HK4    H2920299   6.785  10.998   0.879 -0.7371  0.2110 -1.7667
 1433HK4     N220300   6.605  10.691   0.604 -0.2505 -0.3618  0.1931
 1433HK4    C3020301   6.486  10.618   0.588 -0.6022  0.3057 -0.2596
 1433HK4    C2920302   6.414  10.543   0.681 -0.1206  0.1579 -0.0078
 1433HK4    H1520303   6.425  10.571   0.785 -0.7068 -0.8228  0.3267
 1433HK4    C2820304   6.314  10.456   0.640  0.6120 -0.6420 -0.1386
 1433HK4    C2720305   6.292  10.436   0.502 -0.0910  0.0080 -0.1237
 1433HK4    H1420306   6.196  10.392   0.469  0.4298 -0.1563 -1.4420
 1433HK4    C3220307   6.364  10.507   0.406  0.2682  0.0286  0.1621
 1433HK4    H1620308   6.339  10.496   0.301 -0.5373  0.1975  0.3272
 1433HK4    C3120309   6.453  10.605   0.448  0.4761  0.1209 -0.4997
 1433HK4    C3420310   6.548  10.688   0.377  0.3646  0.6523 -0.0246
 1433HK4    C3320311   6.647  10.729   0.475  0.7307 -1.0174  0.3166
 1433HK4    C3520312   6.755  10.808   0.438  0.0390 -0.1785  0.0727
 1433HK4    H1720313   6.835  10.833   0.508  2.8399  0.4219 -3.2141
 1433HK4    C3620314   6.769  10.847   0.305 -0.6698  0.5172  0.1987
 1433HK4    H1820315   6.867  10.887   0.277  0.0550 -0.3939  1.3514
 1433HK4    C3720316   6.674  10.807   0.211 -0.1715 -0.8836  0.2672
 1433HK4    H1920317   6.716  10.811   0.110 -3.1662 -0.7288 -1.0140
 1433HK4    C3820318   6.563  10.733   0.246 -0.7795 -0.3431 -0.4952
 1433HK4    H2020319   6.484  10.728   0.171 -0.0758 -0.8809 -1.2038
 1433HK4    C1420320   6.266  10.352   0.732  0.0590 -0.2740 -0.0092
 1433HK4     C920321   6.253  10.218   0.696 -0.2077 -0.0104 -0.9049
 1433HK4     C820322   6.148  10.134   0.740  0.1289  0.1685  0.2524
 1433HK4    C1120323   6.061  10.182   0.837  0.2562  0.5133  0.1918
 1433HK4     H420324   5.972  10.121   0.856 -0.1738  1.6913  2.0618
 1433HK4    C1220325   6.084  10.310   0.886 -0.0250  0.4682  0.4484
 1433HK4     H520326   6.036  10.336   0.982  1.1881 -1.9006  1.7243
 1433HK4    C1320327   6.177  10.398   0.832  0.3932 -0.1180  0.2185
 1433HK4     H620328   6.198  10.493   0.883 -0.6390  1.6784 -2.5549
 1433HK4     C720329   6.127   9.997   0.689  0.1349  0.0124  0.6651
 1433HK4     O220330   6.050   9.914   0.739 -0.0531 -0.3236 -0.1740
 1433HK4     C420331   6.216   9.952   0.579 -0.8808  0.5009 -0.3548
 1433HK4     C320332   6.198   9.829   0.517 -0.2322  0.2735 -0.0868
 1433HK4     H320333   6.140   9.750   0.568 -0.0749  0.1135 -0.1536
 1433HK4     C220334   6.261   9.790   0.400  0.0041  0.3109  0.0277
 1433HK4     H220335   6.282   9.683   0.391 -1.6147  0.1255 -2.0967
 1433HK4     C120336   6.345   9.885   0.342  0.5808 -0.1603  0.0863
 1433HK4     H120337   6.387   9.866   0.242 -0.3752  0.4044 -0.4285
 1433HK4     C620338   6.376  10.005   0.409 -0.3034  0.0995  0.0284
 1433HK4     C520339   6.318  10.037   0.533 -0.4133  0.1187 -0.0270
 1433HK4    C1020340   6.358  10.160   0.607  0.1994  0.2783 -0.6132
 1433HK4     O120341   6.474  10.175   0.645  0.1708 -0.0828 -0.3785
 1433HK4    C1620342   6.411  10.119   0.322  0.0022  0.0166  0.0435
 1433HK4    C1520343   6.349  10.140   0.197 -0.2665  0.2615  0.2165
 1433HK4     H720344   6.246  10.111   0.174 -0.1031 -0.4430  0.3525
 1433HK4    C2020345   6.403  10.238   0.115 -0.6217  0.0201 -0.3054
 1433HK4     H920346   6.346  10.284   0.034  0.3932  2.9784  0.6084
 1433HK4    C1920347   6.521  10.307   0.139 -0.5420 -0.2237  0.0082
 1433HK4    C1820348   6.593  10.274   0.260  0.2233 -0.0848 -0.4092
 1433HK4    C1720349   6.532  10.183   0.345  0.2593 -0.2480 -0.5586
 1433HK4     H820350   6.588  10.146   0.431  2.3857 -0.0571 -1.8366
 1433HK4     N120351   6.716  10.342   0.270  0.3057 -0.3109  0.1098
 1433HK4    C2120352   6.719  10.419   0.152 -0.3642  0.2665  0.4668
 1433HK4    C2220353   6.604  10.401   0.065 -0.0696 -0.4697  0.2297
 1433HK4    C2620354   6.592  10.461  11.189  0.1385 -0.1331  0.3700
 1433HK4    H1320355   6.500  10.462  11.130  2.1167  4.6174 -2.9077
 1433HK4    C2520356   6.699  10.538  11.148  0.2359 -0.3526  0.2086
 1433HK4    H1220357   6.686  10.596  11.056  1.8794 -1.2515 -0.6153
 1433HK4    C2420358   6.811  10.556  11.228  0.5257  0.2387 -0.3218
 1433HK4    H1120359   6.886  10.632  11.201  1.0242  0.2502  1.0355
 1433HK4    C2320360   6.821  10.502   0.108 -0.2189 -0.4482 -0.5514
 1433HK4    H1020361   6.891  10.537   0.184 -2.4723  1.0903  0.8634
 1433HK4    C3920362   6.812  10.342   0.372 -0.0132 -0.2537  0.4116
 1433HK4    C4120363   6.950  10.367   0.355 -0.1370  0.0444 -0.1484
 1433HK4    H2120364   6.993  10.346   0.256 -2.9454  1.8850 -1.8450
 1433HK4    C4220365   7.035  10.405   0.458 -0.0162  0.0425 -0.2480
 1433HK4    H2220366   7.140  10.431   0.437  0.5047 -3.4791 -2.5783
 1433HK4    C4320367   6.989  10.408   0.589 -0.0483 -0.3944 -0.2481
 1433HK4    H2320368   7.055  10.454   0.663 -0.4968  1.2369 -0.8556
 1433HK4    C4420369   6.856  10.376   0.609 -0.1382 -0.0876 -0.3450
 1433HK4    H2420370   6.815  10.378   0.711  0.5670 -0.3579 -0.0549
 1433HK4    C4520371   6.767  10.349   0.505 -0.8679  0.6662  0.0799
 1433HK4    H2520372   6.661  10.338   0.534 -0.4791  0.0311  1.3058
 1434HK4    H2820373   9.284   3.448   4.645 -0.9105  0.2715  0.5203
 1434HK4    C4820374   9.259   3.433   4.750  0.0128 -0.1369  0.6839
 1434HK4    C4720375   9.234   3.544   4.830  0.2669  0.4083  0.0121
 1434HK4    H2720376   9.220   3.642   4.781  1.2868  0.4170 -0.2763
 1434HK4    C4620377   9.227   3.524   4.967 -0.1005 -0.3309 -0.1127
 1434HK4    H2620378   9.160   3.592   5.023  2.0505  0.3647  1.6891
 1434HK4    C4020379   9.263   3.401   5.027 -0.4141 -0.3447  0.0512
 1434HK4    C5020380   9.298   3.296   4.940  0.6300  0.2065 -0.2067
 1434HK4    H3020381   9.377   3.227   4.974  1.1104  0.2539 -1.1933
 1434HK4    C4920382   9.277   3.306   4.803  1.1087 -0.4146 -0.3275
 1434HK4    H2920383   9.306   3.226   4.733  0.3012  0.5823 -1.8255
 1434HK4     N220384   9.281   3.383   5.164 -0.0861 -0.2809  0.0155
 1434HK4    C3020385   9.323   3.481   5.257 -0.5426 -0.1170  0.0509
 1434HK4    C2920386   9.356   3.614   5.238  0.6410 -0.3944  0.1133
 1434HK4    H1520387   9.351   3.660   5.139 -1.5402  0.1675  0.4602
 1434HK4    C2820388   9.388   3.696   5.346  0.6127 -0.4831  0.1908
 1434HK4    C2720389   9.378   3.639   5.474 -0.1777  0.2598  0.4676
 1434HK4    H1420390   9.419   3.694   5.560  2.1594 -0.8959  0.1602
 1434HK4    C3220391   9.350   3.505   5.499  0.1687  0.0534 -0.2385
 1434HK4    H1620392   9.327   3.472   5.601 -2.2573 -0.3072 -0.8879
 1434HK4    C3120393   9.317   3.424   5.391 -0.7623 -0.0096  0.0881
 1434HK4    C3420394   9.272   3.287   5.379  0.8694 -0.5219 -0.3837
 1434HK4    C3320395   9.240   3.271   5.238 -0.3912 -0.2660 -0.1337
 1434HK4    C3520396   9.170   3.158   5.196 -0.2076 -0.2869 -0.3889
 1434HK4    H1720397   9.139   3.142   5.093 -1.8810 -0.7684  0.1624
 1434HK4    C3620398   9.122   3.074   5.295  0.2821  0.0004  0.0954
 1434HK4    H1820399   9.051   2.997   5.260 -0.2521  0.9063 -0.8217
 1434HK4    C3720400   9.153   3.085   5.430  0.1079  0.0528  0.1317
 1434HK4    H1920401   9.129   2.998   5.490  1.4994 -0.9364 -0.7128
 1434HK4    C3820402   9.227   3.195   5.473  0.4137 -0.0486 -0.1360
 1434HK4    H2020403   9.233   3.208   5.581  0.6381  3.2371 -0.4987
 1434HK4    C1420404   9.471   3.814   5.313  0.1654 -0.3978 -0.6458
 1434HK4     C920405   9.577   3.860   5.391 -0.5679 -0.0505  0.1528
 1434HK4     C820406   9.605   3.998   5.386  0.6168 -0.2921  0.0349
 1434HK4    C1120407   9.547   4.073   5.285 -0.3279 -0.1510  0.6746
 1434HK4     H420408   9.588   4.171   5.256 -0.0050  0.0260  1.7306
 1434HK4    C1220409   9.443   4.029   5.204 -0.0175  0.2177  0.0792
 1434HK4     H520410   9.385   4.107   5.153  3.2943  3.4992  1.1082
 1434HK4    C1320411   9.408   3.895   5.217 -0.4414  0.3584  0.3802
 1434HK4     H620412   9.330   3.857   5.149 -0.8442  2.2960 -0.2759
 1434HK4     C720413   9.691   4.062   5.489  0.3682  0.0588  0.0250
 1434HK4     O220414   9.734   4.176   5.474 -0.0079  0.1053 -0.7598
 1434HK4     C420415   9.760   3.973   5.586 -0.0350 -0.0409  0.2178
 1434HK4     C320416   9.835   4.034   5.686  0.0015 -0.1758  0.2758
 1434HK4     H320417   9.850   4.143   5.688 -3.0092  0.3145 -0.7220
 1434HK4     C220418   9.901   3.960   5.782  0.1667 -0.2826  0.0776
 1434HK4     H220419   9.972   4.005   5.853 -0.4599  1.7549 -0.5720
 1434HK4     C120420   9.891   3.821   5.777  0.4928 -0.2899 -0.5125
 1434HK4     H120421   9.951   3.767   5.852  0.9522 -0.4546 -1.0020
 1434HK4     C620422   9.821   3.754   5.674 -0.4128 -0.0315 -0.0791
 1434HK4     C520423   9.755   3.833   5.580 -0.2966 -0.0148 -0.1481
 1434HK4    C1020424   9.668   3.775   5.473  0.0441  0.0217 -0.4472
 1434HK4     O120425   9.699   3.667   5.423 -0.1234 -0.2276 -0.0210
 1434HK4    C1620426   9.797   3.611   5.698 -0.3138 -0.0838 -0.2892
 1434HK4    C1520427   9.761   3.556   5.823 -0.3122 -0.3288 -0.3958
 1434HK4     H720428   9.697   3.606   5.898 -0.9220 -0.6691 -0.6932
 1434HK4    C2020429   9.798   3.428   5.861 -0.1155 -0.2499 -0.3202
 1434HK4     H920430   9.746   3.381   5.945  0.9264 -0.5311  0.1714
 1434HK4    C1920431   9.866   3.339   5.779  0.2346 -0.0503 -0.2518
 1434HK4    C1820432   9.894   3.390   5.646 -0.2450 -0.2725 -0.4444
 1434HK4    C1720433   9.859   3.521   5.613 -0.4908 -0.2800 -0.2086
 1434HK4     H820434   9.897   3.558   5.518  2.2669  0.4028  1.1111
 1434HK4     N120435   9.979   3.295   5.585  0.5335  0.1730 -0.0694
 1434HK4    C2120436  10.000   3.184   5.669  0.5960  0.1050 -0.1774
 1434HK4    C2220437   9.927   3.208   5.791  0.4640  0.0579 -0.2470
 1434HK4    C2620438   9.925   3.115   5.894 -0.1904  0.2911 -0.0434
 1434HK4    H1320439   9.903   3.145   5.997 -0.0872 -0.7397  0.2899
 1434HK4    C2520440   9.986   2.992   5.869 -0.0138  0.3904 -0.0979
 1434HK4    H1220441   9.965   2.906   5.933  3.2615 -1.1115 -0.9352
 1434HK4    C2420442  10.063   2.967   5.756 -0.1149 -0.3219 -0.0115
 1434HK4    H1120443  10.104   2.867   5.733  0.2550 -0.8340  2.6445
 1434HK4    C2320444  10.065   3.062   5.655 -0.3008 -0.3907 -0.0793
 1434HK4    H1020445  10.132   3.046   5.570  0.0815 -2.9370  0.6494
 1434HK4    C3920446  10.063   3.327   5.478  0.5586 -0.2491 -0.1760
 1434HK4    C4120447  10.094   3.236   5.375  0.3893 -0.5814  0.0654
 1434HK4    H2120448  10.077   3.128   5.387 -0.4263 -0.5519 -0.8092
 1434HK4    C4220449  10.155   3.279   5.258 -0.8731  0.6763 -0.1366
 1434HK4    H2220450  10.128   3.222   5.168  0.4481  1.5275 -1.0881
 1434HK4    C4320451  10.216   3.404   5.250  0.5177 -0.0115 -0.3011
 1434HK4    H2320452  10.269   3.439   5.162 -0.2462  0.0139 -0.7508
 1434HK4    C4420453  10.204   3.485   5.363  0.3988 -0.0632 -0.2764
 1434HK4    H2420454  10.272   3.570   5.378 -1.3435  1.3468 -0.3303
 1434HK4    C4520455  10.124   3.454   5.472  0.4971 -0.2228 -0.2495
 1434HK4    H2520456  10.120   3.516   5.562  1.0649  1.1317 -1.1350
 1435HK4    H2820457   8.617   1.553   4.837  0.8556 -0.4443  0.2617
 1435HK4    C4820458   8.555   1.494   4.769  0.0922  0.4559  0.1568
 1435HK4    C4720459   8.545   1.357   4.791 -0.3330  0.4633  0.0171
 1435HK4    H2720460   8.548   1.319   4.894  1.2969 -0.6231 -0.4046
 1435HK4    C4620461   8.484   1.279   4.693 -0.2482  0.1915  0.1823
 1435HK4    H2620462   8.471   1.172   4.714 -0.0097  0.1689  0.2139
 1435HK4    C4020463   8.426   1.331   4.576  0.2916 -0.2581 -0.2915
 1435HK4    C5020464   8.447   1.470   4.558  0.5022 -0.2372  0.1142
 1435HK4    H3020465   8.404   1.524   4.473 -1.5486  0.3116  1.4451
 1435HK4    C4920466   8.507   1.552   4.653  0.5747  0.1000 -0.2271
 1435HK4    H2920467   8.502   1.661   4.639 -0.9245  0.2693  1.3929
 1435HK4     N220468   8.391   1.247   4.470 -0.4083  0.1034 -0.3571
 1435HK4    C3020469   8.445   1.119   4.442  0.3670  0.4923 -0.6435
 1435HK4    C2920470   8.547   1.041   4.496 -0.4878  0.1345  0.4751
 1435HK4    H1520471   8.624   1.089   4.556  0.0567  1.5253 -1.2872
 1435HK4    C2820472   8.560   0.906   4.465  0.0930  0.2828  0.0684
 1435HK4    C2720473   8.473   0.851   4.368 -0.1796  0.0154  0.4660
 1435HK4    H1420474   8.479   0.743   4.349  1.6659  0.0291  0.8677
 1435HK4    C3220475   8.371   0.926   4.310 -0.7896 -0.5357  0.8121
 1435HK4    H1620476   8.285   0.872   4.272 -0.9126  0.0322  0.2750
 1435HK4    C3120477   8.357   1.060   4.343 -0.3247 -0.4078  0.5040
 1435HK4    C3420478   8.250   1.154   4.313 -0.1513 -0.4040 -0.1148
 1435HK4    C3320479   8.279   1.274   4.390 -0.6472 -0.2643 -0.1457
 1435HK4    C3520480   8.186   1.377   4.391 -0.0500  0.2793 -0.5853
 1435HK4    H1720481   8.199   1.458   4.462  1.8350 -0.0687 -0.5026
 1435HK4    C3620482   8.064   1.364   4.325  0.0103  0.5308 -0.7504
 1435HK4    H1820483   7.999   1.452   4.317 -2.6999 -1.3013  0.2460
 1435HK4    C3720484   8.039   1.247   4.254  0.0955 -0.4828  0.8703
 1435HK4    H1920485   7.936   1.243   4.220 -0.5903  2.6186  2.3373
 1435HK4    C3820486   8.132   1.144   4.241 -0.1771 -0.6146 -0.0475
 1435HK4    H2020487   8.111   1.054   4.184  0.4412  1.3924 -3.5905
 1435HK4    C1420488   8.664   0.818   4.517 -0.2076 -0.2214 -0.1791
 1435HK4     C920489   8.704   0.700   4.453  0.6548 -0.1170  0.1488
 1435HK4     C820490   8.739   0.586   4.528  0.1765 -0.0042  0.5448
 1435HK4    C1120491   8.760   0.607   4.664  0.6093 -0.6482  0.5790
 1435HK4     H420492   8.798   0.523   4.723  1.2754 -0.0070  1.0801
 1435HK4    C1220493   8.739   0.729   4.729 -0.0385 -0.0177 -0.7931
 1435HK4     H520494   8.760   0.745   4.835  0.8209  1.0773 -1.1179
 1435HK4    C1320495   8.686   0.835   4.656 -0.3613  0.2269 -0.2077
 1435HK4     H620496   8.683   0.935   4.700 -0.3570  0.3359 -0.4520
 1435HK4     C720497   8.777   0.459   4.463 -1.0090 -0.2074  0.2404
 1435HK4     O220498   8.782   0.354   4.527 -0.0685 -0.3016  0.0171
 1435HK4     C420499   8.779   0.444   4.316  0.4794  0.0534  0.2233
 1435HK4     C320500   8.816   0.329   4.247 -0.3261  0.2132 -0.4797
 1435HK4     H320501   8.854   0.249   4.312 -2.1263 -1.3567 -1.3224
 1435HK4     C220502   8.806   0.310   4.109  0.2206 -0.3213 -0.4478
 1435HK4     H220503   8.813   0.212   4.061  3.3823 -0.1130 -0.5577
 1435HK4     C120504   8.759   0.418   4.036 -0.0082  0.0317  0.2165
 1435HK4     H120505   8.766   0.409   3.927  0.5780 -0.1393  0.2673
 1435HK4     C620506   8.713   0.534   4.103  0.4730  0.4820 -0.2229
 1435HK4     C520507   8.740   0.555   4.238  0.6850 -0.1439 -0.1667
 1435HK4    C1020508   8.723   0.687   4.306  0.2092 -0.3408  0.1086
 1435HK4     O120509   8.795   0.775   4.258  0.6655 -0.8219 -0.1040
 1435HK4    C1620510   8.662   0.635   4.009 -0.7320 -0.1966 -0.3182
 1435HK4    C1520511   8.568   0.732   4.048  0.0494  0.4044  0.0763
 1435HK4     H720512   8.520   0.728   4.147 -2.4106 -0.7355 -1.1169
 1435HK4    C2020513   8.546   0.850   3.977  0.0553  0.2431 -0.1942
 1435HK4     H920514   8.453   0.903   3.995  0.6363  0.9774  0.7041
 1435HK4    C1920515   8.629   0.886   3.871  0.3014 -0.1135 -0.1239
 1435HK4    C1820516   8.725   0.788   3.825  0.2209 -0.2946  0.0941
 1435HK4    C1720517   8.732   0.667   3.893 -0.0084 -0.3144  0.0835
 1435HK4     H820518   8.791   0.587   3.847  0.0613  0.1214 -0.5924
 1435HK4     N120519   8.790   0.832   3.708  0.0329 -0.2805 -0.0049
 1435HK4    C2120520   8.730   0.956   3.683  0.1494 -0.2604 -0.1786
 1435HK4    C2220521   8.619   0.990   3.771 -0.1499 -0.4847 -0.4666
 1435HK4    C2620522   8.546   1.106   3.751  0.7335  0.2325  0.3904
 1435HK4    H1320523   8.449   1.107   3.800 -1.5237 -0.6575 -3.8068
 1435HK4    C2520524   8.575   1.192   3.645 -0.0652  0.3893  0.2904
 1435HK4    H1220525   8.514   1.282   3.633  0.0731  1.0092  3.7054
 1435HK4    C2420526   8.675   1.152   3.557 -0.2452 -0.5358  0.4993
 1435HK4    H1120527   8.689   1.210   3.464  0.7228 -0.7953  0.4854
 1435HK4    C2320528   8.754   1.040   3.574  0.0955 -0.4252 -0.3178
 1435HK4    H1020529   8.846   1.022   3.518 -0.7569  0.3257 -2.0071
 1435HK4    C3920530   8.924   0.801   3.681  0.1091 -0.2015  0.2524
 1435HK4    C4120531   8.970   0.807   3.548 -0.3674 -0.7768  0.0623
 1435HK4    H2120532   8.906   0.780   3.462 -0.1877 -0.8915 -0.0338
 1435HK4    C4220533   9.105   0.815   3.514 -0.4123 -0.2380 -0.0019
 1435HK4    H2220534   9.145   0.828   3.412  1.4759 -1.9728  0.4981
 1435HK4    C4320535   9.196   0.822   3.618  0.1190  0.1492 -0.4962
 1435HK4    H2320536   9.301   0.830   3.589  0.4725  1.4765  1.0773
 1435HK4    C4420537   9.160   0.805   3.751 -0.2974  0.2854 -0.5936
 1435HK4    H2420538   9.231   0.785   3.832  2.6691  0.3122 -3.1232
 1435HK4    C4520539   9.024   0.801   3.780 -0.0780  0.2237  0.4387
 1435HK4    H2520540   8.991   0.781   3.883 -2.5219 -0.3210 -0.4141
 1436HK4    H2820541   3.363   0.902   8.052 -1.9879  0.7013  0.7433
 1436HK4    C4820542   3.388   1.007   8.064  0.2505  0.3060 -0.2306
 1436HK4    C4720543   3.496   1.041   8.146 -0.0609 -0.2734  0.4287
 1436HK4    H2720544   3.574   0.965   8.157 -0.7517 -1.1833 -0.7581
 1436HK4    C4620545   3.519   1.175   8.176 -0.0581 -0.2708  0.4119
 1436HK4    H2620546   3.621   1.196   8.212 -0.2595 -2.5318  2.4429
 1436HK4    C4020547   3.434   1.278   8.131  0.4628 -0.2508 -0.5471
 1436HK4    C5020548   3.320   1.240   8.056 -0.5499  0.4713  0.6069
 1436HK4    H3020549   3.247   1.318   8.031 -0.8028  0.8883  2.5817
 1436HK4    C4920550   3.300   1.107   8.022  0.2079  0.4567  0.2113
 1436HK4    H2920551   3.211   1.068   7.970  2.0864 -2.2614 -1.1121
 1436HK4     N220552   3.467   1.413   8.143 -0.0922 -0.0706 -0.9927
 1436HK4    C3020553   3.381   1.514   8.190  0.1996 -0.1629 -0.2583
 1436HK4    C2920554   3.257   1.505   8.252  0.3277  0.4017  0.0868
 1436HK4    H1520555   3.201   1.411   8.244  0.0408  0.4730  1.0997
 1436HK4    C2820556   3.198   1.609   8.322  0.0402  0.1274  0.2547
 1436HK4    C2720557   3.276   1.726   8.327  0.3156 -0.0798  0.8687
 1436HK4    H1420558   3.245   1.806   8.396 -1.0726 -0.0944  0.2763
 1436HK4    C3220559   3.395   1.744   8.258  0.0260  0.2826  0.4603
 1436HK4    H1620560   3.438   1.843   8.243  1.1791 -0.3808 -0.7602
 1436HK4    C3120561   3.452   1.641   8.184 -0.6117  0.3024 -0.0606
 1436HK4    C3420562   3.574   1.614   8.110 -0.3552 -0.0139  0.4755
 1436HK4    C3320563   3.585   1.471   8.091  0.1475  0.1189 -0.2465
 1436HK4    C3520564   3.683   1.412   8.013  0.5648 -0.1203  0.4522
 1436HK4    H1720565   3.674   1.306   7.988  0.5193 -0.6436  2.5974
 1436HK4    C3620566   3.772   1.493   7.944 -0.3317  0.2907 -0.2301
 1436HK4    H1820567   3.863   1.445   7.906  0.8152  2.3798 -0.2168
 1436HK4    C3720568   3.767   1.631   7.964 -0.0517  0.2057  0.4240
 1436HK4    H1920569   3.841   1.698   7.921  0.1809 -0.0367  0.4449
 1436HK4    C3820570   3.673   1.689   8.048 -0.3773 -0.1312  0.2964
 1436HK4    H2020571   3.688   1.796   8.062  0.4375 -0.1528 -0.3938
 1436HK4    C1420572   3.053   1.604   8.347  0.0820  0.2260  0.5211
 1436HK4     C920573   2.969   1.715   8.363  0.4004  0.4489  0.6538
 1436HK4     C820574   2.862   1.716   8.455  0.1182 -0.0569  0.3377
 1436HK4    C1120575   2.828   1.596   8.516  0.0376 -0.0938  0.2186
 1436HK4     H420576   2.765   1.596   8.606  1.5082  1.3830  1.2713
 1436HK4    C1220577   2.901   1.481   8.490  0.1234 -0.1081  0.5277
 1436HK4     H520578   2.849   1.387   8.510  2.0010 -0.8972  1.8850
 1436HK4    C1320579   3.014   1.483   8.410 -0.3740  0.0093 -0.1762
 1436HK4     H620580   3.096   1.414   8.432 -0.6777 -0.3349 -0.1346
 1436HK4     C720581   2.786   1.842   8.471  0.4388  0.2094 -0.1899
 1436HK4     O220582   2.749   1.867   8.586  0.3238 -0.4510 -0.0804
 1436HK4     C420583   2.800   1.948   8.369  0.0557 -0.0107 -0.4721
 1436HK4     C320584   2.697   2.041   8.358 -0.4123 -0.5469 -0.6477
 1436HK4     H320585   2.594   2.026   8.395 -0.3849 -0.0603 -0.3641
 1436HK4     C220586   2.719   2.162   8.292 -0.0744 -0.1843  0.1192
 1436HK4     H220587   2.630   2.221   8.267 -0.2972 -1.1233 -1.3478
 1436HK4     C120588   2.844   2.177   8.234 -0.0289 -0.2492  0.1969
 1436HK4     H120589   2.877   2.283   8.232  1.4737 -0.5862  3.7002
 1436HK4     C620590   2.952   2.088   8.250  0.5459  0.5148  0.5817
 1436HK4     C520591   2.923   1.962   8.302  0.6425  0.5349  0.6870
 1436HK4    C1020592   2.996   1.834   8.278  0.2005  0.3288  0.4202
 1436HK4     O120593   3.034   1.813   8.163 -0.0129  0.1307  0.3854
 1436HK4    C1620594   3.072   2.131   8.176  0.3697 -0.3473 -0.2127
 1436HK4    C1520595   3.194   2.072   8.215  0.1281 -0.4844  0.3348
 1436HK4     H720596   3.207   2.014   8.308  1.3116 -0.8071 -0.0373
 1436HK4    C2020597   3.317   2.116   8.168  0.0006 -0.3461  0.1295
 1436HK4     H920598   3.407   2.060   8.193  0.9855  1.6338  1.1185
 1436HK4    C1920599   3.322   2.217   8.073  0.3337  0.1209  0.6420
 1436HK4    C1820600   3.199   2.288   8.045  0.4231 -0.0639 -0.2189
 1436HK4    C1720601   3.076   2.236   8.085  0.5322 -0.0616  0.1243
 1436HK4     H820602   2.989   2.246   8.020  0.1468  1.5053  0.8686
 1436HK4     N120603   3.226   2.410   7.979 -0.0128 -0.2018 -0.6605
 1436HK4    C2120604   3.366   2.426   7.984 -0.0926  0.1661  0.6414
 1436HK4    C2220605   3.430   2.302   8.026  0.1085  0.0545  0.0120
 1436HK4    C2620606   3.566   2.276   8.018  0.0590 -0.1558 -0.1483
 1436HK4    H1320607   3.617   2.181   8.031 -1.8710 -1.1829  0.0785
 1436HK4    C2520608   3.642   2.381   7.967  0.0279  0.0746  0.2809
 1436HK4    H1220609   3.750   2.374   7.954  0.0047 -1.6354  0.9661
 1436HK4    C2420610   3.583   2.498   7.921 -0.1298 -0.2975 -0.4764
 1436HK4    H1120611   3.638   2.558   7.847 -1.5712  0.4248 -0.9764
 1436HK4    C2320612   3.447   2.526   7.930 -0.1284 -0.3315 -0.3542
 1436HK4    H1020613   3.409   2.628   7.932 -1.2543 -0.7211 -1.2905
 1436HK4    C3920614   3.130   2.508   7.955 -0.1162 -0.1907 -0.2013
 1436HK4    C4120615   3.021   2.534   8.041 -0.0396 -0.7900  0.0753
 1436HK4    H2120616   3.003   2.468   8.128  3.0080  0.0876  1.4310
 1436HK4    C4220617   2.939   2.643   8.015  0.0695 -0.7452 -0.0780
 1436HK4    H2220618   2.857   2.663   8.085  0.1113 -1.5709  0.2115
 1436HK4    C4320619   2.962   2.713   7.898 -0.3334 -0.0555  0.2560
 1436HK4    H2320620   2.886   2.785   7.868 -0.0196  0.3254  0.3584
 1436HK4    C4420621   3.065   2.688   7.807 -0.5176  0.0455  0.0175
 1436HK4    H2420622   3.077   2.734   7.708  1.1165  0.5964  0.4553
 1436HK4    C4520623   3.154   2.587   7.841 -0.6106 -0.1309 -0.2671
 1436HK4    H2520624   3.247   2.565   7.786 -0.8670 -1.8544 -0.0440
 1437HK4    H2820625   7.426   2.286   4.492 -0.4765  0.7786 -0.8993
 1437HK4    C4820626   7.456   2.228   4.404  0.5966  0.4006 -0.3051
 1437HK4    C4720627   7.510   2.101   4.415  0.3223  0.3199  0.0973
 1437HK4    H2720628   7.518   2.056   4.515 -1.8615  1.2321  0.7263
 1437HK4    C4620629   7.571   2.040   4.306  0.0704 -0.3275  0.3118
 1437HK4    H2620630   7.591   1.932   4.312 -0.6528 -0.4618  0.4043
 1437HK4    C4020631   7.581   2.098   4.178 -0.2846 -0.1963  0.3432
 1437HK4    C5020632   7.512   2.220   4.169 -0.0210 -0.0684  0.0415
 1437HK4    H3020633   7.494   2.261   4.068 -0.1983 -1.0137 -0.3085
 1437HK4    C4920634   7.455   2.286   4.277 -0.2556  0.3418 -0.3283
 1437HK4    H2920635   7.408   2.384   4.257 -1.5263 -0.3787 -0.9800
 1437HK4     N220636   7.664   2.038   4.083  0.0606  0.4336  0.2437
 1437HK4    C3020637   7.640   2.040   3.945  0.5944 -0.0449  0.1424
 1437HK4    C2920638   7.527   2.062   3.867  0.5100 -0.1366  0.2381
 1437HK4    H1520639   7.435   2.100   3.913 -0.2823 -0.8654 -0.7100
 1437HK4    C2820640   7.513   2.033   3.732 -0.7055 -0.3701  0.4046
 1437HK4    C2720641   7.618   1.963   3.670 -0.3981 -0.0928  0.6082
 1437HK4    H1420642   7.620   1.950   3.561  1.6913 -1.6069  0.7929
 1437HK4    C3220643   7.733   1.930   3.741 -0.0994 -0.3435  0.0115
 1437HK4    H1620644   7.800   1.862   3.688  0.6318 -0.5364  1.1686
 1437HK4    C3120645   7.745   1.969   3.874  0.3974 -0.0899 -0.1039
 1437HK4    C3420646   7.837   1.928   3.978  0.0354 -0.1656  0.1852
 1437HK4    C3320647   7.785   1.969   4.107 -0.3167 -0.2906  0.0854
 1437HK4    C3520648   7.855   1.941   4.224 -0.1860  0.5899  0.2233
 1437HK4    H1720649   7.843   2.002   4.314  0.6895  1.2795 -0.1170
 1437HK4    C3620650   7.975   1.871   4.211 -0.6679 -0.2492  0.2787
 1437HK4    H1820651   8.036   1.868   4.302 -1.1700 -2.4063  0.5677
 1437HK4    C3720652   8.031   1.830   4.091  0.2156  0.1202  0.5680
 1437HK4    H1920653   8.121   1.769   4.083  0.5470  0.7916 -1.1449
 1437HK4    C3820654   7.958   1.859   3.976  0.0080 -0.2281  0.6128
 1437HK4    H2020655   7.990   1.820   3.880 -1.0353  0.8513 -0.1929
 1437HK4    C1420656   7.384   2.059   3.666 -0.6208  0.2006  0.4563
 1437HK4     C920657   7.334   1.972   3.568 -0.6580  0.0329  0.6243
 1437HK4     C820658   7.276   2.019   3.448  0.0911 -0.0157  0.2380
 1437HK4    C1120659   7.261   2.155   3.428 -0.2475 -0.0875 -0.0211
 1437HK4     H420660   7.198   2.186   3.344 -0.0525 -2.2161 -0.9636
 1437HK4    C1220661   7.302   2.244   3.527  0.1088 -0.0482 -0.2003
 1437HK4     H520662   7.335   2.342   3.490  2.3796 -1.1971 -1.2972
 1437HK4    C1320663   7.352   2.195   3.647  0.0203  0.2920 -0.0239
 1437HK4     H620664   7.367   2.265   3.731 -2.7488  1.6420 -0.5839
 1437HK4     C720665   7.205   1.922   3.361 -0.0878  0.1210  0.2328
 1437HK4     O220666   7.110   1.956   3.290 -0.0067 -0.1208  0.0061
 1437HK4     C420667   7.213   1.779   3.398  0.1737  0.0438 -0.1292
 1437HK4     C320668   7.160   1.691   3.303  0.1476 -0.0352 -0.0414
 1437HK4     H320669   7.087   1.728   3.231 -1.5204 -0.8029  1.2062
 1437HK4     C220670   7.206   1.560   3.294 -0.3136 -0.2075  0.1026
 1437HK4     H220671   7.175   1.495   3.210 -1.1688 -0.8960  0.9332
 1437HK4     C120672   7.305   1.516   3.381 -0.1882 -0.1873 -0.0305
 1437HK4     H120673   7.344   1.414   3.366  1.4259  0.6413 -1.7641
 1437HK4     C620674   7.361   1.597   3.482 -0.1457 -0.1235 -0.1058
 1437HK4     C520675   7.302   1.723   3.491  0.2053  0.0437 -0.1588
 1437HK4    C1020676   7.339   1.826   3.594  0.2385 -0.0592 -0.0684
 1437HK4     O120677   7.332   1.783   3.709  0.7925 -0.2530 -0.1056
 1437HK4    C1620678   7.504   1.579   3.509 -0.0487  0.0519 -0.4883
 1437HK4    C1520679   7.596   1.557   3.404 -0.0092  0.3682 -0.5198
 1437HK4     H720680   7.558   1.518   3.309  0.3413 -0.2142 -0.4262
 1437HK4    C2020681   7.733   1.560   3.431 -0.1352 -0.0744  0.2020
 1437HK4     H920682   7.805   1.556   3.349  0.3036  1.0967  0.5234
 1437HK4    C1920683   7.774   1.572   3.563 -0.0977  0.4032  0.1495
 1437HK4    C1820684   7.685   1.573   3.677 -0.3511 -0.3371 -0.0412
 1437HK4    C1720685   7.551   1.571   3.640 -0.2287 -0.7204 -0.4690
 1437HK4     H820686   7.485   1.536   3.719 -0.9899  2.6264  0.4551
 1437HK4     N120687   7.751   1.560   3.801  0.0165 -0.6199 -0.2650
 1437HK4    C2120688   7.888   1.574   3.769  0.1333 -1.1152  0.0144
 1437HK4    C2220689   7.905   1.568   3.625  0.0080  0.4387 -0.0729
 1437HK4    C2620690   8.033   1.553   3.573 -0.1249 -1.3821  0.0734
 1437HK4    H1320691   8.046   1.575   3.467  0.0065  0.0935  0.3885
 1437HK4    C2520692   8.143   1.552   3.658 -0.2642 -0.5099  0.2710
 1437HK4    H1220693   8.240   1.560   3.609  0.3710  1.2752  1.7647
 1437HK4    C2420694   8.129   1.548   3.796 -0.0594  1.0335  0.3436
 1437HK4    H1120695   8.219   1.563   3.858 -0.6020  0.8957  1.1627
 1437HK4    C2320696   8.001   1.564   3.848 -0.0966  0.2334  0.5138
 1437HK4    H1020697   7.995   1.555   3.957  0.8953 -0.4680  0.5209
 1437HK4    C3920698   7.689   1.584   3.925  0.3938 -0.3181 -0.1329
 1437HK4    C4120699   7.750   1.522   4.036  0.0310  0.4185  0.4838
 1437HK4    H2120700   7.832   1.449   4.025  0.4021  0.7685  0.8888
 1437HK4    C4220701   7.705   1.557   4.162 -0.1667  0.3132  0.4429
 1437HK4    H2220702   7.749   1.508   4.251 -1.5369  0.4702  1.2205
 1437HK4    C4320703   7.603   1.649   4.179  0.2550  0.8019  0.3640
 1437HK4    H2320704   7.570   1.696   4.271 -0.5947  1.3323 -0.2079
 1437HK4    C4420705   7.541   1.715   4.073  0.3795  0.1115 -0.1408
 1437HK4    H2420706   7.461   1.789   4.083  0.5668  0.1871  0.7954
 1437HK4    C4520707   7.591   1.683   3.947  0.3991 -0.3373 -0.0201
 1437HK4    H2520708   7.566   1.744   3.859  0.3972 -0.9650 -0.4661
 1438HK4    H2820709   3.597  11.124   0.223  0.2256 -2.5461 -0.7513
 1438HK4    C4820710   3.642  11.141   0.125  0.9826  0.0999  0.0336
 1438HK4    C4720711   3.691   0.014   0.076 -0.8454  0.8301 -0.0335
 1438HK4    H2720712   3.684   0.100   0.143  1.6438  0.2774  1.0066
 1438HK4    C4620713   3.751   0.023  11.199  0.4128 -0.1417  0.4904
 1438HK4    H2620714   3.800   0.117  11.169 -1.4882  0.5121 -0.6350
 1438HK4    C4020715   3.747  11.159  11.114  0.5777  0.1787  0.0639
 1438HK4    C5020716   3.698  11.038  11.166 -0.0646  0.4617  0.1192
 1438HK4    H3020717   3.670  10.955  11.099 -1.2334  3.1066 -2.7658
 1438HK4    C4920718   3.657  11.025   0.050 -0.1745 -0.0566  0.0376
 1438HK4    H2920719   3.668  10.925   0.094  1.3452  0.3619  0.6442
 1438HK4     N220720   3.768  11.177  10.976 -0.4319 -0.2383 -0.1492
 1438HK4    C3020721   3.764   0.056  10.915  0.0201  0.0779  0.4717
 1438HK4    C2920722   3.666   0.155  10.922 -0.1632 -0.0236 -0.6146
 1438HK4    H1520723   3.590   0.143  11.000 -0.0573  2.4110 -0.0987
 1438HK4    C2820724   3.668   0.263  10.834 -0.0900  0.2752 -0.2492
 1438HK4    C2720725   3.770   0.274  10.738 -0.2478  0.1973 -0.4281
 1438HK4    H1420726   3.762   0.365  10.675  1.1957 -0.3648 -1.4640
 1438HK4    C3220727   3.870   0.178  10.727 -0.2153  0.2027 -0.1785
 1438HK4    H1620728   3.945   0.184  10.647 -0.3044 -1.8136 -0.4403
 1438HK4    C3120729   3.854   0.062  10.802 -0.7816  0.2911 -0.1618
 1438HK4    C3420730   3.898  11.173  10.790  0.1055  0.5762 -0.1960
 1438HK4    C3320731   3.846  11.091  10.898 -0.3618  0.2763 -0.6467
 1438HK4    C3520732   3.899  10.963  10.916 -0.3534  0.3133 -0.4044
 1438HK4    H1720733   3.868  10.896  10.995 -1.4783  2.8662  1.3826
 1438HK4    C3620734   4.000  10.912  10.836 -0.5126 -0.1040 -0.3347
 1438HK4    H1820735   4.052  10.816  10.853  2.3393  1.8403  2.3461
 1438HK4    C3720736   4.041  10.989  10.728  0.2237  0.2296  0.1772
 1438HK4    H1920737   4.104  10.936  10.657 -0.3052 -0.0934 -0.0493
 1438HK4    C3820738   3.989  11.116  10.701  0.2358  0.2317  0.1568
 1438HK4    H2020739   4.022  11.170  10.613  1.5154 -0.0612  0.4493
 1438HK4    C1420740   3.545   0.343  10.828 -0.5817 -0.4458  0.0531
 1438HK4     C920741   3.500   0.391  10.704  0.3609  0.3452  0.0045
 1438HK4     C820742   3.448   0.520  10.684  0.2391  0.2712 -0.1597
 1438HK4    C1120743   3.436   0.595  10.801  0.2134 -0.3905  0.2622
 1438HK4     H420744   3.414   0.702  10.786  0.7908 -0.3672 -0.4622
 1438HK4    C1220745   3.469   0.548  10.928 -0.0396  0.0189  0.4821
 1438HK4     H520746   3.440   0.604  11.018 -0.2383  1.7896 -0.6635
 1438HK4    C1320747   3.525   0.422  10.943  0.0280 -0.0267 -0.1197
 1438HK4     H620748   3.573   0.398  11.039 -0.9512  0.9109  0.6184
 1438HK4     C720749   3.386   0.561  10.556  0.1498  0.3256 -0.1010
 1438HK4     O220750   3.305   0.654  10.552 -0.2346  0.0167  0.3589
 1438HK4     C420751   3.413   0.483  10.433 -0.1625 -0.0241  0.0532
 1438HK4     C320752   3.361   0.526  10.312 -0.1143  0.1134  0.0796
 1438HK4     H320753   3.302   0.619  10.309  2.2650  1.6405 -1.2201
 1438HK4     C220754   3.405   0.467  10.194  1.2321  0.2973  0.4813
 1438HK4     H220755   3.362   0.497  10.097  1.4302  0.2193  0.3672
 1438HK4     C120756   3.499   0.365  10.199  0.1914 -0.6931  0.0035
 1438HK4     H120757   3.536   0.322  10.105  0.6548 -2.0184  0.7862
 1438HK4     C620758   3.531   0.310  10.325  0.4992 -0.0482  0.2137
 1438HK4     C520759   3.484   0.362  10.446 -0.0812  0.0139 -0.0374
 1438HK4    C1020760   3.512   0.308  10.581  0.1495  0.2866  0.0226
 1438HK4     O120761   3.478   0.191  10.596  0.0361  0.2577 -0.4601
 1438HK4    C1620762   3.647   0.221  10.312 -0.2983 -1.0102 -0.4402
 1438HK4    C1520763   3.769   0.257  10.251 -0.0342 -0.2176  0.5466
 1438HK4     H720764   3.782   0.348  10.190 -1.4873  0.1427  0.7515
 1438HK4    C2020765   3.884   0.180  10.247  0.2850  0.2936 -0.3117
 1438HK4     H920766   3.962   0.195  10.173  0.8732  0.6524  0.3778
 1438HK4    C1920767   3.873   0.056  10.309  0.2896  0.5083  0.1132
 1438HK4    C1820768   3.749   0.011  10.369  0.6880 -0.2319  0.3891
 1438HK4    C1720769   3.638   0.095  10.370  0.5323 -0.4430  0.9524
 1438HK4     H820770   3.540   0.051  10.390 -0.7529  2.4441  1.2499
 1438HK4     N120771   3.742  11.123  10.406  0.4472 -0.4438 -0.4247
 1438HK4    C2120772   3.864  11.071  10.360  0.7199 -0.1567 -0.0239
 1438HK4    C2220773   3.948  11.180  10.314 -0.0069  0.3162 -0.2222
 1438HK4    C2620774   4.079  11.143  10.286  0.0396 -0.0812  0.5092
 1438HK4    H1320775   4.140  11.213  10.230 -0.8586 -1.5464 -2.4659
 1438HK4    C2520776   4.133  11.017  10.312 -0.0549 -0.2097  0.0978
 1438HK4    H1220777   4.237  10.993  10.293 -0.2197 -1.0680  0.2488
 1438HK4    C2420778   4.050  10.917  10.362  0.0967 -0.4728 -0.1807
 1438HK4    H1120779   4.098  10.831  10.410 -0.5885 -0.2550  0.9080
 1438HK4    C2320780   3.915  10.943  10.382  0.1482 -0.3743  0.0443
 1438HK4    H1020781   3.850  10.865  10.421  0.6691 -0.8565 -0.0400
 1438HK4    C3920782   3.656  11.061  10.497 -0.0143  0.0121 -0.5435
 1438HK4    C4120783   3.631  10.922  10.486  0.7827 -0.2367  0.6380
 1438HK4    H2120784   3.639  10.874  10.387 -0.3038 -0.2878  0.5747
 1438HK4    C4220785   3.560  10.854  10.584 -0.5388 -0.2186 -0.2942
 1438HK4    H2220786   3.514  10.764  10.542  0.2601 -1.0138  0.4908
 1438HK4    C4320787   3.514  10.927  10.693 -0.1995  0.2575 -0.4717
 1438HK4    H2320788   3.481  10.877  10.784  0.4841  1.1475  0.2748
 1438HK4    C4420789   3.533  11.064  10.709  0.2489  0.1314  0.0889
 1438HK4    H2420790   3.489  11.112  10.798 -0.7814 -1.4297  0.4406
 1438HK4    C4520791   3.605  11.129  10.610  0.4645 -0.3786 -0.0885
 1438HK4    H2520792   3.638  11.232  10.627  0.6736 -0.0661 -2.2575
 1439HK4    H2820793   1.946   5.657   7.224  0.2211  3.5974  1.4202
 1439HK4    C4820794   2.042   5.631   7.267  0.0346  0.1528 -0.0616
 1439HK4    C4720795   2.034   5.537   7.369 -0.1219  0.4816  0.2307
 1439HK4    H2720796   1.936   5.509   7.411  0.1078 -0.6558  0.0217
 1439HK4    C4620797   2.152   5.492   7.428 -0.1776  0.0652  0.0242
 1439HK4    H2620798   2.149   5.429   7.518  2.9545 -0.3201 -0.1039
 1439HK4    C4020799   2.278   5.547   7.397 -0.1628  0.2876  0.4682
 1439HK4    C5020800   2.285   5.646   7.296  0.0546  0.0972  0.2910
 1439HK4    H3020801   2.382   5.681   7.260  2.2751 -3.2403  2.7398
 1439HK4    C4920802   2.167   5.684   7.233  0.0831  0.3174  0.3742
 1439HK4    H2920803   2.168   5.740   7.139  0.7401  0.3397  0.3910
 1439HK4     N220804   2.399   5.495   7.443 -0.0376  0.0719 -0.0915
 1439HK4    C3020805   2.412   5.361   7.485  0.4485 -0.0617 -0.6717
 1439HK4    C2920806   2.363   5.243   7.429 -0.4763 -0.0617  0.1503
 1439HK4    H1520807   2.266   5.258   7.381  0.6886  0.7969 -1.9769
 1439HK4    C2820808   2.422   5.119   7.448  0.5929  0.4729  0.3179
 1439HK4    C2720809   2.535   5.116   7.533  1.0683 -0.9032 -0.3584
 1439HK4    H1420810   2.588   5.020   7.524  1.3583 -0.6334 -1.7674
 1439HK4    C3220811   2.583   5.227   7.602 -1.1087 -0.2133  0.0764
 1439HK4    H1620812   2.658   5.224   7.681 -1.0200 -2.1644 -0.0586
 1439HK4    C3120813   2.518   5.348   7.583 -0.4835  0.1697  0.3697
 1439HK4    C3420814   2.563   5.482   7.616 -0.0018  0.1283 -0.0999
 1439HK4    C3320815   2.496   5.565   7.518 -0.2159  0.1534  0.0656
 1439HK4    C3520816   2.556   5.687   7.487  0.1251  0.1048  0.5210
 1439HK4    H1720817   2.523   5.749   7.404  2.1680 -1.9022 -1.8583
 1439HK4    C3620818   2.667   5.732   7.557 -0.1659  0.4765  0.7496
 1439HK4    H1820819   2.717   5.827   7.531  0.5467  0.0349  0.4806
 1439HK4    C3720820   2.729   5.653   7.654 -0.4382 -0.3557  0.2519
 1439HK4    H1920821   2.806   5.708   7.708 -1.6987  1.1751  0.5331
 1439HK4    C3820822   2.677   5.528   7.682 -0.0835 -0.4597  0.4604
 1439HK4    H2020823   2.713   5.478   7.771 -0.1585 -0.5332  0.4498
 1439HK4    C1420824   2.336   5.001   7.443  0.2538  0.7241  0.1943
 1439HK4     C920825   2.340   4.897   7.537 -0.6249  0.4176 -0.0943
 1439HK4     C820826   2.319   4.764   7.497 -0.1165  0.3863 -0.2650
 1439HK4    C1120827   2.270   4.738   7.370  0.2735 -0.4256 -0.2553
 1439HK4     H420828   2.226   4.639   7.351  0.7289 -0.7341  0.3100
 1439HK4    C1220829   2.255   4.839   7.275 -0.0703  0.2834  0.5449
 1439HK4     H520830   2.223   4.818   7.172  2.1127  0.9739 -0.2956
 1439HK4    C1320831   2.296   4.966   7.312  0.4414  0.2007  0.2739
 1439HK4     H620832   2.275   5.046   7.239  1.8690 -1.0079 -1.5124
 1439HK4     C720833   2.364   4.650   7.581 -0.0720  0.4045 -0.2641
 1439HK4     O220834   2.374   4.537   7.533  0.0825 -0.0725  0.8739
 1439HK4     C420835   2.419   4.683   7.714  0.6264 -0.2704 -0.3842
 1439HK4     C320836   2.488   4.583   7.781 -0.0104 -0.2284  0.3427
 1439HK4     H320837   2.531   4.494   7.731  0.3383 -0.7046  1.4638
 1439HK4     C220838   2.545   4.612   7.904  0.2356 -0.0026  0.1776
 1439HK4     H220839   2.552   4.535   7.982 -1.2737 -1.4000 -1.0100
 1439HK4     C120840   2.552   4.743   7.950 -0.0663  0.1465 -0.2027
 1439HK4     H120841   2.606   4.767   8.043 -0.8936 -2.1067  0.8897
 1439HK4     C620842   2.483   4.848   7.885 -0.2670 -0.0900 -0.3725
 1439HK4     C520843   2.412   4.813   7.769  0.1272 -0.2146 -0.5781
 1439HK4    C1020844   2.353   4.920   7.684 -0.8584 -0.2592  0.0328
 1439HK4     O120845   2.270   4.996   7.734 -0.1574  0.1210  0.6297
 1439HK4    C1620846   2.556   4.975   7.897 -0.2603 -0.1453  0.1830
 1439HK4    C1520847   2.696   4.980   7.911 -0.2059  0.3031 -0.4843
 1439HK4     H720848   2.744   4.898   7.854 -1.7455  0.3529 -1.8887
 1439HK4    C2020849   2.767   5.082   7.974 -0.0819 -0.2177  0.2287
 1439HK4     H920850   2.875   5.076   7.976 -0.0210  0.6775  0.0471
 1439HK4    C1920851   2.697   5.193   8.019  0.3716  0.3179 -0.3790
 1439HK4    C1820852   2.552   5.193   8.009  0.3453  0.0383  0.0029
 1439HK4    C1720853   2.488   5.082   7.954  0.1204 -0.1867  0.7128
 1439HK4     H820854   2.380   5.081   7.965  0.0274 -3.1645 -0.0173
 1439HK4     N120855   2.497   5.319   8.039  0.2173  0.0582 -0.3171
 1439HK4    C2120856   2.605   5.405   8.069  0.2343  0.1976 -0.7710
 1439HK4    C2220857   2.728   5.330   8.057  0.3219  0.1991  0.0878
 1439HK4    C2620858   2.847   5.399   8.034  0.2855 -0.0773 -0.9719
 1439HK4    H1320859   2.934   5.335   8.032  0.0691 -0.4405  0.6313
 1439HK4    C2520860   2.853   5.538   8.036 -0.3889 -0.0503 -0.4542
 1439HK4    H1220861   2.948   5.589   8.022  0.4417 -0.3351  3.6611
 1439HK4    C2420862   2.734   5.609   8.049  0.0948  0.7033 -0.0648
 1439HK4    H1120863   2.733   5.719   8.053  0.1062  0.6581  1.2006
 1439HK4    C2320864   2.612   5.543   8.062  0.2937  0.1996 -0.6786
 1439HK4    H1020865   2.527   5.609   8.079 -1.2970 -2.3422  1.7272
 1439HK4    C3920866   2.368   5.364   8.008  0.1728  0.1841  0.0499
 1439HK4    C4120867   2.293   5.438   8.102  0.2014 -0.1037  0.2994
 1439HK4    H2120868   2.334   5.462   8.202  2.6728 -0.8777 -0.4937
 1439HK4    C4220869   2.167   5.487   8.070  0.2982 -0.1848 -0.2012
 1439HK4    H2220870   2.120   5.557   8.140 -3.8645 -1.6712 -1.3531
 1439HK4    C4320871   2.120   5.465   7.941 -0.1328  0.6410 -0.1862
 1439HK4    H2320872   2.012   5.479   7.930 -0.6756 -2.0326  1.2543
 1439HK4    C4420873   2.195   5.402   7.843  0.3781  0.4279  0.3387
 1439HK4    H2420874   2.149   5.367   7.749  2.1904 -2.2555  0.4077
 1439HK4    C4520875   2.320   5.352   7.876  0.7835  1.0395 -0.2524
 1439HK4    H2520876   2.366   5.282   7.805  0.9539  3.4842 -2.6333
 1440HK4    H2820877   4.633   4.640   4.983  0.3279 -0.4744 -0.9620
 1440HK4    C4820878   4.614   4.534   5.001 -0.2265 -0.3105 -0.5671
 1440HK4    C4720879   4.554   4.502   5.122  0.0881  0.2289 -0.2632
 1440HK4    H2720880   4.512   4.585   5.180 -1.7732 -1.6940  1.2461
 1440HK4    C4620881   4.536   4.367   5.152 -0.5274  0.2901 -0.3635
 1440HK4    H2620882   4.454   4.343   5.222 -1.8019 -0.0136 -1.9148
 1440HK4    C4020883   4.582   4.260   5.073 -0.3005  0.1869 -0.0911
 1440HK4    C5020884   4.634   4.301   4.948  0.3548 -0.1112  0.0819
 1440HK4    H3020885   4.673   4.222   4.882  1.1841  0.5685 -0.2554
 1440HK4    C4920886   4.640   4.434   4.908  0.1966 -0.2740 -0.4853
 1440HK4    H2920887   4.682   4.463   4.811  0.2382  0.6365 -0.1977
 1440HK4     N220888   4.611   4.133   5.123  0.1232  0.2103 -0.2680
 1440HK4    C3020889   4.637   4.091   5.255  0.6096  0.3567 -0.3185
 1440HK4    C2920890   4.654   4.170   5.367  0.0181  0.4582 -0.3017
 1440HK4    H1520891   4.680   4.274   5.346 -2.8298  0.9880 -1.4380
 1440HK4    C2820892   4.654   4.119   5.496 -0.6043  0.3990 -0.3211
 1440HK4    C2720893   4.635   3.980   5.502 -0.2189  0.3573 -0.0640
 1440HK4    H1420894   4.628   3.944   5.606 -3.3504  0.6548 -0.1466
 1440HK4    C3220895   4.631   3.892   5.394  0.0800  0.1057  0.1264
 1440HK4    H1620896   4.622   3.785   5.406  1.1775 -0.5524 -4.1430
 1440HK4    C3120897   4.614   3.948   5.267 -0.0462  0.5186  0.3222
 1440HK4    C3420898   4.570   3.903   5.137  0.1737  0.0253  0.4198
 1440HK4    C3320899   4.573   4.018   5.049 -0.1503 -0.0608  0.2959
 1440HK4    C3520900   4.546   3.997   4.915  0.0304  0.0161  0.2462
 1440HK4    H1720901   4.525   4.085   4.853 -1.3121 -1.1813 -1.0381
 1440HK4    C3620902   4.516   3.871   4.864  1.0123 -0.0962 -0.0610
 1440HK4    H1820903   4.513   3.857   4.755  1.1434 -0.2783 -0.0428
 1440HK4    C3720904   4.498   3.766   4.952  0.4371  0.2498  0.2343
 1440HK4    H1920905   4.451   3.678   4.910  1.0134 -1.4787  3.0098
 1440HK4    C3820906   4.526   3.780   5.088 -0.0133  0.1241  0.3409
 1440HK4    H2020907   4.507   3.703   5.163  0.8841  0.1066  0.5524
 1440HK4    C1420908   4.700   4.205   5.607 -0.7991 -0.0484  0.1099
 1440HK4     C920909   4.775   4.154   5.713 -0.3504 -0.4538 -0.3974
 1440HK4     C820910   4.776   4.225   5.835 -0.3833 -0.1280 -0.5867
 1440HK4    C1120911   4.705   4.344   5.839 -0.3386 -0.1242  0.0655
 1440HK4     H420912   4.707   4.406   5.930 -0.8455 -0.5684  0.3765
 1440HK4    C1220913   4.636   4.395   5.730  0.1675  0.0866 -0.1574
 1440HK4     H520914   4.588   4.494   5.737  0.0208 -0.0182  0.3352
 1440HK4    C1320915   4.633   4.328   5.608 -0.2082  0.2811 -0.2539
 1440HK4     H620916   4.592   4.365   5.512  4.3616 -1.0328 -2.8276
 1440HK4     C720917   4.844   4.168   5.954 -0.4619  0.2869 -0.3424
 1440HK4     O220918   4.861   4.251   6.043  0.3673 -0.2876  0.0316
 1440HK4     C420919   4.917   4.040   5.946  0.5883  0.8512  0.2168
 1440HK4     C320920   4.951   3.987   6.070 -0.4939 -0.1060  0.1103
 1440HK4     H320921   4.922   4.045   6.159 -1.2188 -0.5606  0.1704
 1440HK4     C220922   4.990   3.854   6.072 -0.6622 -0.1545  0.0862
 1440HK4     H220923   5.051   3.815   6.155 -0.4570 -1.9441 -0.8772
 1440HK4     C120924   4.986   3.778   5.956 -0.6797  0.5005 -0.3394
 1440HK4     H120925   4.975   3.670   5.975 -2.5041  1.0240  1.7570
 1440HK4     C620926   4.954   3.832   5.830 -0.8477  0.3002 -0.3825
 1440HK4     C520927   4.921   3.968   5.825 -0.5564  0.3989  0.4472
 1440HK4    C1020928   4.868   4.037   5.705 -0.0694 -0.2475 -0.1433
 1440HK4     O120929   4.946   4.044   5.609  0.2400  0.2335  0.1401
 1440HK4    C1620930   5.003   3.757   5.713  0.1739  0.4637 -0.0594
 1440HK4    C1520931   4.924   3.743   5.597 -0.1896 -1.0349  0.3612
 1440HK4     H720932   4.831   3.800   5.588  0.5847  0.3342  0.9565
 1440HK4    C2020933   4.960   3.655   5.496 -0.3126 -0.6356 -0.0263
 1440HK4     H920934   4.883   3.620   5.427 -1.6566  2.1921 -0.0302
 1440HK4    C1920935   5.086   3.597   5.491 -0.2537 -0.5113 -0.0126
 1440HK4    C1820936   5.174   3.616   5.605 -0.1462 -0.0805 -0.1697
 1440HK4    C1720937   5.125   3.690   5.713 -0.3671 -0.5385  0.0466
 1440HK4     H820938   5.158   3.668   5.814 -1.0631  0.2652  0.4492
 1440HK4     N120939   5.301   3.564   5.576  0.1003  0.0407  0.6991
 1440HK4    C2120940   5.296   3.501   5.450  0.3344  0.7879  0.3134
 1440HK4    C2220941   5.167   3.530   5.391  0.2890  0.0463  0.0511
 1440HK4    C2620942   5.132   3.472   5.269 -0.0550  0.2525  0.0512
 1440HK4    H1320943   5.031   3.490   5.232 -0.5165  1.1228  1.6760
 1440HK4    C2520944   5.218   3.380   5.212  0.0094  0.1416  0.3286
 1440HK4    H1220945   5.207   3.359   5.106  1.7463 -1.9932  0.5063
 1440HK4    C2420946   5.344   3.352   5.266 -0.0707  0.2409  0.5687
 1440HK4    H1120947   5.407   3.280   5.213 -1.6200  0.3436 -1.5244
 1440HK4    C2320948   5.383   3.418   5.382 -0.0987  0.0022  0.7143
 1440HK4    H1020949   5.479   3.394   5.428  0.5528 -0.2785 -0.7668
 1440HK4    C3920950   5.417   3.623   5.628  0.0657  0.1749  0.6242
 1440HK4    C4120951   5.521   3.532   5.656  0.2482  0.1137 -0.2253
 1440HK4    H2120952   5.501   3.429   5.691  1.4318 -0.5649 -1.4775
 1440HK4    C4220953   5.651   3.578   5.648  0.2754  0.0203 -0.3118
 1440HK4    H2220954   5.734   3.506   5.642  1.5284  1.4471 -0.5243
 1440HK4    C4320955   5.678   3.712   5.621  0.1061  0.1633  0.2126
 1440HK4    H2320956   5.778   3.742   5.591  0.1905 -1.7502 -1.5992
 1440HK4    C4420957   5.574   3.802   5.606  0.2308  0.3034  0.1924
 1440HK4    H2420958   5.601   3.907   5.584 -3.4961  1.1028 -0.9176
 1440HK4    C4520959   5.441   3.762   5.613  0.3032  0.1267  0.5526
 1440HK4    H2520960   5.366   3.838   5.636  0.4597  0.0674  1.2800
 1441HK4    H2820961  11.139   8.473   9.413  0.0714 -0.3675  0.4098
 1441HK4    C4820962  11.237   8.441   9.379 -0.1661 -0.4465 -0.2138
 1441HK4    C4720963   0.108   8.511   9.399 -0.0813 -0.6412 -0.0417
 1441HK4    H2720964   0.118   8.594   9.470  1.2532 -1.3923  0.6662
 1441HK4    C4620965   0.223   8.483   9.325  0.2271 -0.3982  0.3512
 1441HK4    H2620966   0.302   8.559   9.335  0.7501 -0.7767 -0.9179
 1441HK4    C4020967   0.230   8.380   9.229 -0.2150  0.0133 -0.1232
 1441HK4    C5020968   0.111   8.306   9.220 -0.0683 -0.2687  0.2078
 1441HK4    H3020969   0.099   8.227   9.145 -2.3635  0.3706 -0.1484
 1441HK4    C4920970  11.241   8.336   9.288 -0.4537 -0.2409 -0.4643
 1441HK4    H2920971  11.144   8.294   9.259  0.1233 -2.1989  0.3660
 1441HK4     N220972   0.307   8.387   9.112  0.0477  0.3247  0.0684
 1441HK4    C3020973   0.326   8.502   9.033  0.6022  0.0724 -0.1672
 1441HK4    C2920974   0.251   8.619   9.028  0.9198  0.2898  0.1082
 1441HK4    H1520975   0.146   8.615   9.058  0.3436  1.1555 -1.7526
 1441HK4    C2820976   0.289   8.723   8.944  0.6988  0.4268  0.1792
 1441HK4    C2720977   0.395   8.709   8.853  0.2920 -0.4704 -0.1753
 1441HK4    H1420978   0.424   8.805   8.807 -3.5755  0.9145  0.1535
 1441HK4    C3220979   0.467   8.590   8.848  0.7751 -0.1750 -0.2819
 1441HK4    H1620980   0.545   8.577   8.773  1.8309  1.6592  0.4756
 1441HK4    C3120981   0.436   8.490   8.939  0.5926 -0.0154 -0.1669
 1441HK4    C3420982   0.483   8.355   8.960  0.6566  0.0677  0.2370
 1441HK4    C3320983   0.398   8.293   9.060  0.2201  0.4667  0.1139
 1441HK4    C3520984   0.411   8.158   9.087 -0.2905  0.2628 -0.6489
 1441HK4    H1720985   0.370   8.108   9.175 -1.9170 -0.6636 -1.9034
 1441HK4    C3620986   0.506   8.085   9.016  0.0806 -0.1707  0.2802
 1441HK4    H1820987   0.532   7.982   9.042 -0.4501 -0.3938 -0.0557
 1441HK4    C3720988   0.575   8.139   8.908  0.1491  0.2948  0.5579
 1441HK4    H1920989   0.629   8.073   8.840  0.2104  1.1983 -0.2788
 1441HK4    C3820990   0.564   8.275   8.880  0.2890  0.1473 -0.2117
 1441HK4    H2020991   0.641   8.327   8.822 -1.1271  1.9118 -0.5389
 1441HK4    C1420992   0.202   8.841   8.947  0.4090  0.2193 -0.0049
 1441HK4     C920993   0.186   8.934   8.843 -0.1655  0.2554  0.1130
 1441HK4     C820994   0.155   9.069   8.866  0.1574  0.3712 -0.1189
 1441HK4    C1120995   0.151   9.112   8.998  0.5640  0.3049 -0.0858
 1441HK4     H420996   0.144   9.219   9.023  0.0646  0.2891 -0.1510
 1441HK4    C1220997   0.169   9.026   9.106  0.6394  0.2340 -0.1529
 1441HK4     H520998   0.178   9.052   9.213 -0.2513 -2.5346  0.6359
 1441HK4    C1320999   0.187   8.892   9.078 -0.6467  0.0314 -0.0438
 1441HK4     H621000   0.214   8.839   9.170  0.8963  1.0487  0.1089
 1441HK4     C721001   0.159   9.162   8.751  0.1566  0.1086 -0.3324
 1441HK4     O221002   0.097   9.269   8.758 -0.3265 -0.2305  0.6361
 1441HK4     C421003   0.194   9.118   8.614  0.6423 -0.7083  0.0518
 1441HK4     C321004   0.200   9.212   8.512 -0.6327 -0.4210  0.2305
 1441HK4     H321005   0.169   9.317   8.527 -2.2545 -0.8461 -0.0753
 1441HK4     C221006   0.217   9.170   8.380  0.3821  0.0311  0.2078
 1441HK4     H221007   0.202   9.238   8.295  1.6585 -0.6955 -0.6056
 1441HK4     C121008   0.247   9.036   8.358 -0.4088 -0.0979 -0.1272
 1441HK4     H121009   0.273   8.999   8.258  0.1631 -0.5033  0.1686
 1441HK4     C621010   0.255   8.937   8.459 -0.2285 -0.5043 -0.5412
 1441HK4     C521011   0.216   8.982   8.585  0.3947 -0.6797 -0.2844
 1441HK4    C1021012   0.191   8.890   8.700  0.4151 -0.0546  0.2263
 1441HK4     O121013   0.107   8.804   8.674  0.3568  0.0284  0.1457
 1441HK4    C1621014   0.355   8.830   8.453  0.1671 -0.1561 -0.2656
 1441HK4    C1521015   0.479   8.855   8.391  0.1070  0.1538 -0.2600
 1441HK4     H721016   0.519   8.957   8.402  2.1861 -0.5598 -0.8080
 1441HK4    C2021017   0.553   8.747   8.344 -0.1180 -0.1132  0.0036
 1441HK4     H921018   0.640   8.770   8.282  0.0354 -1.0294 -0.1227
 1441HK4    C1921019   0.516   8.616   8.370 -0.1228 -0.1135 -0.0048
 1441HK4    C1821020   0.389   8.590   8.435 -0.2436 -0.1926 -0.2679
 1441HK4    C1721021   0.309   8.699   8.466  0.0233 -0.0783  0.0137
 1441HK4     H821022   0.213   8.668   8.508  0.0564  0.2804  0.3612
 1441HK4     N121023   0.392   8.457   8.483  0.3666 -0.0596  0.0589
 1441HK4    C2121024   0.514   8.397   8.445  0.3779 -0.1024  0.1623
 1441HK4    C2221025   0.593   8.493   8.370  0.2708  0.1298  0.3496
 1441HK4    C2621026   0.727   8.468   8.343  0.1436 -0.0758 -0.0853
 1441HK4    H1321027   0.779   8.551   8.296 -2.1293  0.9541 -0.8439
 1441HK4    C2521028   0.794   8.358   8.394  0.3115  0.3339  0.5819
 1441HK4    H1221029   0.903   8.351   8.391  0.2813  0.5097 -3.2122
 1441HK4    C2421030   0.724   8.272   8.477  0.1546  0.1700  0.2824
 1441HK4    H1121031   0.772   8.193   8.536 -3.7191 -0.4561  2.8388
 1441HK4    C2321032   0.588   8.293   8.500  0.1375 -0.1175  0.4588
 1441HK4    H1021033   0.538   8.222   8.566  1.4912  0.6731  2.3920
 1441HK4    C3921034   0.275   8.394   8.526  0.1498  0.0541 -0.3672
 1441HK4    C4121035   0.161   8.437   8.455 -0.0756 -0.1738 -0.1434
 1441HK4    H2121036   0.158   8.473   8.351  3.4493 -0.6702 -0.5038
 1441HK4    C4221037   0.039   8.424   8.519  0.0249 -0.3931  0.0020
 1441HK4    H2221038  11.193   8.430   8.461 -0.4802 -0.4710  0.8007
 1441HK4    C4321039   0.027   8.385   8.652  0.6597 -0.6841 -0.0247
 1441HK4    H2321040  11.178   8.378   8.703  0.3800  0.9487 -0.3126
 1441HK4    C4421041   0.140   8.352   8.725  0.6636  0.5220  0.5252
 1441HK4    H2421042   0.139   8.316   8.829  1.8290 -1.1552 -0.0222
 1441HK4    C4521043   0.264   8.361   8.663  0.2424 -0.3617 -0.4573
 1441HK4    H2521044   0.354   8.330   8.718 -0.2869  1.8109  1.7277
 1442HK4    H2821045   9.783  10.805   8.722 -0.1263  0.5791  1.3277
 1442HK4    C4821046   9.857  10.737   8.765  0.2282 -0.0996 -0.3296
 1442HK4    C4721047   9.983  10.736   8.705  0.5657  0.5207  0.3687
 1442HK4    H2721048  10.004  10.807   8.624 -0.1784  0.7231  0.3455
 1442HK4    C4621049  10.080  10.645   8.746  0.3380  0.2731  0.3634
 1442HK4    H2621050  10.177  10.660   8.696 -0.9486  2.3372 -1.5980
 1442HK4    C4021051  10.053  10.551   8.848 -0.2358 -0.0707 -0.0971
 1442HK4    C5021052   9.930  10.566   8.914 -0.5567 -0.0334 -0.7037
 1442HK4    H3021053   9.919  10.519   9.012 -1.7938  2.5391  0.4540
 1442HK4    C4921054   9.829  10.651   8.870 -0.7233 -0.2092 -0.6702
 1442HK4    H2921055   9.738  10.665   8.931  0.4117  2.6767  0.4547
 1442HK4     N221056  10.157  10.460   8.873 -0.3811 -0.3650 -0.5517
 1442HK4    C3021057  10.295  10.489   8.875 -0.4537 -0.0306 -0.3793
 1442HK4    C2921058  10.360  10.608   8.907  0.1932 -0.5096  0.1137
 1442HK4    H1521059  10.317  10.707   8.887  1.9377  0.0631 -0.8754
 1442HK4    C2821060  10.493  10.618   8.946  0.0204 -0.1009  0.5956
 1442HK4    C2721061  10.567  10.498   8.947  0.0566 -0.0764  0.4960
 1442HK4    H1421062  10.673  10.502   8.974 -0.0048  2.0216  0.5709
 1442HK4    C3221063  10.507  10.376   8.916 -0.2504  0.2545 -0.2398
 1442HK4    H1621064  10.570  10.290   8.937  2.0060  0.8790 -3.9538
 1442HK4    C3121065  10.372  10.367   8.886 -0.2441  0.1166 -0.2368
 1442HK4    C3421066  10.284  10.252   8.885 -0.0623 -0.0238 -0.1489
 1442HK4    C3321067  10.156  10.320   8.890 -0.1369 -0.2259  0.6823
 1442HK4    C3521068  10.043  10.249   8.927 -0.3629 -0.1810  0.0898
 1442HK4    H1721069   9.942  10.289   8.923 -1.1171 -2.1219 -1.0989
 1442HK4    C3621070  10.060  10.118   8.973 -0.3880 -0.3844 -0.4616
 1442HK4    H1821071   9.969  10.066   9.005 -2.3135  3.1465  0.0783
 1442HK4    C3721072  10.184  10.057   8.983 -0.0569  0.3446 -0.0588
 1442HK4    H1921073  10.192   9.971   9.051  0.1442  0.0269 -0.4803
 1442HK4    C3821074  10.296  10.122   8.933  0.1918  0.1320  0.2119
 1442HK4    H2021075  10.393  10.082   8.961  0.9318  2.1668  0.6368
 1442HK4    C1421076  10.566  10.744   8.968  0.2079 -0.1062  0.0035
 1442HK4     C921077  10.701  10.770   8.942  0.1070  0.0522 -0.3700
 1442HK4     C821078  10.778  10.855   9.023  0.0620  0.0032 -0.2732
 1442HK4    C1121079  10.713  10.931   9.120  0.0002  0.0511 -0.3530
 1442HK4     H421080  10.766  11.020   9.158 -0.4260 -0.0467  0.4929
 1442HK4    C1221081  10.576  10.921   9.138 -0.0126  0.0274 -0.4616
 1442HK4     H521082  10.518  11.003   9.183 -3.2465 -2.3038 -0.1510
 1442HK4    C1321083  10.505  10.826   9.065 -0.2743  0.4771 -0.7909
 1442HK4     H621084  10.407  10.794   9.103  0.0973  2.1254  1.6771
 1442HK4     C721085  10.925  10.840   9.019  0.1262  0.6025 -0.2840
 1442HK4     O221086  10.991  10.911   9.094  0.2417  0.1143  0.0865
 1442HK4     C421087  10.987  10.742   8.926 -0.0875  0.3586 -0.1664
 1442HK4     C321088  11.121  10.706   8.937 -0.1671  0.2157  0.3427
 1442HK4     H321089  11.189  10.746   9.014 -0.1339 -0.4748  0.6766
 1442HK4     C221090  11.176  10.601   8.864 -0.1598  0.3134  0.2060
 1442HK4     H221091   0.038  10.605   8.860 -0.1731  0.0744 -0.2610
 1442HK4     C121092  11.096  10.533   8.774  0.1039  0.0287  0.1819
 1442HK4     H121093  11.134  10.442   8.726 -0.6229 -0.0280 -0.3066
 1442HK4     C621094  10.959  10.563   8.760  0.2032  0.3657 -0.0640
 1442HK4     C521095  10.909  10.671   8.834 -0.0725  0.2695 -0.1109
 1442HK4    C1021096  10.761  10.693   8.830 -0.2078 -0.6140 -0.0809
 1442HK4     O121097  10.713  10.729   8.723 -0.4950  0.0046  0.2606
 1442HK4    C1621098  10.879  10.452   8.705  0.4421  0.0633  0.1968
 1442HK4    C1521099  10.908  10.318   8.739  0.1046 -0.0661 -0.0159
 1442HK4     H721100  10.998  10.307   8.801  0.3999 -0.7289 -0.5566
 1442HK4    C2021101  10.859  10.207   8.672  0.0938 -0.0132 -0.0927
 1442HK4     H921102  10.888  10.102   8.683 -0.1120  0.0834  1.6016
 1442HK4    C1921103  10.764  10.224   8.573 -0.0358  0.2876  0.0846
 1442HK4    C1821104  10.733  10.360   8.532 -0.1901  0.2980  0.2205
 1442HK4    C1721105  10.791  10.467   8.598  0.5387 -0.0231  0.1046
 1442HK4     H821106  10.774  10.564   8.551  0.3725  0.7155  1.6499
 1442HK4     N121107  10.621  10.367   8.447  0.1051 -0.0063 -0.2003
 1442HK4    C2121108  10.594  10.235   8.406  0.0753 -0.0708  0.0347
 1442HK4    C2221109  10.672  10.147   8.491 -0.2540  0.0953  0.5107
 1442HK4    C2621110  10.677  10.010   8.467 -0.3559  0.1820  0.0075
 1442HK4    H1321111  10.747   9.936   8.507 -0.2911  0.7113  0.8884
 1442HK4    C2521112  10.605   9.963   8.358  0.2954  0.1329 -0.4056
 1442HK4    H1221113  10.609   9.856   8.337  2.4036  0.0600  0.1990
 1442HK4    C2421114  10.525  10.040   8.275  0.3943 -0.1042 -0.7237
 1442HK4    H1121115  10.456  10.007   8.196  1.2803 -1.3656 -0.9731
 1442HK4    C2321116  10.517  10.175   8.307  0.0805 -0.3384  0.1921
 1442HK4    H1021117  10.447  10.246   8.262  1.1587 -0.9818 -2.5624
 1442HK4    C3921118  10.532  10.475   8.432  0.1370  0.0045 -0.3163
 1442HK4    C4121119  10.452  10.488   8.317 -0.0196  0.2524 -0.1768
 1442HK4    H2121120  10.491  10.453   8.220 -0.4536 -0.3833 -0.1234
 1442HK4    C4221121  10.347  10.580   8.311 -0.2273  0.0637  0.4839
 1442HK4    H2221122  10.275  10.585   8.228  0.9553 -0.5914 -0.6114
 1442HK4    C4321123  10.320  10.665   8.417 -0.4362  0.2643  0.2680
 1442HK4    H2321124  10.243  10.742   8.413  0.9300  1.6449  0.1040
 1442HK4    C4421125  10.396  10.645   8.531  0.1091  0.4453 -0.0585
 1442HK4    H2421126  10.378  10.720   8.610 -0.9287 -1.6325  1.7467
 1442HK4    C4521127  10.502  10.556   8.543 -0.4856 -0.2981 -0.2619
 1442HK4    H2521128  10.564  10.556   8.634 -0.5714  2.0944 -0.1830
 1443HK4    H2821129   6.362   4.014   0.810  1.3447  1.0950 -1.0253
 1443HK4    C4821130   6.321   3.959   0.725  0.0540  0.4136  0.0330
 1443HK4    C4721131   6.188   3.967   0.686 -0.0129 -0.7932 -0.0237
 1443HK4    H2721132   6.122   4.033   0.744 -1.5743  0.2187 -2.8281
 1443HK4    C4621133   6.127   3.907   0.576  0.0383 -0.5195 -0.2032
 1443HK4    H2621134   6.017   3.909   0.571  0.1031 -0.4626 -1.5946
 1443HK4    C4021135   6.215   3.834   0.493 -0.0718 -0.4413 -0.3872
 1443HK4    C5021136   6.353   3.833   0.523 -0.0936 -0.3135 -0.2839
 1443HK4    H3021137   6.416   3.774   0.456  1.2535 -1.3324  1.8371
 1443HK4    C4921138   6.405   3.891   0.638 -0.4034  0.7204 -0.6522
 1443HK4    H2921139   6.515   3.897   0.646 -0.4975 -0.4580  2.3086
 1443HK4     N221140   6.169   3.732   0.409  0.0303 -0.6411 -0.2009
 1443HK4    C3021141   6.042   3.672   0.422 -0.4083  0.4109  0.3990
 1443HK4    C2921142   5.951   3.668   0.527 -0.1907  0.4440  0.5893
 1443HK4    H1521143   5.978   3.704   0.626  0.9226  0.5370  0.2519
 1443HK4    C2821144   5.825   3.608   0.526  0.2506 -0.4797 -0.1593
 1443HK4    C2721145   5.798   3.537   0.407  0.1318 -0.0562 -0.3873
 1443HK4    H1421146   5.709   3.471   0.402  0.4697 -0.3318 -3.4607
 1443HK4    C3221147   5.881   3.540   0.296  0.3888 -0.3191 -0.2027
 1443HK4    H1621148   5.843   3.482   0.212 -1.7386  1.9088 -0.8172
 1443HK4    C3121149   5.999   3.614   0.297  0.3879 -0.3185  0.4596
 1443HK4    C3421150   6.109   3.627   0.204  0.1822 -0.0003  0.2601
 1443HK4    C3321151   6.210   3.701   0.278  0.5371 -0.0336 -0.1902
 1443HK4    C3521152   6.328   3.731   0.211  0.3615  0.1860 -0.4043
 1443HK4    H1721153   6.414   3.779   0.258  1.0600 -1.0115 -0.4415
 1443HK4    C3621154   6.343   3.691   0.078 -0.7068  0.2654 -0.5536
 1443HK4    H1821155   6.442   3.687   0.031 -0.5536 -1.7678 -0.0839
 1443HK4    C3721156   6.242   3.629   0.006 -0.7102  0.2064 -0.4977
 1443HK4    H1921157   6.248   3.608  11.147 -0.0509 -0.2408 -0.3808
 1443HK4    C3821158   6.125   3.591   0.070 -0.1687 -0.1910  0.2688
 1443HK4    H2021159   6.041   3.546   0.018 -0.4614  0.0146  0.5585
 1443HK4    C1421160   5.744   3.605   0.648  0.0202  0.0192 -0.2977
 1443HK4     C921161   5.668   3.497   0.695 -0.3310  0.1305 -0.6081
 1443HK4     C821162   5.572   3.526   0.795  0.1782  0.3914 -0.1919
 1443HK4    C1121163   5.560   3.650   0.855  0.1347  0.1358  0.3322
 1443HK4     H421164   5.489   3.672   0.935 -0.7850 -1.9488  0.1189
 1443HK4    C1221165   5.649   3.752   0.822  0.0402  0.0951 -0.0486
 1443HK4     H521166   5.653   3.844   0.882 -1.8448  0.0792  0.1115
 1443HK4    C1321167   5.736   3.728   0.716 -0.3773  0.0400 -0.3789
 1443HK4     H621168   5.799   3.809   0.676 -0.0168  0.4711  1.0381
 1443HK4     C721169   5.469   3.424   0.826 -0.0629  0.6074 -0.2837
 1443HK4     O221170   5.387   3.451   0.914  0.2006  0.0447  0.1383
 1443HK4     C421171   5.474   3.295   0.755 -0.1421  0.4782 -0.0541
 1443HK4     C321172   5.382   3.198   0.794  0.2964 -0.0737 -0.3829
 1443HK4     H321173   5.311   3.222   0.875  0.8345 -2.1507  0.7457
 1443HK4     C221174   5.377   3.080   0.720  0.6440 -0.4144  0.1356
 1443HK4     H221175   5.317   2.996   0.758  1.3058 -0.9742 -0.0451
 1443HK4     C121176   5.452   3.065   0.604 -0.3274  0.1592 -0.5806
 1443HK4     H121177   5.455   2.960   0.570  0.2994 -0.5488  1.5221
 1443HK4     C621178   5.542   3.164   0.559  0.2556 -0.0835  0.0347
 1443HK4     C521179   5.566   3.265   0.653 -0.2627  0.1308 -0.0632
 1443HK4    C1021180   5.680   3.360   0.638 -0.0893 -0.0789 -0.0570
 1443HK4     O121181   5.794   3.315   0.632  0.1139  0.3482  0.5538
 1443HK4    C1621182   5.560   3.190   0.416  0.0923  0.2156  0.0681
 1443HK4    C1521183   5.445   3.190   0.334  0.0425 -0.4265  0.1374
 1443HK4     H721184   5.348   3.202   0.384  0.3174 -0.3994  0.6732
 1443HK4    C2021185   5.447   3.185   0.195  0.0345  0.3565  0.1102
 1443HK4     H921186   5.359   3.164   0.135  0.9063 -1.4793 -0.5620
 1443HK4    C1921187   5.574   3.180   0.140 -0.0122 -0.4363  0.0671
 1443HK4    C1821188   5.697   3.167   0.217  0.3111  0.2476 -0.3201
 1443HK4    C1721189   5.684   3.176   0.355 -0.1307  0.0308 -0.3434
 1443HK4     H821190   5.774   3.158   0.415  0.4526 -0.2223 -1.2678
 1443HK4     N121191   5.808   3.142   0.134  0.3907  0.0727 -0.1602
 1443HK4    C2121192   5.759   3.139   0.002  0.1929 -0.5490 -0.0726
 1443HK4    C2221193   5.616   3.163   0.002  0.2280 -0.3400  0.1273
 1443HK4    C2621194   5.547   3.154  11.129  0.2772  0.1861  0.0606
 1443HK4    H1321195   5.438   3.155  11.122  0.5092  1.5485 -5.1462
 1443HK4    C2521196   5.619   3.123  11.015  0.4269  0.2224  0.1439
 1443HK4    H1221197   5.565   3.125  10.920 -1.9145  0.4207  1.4413
 1443HK4    C2421198   5.757   3.107  11.011  0.4061  0.0978 -0.1594
 1443HK4    H1121199   5.809   3.098  10.915 -0.7703  1.8686 -0.9934
 1443HK4    C2321200   5.827   3.119  11.131  0.3199  0.0935 -0.1080
 1443HK4    H1021201   5.933   3.094  11.125  0.4845  0.9830 -1.2306
 1443HK4    C3921202   5.918   3.061   0.165  0.0397 -0.2449  0.2614
 1443HK4    C4121203   6.036   3.080   0.090 -0.1593 -0.2249 -0.0477
 1443HK4    H2121204   6.061   3.182   0.056 -1.0091  0.1737  0.5021
 1443HK4    C4221205   6.137   2.986   0.102  0.1030  0.0580 -0.0279
 1443HK4    H2221206   6.227   3.005   0.042 -0.4678 -0.7421 -1.1591
 1443HK4    C4321207   6.130   2.879   0.190  0.1892  0.2631  0.2276
 1443HK4    H2321208   6.210   2.804   0.182  0.0550 -0.2756  3.1168
 1443HK4    C4421209   6.015   2.867   0.268  0.2345  0.0757  0.2649
 1443HK4    H2421210   6.004   2.802   0.356 -3.5145  0.3245  0.0488
 1443HK4    C4521211   5.905   2.949   0.249  0.1542  0.0711  0.7057
 1443HK4    H2521212   5.807   2.921   0.290 -0.1285  0.1737  0.1076
 1444HK4    H2821213   9.148  10.896   1.464  0.4774 -3.5851  1.6239
 1444HK4    C4821214   9.050  10.909   1.511 -0.0183  0.1015 -0.2916
 1444HK4    C4721215   8.938  10.924   1.429  0.0796 -0.4936 -0.5343
 1444HK4    H2721216   8.953  10.909   1.321 -1.0572  1.0773 -0.9153
 1444HK4    C4621217   8.810  10.918   1.483  0.4368  0.7991  0.4967
 1444HK4    H2621218   8.729  10.900   1.411 -0.1304  0.2728  1.2612
 1444HK4    C4021219   8.786  10.902   1.621  0.2316 -0.6054  0.3051
 1444HK4    C5021220   8.902  10.883   1.698  0.4102 -0.2189  0.1369
 1444HK4    H3021221   8.897  10.869   1.808 -0.9176 -2.3032 -0.1538
 1444HK4    C4921222   9.031  10.883   1.646  0.2453  0.0256 -0.2680
 1444HK4    H2921223   9.114  10.848   1.709 -0.7563  0.4588  1.3421
 1444HK4     N221224   8.665  10.935   1.683 -0.0765 -0.2359 -0.4790
 1444HK4    C3021225   8.566  11.017   1.625 -0.4611 -0.1633  0.2754
 1444HK4    C2921226   8.585  11.136   1.556 -0.6002 -0.2573  0.0748
 1444HK4    H1521227   8.684  11.173   1.529  0.5553 -0.6713  3.5993
 1444HK4    C2821228   8.478  11.223   1.536 -0.1519  0.1566 -0.5311
 1444HK4    C2721229   8.348  11.182   1.572 -0.2130  0.5132 -0.3364
 1444HK4    H1421230   8.258  11.229   1.530  0.4665  2.8300  0.7034
 1444HK4    C3221231   8.331  11.065   1.645  0.4132  0.5461 -0.1301
 1444HK4    H1621232   8.233  11.046   1.688  0.0813  0.9378 -0.7107
 1444HK4    C3121233   8.435  10.977   1.673 -0.3995 -0.2661  0.3618
 1444HK4    C3421234   8.453  10.868   1.766  0.2008 -0.4779  0.0030
 1444HK4    C3321235   8.596  10.845   1.767  0.3474  0.4193  0.5771
 1444HK4    C3521236   8.646  10.729   1.825  0.0100 -0.0041  0.0316
 1444HK4    H1721237   8.754  10.721   1.840  0.0831 -0.4401 -0.7629
 1444HK4    C3621238   8.556  10.637   1.879  0.4777 -0.2495  0.3989
 1444HK4    H1821239   8.599  10.555   1.938  0.8495 -0.0363  0.4326
 1444HK4    C3721240   8.419  10.654   1.863  0.7387  0.6762 -0.9901
 1444HK4    H1921241   8.355  10.568   1.883 -0.6397  1.5239 -1.6920
 1444HK4    C3821242   8.365  10.771   1.811 -0.7869  0.6373  0.4942
 1444HK4    H2021243   8.257  10.781   1.802 -0.6477  1.0937 -0.6796
 1444HK4    C1421244   8.519   0.117   1.533  0.6033 -0.0411  0.1811
 1444HK4     C921245   8.507   0.222   1.624 -0.5621  0.0852 -0.1140
 1444HK4     C821246   8.519   0.355   1.578  0.5345 -0.0014 -0.0737
 1444HK4    C1121247   8.518   0.377   1.441 -0.0414 -0.4971 -0.1498
 1444HK4     H421248   8.500   0.477   1.397 -1.0237 -0.4294  0.3861
 1444HK4    C1221249   8.531   0.276   1.347  0.0582 -0.1171 -0.5480
 1444HK4     H521250   8.567   0.300   1.246  0.7674 -0.3101 -0.3481
 1444HK4    C1321251   8.541   0.146   1.397 -0.2861  0.0888  0.0623
 1444HK4     H621252   8.587   0.068   1.334 -0.8002  0.6330 -1.0161
 1444HK4     C721253   8.497   0.472   1.667  0.5860  0.0601 -0.1414
 1444HK4     O221254   8.518   0.588   1.632 -0.2722  0.0836 -0.5873
 1444HK4     C421255   8.488   0.443   1.812  0.7908  0.3399 -0.0722
 1444HK4     C321256   8.455   0.546   1.898  0.8093  0.3188 -0.0406
 1444HK4     H321257   8.384   0.624   1.868  0.5966  0.8567  1.8213
 1444HK4     C221258   8.491   0.533   2.032 -0.6122 -0.2798  0.2905
 1444HK4     H221259   8.434   0.590   2.106  0.7976 -0.6567  1.6993
 1444HK4     C121260   8.565   0.424   2.078 -0.0529  0.1188  0.3351
 1444HK4     H121261   8.621   0.440   2.171  1.0556 -0.3417 -0.2314
 1444HK4     C621262   8.597   0.318   1.991  0.2443  0.6422 -0.1999
 1444HK4     C521263   8.546   0.324   1.861  0.2647  0.0164 -0.2363
 1444HK4    C1021264   8.527   0.207   1.770  0.0420  0.0252 -0.2018
 1444HK4     O121265   8.507   0.096   1.820  0.3925 -0.0519 -0.2327
 1444HK4    C1621266   8.666   0.203   2.051  0.3189  0.6018 -0.3610
 1444HK4    C1521267   8.641   0.172   2.186 -0.1345 -0.6005 -0.7172
 1444HK4     H721268   8.545   0.200   2.233  0.3307 -1.3983  0.7397
 1444HK4    C2021269   8.726   0.091   2.260 -0.1816  0.0128  0.0152
 1444HK4     H921270   8.699   0.061   2.361  1.7639 -1.1624  0.2189
 1444HK4    C1921271   8.840   0.039   2.198 -0.1683  0.0723 -0.0113
 1444HK4    C1821272   8.865   0.065   2.058 -0.1412 -0.2423 -0.0649
 1444HK4    C1721273   8.777   0.147   1.988  0.2380  0.1411 -0.0944
 1444HK4     H821274   8.798   0.169   1.884  0.4451  2.7166  0.4649
 1444HK4     N121275   8.976  11.240   2.011 -0.6713 -0.6688 -0.6815
 1444HK4    C2121276   9.024  11.166   2.121 -0.3674  0.0615 -0.3153
 1444HK4    C2221277   8.937  11.187   2.236 -0.1920 -0.0092 -0.1711
 1444HK4    C2621278   8.968  11.132   2.360  0.4843  0.3035 -0.1978
 1444HK4    H1321279   8.925  11.185   2.444 -1.3170  0.7189 -1.3474
 1444HK4    C2521280   9.082  11.056   2.382 -0.0659 -0.4425  0.1128
 1444HK4    H1221281   9.107  10.996   2.470  0.3225  0.8627  0.9046
 1444HK4    C2421282   9.165  11.043   2.271  0.3828  1.3231  0.2280
 1444HK4    H1121283   9.260  10.990   2.288 -0.4193 -0.5115 -0.8362
 1444HK4    C2321284   9.143  11.098   2.145 -0.0118  0.8071  0.0727
 1444HK4    H1021285   9.226  11.127   2.081  0.3281  2.6585  1.3298
 1444HK4    C3921286   9.047   0.021   1.894  0.4067 -0.3660  0.0369
 1444HK4    C4121287   9.128  11.170   1.834  0.5766 -0.1396 -0.1117
 1444HK4    H2121288   9.108  11.063   1.852 -2.0885 -0.1592 -2.7143
 1444HK4    C4221289   9.235  11.194   1.749  0.3424 -0.4205 -0.4889
 1444HK4    H2221290   9.290  11.116   1.694  0.0677 -0.1923 -1.0897
 1444HK4    C4321291   9.264   0.079   1.722 -0.0759 -0.1961  0.1351
 1444HK4    H2321292   9.357   0.107   1.672 -0.1121 -0.2762  0.0236
 1444HK4    C4421293   9.178   0.180   1.764 -0.2732  0.0157 -0.7555
 1444HK4    H2421294   9.188   0.274   1.709  0.8319  0.1000 -0.4259
 1444HK4    C4521295   9.068   0.151   1.844  0.3264 -0.3894 -0.0565
 1444HK4    H2521296   8.997   0.231   1.872 -2.7770 -2.7557 -0.8176
 1445HK4    H2821297   8.888   2.996   4.701  0.3589 -0.2261 -0.3419
 1445HK4    C4821298   8.863   3.097   4.734  0.4250 -0.3366  0.0533
 1445HK4    C4721299   8.909   3.144   4.857 -0.1246 -0.4072  0.2903
 1445HK4    H2721300   8.969   3.083   4.926  0.4560  1.4923  1.4998
 1445HK4    C4621301   8.900   3.278   4.892  0.5915 -0.1676 -0.4171
 1445HK4    H2621302   8.940   3.297   4.993 -0.4936 -1.3572  0.2462
 1445HK4    C4021303   8.828   3.377   4.821 -0.6111 -0.7366 -0.0007
 1445HK4    C5021304   8.770   3.321   4.706 -0.4008 -0.3621 -0.2872
 1445HK4    H3021305   8.697   3.386   4.655 -0.2426 -1.2569 -1.6933
 1445HK4    C4921306   8.789   3.190   4.662 -0.6093 -0.7033  0.6351
 1445HK4    H2921307   8.742   3.162   4.567  0.2594 -2.0247  0.5946
 1445HK4     N221308   8.793   3.498   4.880  0.8248 -0.3390  0.0578
 1445HK4    C3021309   8.772   3.519   5.018 -0.0747  0.2529 -0.1611
 1445HK4    C2921310   8.753   3.428   5.122 -1.0683 -0.1719 -0.7137
 1445HK4    H1521311   8.763   3.323   5.095 -0.4158 -0.7691  1.7241
 1445HK4    C2821312   8.715   3.462   5.251  0.0697 -0.3104 -0.3353
 1445HK4    C2721313   8.686   3.599   5.267  0.5721 -0.2800  0.3473
 1445HK4    H1421314   8.627   3.622   5.357 -2.5314  0.9511 -1.8965
 1445HK4    C3221315   8.701   3.697   5.170 -0.6057 -0.3157  0.1204
 1445HK4    H1621316   8.655   3.795   5.180  0.1428 -0.2538  3.5644
 1445HK4    C3121317   8.755   3.660   5.047 -0.6456  0.1611 -0.0429
 1445HK4    C3421318   8.789   3.726   4.922 -0.6173  0.0406 -0.0965
 1445HK4    C3321319   8.805   3.625   4.819 -0.5575 -0.1660  0.1147
 1445HK4    C3521320   8.864   3.654   4.697  0.2180 -0.3185  0.4460
 1445HK4    H1721321   8.872   3.582   4.615 -1.8895  0.2927 -0.3289
 1445HK4    C3621322   8.906   3.784   4.672 -0.1196 -0.2247  0.3627
 1445HK4    H1821323   8.951   3.820   4.578 -1.6800 -0.7832 -0.6150
 1445HK4    C3721324   8.897   3.878   4.775 -0.1345  0.2684 -0.0879
 1445HK4    H1921325   8.947   3.975   4.768  1.3936 -0.6793 -3.0146
 1445HK4    C3821326   8.835   3.854   4.897 -0.2517 -0.1135 -0.2225
 1445HK4    H2021327   8.831   3.922   4.982  1.0055 -0.6698  0.2949
 1445HK4    C1421328   8.683   3.355   5.347  0.3981  0.6368  0.8442
 1445HK4     C921329   8.588   3.353   5.449 -0.8490 -0.8677 -0.3151
 1445HK4     C821330   8.614   3.277   5.565  0.1373 -0.0143  0.0367
 1445HK4    C1121331   8.723   3.191   5.574 -0.1952 -0.4401  0.0186
 1445HK4     H421332   8.758   3.157   5.672 -0.6970 -0.2523  0.2646
 1445HK4    C1221333   8.807   3.179   5.464 -0.2526 -0.2498 -0.0461
 1445HK4     H521334   8.889   3.106   5.458  0.4565  0.6195 -1.5223
 1445HK4    C1321335   8.794   3.269   5.358  0.1795  0.2893  0.3532
 1445HK4     H621336   8.875   3.276   5.283  1.4867  0.6702  1.7656
 1445HK4     C721337   8.513   3.278   5.673 -0.0035  0.5072 -0.0955
 1445HK4     O221338   8.532   3.227   5.784  0.0459  0.1759 -0.2577
 1445HK4     C421339   8.385   3.350   5.655 -0.3401  0.0193  0.3231
 1445HK4     C321340   8.296   3.373   5.760 -0.2316  0.3809  0.3373
 1445HK4     H321341   8.327   3.333   5.858  0.5552 -1.9692 -0.8271
 1445HK4     C221342   8.171   3.432   5.750 -0.5118 -0.1707  0.5403
 1445HK4     H221343   8.117   3.461   5.842  3.9286  0.9751  2.9559
 1445HK4     C121344   8.132   3.480   5.626  0.1965  0.3832  0.5297
 1445HK4     H121345   8.029   3.513   5.608  1.1542  2.6409 -1.1750
 1445HK4     C621346   8.213   3.450   5.514 -0.1978  0.2124  0.2911
 1445HK4     C521347   8.340   3.394   5.529 -0.3586 -0.1596  0.2697
 1445HK4    C1021348   8.449   3.403   5.428 -0.5265  0.2294  0.1227
 1445HK4     O121349   8.423   3.455   5.320 -0.9014 -0.3785 -0.0781
 1445HK4    C1621350   8.157   3.493   5.385  0.0725  0.1240  0.1437
 1445HK4    C1521351   8.084   3.614   5.392  0.0795  0.1639 -0.4276
 1445HK4     H721352   8.119   3.708   5.439 -0.0380  0.4809 -0.9735
 1445HK4    C2021353   7.969   3.631   5.316 -0.2315 -0.2774 -0.0581
 1445HK4     H921354   7.924   3.730   5.308 -0.5943 -0.4608 -0.2506
 1445HK4    C1921355   7.925   3.539   5.223 -0.2497 -0.4701  0.1402
 1445HK4    C1821356   7.992   3.410   5.224  0.4366 -0.1211 -0.2575
 1445HK4    C1721357   8.106   3.394   5.301 -0.0857 -0.1126  0.5178
 1445HK4     H821358   8.165   3.307   5.274  0.0981  0.2536 -0.2538
 1445HK4     N121359   7.926   3.316   5.142  0.0912  0.3368 -0.5070
 1445HK4    C2121360   7.809   3.385   5.104 -0.0592  0.2445 -0.2158
 1445HK4    C2221361   7.806   3.525   5.141 -0.1420  0.2229 -0.1414
 1445HK4    C2621362   7.689   3.600   5.141 -0.4105 -0.1835  0.4938
 1445HK4    H1321363   7.699   3.703   5.175 -1.1949 -0.2801  1.0386
 1445HK4    C2521364   7.571   3.543   5.093 -0.3664 -0.3766  0.6145
 1445HK4    H1221365   7.488   3.612   5.079  0.2128  0.1398 -0.3335
 1445HK4    C2421366   7.570   3.410   5.054 -0.2996 -0.1578 -0.1299
 1445HK4    H1121367   7.475   3.362   5.029 -0.2604  0.5157 -1.6403
 1445HK4    C2321368   7.687   3.335   5.061 -0.1981  0.0501  0.4062
 1445HK4    H1021369   7.682   3.236   5.015  0.9025 -0.4250  1.2964
 1445HK4    C3921370   7.987   3.223   5.056 -0.0862 -0.2580  0.0032
 1445HK4    C4121371   7.920   3.117   4.992 -0.0319 -0.5525  0.4360
 1445HK4    H2121372   7.813   3.103   5.015  0.1338 -0.3900  1.3444
 1445HK4    C4221373   7.964   3.052   4.878 -0.2242 -0.5691  0.3699
 1445HK4    H2221374   7.912   2.964   4.838  0.3909 -0.7332 -0.0855
 1445HK4    C4321375   8.076   3.104   4.813 -0.2343 -0.6932  0.2475
 1445HK4    H2321376   8.091   3.080   4.708 -0.2139 -3.4944  0.8436
 1445HK4    C4421377   8.149   3.207   4.870 -0.6348 -0.1905 -0.1464
 1445HK4    H2421378   8.245   3.238   4.826 -0.1547  1.2497  1.8072
 1445HK4    C4521379   8.103   3.265   4.988  0.3777 -0.6999  0.5166
 1445HK4    H2521380   8.147   3.359   5.024 -2.0321  1.1376 -1.1286
 1446HK4    H2821381   9.776   8.266   8.517 -1.2536  1.2966 -1.9238
 1446HK4    C4821382   9.808   8.190   8.446 -0.1378 -0.4688  0.4185
 1446HK4    C4721383   9.922   8.111   8.450  0.3730  0.2526  0.3573
 1446HK4    H2721384   9.982   8.091   8.540 -0.4552  0.0604  0.8726
 1446HK4    C4621385   9.953   8.032   8.339 -0.1182 -0.0015  0.3992
 1446HK4    H2621386  10.037   7.965   8.362 -1.1168 -0.9703  1.2293
 1446HK4    C4021387   9.879   8.028   8.220  0.6676  0.8122 -0.1296
 1446HK4    C5021388   9.759   8.102   8.229  0.4067  0.3057  0.5755
 1446HK4    H3021389   9.690   8.078   8.147  1.6035  1.1203 -0.6864
 1446HK4    C4921390   9.726   8.187   8.334 -0.2211  0.2158  0.4565
 1446HK4    H2921391   9.633   8.243   8.318 -0.8916 -1.1272 -0.4202
 1446HK4     N221392   9.933   7.967   8.106  0.2431  0.7138 -0.2802
 1446HK4    C3021393   9.860   7.896   8.008  0.1739 -0.1490  0.3928
 1446HK4    C2921394   9.727   7.860   7.999 -0.0011  0.6313 -0.2890
 1446HK4    H1521395   9.673   7.833   8.091 -0.7482  0.0498 -0.8856
 1446HK4    C2821396   9.667   7.817   7.881 -0.1066 -0.0595  0.0068
 1446HK4    C2721397   9.751   7.799   7.769  0.5319  0.7750  0.3480
 1446HK4    H1421398   9.708   7.762   7.675  0.7591  0.5377  0.3369
 1446HK4    C3221399   9.889   7.813   7.778  0.7359 -1.0866  0.4650
 1446HK4    H1621400   9.945   7.792   7.686  0.7712  0.1501  0.1853
 1446HK4    C3121401   9.944   7.869   7.893  0.0316  0.1034  0.2318
 1446HK4    C3421402  10.076   7.926   7.918  0.2799 -0.2960 -0.1641
 1446HK4    C3321403  10.060   7.988   8.048  0.2156  0.3538 -0.4794
 1446HK4    C3521404  10.157   8.078   8.090  0.1438  0.1493  0.1270
 1446HK4    H1721405  10.136   8.140   8.177 -1.9576 -0.7093  0.2711
 1446HK4    C3621406  10.273   8.104   8.018  0.1406  0.2472  0.1515
 1446HK4    H1821407  10.366   8.139   8.066 -0.3238  1.9776 -0.1771
 1446HK4    C3721408  10.288   8.043   7.894  0.2742  0.3728  0.1048
 1446HK4    H1921409  10.387   8.044   7.849  0.9276  3.3047  1.5149
 1446HK4    C3821410  10.188   7.961   7.844  0.4570  0.0544  0.2664
 1446HK4    H2021411  10.191   7.935   7.738 -0.7344  0.2578  0.1706
 1446HK4    C1421412   9.523   7.787   7.881 -0.1818  0.2926 -0.0805
 1446HK4     C921413   9.464   7.692   7.797 -0.3952 -0.2887  0.7141
 1446HK4     C821414   9.348   7.718   7.720 -0.6397 -0.6131  0.9806
 1446HK4    C1121415   9.294   7.845   7.733  0.6335  0.0817 -0.3816
 1446HK4     H421416   9.235   7.879   7.647  0.3225  1.2030  0.2599
 1446HK4    C1221417   9.337   7.939   7.826  0.0282  0.6753 -0.6910
 1446HK4     H521418   9.289   8.037   7.824 -0.5420  0.4339  0.8214
 1446HK4    C1321419   9.449   7.905   7.902  0.0825  0.5937 -0.8075
 1446HK4     H621420   9.493   7.989   7.958 -0.9535  1.2694 -0.9914
 1446HK4     C721421   9.285   7.608   7.644 -0.2651 -0.4298  0.3994
 1446HK4     O221422   9.178   7.629   7.586 -0.2064 -0.1662  0.3835
 1446HK4     C421423   9.344   7.473   7.656 -0.4277 -0.5159  0.2247
 1446HK4     C321424   9.297   7.366   7.581 -0.2479 -0.0271 -0.5928
 1446HK4     H321425   9.220   7.382   7.504 -1.2900 -2.9402 -0.2042
 1446HK4     C221426   9.338   7.235   7.607  0.2523  0.2696  0.1416
 1446HK4     H221427   9.332   7.157   7.530  0.3971 -0.3678  0.7715
 1446HK4     C121428   9.403   7.202   7.725 -0.2722 -0.6190  0.1921
 1446HK4     H121429   9.397   7.098   7.760  0.2775 -0.0501  2.0042
 1446HK4     C621430   9.443   7.308   7.809 -0.7926 -0.1716 -0.1262
 1446HK4     C521431   9.429   7.440   7.764 -0.0056 -0.0250  0.0466
 1446HK4    C1021432   9.504   7.552   7.828  0.2637 -0.2395  0.1087
 1446HK4     O121433   9.603   7.524   7.895 -0.1037 -0.2245  0.6658
 1446HK4    C1621434   9.462   7.272   7.950 -0.1506 -0.4453 -0.2823
 1446HK4    C1521435   9.496   7.140   7.989  0.7889 -0.0473  0.2649
 1446HK4     H721436   9.569   7.084   7.929  1.9960  1.2805  0.4813
 1446HK4    C2021437   9.455   7.076   8.105 -0.2893 -0.1150 -0.1481
 1446HK4     H921438   9.518   6.995   8.139  0.6692  1.0934  0.9820
 1446HK4    C1921439   9.365   7.139   8.190 -0.4467 -0.2944 -0.1796
 1446HK4    C1821440   9.338   7.277   8.155  0.2107 -0.0589  0.2274
 1446HK4    C1721441   9.387   7.343   8.043  0.1550 -0.4548 -0.0272
 1446HK4     H821442   9.357   7.446   8.024 -0.0558 -0.2516  1.3870
 1446HK4     N121443   9.266   7.339   8.260  0.3860 -0.1777  0.4201
 1446HK4    C2121444   9.235   7.235   8.350  0.1491 -0.3499  0.1374
 1446HK4    C2221445   9.309   7.114   8.321  0.6950 -0.0701  0.3625
 1446HK4    C2621446   9.310   7.002   8.405  0.0651 -0.1400  0.2819
 1446HK4    H1321447   9.382   6.922   8.390 -1.1681 -1.0424 -0.9064
 1446HK4    C2521448   9.218   7.001   8.509 -0.0873 -0.2855  0.1471
 1446HK4    H1221449   9.196   6.904   8.552  0.5822 -0.6825 -0.3925
 1446HK4    C2421450   9.143   7.114   8.539 -0.1632 -0.3845  0.3166
 1446HK4    H1121451   9.100   7.119   8.640 -2.1271 -0.4306 -0.4884
 1446HK4    C2321452   9.152   7.229   8.461  0.2560 -0.4884  0.2136
 1446HK4    H1021453   9.080   7.307   8.487  0.1679 -0.7923  0.8949
 1446HK4    C3921454   9.188   7.455   8.254  0.0891 -0.3784  0.3942
 1446HK4    C4121455   9.125   7.494   8.134  0.9379  0.8406  0.3271
 1446HK4    H2121456   9.126   7.425   8.049  1.4901 -0.3105  1.2429
 1446HK4    C4221457   9.058   7.615   8.131 -0.0852  0.2751 -0.0689
 1446HK4    H2221458   9.032   7.650   8.030 -1.0520 -1.3987 -0.4145
 1446HK4    C4321459   9.041   7.693   8.246 -0.0579 -0.1499  0.2251
 1446HK4    H2321460   9.027   7.800   8.231 -0.1905  0.2098  2.7913
 1446HK4    C4421461   9.093   7.649   8.367  0.0193 -0.3119  0.1307
 1446HK4    H2421462   9.067   7.703   8.458 -1.7665 -1.3206  0.2304
 1446HK4    C4521463   9.169   7.532   8.371  0.4724 -0.0156  0.2210
 1446HK4    H2521464   9.212   7.488   8.462 -0.5719 -0.7767  0.3547
 1447HK4    H2821465   5.391   2.599   9.943 -0.7388 -3.2676  1.4649
 1447HK4    C4821466   5.300   2.655   9.960  0.6813 -0.4580  0.1096
 1447HK4    C4721467   5.190   2.584  10.007  0.5399 -0.4746 -0.2445
 1447HK4    H2721468   5.198   2.477  10.029  2.0194 -0.9110 -2.7050
 1447HK4    C4621469   5.070   2.653  10.022  0.6243 -0.3352 -0.2120
 1447HK4    H2621470   4.979   2.593  10.037 -0.6360  1.9285  1.6881
 1447HK4    C4021471   5.054   2.792   9.999  0.4824 -0.2912  0.1442
 1447HK4    C5021472   5.171   2.864   9.968  0.2037  0.1028  0.0070
 1447HK4    H3021473   5.181   2.973   9.959  2.3822  0.0315  1.3165
 1447HK4    C4921474   5.287   2.792   9.941  0.0425 -0.4287  0.7107
 1447HK4    H2921475   5.364   2.853   9.891 -1.3675  0.2428 -0.6982
 1447HK4     N221476   4.930   2.850   9.969  0.0561 -0.9895  0.5233
 1447HK4    C3021477   4.821   2.784   9.909 -0.1871 -0.5307  0.4660
 1447HK4    C2921478   4.824   2.695   9.803 -0.3610 -0.2198  0.2003
 1447HK4    H1521479   4.906   2.625   9.789  1.5096  2.1811 -1.2319
 1447HK4    C2821480   4.713   2.668   9.723  0.0027  0.1719 -0.4450
 1447HK4    C2721481   4.593   2.734   9.754 -0.0098  0.1669 -0.4788
 1447HK4    H1421482   4.499   2.701   9.708  2.5582 -5.2279 -2.2509
 1447HK4    C3221483   4.586   2.828   9.856 -0.0195 -0.2971 -0.0475
 1447HK4    H1621484   4.492   2.881   9.870 -0.1635  0.3268 -3.0380
 1447HK4    C3121485   4.697   2.855   9.936 -0.0078  0.0275 -0.1686
 1447HK4    C3421486   4.736   2.976  10.005  0.2155 -0.0714 -0.1247
 1447HK4    C3321487   4.880   2.969  10.024  0.1844 -0.6551 -0.0741
 1447HK4    C3521488   4.937   3.077  10.091 -0.3849 -0.4917  0.1464
 1447HK4    H1721489   5.043   3.077  10.115 -0.6409  2.4903  1.6001
 1447HK4    C3621490   4.858   3.179  10.144 -0.2497 -0.6786  0.7110
 1447HK4    H1821491   4.898   3.243  10.225  0.4750 -0.4250  0.1691
 1447HK4    C3721492   4.721   3.187  10.121  0.0021  0.1393 -0.5858
 1447HK4    H1921493   4.662   3.262  10.173 -1.0179 -1.1085  0.0706
 1447HK4    C3821494   4.661   3.083  10.052  0.1129  0.0206 -0.5015
 1447HK4    H2021495   4.552   3.081  10.042  0.0378 -0.3235  0.3125
 1447HK4    C1421496   4.726   2.590   9.599 -0.2953 -0.6716  0.0446
 1447HK4     C921497   4.644   2.614   9.487  0.0258  0.3943  0.0270
 1447HK4     C821498   4.607   2.501   9.411 -0.2338  0.3617  0.2038
 1447HK4    C1121499   4.649   2.374   9.446 -0.4053  0.2635  0.0578
 1447HK4     H421500   4.596   2.282   9.417 -1.5890  1.3648 -1.2807
 1447HK4    C1221501   4.748   2.352   9.542 -0.5403  0.1042  0.1586
 1447HK4     H521502   4.789   2.250   9.554 -0.1590  0.0047 -1.7539
 1447HK4    C1321503   4.789   2.465   9.611  0.6769 -0.1953 -0.0674
 1447HK4     H621504   4.885   2.449   9.663  1.5874 -1.0674 -1.9369
 1447HK4     C721505   4.507   2.517   9.303 -0.0394  0.2564  0.0057
 1447HK4     O221506   4.528   2.445   9.206  0.0052  0.1474  0.0970
 1447HK4     C421507   4.431   2.644   9.292 -0.2326  0.1299 -0.1392
 1447HK4     C321508   4.314   2.643   9.217 -0.1387 -0.0405 -0.2847
 1447HK4     H321509   4.269   2.550   9.180  0.8760 -1.3359  1.6714
 1447HK4     C221510   4.250   2.765   9.198  0.0085  0.1376  0.3400
 1447HK4     H221511   4.168   2.778   9.126 -0.6649  0.5245  1.1672
 1447HK4     C121512   4.283   2.876   9.275 -0.0270  0.1504  0.3345
 1447HK4     H121513   4.238   2.973   9.250  0.9751  0.9811  1.6866
 1447HK4     C621514   4.389   2.871   9.368  0.2588  0.0269  0.0063
 1447HK4     C521515   4.472   2.759   9.363 -0.0930 -0.2533  0.4069
 1447HK4    C1021516   4.594   2.748   9.449 -0.3127  0.4951  0.8131
 1447HK4     O121517   4.683   2.829   9.424 -0.6627  0.4104 -0.8179
 1447HK4    C1621518   4.365   2.941   9.495 -0.3528  0.1117 -0.1516
 1447HK4    C1521519   4.232   2.939   9.543 -0.4507  0.4095 -0.4121
 1447HK4     H721520   4.157   2.875   9.495 -0.7543  1.1222 -0.8911
 1447HK4    C2021521   4.201   3.016   9.655 -0.2617  0.2539 -0.2524
 1447HK4     H921522   4.119   2.974   9.714  0.0622  2.5649  1.8955
 1447HK4    C1921523   4.299   3.093   9.716 -0.0704 -0.1837 -0.0076
 1447HK4    C1821524   4.433   3.100   9.661 -0.1462  0.0093 -0.1659
 1447HK4    C1721525   4.465   3.018   9.554 -0.2724  0.0987 -0.2732
 1447HK4     H821526   4.555   3.042   9.497  0.6034  1.6953  1.7325
 1447HK4     N121527   4.505   3.203   9.727 -0.1156  0.1174 -0.3692
 1447HK4    C2121528   4.421   3.259   9.825  0.5622 -0.2053  0.3899
 1447HK4    C2221529   4.299   3.181   9.831  0.1063  0.4327 -0.4788
 1447HK4    C2621530   4.216   3.192   9.942  0.3211  0.4022 -0.3128
 1447HK4    H1321531   4.119   3.143   9.939  1.2676 -1.4109 -2.9565
 1447HK4    C2521532   4.244   3.286  10.041  0.3825 -0.1539  0.1988
 1447HK4    H1221533   4.182   3.289  10.131  2.1843 -2.0107  1.5624
 1447HK4    C2421534   4.355   3.369  10.034 -0.1074  0.5151  0.2852
 1447HK4    H1121535   4.371   3.453  10.103  0.7366  0.6944 -0.1184
 1447HK4    C2321536   4.442   3.351   9.927 -0.0406 -0.1259  0.4430
 1447HK4    H1021537   4.516   3.429   9.907  0.0239 -1.0141 -2.9407
 1447HK4    C3921538   4.644   3.218   9.729 -0.1232  0.1300  0.0450
 1447HK4    C4121539   4.699   3.343   9.765  0.4233 -0.1614  0.2248
 1447HK4    H2121540   4.641   3.436   9.780 -0.9910 -0.8419 -0.8895
 1447HK4    C4221541   4.836   3.360   9.776  0.3876  0.1315  0.2190
 1447HK4    H2221542   4.881   3.460   9.786 -1.5830  1.1930 -1.2606
 1447HK4    C4321543   4.921   3.250   9.761  0.1346  0.0165 -0.3662
 1447HK4    H2321544   5.028   3.267   9.756  0.4173 -1.5294  0.2387
 1447HK4    C4421545   4.870   3.123   9.737  0.2786 -0.0608 -0.2614
 1447HK4    H2421546   4.925   3.030   9.757 -3.5382 -1.7499  2.8004
 1447HK4    C4521547   4.734   3.111   9.715  0.1440  0.3092  0.3571
 1447HK4    H2521548   4.689   3.011   9.706 -0.2327  0.7024 -2.8925
 1448HK4    H2821549   5.540   6.978  11.216  1.7225  0.4671 -2.7081
 1448HK4    C4821550   5.609   7.043   0.023 -0.1595  0.1033  0.1737
 1448HK4    C4721551   5.618   7.040   0.162  0.4534 -0.3071  0.1248
 1448HK4    H2721552   5.544   6.981   0.217 -0.6874  0.5188 -0.5112
 1448HK4    C4621553   5.712   7.118   0.228  0.3679 -0.2576  0.1885
 1448HK4    H2621554   5.687   7.133   0.335 -1.4140 -0.8670 -0.1327
 1448HK4    C4021555   5.804   7.202   0.161  0.1368 -0.0257  0.1620
 1448HK4    C5021556   5.788   7.201   0.021 -0.3824  0.4123  0.2134
 1448HK4    H3021557   5.863   7.250  11.205 -0.8042  1.0217  0.1910
 1448HK4    C4921558   5.692   7.128  11.200 -0.1438  0.1073  0.1984
 1448HK4    H2921559   5.670   7.145  11.094 -2.5963  2.8076  1.0789
 1448HK4     N221560   5.907   7.275   0.219  0.2427 -0.0553  0.0136
 1448HK4    C3021561   5.947   7.244   0.351  0.5899 -0.0610 -0.0913
 1448HK4    C2921562   5.940   7.124   0.421 -0.1022 -0.1375 -0.2851
 1448HK4    H1521563   5.939   7.033   0.361  3.3357  1.5223 -3.0399
 1448HK4    C2821564   5.968   7.109   0.556 -0.4280 -0.3176 -0.2390
 1448HK4    C2721565   6.017   7.225   0.621 -0.5214 -0.3325 -0.1403
 1448HK4    H1421566   6.084   7.208   0.706  0.9150 -1.2415 -1.4075
 1448HK4    C3221567   6.016   7.347   0.555 -0.3576 -0.3696 -0.2125
 1448HK4    H1621568   6.019   7.432   0.623 -0.2112 -0.9204  0.4743
 1448HK4    C3121569   5.988   7.365   0.420 -0.3692  0.2916 -0.1241
 1448HK4    C3421570   5.983   7.474   0.324  0.1336  0.0508 -0.4278
 1448HK4    C3321571   5.931   7.413   0.203 -0.5254  0.0570 -0.1512
 1448HK4    C3521572   5.923   7.492   0.089  0.9802  0.3184 -0.0774
 1448HK4    H1721573   5.898   7.452  11.239  1.4652 -1.2520  0.4245
 1448HK4    C3621574   5.958   7.626   0.097  0.1761  0.5301 -0.0723
 1448HK4    H1821575   5.946   7.694   0.011  2.6392  2.0241  0.7220
 1448HK4    C3721576   6.005   7.680   0.216  0.7182  0.0026 -0.0444
 1448HK4    H1921577   6.060   7.774   0.212  0.3396  0.1976 -0.7505
 1448HK4    C3821578   6.022   7.607   0.333 -0.1373  0.0946  0.1460
 1448HK4    H2021579   6.063   7.642   0.428  0.8578  0.0346 -0.2584
 1448HK4    C1421580   5.886   7.021   0.641  0.2833 -0.0149  0.7709
 1448HK4     C921581   5.814   7.059   0.755 -0.2265  0.0616  0.4291
 1448HK4     C821582   5.786   6.963   0.855  0.1435 -0.4418  0.0556
 1448HK4    C1121583   5.822   6.830   0.840 -0.0758 -0.5095  0.1379
 1448HK4     H421584   5.792   6.753   0.913  1.1420 -0.3790  0.7950
 1448HK4    C1221585   5.886   6.792   0.722  0.0340 -0.2302  0.1068
 1448HK4     H521586   5.898   6.688   0.690  1.4593 -0.3282  0.9171
 1448HK4    C1321587   5.919   6.885   0.625  0.2477  0.0193  0.4152
 1448HK4     H621588   5.973   6.856   0.533  0.0783  0.1995  0.2561
 1448HK4     C721589   5.729   7.013   0.982  0.4037  0.1673 -0.0655
 1448HK4     O221590   5.666   6.937   1.055  0.2568  0.4801  0.1350
 1448HK4     C421591   5.708   7.158   1.003 -0.9621 -0.0351  0.0389
 1448HK4     C321592   5.709   7.197   1.137 -0.0513  0.1276 -0.0075
 1448HK4     H321593   5.719   7.124   1.219 -1.5223  0.0633  0.1387
 1448HK4     C221594   5.744   7.325   1.176  0.2017  0.0645 -0.0204
 1448HK4     H221595   5.762   7.352   1.281  2.8493  1.1095 -0.7034
 1448HK4     C121596   5.767   7.413   1.071 -0.1183  0.0246 -0.1245
 1448HK4     H121597   5.766   7.521   1.095 -2.2822 -0.3669  1.7435
 1448HK4     C621598   5.752   7.385   0.934 -0.2536  0.0533 -0.1151
 1448HK4     C521599   5.733   7.251   0.900 -0.2888 -0.0235  0.2062
 1448HK4    C1021600   5.770   7.201   0.764 -0.3191  0.0485  0.1711
 1448HK4     O121601   5.694   7.234   0.673  0.0665  0.0378 -0.1531
 1448HK4    C1621602   5.795   7.493   0.844 -0.0847 -0.0220 -0.1235
 1448HK4    C1521603   5.908   7.572   0.872  0.0869 -0.2273 -0.2273
 1448HK4     H721604   5.968   7.557   0.963  0.4289  0.9481 -0.2411
 1448HK4    C2021605   5.943   7.684   0.796  0.6303 -0.1993  0.0612
 1448HK4     H921606   6.041   7.731   0.800  1.1173 -1.2574  0.8536
 1448HK4    C1921607   5.864   7.714   0.686 -0.0255  0.0750  0.6069
 1448HK4    C1821608   5.742   7.640   0.657 -0.0786  0.3137  0.2059
 1448HK4    C1721609   5.711   7.533   0.741  0.2554 -0.3692 -0.5373
 1448HK4     H821610   5.620   7.476   0.723 -0.4136  0.3885  0.4251
 1448HK4     N121611   5.676   7.698   0.547  0.3294  0.2477 -0.0753
 1448HK4    C2121612   5.756   7.806   0.505  0.1116  0.2498 -0.4784
 1448HK4    C2221613   5.879   7.812   0.581 -0.4750  0.0345  0.5013
 1448HK4    C2621614   5.980   7.899   0.540 -0.5306 -0.1220  0.0212
 1448HK4    H1321615   6.064   7.920   0.606 -1.1248 -1.3139  1.1743
 1448HK4    C2521616   5.960   7.981   0.430  0.0354  0.1507  0.1221
 1448HK4    H1221617   6.047   8.027   0.382 -0.0575  0.2386  0.0375
 1448HK4    C2421618   5.836   7.984   0.368 -0.0925  0.3102  0.3873
 1448HK4    H1121619   5.809   8.070   0.305  2.2620  1.3529  0.7730
 1448HK4    C2321620   5.734   7.894   0.399 -0.2853  0.2605 -0.3884
 1448HK4    H1021621   5.638   7.896   0.347 -0.1576  0.4545 -0.6153
 1448HK4    C3921622   5.584   7.621   0.476  0.3839  0.0089  0.1104
 1448HK4    C4121623   5.484   7.684   0.399 -0.0924 -0.8294  0.0423
 1448HK4    H2121624   5.436   7.777   0.432  1.4064  0.0894 -0.3276
 1448HK4    C4221625   5.423   7.628   0.287  0.0850  0.1564 -0.5505
 1448HK4    H2221626   5.338   7.673   0.234  1.2435  0.4080 -2.2565
 1448HK4    C4321627   5.464   7.501   0.247 -0.1365 -0.2408  0.4717
 1448HK4    H2321628   5.424   7.456   0.157 -1.6429  0.9891  0.5087
 1448HK4    C4421629   5.559   7.433   0.322 -0.1657 -0.2437  0.5061
 1448HK4    H2421630   5.564   7.325   0.302 -0.4990 -0.3707  1.0927
 1448HK4    C4521631   5.621   7.492   0.432  0.6076  0.1589 -0.1416
 1448HK4    H2521632   5.716   7.448   0.465 -1.0526 -1.8084  2.1851
 1449HK4    H2821633   6.883   0.378   5.252  0.3171  0.7124  0.3225
 1449HK4    C4821634   6.969   0.355   5.315 -0.0348 -0.0300  0.5339
 1449HK4    C4721635   6.972   0.254   5.411 -0.0498 -0.6898 -0.1536
 1449HK4    H2721636   6.877   0.220   5.456 -0.4678 -2.3730 -2.2385
 1449HK4    C4621637   7.091   0.205   5.464  0.5068  0.8690  0.0688
 1449HK4    H2621638   7.091   0.122   5.536  2.9723  0.9937  0.2402
 1449HK4    C4021639   7.216   0.259   5.427  0.5396  0.6812 -0.0957
 1449HK4    C5021640   7.214   0.369   5.340 -0.2770  0.7977  0.0658
 1449HK4    H3021641   7.304   0.428   5.320  0.5885 -0.7020 -0.4947
 1449HK4    C4921642   7.092   0.412   5.287 -0.2941 -0.0048 -0.5597
 1449HK4    H2921643   7.093   0.516   5.249 -3.0690  0.0678 -0.5249
 1449HK4     N221644   7.335   0.199   5.471  0.1870 -0.2882 -0.4436
 1449HK4    C3021645   7.351   0.062   5.497  0.4019 -0.2542 -0.4011
 1449HK4    C2921646   7.303  11.204   5.420 -0.1335 -0.0212 -0.3858
 1449HK4    H1521647   7.196  11.209   5.399 -0.5381 -2.2664  0.9783
 1449HK4    C2821648   7.372  11.084   5.408 -0.1728 -0.0417 -0.4162
 1449HK4    C2721649   7.481  11.060   5.494 -0.0028  0.6091 -0.4509
 1449HK4    H1421650   7.534  10.966   5.472  0.0998  0.8111 -1.0677
 1449HK4    C3221651   7.524  11.159   5.581 -0.0072 -0.2102  0.4955
 1449HK4    H1621652   7.597  11.139   5.660  1.3191 -0.0475 -0.6541
 1449HK4    C3121653   7.469   0.039   5.579  0.2567 -0.1020 -0.1510
 1449HK4    C3421654   7.518   0.172   5.606  0.0759  0.0483 -0.5477
 1449HK4    C3321655   7.437   0.270   5.537  0.0307  0.0214 -0.5349
 1449HK4    C3521656   7.466   0.406   5.537 -0.0975  0.0560  0.3489
 1449HK4    H1721657   7.394   0.486   5.522  0.9860  0.8642 -0.6243
 1449HK4    C3621658   7.583   0.449   5.600  0.0456  0.1348  0.0339
 1449HK4    H1821659   7.631   0.547   5.586 -0.4031 -0.0426 -3.0967
 1449HK4    C3721660   7.658   0.354   5.667 -0.2803  0.0777  0.3206
 1449HK4    H1921661   7.737   0.386   5.735 -1.8791 -0.9429  2.6844
 1449HK4    C3821662   7.629   0.218   5.677 -0.3707  0.0833  0.1338
 1449HK4    H2021663   7.674   0.161   5.757  2.8780  2.2954 -0.0345
 1449HK4    C1421664   7.312  10.967   5.341 -1.0417  0.1441  0.0220
 1449HK4     C921665   7.334  10.835   5.380 -0.3227  0.2025 -0.1630
 1449HK4     C821666   7.321  10.736   5.281  0.3646  0.2554 -0.3082
 1449HK4    C1121667   7.271  10.771   5.156  0.4511 -0.0568 -0.4299
 1449HK4     H421668   7.229  10.689   5.096  1.1978 -1.3247  0.7494
 1449HK4    C1221669   7.246  10.901   5.114 -0.8518 -0.2777 -0.3603
 1449HK4     H521670   7.229  10.913   5.006 -2.4076 -0.4486 -0.1435
 1449HK4    C1321671   7.269  10.999   5.210  0.3872 -0.3546 -0.5755
 1449HK4     H621672   7.285  11.103   5.180  0.6775  0.2562  1.6019
 1449HK4     C721673   7.375  10.602   5.314  0.1455  0.1963 -0.1751
 1449HK4     O221674   7.311  10.504   5.277  0.0291  0.3344 -0.3317
 1449HK4     C421675   7.463  10.587   5.432 -0.3049 -0.0844  0.1280
 1449HK4     C321676   7.545  10.475   5.439 -0.4652 -0.2048  0.0633
 1449HK4     H321677   7.558  10.407   5.353 -0.5326 -0.0174 -0.0943
 1449HK4     C221678   7.616  10.452   5.556 -0.2493  0.4586  0.0639
 1449HK4     H221679   7.685  10.365   5.550  0.1492  0.8637 -1.4318
 1449HK4     C121680   7.615  10.552   5.652 -0.1884  0.3858  0.1416
 1449HK4     H121681   7.676  10.529   5.741  1.8809  1.5901 -0.9543
 1449HK4     C621682   7.542  10.672   5.647 -0.3619  0.2581 -0.3237
 1449HK4     C521683   7.455  10.680   5.537 -0.5217  0.2656 -0.1974
 1449HK4    C1021684   7.368  10.801   5.521  0.2226  0.8069 -0.1471
 1449HK4     O121685   7.273  10.797   5.598  0.1818  0.2658 -0.2206
 1449HK4    C1621686   7.614  10.783   5.712  0.0538  0.3747 -0.9788
 1449HK4    C1521687   7.751  10.785   5.743 -0.1545 -0.0179 -0.0397
 1449HK4     H721688   7.818  10.730   5.676  0.3435  2.2483 -1.4471
 1449HK4    C2021689   7.805  10.870   5.839 -0.1521 -0.1189  0.0470
 1449HK4     H921690   7.910  10.871   5.867 -0.4455 -2.1515  1.2884
 1449HK4    C1921691   7.723  10.969   5.893 -0.1742  0.0231 -0.2446
 1449HK4    C1821692   7.581  10.957   5.866 -0.2514 -0.0438  0.1924
 1449HK4    C1721693   7.524  10.864   5.780  0.3061  0.2204 -0.4577
 1449HK4     H821694   7.431  10.820   5.816 -0.2922  2.0729  0.3339
 1449HK4     N121695   7.511  11.069   5.916  0.0676  0.1819  0.1369
 1449HK4    C2121696   7.612  11.157   5.960  0.2277 -0.1875  0.4980
 1449HK4    C2221697   7.745  11.099   5.953  0.2174 -0.1457 -0.0224
 1449HK4    C2621698   7.856  11.180   5.975  0.5972 -0.6274 -0.1399
 1449HK4    H1321699   7.952  11.131   5.962  0.1203 -1.0689 -2.1627
 1449HK4    C2521700   7.843   0.067   6.006 -0.3916 -0.6991 -0.2022
 1449HK4    H1221701   7.935   0.124   6.022 -0.2263 -0.8506 -0.6065
 1449HK4    C2421702   7.714   0.116   6.022  0.0326  0.1285  0.7916
 1449HK4    H1121703   7.702   0.213   6.073 -0.0841 -0.3517  1.6894
 1449HK4    C2321704   7.600   0.039   6.008  0.1298  0.2427 -0.6816
 1449HK4    H1021705   7.502   0.086   5.993  0.2908  0.8316  0.1393
 1449HK4    C3921706   7.388  11.057   5.982 -0.2344  0.0219 -0.4512
 1449HK4    C4121707   7.301  11.163   6.014 -0.2023  0.0174 -0.3504
 1449HK4    H2121708   7.318   0.015   5.970 -0.1539  1.4445  2.7694
 1449HK4    C4221709   7.203  11.155   6.112 -0.0147 -0.0008 -0.1648
 1449HK4    H2221710   7.130  11.237   6.123 -0.3930 -0.4816  1.0066
 1449HK4    C4321711   7.183  11.037   6.182 -0.2445  0.5423  0.6964
 1449HK4    H2321712   7.120  11.031   6.271  0.1266  0.3418  0.9437
 1449HK4    C4421713   7.249  10.922   6.140  0.2323  0.9604  0.2988
 1449HK4    H2421714   7.206  10.822   6.152 -1.6497  1.8492  1.2799
 1449HK4    C4521715   7.353  10.939   6.050  0.1439  0.1994  0.0540
 1449HK4    H2521716   7.418  10.851   6.032 -1.3919 -0.9770  0.1885
 1450HK4    H2821717  10.297   8.490   2.249  3.5522 -2.6534 -1.4233
 1450HK4    C4821718  10.369   8.560   2.290  0.0336  0.2812  0.0376
 1450HK4    C4721719  10.498   8.560   2.237  0.0764  0.2211  0.1397
 1450HK4    H2721720  10.521   8.531   2.133 -0.4063  1.6963 -0.3851
 1450HK4    C4621721  10.610   8.600   2.309 -0.0063  0.2302  0.2622
 1450HK4    H2621722  10.705   8.556   2.274  0.3104  1.5284 -0.5547
 1450HK4    C4021723  10.592   8.657   2.436 -0.3045  0.3086  0.1843
 1450HK4    C5021724  10.460   8.666   2.487 -0.1493  0.1024  0.6230
 1450HK4    H3021725  10.444   8.692   2.593 -2.1692  2.0327 -0.1370
 1450HK4    C4921726  10.352   8.616   2.416  0.1815  0.0276  0.1724
 1450HK4    H2921727  10.264   8.573   2.466  0.1930 -0.5802 -0.3172
 1450HK4     N221728  10.705   8.683   2.514 -0.2669  0.3299  0.1216
 1450HK4    C3021729  10.838   8.637   2.505 -0.2637  0.5144 -0.8125
 1450HK4    C2921730  10.891   8.526   2.440  0.1030  0.1729  0.0777
 1450HK4    H1521731  10.818   8.450   2.412  0.0743 -1.1594  3.4270
 1450HK4    C2821732  11.023   8.489   2.460  0.0632  0.0360  0.1083
 1450HK4    C2721733  11.106   8.572   2.540 -0.4456  0.2358  0.4351
 1450HK4    H1421734  11.214   8.562   2.525 -0.2783  0.1110  1.6770
 1450HK4    C3221735  11.058   8.685   2.604 -0.0894  0.1328  0.8815
 1450HK4    H1621736  11.128   8.753   2.653  2.0809 -0.8524 -0.7387
 1450HK4    C3121737  10.924   8.717   2.590 -0.1757 -0.5568  0.1115
 1450HK4    C3421738  10.838   8.811   2.660 -0.0382  0.1330 -0.6511
 1450HK4    C3321739  10.708   8.797   2.597 -0.3451  0.4962 -0.0971
 1450HK4    C3521740  10.620   8.903   2.615 -0.3223  0.5437 -0.2679
 1450HK4    H1721741  10.553   8.917   2.530 -0.3963 -0.6973 -0.4138
 1450HK4    C3621742  10.658   9.012   2.693  0.0613  0.1273  0.1270
 1450HK4    H1821743  10.586   9.094   2.706  0.6787  0.4419  1.6777
 1450HK4    C3721744  10.773   9.010   2.772  0.0404 -0.2861  0.1478
 1450HK4    H1921745  10.787   9.072   2.861  2.4994 -0.1880 -0.2864
 1450HK4    C3821746  10.864   8.906   2.758 -0.0384 -0.3019 -0.2265
 1450HK4    H2021747  10.935   8.881   2.836  1.0968  0.1867 -1.0972
 1450HK4    C1421748  11.068   8.361   2.406  0.0319  0.0916 -0.0511
 1450HK4     C921749  11.165   8.276   2.461  0.0939  0.1036 -0.1357
 1450HK4     C821750  11.244   8.196   2.375  0.5622  0.5583 -0.1217
 1450HK4    C1121751  11.225   8.199   2.237  0.0347 -0.5067 -0.0722
 1450HK4     H421752   0.046   8.150   2.166 -0.3259  0.6690 -1.2475
 1450HK4    C1221753  11.119   8.270   2.183  0.1698 -0.1274  0.1668
 1450HK4     H521754  11.100   8.277   2.075  0.7459 -0.2444  0.0534
 1450HK4    C1321755  11.039   8.345   2.269  0.0445 -0.0184 -0.0416
 1450HK4     H621756  10.947   8.391   2.230  1.5791  2.6692 -0.6626
 1450HK4     C721757   0.104   8.110   2.429  0.1286  0.0451 -0.0676
 1450HK4     O221758   0.156   8.024   2.358  0.0722  0.1087 -0.1873
 1450HK4     C421759   0.126   8.107   2.575  0.0573 -0.3747 -0.0671
 1450HK4     C321760   0.222   8.024   2.632  0.4213  0.1535  0.0933
 1450HK4     H321761   0.278   7.960   2.563  1.4316  0.4127  0.6650
 1450HK4     C221762   0.269   8.036   2.763 -0.3854  0.1347  0.3883
 1450HK4     H221763   0.345   7.968   2.802 -0.4577  0.2067  0.6545
 1450HK4     C121764   0.217   8.136   2.845  0.1035  0.4869  0.2746
 1450HK4     H121765   0.269   8.158   2.939  0.7741  1.0889 -0.2328
 1450HK4     C621766   0.116   8.219   2.792  0.6383  0.5774 -0.6232
 1450HK4     C521767   0.067   8.201   2.662  0.1272 -0.0766 -0.3418
 1450HK4    C1021768  11.195   8.268   2.607  0.1851  0.1840 -0.1513
 1450HK4     O121769  11.095   8.256   2.677  0.1908 -0.4866 -0.2556
 1450HK4    C1621770   0.069   8.320   2.889  1.0981  0.4738 -0.2958
 1450HK4    C1521771   0.016   8.440   2.839  0.1416 -0.0339 -0.4979
 1450HK4     H721772   0.056   8.477   2.744  1.0644 -1.6678 -0.7585
 1450HK4    C2021773  11.180   8.522   2.914  0.7326 -0.0297  0.1615
 1450HK4     H921774  11.135   8.605   2.860  2.0531 -0.1291 -1.1091
 1450HK4    C1921775  11.138   8.482   3.041  0.2538 -0.0143  0.0104
 1450HK4    C1821776  11.192   8.358   3.093  0.4565  0.0014 -0.1569
 1450HK4    C1721777   0.030   8.279   3.016  0.0036  0.0891 -0.7526
 1450HK4     H821778   0.067   8.186   3.058  0.1305  0.2373 -0.5297
 1450HK4     N121779  11.152   8.335   3.226  0.0121  0.1577 -0.2633
 1450HK4    C2121780  11.061   8.440   3.252  0.2656  0.3455 -0.1434
 1450HK4    C2221781  11.041   8.527   3.138 -0.6263 -0.4989 -0.6407
 1450HK4    C2621782  10.936   8.618   3.129 -0.0020  0.2857 -0.0754
 1450HK4    H1321783  10.937   8.698   3.055  3.5070  0.8847  0.5524
 1450HK4    C2521784  10.848   8.628   3.237 -0.0827  0.1672 -0.1314
 1450HK4    H1221785  10.752   8.677   3.220 -0.2573 -0.4181 -0.8609
 1450HK4    C2421786  10.872   8.554   3.352  0.7661  0.4771 -0.1042
 1450HK4    H1121787  10.793   8.545   3.428 -0.1636 -2.3919 -1.3499
 1450HK4    C2321788  10.975   8.461   3.359  0.7544  0.4872  0.2289
 1450HK4    H1021789  10.990   8.414   3.456 -2.3564  0.2502  0.6634
 1450HK4    C3921790  11.231   8.262   3.316 -0.1259  0.2873 -0.0383
 1450HK4    C4121791  11.161   8.206   3.425 -0.0370  0.7530  0.2634
 1450HK4    H2121792  11.066   8.158   3.396  0.4505 -0.1049  0.0422
 1450HK4    C4221793  11.226   8.174   3.543 -0.1360 -0.3441  0.0270
 1450HK4    H2221794  11.171   8.118   3.621 -0.8960  2.4439  1.5685
 1450HK4    C4321795   0.116   8.191   3.549 -0.0809 -0.4727 -0.8746
 1450HK4    H2321796   0.175   8.154   3.633 -3.1753  1.2708  2.1839
 1450HK4    C4421797   0.186   8.248   3.443  0.6402  0.3818  0.0474
 1450HK4    H2421798   0.293   8.267   3.458  0.7146 -0.0412  0.0721
 1450HK4    C4521799   0.122   8.284   3.325 -0.2411  0.7922  0.6439
 1450HK4    H2521800   0.172   8.333   3.240  0.1190  0.6420  0.7713
 1451HK4    H2821801   0.806   5.380   2.721  2.2695 -0.8032  0.3058
 1451HK4    C4821802   0.857   5.455   2.781 -0.0837  0.1260  1.2016
 1451HK4    C4721803   0.980   5.427   2.838  0.3108 -0.1672  0.2171
 1451HK4    H2721804   1.008   5.322   2.859  2.4663  0.4109  0.3851
 1451HK4    C4621805   1.047   5.531   2.901 -0.6304  0.1642  0.6768
 1451HK4    H2621806   1.145   5.506   2.945 -1.4028  0.0714  2.3459
 1451HK4    C4021807   0.992   5.660   2.914 -0.2126  0.3694  0.4440
 1451HK4    C5021808   0.862   5.682   2.865  0.0772  0.7206 -0.1658
 1451HK4    H3021809   0.807   5.777   2.876  1.8816  1.5978  1.3795
 1451HK4    C4921810   0.796   5.578   2.800  0.1199  0.3616  0.3635
 1451HK4    H2921811   0.694   5.589   2.759 -0.5424 -1.3775  1.5051
 1451HK4     N221812   1.078   5.765   2.952  0.1722  0.1441  0.1946
 1451HK4    C3021813   1.216   5.776   2.930  0.0656  0.2709 -0.4272
 1451HK4    C2921814   1.298   5.719   2.833 -0.0042 -0.0953 -0.2726
 1451HK4    H1521815   1.248   5.652   2.763 -1.6321  0.1905  0.5986
 1451HK4    C2821816   1.434   5.742   2.818  0.2318 -0.6769  0.9155
 1451HK4    C2721817   1.492   5.837   2.904  0.1590  0.2261 -0.0128
 1451HK4    H1421818   1.599   5.860   2.904  0.0703  0.6253 -0.7952
 1451HK4    C3221819   1.415   5.904   2.998 -0.1114 -0.2212  0.0890
 1451HK4    H1621820   1.464   5.971   3.069  0.0831  0.3707 -0.6046
 1451HK4    C3121821   1.280   5.876   3.014 -0.1454 -0.0483  0.1119
 1451HK4    C3421822   1.172   5.927   3.096 -0.2505  0.4528 -0.3363
 1451HK4    C3321823   1.052   5.855   3.057 -0.2828  0.3907 -0.1228
 1451HK4    C3521824   0.937   5.869   3.133 -0.1243 -0.5313  0.3070
 1451HK4    H1721825   0.857   5.797   3.112  0.2866 -0.8184 -0.2840
 1451HK4    C3621826   0.934   5.945   3.249 -0.6072  0.0012 -0.0479
 1451HK4    H1821827   0.837   5.967   3.297 -1.3080  0.8276 -1.8033
 1451HK4    C3721828   1.050   6.013   3.283 -0.1819 -0.3758 -0.7366
 1451HK4    H1921829   1.057   6.063   3.380  1.4466 -0.8608 -0.5937
 1451HK4    C3821830   1.168   6.007   3.210  0.2962  0.0136 -0.0053
 1451HK4    H2021831   1.252   6.072   3.234 -0.7473  0.7044  1.9080
 1451HK4    C1421832   1.521   5.641   2.754 -0.0482 -0.5930  0.3996
 1451HK4     C921833   1.650   5.608   2.796  0.3626  0.7769  0.2372
 1451HK4     C821834   1.752   5.594   2.700  0.0720 -0.3755  0.0776
 1451HK4    C1121835   1.723   5.600   2.564  0.0597 -0.0884  0.0914
 1451HK4     H421836   1.801   5.619   2.489  0.9571 -0.6355  0.8707
 1451HK4    C1221837   1.590   5.597   2.524 -0.0795  0.0729  0.5419
 1451HK4     H521838   1.560   5.591   2.419 -0.6990 -2.7953  0.8374
 1451HK4    C1321839   1.490   5.618   2.618 -0.2839 -0.2121  0.3881
 1451HK4     H621840   1.388   5.624   2.578  0.8929  1.8633 -2.3992
 1451HK4     C721841   1.891   5.575   2.749  0.1312 -0.0566  0.0394
 1451HK4     O221842   1.984   5.565   2.669  0.1270 -0.3077  0.0649
 1451HK4     C421843   1.914   5.549   2.892  0.2898 -0.9018 -0.1390
 1451HK4     C321844   2.041   5.543   2.949  0.0998  0.4059  0.4418
 1451HK4     H321845   2.121   5.591   2.891 -0.5888  0.2617 -0.6542
 1451HK4     C221846   2.063   5.506   3.081  0.0246  0.4902  0.4782
 1451HK4     H221847   2.159   5.510   3.135 -0.0806  1.5518  0.6058
 1451HK4     C121848   1.957   5.452   3.153 -0.2012  0.2308 -0.0453
 1451HK4     H121849   1.959   5.441   3.263  0.4264 -1.7489 -0.2429
 1451HK4     C621850   1.834   5.429   3.087 -0.1473  0.3270 -0.1812
 1451HK4     C521851   1.807   5.499   2.969 -0.2682 -0.4567 -0.6208
 1451HK4    C1021852   1.673   5.554   2.933 -0.3283 -0.2016 -0.0199
 1451HK4     O121853   1.593   5.565   3.025 -0.7820  0.1694 -0.4577
 1451HK4    C1621854   1.743   5.326   3.140 -0.4055  0.5995 -0.0915
 1451HK4    C1521855   1.745   5.274   3.271 -0.9382  0.4815 -0.1287
 1451HK4     H721856   1.801   5.320   3.355 -1.0572  0.2379  0.0839
 1451HK4    C2021857   1.675   5.160   3.307 -0.2620  0.0477 -0.1846
 1451HK4     H921858   1.672   5.119   3.408  1.2424  0.4863  0.0530
 1451HK4    C1921859   1.597   5.092   3.214 -0.1292  0.1958 -0.4022
 1451HK4    C1821860   1.598   5.136   3.076  0.0160 -0.2611 -0.5478
 1451HK4    C1721861   1.667   5.253   3.049 -0.2219  0.0530  0.1849
 1451HK4     H821862   1.677   5.264   2.941 -0.0501  0.5478  0.2467
 1451HK4     N121863   1.550   5.039   2.986 -1.2584 -0.3735  0.2394
 1451HK4    C2121864   1.507   4.932   3.067  0.0336 -0.5916  0.6363
 1451HK4    C2221865   1.547   4.957   3.204  0.3996 -0.0652  0.4367
 1451HK4    C2621866   1.539   4.856   3.300 -0.1409 -0.3227  0.1240
 1451HK4    H1321867   1.585   4.867   3.398 -0.8084  2.5182  0.1641
 1451HK4    C2521868   1.494   4.730   3.263  0.3037 -0.4681  0.0827
 1451HK4    H1221869   1.510   4.649   3.334 -0.1227  0.1904  0.9425
 1451HK4    C2421870   1.465   4.703   3.130  0.2584  0.1908 -0.0415
 1451HK4    H1121871   1.439   4.601   3.100 -0.6409  0.0165  1.3270
 1451HK4    C2321872   1.470   4.802   3.032 -0.1765 -0.2336 -0.4960
 1451HK4    H1021873   1.434   4.778   2.932  2.3694  1.4872 -1.8833
 1451HK4    C3921874   1.515   5.067   2.853 -0.0859  0.1696  0.0454
 1451HK4    C4121875   1.500   4.959   2.763  0.2606  0.3878 -0.2764
 1451HK4    H2121876   1.550   4.862   2.778  1.5138  1.2215  1.1356
 1451HK4    C4221877   1.437   4.973   2.640 -0.7380  0.1030  0.1978
 1451HK4    H2221878   1.452   4.900   2.560  1.9086  2.0200 -1.1447
 1451HK4    C4321879   1.391   5.100   2.604  0.3918  0.4503 -0.0463
 1451HK4    H2321880   1.339   5.113   2.509  2.5739 -0.5070 -1.4166
 1451HK4    C4421881   1.396   5.205   2.694 -0.0951  0.7443 -0.3648
 1451HK4    H2421882   1.351   5.301   2.664 -1.5821 -0.3270 -1.6722
 1451HK4    C4521883   1.463   5.192   2.815 -0.7544 -0.1461 -0.0880
 1451HK4    H2521884   1.481   5.279   2.879 -1.5506 -0.5080  0.6236
 1452HK4    H2821885  10.953   2.354   2.174 -1.3920  1.6369 -0.6881
 1452HK4    C4821886  10.874   2.356   2.249 -0.5111  0.1522  0.3068
 1452HK4    C4721887  10.756   2.283   2.236 -0.2616 -0.1618 -0.2186
 1452HK4    H2721888  10.734   2.230   2.143 -1.4752  1.3492 -0.8073
 1452HK4    C4621889  10.660   2.298   2.336 -0.2571  0.0736 -0.2482
 1452HK4    H2621890  10.567   2.241   2.321 -1.0056  0.5827  2.3107
 1452HK4    C4021891  10.679   2.371   2.455 -0.0312  0.0157 -0.2481
 1452HK4    C5021892  10.803   2.436   2.469  0.0227 -0.1830  0.1593
 1452HK4    H3021893  10.820   2.512   2.547  3.1808 -3.8586  3.2882
 1452HK4    C4921894  10.898   2.424   2.368  0.0578  0.2468  0.1390
 1452HK4    H2921895  11.001   2.454   2.393  0.9078  0.1615 -3.1149
 1452HK4     N221896  10.595   2.358   2.566 -0.0356 -0.4447 -0.3026
 1452HK4    C3021897  10.455   2.346   2.557 -0.0753 -0.2401  0.0120
 1452HK4    C2921898  10.369   2.383   2.454 -0.5115 -0.9912  0.1051
 1452HK4    H1521899  10.406   2.456   2.383  0.1707 -0.2511  1.2003
 1452HK4    C2821900  10.232   2.359   2.458 -0.5913 -0.5656 -0.0856
 1452HK4    C2721901  10.181   2.301   2.576 -0.1467 -0.0605  0.3571
 1452HK4    H1421902  10.090   2.240   2.571 -0.3816  0.2171  1.1845
 1452HK4    C3221903  10.264   2.276   2.684  0.0780 -0.7079  0.0354
 1452HK4    H1621904  10.230   2.240   2.781  0.0995  0.1046  0.3458
 1452HK4    C3121905  10.402   2.291   2.681  0.0295 -0.2593  0.0475
 1452HK4    C3421906  10.515   2.268   2.769  0.3631  0.6644 -0.1247
 1452HK4    C3321907  10.632   2.302   2.690  0.4840  0.4926 -0.0243
 1452HK4    C3521908  10.749   2.311   2.763 -0.0472  0.8917  0.7841
 1452HK4    H1721909  10.835   2.357   2.714  0.0808 -1.1623 -0.9906
 1452HK4    C3621910  10.764   2.265   2.894  1.0255 -0.9183  0.0516
 1452HK4    H1821911  10.862   2.271   2.944  1.7614  2.6420 -1.6103
 1452HK4    C3721912  10.652   2.218   2.961  0.5084  0.1025 -0.0761
 1452HK4    H1921913  10.671   2.150   3.045 -0.5604  1.7645  1.5612
 1452HK4    C3821914  10.527   2.223   2.900  0.6132  0.3017 -0.2701
 1452HK4    H2021915  10.440   2.193   2.957  0.4540  0.6115 -0.3512
 1452HK4    C1421916  10.132   2.405   2.360 -0.1961 -0.6003 -0.5118
 1452HK4     C921917   9.995   2.426   2.379  0.0075  0.1980  0.0981
 1452HK4     C821918   9.903   2.428   2.272  0.0410 -0.0148  0.0672
 1452HK4    C1121919   9.954   2.426   2.143 -0.0768 -0.1564  0.0219
 1452HK4     H421920   9.898   2.389   2.056  0.6251  1.1047 -0.9939
 1452HK4    C1221921  10.091   2.422   2.119 -0.1446 -0.2591 -0.3706
 1452HK4     H521922  10.123   2.407   2.015 -0.9419  0.4340 -0.7199
 1452HK4    C1321923  10.178   2.409   2.227  0.0242  0.4678 -0.4117
 1452HK4     H621924  10.280   2.378   2.200  0.6762  0.3566  2.0440
 1452HK4     C721925   9.757   2.416   2.291 -0.0047  0.4756  0.0074
 1452HK4     O221926   9.685   2.465   2.205  0.2118  0.1723 -0.3472
 1452HK4     C421927   9.709   2.380   2.427 -0.1973 -0.5744 -0.3372
 1452HK4     C321928   9.579   2.332   2.435 -0.6548  0.7734  0.5439
 1452HK4     H321929   9.523   2.327   2.340  1.2487 -0.3993 -0.5791
 1452HK4     C221930   9.524   2.302   2.559 -0.2813 -0.8080  0.3398
 1452HK4     H221931   9.425   2.256   2.560 -1.6396  2.0152  1.4890
 1452HK4     C121932   9.610   2.313   2.668 -0.0092 -0.0366  0.0509
 1452HK4     H121933   9.562   2.295   2.765  0.1177  2.9746  0.6994
 1452HK4     C621934   9.744   2.355   2.665  0.0093 -0.1292 -0.6219
 1452HK4     C521935   9.794   2.389   2.539  0.2084 -0.5086 -0.6476
 1452HK4    C1021936   9.932   2.441   2.514 -0.0370  0.5001  0.0421
 1452HK4     O121937   9.953   2.552   2.564  0.1990  0.2191  0.5665
 1452HK4    C1621938   9.828   2.320   2.781 -0.3212 -0.0703 -0.3628
 1452HK4    C1521939   9.791   2.210   2.861 -0.3393  0.2854  0.1155
 1452HK4     H721940   9.716   2.140   2.824 -1.3627  0.8589  1.0754
 1452HK4    C2021941   9.854   2.178   2.981  0.6362  0.0280 -0.4594
 1452HK4     H921942   9.824   2.085   3.028  1.8991 -0.6406 -0.9538
 1452HK4    C1921943   9.956   2.257   3.031  0.9420 -0.5122 -0.2284
 1452HK4    C1821944   9.996   2.371   2.950  0.2205 -0.1204 -0.0404
 1452HK4    C1721945   9.933   2.398   2.829  0.2678 -0.9221 -0.2496
 1452HK4     H821946   9.936   2.499   2.788  2.7618 -1.3342 -1.1851
 1452HK4     N121947  10.097   2.446   3.012  0.1817 -0.1377  0.0457
 1452HK4    C2121948  10.134   2.376   3.129  0.5992 -0.2570 -0.1554
 1452HK4    C2221949  10.044   2.264   3.147 -0.1809  0.4704  0.5800
 1452HK4    C2621950  10.058   2.187   3.261  0.0361  0.1502  0.3388
 1452HK4    H1321951   9.980   2.112   3.277  2.2824 -2.6172 -1.1541
 1452HK4    C2521952  10.155   2.216   3.356  0.3328 -0.1196  0.1214
 1452HK4    H1221953  10.154   2.162   3.451  1.0491 -3.5303 -1.7541
 1452HK4    C2421954  10.240   2.325   3.337 -0.2965  0.3455 -0.0024
 1452HK4    H1121955  10.310   2.352   3.418 -0.9813 -0.5023  0.8814
 1452HK4    C2321956  10.231   2.405   3.224  0.5691  0.1125 -0.2342
 1452HK4    H1021957  10.310   2.473   3.191  0.0949  0.4826 -0.6163
 1452HK4    C3921958  10.160   2.556   2.953  0.4392 -0.2465  0.1157
 1452HK4    C4121959  10.215   2.654   3.039 -0.2789  0.1795  0.0900
 1452HK4    H2121960  10.174   2.660   3.141  0.7332 -0.2051  0.5206
 1452HK4    C4221961  10.321   2.734   2.997 -0.1068 -0.3072 -0.4066
 1452HK4    H2221962  10.372   2.800   3.069 -0.5370 -0.5189  0.0977
 1452HK4    C4321963  10.365   2.724   2.866  0.4783  0.1494 -0.2473
 1452HK4    H2321964  10.447   2.788   2.832  1.4421 -0.9878 -0.1059
 1452HK4    C4421965  10.303   2.640   2.773  0.0398  0.1829  0.0168
 1452HK4    H2421966  10.286   2.680   2.672 -0.3895 -0.2600 -0.0865
 1452HK4    C4521967  10.201   2.557   2.818  0.2043 -0.0044  0.0438
 1452HK4    H2521968  10.139   2.504   2.744 -1.1810 -1.3203  2.1082
 1453HK4    H2821969   9.026   0.676   6.690  0.7888 -0.5003  0.1132
 1453HK4    C4821970   9.029   0.591   6.621  0.0043 -0.0307 -0.5088
 1453HK4    C4721971   9.019   0.464   6.675 -0.7240  0.1910 -0.1111
 1453HK4    H2721972   8.982   0.444   6.777 -2.3231 -1.3918 -0.9773
 1453HK4    C4621973   9.036   0.355   6.590  0.2098  0.1454  0.1239
 1453HK4    H2621974   8.992   0.260   6.626  0.4196  0.3560  0.9399
 1453HK4    C4021975   9.056   0.373   6.452 -0.4255  0.1818  0.0330
 1453HK4    C5021976   9.053   0.503   6.398 -0.2121  0.2588  0.2082
 1453HK4    H3021977   9.070   0.522   6.291 -1.6247 -1.0682 -0.2702
 1453HK4    C4921978   9.044   0.611   6.484 -0.2050  0.7609 -0.4180
 1453HK4    H2921979   9.038   0.712   6.440  0.1414  0.3475 -1.4312
 1453HK4     N221980   9.106   0.265   6.377 -0.2444 -0.0267  0.4523
 1453HK4    C3021981   9.090   0.240   6.239  0.0621 -0.2158  0.4495
 1453HK4    C2921982   8.998   0.300   6.154 -0.0010 -0.3437  0.4280
 1453HK4    H1521983   8.912   0.354   6.195 -1.0508 -0.4039 -1.6225
 1453HK4    C2821984   9.004   0.288   6.016 -0.0839 -0.1654  0.4080
 1453HK4    C2721985   9.112   0.218   5.958 -0.4685 -0.4047 -0.0172
 1453HK4    H1421986   9.155   0.247   5.861  1.0702  2.5175  1.4889
 1453HK4    C3221987   9.194   0.145   6.044 -0.1824  0.4765  0.4568
 1453HK4    H1621988   9.237   0.054   6.003 -0.5594  0.6531 -0.3437
 1453HK4    C3121989   9.188   0.149   6.183 -0.1487 -0.4709  0.4898
 1453HK4    C3421990   9.270   0.118   6.298 -0.0818  0.0351  0.5816
 1453HK4    C3321991   9.222   0.193   6.412 -0.0481  0.2786  0.4351
 1453HK4    C3521992   9.297   0.183   6.529  0.2572 -0.2892  0.1952
 1453HK4    H1721993   9.252   0.238   6.612 -1.0947 -1.5974  0.3454
 1453HK4    C3621994   9.413   0.106   6.529  0.4169 -0.0465  0.1386
 1453HK4    H1821995   9.459   0.084   6.627 -0.2389  1.3454  0.7792
 1453HK4    C3721996   9.451   0.028   6.420 -0.2684 -0.2359  0.0295
 1453HK4    H1921997   9.532  11.204   6.426 -0.4179 -0.3566  0.6720
 1453HK4    C3821998   9.380   0.033   6.301 -0.5733 -0.6195  0.1904
 1453HK4    H2021999   9.409  11.221   6.215  3.1142 -1.2546  1.7812
 1453HK4    C1422000   8.901   0.343   5.927 -0.3661 -0.6078  0.4595
 1453HK4     C922001   8.887   0.302   5.794 -0.3798  0.1660  0.2160
 1453HK4     C822002   8.863   0.391   5.687 -1.1440 -0.3701 -0.0671
 1453HK4    C1122003   8.831   0.520   5.729 -0.5189 -0.2531  0.0626
 1453HK4     H422004   8.809   0.598   5.655 -0.2817 -0.9446 -0.7443
 1453HK4    C1222005   8.818   0.561   5.861 -0.3540  0.4628 -0.1457
 1453HK4     H522006   8.771   0.659   5.881 -1.4455 -0.5464  2.3522
 1453HK4    C1322007   8.857   0.473   5.960 -0.3469 -0.2685 -0.7943
 1453HK4     H622008   8.887   0.514   6.058 -0.5820  0.8039 -1.1650
 1453HK4     C722009   8.882   0.346   5.547  0.3963  0.2042 -0.0576
 1453HK4     O222010   8.845   0.425   5.460  0.1496  0.3565  0.1803
 1453HK4     C422011   8.908   0.204   5.516 -0.0401  0.1151 -0.0213
 1453HK4     C322012   8.927   0.162   5.385 -0.2257  0.2135 -0.0806
 1453HK4     H322013   8.945   0.232   5.302 -0.5372  0.5642  0.1440
 1453HK4     C222014   8.946   0.028   5.354 -0.2721  0.1816  0.0315
 1453HK4     H222015   8.927  11.244   5.251  0.2005 -1.1984  0.3668
 1453HK4     C122016   8.961  11.190   5.463 -0.7916  0.2493  0.1555
 1453HK4     H122017   8.979  11.085   5.435 -0.3639  0.5027 -0.5241
 1453HK4     C622018   8.953  11.226   5.599  0.2905  0.0527  0.2751
 1453HK4     C522019   8.914   0.111   5.622 -0.6374 -0.1321 -0.2039
 1453HK4    C1022020   8.883   0.156   5.760 -0.6135  0.3002 -0.3410
 1453HK4     O122021   8.806   0.088   5.827 -0.0093  0.1345  0.1808
 1453HK4    C1622022   9.033  11.135   5.682 -0.6096 -0.5758  0.4676
 1453HK4    C1522023   9.149  11.071   5.634 -0.2134  0.3728  0.1289
 1453HK4     H722024   9.193  11.100   5.537  1.1765  2.1821  1.2834
 1453HK4    C2022025   9.213  10.957   5.682  0.1906  0.7219  0.4115
 1453HK4     H922026   9.298  10.913   5.630 -0.0964 -0.3182  0.8192
 1453HK4    C1922027   9.162  10.917   5.805  0.0955  0.1009  0.1666
 1453HK4    C1822028   9.048  10.983   5.865 -0.5222 -0.5704 -0.2521
 1453HK4    C1722029   8.981  11.085   5.800 -0.5438  0.0764  0.7734
 1453HK4     H822030   8.873  11.086   5.814 -0.4077  1.6550  1.8118
 1453HK4     N122031   9.017  10.933   5.994  0.2895  0.2154  0.2509
 1453HK4    C2122032   9.107  10.825   6.009  0.2259  0.1138 -0.0821
 1453HK4    C2222033   9.196  10.809   5.896  0.4193  0.1205  0.0672
 1453HK4    C2622034   9.275  10.696   5.875  0.1926 -0.1367  0.5686
 1453HK4    H1322035   9.375  10.710   5.834  0.4106 -0.7160  0.9120
 1453HK4    C2522036   9.256  10.587   5.959  0.5800 -0.1546  0.6284
 1453HK4    H1222037   9.304  10.490   5.949 -2.4092 -1.4393 -2.1605
 1453HK4    C2422038   9.160  10.596   6.059  0.1974  0.1076  0.2441
 1453HK4    H1122039   9.154  10.514   6.132  1.9081  0.2003  0.5195
 1453HK4    C2322040   9.094  10.714   6.092  0.1588  0.1596 -0.0314
 1453HK4    H1022041   9.057  10.717   6.194  0.9359 -0.4785  0.2754
 1453HK4    C3922042   8.952  11.000   6.098  0.2173  0.1830  0.2250
 1453HK4    C4122043   8.874  10.933   6.194 -0.0878 -0.2594 -0.3244
 1453HK4    H2122044   8.891  10.825   6.205  1.1731  0.0473  1.0362
 1453HK4    C4222045   8.780  10.995   6.275 -0.0980 -0.2429 -0.3511
 1453HK4    H2222046   8.732  10.927   6.347  0.7096  0.6990  1.0978
 1453HK4    C4322047   8.764  11.133   6.275  0.1384 -0.2152 -0.0127
 1453HK4    H2322048   8.692  11.184   6.340  1.1107  0.1970  0.7474
 1453HK4    C4422049   8.848  11.201   6.187 -0.0782 -0.1793 -0.1931
 1453HK4    H2422050   8.835   0.060   6.169  0.0292 -0.2246 -0.5309
 1453HK4    C4522051   8.937  11.140   6.099  0.2272  0.1863 -0.1427
 1453HK4    H2522052   8.980  11.201   6.019  0.9161 -1.1473 -0.7957
 1454HK4    H2822053   9.145   3.239   1.366 -0.2235  0.6077  0.2703
 1454HK4    C4822054   9.046   3.195   1.373  0.1506 -0.2170  0.4728
 1454HK4    C4722055   8.939   3.239   1.296  0.8506 -0.0974 -0.4298
 1454HK4    H2722056   8.931   3.347   1.278  0.7431 -0.0870 -0.3180
 1454HK4    C4622057   8.820   3.169   1.281  0.5898  0.2130  0.1844
 1454HK4    H2622058   8.742   3.203   1.211  1.7053  1.9870 -0.2120
 1454HK4    C4022059   8.803   3.043   1.341  0.0084  0.0493 -0.3143
 1454HK4    C5022060   8.910   3.003   1.424 -0.1222 -0.3157 -0.3208
 1454HK4    H3022061   8.894   2.917   1.489 -2.2848 -0.3108 -0.8046
 1454HK4    C4922062   9.028   3.076   1.442 -0.1902 -0.3281  0.1895
 1454HK4    H2922063   9.104   3.048   1.516  1.2373  0.7067 -0.8785
 1454HK4     N222064   8.735   2.940   1.274 -0.2997 -0.0408  0.1328
 1454HK4    C3022065   8.711   2.916   1.137  0.4968 -0.4740  0.0692
 1454HK4    C2922066   8.767   2.975   1.025  0.2909 -0.1148  0.1552
 1454HK4    H1522067   8.827   3.064   1.042  0.8094  0.0546 -2.2855
 1454HK4    C2822068   8.749   2.926   0.896  0.3896  0.2004  0.0212
 1454HK4    C2722069   8.675   2.806   0.887  0.1864  0.2927  0.4686
 1454HK4    H1422070   8.721   2.739   0.813 -1.5593 -1.1166  0.6233
 1454HK4    C3222071   8.608   2.742   0.991 -0.4538  0.2887  0.0596
 1454HK4    H1622072   8.549   2.651   0.984  1.1963 -0.6466 -2.1628
 1454HK4    C3122073   8.630   2.797   1.117  0.2361 -0.3229  0.2099
 1454HK4    C3422074   8.606   2.740   1.249 -0.5350  0.0242  0.2227
 1454HK4    C3322075   8.668   2.835   1.340 -0.0694 -0.1912  0.1295
 1454HK4    C3522076   8.632   2.819   1.473 -0.1094  0.1494  0.1597
 1454HK4    H1722077   8.663   2.901   1.538 -1.0693  0.7260 -0.1091
 1454HK4    C3622078   8.554   2.717   1.527  0.1994 -0.0402  0.2537
 1454HK4    H1822079   8.530   2.725   1.634  2.6700  2.7731  0.6911
 1454HK4    C3722080   8.508   2.628   1.432 -0.1623 -0.1775  0.5569
 1454HK4    H1922081   8.454   2.541   1.468 -0.7988  0.9760  2.4455
 1454HK4    C3822082   8.528   2.635   1.294 -0.2275 -0.0634  0.5529
 1454HK4    H2022083   8.505   2.554   1.226 -3.0569  1.2173 -0.1043
 1454HK4    C1422084   8.765   3.026   0.789 -0.2925  0.7461  0.4229
 1454HK4     C922085   8.684   3.021   0.675 -0.0332  0.0001  0.2654
 1454HK4     C822086   8.741   3.057   0.551  0.4215  0.2616  0.5485
 1454HK4    C1122087   8.862   3.126   0.553  0.1050  0.8332 -0.0942
 1454HK4     H422088   8.911   3.161   0.461  1.8961 -0.1559  0.4610
 1454HK4    C1222089   8.928   3.155   0.671  0.5538 -0.5589  0.0021
 1454HK4     H522090   9.014   3.224   0.679  0.7054 -0.8445  0.9912
 1454HK4    C1322091   8.888   3.094   0.790 -0.0529  0.3175  0.2533
 1454HK4     H622092   8.946   3.116   0.881  0.5426  1.0432 -0.2973
 1454HK4     C722093   8.670   3.041   0.422  0.2027 -0.4129  0.7468
 1454HK4     O222094   8.722   3.084   0.319 -0.3316 -0.1586  0.5817
 1454HK4     C422095   8.533   2.986   0.428  0.1577 -0.3426  0.3685
 1454HK4     C322096   8.469   2.963   0.306 -0.1844  0.2636  0.4344
 1454HK4     H322097   8.494   3.028   0.221 -0.8783  1.9554  1.4881
 1454HK4     C222098   8.358   2.879   0.298  0.5577 -0.7015  0.1762
 1454HK4     H222099   8.334   2.830   0.203 -0.0257 -0.7483  0.3454
 1454HK4     C122100   8.309   2.831   0.419  0.1798  0.1717  0.3784
 1454HK4     H122101   8.220   2.767   0.430  1.5244 -1.4919  1.9619
 1454HK4     C622102   8.366   2.855   0.546 -0.5542 -0.2247  0.7817
 1454HK4     C522103   8.475   2.942   0.548 -0.2694 -0.5560  0.0876
 1454HK4    C1022104   8.540   2.984   0.676 -0.1689  0.4969 -0.3052
 1454HK4     O122105   8.464   3.037   0.757 -0.1059  0.3226 -0.1341
 1454HK4    C1622106   8.360   2.738   0.635  0.4926 -0.6298  0.3287
 1454HK4    C1522107   8.367   2.603   0.594 -0.2995 -0.4907 -0.2925
 1454HK4     H722108   8.415   2.571   0.500 -0.8946 -1.8163 -0.1519
 1454HK4    C2022109   8.326   2.504   0.683 -0.7516  0.1402  0.2044
 1454HK4     H922110   8.321   2.406   0.635 -1.6556  0.9131 -1.3422
 1454HK4    C1922111   8.274   2.532   0.808  0.1481  0.1512  0.5779
 1454HK4    C1822112   8.261   2.671   0.850 -0.1351  0.2278  0.2360
 1454HK4    C1722113   8.306   2.767   0.760 -0.3655 -0.0433 -0.1693
 1454HK4     H822114   8.280   2.870   0.781 -1.3467 -0.6132  1.4843
 1454HK4     N122115   8.220   2.688   0.984  0.4092 -0.0069  0.4326
 1454HK4    C2122116   8.230   2.557   1.035  0.7019 -0.0253  0.3326
 1454HK4    C2222117   8.272   2.461   0.935  0.6254 -0.1469  0.4162
 1454HK4    C2622118   8.294   2.327   0.962 -0.0603 -0.3820 -0.1631
 1454HK4    H1322119   8.281   2.249   0.887  0.0128 -1.0168  0.4785
 1454HK4    C2522120   8.291   2.291   1.097 -0.2260 -0.0892 -0.0883
 1454HK4    H1222121   8.327   2.190   1.115  0.1638 -0.3023 -1.9495
 1454HK4    C2422122   8.252   2.379   1.197 -0.5002 -0.3319  0.0159
 1454HK4    H1122123   8.288   2.355   1.298 -0.2922  2.2558  0.5665
 1454HK4    C2322124   8.216   2.509   1.165  0.5750  0.0483  0.3457
 1454HK4    H1022125   8.197   2.579   1.247  3.1587 -0.0176  1.0347
 1454HK4    C3922126   8.227   2.804   1.061  0.0731  0.1614  0.2107
 1454HK4    C4122127   8.136   2.819   1.168 -0.1536 -0.1711  0.0629
 1454HK4    H2122128   8.041   2.766   1.153 -0.3155  0.4057 -0.9952
 1454HK4    C4222129   8.153   2.913   1.269  0.1532  0.1768 -0.3056
 1454HK4    H2222130   8.078   2.948   1.343  0.0465  0.6765 -0.6499
 1454HK4    C4322131   8.266   2.993   1.264  0.0142  0.4251  0.4678
 1454HK4    H2322132   8.304   3.055   1.346  0.0122  1.1608 -0.0850
 1454HK4    C4422133   8.351   2.989   1.154 -0.4452 -0.0111  0.1282
 1454HK4    H2422134   8.446   3.043   1.164 -0.6046  0.5394 -1.2439
 1454HK4    C4522135   8.332   2.898   1.051  0.0525  0.1533 -0.1095
 1454HK4    H2522136   8.399   2.899   0.964  1.0470 -0.3303  0.6381
 1455HK4    H2822137   4.491   5.241   6.560 -1.3265  1.1503 -2.8020
 1455HK4    C4822138   4.455   5.141   6.536 -0.9249  0.2868  0.1068
 1455HK4    C4722139   4.417   5.111   6.406  0.1309 -0.1508 -0.1030
 1455HK4    H2722140   4.400   5.194   6.336 -3.9191 -0.2358  0.6501
 1455HK4    C4622141   4.389   4.978   6.377 -0.2893 -0.0869  0.0096
 1455HK4    H2622142   4.387   4.943   6.273 -0.3295  1.4118 -0.4963
 1455HK4    C4022143   4.394   4.869   6.467  0.0831 -0.3695 -0.3562
 1455HK4    C5022144   4.443   4.903   6.594  0.5205 -0.0420 -0.6074
 1455HK4    H3022145   4.450   4.819   6.665 -1.5526 -0.1738 -0.5238
 1455HK4    C4922146   4.468   5.036   6.627 -0.1557  0.0178 -0.3138
 1455HK4    H2922147   4.491   5.055   6.732 -0.6467 -5.3673  0.9070
 1455HK4     N222148   4.329   4.747   6.446 -0.5849 -0.0895  0.0802
 1455HK4    C3022149   4.226   4.722   6.352 -0.0071 -0.0021 -0.5769
 1455HK4    C2922150   4.174   4.803   6.252 -0.9859 -0.0237 -0.0816
 1455HK4    H1522151   4.159   4.907   6.281 -0.4433 -0.5256  2.1217
 1455HK4    C2822152   4.095   4.753   6.149 -0.2525 -0.1075 -0.6077
 1455HK4    C2722153   4.063   4.616   6.163  0.0868 -0.1409 -0.1472
 1455HK4    H1422154   4.002   4.567   6.086  3.6330 -1.5752 -2.1747
 1455HK4    C3222155   4.100   4.535   6.270 -0.2185 -0.2108 -0.0964
 1455HK4    H1622156   4.038   4.449   6.296 -1.7981  0.6340 -0.9611
 1455HK4    C3122157   4.181   4.586   6.371  0.1057 -0.0217 -0.4491
 1455HK4    C3422158   4.255   4.526   6.481 -0.1792  0.2009 -0.1368
 1455HK4    C3322159   4.357   4.625   6.511 -0.0534  0.0164  0.0474
 1455HK4    C3522160   4.469   4.579   6.579  0.2316  0.0462 -0.3996
 1455HK4    H1722161   4.559   4.638   6.598  0.6870 -0.8692  0.3336
 1455HK4    C3622162   4.487   4.446   6.613 -0.5605  0.1017  0.2304
 1455HK4    H1822163   4.571   4.412   6.676  0.3949  0.1377 -1.0160
 1455HK4    C3722164   4.387   4.353   6.587 -0.4410 -0.1951  0.7999
 1455HK4    H1922165   4.401   4.251   6.623  2.4543 -0.1346 -0.0287
 1455HK4    C3822166   4.268   4.396   6.528 -0.2000  0.5602  0.8673
 1455HK4    H2022167   4.174   4.347   6.550 -0.0824  0.5582  1.3704
 1455HK4    C1422168   4.046   4.839   6.041 -0.7843  0.3664  0.0040
 1455HK4     C922169   3.938   4.799   5.961 -0.4692 -0.2186 -0.1324
 1455HK4     C822170   3.938   4.843   5.827  0.2313 -0.0165 -0.0699
 1455HK4    C1122171   4.035   4.931   5.780  0.0880  0.1024 -0.1492
 1455HK4     H422172   4.010   4.977   5.683  0.5001 -0.3819 -0.4865
 1455HK4    C1222173   4.140   4.975   5.860 -0.3311  0.8107  0.0087
 1455HK4     H522174   4.219   5.039   5.819  0.7625 -1.8747 -2.2176
 1455HK4    C1322175   4.136   4.937   5.994 -0.3080 -0.2038 -0.2776
 1455HK4     H622176   4.205   4.994   6.057 -0.3907 -0.5492  0.1242
 1455HK4     C722177   3.835   4.800   5.730  0.5651 -0.6861 -0.1215
 1455HK4     O222178   3.868   4.775   5.614  0.1716 -0.4396 -0.2865
 1455HK4     C422179   3.711   4.742   5.786 -0.1425  0.3620 -0.5969
 1455HK4     C322180   3.601   4.729   5.701 -0.1655 -0.1949 -0.4869
 1455HK4     H322181   3.606   4.769   5.599  1.9288  1.7056  0.3077
 1455HK4     C222182   3.504   4.632   5.724 -0.2791  0.0236 -0.0392
 1455HK4     H222183   3.415   4.619   5.662 -0.9587  0.9321  0.7325
 1455HK4     C122184   3.520   4.556   5.839 -0.2108 -0.3228 -0.2756
 1455HK4     H122185   3.447   4.479   5.869 -1.9693  0.8505 -1.4732
 1455HK4     C622186   3.629   4.569   5.928  0.3705 -0.4365 -0.9683
 1455HK4     C522187   3.721   4.672   5.908 -1.1646  1.1560 -0.0481
 1455HK4    C1022188   3.825   4.714   6.007 -0.6060 -0.0281 -0.1189
 1455HK4     O122189   3.782   4.739   6.120 -0.7364 -0.0914 -0.1528
 1455HK4    C1622190   3.662   4.444   5.997  0.0670 -0.2288 -0.4374
 1455HK4    C1522191   3.647   4.318   5.935 -0.1186 -0.4868  0.1299
 1455HK4     H722192   3.671   4.310   5.828 -1.7238  2.3266 -0.4898
 1455HK4    C2022193   3.610   4.205   6.006 -0.2472 -0.5181  0.0110
 1455HK4     H922194   3.609   4.111   5.949  1.3751 -0.6160  0.1215
 1455HK4    C1922195   3.596   4.213   6.144 -0.3022  0.4456 -0.0481
 1455HK4    C1822196   3.632   4.334   6.214  0.1213  0.2113  0.1414
 1455HK4    C1722197   3.650   4.447   6.135 -0.1501 -0.1650 -0.4576
 1455HK4     H822198   3.631   4.540   6.188 -0.9815 -0.6857  0.1662
 1455HK4     N122199   3.608   4.329   6.353 -0.1142 -0.2505  0.0848
 1455HK4    C2122200   3.553   4.201   6.373  0.1600 -0.3746  0.0566
 1455HK4    C2222201   3.558   4.123   6.251 -0.2583  0.1350 -0.2897
 1455HK4    C2622202   3.506   3.994   6.255  0.7622 -0.2558  0.5440
 1455HK4    H1322203   3.526   3.933   6.166  0.5780 -1.2381  1.1667
 1455HK4    C2522204   3.460   3.943   6.375 -0.3242 -0.1134  0.1875
 1455HK4    H1222205   3.462   3.836   6.397  0.3002 -0.4550 -1.4584
 1455HK4    C2422206   3.439   4.020   6.489 -0.4772  0.3442 -0.1478
 1455HK4    H1122207   3.375   3.989   6.573  0.4347  1.2892  0.9056
 1455HK4    C2322208   3.490   4.149   6.486  0.1150  0.1237  0.2646
 1455HK4    H1022209   3.469   4.220   6.566 -0.2307  2.7923 -2.0993
 1455HK4    C3922210   3.666   4.417   6.446 -0.3787  0.3404 -0.3098
 1455HK4    C4122211   3.600   4.439   6.568 -0.0170 -0.0248 -0.0499
 1455HK4    H2122212   3.495   4.407   6.575 -0.2510  0.1246 -2.6107
 1455HK4    C4222213   3.669   4.482   6.681  0.2471 -0.2327 -0.1346
 1455HK4    H2222214   3.616   4.493   6.777 -0.0916 -2.5435 -0.0326
 1455HK4    C4322215   3.807   4.501   6.675  0.1930  0.2706  0.2019
 1455HK4    H2322216   3.866   4.512   6.766  1.7266  3.4400 -1.0862
 1455HK4    C4422217   3.872   4.491   6.552 -0.1272 -0.4694  0.0880
 1455HK4    H2422218   3.968   4.543   6.541 -0.0334 -0.2661  1.6385
 1455HK4    C4522219   3.801   4.455   6.438 -0.2968  0.1134  0.0067
 1455HK4    H2522220   3.847   4.470   6.340 -0.1144  0.2387  0.1106
 1456HK4    H2822221   4.640  10.696   6.775  0.9751 -0.7482 -1.5973
 1456HK4    C4822222   4.666  10.598   6.816 -0.4604 -0.5564 -0.1570
 1456HK4    C4722223   4.612  10.559   6.938 -0.1439 -1.1183 -0.1932
 1456HK4    H2722224   4.532  10.621   6.982  0.9725 -0.5629  1.0686
 1456HK4    C4622225   4.666  10.453   7.009 -0.2202 -0.8270  0.2991
 1456HK4    H2622226   4.665  10.454   7.119  0.9151 -0.6841  0.3067
 1456HK4    C4022227   4.777  10.383   6.957 -0.0998 -0.1725 -0.3332
 1456HK4    C5022228   4.826  10.420   6.831  0.7728 -0.2318 -0.0092
 1456HK4    H3022229   4.912  10.372   6.781  0.3324  0.5254 -1.5532
 1456HK4    C4922230   4.775  10.529   6.762 -0.5417 -0.8249  0.0245
 1456HK4    H2922231   4.812  10.546   6.660 -1.0625  0.2526  0.0069
 1456HK4     N222232   4.808  10.256   7.007 -0.0923 -0.0014  0.1087
 1456HK4    C3022233   4.933  10.190   7.000 -0.2005 -0.1862 -0.0943
 1456HK4    C2922234   5.058  10.249   6.987 -0.0611 -0.4619  0.0044
 1456HK4    H1522235   5.055  10.358   6.982  1.9876 -0.3749 -0.0943
 1456HK4    C2822236   5.179  10.186   7.018  0.3502  0.4935  0.3580
 1456HK4    C2722237   5.168  10.055   7.068 -0.1520  0.3373 -0.1456
 1456HK4    H1422238   5.251  10.000   7.115  0.9098 -0.5066 -2.9405
 1456HK4    C3222239   5.045   9.992   7.086  0.2791 -0.5519 -0.2937
 1456HK4    H1622240   5.035   9.903   7.149  0.2213  0.6321  1.4041
 1456HK4    C3122241   4.926  10.055   7.050  0.2889  0.1320  0.8440
 1456HK4    C3422242   4.786  10.034   7.081  0.1255 -0.1571 -0.0674
 1456HK4    C3322243   4.718  10.159   7.053  0.0168 -0.2442 -0.1875
 1456HK4    C3522244   4.584  10.161   7.093  0.0246 -0.8992 -0.1117
 1456HK4    H1722245   4.537  10.258   7.077  0.6527 -0.9193 -2.2559
 1456HK4    C3622246   4.518  10.058   7.158 -0.4061 -0.5312  0.0313
 1456HK4    H1822247   4.410  10.075   7.171 -0.7305 -0.7101 -2.1644
 1456HK4    C3722248   4.590   9.942   7.183 -0.1864 -0.3404  0.2825
 1456HK4    H1922249   4.536   9.869   7.245 -1.7767 -0.3739 -1.1196
 1456HK4    C3822250   4.724   9.929   7.147 -0.0389  0.3338  0.5648
 1456HK4    H2022251   4.773   9.834   7.170 -1.0976 -0.1892  0.7254
 1456HK4    C1422252   5.305  10.221   6.951 -0.0914 -0.3686 -0.9474
 1456HK4     C922253   5.413  10.133   6.933  0.0237 -0.4507  0.1169
 1456HK4     C822254   5.542  10.165   6.978  0.2949  0.4531 -1.2787
 1456HK4    C1122255   5.572  10.292   7.025  0.0394  0.2764 -0.6309
 1456HK4     H422256   5.667  10.309   7.078 -0.4267  2.1312 -0.3591
 1456HK4    C1222257   5.472  10.388   7.011 -0.5012 -0.1473  0.2845
 1456HK4     H522258   5.488  10.492   7.043 -2.4201 -0.4639  2.3164
 1456HK4    C1322259   5.342  10.354   6.979 -0.2855 -0.4503 -0.2808
 1456HK4     H622260   5.269  10.436   6.987 -1.3137 -1.3154 -0.6544
 1456HK4     C722261   5.647  10.060   6.976 -0.2015 -0.0857  0.1011
 1456HK4     O222262   5.736  10.058   7.061 -0.5086  0.1640  0.4297
 1456HK4     C422263   5.626   9.948   6.882 -0.2586 -0.4051  0.4945
 1456HK4     C322264   5.706   9.835   6.878  0.0479 -0.1778  0.1658
 1456HK4     H322265   5.765   9.808   6.967  0.9647  0.3315 -0.2838
 1456HK4     C222266   5.688   9.741   6.777 -0.4437  0.2058 -0.1020
 1456HK4     H222267   5.751   9.651   6.788  0.3450  0.8788  0.9364
 1456HK4     C122268   5.605   9.769   6.669 -0.1278  0.1149 -0.3712
 1456HK4     H122269   5.579   9.692   6.594 -1.3741 -0.9292  1.0899
 1456HK4     C622270   5.540   9.893   6.660 -0.4893 -0.0546 -0.0991
 1456HK4     C522271   5.527   9.961   6.782  0.1785 -0.2471  0.0783
 1456HK4    C1022272   5.404  10.035   6.821  0.1469 -0.1977 -0.1130
 1456HK4     O122273   5.295  10.009   6.770 -0.0419 -0.6149  0.4934
 1456HK4    C1622274   5.518   9.966   6.534 -0.4601  0.3881  0.1514
 1456HK4    C1522275   5.554   9.904   6.413  0.4715  0.4162  0.4068
 1456HK4     H722276   5.607   9.809   6.423  1.9968  0.8858 -2.5876
 1456HK4    C2022277   5.542   9.963   6.287  0.2011 -0.0530  0.2107
 1456HK4     H922278   5.556   9.899   6.200  0.3560 -0.4902  0.5525
 1456HK4    C1922279   5.492  10.092   6.273 -0.4957 -0.3225  0.2330
 1456HK4    C1822280   5.462  10.166   6.394 -0.5952  0.1282 -0.0644
 1456HK4    C1722281   5.480  10.099   6.515 -0.6181  0.3273  0.0504
 1456HK4     H822282   5.490  10.164   6.602 -0.8329  2.0958 -1.2237
 1456HK4     N122283   5.399  10.290   6.373 -0.2442  0.2983 -0.1297
 1456HK4    C2122284   5.386  10.288   6.233 -0.5622 -0.2301 -0.0953
 1456HK4    C2222285   5.443  10.173   6.164  0.0450 -0.0887  0.1680
 1456HK4    C2622286   5.450  10.160   6.026  0.3499  0.0517  0.1685
 1456HK4    H1322287   5.505  10.075   5.983  1.3954  1.5775 -1.6030
 1456HK4    C2522288   5.392  10.256   5.944  0.0524 -0.2335  0.0452
 1456HK4    H1222289   5.381  10.248   5.836 -0.4230 -0.6140  0.1165
 1456HK4    C2422290   5.339  10.366   6.010 -0.2097 -0.3269 -0.0095
 1456HK4    H1122291   5.300  10.450   5.951 -0.9248 -0.0480  0.8454
 1456HK4    C2322292   5.324  10.379   6.148  0.0473  0.2444 -0.0343
 1456HK4    H1022293   5.271  10.463   6.192 -2.2486 -0.0899 -1.9971
 1456HK4    C3922294   5.319  10.359   6.465 -0.0357  0.2869  0.0588
 1456HK4    C4122295   5.296  10.498   6.463  0.0282  0.2973 -0.2449
 1456HK4    H2122296   5.360  10.565   6.404 -0.5107  1.4918  0.4991
 1456HK4    C4222297   5.205  10.555   6.552 -0.4047 -0.5952 -0.1126
 1456HK4    H2222298   5.198  10.663   6.569 -0.9517 -1.0449  2.8490
 1456HK4    C4322299   5.138  10.479   6.647 -0.0956  0.1889  0.7400
 1456HK4    H2322300   5.078  10.524   6.725  0.0865  0.7792  0.5365
 1456HK4    C4422301   5.157  10.341   6.644 -0.2631  0.1770  0.2560
 1456HK4    H2422302   5.103  10.285   6.722 -1.7693  1.0056 -0.1729
 1456HK4    C4522303   5.249  10.281   6.559 -0.0444  0.5224  0.2478
 1456HK4    H2522304   5.246  10.171   6.551 -1.8535  0.5820  0.0107
 1457HK4    H2822305   3.532   5.250   4.094  0.8056 -0.7797 -0.4616
 1457HK4    C4822306   3.577   5.332   4.150 -0.4040 -0.2698 -0.2058
 1457HK4    C4722307   3.602   5.452   4.083 -0.6241 -0.3075 -0.3548
 1457HK4    H2722308   3.602   5.446   3.973  0.1625 -0.7027 -0.3338
 1457HK4    C4622309   3.665   5.559   4.145 -0.3067 -0.4496 -0.4281
 1457HK4    H2622310   3.663   5.656   4.094 -0.8177  0.2149  0.8283
 1457HK4    C4022311   3.710   5.552   4.279 -0.7565  0.2687 -0.2344
 1457HK4    C5022312   3.679   5.432   4.346  0.1976  0.2855  0.2441
 1457HK4    H3022313   3.725   5.411   4.444 -0.3179 -0.3249  0.3560
 1457HK4    C4922314   3.612   5.327   4.284  0.7658  0.3390 -0.4724
 1457HK4    H2922315   3.588   5.233   4.336 -0.9673  0.6863 -0.5979
 1457HK4     N222316   3.802   5.644   4.330  0.0225 -0.7221  0.1591
 1457HK4    C3022317   3.899   5.710   4.252  0.1512 -0.0253  0.8977
 1457HK4    C2922318   3.971   5.669   4.141 -0.7013  0.4790  0.1488
 1457HK4    H1522319   3.925   5.598   4.073 -1.1954 -0.4563  1.4599
 1457HK4    C2822320   4.093   5.725   4.101 -0.4435 -0.2894 -0.1489
 1457HK4    C2722321   4.148   5.828   4.180 -0.0984 -0.1330 -0.5973
 1457HK4    H1422322   4.226   5.890   4.133  0.1704 -0.6312 -0.8191
 1457HK4    C3222323   4.075   5.875   4.288  0.2387 -0.0829 -0.3941
 1457HK4    H1622324   4.094   5.975   4.328 -1.7283 -0.2843  1.0805
 1457HK4    C3122325   3.952   5.823   4.326  0.3962  0.1491  0.4580
 1457HK4    C3422326   3.878   5.831   4.450  0.2315 -0.2155  0.3876
 1457HK4    C3322327   3.784   5.721   4.447  0.2340 -0.2015 -0.1523
 1457HK4    C3522328   3.693   5.709   4.551  0.2532  0.3976 -0.0654
 1457HK4    H1722329   3.607   5.644   4.534  1.4206 -0.2561 -3.8948
 1457HK4    C3622330   3.687   5.807   4.650 -0.0991  0.4119 -0.0979
 1457HK4    H1822331   3.617   5.799   4.734  0.0038 -0.6844 -0.1087
 1457HK4    C3722332   3.779   5.912   4.655 -0.2120  0.4873  0.4010
 1457HK4    H1922333   3.783   5.978   4.742  3.6000 -1.1078  1.5333
 1457HK4    C3822334   3.876   5.922   4.556 -0.5031  0.1321  0.0787
 1457HK4    H2022335   3.961   5.988   4.573  0.4980 -1.4219  1.2295
 1457HK4    C1422336   4.176   5.651   4.005 -0.2760 -0.2064 -0.0674
 1457HK4     C922337   4.315   5.659   4.011 -0.2889  0.0220 -0.0727
 1457HK4     C822338   4.397   5.654   3.895 -0.2499  0.6822 -0.0741
 1457HK4    C1122339   4.339   5.610   3.777 -0.5964  0.1955  0.2719
 1457HK4     H422340   4.400   5.611   3.685 -2.0122 -0.2940 -0.6943
 1457HK4    C1222341   4.204   5.578   3.767 -0.4124 -0.5179  0.0177
 1457HK4     H522342   4.171   5.509   3.689 -0.8930  0.8037 -0.9689
 1457HK4    C1322343   4.128   5.606   3.880 -0.3587 -0.3210  0.0051
 1457HK4     H622344   4.020   5.593   3.862 -0.3915 -0.9193  0.6442
 1457HK4     C722345   4.538   5.698   3.901 -0.0477  0.0022  0.1623
 1457HK4     O222346   4.616   5.683   3.807 -0.0773  0.5737  0.0469
 1457HK4     C422347   4.587   5.754   4.029  0.0473 -0.2495  0.2373
 1457HK4     C322348   4.707   5.823   4.032 -0.3816  0.5223 -0.0550
 1457HK4     H322349   4.772   5.841   3.944 -2.0145  1.2931 -1.1243
 1457HK4     C222350   4.749   5.876   4.153 -0.0932  0.4434 -0.1166
 1457HK4     H222351   4.847   5.925   4.157  0.1833 -0.0851 -0.4130
 1457HK4     C122352   4.675   5.865   4.270 -0.1257  0.0429 -0.1777
 1457HK4     H122353   4.725   5.887   4.366 -1.4268  0.8394  0.3362
 1457HK4     C622354   4.555   5.791   4.266 -0.2644  0.2562  0.0536
 1457HK4     C522355   4.518   5.725   4.149 -0.1417 -0.0375  0.1797
 1457HK4    C1022356   4.386   5.655   4.142  0.2036 -0.6345 -0.3546
 1457HK4     O122357   4.365   5.556   4.212 -0.3692 -0.1297  0.1898
 1457HK4    C1622358   4.461   5.845   4.366 -0.5188  0.0972 -0.0984
 1457HK4    C1522359   4.450   5.984   4.391  0.7444  0.1325  0.3088
 1457HK4     H722360   4.506   6.049   4.323  1.2133 -0.7303 -0.1300
 1457HK4    C2022361   4.372   6.030   4.497  0.1316 -0.2925  0.0469
 1457HK4     H922362   4.366   6.138   4.507  0.1985 -0.4624  2.1085
 1457HK4    C1922363   4.304   5.942   4.580 -0.3224 -0.4809 -0.5206
 1457HK4    C1822364   4.315   5.798   4.562 -0.3012 -0.5337 -0.0851
 1457HK4    C1722365   4.395   5.762   4.455 -0.1099 -0.1881 -0.0608
 1457HK4     H822366   4.421   5.656   4.452 -1.0634 -0.4037 -1.0689
 1457HK4     N122367   4.231   5.725   4.650 -0.5567  0.0914  0.1954
 1457HK4    C2122368   4.176   5.823   4.735  0.0913  0.0307  0.6910
 1457HK4    C2222369   4.209   5.957   4.688  0.5259 -0.2470  0.1974
 1457HK4    C2622370   4.170   6.061   4.772  0.8003  0.1575 -0.1795
 1457HK4    H1322371   4.203   6.162   4.746 -1.2510  0.9856  0.3639
 1457HK4    C2522372   4.111   6.035   4.895  0.0864  0.8704 -0.3679
 1457HK4    H1222373   4.111   6.109   4.974  0.7922  1.0794 -0.5604
 1457HK4    C2422374   4.072   5.907   4.933  0.0447  0.9345 -0.1936
 1457HK4    H1122375   4.006   5.894   5.020  0.9115 -0.7135  0.2433
 1457HK4    C2322376   4.100   5.800   4.849 -0.1193  0.2626  0.6017
 1457HK4    H1022377   4.044   5.708   4.867 -0.1604  0.3277  0.7980
 1457HK4    C3922378   4.166   5.605   4.620  0.7873 -0.4966 -0.4254
 1457HK4    C4122379   4.140   5.510   4.721  0.0610  0.0750 -0.0655
 1457HK4    H2122380   4.184   5.526   4.821  1.9866  0.9737 -1.0055
 1457HK4    C4222381   4.073   5.393   4.692 -0.4962  0.3585  0.0792
 1457HK4    H2222382   4.082   5.309   4.764 -0.7749  0.3436  0.0978
 1457HK4    C4322383   4.028   5.370   4.563 -0.0037 -0.0156 -0.0241
 1457HK4    H2322384   3.954   5.292   4.545 -0.3139  0.4299 -0.6711
 1457HK4    C4422385   4.048   5.462   4.460 -0.0327  0.2683  0.2247
 1457HK4    H2422386   4.010   5.445   4.359  3.4805 -0.6812 -1.0368
 1457HK4    C4522387   4.118   5.578   4.490  0.1356  0.3186 -0.3568
 1457HK4    H2522388   4.165   5.634   4.408  2.2088 -0.4457  0.3004
 1458HK4    H2822389   9.391   0.436   1.605  0.2958  0.5010 -0.5946
 1458HK4    C4822390   9.343   0.397   1.515  0.0328  0.1413 -0.3030
 1458HK4    C4722391   9.418   0.294   1.459 -0.0167 -0.2132  0.2845
 1458HK4    H2722392   9.492   0.229   1.508 -0.1848 -2.0453 -1.8219
 1458HK4    C4622393   9.388   0.264   1.327 -0.1467  0.2396  0.2108
 1458HK4    H2622394   9.453   0.202   1.264 -0.5806  1.7871 -1.8429
 1458HK4    C4022395   9.283   0.325   1.255 -0.1281  0.2508  0.1955
 1458HK4    C5022396   9.209   0.424   1.324  0.0041  0.5775 -0.1244
 1458HK4    H3022397   9.125   0.475   1.275 -0.8263  0.3911  1.1031
 1458HK4    C4922398   9.238   0.464   1.454 -0.3040 -0.0018  0.1239
 1458HK4    H2922399   9.180   0.549   1.494  0.6857  1.3676 -1.2891
 1458HK4     N222400   9.215   0.261   1.151  0.4446  0.0193 -0.0385
 1458HK4    C3022401   9.218   0.125   1.117  0.7453 -0.0502  0.2630
 1458HK4    C2922402   9.249   0.019   1.201  0.2802 -0.2378  0.2034
 1458HK4    H1522403   9.241   0.043   1.307  0.4431  2.3373 -0.3494
 1458HK4    C2822404   9.276  11.138   1.156 -0.0380 -0.1825 -0.1500
 1458HK4    C2722405   9.234  11.112   1.024  0.1329 -0.1084 -0.2204
 1458HK4    H1422406   9.219  11.005   1.005 -0.8865 -0.3272  1.7181
 1458HK4    C3222407   9.191  11.212   0.936 -0.6250  0.0686  0.3401
 1458HK4    H1622408   9.149  11.183   0.840  0.2798  0.0123 -0.0491
 1458HK4    C3122409   9.189   0.096   0.977  0.9450  0.1532  0.1813
 1458HK4    C3422410   9.156   0.226   0.921  0.8695  0.1861  0.3013
 1458HK4    C3322411   9.178   0.321   1.028 -0.3990  0.3895  0.3932
 1458HK4    C3522412   9.168   0.457   1.002 -0.0826  0.3307 -0.0396
 1458HK4    H1722413   9.178   0.539   1.074  0.4963  1.0338 -0.9096
 1458HK4    C3622414   9.136   0.494   0.872 -0.6045 -0.4073 -0.1210
 1458HK4    H1822415   9.117   0.600   0.849  2.5678 -0.1213 -1.7030
 1458HK4    C3722416   9.120   0.402   0.769 -0.0480 -0.5256 -0.1032
 1458HK4    H1922417   9.103   0.442   0.668  0.6385 -0.8861 -0.3667
 1458HK4    C3822418   9.129   0.265   0.791 -0.9351 -0.4974  0.4519
 1458HK4    H2022419   9.144   0.198   0.706  0.1490 -1.9870  1.7947
 1458HK4    C1422420   9.371  11.054   1.231 -0.4032 -0.5260 -0.0738
 1458HK4     C922421   9.456  10.962   1.168 -0.5930 -0.6177 -0.1961
 1458HK4     C822422   9.500  10.846   1.235 -0.6102 -0.2403  0.4821
 1458HK4    C1122423   9.479  10.836   1.372  0.8346 -0.3391  0.7027
 1458HK4     H422424   9.536  10.769   1.438  0.7724  0.3558  1.4770
 1458HK4    C1222425   9.399  10.932   1.433  0.5346 -0.1714  0.0451
 1458HK4     H522426   9.349  10.913   1.529 -1.2453 -1.5066 -1.1309
 1458HK4    C1322427   9.345  11.044   1.369 -0.2170 -0.5806 -0.0442
 1458HK4     H622428   9.311  11.133   1.423 -0.3955 -0.7316  0.0900
 1458HK4     C722429   9.559  10.734   1.159 -0.0300  0.3687  0.0350
 1458HK4     O222430   9.611  10.639   1.218 -0.1812 -0.0017 -0.4206
 1458HK4     C422431   9.560  10.748   1.012 -0.5082  0.2486  0.0183
 1458HK4     C322432   9.602  10.635   0.941 -0.2366  0.7197 -0.5802
 1458HK4     H322433   9.628  10.536   0.981  1.1798  1.9302  1.6201
 1458HK4     C222434   9.625  10.642   0.804 -0.2043 -0.1584 -0.6218
 1458HK4     H222435   9.654  10.551   0.750 -0.7942 -1.7076  1.5892
 1458HK4     C122436   9.604  10.766   0.745 -0.1226  0.0744 -0.1682
 1458HK4     H122437   9.656  10.768   0.648  1.4271 -4.8297  0.3930
 1458HK4     C622438   9.565  10.885   0.810 -0.4865 -0.0852 -0.0907
 1458HK4     C522439   9.555  10.874   0.949  0.3981  0.2824  0.0045
 1458HK4    C1022440   9.517  10.989   1.035 -0.1732  0.0087  0.1200
 1458HK4     O122441   9.594  11.084   1.029 -0.1824  0.0275  0.3161
 1458HK4    C1622442   9.491  10.988   0.735 -0.3491  0.0834  0.0102
 1458HK4    C1522443   9.413  10.945   0.626 -0.1707 -0.4684  0.0987
 1458HK4     H722444   9.371  10.844   0.618 -0.5796 -0.1912 -1.3844
 1458HK4    C2022445   9.348  11.040   0.548  0.6811 -0.2579 -0.3731
 1458HK4     H922446   9.281  11.008   0.468 -0.8202  2.1004 -0.1049
 1458HK4    C1922447   9.365  11.177   0.561 -0.0128 -0.2050 -0.0322
 1458HK4    C1822448   9.462  11.220   0.660  0.2206  0.0026 -0.3471
 1458HK4    C1722449   9.526  11.123   0.736  0.1121 -0.0275 -0.2969
 1458HK4     H822450   9.631  11.139   0.761 -0.1196  0.8604  0.1185
 1458HK4     N122451   9.473   0.112   0.660  0.4413 -0.0152 -0.4286
 1458HK4    C2122452   9.389   0.164   0.559 -0.0012  0.0829 -0.0145
 1458HK4    C2222453   9.322   0.052   0.496 -0.4248 -0.0100  0.5940
 1458HK4    C2622454   9.229   0.075   0.396  0.4669  0.1746 -0.2031
 1458HK4    H1322455   9.199  11.241   0.330  0.0400 -0.6252  0.9776
 1458HK4    C2522456   9.207   0.206   0.356 -0.0176  0.3862  0.7550
 1458HK4    H1222457   9.142   0.229   0.271 -0.2130 -1.1867  0.4662
 1458HK4    C2422458   9.273   0.315   0.412 -0.1119  0.7109  0.2352
 1458HK4    H1122459   9.246   0.420   0.393 -0.5791  0.6099  0.3191
 1458HK4    C2322460   9.359   0.294   0.519 -0.1676  0.0987  0.1653
 1458HK4    H1022461   9.397   0.373   0.585  2.1889 -0.0683 -0.9500
 1458HK4    C3922462   9.540   0.178   0.763  0.1919 -0.3153 -0.0687
 1458HK4    C4122463   9.586   0.311   0.748 -0.2326 -0.1850 -0.2323
 1458HK4    H2122464   9.596   0.356   0.648  4.9941  0.6434  0.4857
 1458HK4    C4222465   9.625   0.388   0.857 -0.1228 -0.3910 -0.1245
 1458HK4    H2222466   9.662   0.491   0.844 -0.8569 -0.3208 -1.8309
 1458HK4    C4322467   9.624   0.340   0.988  0.0758  0.3423  0.1484
 1458HK4    H2322468   9.670   0.395   1.070 -2.2971  3.2559 -0.3961
 1458HK4    C4422469   9.582   0.209   1.005  0.5075  0.1839  0.0113
 1458HK4    H2422470   9.595   0.162   1.103 -1.0266  0.8912  0.5696
 1458HK4    C4522471   9.544   0.132   0.896  0.6210  0.0662  0.0554
 1458HK4    H2522472   9.494   0.035   0.915 -0.8598  0.9368  0.6300
 1459HK4    H2822473   3.060   5.339  10.911 -1.3182  0.3243  1.6088
 1459HK4    C4822474   3.156   5.332  10.961 -0.4854 -0.2110 -0.0234
 1459HK4    C4722475   3.202   5.206  11.001  0.7440  0.0324 -0.6382
 1459HK4    H2722476   3.180   5.120  10.936 -0.1681 -0.3724  0.1841
 1459HK4    C4622477   3.294   5.201  11.105 -0.2312  0.1481  0.2459
 1459HK4    H2622478   3.330   5.099  11.126 -0.3893 -0.4612 -2.2838
 1459HK4    C4022479   3.338   5.314  11.177 -0.1027  0.0365  0.3409
 1459HK4    C5022480   3.282   5.437  11.139 -0.0220 -0.0854 -0.1742
 1459HK4    H3022481   3.315   5.527  11.194 -0.5407  0.3552 -0.5802
 1459HK4    C4922482   3.203   5.446  11.025  0.2238 -0.3140 -0.3608
 1459HK4    H2922483   3.158   5.544  11.004  0.0311 -0.6959 -1.7700
 1459HK4     N222484   3.403   5.303   0.053  0.2377  0.5844  0.2137
 1459HK4    C3022485   3.402   5.182   0.125 -0.2806  0.3893 -0.1203
 1459HK4    C2922486   3.304   5.083   0.135  0.2613 -0.2048 -0.6525
 1459HK4    H1522487   3.214   5.079   0.074  0.7547 -1.0009 -1.3476
 1459HK4    C2822488   3.324   4.977   0.223 -0.9038  0.3509  0.2958
 1459HK4    C2722489   3.448   4.962   0.288 -0.5948  0.3325 -0.2976
 1459HK4    H1422490   3.470   4.871   0.345  0.8471  1.9343  1.7630
 1459HK4    C3222491   3.551   5.055   0.276 -0.2475 -0.0472 -0.2408
 1459HK4    H1622492   3.643   5.059   0.335  0.2304  0.9637 -1.0459
 1459HK4    C3122493   3.526   5.167   0.198 -0.1169 -0.2101 -0.5184
 1459HK4    C3422494   3.606   5.283   0.168 -0.0603 -0.2208 -0.4066
 1459HK4    C3322495   3.525   5.368   0.083  0.2076  0.6526  0.1904
 1459HK4    C3522496   3.581   5.486   0.037 -0.1442  0.7338 -0.0359
 1459HK4    H1722497   3.528   5.557  11.222  0.3571 -0.2578 -1.5989
 1459HK4    C3622498   3.714   5.515   0.065  0.0587  0.0499 -0.2920
 1459HK4    H1822499   3.767   5.593   0.009  2.3295 -0.6086  0.8609
 1459HK4    C3722500   3.791   5.436   0.151 -0.0442  0.0147 -0.2337
 1459HK4    H1922501   3.890   5.467   0.182 -1.3213  2.7747  1.2644
 1459HK4    C3822502   3.735   5.321   0.205 -0.2842  0.2124 -0.0536
 1459HK4    H2022503   3.789   5.250   0.267  0.8661  2.6287  1.7708
 1459HK4    C1422504   3.203   4.906   0.267 -0.5665 -0.2594  0.2474
 1459HK4     C922505   3.184   4.850   0.393 -0.7973 -0.1699  0.2533
 1459HK4     C822506   3.106   4.735   0.418 -1.0551  0.0906  0.6589
 1459HK4    C1122507   3.042   4.679   0.309 -0.4744  0.3386  0.1850
 1459HK4     H422508   2.965   4.603   0.330  0.7193 -1.6803 -2.4272
 1459HK4    C1222509   3.062   4.728   0.180  0.3127 -0.2121  0.0955
 1459HK4     H522510   2.992   4.703   0.098  1.0061  0.7306 -0.7911
 1459HK4    C1322511   3.139   4.841   0.159 -0.2086  0.0920 -0.1821
 1459HK4     H622512   3.157   4.879   0.058  2.3330  2.0054  0.9457
 1459HK4     C722513   3.108   4.660   0.546 -0.1336 -0.2310  0.4667
 1459HK4     O222514   3.057   4.548   0.552  0.8684 -0.6893  0.3874
 1459HK4     C422515   3.176   4.727   0.658  0.1417 -0.0451  0.1869
 1459HK4     C322516   3.178   4.656   0.778 -0.1592  0.1220  0.2911
 1459HK4     H322517   3.101   4.580   0.799 -1.6366  1.3574 -0.5239
 1459HK4     C222518   3.274   4.687   0.873 -0.1944 -0.3132  0.4666
 1459HK4     H222519   3.266   4.640   0.972  0.6890  0.1224  0.7458
 1459HK4     C122520   3.362   4.791   0.846 -0.4556 -0.1666  0.1819
 1459HK4     H122521   3.434   4.811   0.926  0.4661  1.6137 -1.0789
 1459HK4     C622522   3.357   4.873   0.732 -0.4898 -0.4683 -0.0336
 1459HK4     C522523   3.258   4.840   0.638 -0.1685  0.0476 -0.5520
 1459HK4    C1022524   3.242   4.919   0.512  0.2758  0.2292 -0.4959
 1459HK4     O122525   3.222   5.040   0.517 -0.0590  0.1615 -0.2124
 1459HK4    C1622526   3.488   4.925   0.692 -0.6693 -0.0176 -0.0404
 1459HK4    C1522527   3.608   4.852   0.705 -0.4586  0.3285 -0.0414
 1459HK4     H722528   3.604   4.747   0.740  0.7571  0.3104  0.0938
 1459HK4    C2022529   3.732   4.914   0.696 -0.4833  0.4134  0.1925
 1459HK4     H922530   3.820   4.850   0.702 -1.0371 -0.5154 -1.3924
 1459HK4    C1922531   3.742   5.051   0.675  0.3244  0.2646 -0.4443
 1459HK4    C1822532   3.619   5.127   0.657  0.0792  0.1306  0.6593
 1459HK4    C1722533   3.497   5.061   0.666  0.1293 -0.0268  0.1526
 1459HK4     H822534   3.403   5.116   0.667 -0.5139 -0.9735 -2.3561
 1459HK4     N122535   3.644   5.264   0.641  0.2907 -0.0138 -0.2899
 1459HK4    C2122536   3.782   5.277   0.668  0.2048 -0.2706  0.2872
 1459HK4    C2222537   3.849   5.149   0.684  0.5303 -0.0547  0.6749
 1459HK4    C2622538   3.985   5.129   0.700  0.6014  0.1443  0.3293
 1459HK4    H1322539   4.026   5.028   0.697 -0.0556 -0.1161 -0.0438
 1459HK4    C2522540   4.069   5.239   0.715 -0.0114  0.7612 -0.6635
 1459HK4    H1222541   4.177   5.222   0.711 -0.0066  0.0633  1.4362
 1459HK4    C2422542   4.009   5.363   0.706  0.2211  0.8538 -0.9339
 1459HK4    H1122543   4.073   5.447   0.738  0.2821 -0.1524  1.6784
 1459HK4    C2322544   3.873   5.381   0.682  0.0498 -0.0082 -0.6028
 1459HK4    H1022545   3.837   5.483   0.697 -0.8747 -0.5481  0.9554
 1459HK4    C3922546   3.563   5.364   0.585 -0.4585 -0.3159  0.2516
 1459HK4    C4122547   3.601   5.499   0.596  0.1686 -0.4237 -0.4946
 1459HK4    H2122548   3.636   5.526   0.697  0.2170 -1.4220 -0.2403
 1459HK4    C4222549   3.562   5.596   0.505  0.7050 -0.0222 -0.2956
 1459HK4    H2222550   3.612   5.694   0.497  1.5938 -0.3473  1.2113
 1459HK4    C4322551   3.463   5.572   0.411 -0.2273  0.5830  0.5245
 1459HK4    H2322552   3.443   5.652   0.339 -0.4914 -0.2618 -0.3488
 1459HK4    C4422553   3.421   5.440   0.398 -0.0690  0.5479  0.3748
 1459HK4    H2422554   3.344   5.418   0.324  1.0458  1.8384 -1.2076
 1459HK4    C4522555   3.472   5.340   0.480 -0.0649  0.0916 -0.1848
 1459HK4    H2522556   3.470   5.235   0.447  0.7066  0.3434 -1.0468
 1460HK4    H2822557   4.464   3.612   4.571 -0.2844  0.0586 -1.0502
 1460HK4    C4822558   4.380   3.673   4.538 -0.2035  0.6934 -0.0963
 1460HK4    C4722559   4.392   3.736   4.415 -0.2909 -0.3806 -0.6530
 1460HK4    H2722560   4.486   3.786   4.389 -1.0758  2.2166  1.3540
 1460HK4    C4622561   4.279   3.757   4.336 -0.4635  0.6618 -0.1311
 1460HK4    H2622562   4.291   3.830   4.254  0.5116  0.5047 -0.1304
 1460HK4    C4022563   4.149   3.715   4.372 -0.2049  0.0435  0.0900
 1460HK4    C5022564   4.139   3.660   4.502  0.5578 -0.2812  0.0150
 1460HK4    H3022565   4.042   3.619   4.532 -0.7021  1.7993 -1.1174
 1460HK4    C4922566   4.251   3.645   4.582  0.1963 -0.1359  0.5517
 1460HK4    H2922567   4.235   3.630   4.690  0.0082  1.8717  0.8209
 1460HK4     N222568   4.044   3.704   4.281  0.0642  0.7685 -0.3155
 1460HK4    C3022569   4.050   3.679   4.143 -0.4212  0.3816 -0.2689
 1460HK4    C2922570   4.159   3.648   4.061 -0.4746 -0.0490 -0.1812
 1460HK4    H1522571   4.252   3.633   4.116 -0.7341  2.5480  1.0716
 1460HK4    C2822572   4.153   3.632   3.923 -0.4445  0.6718 -0.2706
 1460HK4    C2722573   4.028   3.647   3.859 -0.5094 -0.1151 -0.3422
 1460HK4    H1422574   4.010   3.645   3.751  0.3730  3.1859 -0.6111
 1460HK4    C3222575   3.917   3.671   3.939 -0.4728 -0.0861 -0.2987
 1460HK4    H1622576   3.820   3.667   3.889 -0.2268  0.2887 -0.8126
 1460HK4    C3122577   3.921   3.684   4.077 -0.4180 -0.0252 -0.3057
 1460HK4    C3422578   3.828   3.727   4.180  0.1059  0.2754  0.0402
 1460HK4    C3322579   3.906   3.723   4.303  0.0069 -0.0828  0.0931
 1460HK4    C3522580   3.841   3.752   4.422 -0.4458  0.6747 -0.3324
 1460HK4    H1722581   3.891   3.789   4.512  0.6048 -1.2525 -0.1080
 1460HK4    C3622582   3.702   3.763   4.426 -0.5334 -0.4112 -0.1920
 1460HK4    H1822583   3.643   3.756   4.518 -2.0445 -0.4149 -1.1387
 1460HK4    C3722584   3.631   3.767   4.306 -0.6786 -0.7383 -0.1149
 1460HK4    H1922585   3.523   3.782   4.302 -0.7474 -0.8502  1.1035
 1460HK4    C3822586   3.693   3.758   4.182  0.0228 -0.0825  0.1869
 1460HK4    H2022587   3.634   3.787   4.095  0.9290 -1.5726 -0.9484
 1460HK4    C1422588   4.279   3.646   3.849 -0.0358  0.3667  0.3597
 1460HK4     C922589   4.281   3.694   3.718  0.3361  0.0339  0.2436
 1460HK4     C822590   4.357   3.628   3.619  0.0736 -0.3720  0.3142
 1460HK4    C1122591   4.460   3.545   3.663 -0.3802 -1.1138 -0.0130
 1460HK4     H422592   4.534   3.516   3.587 -0.1100  0.2051 -0.2598
 1460HK4    C1222593   4.475   3.511   3.797  0.1393  0.2699  0.2926
 1460HK4     H522594   4.517   3.412   3.819 -1.8557 -0.1218  2.5298
 1460HK4    C1322595   4.381   3.557   3.888  0.1420  0.4917  0.1819
 1460HK4     H622596   4.390   3.521   3.992 -2.0080  0.3982  0.3533
 1460HK4     C722597   4.350   3.677   3.480 -0.1516  0.1720  0.5171
 1460HK4     O222598   4.405   3.609   3.394 -0.4748  0.1906  0.2928
 1460HK4     C422599   4.275   3.801   3.448  0.4245  0.3962  0.0363
 1460HK4     C322600   4.263   3.832   3.313  0.1724 -0.2633 -0.0945
 1460HK4     H322601   4.290   3.762   3.232  1.0675  0.3274 -0.3070
 1460HK4     C222602   4.228   3.962   3.278  0.4068 -0.2355 -0.2281
 1460HK4     H222603   4.229   3.989   3.172 -0.3484  1.9276  0.2846
 1460HK4     C122604   4.204   4.055   3.379  0.4291 -0.0948 -0.3516
 1460HK4     H122605   4.205   4.161   3.352  0.5453  0.0052  0.0347
 1460HK4     C622606   4.206   4.022   3.517  0.6979  0.4042 -0.2368
 1460HK4     C522607   4.243   3.892   3.551 -0.1501  0.2236  0.0132
 1460HK4    C1022608   4.245   3.836   3.689  1.0104  0.1525 -0.0244
 1460HK4     O122609   4.219   3.908   3.785  0.6547  0.1067 -0.0854
 1460HK4    C1622610   4.144   4.128   3.598 -0.5600 -0.9379  0.5748
 1460HK4    C1522611   4.028   4.193   3.552  0.3049  0.5364  0.4259
 1460HK4     H722612   3.963   4.142   3.479 -1.7109  4.7120 -0.8664
 1460HK4    C2022613   3.970   4.303   3.614 -0.7637  0.0862  0.2579
 1460HK4     H922614   3.886   4.354   3.569  0.2423  1.3802 -0.2031
 1460HK4    C1922615   4.036   4.358   3.724  0.2839  0.1591 -0.4038
 1460HK4    C1822616   4.152   4.292   3.780  0.2724  0.3932 -0.1085
 1460HK4    C1722617   4.205   4.184   3.710  0.1453  0.6384 -0.5793
 1460HK4     H822618   4.311   4.167   3.725 -0.2783 -3.5745 -1.7013
 1460HK4     N122619   4.195   4.354   3.899 -0.2145  0.4186  0.0548
 1460HK4    C2122620   4.103   4.459   3.920 -0.6056  0.0353  0.2489
 1460HK4    C2222621   4.011   4.472   3.809 -0.3875 -0.3080  0.0268
 1460HK4    C2622622   3.934   4.587   3.793  0.1367 -0.0009 -0.3226
 1460HK4    H1322623   3.845   4.598   3.730 -0.3725  1.4247  0.6156
 1460HK4    C2522624   3.943   4.685   3.890  0.1241 -0.2366 -0.0855
 1460HK4    H1222625   3.929   4.785   3.848  2.1035 -0.1539 -0.5690
 1460HK4    C2422626   4.024   4.672   4.003  0.1767  0.1804 -0.0765
 1460HK4    H1122627   4.033   4.752   4.078  3.3996 -0.3874  0.1988
 1460HK4    C2322628   4.105   4.560   4.016 -0.0803  0.0341  0.2435
 1460HK4    H1022629   4.156   4.542   4.110 -3.6744  0.5123  2.3953
 1460HK4    C3922630   4.247   4.278   4.005 -0.4716  0.0810 -0.0597
 1460HK4    C4122631   4.309   4.339   4.116  0.1760  0.3479 -0.5670
 1460HK4    H2122632   4.327   4.447   4.121 -2.5154  0.7412  1.5550
 1460HK4    C4222633   4.326   4.276   4.239 -0.2554  0.0786 -0.6460
 1460HK4    H2222634   4.371   4.332   4.322 -0.4035 -0.3160 -0.2963
 1460HK4    C4322635   4.277   4.146   4.251 -0.2032  0.1419  0.2943
 1460HK4    H2322636   4.324   4.082   4.325  0.1735  0.3147  0.2018
 1460HK4    C4422637   4.211   4.080   4.147  0.0158  0.0741  0.1952
 1460HK4    H2422638   4.175   3.977   4.162  3.5075 -1.4028 -0.8916
 1460HK4    C4522639   4.197   4.148   4.027  0.0502 -0.0919  0.0959
 1460HK4    H2522640   4.146   4.091   3.948  0.4659 -1.9496  1.1378
 1461HK4    H2822641   0.575   9.781   0.942  0.4158  1.6832  1.4550
 1461HK4    C4822642   0.551   9.855   0.866 -0.2591 -0.1641 -0.1450
 1461HK4    C4722643   0.614   9.848   0.742  0.1040  0.1539  0.0236
 1461HK4    H2722644   0.698   9.779   0.725  0.1166  1.1644 -4.5266
 1461HK4    C4622645   0.558   9.910   0.631  0.4118 -0.0001 -0.2202
 1461HK4    H2622646   0.613   9.886   0.539 -0.4363 -1.3509 -0.3861
 1461HK4    C4022647   0.438   9.984   0.636  0.3544 -0.0968 -0.1140
 1461HK4    C5022648   0.380   9.991   0.764  0.7208  0.1047  0.0425
 1461HK4    H3022649   0.283  10.041   0.769  0.7040 -0.0430  1.4374
 1461HK4    C4922650   0.442   9.940   0.878  0.0198  0.1161  0.4284
 1461HK4    H2922651   0.414   9.972   0.979 -1.3503 -1.2220  0.4988
 1461HK4     N222652   0.401  10.071   0.532 -0.0109 -0.1288 -0.0095
 1461HK4    C3022653   0.267  10.104   0.505 -0.1190 -0.5781 -0.0244
 1461HK4    C2922654   0.153  10.024   0.496 -0.3060 -0.3670  0.4436
 1461HK4    H1522655   0.167   9.916   0.507  2.2848  0.1572  2.9152
 1461HK4    C2822656   0.034  10.073   0.443  0.0271 -0.0101  0.0207
 1461HK4    C2722657   0.026  10.210   0.411  0.2779  0.0889  0.3763
 1461HK4    H1422658  11.174  10.255   0.414  0.5157  0.5805  1.1764
 1461HK4    C3222659   0.138  10.291   0.419  0.2865  0.0892  0.2910
 1461HK4    H1622660   0.117  10.394   0.390  0.0479  0.5814  2.1579
 1461HK4    C3122661   0.259  10.244   0.468  0.4295 -0.7818 -0.9010
 1461HK4    C3422662   0.398  10.282   0.451  0.2883  0.1452  0.0331
 1461HK4    C3322663   0.486  10.180   0.504  0.1591 -0.5030 -0.9861
 1461HK4    C3522664   0.623  10.196   0.522  0.0586 -0.7250  0.0312
 1461HK4    H1722665   0.689  10.129   0.577  0.8891  1.0631  1.2615
 1461HK4    C3622666   0.681  10.314   0.478 -0.3287 -0.5039  0.1072
 1461HK4    H1822667   0.789  10.332   0.487  0.2910 -2.8492 -1.9714
 1461HK4    C3722668   0.601  10.407   0.414  0.2656 -0.1975 -0.1972
 1461HK4    H1922669   0.656  10.489   0.368 -1.1512  1.2436  0.6084
 1461HK4    C3822670   0.462  10.398   0.409  0.2198  0.2588  0.2399
 1461HK4    H2022671   0.397  10.477   0.370  1.3665  0.4321 -1.3455
 1461HK4    C1422672  11.202   9.978   0.365 -0.1495  0.0382  0.1418
 1461HK4     C922673  11.165   9.991   0.231 -0.3668  0.4170  0.2384
 1461HK4     C822674  11.052   9.925   0.179 -0.2562  0.5121 -0.1198
 1461HK4    C1122675  10.983   9.837   0.260  0.4147  0.2878  0.2050
 1461HK4     H422676  10.889   9.789   0.226  0.1289 -0.4184  1.8979
 1461HK4    C1222677  11.031   9.809   0.388 -0.0708 -0.2865  0.2643
 1461HK4     H522678  10.974   9.732   0.442 -0.4344  0.8534  1.5201
 1461HK4    C1322679  11.137   9.880   0.443  0.2304 -0.4273 -0.1286
 1461HK4     H622680  11.156   9.870   0.550  1.6085  0.9299 -0.2377
 1461HK4     C722681  10.982   9.984   0.062  0.3417  0.3235 -0.5725
 1461HK4     O222682  10.909   9.914  11.241 -0.1414  0.0393  0.2323
 1461HK4     C422683  11.025  10.120   0.022  0.3679  0.5081  0.0776
 1461HK4     C322684  10.938  10.189  11.187  0.2668 -0.0672 -0.2993
 1461HK4     H322685  10.832  10.162  11.190  0.4473 -0.8403 -0.8337
 1461HK4     C222686  10.983  10.303  11.121  0.0862  0.1452 -0.0532
 1461HK4     H222687  10.913  10.365  11.062  0.6951  0.3948 -0.5201
 1461HK4     C122688  11.113  10.347  11.144  0.2687 -0.1752 -0.4581
 1461HK4     H122689  11.149  10.436  11.090 -0.0877  0.9582  1.1141
 1461HK4     C622690  11.199  10.289  11.239  0.7783  0.1202 -0.7399
 1461HK4     C522691  11.155  10.169   0.048  0.6727  0.1449 -0.7749
 1461HK4    C1022692  11.236  10.087   0.142 -0.2811  0.3727  0.2574
 1461HK4     O122693   0.093  10.042   0.096 -0.5120 -0.0293  0.1254
 1461HK4    C1622694   0.045  10.383   0.055 -0.0490  0.0750  0.5557
 1461HK4    C1522695   0.002  10.517   0.067 -0.0200  0.1158  0.1893
 1461HK4     H722696  11.151  10.551   0.033  0.8834  0.9395 -1.6858
 1461HK4    C2022697   0.094  10.619   0.089 -0.2695  0.2616  0.5744
 1461HK4     H922698   0.059  10.722   0.098 -0.5538  0.0687  1.7551
 1461HK4    C1922699   0.227  10.586   0.109 -0.3813  0.0313  0.9489
 1461HK4    C1822700   0.274  10.449   0.101 -0.0348  0.1624  0.6366
 1461HK4    C1722701   0.178  10.351   0.080 -0.0814  0.1627  0.8429
 1461HK4     H822702   0.218  10.250   0.077  0.2538  0.3306 -0.5270
 1461HK4     N122703   0.414  10.442   0.091 -0.0495  0.6232  0.1002
 1461HK4    C2122704   0.458  10.576   0.093  0.5351  0.4421 -0.3018
 1461HK4    C2222705   0.347  10.668   0.112 -0.0851 -0.3611  0.0279
 1461HK4    C2622706   0.373  10.799   0.149  0.4673 -0.0864 -1.2992
 1461HK4    H1322707   0.295  10.873   0.171 -0.7876 -1.8655  0.4236
 1461HK4    C2522708   0.501  10.845   0.177  0.0825  0.0239  0.3335
 1461HK4    H1222709   0.520  10.947   0.213 -0.8912  0.0116  0.9085
 1461HK4    C2422710   0.607  10.758   0.161  0.3481  0.4084 -0.0157
 1461HK4    H1122711   0.707  10.799   0.179 -0.0134  0.6186  1.5626
 1461HK4    C2322712   0.584  10.627   0.118  0.5073  0.3930 -0.0501
 1461HK4    H1022713   0.670  10.584   0.068  0.4727  2.4169 -1.9443
 1461HK4    C3922714   0.479  10.332   0.032  0.3041  0.8456  0.0660
 1461HK4    C4122715   0.615  10.315   0.062  0.1327 -0.3814  0.2141
 1461HK4    H2122716   0.650  10.307   0.166  0.0654  0.0384  0.2694
 1461HK4    C4222717   0.703  10.274  11.210 -0.4466 -0.4199 -0.2814
 1461HK4    H2222718   0.809  10.268  11.240 -0.1535  0.7022 -1.0668
 1461HK4    C4322719   0.657  10.230  11.087  0.1406  0.0442 -0.6697
 1461HK4    H2322720   0.724  10.177  11.019 -1.8669 -1.1136 -1.8012
 1461HK4    C4422721   0.524  10.249  11.052  0.0035  0.4026  0.0534
 1461HK4    H2422722   0.488  10.216  10.954  1.1397 -0.7861  0.0317
 1461HK4    C4522723   0.438  10.298  11.150  0.0716 -0.1387  0.3873
 1461HK4    H2522724   0.334  10.320  11.120  1.3411  1.7414 -3.0146
 1462HK4    H2822725   7.585   5.741   7.090  0.3239 -1.6095  1.0753
 1462HK4    C4822726   7.674   5.698   7.045  0.0780 -0.3707 -0.6285
 1462HK4    C4722727   7.717   5.569   7.073  0.1897 -0.1575  0.1630
 1462HK4    H2722728   7.653   5.502   7.132  1.5107 -0.8025  0.9099
 1462HK4    C4622729   7.841   5.528   7.024 -0.0140 -0.1872 -0.3335
 1462HK4    H2622730   7.882   5.435   7.067 -0.5550 -0.0437  0.5016
 1462HK4    C4022731   7.925   5.616   6.953 -0.3556 -0.0207 -0.5331
 1462HK4    C5022732   7.882   5.749   6.935  0.5549  0.3914  0.2981
 1462HK4    H3022733   7.933   5.821   6.870  1.6537 -1.0941 -0.5070
 1462HK4    C4922734   7.756   5.788   6.978  0.3282 -0.0842  0.0643
 1462HK4    H2922735   7.714   5.886   6.951 -0.3976 -0.6316 -0.8283
 1462HK4     N222736   8.061   5.583   6.945 -0.1771  0.4063  0.6024
 1462HK4    C3022737   8.141   5.494   7.019 -0.4034 -0.0580  0.2848
 1462HK4    C2922738   8.127   5.468   7.155  0.0263 -0.2145  0.2998
 1462HK4    H1522739   8.039   5.503   7.209 -0.5453 -3.7380  1.7419
 1462HK4    C2822740   8.227   5.393   7.216 -0.1660 -0.4256  0.3511
 1462HK4    C2722741   8.343   5.355   7.146  0.3029  1.1347  0.2510
 1462HK4    H1422742   8.424   5.309   7.204 -1.6070 -2.5980  0.1488
 1462HK4    C3222743   8.359   5.376   7.009  0.0699  0.5510  0.1295
 1462HK4    H1622744   8.461   5.374   6.969  0.2583 -0.8463  0.6569
 1462HK4    C3122745   8.257   5.445   6.946 -0.1494  0.4350  0.3558
 1462HK4    C3422746   8.248   5.510   6.817 -0.4903  0.1891  0.2541
 1462HK4    C3322747   8.136   5.600   6.827 -0.3174  0.3780  0.5113
 1462HK4    C3522748   8.130   5.689   6.720  0.3541 -0.0301  0.1275
 1462HK4    H1722749   8.048   5.761   6.716  1.0724  0.8986  1.6327
 1462HK4    C3622750   8.218   5.684   6.613 -0.0766  0.6684 -0.2706
 1462HK4    H1822751   8.197   5.742   6.523  2.2002 -0.0631 -1.3106
 1462HK4    C3722752   8.319   5.589   6.604 -0.1281  0.5489  0.3403
 1462HK4    H1922753   8.381   5.572   6.516  0.2771 -1.2125  0.9311
 1462HK4    C3822754   8.332   5.496   6.707 -0.1401  0.6780  0.4578
 1462HK4    H2022755   8.392   5.407   6.685  0.2971  1.0762  0.0171
 1462HK4    C1422756   8.221   5.380   7.363 -0.3446  0.6060  0.4353
 1462HK4     C922757   8.330   5.396   7.449 -0.1782  0.4681  0.2539
 1462HK4     C822758   8.329   5.341   7.579  0.5232 -0.2126 -0.0286
 1462HK4    C1122759   8.217   5.271   7.623  0.1699  0.2213 -0.2197
 1462HK4     H422760   8.225   5.216   7.718 -0.7421  1.6641  0.7006
 1462HK4    C1222761   8.107   5.249   7.542 -0.0559  0.1849  0.0987
 1462HK4     H522762   8.024   5.191   7.584 -1.0000  1.1181 -0.4235
 1462HK4    C1322763   8.113   5.306   7.415 -0.3782  0.5067  0.2273
 1462HK4     H622764   8.042   5.268   7.340  1.7220 -0.6859 -1.2100
 1462HK4     C722765   8.432   5.382   7.677  0.3739 -0.3945  0.2044
 1462HK4     O222766   8.424   5.352   7.796  0.0665 -0.4305  0.1763
 1462HK4     C422767   8.551   5.456   7.631 -0.2946  0.4271 -0.2200
 1462HK4     C322768   8.645   5.508   7.720  0.1934 -0.0098 -0.4773
 1462HK4     H322769   8.653   5.476   7.825  0.9042  1.0673 -0.2002
 1462HK4     C222770   8.749   5.588   7.675  0.9595 -0.6848  0.0727
 1462HK4     H222771   8.807   5.651   7.745 -0.1049  0.0920  0.2711
 1462HK4     C122772   8.763   5.600   7.537 -0.2093  0.4885  0.0468
 1462HK4     H122773   8.814   5.693   7.508 -2.1993  1.5925  0.0029
 1462HK4     C622774   8.686   5.533   7.440  0.5477 -0.5435  0.1555
 1462HK4     C522775   8.568   5.480   7.493 -0.1347  0.6563 -0.1610
 1462HK4    C1022776   8.446   5.478   7.406  0.1948 -0.5015 -0.6138
 1462HK4     O122777   8.416   5.584   7.350  0.0008 -0.1459  0.1520
 1462HK4    C1622778   8.754   5.487   7.318 -0.0408 -0.3164 -0.2579
 1462HK4    C1522779   8.677   5.436   7.211  0.1156  0.1469 -0.5914
 1462HK4     H722780   8.584   5.490   7.185  1.2219  0.7765 -3.3130
 1462HK4    C2022781   8.716   5.332   7.128  0.0404  0.4723 -1.0349
 1462HK4     H922782   8.645   5.274   7.070 -0.7228 -0.3566  0.7065
 1462HK4    C1922783   8.843   5.276   7.135 -0.0829  0.3141 -0.0001
 1462HK4    C1822784   8.929   5.330   7.238  0.0328 -0.2551  0.2049
 1462HK4    C1722785   8.880   5.430   7.322  0.1088  0.0196 -0.0778
 1462HK4     H822786   8.953   5.473   7.391 -0.3532 -0.8929  0.9968
 1462HK4     N122787   9.039   5.245   7.263  0.0749 -0.3091 -0.1647
 1462HK4    C2122788   9.024   5.139   7.172  0.3185 -0.1236 -0.4249
 1462HK4    C2222789   8.903   5.151   7.092 -0.1237  0.1957  0.2827
 1462HK4    C2622790   8.858   5.049   7.009 -0.1558 -0.0161  0.5642
 1462HK4    H1322791   8.791   5.069   6.925  1.7658 -0.0720 -1.0083
 1462HK4    C2522792   8.929   4.929   7.010 -0.4037 -0.1675 -0.1885
 1462HK4    H1222793   8.877   4.842   6.970 -0.3838  0.0122 -0.5995
 1462HK4    C2422794   9.046   4.913   7.083 -0.6739 -0.3701  0.2084
 1462HK4    H1122795   9.089   4.812   7.093  2.3563  0.6254 -2.1288
 1462HK4    C2322796   9.093   5.019   7.161  0.0175 -0.3089 -0.2860
 1462HK4    H1022797   9.196   5.009   7.194 -0.4698  1.7421  2.0102
 1462HK4    C3922798   9.164   5.284   7.313 -0.0542 -0.0167 -0.0625
 1462HK4    C4122799   9.248   5.183   7.366  0.1201  0.4516  0.5510
 1462HK4    H2122800   9.195   5.094   7.404 -0.4786  1.5991  2.4868
 1462HK4    C4222801   9.386   5.188   7.375  0.1676  0.0260  0.0419
 1462HK4    H2222802   9.447   5.125   7.442  2.2814  0.5414 -1.3305
 1462HK4    C4322803   9.442   5.303   7.320 -0.5011  0.2474 -0.1797
 1462HK4    H2322804   9.551   5.312   7.315 -0.2862 -1.7573  0.6943
 1462HK4    C4422805   9.364   5.406   7.268 -0.4161  0.1000 -0.5958
 1462HK4    H2422806   9.409   5.503   7.242  0.0710 -0.5560 -2.2744
 1462HK4    C4522807   9.226   5.397   7.255 -0.4964  0.3143  0.1096
 1462HK4    H2522808   9.172   5.451   7.177 -2.3897  0.1317  1.2446
 1463HK4    H2822809   2.428   7.657   3.930 -2.1737  2.0185 -2.1243
 1463HK4    C4822810   2.517   7.653   3.867 -0.1821  0.1500  0.6630
 1463HK4    C4722811   2.501   7.665   3.729 -0.3722  0.3467  0.7022
 1463HK4    H2722812   2.408   7.624   3.688  1.0679  1.6510 -4.0901
 1463HK4    C4622813   2.597   7.721   3.647 -0.1603 -0.2892  0.5117
 1463HK4    H2622814   2.577   7.736   3.540  0.7758 -1.6610  0.1275
 1463HK4    C4022815   2.722   7.758   3.702 -0.2325  0.7214  0.0081
 1463HK4    C5022816   2.747   7.731   3.838 -0.3070 -0.7284 -0.2682
 1463HK4    H3022817   2.846   7.729   3.886 -0.0710  0.9758 -0.6666
 1463HK4    C4922818   2.642   7.686   3.918  0.0120 -0.2377  0.4343
 1463HK4    H2922819   2.660   7.661   4.023  1.4479 -1.2878 -0.0436
 1463HK4     N222820   2.827   7.816   3.630  0.8333 -0.6323  0.4532
 1463HK4    C3022821   2.846   7.798   3.491 -0.4812  0.4859  0.1143
 1463HK4    C2922822   2.818   7.686   3.415  0.7041  0.3532 -0.1308
 1463HK4    H1522823   2.760   7.605   3.460  1.4199 -0.5447 -0.7866
 1463HK4    C2822824   2.871   7.660   3.289  0.0065  0.1441 -0.3822
 1463HK4    C2722825   2.949   7.762   3.231  0.0441  0.2855 -0.0781
 1463HK4    H1422826   2.982   7.755   3.127 -0.2134  1.2625 -0.2332
 1463HK4    C3222827   2.979   7.874   3.308  0.1215  0.5286 -0.4638
 1463HK4    H1622828   3.057   7.936   3.264  0.3758  2.2785  2.3462
 1463HK4    C3122829   2.932   7.901   3.436  0.3290 -0.3535 -0.1989
 1463HK4    C3422830   2.961   7.990   3.546 -0.4870  0.1665 -0.4030
 1463HK4    C3322831   2.890   7.938   3.661  0.5384 -0.3608 -0.0022
 1463HK4    C3522832   2.905   8.015   3.776 -0.1566  0.1231 -0.2290
 1463HK4    H1722833   2.836   8.001   3.860 -0.5423 -2.1537 -0.8744
 1463HK4    C3622834   2.994   8.120   3.788 -0.2639  0.1879  0.0264
 1463HK4    H1822835   3.000   8.172   3.885 -0.6688  0.1757  0.0575
 1463HK4    C3722836   3.052   8.175   3.675  0.3612 -0.0760  0.2201
 1463HK4    H1922837   3.103   8.271   3.679 -0.6429  0.4068  1.6265
 1463HK4    C3822838   3.033   8.109   3.554 -0.5224  0.1500  0.2374
 1463HK4    H2022839   3.080   8.146   3.463  0.5169  0.0483  0.7286
 1463HK4    C1422840   2.832   7.536   3.220  0.0998 -0.1577  0.1055
 1463HK4     C922841   2.910   7.481   3.117  0.2713 -0.0155  0.1596
 1463HK4     C822842   2.853   7.405   3.013 -0.4248  1.2220 -0.3743
 1463HK4    C1122843   2.718   7.373   3.025 -0.0574 -0.1763  0.0910
 1463HK4     H422844   2.666   7.319   2.945  1.2502 -1.1857 -0.0964
 1463HK4    C1222845   2.641   7.412   3.134  0.1476 -0.1072  0.2125
 1463HK4     H522846   2.546   7.359   3.149 -0.0257  0.0198 -0.4108
 1463HK4    C1322847   2.698   7.495   3.230  0.2005 -0.4088  0.4444
 1463HK4     H622848   2.628   7.547   3.297  0.3119  0.5563 -0.1827
 1463HK4     C722849   2.928   7.380   2.888 -0.0726  0.3463  0.0054
 1463HK4     O222850   2.901   7.284   2.817 -0.2176  0.2156  0.2384
 1463HK4     C422851   3.064   7.438   2.878 -0.0795  0.3527 -0.0434
 1463HK4     C322852   3.126   7.447   2.754  0.2286  0.5235  0.1229
 1463HK4     H322853   3.093   7.383   2.671 -0.4459 -0.9772  1.5299
 1463HK4     C222854   3.256   7.497   2.741  0.2818  0.3375 -0.0634
 1463HK4     H222855   3.308   7.494   2.645 -0.3572  0.2385 -0.4131
 1463HK4     C122856   3.325   7.545   2.852  0.9444 -0.2880 -0.2031
 1463HK4     H122857   3.429   7.579   2.846  0.4984  1.1872  0.2139
 1463HK4     C622858   3.260   7.547   2.977 -0.1391  0.6261 -0.7737
 1463HK4     C522859   3.134   7.489   2.989 -0.2692  1.0160 -0.2221
 1463HK4    C1022860   3.059   7.496   3.118  0.2232  0.4786  0.0985
 1463HK4     O122861   3.115   7.472   3.225  0.2395  0.0414 -0.0047
 1463HK4    C1622862   3.302   7.659   3.063  0.0565 -0.0465  0.0102
 1463HK4    C1522863   3.341   7.776   2.995 -0.0989 -0.2528 -0.4369
 1463HK4     H722864   3.284   7.804   2.905 -0.1469 -2.2487 -1.0447
 1463HK4    C2022865   3.432   7.869   3.043 -0.3938 -0.1533 -0.0683
 1463HK4     H922866   3.454   7.965   2.996 -0.1252 -1.1523 -2.0401
 1463HK4    C1922867   3.484   7.837   3.168  0.3471 -0.2059 -0.3857
 1463HK4    C1822868   3.432   7.730   3.251 -0.3567  0.1765 -0.3322
 1463HK4    C1722869   3.351   7.634   3.191 -0.3372 -0.1393  0.1455
 1463HK4     H822870   3.339   7.538   3.241  0.9618 -0.0763  0.6090
 1463HK4     N122871   3.495   7.724   3.377 -0.1308 -0.1029 -0.4586
 1463HK4    C2122872   3.608   7.808   3.364 -0.2533  0.1310 -0.0173
 1463HK4    C2222873   3.596   7.889   3.245 -0.2206  0.3098  0.1015
 1463HK4    C2622874   3.687   7.991   3.217  0.0466 -0.0814 -0.4638
 1463HK4    H1322875   3.690   8.040   3.120  1.3585  1.2692  0.2569
 1463HK4    C2522876   3.792   8.013   3.305 -0.8419  0.7008  0.4159
 1463HK4    H1222877   3.868   8.084   3.273 -0.7016 -0.4007 -1.7929
 1463HK4    C2422878   3.804   7.934   3.419 -0.3595  0.0598 -0.0798
 1463HK4    H1122879   3.897   7.952   3.475 -0.0894 -0.2376 -0.4315
 1463HK4    C2322880   3.710   7.837   3.453 -0.0587 -0.2458 -0.1170
 1463HK4    H1022881   3.704   7.793   3.553  0.8766 -2.4164 -0.9745
 1463HK4    C3922882   3.416   7.697   3.489  0.1303  0.5067 -0.1252
 1463HK4    C4122883   3.276   7.701   3.496  0.1400  0.4383  0.1241
 1463HK4    H2122884   3.217   7.748   3.416 -2.8781 -2.4702  0.5384
 1463HK4    C4222885   3.202   7.654   3.604 -0.3203 -0.4776 -0.5867
 1463HK4    H2222886   3.092   7.656   3.607 -0.3248  0.1050 -1.1070
 1463HK4    C4322887   3.267   7.609   3.719  0.4055  0.7044 -0.5243
 1463HK4    H2322888   3.214   7.585   3.811 -2.0859 -1.2598 -2.4094
 1463HK4    C4422889   3.406   7.606   3.722  0.3794  0.1232  0.4469
 1463HK4    H2422890   3.460   7.558   3.805  2.4461 -0.3803 -1.1508
 1463HK4    C4522891   3.474   7.644   3.607 -0.4667 -0.4290 -0.2461
 1463HK4    H2522892   3.583   7.640   3.597 -0.4040 -1.6291  0.8596
 1464HK4    H2822893   9.600   8.748   2.563  0.6653  0.8875 -1.8518
 1464HK4    C4822894   9.708   8.731   2.565  0.4962 -0.0339  0.0964
 1464HK4    C4722895   9.759   8.614   2.509 -0.4360 -0.3574 -0.0931
 1464HK4    H2722896   9.710   8.551   2.433  0.5786 -1.1775 -0.0828
 1464HK4    C4622897   9.888   8.581   2.548 -0.1646  0.6575 -0.1053
 1464HK4    H2622898   9.932   8.506   2.481 -0.4765  1.4695 -1.2362
 1464HK4    C4022899   9.965   8.648   2.645 -0.0574 -0.0873  0.3288
 1464HK4    C5022900   9.905   8.764   2.698  0.1395  0.2261 -0.1254
 1464HK4    H3022901   9.964   8.833   2.760  2.3690 -0.7991 -1.0692
 1464HK4    C4922902   9.778   8.805   2.659  0.4215  0.7618 -0.4743
 1464HK4    H2922903   9.734   8.895   2.705  0.7296  0.8467 -0.3492
 1464HK4     N222904  10.064   8.586   2.722  0.1648  0.3748  0.4209
 1464HK4    C3022905  10.076   8.448   2.749  0.1059  0.2988  0.0812
 1464HK4    C2922906   9.990   8.342   2.728  0.3823  0.1783 -0.4525
 1464HK4    H1522907   9.883   8.360   2.711  0.7419  2.9081  0.0120
 1464HK4    C2822908  10.023   8.208   2.750  0.4224  0.2368 -0.1585
 1464HK4    C2722909  10.153   8.186   2.799  0.3349  0.5340  0.2164
 1464HK4    H1422910  10.188   8.084   2.819 -0.9939 -0.0073 -0.1808
 1464HK4    C3222911  10.243   8.288   2.828  0.6357  0.0941  0.8281
 1464HK4    H1622912  10.344   8.255   2.856  0.6117  1.0612  2.0915
 1464HK4    C3122913  10.208   8.420   2.804 -0.1911 -0.1802  0.5514
 1464HK4    C3422914  10.277   8.547   2.804  0.2685 -0.4202 -0.7731
 1464HK4    C3322915  10.187   8.648   2.752  0.6147 -0.0154 -0.5847
 1464HK4    C3522916  10.221   8.782   2.759  0.1815  0.0872 -0.4201
 1464HK4    H1722917  10.154   8.864   2.736  1.5248  1.7845  1.4363
 1464HK4    C3622918  10.345   8.821   2.810  0.4112 -0.1068 -0.8347
 1464HK4    H1822919  10.390   8.917   2.781 -1.3645  1.1011  0.3399
 1464HK4    C3722920  10.432   8.723   2.857  0.0163 -0.1881 -0.2810
 1464HK4    H1922921  10.529   8.760   2.890  1.4336 -0.6862 -3.7074
 1464HK4    C3822922  10.401   8.588   2.853 -0.2696 -0.1464  0.3819
 1464HK4    H2022923  10.463   8.515   2.906 -0.7797 -0.9909 -0.1661
 1464HK4    C1422924   9.913   8.113   2.769  0.0931  0.5516 -0.4900
 1464HK4     C922925   9.901   8.010   2.863  0.0435  0.6550 -0.3810
 1464HK4     C822926   9.805   7.908   2.851  0.1636  0.4808  0.1467
 1464HK4    C1122927   9.723   7.909   2.739 -0.0989  0.2753  0.3343
 1464HK4     H422928   9.673   7.821   2.696  0.7379  0.1720 -0.4601
 1464HK4    C1222929   9.738   8.007   2.641 -0.3780  0.1197  0.1364
 1464HK4     H522930   9.689   7.999   2.542 -0.4786 -3.0754  0.4075
 1464HK4    C1322931   9.823   8.115   2.660 -0.6290  0.3265  0.0930
 1464HK4     H622932   9.796   8.207   2.606 -1.0392  0.5163  0.6233
 1464HK4     C722933   9.774   7.812   2.960  0.1775  0.2545 -0.0459
 1464HK4     O222934   9.675   7.740   2.962  0.0998  0.3603 -0.0291
 1464HK4     C422935   9.867   7.807   3.075 -0.2618  0.0533  0.2985
 1464HK4     C322936   9.852   7.718   3.181 -0.1261 -0.6825 -0.2976
 1464HK4     H322937   9.762   7.656   3.192  1.9595 -3.6994  0.2041
 1464HK4     C222938   9.945   7.713   3.284 -0.5385 -0.1774  0.1025
 1464HK4     H222939   9.942   7.648   3.373  4.6391 -1.3581 -0.4004
 1464HK4     C122940  10.061   7.790   3.279 -0.5336 -0.2136 -0.3483
 1464HK4     H122941  10.120   7.804   3.371 -1.3807 -2.0978  0.5021
 1464HK4     C622942  10.086   7.877   3.171 -0.5190  0.4604  0.1979
 1464HK4     C522943   9.979   7.893   3.082 -0.2724  0.1102 -0.1669
 1464HK4    C1022944   9.980   8.010   2.990 -1.3540  0.6598  0.5029
 1464HK4     O122945   9.997   8.116   3.049  0.0325  0.5379  0.3393
 1464HK4    C1622946  10.228   7.878   3.133 -0.4732 -0.0307  0.3484
 1464HK4    C1522947  10.313   7.772   3.172 -0.1126  0.2955  0.4589
 1464HK4     H722948  10.263   7.675   3.179 -1.0586  0.8289  1.1801
 1464HK4    C2022949  10.449   7.781   3.198 -0.0151 -0.1760  0.1114
 1464HK4     H922950  10.495   7.692   3.240 -1.7960 -1.0139  0.3442
 1464HK4    C1922951  10.503   7.909   3.197  0.0822 -0.2179  0.0731
 1464HK4    C1822952  10.420   8.020   3.155  0.1478  0.0892  0.7436
 1464HK4    C1722953  10.286   8.004   3.120  0.3873 -0.4561  0.0509
 1464HK4     H822954  10.234   8.084   3.068  0.8371 -0.8192 -0.9680
 1464HK4     N122955  10.491   8.141   3.173  0.0188  0.2272  0.3273
 1464HK4    C2122956  10.611   8.111   3.241  0.0148 -0.4518  0.0415
 1464HK4    C2222957  10.626   7.967   3.249  0.3222 -0.4358 -0.2506
 1464HK4    C2622958  10.736   7.913   3.315  0.5485  0.2438 -0.0722
 1464HK4    H1322959  10.744   7.804   3.319  1.4106  0.2788 -0.6851
 1464HK4    C2522960  10.827   7.993   3.382  0.3594 -0.4182  0.9749
 1464HK4    H1222961  10.909   7.952   3.442  1.1587  1.8190  1.4512
 1464HK4    C2422962  10.804   8.130   3.381 -0.6470 -0.5864 -0.2408
 1464HK4    H1122963  10.869   8.195   3.441  0.0331 -2.5658  1.2218
 1464HK4    C2322964  10.702   8.190   3.310 -0.7492  0.0714  0.4531
 1464HK4    H1022965  10.701   8.298   3.289  1.0703 -0.0339 -0.2250
 1464HK4    C3922966  10.444   8.270   3.146  0.1152  0.2209  0.1264
 1464HK4    C4122967  10.535   8.373   3.116  0.4400 -0.0711  0.1071
 1464HK4    H2122968  10.631   8.344   3.070 -0.5649 -1.7458 -0.9858
 1464HK4    C4222969  10.501   8.504   3.147 -0.2725 -0.4646  1.0169
 1464HK4    H2222970  10.575   8.585   3.135 -0.8454 -0.0598  0.2292
 1464HK4    C4322971  10.379   8.542   3.201 -0.1610  0.1779  0.8183
 1464HK4    H2322972  10.376   8.642   3.244  4.6718  1.4749 -1.4707
 1464HK4    C4422973  10.287   8.441   3.226 -0.0458 -0.0777  0.2130
 1464HK4    H2422974  10.195   8.468   3.280  0.3857  0.0089  0.9209
 1464HK4    C4522975  10.319   8.308   3.198  0.0146 -0.0361  0.0798
 1464HK4    H2522976  10.251   8.227   3.228 -0.5733  0.7199  0.8167
 1465HK4    H2822977   7.542   2.769   5.089 -2.4047  2.3922  1.1271
 1465HK4    C4822978   7.542   2.826   4.996 -0.1609  0.3913 -0.1523
 1465HK4    C4722979   7.519   2.759   4.876 -0.7330  0.5438 -0.1280
 1465HK4    H2722980   7.500   2.652   4.865  0.3584  0.2119  1.1651
 1465HK4    C4622981   7.520   2.838   4.761  0.2743 -0.2088 -0.6392
 1465HK4    H2622982   7.534   2.788   4.665  0.6217 -1.4073  0.0207
 1465HK4    C4022983   7.526   2.979   4.764  0.0585 -0.2078 -0.0926
 1465HK4    C5022984   7.533   3.039   4.891 -0.4129  0.2863 -0.2945
 1465HK4    H3022985   7.492   3.140   4.902  0.2894  0.6141 -0.6877
 1465HK4    C4922986   7.550   2.964   5.007  0.2873  0.3825 -0.3349
 1465HK4    H2922987   7.551   3.009   5.108 -1.2428 -2.3724  0.9734
 1465HK4     N222988   7.483   3.058   4.656  0.5950  0.2261  0.0110
 1465HK4    C3022989   7.390   3.017   4.558  0.4647 -0.3727  0.3812
 1465HK4    C2922990   7.310   2.903   4.559  0.1921 -0.1866 -0.0880
 1465HK4    H1522991   7.293   2.845   4.649 -1.8142  1.0977  0.3984
 1465HK4    C2822992   7.241   2.858   4.447  0.1470 -0.3159 -0.0090
 1465HK4    C2722993   7.248   2.942   4.334  0.8337 -0.1846  0.1273
 1465HK4    H1422994   7.196   2.910   4.242  1.8658 -2.2665  0.2415
 1465HK4    C3222995   7.325   3.058   4.329  0.2928  0.1783  0.2142
 1465HK4    H1622996   7.332   3.123   4.242  1.3783 -0.6827 -0.3549
 1465HK4    C3122997   7.397   3.100   4.440 -0.1753 -0.0048  0.5942
 1465HK4    C3422998   7.501   3.197   4.469  0.0341  0.0473 -0.3034
 1465HK4    C3322999   7.551   3.169   4.602  0.4628  0.0849 -0.4530
 1465HK4    C3523000   7.636   3.260   4.664 -0.5223  0.8074 -0.1367
 1465HK4    H1723001   7.665   3.245   4.768 -1.2511  2.0705  0.2555
 1465HK4    C3623002   7.677   3.370   4.590  0.0854  0.4052 -0.4015
 1465HK4    H1823003   7.731   3.447   4.647  0.9221 -1.0512  0.7945
 1465HK4    C3723004   7.634   3.399   4.461  0.2819  0.7570 -0.3899
 1465HK4    H1923005   7.671   3.484   4.405  0.6575  0.7909 -0.0933
 1465HK4    C3823006   7.543   3.312   4.402  0.1286  0.4041  0.3645
 1465HK4    H2023007   7.506   3.337   4.303 -2.3278  4.9412  2.2409
 1465HK4    C1423008   7.214   2.715   4.429  0.3616 -0.3586  0.0088
 1465HK4     C923009   7.224   2.647   4.306  0.1255 -0.0053 -0.2061
 1465HK4     C823010   7.138   2.540   4.276  0.0895 -0.0199 -0.0548
 1465HK4    C1123011   7.051   2.487   4.371 -0.0816 -0.1485 -0.2818
 1465HK4     H423012   6.989   2.398   4.354 -0.1272 -0.5024  1.6460
 1465HK4    C1223013   7.051   2.547   4.496  0.0147  0.3084 -0.4978
 1465HK4     H523014   6.971   2.526   4.568  0.7757  0.8520  0.5313
 1465HK4    C1323015   7.133   2.656   4.527 -0.4494  0.5498 -0.1130
 1465HK4     H623016   7.130   2.709   4.623 -0.6355  2.1195 -0.9681
 1465HK4     C723017   7.140   2.462   4.150  0.2913 -0.1276  0.0154
 1465HK4     O223018   7.060   2.373   4.125  0.4343 -0.3198  0.2514
 1465HK4     C423019   7.231   2.513   4.045  0.2192  0.0298  0.0262
 1465HK4     C323020   7.222   2.459   3.917  0.7063 -0.1983  0.0852
 1465HK4     H323021   7.176   2.361   3.899  1.6227 -0.4403 -0.9613
 1465HK4     C223022   7.276   2.526   3.808 -0.2953  0.4656 -0.0154
 1465HK4     H223023   7.279   2.471   3.713 -0.2629 -1.4280  1.0443
 1465HK4     C123024   7.343   2.647   3.825 -0.3759  0.5353 -0.2079
 1465HK4     H123025   7.391   2.688   3.735 -0.1963 -3.0135 -1.8007
 1465HK4     C623026   7.360   2.700   3.954  0.4257 -0.0137 -0.0884
 1465HK4     C523027   7.304   2.633   4.063 -0.4752  0.4938 -0.2353
 1465HK4    C1023028   7.326   2.681   4.202  0.1889 -0.0329 -0.1529
 1465HK4     O123029   7.439   2.698   4.248  0.0061 -0.3491  0.4235
 1465HK4    C1623030   7.412   2.838   3.957  0.3547  0.0103  0.0575
 1465HK4    C1523031   7.364   2.934   3.865 -0.1178  0.0202  0.3120
 1465HK4     H723032   7.277   2.903   3.806  0.3995  1.0600 -1.0139
 1465HK4    C2023033   7.411   3.064   3.851 -0.2311  0.0158 -0.1403
 1465HK4     H923034   7.380   3.126   3.767  0.4470  3.3424  1.9553
 1465HK4    C1923035   7.517   3.109   3.930 -0.8309  0.6159  0.3279
 1465HK4    C1823036   7.574   3.013   4.021 -0.1484 -0.1836 -0.9216
 1465HK4    C1723037   7.524   2.883   4.025  0.3982 -0.3689  0.2407
 1465HK4     H823038   7.583   2.804   4.071 -1.8137 -1.9487  0.4654
 1465HK4     N123039   7.687   3.071   4.082 -0.5870 -0.0664 -0.2119
 1465HK4    C2123040   7.686   3.207   4.043  0.0649 -0.0972 -0.3439
 1465HK4    C2223041   7.583   3.237   3.946  0.4267  0.1019 -0.6674
 1465HK4    C2623042   7.549   3.367   3.909 -0.4111  0.0844  0.0298
 1465HK4    H1323043   7.459   3.387   3.851  0.0255  0.7059 -0.4449
 1465HK4    C2523044   7.609   3.467   3.986 -0.5827 -0.1906  0.5265
 1465HK4    H1223045   7.592   3.571   3.958 -1.9257 -0.0086  1.9711
 1465HK4    C2423046   7.701   3.443   4.087 -0.3603  0.1801  0.4141
 1465HK4    H1123047   7.731   3.529   4.148  0.4666  0.7991 -0.8426
 1465HK4    C2323048   7.741   3.313   4.114 -0.6844  0.0098  0.0731
 1465HK4    H1023049   7.792   3.292   4.208 -1.6272 -0.2605  0.5362
 1465HK4    C3923050   7.751   3.026   4.199 -0.3828  0.0820 -0.2652
 1465HK4    C4123051   7.888   3.054   4.218 -0.2660 -0.5035 -0.2433
 1465HK4    H2123052   7.937   3.119   4.144 -0.7458  1.9451  1.5399
 1465HK4    C4223053   7.959   3.004   4.326  0.1554 -0.2638 -0.4077
 1465HK4    H2223054   8.059   3.042   4.352  0.4036 -0.7310 -0.6779
 1465HK4    C4323055   7.890   2.919   4.413  0.3326 -0.0454 -0.0551
 1465HK4    H2323056   7.935   2.889   4.507 -2.1138  0.9229  1.4831
 1465HK4    C4423057   7.754   2.891   4.402  0.2279  0.4820 -0.1478
 1465HK4    H2423058   7.707   2.826   4.477 -0.1968  0.2556 -0.6059
 1465HK4    C4523059   7.684   2.951   4.297 -0.1600  0.0757 -0.1216
 1465HK4    H2523060   7.574   2.950   4.295 -0.1910 -1.1242  1.0478
 1466HK4    H2823061  10.812   6.886   6.140 -1.0358 -1.2999 -2.9714
 1466HK4    C4823062  10.839   6.783   6.161  0.3262 -0.3548  0.2089
 1466HK4    C4723063  10.777   6.682   6.088 -0.2903 -0.1202  0.4060
 1466HK4    H2723064  10.710   6.704   6.004 -0.7468 -0.3726  0.7069
 1466HK4    C4623065  10.778   6.555   6.144  0.4859 -0.2664  0.0724
 1466HK4    H2623066  10.729   6.483   6.076 -1.7481  3.7421 -2.7505
 1466HK4    C4023067  10.829   6.518   6.270 -0.0931 -0.0164  0.3786
 1466HK4    C5023068  10.890   6.626   6.337 -0.1459  0.0708  0.2886
 1466HK4    H3023069  10.899   6.621   6.446 -1.2389 -0.2278  0.3668
 1466HK4    C4923070  10.893   6.756   6.286  0.2742  0.0773  0.3254
 1466HK4    H2923071  10.924   6.836   6.354  3.8699 -1.5172  0.6563
 1466HK4     N223072  10.793   6.400   6.337 -0.2569 -0.2039 -0.0436
 1466HK4    C3023073  10.672   6.333   6.312 -0.2218 -0.2415 -0.1069
 1466HK4    C2923074  10.541   6.379   6.301 -0.0768  0.1884 -0.0612
 1466HK4    H1523075  10.525   6.486   6.298 -1.2476 -0.0088 -0.9809
 1466HK4    C2823076  10.433   6.291   6.308  0.0871  0.0198  0.3762
 1466HK4    C2723077  10.459   6.153   6.316 -0.5086 -0.1083  0.1340
 1466HK4    H1423078  10.370   6.089   6.318 -0.7255  0.1781 -0.3198
 1466HK4    C3223079  10.588   6.100   6.319 -0.5179 -0.1366  0.1693
 1466HK4    H1623080  10.603   5.992   6.329  0.3478 -0.1380 -1.0951
 1466HK4    C3123081  10.693   6.190   6.330 -0.3920 -0.2560 -0.0318
 1466HK4    C3423082  10.829   6.172   6.375 -0.2512  0.2605 -0.2508
 1466HK4    C3323083  10.884   6.305   6.388  0.0151  0.1213  0.0795
 1466HK4    C3523084  11.006   6.331   6.450 -0.0145  0.3655  0.0362
 1466HK4    H1723085  11.050   6.430   6.453 -2.6705  1.5491  0.9854
 1466HK4    C3623086  11.074   6.223   6.506 -0.8574 -0.2595 -0.1202
 1466HK4    H1823087  11.169   6.245   6.557 -0.2056 -1.5902 -0.7363
 1466HK4    C3723088  11.029   6.093   6.491 -0.0091 -0.5598 -0.0470
 1466HK4    H1923089  11.094   6.007   6.511  1.4760  0.6738  0.4950
 1466HK4    C3823090  10.913   6.069   6.419 -0.2452  0.3794  0.0232
 1466HK4    H2023091  10.876   5.967   6.415 -0.5286  0.4526  0.7959
 1466HK4    C1423092  10.310   6.351   6.362 -0.1166 -0.1637  0.1334
 1466HK4     C923093  10.232   6.283   6.456 -0.1277 -0.3092  0.0192
 1466HK4     C823094  10.092   6.298   6.453 -0.0707  0.2487  0.0392
 1466HK4    C1123095  10.031   6.382   6.360 -0.0378  0.5145  0.2547
 1466HK4     H423096   9.923   6.398   6.367 -0.6828 -2.9955 -0.5787
 1466HK4    C1223097  10.109   6.453   6.270  0.0171 -0.5268 -0.5253
 1466HK4     H523098  10.065   6.530   6.205  1.8277  1.9766  1.1341
 1466HK4    C1323099  10.248   6.439   6.272  0.0731  0.0941  0.2558
 1466HK4     H623100  10.315   6.512   6.223 -0.0956  0.5062  0.6348
 1466HK4     C723101  10.014   6.222   6.553  0.1863 -0.4261 -0.2660
 1466HK4     O223102   9.894   6.203   6.532  0.1818 -0.3366 -0.3110
 1466HK4     C423103  10.073   6.132   6.655 -0.0280 -0.6172 -0.3098
 1466HK4     C323104   9.995   6.073   6.754 -0.2754  0.8528  0.3881
 1466HK4     H323105   9.890   6.100   6.767 -0.8684 -0.9046 -0.5051
 1466HK4     C223106  10.059   5.997   6.852 -0.2003  0.0852 -0.2443
 1466HK4     H223107  10.014   5.968   6.948 -1.7660  1.0823 -0.6483
 1466HK4     C123108  10.194   5.967   6.840 -0.1505  0.0407  0.4088
 1466HK4     H123109  10.240   5.897   6.911  1.1498  1.8083  1.3262
 1466HK4     C623110  10.276   6.022   6.739 -0.1604  0.1842  0.4779
 1466HK4     C523111  10.212   6.112   6.653  0.0556 -0.0613  0.0611
 1466HK4    C1023112  10.290   6.211   6.573 -0.1030  0.3691  0.4323
 1466HK4     O123113  10.391   6.260   6.624  0.5011 -0.3806 -0.0397
 1466HK4    C1623114  10.406   5.955   6.729 -0.0342  0.4472  0.3575
 1466HK4    C1523115  10.476   5.944   6.607 -0.1720  0.3291  0.2912
 1466HK4     H723116  10.415   5.953   6.516  1.1167 -0.5529 -0.6879
 1466HK4    C2023117  10.606   5.895   6.594 -0.2546  0.0586  0.4357
 1466HK4     H923118  10.662   5.915   6.502  0.8271 -0.9483  0.8673
 1466HK4    C1923119  10.674   5.863   6.711  0.4299  0.3282  0.1146
 1466HK4    C1823120  10.622   5.904   6.840  0.1471  0.6724 -0.1062
 1466HK4    C1723121  10.489   5.942   6.840 -0.0759 -0.1107  0.3236
 1466HK4     H823122  10.453   5.979   6.936  1.2352  0.0039  0.7763
 1466HK4     N123123  10.703   5.855   6.945  0.1277  0.2244 -0.3012
 1466HK4    C2123124  10.791   5.763   6.883  0.1059 -0.1807  0.2728
 1466HK4    C2223125  10.775   5.763   6.739  0.2609  0.1942  0.2556
 1466HK4    C2623126  10.840   5.665   6.665 -0.6360 -0.1571 -0.0580
 1466HK4    H1323127  10.805   5.667   6.562  0.0843 -3.8907 -0.4333
 1466HK4    C2523128  10.920   5.567   6.721  0.1166  0.2348 -0.4432
 1466HK4    H1223129  11.002   5.525   6.663  0.4561 -1.2788  1.0681
 1466HK4    C2423130  10.931   5.572   6.860  0.5741  0.3061 -0.4831
 1466HK4    H1123131  11.005   5.506   6.908 -0.9505  0.0307  1.4991
 1466HK4    C2323132  10.873   5.667   6.942  0.4841 -0.0845 -0.0915
 1466HK4    H1023133  10.895   5.656   7.048  0.7686 -1.7044 -0.3205
 1466HK4    C3923134  10.729   5.938   7.054  0.5846 -0.0937 -0.1695
 1466HK4    C4123135  10.791   5.889   7.171  0.5159 -0.3434 -0.2385
 1466HK4    H2123136  10.805   5.780   7.184  3.0249  0.0344  0.5332
 1466HK4    C4223137  10.845   5.979   7.262  0.1064 -0.1987 -0.1405
 1466HK4    H2223138  10.856   5.937   7.363  0.1401 -1.3330 -0.6150
 1466HK4    C4323139  10.843   6.117   7.243 -0.2521 -0.1439  0.2914
 1466HK4    H2323140  10.883   6.190   7.313  1.1988  1.2538 -1.9331
 1466HK4    C4423141  10.779   6.166   7.130 -0.8506 -0.0749  0.6585
 1466HK4    H2423142  10.782   6.274   7.107 -0.9496 -0.5052 -1.4698
 1466HK4    C4523143  10.721   6.078   7.040 -1.2195 -0.0807  0.9022
 1466HK4    H2523144  10.673   6.118   6.949 -0.9570  0.5883  1.0614
 1467HK4    H2823145   7.078   6.883   2.335  0.8314  1.2283 -1.9453
 1467HK4    C4823146   7.160   6.942   2.377  0.6232  0.1144  0.0991
 1467HK4    C4723147   7.171   6.970   2.513 -0.1506  0.1583  0.1562
 1467HK4    H2723148   7.104   6.917   2.582  1.2877 -2.0843 -0.1152
 1467HK4    C4623149   7.280   7.044   2.557  0.2813 -0.4278  0.0804
 1467HK4    H2623150   7.307   7.043   2.664  0.7864 -1.4173 -0.0485
 1467HK4    C4023151   7.376   7.087   2.464  0.0199  0.1117  0.0536
 1467HK4    C5023152   7.364   7.059   2.326  0.1462  0.3090  0.0029
 1467HK4    H3023153   7.442   7.099   2.259  1.0599  2.4194  2.2637
 1467HK4    C4923154   7.251   6.991   2.284  0.2081  0.3278 -0.1934
 1467HK4    H2923155   7.226   6.979   2.178  0.1050  1.4799 -0.3113
 1467HK4     N223156   7.467   7.186   2.503  0.1144 -0.0802  0.3249
 1467HK4    C3023157   7.431   7.291   2.590 -0.1492  0.6351 -0.6422
 1467HK4    C2923158   7.308   7.350   2.614 -0.4534 -0.1087 -0.3666
 1467HK4    H1523159   7.213   7.299   2.598 -0.1937 -1.2535  1.5549
 1467HK4    C2823160   7.304   7.469   2.688 -0.0110 -0.4830  0.2624
 1467HK4    C2723161   7.427   7.529   2.720 -0.0503  0.2507 -0.9502
 1467HK4    H1423162   7.435   7.637   2.739  0.9133 -0.0548  0.4825
 1467HK4    C3223163   7.550   7.468   2.698 -0.0531 -0.0645 -0.0930
 1467HK4    H1623164   7.645   7.514   2.726 -0.6560  0.0499  1.8132
 1467HK4    C3123165   7.558   7.343   2.638 -0.0105  0.0971 -0.4317
 1467HK4    C3423166   7.672   7.271   2.584  0.0560 -0.3195  0.2542
 1467HK4    C3323167   7.607   7.177   2.495  0.1007  0.5033 -0.6581
 1467HK4    C3523168   7.682   7.076   2.434  0.0691  0.2158 -0.2236
 1467HK4    H1723169   7.627   7.004   2.374 -0.4215 -1.4633  2.1499
 1467HK4    C3623170   7.818   7.071   2.459  0.0539  0.6062 -0.0499
 1467HK4    H1823171   7.889   7.017   2.394 -0.1881  1.8507 -1.3550
 1467HK4    C3723172   7.878   7.163   2.544  0.2108  0.1793  0.3106
 1467HK4    H1923173   7.986   7.155   2.559  0.5165 -0.5315 -2.0106
 1467HK4    C3823174   7.808   7.263   2.611  0.1391  0.3180  0.0314
 1467HK4    H2023175   7.852   7.332   2.683 -0.7356 -1.9790  2.8605
 1467HK4    C1423176   7.180   7.544   2.710  0.2272 -0.1344  0.4199
 1467HK4     C923177   7.164   7.681   2.733 -0.3144 -0.0740 -0.3291
 1467HK4     C823178   7.066   7.737   2.817 -0.3751 -0.2194 -0.3009
 1467HK4    C1123179   6.970   7.647   2.862 -0.3478 -0.3771 -0.5586
 1467HK4     H423180   6.892   7.683   2.931  0.2437 -1.8729  0.9423
 1467HK4    C1223181   6.977   7.510   2.836 -0.4644 -0.4738 -0.0935
 1467HK4     H523182   6.895   7.452   2.880 -2.0929  2.2884  0.6669
 1467HK4    C1323183   7.084   7.457   2.766 -0.5122  0.0377 -0.5611
 1467HK4     H623184   7.090   7.348   2.747  1.5247 -0.1840  1.0755
 1467HK4     C723185   7.064   7.879   2.858  0.2561 -0.4029  0.3635
 1467HK4     O223186   6.996   7.917   2.954  0.7385 -0.1648  0.6134
 1467HK4     C423187   7.156   7.968   2.783 -0.6242  0.0870 -0.1388
 1467HK4     C323188   7.168   8.101   2.821  1.0200 -0.2017  0.4006
 1467HK4     H323189   7.091   8.143   2.887 -0.2320 -0.6442 -0.7462
 1467HK4     C223190   7.257   8.193   2.766  0.1880  0.5477  0.2948
 1467HK4     H223191   7.284   8.295   2.797 -0.1214  1.1762 -1.4656
 1467HK4     C123192   7.328   8.148   2.656 -1.1390 -0.1493 -0.2846
 1467HK4     H123193   7.413   8.207   2.620  0.4648 -2.8195 -0.9906
 1467HK4     C623194   7.322   8.013   2.615  0.3924 -0.2578 -0.1672
 1467HK4     C523195   7.236   7.921   2.677  0.3770  0.2411  0.5498
 1467HK4    C1023196   7.239   7.776   2.646 -0.1912  0.3053  0.1894
 1467HK4     O123197   7.248   7.748   2.526 -0.1043 -0.0898  0.2853
 1467HK4    C1623198   7.439   7.972   2.536  0.2843 -0.2891 -0.3106
 1467HK4    C1523199   7.567   8.004   2.585  0.1776 -0.3487  0.0091
 1467HK4     H723200   7.564   8.011   2.695 -1.7984 -1.7770  0.0734
 1467HK4    C2023201   7.680   7.992   2.504  0.0329 -0.4622 -0.1742
 1467HK4     H923202   7.776   8.031   2.536  0.1594  0.8495 -2.0729
 1467HK4    C1923203   7.663   7.953   2.372 -0.5573 -0.1575 -0.1913
 1467HK4    C1823204   7.529   7.939   2.318 -0.6757  0.3266 -0.0275
 1467HK4    C1723205   7.419   7.940   2.402 -0.8427  0.1476 -0.2451
 1467HK4     H823206   7.320   7.930   2.357 -1.3235 -1.5205  1.1410
 1467HK4     N123207   7.535   7.909   2.180 -0.0796 -0.3223  0.1347
 1467HK4    C2123208   7.672   7.901   2.148 -0.0089 -0.0399  0.3539
 1467HK4    C2223209   7.755   7.919   2.265  0.1511  0.7327  0.1253
 1467HK4    C2623210   7.892   7.897   2.256  0.1758  1.0800 -0.3228
 1467HK4    H1323211   7.937   7.872   2.352  0.0921  2.3366  0.0530
 1467HK4    C2523212   7.956   7.877   2.134  0.0844 -0.2760 -0.1550
 1467HK4    H1223213   8.064   7.865   2.127 -0.2898 -2.3539 -3.1849
 1467HK4    C2423214   7.874   7.857   2.023 -0.0275  0.4338 -0.2010
 1467HK4    H1123215   7.915   7.845   1.922 -0.5392  2.7053 -0.7268
 1467HK4    C2323216   7.735   7.869   2.028 -0.0695 -0.2772  0.3857
 1467HK4    H1023217   7.673   7.831   1.946  2.3774 -0.3373 -1.4891
 1467HK4    C3923218   7.428   7.867   2.102  0.4836 -0.7053 -0.4361
 1467HK4    C4123219   7.434   7.900   1.965 -0.8562  0.1266 -0.3102
 1467HK4    H2123220   7.509   7.974   1.934 -1.5060  1.2503  0.7609
 1467HK4    C4223221   7.352   7.835   1.873  0.3999 -0.6635 -0.8891
 1467HK4    H2223222   7.363   7.853   1.765  1.2887  1.1988 -0.5063
 1467HK4    C4323223   7.252   7.752   1.921  0.4571 -0.3289 -0.1795
 1467HK4    H2323224   7.191   7.693   1.852  1.6630 -2.9857  0.9748
 1467HK4    C4423225   7.235   7.730   2.057  0.1009 -0.1109 -0.1850
 1467HK4    H2423226   7.169   7.646   2.085  0.3373 -1.0889 -2.4457
 1467HK4    C4523227   7.324   7.784   2.150 -0.0234  0.0707 -0.1725
 1467HK4    H2523228   7.315   7.753   2.255 -0.0183  2.2063  0.4634
 1468HK4    H2823229   9.699   9.064   8.851  3.9257  0.1045  0.4487
 1468HK4    C4823230   9.714   8.995   8.768  0.1694 -0.3036  0.0360
 1468HK4    C4723231   9.634   8.882   8.751  0.4481 -0.4815 -0.0772
 1468HK4    H2723232   9.569   8.848   8.833  1.8551  0.1484  1.3342
 1468HK4    C4623233   9.663   8.801   8.642 -0.2815  0.0125 -0.6458
 1468HK4    H2623234   9.611   8.704   8.640 -0.0942 -0.0777 -1.1568
 1468HK4    C4023235   9.771   8.819   8.554  0.0926  0.0567 -0.1776
 1468HK4    C5023236   9.856   8.927   8.587 -0.1013  0.1297  0.0921
 1468HK4    H3023237   9.941   8.947   8.520  0.0483 -1.6401 -0.2881
 1468HK4    C4923238   9.826   9.015   8.689  0.4920 -0.1698  0.5255
 1468HK4    H2923239   9.880   9.107   8.717  2.2067 -1.9158  3.2158
 1468HK4     N223240   9.762   8.764   8.425 -0.0679 -0.3323 -0.0033
 1468HK4    C3023241   9.643   8.725   8.362 -0.4115 -0.3005  0.6249
 1468HK4    C2923242   9.515   8.779   8.374 -0.3162  0.2572 -0.7263
 1468HK4    H1523243   9.491   8.860   8.442  1.5897  0.0500  0.2393
 1468HK4    C2823244   9.407   8.732   8.300 -0.7686 -0.1278  0.1678
 1468HK4    C2723245   9.425   8.624   8.211 -0.0350 -0.2436  0.4530
 1468HK4    H1423246   9.345   8.607   8.138 -0.9015 -0.0504  1.3473
 1468HK4    C3223247   9.553   8.571   8.194 -0.0413 -0.2881  0.5235
 1468HK4    H1623248   9.567   8.487   8.127 -2.3289 -1.0229  0.9337
 1468HK4    C3123249   9.663   8.621   8.263 -0.1362 -0.3185  0.6940
 1468HK4    C3423250   9.806   8.600   8.258 -0.1098  0.0563 -0.2858
 1468HK4    C3323251   9.861   8.695   8.352 -0.0338  0.1276 -0.4012
 1468HK4    C3523252   9.998   8.698   8.374 -0.1298  0.1955  0.1857
 1468HK4    H1723253  10.045   8.775   8.435  1.8815 -0.7428 -0.1124
 1468HK4    C3623254  10.077   8.604   8.308  0.0082  0.3913  0.0686
 1468HK4    H1823255  10.186   8.614   8.324 -0.3437  1.4480  1.9424
 1468HK4    C3723256  10.020   8.511   8.222  0.1725 -0.3982  0.8022
 1468HK4    H1923257  10.086   8.436   8.180 -2.5575 -1.6030 -1.4846
 1468HK4    C3823258   9.884   8.504   8.194  0.1760 -0.4405  0.7972
 1468HK4    H2023259   9.840   8.441   8.117 -0.4905  1.9542 -0.8453
 1468HK4    C1423260   9.274   8.793   8.313 -0.7679 -0.1961  0.5096
 1468HK4     C923261   9.151   8.726   8.308 -0.7347 -0.2410  0.1680
 1468HK4     C823262   9.035   8.793   8.263 -0.5550 -0.0074  0.0450
 1468HK4    C1123263   9.053   8.925   8.226 -0.3651 -0.0462 -0.0007
 1468HK4     H423264   8.969   8.994   8.212  0.4482  1.2472  1.3227
 1468HK4    C1223265   9.173   8.995   8.237 -0.3222 -0.1753  0.3401
 1468HK4     H523266   9.177   9.101   8.207 -0.6054  0.4597  2.4735
 1468HK4    C1323267   9.286   8.931   8.286 -0.5265 -0.1547  0.8402
 1468HK4     H623268   9.361   9.002   8.322 -1.1355  1.5165 -1.0711
 1468HK4     C723269   8.905   8.725   8.244 -0.3662 -0.4264  0.2042
 1468HK4     O223270   8.809   8.789   8.201  0.1186 -0.0215 -0.2936
 1468HK4     C423271   8.890   8.585   8.289  0.0064 -0.4981  0.1001
 1468HK4     C323272   8.767   8.530   8.258 -0.1099  0.0767 -0.4680
 1468HK4     H323273   8.683   8.594   8.228  0.0933  0.1128 -0.9624
 1468HK4     C223274   8.748   8.393   8.274  0.5986  0.0557  0.1893
 1468HK4     H223275   8.654   8.345   8.245  0.8071 -1.4456  1.8897
 1468HK4     C123276   8.857   8.317   8.315  0.3723 -0.5223 -0.2708
 1468HK4     H123277   8.846   8.216   8.358  0.0700 -0.1263  0.6065
 1468HK4     C623278   8.986   8.371   8.333  0.2072 -0.1341 -0.2458
 1468HK4     C523279   9.004   8.510   8.325  0.2584 -0.1162  0.1077
 1468HK4    C1023280   9.132   8.584   8.347  0.2845 -0.2881  0.5288
 1468HK4     O123281   9.199   8.547   8.443  0.1967 -0.0058  0.6970
 1468HK4    C1623282   9.092   8.277   8.296  0.4014  0.0433 -0.1326
 1468HK4    C1523283   9.088   8.185   8.189 -0.0027 -0.3660  0.2316
 1468HK4     H723284   8.998   8.177   8.126 -0.3611  0.9404  0.5494
 1468HK4    C2023285   9.176   8.078   8.176  0.4562  0.0596 -0.2011
 1468HK4     H923286   9.157   8.001   8.101 -0.7912 -2.1324  2.3130
 1468HK4    C1923287   9.273   8.056   8.273  0.6437  0.2347 -0.3523
 1468HK4    C1823288   9.280   8.147   8.385  0.0647  0.0567 -0.1654
 1468HK4    C1723289   9.190   8.253   8.392  0.0529  0.0233  0.2183
 1468HK4     H823290   9.191   8.314   8.482  0.6100 -2.2207  1.7734
 1468HK4     N123291   9.380   8.105   8.475  0.1069  0.4734 -0.0173
 1468HK4    C2123292   9.434   7.985   8.426 -0.1316  0.4251 -0.1645
 1468HK4    C2223293   9.368   7.951   8.302  0.2232 -0.1100 -0.2098
 1468HK4    C2623294   9.392   7.832   8.234  0.1686 -0.1525 -0.1533
 1468HK4    H1323295   9.330   7.808   8.147  1.0515  0.1737 -0.8708
 1468HK4    C2523296   9.497   7.752   8.276  0.2653  0.0074 -0.0991
 1468HK4    H1223297   9.532   7.678   8.204 -2.1964 -0.8315 -0.4447
 1468HK4    C2423298   9.565   7.792   8.391 -0.1964  0.4404  0.0253
 1468HK4    H1123299   9.661   7.745   8.415  0.6852  1.7749 -0.8948
 1468HK4    C2323300   9.538   7.903   8.470 -0.3573  0.3105  0.1518
 1468HK4    H1023301   9.600   7.932   8.555 -0.2664 -1.1927  0.6200
 1468HK4    C3923302   9.453   8.195   8.554  0.4399  0.5701 -0.4380
 1468HK4    C4123303   9.525   8.147   8.665  0.2045  0.6674 -0.2432
 1468HK4    H2123304   9.503   8.049   8.711  1.1948  0.5156 -0.0731
 1468HK4    C4223305   9.601   8.238   8.736 -0.4612  0.0728  1.2353
 1468HK4    H2223306   9.648   8.201   8.829  0.4238 -3.1915 -0.4466
 1468HK4    C4323307   9.614   8.371   8.696  0.6695 -0.5045 -0.3518
 1468HK4    H2323308   9.675   8.449   8.742  2.7204 -2.2366 -0.0036
 1468HK4    C4423309   9.550   8.416   8.582  0.8478  0.1107 -0.2063
 1468HK4    H2423310   9.562   8.522   8.554  0.1066  1.0207  2.7519
 1468HK4    C4523311   9.470   8.328   8.510  0.3791  0.6234 -0.3107
 1468HK4    H2523312   9.415   8.373   8.426  2.6973  2.0121 -1.1412
 1469HK4    H2823313   5.584   4.236   7.256  0.0859  0.4775  0.7321
 1469HK4    C4823314   5.687   4.262   7.235 -0.0285  0.2966 -0.0544
 1469HK4    C4723315   5.729   4.304   7.109 -0.2594 -0.7632 -0.4936
 1469HK4    H2723316   5.667   4.305   7.018 -1.5413 -0.0032  0.3779
 1469HK4    C4623317   5.860   4.343   7.084 -0.3056 -0.3757 -0.1417
 1469HK4    H2623318   5.892   4.379   6.985 -2.9322 -0.6991 -1.1475
 1469HK4    C4023319   5.957   4.328   7.185 -0.4234  0.6217  0.1262
 1469HK4    C5023320   5.917   4.272   7.308  0.1359 -0.1633 -0.0395
 1469HK4    H3023321   5.988   4.244   7.387  2.6407  2.2239 -1.3366
 1469HK4    C4923322   5.783   4.246   7.334  0.1033 -0.2261 -0.2631
 1469HK4    H2923323   5.754   4.221   7.437  0.4838  0.1795 -0.0553
 1469HK4     N223324   6.087   4.378   7.169 -0.1380 -0.1318  0.0801
 1469HK4    C3023325   6.124   4.490   7.093  0.0464  0.0038  0.3643
 1469HK4    C2923326   6.063   4.615   7.083  0.1214 -0.0000 -0.1856
 1469HK4    H1523327   5.954   4.617   7.095  0.2591 -2.7002  1.9762
 1469HK4    C2823328   6.125   4.731   7.040 -0.0507  0.2920  0.3536
 1469HK4    C2723329   6.260   4.720   7.002 -0.2490 -0.2338 -0.1994
 1469HK4    H1423330   6.320   4.811   6.989 -0.1730 -0.0368  1.4499
 1469HK4    C3223331   6.328   4.599   7.004 -0.2696 -0.2702 -1.2680
 1469HK4    H1623332   6.430   4.587   6.965  0.5459 -0.7944  0.9417
 1469HK4    C3123333   6.264   4.487   7.056 -0.1324  0.0803 -0.3416
 1469HK4    C3423334   6.314   4.360   7.104  0.0120  0.1650 -0.2689
 1469HK4    C3323335   6.204   4.299   7.176  0.2122  0.3950  0.2400
 1469HK4    C3523336   6.224   4.174   7.233 -0.5382  0.1937  0.0739
 1469HK4    H1723337   6.134   4.128   7.273  0.4172 -1.4241  0.4363
 1469HK4    C3623338   6.344   4.106   7.215 -0.6505  0.0138  0.0120
 1469HK4    H1823339   6.350   4.009   7.267  0.2767  0.7917  1.3700
 1469HK4    C3723340   6.446   4.164   7.140 -0.3124  0.2965  0.6934
 1469HK4    H1923341   6.541   4.111   7.146 -1.3658 -1.6858  0.2444
 1469HK4    C3823342   6.436   4.294   7.093 -0.0395  0.0371 -0.0856
 1469HK4    H2023343   6.526   4.350   7.065  0.5317 -0.8385 -0.0282
 1469HK4    C1423344   6.068   4.867   7.052 -0.2540  0.2167  0.2555
 1469HK4     C923345   6.106   4.983   6.984  0.5640 -0.1057  0.1585
 1469HK4     C823346   6.114   5.105   7.054  0.3634 -0.0434  0.0732
 1469HK4    C1123347   6.064   5.123   7.182  0.0134  0.3826 -0.1207
 1469HK4     H423348   6.083   5.218   7.234 -2.1319  3.4569 -4.6855
 1469HK4    C1223349   5.999   5.015   7.241  0.2443  0.4698  0.2955
 1469HK4     H523350   5.956   5.021   7.342  2.0381 -0.7683  1.1832
 1469HK4    C1323351   6.009   4.891   7.178 -0.4126  0.5014  0.1261
 1469HK4     H623352   6.003   4.805   7.245 -2.3450  1.8347  1.7151
 1469HK4     C723353   6.181   5.220   6.988  0.2275  0.1280  0.2359
 1469HK4     O223354   6.144   5.333   7.020  0.0478  0.2658 -0.4477
 1469HK4     C423355   6.256   5.205   6.861  0.3711 -0.1830  0.3555
 1469HK4     C323356   6.341   5.306   6.816  0.0512 -0.1857 -0.2649
 1469HK4     H323357   6.321   5.412   6.838  3.5029  0.5849 -0.5394
 1469HK4     C223358   6.425   5.290   6.706 -0.6568 -0.0352 -0.8277
 1469HK4     H223359   6.521   5.342   6.711 -1.2848  1.0507  0.4599
 1469HK4     C123360   6.417   5.168   6.639  0.5214 -0.6532  0.1269
 1469HK4     H123361   6.485   5.149   6.555 -0.0983  1.6056 -0.9274
 1469HK4     C623362   6.333   5.064   6.683  0.1436 -0.3612  0.1047
 1469HK4     C523363   6.247   5.083   6.792 -0.0959  0.1471 -0.1693
 1469HK4    C1023364   6.159   4.975   6.845  1.1559 -0.5893  0.4101
 1469HK4     O123365   6.094   4.909   6.764  0.5837 -0.1271  0.4967
 1469HK4    C1623366   6.321   4.948   6.593 -0.8417 -0.1771 -0.0133
 1469HK4    C1523367   6.340   4.967   6.454 -0.2257  0.0257  0.0978
 1469HK4     H723368   6.288   5.052   6.408 -0.6637 -1.1337 -1.5818
 1469HK4    C2023369   6.411   4.884   6.368  0.0349  0.1122  0.2259
 1469HK4     H923370   6.421   4.906   6.261 -1.5243 -0.4304 -0.0416
 1469HK4    C1923371   6.457   4.765   6.423 -0.0859 -0.0361  0.0077
 1469HK4    C1823372   6.415   4.731   6.558 -0.0941 -0.2830 -0.0555
 1469HK4    C1723373   6.357   4.824   6.644  0.1223  0.0068 -0.2206
 1469HK4     H823374   6.386   4.815   6.749  0.8054  0.9967 -0.3243
 1469HK4     N123375   6.457   4.602   6.595  0.6200  0.1544  0.6923
 1469HK4    C2123376   6.545   4.566   6.490 -0.5896 -0.3661 -0.1486
 1469HK4    C2223377   6.550   4.662   6.382 -0.0126 -0.0363  0.1698
 1469HK4    C2623378   6.641   4.652   6.277  0.2990  0.2471  0.4094
 1469HK4    H1323379   6.654   4.733   6.206  2.1684  0.6749  1.2299
 1469HK4    C2523380   6.732   4.547   6.285  0.4140  0.2578 -0.6822
 1469HK4    H1223381   6.809   4.536   6.209  1.8604 -1.8851  1.0072
 1469HK4    C2423382   6.732   4.451   6.386 -0.0194  0.8218 -0.1377
 1469HK4    H1123383   6.803   4.367   6.388 -0.1700  0.6741 -0.6742
 1469HK4    C2323384   6.634   4.459   6.484  0.2428  0.3111  0.1717
 1469HK4    H1023385   6.609   4.371   6.543 -2.1108 -1.4835 -3.3651
 1469HK4    C3923386   6.382   4.515   6.674 -0.1473 -0.0711 -0.2705
 1469HK4    C4123387   6.447   4.401   6.728 -0.0699 -0.2462 -0.7297
 1469HK4    H2123388   6.554   4.396   6.750 -0.8566 -3.5483  3.0077
 1469HK4    C4223389   6.378   4.284   6.760  0.1441 -0.2682 -0.3417
 1469HK4    H2223390   6.431   4.192   6.786 -0.2401 -0.1954  0.7443
 1469HK4    C4323391   6.240   4.285   6.742  0.0541  0.0257  0.3237
 1469HK4    H2323392   6.184   4.192   6.755  1.1149 -0.7177 -0.2689
 1469HK4    C4423393   6.176   4.398   6.695  0.0260 -0.4194 -0.7386
 1469HK4    H2423394   6.068   4.403   6.719  0.3636  0.9130  0.6231
 1469HK4    C4523395   6.243   4.512   6.652 -0.2346  0.1130  0.2513
 1469HK4    H2523396   6.199   4.613   6.643  1.4484  0.9125  0.7838
 1470HK4    H2823397   3.224   2.026   1.808  0.5923  0.3397  1.2762
 1470HK4    C4823398   3.296   2.045   1.729 -0.4340  0.0852  0.2585
 1470HK4    C4723399   3.293   2.169   1.666 -0.0505  0.0250  0.1223
 1470HK4    H2723400   3.200   2.226   1.671 -1.1152 -1.6256 -0.4794
 1470HK4    C4623401   3.397   2.195   1.577 -0.1883 -0.0779 -0.0698
 1470HK4    H2623402   3.403   2.291   1.523  0.7683 -2.3992 -4.3115
 1470HK4    C4023403   3.500   2.103   1.548 -0.1775 -0.2065  0.3685
 1470HK4    C5023404   3.501   1.980   1.616  0.2028 -0.2934  0.2101
 1470HK4    H3023405   3.584   1.910   1.603 -0.0652 -0.8867  1.5310
 1470HK4    C4923406   3.397   1.953   1.704 -0.5735  0.1469 -0.5614
 1470HK4    H2923407   3.386   1.849   1.739 -1.6083  0.6587  0.6831
 1470HK4     N223408   3.581   2.126   1.436  0.0701  0.1034  0.6077
 1470HK4    C3023409   3.548   2.187   1.313  0.1317 -0.9276  0.0747
 1470HK4    C2923410   3.422   2.222   1.266  0.2120 -0.7732 -0.0247
 1470HK4    H1523411   3.338   2.189   1.328  1.2088 -2.5779  0.4087
 1470HK4    C2823412   3.392   2.245   1.133 -0.1697  0.5356  0.2739
 1470HK4    C2723413   3.503   2.239   1.046 -0.3742  0.9406 -0.0225
 1470HK4    H1423414   3.486   2.246   0.938  2.6799 -0.3491 -0.6627
 1470HK4    C3223415   3.635   2.223   1.089 -0.5586 -0.1835  0.1478
 1470HK4    H1623416   3.708   2.224   1.008  0.9714  3.0170  1.4918
 1470HK4    C3123417   3.661   2.199   1.223  0.0383  0.1969  0.0991
 1470HK4    C3423418   3.773   2.158   1.306  0.0294 -0.8356 -0.3920
 1470HK4    C3323419   3.722   2.120   1.436  0.0590 -0.2348 -0.2022
 1470HK4    C3523420   3.800   2.119   1.550 -0.0262 -0.1022 -0.1436
 1470HK4    H1723421   3.754   2.083   1.642 -2.2312  1.6232 -0.5295
 1470HK4    C3623422   3.928   2.174   1.543  0.0656 -0.2476  0.3233
 1470HK4    H1823423   3.982   2.179   1.638 -0.3146 -0.2833  0.5410
 1470HK4    C3723424   3.982   2.216   1.422 -0.2081  0.1198  0.3273
 1470HK4    H1923425   4.086   2.250   1.427  0.8477 -3.1343  1.9218
 1470HK4    C3823426   3.906   2.201   1.307 -0.0603 -0.5730  0.3165
 1470HK4    H2023427   3.951   2.194   1.208 -1.0310 -1.2098 -0.0941
 1470HK4    C1423428   3.258   2.239   1.073  0.1192  0.6889 -0.3904
 1470HK4     C923429   3.232   2.179   0.949 -0.3429  0.2021 -0.0620
 1470HK4     C823430   3.132   2.237   0.868  0.2592  0.2988 -0.7408
 1470HK4    C1123431   3.057   2.346   0.911  0.0130 -0.2207  0.1478
 1470HK4     H423432   2.980   2.390   0.846 -1.0674  0.6134  1.9748
 1470HK4    C1223433   3.082   2.405   1.034  0.1608  0.5978 -0.2698
 1470HK4     H523434   3.003   2.468   1.078 -0.7511 -1.7555  1.5965
 1470HK4    C1323435   3.176   2.344   1.117  0.1933  0.6843 -0.2432
 1470HK4     H623436   3.181   2.374   1.223  1.1342 -0.6733  0.1071
 1470HK4     C723437   3.115   2.186   0.730 -0.5242 -0.1749 -0.4705
 1470HK4     O223438   3.012   2.210   0.666 -0.3733 -0.0106 -0.6508
 1470HK4     C423439   3.219   2.096   0.675 -0.1153  0.0068  0.0130
 1470HK4     C323440   3.224   2.062   0.541 -0.2939 -0.4702  0.1271
 1470HK4     H323441   3.167   2.122   0.469  2.1138  0.4852 -1.0446
 1470HK4     C223442   3.317   1.979   0.478  0.1958 -0.0086  0.2402
 1470HK4     H223443   3.301   1.928   0.382 -0.0673 -1.7991  1.2100
 1470HK4     C123444   3.414   1.924   0.561 -0.2753 -0.5199  0.4524
 1470HK4     H123445   3.506   1.873   0.529 -0.6740 -0.8787 -0.1203
 1470HK4     C623446   3.416   1.953   0.699 -0.0019 -0.3267  0.4076
 1470HK4     C523447   3.313   2.030   0.756 -0.3675 -0.4575 -0.0737
 1470HK4    C1023448   3.305   2.058   0.902 -0.0192  0.4575 -0.2253
 1470HK4     O123449   3.299   1.957   0.973  0.1556  0.5249 -0.1178
 1470HK4    C1623450   3.553   1.966   0.752  0.3027 -0.2642 -0.3882
 1470HK4    C1523451   3.666   2.022   0.691  0.0548  0.3745 -0.2630
 1470HK4     H723452   3.644   2.085   0.603  0.3952  2.5985  1.1811
 1470HK4    C2023453   3.801   2.004   0.720 -0.0029 -0.3352 -0.4463
 1470HK4     H923454   3.878   2.077   0.694  0.4035 -0.4877  0.3097
 1470HK4    C1923455   3.827   1.908   0.817 -0.3868 -0.3021 -0.3077
 1470HK4    C1823456   3.720   1.847   0.893 -0.0063 -0.9357 -0.2688
 1470HK4    C1723457   3.590   1.880   0.855  0.1766  0.2533  0.0953
 1470HK4     H823458   3.512   1.827   0.909 -0.9981  0.2691 -1.5477
 1470HK4     N123459   3.759   1.769   1.003 -0.0145  0.1285  0.5043
 1470HK4    C2123460   3.900   1.773   0.995 -0.0300 -0.1891  0.0114
 1470HK4    C2223461   3.944   1.865   0.891 -0.5431  0.5671  0.4522
 1470HK4    C2623462   4.081   1.881   0.870 -0.5043 -0.3914 -0.0777
 1470HK4    H1323463   4.110   1.905   0.768  1.0897 -1.9923 -0.0186
 1470HK4    C2523464   4.172   1.818   0.953 -0.5987 -0.0268  0.3081
 1470HK4    H1223465   4.275   1.829   0.917  0.2283 -1.5038  2.1075
 1470HK4    C2423466   4.134   1.736   1.058  0.0670  0.7591  1.1697
 1470HK4    H1123467   4.206   1.676   1.116 -0.6356 -1.5439 -0.2614
 1470HK4    C2323468   3.998   1.712   1.073  0.0637  0.0591  0.0886
 1470HK4    H1023469   3.967   1.635   1.144  3.5919 -0.0413  1.6111
 1470HK4    C3923470   3.685   1.760   1.121 -0.8071  0.0920  0.0064
 1470HK4    C4123471   3.696   1.649   1.207 -0.3892  0.3913  0.3424
 1470HK4    H2123472   3.753   1.559   1.182  0.3681  0.7142  0.8996
 1470HK4    C4223473   3.629   1.643   1.329 -0.2786 -0.1318  0.3763
 1470HK4    H2223474   3.666   1.579   1.411  2.4313  0.3988 -0.3973
 1470HK4    C4323475   3.543   1.746   1.364 -0.0075  0.0511  0.5072
 1470HK4    H2323476   3.475   1.741   1.449  0.3655 -3.0715  0.6668
 1470HK4    C4423477   3.525   1.856   1.281 -0.5209 -0.1614  0.3308
 1470HK4    H2423478   3.437   1.922   1.294  0.4708  1.0571  1.0177
 1470HK4    C4523479   3.602   1.865   1.166 -0.1688  0.3443  0.6039
 1470HK4    H2523480   3.599   1.964   1.118  0.9575  0.2809  0.3858
 1471HK4    H2823481   7.267   0.385   4.057  0.5082 -0.8095 -1.1970
 1471HK4    C4823482   7.175   0.433   4.022  0.3720 -0.2329 -0.0677
 1471HK4    C4723483   7.158   0.569   4.048  0.0509 -0.1915 -0.5042
 1471HK4    H2723484   7.248   0.615   4.091  0.8961 -1.8613 -0.4540
 1471HK4    C4623485   7.040   0.638   4.022  0.1989  0.3486  0.2560
 1471HK4    H2623486   7.047   0.746   4.038  2.8995  0.5793 -2.1653
 1471HK4    C4023487   6.925   0.581   3.963  0.3756  0.0694  0.1792
 1471HK4    C5023488   6.947   0.443   3.941 -0.0751  0.0106  0.0951
 1471HK4    H3023489   6.862   0.383   3.905  0.0369 -0.0615 -0.0449
 1471HK4    C4923490   7.064   0.372   3.966  0.0837  0.2380 -0.0073
 1471HK4    H2923491   7.061   0.263   3.952  0.0495 -0.1186  2.5862
 1471HK4     N223492   6.807   0.651   3.936  0.1127 -0.4262  0.0446
 1471HK4    C3023493   6.778   0.775   3.997 -0.3344 -0.3810 -0.2518
 1471HK4    C2923494   6.810   0.825   4.123  0.2494  0.1755 -0.6201
 1471HK4    H1523495   6.882   0.770   4.182 -0.4315 -0.4455 -0.3588
 1471HK4    C2823496   6.764   0.948   4.170  0.0056 -0.1102 -0.1191
 1471HK4    C2723497   6.678   1.020   4.084 -0.2957 -0.0530  0.2280
 1471HK4    H1423498   6.647   1.121   4.115 -0.7624 -0.4123  0.9472
 1471HK4    C3223499   6.643   0.972   3.959 -0.6978  0.3569  0.1802
 1471HK4    H1623500   6.575   1.025   3.892 -1.1666 -0.2248  0.1977
 1471HK4    C3123501   6.690   0.850   3.910 -0.0871  0.5449  0.2950
 1471HK4    C3423502   6.675   0.773   3.789  0.3121  0.6017  0.2096
 1471HK4    C3323503   6.732   0.642   3.817 -0.2196  0.3669  0.1923
 1471HK4    C3523504   6.688   0.525   3.756  0.6320  0.2883 -0.2804
 1471HK4    H1723505   6.731   0.426   3.769  1.4021  0.6216 -0.2499
 1471HK4    C3623506   6.580   0.534   3.668  0.4649  0.3735 -0.0679
 1471HK4    H1823507   6.534   0.441   3.634 -0.6803  0.2865  1.6827
 1471HK4    C3723508   6.528   0.658   3.634 -0.1660  0.0865 -0.1522
 1471HK4    H1923509   6.441   0.653   3.568  0.3703 -0.9837 -0.7877
 1471HK4    C3823510   6.578   0.776   3.689  0.9925 -0.2389 -0.4908
 1471HK4    H2023511   6.535   0.870   3.657  0.0595 -0.1878  0.8546
 1471HK4    C1423512   6.794   0.995   4.306  0.0784 -0.1480 -0.1222
 1471HK4     C923513   6.709   1.082   4.374  0.1428 -0.1984  0.0257
 1471HK4     C823514   6.755   1.170   4.473 -0.4036 -0.2604  0.3344
 1471HK4    C1123515   6.891   1.164   4.499 -0.1393 -0.0465 -1.0106
 1471HK4     H423516   6.927   1.226   4.583 -0.3841  0.1798 -1.0733
 1471HK4    C1223517   6.982   1.085   4.430  0.0785 -0.6585 -0.0296
 1471HK4     H523518   7.089   1.083   4.458  0.2130  0.2327 -0.4626
 1471HK4    C1323519   6.932   0.997   4.335  0.1063 -0.4579 -0.2321
 1471HK4     H623520   6.997   0.929   4.277  0.4183  0.7882 -1.3653
 1471HK4     C723521   6.663   1.264   4.542  0.4781  0.8571  0.0002
 1471HK4     O223522   6.691   1.310   4.653 -0.0122  0.2042  0.4015
 1471HK4     C423523   6.530   1.286   4.482  0.3110 -0.0044  0.0471
 1471HK4     C323524   6.451   1.391   4.529  0.4202  0.1937 -0.2105
 1471HK4     H323525   6.491   1.458   4.607 -3.0709  1.1844  0.7802
 1471HK4     C223526   6.329   1.423   4.472 -0.1553 -0.4114  0.6828
 1471HK4     H223527   6.263   1.499   4.517  0.9388 -0.2953  2.1153
 1471HK4     C123528   6.290   1.339   4.368  0.4237 -0.0849  0.1996
 1471HK4     H123529   6.182   1.333   4.345  0.2473 -1.4122  1.3250
 1471HK4     C623530   6.365   1.235   4.312 -0.0395 -0.3636  0.0952
 1471HK4     C523531   6.483   1.200   4.380 -0.0439 -0.0566  0.2544
 1471HK4    C1023532   6.563   1.080   4.344  0.0912  0.0297  0.2632
 1471HK4     O123533   6.510   0.969   4.353  0.0294  0.0128 -0.2600
 1471HK4    C1623534   6.350   1.209   4.168 -0.2311 -0.0305  0.0553
 1471HK4    C1523535   6.317   1.315   4.081  0.2370 -0.2816 -0.4322
 1471HK4     H723536   6.302   1.415   4.125  1.1344  0.6491 -2.1735
 1471HK4    C2023537   6.285   1.299   3.947  0.4399  0.2883 -0.5527
 1471HK4     H923538   6.270   1.385   3.882  0.3037  0.0173 -0.8822
 1471HK4    C1923539   6.278   1.169   3.899 -0.1012  0.2078 -0.2576
 1471HK4    C1823540   6.295   1.055   3.987  0.4641  0.4603 -0.0376
 1471HK4    C1723541   6.331   1.080   4.119  0.2928 -0.1345  0.1271
 1471HK4     H823542   6.325   1.003   4.195 -0.6353  0.0077  0.2024
 1471HK4     N123543   6.286   0.934   3.916 -0.0279  0.4199  0.0933
 1471HK4    C2123544   6.278   0.972   3.781  0.4182 -0.1142 -0.0860
 1471HK4    C2223545   6.272   1.116   3.764  0.0645 -0.1341 -0.1318
 1471HK4    C2623546   6.264   1.160   3.633  0.5583  0.3382 -0.0045
 1471HK4    H1323547   6.294   1.264   3.620  1.1442  0.3550  1.4484
 1471HK4    C2523548   6.264   1.069   3.528 -0.5333  0.2885  0.0252
 1471HK4    H1223549   6.256   1.110   3.428 -1.1576 -1.8421 -0.8324
 1471HK4    C2423550   6.273   0.932   3.549 -0.4007  0.2948  0.0097
 1471HK4    H1123551   6.262   0.864   3.462 -2.9855  3.0001 -1.8789
 1471HK4    C2323552   6.278   0.879   3.677  0.2274 -0.0442 -0.1480
 1471HK4    H1023553   6.261   0.772   3.692 -1.9831  0.1978 -0.7834
 1471HK4    C3923554   6.309   0.806   3.968 -0.4160  0.3654  0.1297
 1471HK4    C4123555   6.391   0.784   4.080 -0.0803 -0.2418 -0.2326
 1471HK4    H2123556   6.496   0.817   4.081  0.2911 -1.3794 -0.0523
 1471HK4    C4223557   6.352   0.687   4.173  0.2604  0.1174  0.2884
 1471HK4    H2223558   6.412   0.663   4.262 -0.1649  0.4951  0.6783
 1471HK4    C4323559   6.245   0.602   4.152  0.3601  0.0906 -0.1279
 1471HK4    H2323560   6.220   0.523   4.224  1.1949 -0.2625 -0.2214
 1471HK4    C4423561   6.165   0.617   4.039 -0.5611  0.8906  0.6207
 1471HK4    H2423562   6.069   0.565   4.029 -1.9357  3.2351  1.3647
 1471HK4    C4523563   6.197   0.720   3.952 -0.0390 -0.0458 -0.3048
 1471HK4    H2523564   6.116   0.743   3.881 -0.0754  0.7732 -0.0043
 1472HK4    H2823565   1.028  11.195   4.813  0.1592  1.8008 -0.7062
 1472HK4    C4823566   1.125  11.145   4.806 -0.4601  0.4715 -0.1215
 1472HK4    C4723567   1.159  11.058   4.703 -0.6679  0.1446  0.0866
 1472HK4    H2723568   1.081  11.039   4.628 -0.3710  0.1478 -0.2183
 1472HK4    C4623569   1.272  10.979   4.710 -1.1904 -0.5967  0.2060
 1472HK4    H2623570   1.306  10.923   4.621 -0.2081 -2.0902  1.4928
 1472HK4    C4023571   1.361  10.981   4.820 -0.8520 -0.3140 -0.0709
 1472HK4    C5023572   1.330  11.081   4.914  0.7058 -0.2190  0.3526
 1472HK4    H3023573   1.384  11.091   5.009 -1.5791 -0.0272  1.6836
 1472HK4    C4923574   1.217  11.162   4.909  0.9161 -0.0206 -1.2587
 1472HK4    H2923575   1.197  11.241   4.984 -1.7294 -0.9857 -0.8878
 1472HK4     N223576   1.452  10.879   4.848 -0.0218  0.2347 -0.7316
 1472HK4    C3023577   1.438  10.743   4.814 -0.0584 -0.0429  0.3774
 1472HK4    C2923578   1.321  10.673   4.784  0.0404 -0.2124  0.3937
 1472HK4    H1523579   1.228  10.726   4.767  0.1136  0.1499  1.1173
 1472HK4    C2823580   1.320  10.534   4.786  0.1186 -0.2188  0.1968
 1472HK4    C2723581   1.442  10.467   4.807  0.1726 -0.2950 -0.3696
 1472HK4    H1423582   1.444  10.360   4.782 -1.6533 -0.8828  1.8700
 1472HK4    C3223583   1.558  10.542   4.824  0.2113 -0.4980  0.2537
 1472HK4    H1623584   1.648  10.481   4.833 -0.0933 -1.0609 -0.5017
 1472HK4    C3123585   1.568  10.680   4.827 -0.2234 -0.4612  0.0354
 1472HK4    C3423586   1.664  10.778   4.874 -0.4620 -0.4349  0.4679
 1472HK4    C3323587   1.584  10.898   4.893 -0.0806 -0.0309 -0.4473
 1472HK4    C3523588   1.652  11.014   4.925 -0.2882 -0.0777  0.1854
 1472HK4    H1723589   1.598  11.108   4.942  0.9518  0.7013 -0.0891
 1472HK4    C3623590   1.791  11.009   4.928 -0.2254  0.7031 -0.9168
 1472HK4    H1823591   1.844  11.101   4.959  2.0024  0.1428 -2.9012
 1472HK4    C3723592   1.871  10.899   4.898 -0.5618  0.3081 -0.3756
 1472HK4    H1923593   1.980  10.902   4.906 -0.6888  0.7107  1.5349
 1472HK4    C3823594   1.803  10.781   4.874 -0.4749  0.2542 -0.3519
 1472HK4    H2023595   1.858  10.691   4.846  0.7089  1.3308 -1.5903
 1472HK4    C1423596   1.191  10.465   4.802  0.1161 -0.3621 -0.4354
 1472HK4     C923597   1.172  10.353   4.883 -0.2543 -0.0650 -0.1026
 1472HK4     C823598   1.074  10.257   4.852 -0.6876  0.1579  0.5944
 1472HK4    C1123599   0.986  10.287   4.749 -0.9316  1.1624  1.0904
 1472HK4     H423600   0.909  10.212   4.726  0.7878 -0.5372  0.7197
 1472HK4    C1223601   1.000  10.404   4.675 -0.6113  0.0827 -0.5943
 1472HK4     H523602   0.918  10.432   4.608  0.7291  3.0531 -1.0892
 1472HK4    C1323603   1.102  10.496   4.696 -0.4324 -0.2615  0.0488
 1472HK4     H623604   1.113  10.575   4.620 -0.5217 -1.2682 -1.0230
 1472HK4     C723605   1.083  10.117   4.900  0.3125 -0.0281 -0.1234
 1472HK4     O223606   0.983  10.046   4.893  0.3945 -0.1021 -0.5280
 1472HK4     C423607   1.206  10.076   4.972  0.3260 -0.3715 -0.3411
 1472HK4     C323608   1.222   9.940   4.995 -0.0842 -0.3888 -0.1419
 1472HK4     H323609   1.147   9.866   4.963 -0.4262 -0.2663  0.3804
 1472HK4     C223610   1.337   9.898   5.061 -0.1734 -0.3136  0.0612
 1472HK4     H223611   1.358   9.792   5.081  3.5313  0.3274 -0.0775
 1472HK4     C123612   1.437   9.991   5.086 -0.5467  0.0443  0.2352
 1472HK4     H123613   1.533   9.949   5.120 -0.6435 -1.9804 -1.9015
 1472HK4     C623614   1.424  10.129   5.059 -0.3199  0.1964  0.8907
 1472HK4     C523615   1.299  10.173   5.015 -0.1846 -0.1157  0.1861
 1472HK4    C1023616   1.265  10.317   4.994 -0.4336 -0.1947  0.0043
 1472HK4     O123617   1.261  10.386   5.095  1.0987 -0.4968  0.2839
 1472HK4    C1623618   1.547  10.206   5.038 -0.2765  0.0309  0.5217
 1472HK4    C1523619   1.657  10.157   4.965 -0.2984  0.0378  0.4841
 1472HK4     H723620   1.651  10.056   4.923 -0.7817  0.1289  0.3351
 1472HK4    C2023621   1.778  10.225   4.954 -0.3953  0.1208 -0.0978
 1472HK4     H923622   1.854  10.177   4.892  0.0255  0.3398  0.2451
 1472HK4    C1923623   1.789  10.349   5.016 -0.0533  0.4376 -0.7858
 1472HK4    C1823624   1.685  10.392   5.107  0.3583 -0.0245 -0.0892
 1472HK4    C1723625   1.568  10.318   5.119  0.2669  0.1626  0.1989
 1472HK4     H823626   1.493  10.354   5.189 -0.2564  0.1131 -0.3301
 1472HK4     N123627   1.725  10.511   5.172  0.2369  0.0387 -0.1302
 1472HK4    C2123628   1.852  10.545   5.123  0.4697 -0.0584  0.3992
 1472HK4    C2223629   1.896  10.447   5.026  0.2674 -0.0040  0.2526
 1472HK4    C2623630   2.018  10.466   4.962  0.2249  0.0615  0.1923
 1472HK4    H1323631   2.039  10.394   4.882 -1.1562 -2.1840  1.7735
 1472HK4    C2523632   2.094  10.580   4.983 -0.2410  0.3845  0.1398
 1472HK4    H1223633   2.184  10.604   4.927  0.2554 -0.6240  0.4885
 1472HK4    C2423634   2.058  10.670   5.082 -0.3334  0.7736 -0.2498
 1472HK4    H1123635   2.126  10.756   5.095  0.9339 -0.6020  2.8024
 1472HK4    C2323636   1.938  10.651   5.151  0.1159  0.2364  0.3820
 1472HK4    H1023637   1.922  10.723   5.231 -1.2738 -0.2999  0.5939
 1472HK4    C3923638   1.665  10.560   5.289  0.1670 -0.2892 -0.0276
 1472HK4    C4123639   1.658  10.699   5.309 -0.4325 -0.3606  0.2808
 1472HK4    H2123640   1.670  10.763   5.221  2.2057  1.1489  1.6710
 1472HK4    C4223641   1.661  10.742   5.441  0.5157  0.0203  0.1364
 1472HK4    H2223642   1.646  10.850   5.458  0.2244  0.4215 -2.5040
 1472HK4    C4323643   1.660  10.667   5.558 -0.1138 -0.2153 -0.0209
 1472HK4    H2323644   1.684  10.713   5.654 -0.1802 -0.4179  0.0952
 1472HK4    C4423645   1.658  10.529   5.540  0.0784 -0.2840  0.4640
 1472HK4    H2423646   1.658  10.462   5.627 -1.2225 -1.0914 -0.1389
 1472HK4    C4523647   1.662  10.485   5.408  0.4959  0.2243  0.3039
 1472HK4    H2523648   1.676  10.376   5.397 -0.7630  0.3225 -2.6890
 1473HK4    H2823649  10.129   4.188   1.896 -0.0899 -0.9810 -0.8606
 1473HK4    C4823650  10.136   4.134   1.990 -0.3299  0.4311 -0.0092
 1473HK4    C4723651  10.186   4.204   2.099  0.0008 -0.0228  0.1342
 1473HK4    H2723652  10.226   4.305   2.086 -2.5771  1.4040  2.5299
 1473HK4    C4623653  10.171   4.156   2.229 -0.0153 -0.0477  0.1234
 1473HK4    H2623654  10.207   4.219   2.312 -0.5382  0.1537  0.2011
 1473HK4    C4023655  10.100   4.036   2.250 -0.3780  0.1482  0.0282
 1473HK4    C5023656  10.058   3.967   2.135 -0.2652  0.0097  0.0705
 1473HK4    H3023657   9.999   3.876   2.153 -0.3604  0.3057  1.2674
 1473HK4    C4923658  10.078   4.008   2.003  0.8239 -0.0815  0.2039
 1473HK4    H2923659  10.039   3.951   1.918  3.3181  1.5820 -2.1478
 1473HK4     N223660  10.100   3.972   2.375  0.2700  0.4521  0.1907
 1473HK4    C3023661  10.194   3.990   2.478  0.1355  0.4231  0.3197
 1473HK4    C2923662  10.327   4.030   2.476  0.3742 -0.3721 -0.0349
 1473HK4    H1523663  10.372   4.037   2.377 -2.1618 -0.5928 -1.2345
 1473HK4    C2823664  10.398   4.053   2.594 -0.2717  0.1590  0.2608
 1473HK4    C2723665  10.343   4.024   2.720 -0.0953  0.5126  0.4191
 1473HK4    H1423666  10.395   4.053   2.813  3.7370  0.9689 -1.7558
 1473HK4    C3223667  10.210   3.985   2.722  0.0654 -0.0482  0.0844
 1473HK4    H1623668  10.157   3.990   2.817  0.8925  1.1506  0.4899
 1473HK4    C3123669  10.132   3.972   2.608 -0.1991  0.6214  0.1886
 1473HK4    C3423670   9.997   3.928   2.576 -0.0673  0.3228  0.0438
 1473HK4    C3323671   9.980   3.924   2.432  0.2729  0.2199  0.0053
 1473HK4    C3523672   9.854   3.898   2.380  0.2688 -0.5250  0.3827
 1473HK4    H1723673   9.826   3.904   2.275  0.3832  0.2213  0.3995
 1473HK4    C3623674   9.753   3.864   2.469 -0.2965 -0.1334 -0.1126
 1473HK4    H1823675   9.653   3.848   2.424 -0.5324 -0.5110  0.5287
 1473HK4    C3723676   9.768   3.861   2.607 -0.1736  0.7188 -0.1059
 1473HK4    H1923677   9.689   3.823   2.672 -0.4038  1.1309 -0.1458
 1473HK4    C3823678   9.890   3.899   2.660  0.0804 -0.2699  0.0338
 1473HK4    H2023679   9.914   3.891   2.766 -0.9485  0.7651  0.3602
 1473HK4    C1423680  10.527   4.123   2.600 -0.1390 -0.0665  0.0838
 1473HK4     C923681  10.620   4.114   2.705 -0.4147  0.1319  0.3428
 1473HK4     C823682  10.699   4.221   2.752 -0.4441  0.3165 -0.0187
 1473HK4    C1123683  10.701   4.335   2.673  0.2962  0.0774 -0.3442
 1473HK4     H423684  10.758   4.418   2.717 -0.5735  0.6347 -0.2624
 1473HK4    C1223685  10.626   4.338   2.556 -0.2780  0.0635  0.0229
 1473HK4     H523686  10.664   4.411   2.483 -0.4917  1.3924  1.2205
 1473HK4    C1323687  10.543   4.234   2.515 -0.2955  0.0217  0.1689
 1473HK4     H623688  10.488   4.221   2.420 -2.7304 -1.0803  1.6761
 1473HK4     C723689  10.762   4.213   2.886  0.4857 -0.0839 -0.4800
 1473HK4     O223690  10.834   4.305   2.925 -0.1196  0.0830  0.2512
 1473HK4     C423691  10.754   4.088   2.964 -0.4165  0.2432 -0.0437
 1473HK4     C323692  10.812   4.078   3.090 -0.1009 -0.1288 -0.2216
 1473HK4     H323693  10.857   4.167   3.137 -0.1961  0.5750 -1.4557
 1473HK4     C223694  10.793   3.968   3.173 -0.1174  0.0676  0.0382
 1473HK4     H223695  10.835   3.963   3.274  1.8041 -3.3186 -0.8647
 1473HK4     C123696  10.706   3.871   3.124  0.0370 -0.1263  0.1438
 1473HK4     H123697  10.689   3.782   3.187 -0.0166 -1.2051 -1.3674
 1473HK4     C623698  10.656   3.866   2.992  0.3583 -0.1288  0.0238
 1473HK4     C523699  10.690   3.975   2.911  0.1801 -0.1083 -0.0219
 1473HK4    C1023700  10.636   3.982   2.772 -0.3956  0.0649  0.2078
 1473HK4     O123701  10.665   3.888   2.698 -0.1418  0.0532  0.3200
 1473HK4    C1623702  10.592   3.741   2.949 -0.2290  0.2740 -0.2719
 1473HK4    C1523703  10.613   3.622   3.022 -0.6417  0.1371 -0.3723
 1473HK4     H723704  10.695   3.629   3.095 -0.9010 -0.9492  0.0321
 1473HK4    C2023705  10.537   3.506   3.014 -0.0296 -0.2931 -0.0284
 1473HK4     H923706  10.554   3.429   3.089 -1.0738  0.7145  1.2841
 1473HK4    C1923707  10.429   3.507   2.926 -0.0573  0.1891  0.0107
 1473HK4    C1823708  10.407   3.621   2.840  0.3740 -0.1532 -0.5543
 1473HK4    C1723709  10.475   3.738   2.874 -0.5557  0.1638  0.2351
 1473HK4     H823710  10.420   3.831   2.862  0.9253  1.0254  0.1060
 1473HK4     N123711  10.301   3.592   2.752  0.0013 -0.3548 -0.0410
 1473HK4    C2123712  10.243   3.471   2.796  0.0932 -0.3786  0.0119
 1473HK4    C2223713  10.318   3.416   2.907  0.3602 -0.2990 -0.1296
 1473HK4    C2623714  10.277   3.304   2.978  0.5345 -0.4777 -0.3128
 1473HK4    H1323715  10.335   3.270   3.064  0.8067  2.2880  0.6495
 1473HK4    C2523716  10.161   3.238   2.940 -0.3942  0.7539  0.3702
 1473HK4    H1223717  10.139   3.135   2.970  1.8526 -1.1735 -4.2901
 1473HK4    C2423718  10.087   3.293   2.836  0.2445 -0.0163 -0.4942
 1473HK4    H1123719  10.014   3.231   2.784 -0.3409  0.6064 -0.4258
 1473HK4    C2323720  10.122   3.409   2.767 -0.4311  0.5720  0.1336
 1473HK4    H1023721  10.049   3.465   2.709  0.8569 -0.6573 -2.8093
 1473HK4    C3923722  10.278   3.648   2.626 -0.2320 -0.2613  0.0431
 1473HK4    C4123723  10.154   3.639   2.560 -0.4591  0.2030  0.4124
 1473HK4    H2123724  10.064   3.652   2.622  0.3757  3.1969  1.0968
 1473HK4    C4223725  10.143   3.643   2.421  0.7302  0.2206  0.3114
 1473HK4    H2223726  10.044   3.629   2.376  0.6974  1.8628 -0.1741
 1473HK4    C4323727  10.254   3.654   2.339  0.4012  0.1667 -0.1354
 1473HK4    H2323728  10.235   3.675   2.233 -1.3222  0.6257  0.2411
 1473HK4    C4423729  10.377   3.670   2.402  0.1443 -0.2951  0.4834
 1473HK4    H2423730  10.463   3.684   2.334 -1.9018 -0.6724 -2.2959
 1473HK4    C4523731  10.388   3.673   2.540  0.1345 -0.3237  0.4846
 1473HK4    H2523732  10.476   3.713   2.592  0.1421 -0.3581  0.4991
 1474HK4    H2823733   0.365   9.697   2.871 -1.5475  0.0326 -1.5821
 1474HK4    C4823734   0.415   9.764   2.801  0.1539  0.1512 -0.2873
 1474HK4    C4723735   0.354   9.782   2.678 -0.4549  0.4297  0.0490
 1474HK4    H2723736   0.256   9.737   2.656  0.3727 -1.1635 -0.4238
 1474HK4    C4623737   0.413   9.865   2.583  0.3398  0.2110  0.3497
 1474HK4    H2623738   0.364   9.875   2.484  1.1140  0.0166 -0.0573
 1474HK4    C4023739   0.530   9.939   2.607  0.1630  0.3932  0.6559
 1474HK4    C5023740   0.581   9.916   2.736  0.2798  0.2985  0.5943
 1474HK4    H3023741   0.670   9.976   2.760  0.6474  0.4441 -1.0704
 1474HK4    C4923742   0.533   9.830   2.834  0.0076  0.1189  0.3043
 1474HK4    H2923743   0.568   9.846   2.937 -0.1817 -0.3503  0.4432
 1474HK4     N223744   0.571  10.044   2.524  0.0416 -0.2794 -0.2718
 1474HK4    C3023745   0.493  10.128   2.442 -0.3131 -0.0244  0.3239
 1474HK4    C2923746   0.356  10.151   2.452 -0.3905 -0.3698  0.0566
 1474HK4    H1523747   0.299  10.122   2.541  1.3700 -2.2325  0.6371
 1474HK4    C2823748   0.302  10.248   2.370  0.3903  0.0607  0.0473
 1474HK4    C2723749   0.384  10.326   2.285  0.0117  0.1433 -0.2479
 1474HK4    H1423750   0.348  10.413   2.230  3.3776  1.0173 -1.1942
 1474HK4    C3223751   0.520  10.298   2.271  0.1114  0.1576  0.6331
 1474HK4    H1623752   0.584  10.367   2.216 -1.1082  1.8375  1.2696
 1474HK4    C3123753   0.579  10.204   2.353 -0.1281 -0.3421  0.2331
 1474HK4    C3423754   0.715  10.166   2.387 -0.0986 -0.3947  0.0585
 1474HK4    C3323755   0.706  10.064   2.490  0.1673 -0.2096  0.2641
 1474HK4    C3523756   0.818   9.984   2.510  0.0935 -0.4933 -0.4623
 1474HK4    H1723757   0.803   9.905   2.583  2.6902  0.2160  0.9091
 1474HK4    C3623758   0.936  10.006   2.439 -0.4037  0.2676 -1.0621
 1474HK4    H1823759   1.019   9.941   2.468 -1.1413  0.5315  1.7288
 1474HK4    C3723760   0.944  10.106   2.343  0.7507  0.5463 -0.6752
 1474HK4    H1923761   1.029  10.114   2.275  1.9546  1.0773  0.8514
 1474HK4    C3823762   0.832  10.184   2.315 -0.1189 -0.4388  0.0143
 1474HK4    H2023763   0.820  10.249   2.228 -1.7665  0.9723  1.2715
 1474HK4    C1423764   0.155  10.249   2.371  0.3933 -0.1557  0.4438
 1474HK4     C923765   0.081  10.280   2.257  0.5515  0.5419  0.5294
 1474HK4     C823766  11.211  10.357   2.261 -0.0526 -0.3473  0.0460
 1474HK4    C1123767  11.162  10.395   2.385 -0.2979 -0.7249  0.0630
 1474HK4     H423768  11.064  10.444   2.392 -0.9471 -2.1238  1.0881
 1474HK4    C1223769  11.232  10.365   2.501 -0.3884 -0.7537  0.1073
 1474HK4     H523770  11.190  10.397   2.598  1.0540 -0.5441  0.6734
 1474HK4    C1323771   0.094  10.280   2.495  0.0816 -0.1640  0.2923
 1474HK4     H623772   0.136  10.230   2.583  1.5641 -2.8625 -1.8588
 1474HK4     C723773  11.142  10.393   2.135  0.1596 -0.1165 -0.0049
 1474HK4     O223774  11.030  10.444   2.139  0.1870  0.0501 -1.0644
 1474HK4     C423775  11.197  10.347   2.006  0.4775  0.4260 -0.0640
 1474HK4     C323776  11.139  10.398   1.890  0.2865 -0.6242 -0.4398
 1474HK4     H323777  11.040  10.445   1.893  0.8654  0.6818 -0.9253
 1474HK4     C223778  11.217  10.409   1.776  0.3192  0.2081 -0.3446
 1474HK4     H223779  11.168  10.444   1.684  0.3740  2.0353  0.3136
 1474HK4     C123780   0.102  10.368   1.779  0.3046  0.2064  0.2478
 1474HK4     H123781   0.152  10.369   1.681  1.1886  1.4231  0.6946
 1474HK4     C623782   0.167  10.312   1.891  0.4247 -0.3104 -0.0801
 1474HK4     C523783   0.080  10.294   1.999  0.5223  0.5105  0.1421
 1474HK4    C1023784   0.135  10.236   2.125 -0.3581  0.0462  0.3196
 1474HK4     O123785   0.165  10.117   2.118 -0.4568  0.0673 -0.5291
 1474HK4    C1623786   0.313  10.325   1.893  0.3904 -0.0032  0.5796
 1474HK4    C1523787   0.382  10.429   1.827 -0.1488 -0.2428 -0.3642
 1474HK4     H723788   0.320  10.518   1.809  0.0715  0.1937  0.9919
 1474HK4    C2023789   0.513  10.430   1.779  0.0836 -0.3123  0.2647
 1474HK4     H923790   0.565  10.511   1.728 -2.1011 -0.0568 -1.6719
 1474HK4    C1923791   0.583  10.314   1.808  1.1131  0.3998  0.6627
 1474HK4    C1823792   0.524  10.200   1.876  0.1419  0.2878 -0.3580
 1474HK4    C1723793   0.391  10.212   1.915  0.2967 -0.1252  0.3048
 1474HK4     H823794   0.351  10.115   1.942  0.2362 -0.9961 -2.7931
 1474HK4     N123795   0.599  10.083   1.849  0.1232  0.1473  0.1984
 1474HK4    C2123796   0.711  10.125   1.775  0.2375 -0.4126  0.0525
 1474HK4    C2223797   0.704  10.266   1.745  0.2929 -0.4797 -0.2780
 1474HK4    C2623798   0.802  10.331   1.671  0.1032  0.1500  0.0205
 1474HK4    H1323799   0.800  10.438   1.694 -0.1731 -0.0611  1.0127
 1474HK4    C2523800   0.919  10.265   1.635 -0.2656 -0.0226 -0.8609
 1474HK4    H1223801   1.003  10.304   1.576 -0.6983  0.0333 -1.4433
 1474HK4    C2423802   0.921  10.129   1.664  0.8886  0.2855  0.5990
 1474HK4    H1123803   1.003  10.070   1.622  1.1232  0.5802  0.6381
 1474HK4    C2323804   0.825  10.057   1.734  0.4239  0.0783 -0.2410
 1474HK4    H1023805   0.832   9.950   1.753 -2.1161 -0.0066  0.3672
 1474HK4    C3923806   0.603   9.968   1.930 -0.2284 -0.0119 -0.0115
 1474HK4    C4123807   0.645   9.841   1.885  0.3391  0.1500  0.0489
 1474HK4    H2123808   0.608   9.812   1.785 -0.6802 -1.4652  0.8773
 1474HK4    C4223809   0.683   9.736   1.967 -0.2709  0.0819  0.2489
 1474HK4    H2223810   0.713   9.639   1.925  0.0299  0.1177  0.3823
 1474HK4    C4323811   0.686   9.754   2.105 -0.1337  0.0865  0.2453
 1474HK4    H2323812   0.730   9.681   2.173 -1.4111 -0.0350  0.9348
 1474HK4    C4423813   0.657   9.880   2.155 -0.3882  0.1425 -0.0442
 1474HK4    H2423814   0.649   9.889   2.265 -0.9348 -3.4264  0.2673
 1474HK4    C4523815   0.621   9.983   2.069 -0.3043  0.1899 -0.0227
 1474HK4    H2523816   0.627  10.085   2.108  0.4589 -0.4576  1.5978
 1475HK4    H2823817   2.839   3.179   0.394  0.4654  2.0682  0.6174
 1475HK4    C4823818   2.932   3.149   0.345 -0.4000  0.2107  0.0360
 1475HK4    C4723819   3.033   3.240   0.315 -0.0576 -0.1361  0.1356
 1475HK4    H2723820   3.021   3.344   0.348  0.5822 -0.1723  0.4865
 1475HK4    C4623821   3.162   3.198   0.284 -0.1359 -0.1096 -0.2283
 1475HK4    H2623822   3.237   3.277   0.298 -1.1008  0.8790 -0.5875
 1475HK4    C4023823   3.200   3.063   0.274 -0.3944 -0.1936 -0.0724
 1475HK4    C5023824   3.097   2.976   0.315 -0.3665 -0.2372 -0.0945
 1475HK4    H3023825   3.123   2.869   0.318  0.9522  0.0185 -1.5743
 1475HK4    C4923826   2.967   3.015   0.343 -0.0929  0.2818  0.4533
 1475HK4    H2923827   2.902   2.940   0.392 -0.3985  1.0885  1.3036
 1475HK4     N223828   3.315   3.029   0.202 -0.1688 -0.1491  0.2666
 1475HK4    C3023829   3.377   3.106   0.101 -0.4185  0.0238  0.2459
 1475HK4    C2923830   3.347   3.230   0.048  0.2334  0.1725  0.2303
 1475HK4    H1523831   3.256   3.282   0.077  0.2698  0.0971  0.4802
 1475HK4    C2823832   3.416   3.285  11.188 -0.2785 -0.0457 -0.2116
 1475HK4    C2723833   3.521   3.210  11.131 -0.0895 -0.0376  0.1229
 1475HK4    H1423834   3.579   3.254  11.048 -0.9857  1.2859  0.1767
 1475HK4    C3223835   3.555   3.087  11.186  0.3263  0.1520  0.2927
 1475HK4    H1623836   3.632   3.032  11.132  2.0724  1.3561  1.4805
 1475HK4    C3123837   3.494   3.036   0.052 -0.6173  0.0460 -0.2592
 1475HK4    C3423838   3.505   2.917   0.135  0.0261  0.0828 -0.2917
 1475HK4    C3323839   3.395   2.916   0.230  0.1866  0.0117 -0.1075
 1475HK4    C3523840   3.393   2.819   0.329 -0.0580  0.0871 -0.0397
 1475HK4    H1723841   3.302   2.819   0.390  0.9408  3.2797  1.5434
 1475HK4    C3623842   3.498   2.729   0.338  0.1709  0.3948  0.3707
 1475HK4    H1823843   3.485   2.643   0.405  1.1670 -1.5243 -1.8454
 1475HK4    C3723844   3.604   2.726   0.248 -0.3748  0.2210 -0.2612
 1475HK4    H1923845   3.666   2.638   0.232  2.3488  2.1254 -0.5167
 1475HK4    C3823846   3.607   2.824   0.149  0.0991  0.1605 -0.3051
 1475HK4    H2023847   3.703   2.842   0.100  0.9200  0.8065  1.4883
 1475HK4    C1423848   3.361   3.399  11.113  0.2432  0.0607 -0.4399
 1475HK4     C923849   3.381   3.430  10.978 -0.6274 -0.0681 -0.6019
 1475HK4     C823850   3.405   3.561  10.931 -0.2819  0.1759  0.2420
 1475HK4    C1123851   3.378   3.666  11.017 -0.3235  0.2753  0.1071
 1475HK4     H423852   3.367   3.771  10.984 -1.6350  0.3901  0.8756
 1475HK4    C1223853   3.344   3.641  11.150 -0.0127 -0.0193  0.1308
 1475HK4     H523854   3.326   3.729  11.214  0.5298  1.2705 -1.4421
 1475HK4    C1323855   3.333   3.510  11.195  0.1975 -0.1423 -0.1762
 1475HK4     H623856   3.304   3.492   0.051 -0.0853 -2.2884 -0.6155
 1475HK4     C723857   3.459   3.585  10.796  0.3229  0.0040  0.4478
 1475HK4     O223858   3.484   3.699  10.754 -0.2592 -0.1303 -0.2761
 1475HK4     C423859   3.472   3.469  10.705 -0.6709  0.3224 -0.1068
 1475HK4     C323860   3.520   3.489  10.576 -0.2924 -0.3601 -0.0707
 1475HK4     H323861   3.530   3.590  10.535 -3.2454  0.8633  2.1191
 1475HK4     C223862   3.552   3.380  10.495  0.1017 -0.7644  0.6228
 1475HK4     H223863   3.596   3.411  10.399  1.3532 -0.8931  1.1486
 1475HK4     C123864   3.537   3.251  10.545  0.3091 -1.0747 -0.1176
 1475HK4     H123865   3.566   3.167  10.479 -1.7163 -2.7128  1.0388
 1475HK4     C623866   3.489   3.225  10.675  0.0015  0.1712  0.0225
 1475HK4     C523867   3.446   3.337  10.747  0.0973  0.2102  0.0144
 1475HK4    C1023868   3.382   3.318  10.880  0.4107 -0.6388  0.0501
 1475HK4     O123869   3.295   3.233  10.898 -0.2339 -0.1065 -0.5014
 1475HK4    C1623870   3.553   3.112  10.742  0.1974  0.3456  0.1308
 1475HK4    C1523871   3.691   3.082  10.735  0.2804  0.6707  0.3433
 1475HK4     H723872   3.753   3.163  10.695  0.3686  0.1115 -0.6472
 1475HK4    C2023873   3.749   2.976  10.805 -0.4808  0.1270  0.1646
 1475HK4     H923874   3.854   2.949  10.792 -0.3058  0.4620  0.8780
 1475HK4    C1923875   3.668   2.889  10.876 -0.1564 -0.0137  0.3667
 1475HK4    C1823876   3.523   2.903  10.871 -0.1531 -0.1390 -0.1347
 1475HK4    C1723877   3.475   3.014  10.803  0.3285  0.2159  0.0866
 1475HK4     H823878   3.367   3.019  10.791  0.2146  1.3001  1.5708
 1475HK4     N123879   3.456   2.803  10.944  0.0802 -0.2228 -0.0397
 1475HK4    C2123880   3.557   2.720  10.998  0.1278 -0.2358 -0.1480
 1475HK4    C2223881   3.687   2.771  10.958  0.1558 -0.4484 -0.3297
 1475HK4    C2623882   3.800   2.711  11.011  0.3493  0.2589  0.0668
 1475HK4    H1323883   3.898   2.745  10.978  0.4022  1.2492  1.2282
 1475HK4    C2523884   3.787   2.605  11.100  0.5446 -0.0560 -0.2767
 1475HK4    H1223885   3.876   2.557  11.142  0.2106 -0.0070  0.5064
 1475HK4    C2423886   3.663   2.557  11.139  0.5468  0.2194  0.0745
 1475HK4    H1123887   3.659   2.486  11.223 -0.6045 -1.1859 -1.1391
 1475HK4    C2323888   3.547   2.617  11.091  0.3752 -0.4633 -0.3725
 1475HK4    H1023889   3.452   2.593  11.138 -0.7613 -0.4296 -2.5617
 1475HK4    C3923890   3.328   2.811  11.000  0.0536 -0.2946 -0.0854
 1475HK4    C4123891   3.245   2.700  11.026  0.0627 -0.3198 -0.1687
 1475HK4    H2123892   3.278   2.602  10.990  1.0987  0.4023 -1.2497
 1475HK4    C4223893   3.126   2.709  11.096 -0.0132  0.7212 -0.4133
 1475HK4    H2223894   3.067   2.620  11.126 -1.2397  1.0586 -1.7811
 1475HK4    C4323895   3.086   2.838  11.126 -0.2741  0.5321  0.0651
 1475HK4    H2323896   2.989   2.857  11.174 -0.4341  0.5510 -0.2666
 1475HK4    C4423897   3.161   2.954  11.108 -0.1275  0.3108 -0.7642
 1475HK4    H2423898   3.126   3.056  11.128  0.9042  0.7215 -1.0294
 1475HK4    C4523899   3.285   2.936  11.049  0.2720 -0.3486  0.2501
 1475HK4    H2523900   3.360   3.017  11.051 -2.2749  2.0685  2.7561
 1476HK4    H2823901   4.370   6.554   9.303  1.8263  0.2999 -0.8718
 1476HK4    C4823902   4.369   6.446   9.294 -0.0584  0.1830  0.3897
 1476HK4    C4723903   4.341   6.365   9.403  0.3996  0.2752  0.5795
 1476HK4    H2723904   4.304   6.421   9.490  0.1363 -0.4245  0.9307
 1476HK4    C4623905   4.381   6.232   9.399  0.4216  0.3039 -0.1438
 1476HK4    H2623906   4.352   6.175   9.488  0.3657  3.0386  1.6413
 1476HK4    C4023907   4.437   6.166   9.287  0.0807  0.2727 -0.2980
 1476HK4    C5023908   4.467   6.260   9.185  0.1213  0.4214 -0.1465
 1476HK4    H3023909   4.521   6.214   9.101 -1.7185 -1.9098 -0.0967
 1476HK4    C4923910   4.438   6.396   9.184  0.1702  0.4402  0.4179
 1476HK4    H2923911   4.435   6.438   9.082  1.0608 -0.1882  0.1274
 1476HK4     N223912   4.432   6.027   9.271 -0.3986  0.3044 -0.4311
 1476HK4    C3023913   4.521   5.962   9.184  0.3646 -0.0185  0.5803
 1476HK4    C2923914   4.648   5.997   9.140  0.1396  0.0796 -0.0020
 1476HK4    H1523915   4.686   6.095   9.167  1.7159  0.6758 -3.9604
 1476HK4    C2823916   4.720   5.905   9.065  0.5025 -0.0763  0.5387
 1476HK4    C2723917   4.672   5.774   9.044  0.4060 -0.0244  0.4334
 1476HK4    H1423918   4.737   5.707   8.986  0.5512 -1.2872  2.0270
 1476HK4    C3223919   4.546   5.735   9.086  0.2417  0.0980  0.0462
 1476HK4    H1623920   4.525   5.628   9.088 -0.9881  0.2796 -1.6385
 1476HK4    C3123921   4.468   5.830   9.151  0.3728  0.0577  0.2597
 1476HK4    C3423922   4.336   5.825   9.209  0.1424 -0.1217 -0.2726
 1476HK4    C3323923   4.313   5.951   9.278  0.1807 -0.5290  0.5005
 1476HK4    C3523924   4.199   5.957   9.357 -0.4929  0.0197 -0.4997
 1476HK4    H1723925   4.195   6.037   9.430 -0.9668 -1.2041  0.8370
 1476HK4    C3623926   4.106   5.855   9.373 -0.4321 -0.0145 -0.3731
 1476HK4    H1823927   4.017   5.852   9.437 -0.7312 -1.3195 -0.8282
 1476HK4    C3723928   4.132   5.741   9.297  0.5723 -0.7172  0.9952
 1476HK4    H1923929   4.062   5.657   9.303 -1.5818  0.8674 -1.0121
 1476HK4    C3823930   4.245   5.721   9.219 -0.1073  0.0998 -0.2193
 1476HK4    H2023931   4.276   5.618   9.200  1.6043  0.9620 -2.2232
 1476HK4    C1423932   4.840   5.949   8.992  0.2656 -0.3471 -0.0196
 1476HK4     C923933   4.879   5.892   8.870  0.2887 -0.3009 -0.0330
 1476HK4     C823934   5.017   5.874   8.844  0.3198 -0.0217 -0.0625
 1476HK4    C1123935   5.112   5.924   8.932  0.2338 -0.4160  0.2507
 1476HK4     H423936   5.214   5.883   8.924  0.4891  0.3151 -0.2092
 1476HK4    C1223937   5.076   6.001   9.041 -0.5706 -0.9246  0.3499
 1476HK4     H523938   5.145   6.076   9.082 -1.9551  0.5176  0.1220
 1476HK4    C1323939   4.941   6.004   9.074 -0.4845  0.0348  0.6580
 1476HK4     H623940   4.914   6.060   9.165  0.1367  1.9850 -0.3416
 1476HK4     C723941   5.060   5.806   8.719 -0.3814  0.0661 -0.3584
 1476HK4     O223942   5.179   5.810   8.687 -0.2708 -0.8966 -0.0699
 1476HK4     C423943   4.954   5.756   8.630 -0.1959  0.3358 -0.7377
 1476HK4     C323944   4.996   5.686   8.518  0.5770  0.3976 -0.4844
 1476HK4     H323945   5.105   5.692   8.503  0.8025  1.4458  1.4737
 1476HK4     C223946   4.913   5.597   8.451 -0.0729  0.2121  0.5583
 1476HK4     H223947   4.957   5.555   8.359  1.9813  0.9026  1.2082
 1476HK4     C123948   4.788   5.573   8.506 -0.3923  0.0395 -0.2323
 1476HK4     H123949   4.717   5.516   8.445 -0.1756 -0.4060 -0.0707
 1476HK4     C623950   4.735   5.642   8.618 -0.1827 -0.0415 -0.0805
 1476HK4     C523951   4.820   5.739   8.671  0.0929 -0.3034 -0.0335
 1476HK4    C1023952   4.778   5.836   8.777  0.2609 -0.1954 -0.0645
 1476HK4     O123953   4.674   5.899   8.757  0.3996  0.3016  0.7667
 1476HK4    C1623954   4.640   5.563   8.697  0.0569 -0.2204  0.0283
 1476HK4    C1523955   4.643   5.422   8.692  0.4857 -0.2221  0.2789
 1476HK4     H723956   4.722   5.366   8.641 -0.4946 -2.2295  0.9093
 1476HK4    C2023957   4.541   5.344   8.747  0.0676  0.1546  0.0420
 1476HK4     H923958   4.562   5.237   8.749  2.3491  0.5541 -0.5221
 1476HK4    C1923959   4.425   5.398   8.801  0.2537  0.4375  0.1625
 1476HK4    C1823960   4.415   5.543   8.796  0.2303  0.4213 -0.2896
 1476HK4    C1723961   4.522   5.618   8.748  0.3833  0.4378  0.0810
 1476HK4     H823962   4.509   5.726   8.747 -0.2309  0.3751  0.7552
 1476HK4     N123963   4.293   5.591   8.846  0.1205  0.1506 -0.2945
 1476HK4    C2123964   4.237   5.476   8.905  0.2411  0.2776  0.0754
 1476HK4    C2223965   4.310   5.354   8.876 -0.0150  0.2302 -0.3719
 1476HK4    C2623966   4.260   5.230   8.916  0.4775  0.2296  0.2448
 1476HK4    H1323967   4.317   5.141   8.890  0.0354  0.3462 -1.1715
 1476HK4    C2523968   4.138   5.217   8.981  0.2560  0.3491 -0.1420
 1476HK4    H1223969   4.109   5.128   9.037 -2.1013  0.7584 -0.6505
 1476HK4    C2423970   4.069   5.334   9.011  0.0535  0.0861  0.4299
 1476HK4    H1123971   3.988   5.326   9.085  1.1169 -0.6220  1.5236
 1476HK4    C2323972   4.122   5.459   8.981  0.2767 -0.0974  0.0434
 1476HK4    H1023973   4.078   5.539   9.040 -3.3844 -2.4573  0.6681
 1476HK4    C3923974   4.233   5.707   8.795 -0.6486 -0.2770 -0.3665
 1476HK4    C4123975   4.137   5.770   8.876 -0.0409  0.5629 -0.3050
 1476HK4    H2123976   4.142   5.762   8.986 -1.3471 -0.6310 -0.3134
 1476HK4    C4223977   4.050   5.867   8.829 -0.7159  0.2337  0.2571
 1476HK4    H2223978   3.971   5.912   8.891 -0.5091  1.9874 -0.7184
 1476HK4    C4323979   4.058   5.908   8.697 -0.1486 -0.5488  0.0490
 1476HK4    H2323980   3.984   5.976   8.655  0.7062 -0.7942 -1.9386
 1476HK4    C4423981   4.153   5.848   8.615  0.0101 -0.1462 -0.0625
 1476HK4    H2423982   4.153   5.871   8.507  0.4790  1.0669  0.1951
 1476HK4    C4523983   4.240   5.749   8.661  0.0529 -0.2280 -0.3170
 1476HK4    H2523984   4.316   5.705   8.594  2.6538  1.3295  1.5466
 1477HK4    H2823985   0.994   5.323   2.558 -0.0133  0.3062 -0.0280
 1477HK4    C4823986   0.958   5.224   2.532  0.1361  0.1916  0.1954
 1477HK4    C4723987   1.028   5.112   2.575  0.1435  0.0100 -0.2899
 1477HK4    H2723988   1.125   5.120   2.626 -0.5071  1.2497  0.7674
 1477HK4    C4623989   0.968   4.987   2.570 -0.0571  0.0959 -0.0643
 1477HK4    H2623990   1.013   4.896   2.614 -0.4967  0.4860  1.2101
 1477HK4    C4023991   0.833   4.968   2.534 -0.3011 -0.0104  0.9081
 1477HK4    C5023992   0.765   5.086   2.498  0.0907 -0.2163 -0.5446
 1477HK4    H3023993   0.666   5.077   2.452 -0.3444 -1.9819  0.6443
 1477HK4    C4923994   0.825   5.211   2.493  0.2251 -0.2556  0.0365
 1477HK4    H2923995   0.770   5.306   2.490  0.2465 -0.2835 -1.9214
 1477HK4     N223996   0.785   4.844   2.490  0.5496 -0.1606  0.3979
 1477HK4    C3023997   0.863   4.746   2.425  0.5692 -0.3849  0.7577
 1477HK4    C2923998   0.979   4.760   2.349  0.1295 -0.2158  0.1124
 1477HK4    H1523999   1.017   4.859   2.325  1.9401 -1.3077 -1.6332
 1477HK4    C2824000   1.040   4.646   2.297 -0.0070 -0.1630 -0.1605
 1477HK4    C2724001   0.978   4.522   2.319  0.3912 -0.3533 -0.1037
 1477HK4    H1424002   1.026   4.429   2.283  1.3650  0.2141 -0.2861
 1477HK4    C3224003   0.861   4.505   2.391  0.8774 -0.2082  0.7254
 1477HK4    H1624004   0.823   4.406   2.416 -2.0603  0.3516 -1.1951
 1477HK4    C3124005   0.803   4.617   2.451 -0.2432 -0.2293 -0.2899
 1477HK4    C3424006   0.688   4.631   2.538 -0.4936  0.0633 -0.6702
 1477HK4    C3324007   0.675   4.775   2.546  0.3742  0.0859  0.3553
 1477HK4    C3524008   0.555   4.826   2.595  0.2339  0.0415  0.0553
 1477HK4    H1724009   0.532   4.932   2.597 -0.2587 -0.0550 -0.3456
 1477HK4    C3624010   0.448   4.744   2.627  0.4622 -0.3360 -0.1336
 1477HK4    H1824011   0.347   4.781   2.650  0.4529  1.5580 -2.9890
 1477HK4    C3724012   0.470   4.607   2.630 -0.0444 -0.4154  0.0858
 1477HK4    H1924013   0.385   4.541   2.650 -0.5110  0.2972  0.4966
 1477HK4    C3824014   0.588   4.548   2.588 -0.0455 -0.2033 -0.2150
 1477HK4    H2024015   0.588   4.440   2.570 -2.5385 -0.0485 -1.4029
 1477HK4    C1424016   1.157   4.664   2.210  0.0748 -0.0155 -0.0209
 1477HK4     C924017   1.198   4.568   2.116 -0.2683 -0.6523  0.4821
 1477HK4     C824018   1.336   4.552   2.096 -0.2314 -0.1345  0.3022
 1477HK4    C1124019   1.428   4.645   2.141 -0.1716  0.1200 -0.3395
 1477HK4     H424020   1.530   4.645   2.100 -1.1896  0.3688 -2.9784
 1477HK4    C1224021   1.385   4.756   2.214 -0.1929  0.4742 -0.8902
 1477HK4     H524022   1.462   4.821   2.256  2.6019 -2.3966 -1.3881
 1477HK4    C1324023   1.251   4.761   2.251  0.1692 -0.3463  0.5342
 1477HK4     H624024   1.218   4.841   2.319  0.6266  0.1207  0.2108
 1477HK4     C724025   1.388   4.442   2.011  0.0596  0.2684 -0.0402
 1477HK4     O224026   1.510   4.423   2.010 -0.0078 -0.2035  0.4994
 1477HK4     C424027   1.291   4.352   1.945  0.1797  0.0574  0.0751
 1477HK4     C324028   1.335   4.246   1.867  0.1480 -0.2118  0.4166
 1477HK4     H324029   1.441   4.242   1.837  1.1301 -1.4980  3.8616
 1477HK4     C224030   1.251   4.141   1.831  0.6264 -0.6152  0.4758
 1477HK4     H224031   1.290   4.055   1.775  2.4808  0.8742 -0.6104
 1477HK4     C124032   1.121   4.136   1.879  0.4050 -0.2919 -0.0827
 1477HK4     H124033   1.054   4.053   1.852  0.0664  0.5916 -2.0354
 1477HK4     C624034   1.070   4.245   1.953  0.3199 -0.3542 -0.0499
 1477HK4     C524035   1.153   4.355   1.975  0.2092 -0.3314  0.2604
 1477HK4    C1024036   1.106   4.482   2.037 -0.1468 -0.3306 -0.0142
 1477HK4     O124037   1.013   4.541   1.982 -0.3566 -0.9155 -0.2890
 1477HK4    C1624038   0.961   4.212   2.046  0.3250  0.1492  0.1354
 1477HK4    C1524039   0.967   4.091   2.117  0.0921 -0.1657 -0.3747
 1477HK4     H724040   1.055   4.025   2.125 -2.0241 -2.9394  0.7705
 1477HK4    C2024041   0.850   4.037   2.169 -0.0491  0.0603 -0.4604
 1477HK4     H924042   0.851   3.950   2.235  2.1482  0.6329  0.3174
 1477HK4    C1924043   0.730   4.106   2.164  0.1249  0.4588  0.6070
 1477HK4    C1824044   0.725   4.231   2.090  0.2196  0.1966  0.1533
 1477HK4    C1724045   0.841   4.281   2.031  0.3957  0.3836  0.6533
 1477HK4     H824046   0.835   4.359   1.955  0.2580 -1.9400 -1.8053
 1477HK4     N124047   0.600   4.296   2.097 -0.0234 -0.2580  0.0041
 1477HK4    C2124048   0.523   4.212   2.181  0.0595  0.1270  0.4652
 1477HK4    C2224049   0.599   4.098   2.227 -0.0669 -0.0867  0.1472
 1477HK4    C2624050   0.556   4.027   2.338  0.6828 -0.2785  0.3163
 1477HK4    H1324051   0.608   3.934   2.364 -1.5479 -1.4569  0.7076
 1477HK4    C2524052   0.441   4.067   2.405  0.4293 -0.0232 -0.2717
 1477HK4    H1224053   0.411   4.020   2.498 -2.1969 -0.3901 -1.2731
 1477HK4    C2424054   0.369   4.178   2.364 -0.0247 -0.1753  0.1107
 1477HK4    H1124055   0.290   4.227   2.424  0.6614  1.7216 -0.4780
 1477HK4    C2324056   0.409   4.249   2.251 -0.2369 -0.0821  0.0949
 1477HK4    H1024057   0.347   4.324   2.202  1.3526  0.3066 -1.3669
 1477HK4    C3924058   0.546   4.382   2.000  0.4664  0.2541  0.1859
 1477HK4    C4124059   0.592   4.376   1.867  0.5833 -0.0394  0.2370
 1477HK4    H2124060   0.670   4.303   1.843  0.5018 -0.4946  1.3083
 1477HK4    C4224061   0.548   4.456   1.762 -0.1247 -0.9070 -0.1321
 1477HK4    H2224062   0.561   4.418   1.660 -0.6161 -1.6170  0.0599
 1477HK4    C4324063   0.457   4.557   1.791  0.6128 -0.4096  0.4744
 1477HK4    H2324064   0.408   4.617   1.714 -0.2771 -1.4741  0.1920
 1477HK4    C4424065   0.411   4.568   1.921 -0.1866 -0.3416  0.1910
 1477HK4    H2424066   0.341   4.647   1.952  0.9978  0.2888  1.3091
 1477HK4    C4524067   0.450   4.482   2.023 -0.0928 -0.2802  0.2064
 1477HK4    H2524068   0.417   4.499   2.127  1.8347 -1.6873  1.0776
 1478HK4    H2824069   3.275   8.648   8.513  0.5538  0.7907 -0.4302
 1478HK4    C4824070   3.173   8.661   8.549  0.5659 -0.3002 -0.0139
 1478HK4    C4724071   3.093   8.763   8.500  0.3818 -0.4206  0.0300
 1478HK4    H2724072   3.137   8.843   8.439 -0.2084  0.6083  0.9373
 1478HK4    C4624073   2.958   8.774   8.532  0.4149 -0.1553  0.0787
 1478HK4    H2624074   2.910   8.870   8.509 -1.2782 -0.7367  1.1029
 1478HK4    C4024075   2.894   8.674   8.608 -0.0180  0.0342 -0.0406
 1478HK4    C5024076   2.977   8.570   8.654 -0.1834 -0.0458  0.0822
 1478HK4    H3024077   2.929   8.487   8.708 -0.2129 -0.9039 -1.2189
 1478HK4    C4924078   3.114   8.564   8.630 -0.2009  0.1294 -0.0606
 1478HK4    H2924079   3.174   8.483   8.675  0.3551  1.3218  1.3795
 1478HK4     N224080   2.757   8.684   8.634 -0.1923 -0.6557 -0.6783
 1478HK4    C3024081   2.667   8.757   8.553 -0.1329 -0.0289 -0.1812
 1478HK4    C2924082   2.657   8.775   8.415 -0.3559 -0.4291 -0.2194
 1478HK4    H1524083   2.734   8.754   8.342 -1.4849  0.0637 -1.5635
 1478HK4    C2824084   2.537   8.821   8.361 -0.3365 -0.4892 -0.3139
 1478HK4    C2724085   2.432   8.870   8.442  0.1593  0.2111 -0.0909
 1478HK4    H1424086   2.331   8.890   8.404  0.3823 -0.4758 -1.0825
 1478HK4    C3224087   2.450   8.868   8.580  0.0566  0.0923 -0.0800
 1478HK4    H1624088   2.367   8.900   8.642 -0.4635  1.6856 -1.5407
 1478HK4    C3124089   2.565   8.815   8.637 -0.0599 -0.1132 -0.0376
 1478HK4    C3424090   2.601   8.785   8.774 -0.0585 -0.1032 -0.0353
 1478HK4    C3324091   2.707   8.686   8.766  0.5313  0.5612 -0.4262
 1478HK4    C3524092   2.739   8.614   8.880 -0.2416  0.3527 -0.3412
 1478HK4    H1724093   2.834   8.561   8.883 -1.0453 -1.0489  1.2327
 1478HK4    C3624094   2.672   8.637   9.000 -0.4008  0.1698 -0.3946
 1478HK4    H1824095   2.685   8.567   9.084  2.9377  0.8980 -0.2242
 1478HK4    C3724096   2.573   8.734   9.008  0.2326  0.8083 -0.2614
 1478HK4    H1924097   2.519   8.746   9.102 -1.4429  0.3740 -1.1600
 1478HK4    C3824098   2.536   8.807   8.895 -0.5419  0.2554 -0.3609
 1478HK4    H2024099   2.452   8.876   8.900 -1.3976 -0.5602 -2.8037
 1478HK4    C1424100   2.522   8.838   8.216  0.4223  0.1960 -0.3160
 1478HK4     C924101   2.436   8.931   8.157 -0.0542 -0.1828 -0.2164
 1478HK4     C824102   2.350   8.889   8.053 -0.3814 -0.3915  0.1307
 1478HK4    C1124103   2.347   8.755   8.018 -0.5686 -0.1957 -0.6022
 1478HK4     H424104   2.268   8.718   7.950  0.3422  2.4780 -3.2355
 1478HK4    C1224105   2.444   8.667   8.063 -0.5908  0.1490  0.1177
 1478HK4     H524106   2.451   8.562   8.032  1.2320  0.4163 -0.4387
 1478HK4    C1324107   2.536   8.710   8.158 -0.0867  0.1714 -0.3859
 1478HK4     H624108   2.613   8.646   8.204 -0.3673  1.1831  1.5373
 1478HK4     C724109   2.305   8.990   7.954  0.1245 -0.2222  0.0725
 1478HK4     O224110   2.200   8.974   7.892  0.4446  0.0826 -0.5592
 1478HK4     C424111   2.367   9.124   7.959 -0.8696  0.2206  0.5744
 1478HK4     C324112   2.368   9.194   7.838  0.8017 -0.1457  0.3697
 1478HK4     H324113   2.321   9.158   7.745 -4.2430 -0.0819  2.7046
 1478HK4     C224114   2.409   9.326   7.839 -0.1914  0.1610  0.2602
 1478HK4     H224115   2.411   9.384   7.745 -0.8262 -0.9001 -0.4191
 1478HK4     C124116   2.449   9.383   7.959  0.0834 -0.0177  0.2542
 1478HK4     H124117   2.470   9.490   7.966  1.2952 -0.1520 -1.1857
 1478HK4     C624118   2.438   9.315   8.082 -0.9523 -0.0212  0.1649
 1478HK4     C524119   2.415   9.177   8.080 -0.6600 -0.0784  0.6207
 1478HK4    C1024120   2.464   9.076   8.179  0.3494 -0.2782 -0.0788
 1478HK4     O124121   2.554   9.111   8.254 -0.1423  0.2443  0.2692
 1478HK4    C1624122   2.438   9.398   8.203 -0.4936  0.6725 -0.3064
 1478HK4    C1524123   2.362   9.360   8.316  0.7205 -0.3367  0.1790
 1478HK4     H724124   2.315   9.260   8.313  0.7910 -0.3373 -1.8715
 1478HK4    C2024125   2.370   9.429   8.436  0.0493 -0.2648  0.1848
 1478HK4     H924126   2.304   9.403   8.519 -0.7553  0.4072 -0.2321
 1478HK4    C1924127   2.454   9.539   8.451 -0.1785 -0.0248 -0.2611
 1478HK4    C1824128   2.533   9.577   8.336  0.3637 -0.1411  0.0677
 1478HK4    C1724129   2.528   9.503   8.218 -0.0180  0.2429 -0.1641
 1478HK4     H824130   2.606   9.512   8.143 -1.1236  3.3819 -1.0008
 1478HK4     N124131   2.623   9.683   8.360 -0.3745  0.4322  0.2979
 1478HK4    C2124132   2.618   9.698   8.500 -0.0951 -0.0412  0.3611
 1478HK4    C2224133   2.507   9.623   8.557 -0.6990  0.3495 -0.2986
 1478HK4    C2624134   2.473   9.628   8.691  0.3090 -0.3474 -0.0159
 1478HK4    H1324135   2.375   9.585   8.711 -0.8748  1.9109 -0.9201
 1478HK4    C2524136   2.550   9.702   8.780  0.3403 -0.1054 -0.2483
 1478HK4    H1224137   2.517   9.721   8.881  1.1170 -0.6835  0.1243
 1478HK4    C2424138   2.656   9.774   8.726 -0.1185  0.5865 -0.2339
 1478HK4    H1124139   2.737   9.802   8.795  0.8311  0.6494 -1.3498
 1478HK4    C2324140   2.689   9.776   8.591  0.1407  0.3683 -0.1752
 1478HK4    H1024141   2.759   9.853   8.557 -1.8767  1.1402 -2.7468
 1478HK4    C3924142   2.657   9.780   8.265  0.2844 -0.1489 -0.0629
 1478HK4    C4124143   2.775   9.852   8.294 -0.2007  0.4674  0.4257
 1478HK4    H2124144   2.840   9.820   8.377 -0.5748 -2.1479 -0.2122
 1478HK4    C4224145   2.817   9.959   8.216  0.8936 -0.1354  0.1767
 1478HK4    H2224146   2.900  10.021   8.253  1.7880 -3.1986  3.6715
 1478HK4    C4324147   2.739   9.986   8.105  0.5783 -0.1954  0.3843
 1478HK4    H2324148   2.773  10.071   8.046  3.6205 -2.0306 -0.5936
 1478HK4    C4424149   2.624   9.916   8.068  0.0713  0.6822  0.2758
 1478HK4    H2424150   2.598   9.918   7.961 -1.2803  1.2720  0.6073
 1478HK4    C4524151   2.583   9.811   8.149  0.4115  0.3147 -0.0235
 1478HK4    H2524152   2.498   9.745   8.126  0.6324 -0.5693  1.6070
 1479HK4    H2824153   8.177   9.021  10.046 -0.0019 -0.7839  0.1538
 1479HK4    C4824154   8.273   9.013  10.098  0.1707 -0.1960 -0.0705
 1479HK4    C4724155   8.388   9.069  10.044  0.2045  0.2161  0.4232
 1479HK4    H2724156   8.382   9.104   9.940  0.3159 -1.6663 -0.2440
 1479HK4    C4624157   8.499   9.093  10.123  0.2840  0.0959  0.3540
 1479HK4    H2624158   8.569   9.175  10.097  0.3336  0.1195  0.5605
 1479HK4    C4024159   8.508   9.037  10.252  0.1528 -0.0476  0.3009
 1479HK4    C5024160   8.395   8.969  10.301 -0.0926  0.0839 -0.0788
 1479HK4    H3024161   8.387   8.948  10.409  3.3055  0.7181  0.3329
 1479HK4    C4924162   8.276   8.966  10.229 -0.0030 -0.5788 -0.2035
 1479HK4    H2924163   8.193   8.906  10.268 -1.2531  1.9580  1.1101
 1479HK4     N224164   8.634   9.043  10.313  0.2591  1.0914 -0.0079
 1479HK4    C3024165   8.656   9.055  10.452 -0.2129 -0.1141  0.1767
 1479HK4    C2924166   8.574   9.095  10.557 -0.2535  0.0064  0.1017
 1479HK4    H1524167   8.480   9.143  10.529  0.0480 -0.3639 -1.6235
 1479HK4    C2824168   8.609   9.082  10.691 -0.4354 -0.0405  0.1439
 1479HK4    C2724169   8.743   9.045  10.717 -0.0957  1.0398 -0.0605
 1479HK4    H1424170   8.778   9.034  10.820 -1.5429  1.1824  0.4661
 1479HK4    C3224171   8.831   9.015  10.614 -0.3630 -0.4765  0.1449
 1479HK4    H1624172   8.935   8.989  10.636  0.5342  1.1826 -1.9741
 1479HK4    C3124173   8.790   9.009  10.482 -0.3420 -0.5139  0.1402
 1479HK4    C3424174   8.856   8.975  10.357 -0.2795  0.0525  0.0197
 1479HK4    C3324175   8.751   8.987  10.258 -0.4184 -0.4688  0.1076
 1479HK4    C3524176   8.772   8.946  10.127  0.2313 -0.0950  0.0912
 1479HK4    H1724177   8.693   8.957  10.053 -0.7478 -2.5408  0.7232
 1479HK4    C3624178   8.891   8.883  10.093 -0.0216 -0.5657  0.0543
 1479HK4    H1824179   8.898   8.828   9.999 -3.4791  0.2481 -0.7310
 1479HK4    C3724180   8.989   8.864  10.191  0.1852  0.4344  0.0479
 1479HK4    H1924181   9.082   8.814  10.163  0.5654  0.8035  0.6341
 1479HK4    C3824182   8.974   8.910  10.321 -0.4638 -0.4401  0.2911
 1479HK4    H2024183   9.048   8.899  10.400 -1.9298 -0.2370  1.7351
 1479HK4    C1424184   8.519   9.134  10.795 -0.3441  0.0739  0.1670
 1479HK4     C924185   8.557   9.181  10.921  0.3553 -0.1962  0.0576
 1479HK4     C824186   8.482   9.151  11.036  0.1612 -0.5366 -0.1591
 1479HK4    C1124187   8.363   9.083  11.013 -0.2273  0.0610  0.0711
 1479HK4     H424188   8.308   9.063  11.107  1.3685 -2.0319  0.5952
 1479HK4    C1224189   8.323   9.033  10.890 -0.0443 -0.4455  0.2163
 1479HK4     H524190   8.230   8.976  10.872 -0.8410  1.5438 -2.1120
 1479HK4    C1324191   8.398   9.063  10.777 -0.0883 -0.3704  0.2067
 1479HK4     H624192   8.370   9.017  10.681  0.6691 -1.9960  0.7316
 1479HK4     C724193   8.504   9.221  11.165 -0.5579 -0.5334 -0.0335
 1479HK4     O224194   8.462   9.180   0.024  0.5619 -0.3576  0.4832
 1479HK4     C424195   8.599   9.335  11.161 -0.7720 -0.3610 -0.2484
 1479HK4     C324196   8.597   9.435   0.010  0.6463 -0.7877  0.2257
 1479HK4     H324197   8.519   9.444   0.087 -0.9341  1.2220 -1.5620
 1479HK4     C224198   8.695   9.534   0.012 -0.1557  0.0196 -0.2122
 1479HK4     H224199   8.686   9.623   0.075  2.3992  0.7230 -0.8064
 1479HK4     C124200   8.804   9.516  11.176 -0.0926  0.5686 -0.2435
 1479HK4     H124201   8.880   9.595  11.186  0.7244 -0.3688  1.1999
 1479HK4     C624202   8.821   9.407  11.089 -0.0668 -0.0843  0.5830
 1479HK4     C524203   8.706   9.329  11.070 -0.3606  0.4540  0.1779
 1479HK4    C1024204   8.665   9.283  10.934 -0.5363  0.7496  0.1327
 1479HK4     O124205   8.682   9.356  10.836  0.2910  0.6077  0.1672
 1479HK4    C1624206   8.951   9.374  11.029 -0.2703  0.3753 -0.1084
 1479HK4    C1524207   8.970   9.246  10.973  0.2976  0.4143 -0.0098
 1479HK4     H724208   8.909   9.167  11.020 -0.8996  1.0696 -0.4421
 1479HK4    C2024209   9.077   9.212  10.891  0.5635 -0.0251  0.5214
 1479HK4     H924210   9.067   9.119  10.835  0.3223 -0.7771  1.7892
 1479HK4    C1924211   9.168   9.309  10.852  0.2817  0.2427  0.5340
 1479HK4    C1824212   9.154   9.438  10.918  0.3531  0.2760  0.4886
 1479HK4    C1724213   9.045   9.472  10.997  0.3160  0.0316  0.5441
 1479HK4     H824214   9.033   9.578  11.021 -0.7245 -0.5221  2.5978
 1479HK4     N124215   9.278   9.505  10.911  0.2369  0.3336 -1.0377
 1479HK4    C2124216   9.355   9.432  10.818  0.5045 -0.3274 -0.2991
 1479HK4    C2224217   9.297   9.304  10.786  0.0723 -0.2479  0.1671
 1479HK4    C2624218   9.361   9.221  10.695  0.0657  0.2458 -0.2868
 1479HK4    H1324219   9.310   9.136  10.650 -0.6251  0.1195  0.7380
 1479HK4    C2524220   9.485   9.262  10.646 -0.1225  0.4794 -0.5787
 1479HK4    H1224221   9.542   9.195  10.583 -0.5169 -0.3890 -0.0262
 1479HK4    C2424222   9.543   9.384  10.680 -0.2574  0.2904  0.3483
 1479HK4    H1124223   9.645   9.394  10.638 -0.9056  0.1007 -1.3139
 1479HK4    C2324224   9.478   9.471  10.766  0.7405  0.5260  0.8679
 1479HK4    H1024225   9.500   9.577  10.772  0.5707  0.5737  0.6397
 1479HK4    C3924226   9.299   9.631  10.969  0.1634 -0.0664 -0.1442
 1479HK4    C4124227   9.426   9.652  11.025 -0.0502  0.2643  0.2251
 1479HK4    H2124228   9.494   9.570  11.054  2.0091  0.8826 -2.6999
 1479HK4    C4224229   9.457   9.781  11.067 -0.5107  0.3627  0.2610
 1479HK4    H2224230   9.558   9.798  11.105 -0.3350  2.5829 -1.0763
 1479HK4    C4324231   9.372   9.891  11.056 -0.1981  0.6586  0.8429
 1479HK4    H2324232   9.420   9.988  11.048  1.8123 -0.1133  2.7040
 1479HK4    C4424233   9.253   9.867  10.990  0.5822 -0.1309 -0.3089
 1479HK4    H2424234   9.186   9.955  10.986  0.7773  0.0783  0.7868
 1479HK4    C4524235   9.213   9.741  10.948  0.1145 -0.0786 -0.0192
 1479HK4    H2524236   9.130   9.723  10.879 -1.8816  0.4896  2.1639
 1480HK4    H2824237   4.850   0.553   9.861  0.1843  0.2291 -0.4355
 1480HK4    C4824238   4.928   0.485   9.827  0.0215 -0.2898  0.2248
 1480HK4    C4724239   4.919   0.347   9.839  0.4265 -0.3128  0.2715
 1480HK4    H2724240   4.830   0.308   9.892  0.7768 -1.2312  0.2041
 1480HK4    C4624241   5.028   0.266   9.807 -0.0196 -0.6496 -0.4017
 1480HK4    H2624242   5.004   0.162   9.782 -1.4329 -1.1652  2.7768
 1480HK4    C4024243   5.152   0.316   9.763 -0.1804  0.1211 -0.0031
 1480HK4    C5024244   5.159   0.457   9.766  0.2081  0.1149 -0.5001
 1480HK4    H3024245   5.254   0.510   9.747  1.8663 -0.8984  4.1719
 1480HK4    C4924246   5.051   0.540   9.794  0.2228 -0.3207  0.9117
 1480HK4    H2924247   5.054   0.650   9.796 -1.3613 -0.1479 -2.4073
 1480HK4     N224248   5.274   0.252   9.737 -0.4078 -0.1222 -0.4951
 1480HK4    C3024249   5.302   0.124   9.789 -0.5794 -0.1554 -0.4852
 1480HK4    C2924250   5.232   0.040   9.874 -0.6235 -0.0462 -0.4125
 1480HK4    H1524251   5.153   0.078   9.940 -0.1495 -1.5040  1.0316
 1480HK4    C2824252   5.257  11.152   9.890  0.1061  0.1742  0.3360
 1480HK4    C2724253   5.367  11.092   9.826 -0.0918  0.0838  0.0786
 1480HK4    H1424254   5.390  10.986   9.842 -0.1668  0.0385 -0.1311
 1480HK4    C3224255   5.443  11.175   9.744  0.5753  0.2642  0.8787
 1480HK4    H1624256   5.515  11.120   9.683  0.2314  0.3915  0.3578
 1480HK4    C3124257   5.416   0.062   9.724  0.1704  0.1358  0.5477
 1480HK4    C3424258   5.460   0.159   9.626  0.7978 -0.1085  0.5823
 1480HK4    C3324259   5.366   0.270   9.632  0.1725 -0.5979 -0.0708
 1480HK4    C3524260   5.375   0.357   9.524 -0.2477 -0.5158 -0.0406
 1480HK4    H1724261   5.320   0.451   9.532  0.1190 -0.5200  3.2070
 1480HK4    C3624262   5.469   0.342   9.423 -0.4628 -0.4460 -0.2508
 1480HK4    H1824263   5.463   0.411   9.337  0.3215  1.2994  1.0427
 1480HK4    C3724264   5.573   0.250   9.431 -0.2340 -0.2075 -0.4921
 1480HK4    H1924265   5.659   0.263   9.364 -0.5200 -2.4892 -1.3481
 1480HK4    C3824266   5.564   0.158   9.534  0.7828  0.8526  0.5519
 1480HK4    H2024267   5.639   0.079   9.534  0.2694  0.3571 -0.7902
 1480HK4    C1424268   5.180  11.084   9.996 -0.3464 -0.2327 -0.2520
 1480HK4     C924269   5.218  11.005  10.105  0.2183  0.2620 -0.0931
 1480HK4     C824270   5.131  10.913  10.167  0.4389  0.2515  0.2101
 1480HK4    C1124271   5.005  10.905  10.110  0.3780  0.8811  0.2639
 1480HK4     H424272   4.928  10.845  10.160 -1.0830 -0.1287 -3.0117
 1480HK4    C1224273   4.958  10.975   9.999 -0.3243 -0.2080 -0.1364
 1480HK4     H524274   4.875  10.938   9.936  0.2729 -1.7337 -0.0439
 1480HK4    C1324275   5.048  11.069   9.949 -0.6660  0.4240  0.4335
 1480HK4     H624276   5.018  11.133   9.865  0.8805 -1.1151 -1.3319
 1480HK4     C724277   5.159  10.860  10.302 -0.2470  0.0900  0.2886
 1480HK4     O224278   5.079  10.777  10.344 -0.4896 -0.2592 -0.8408
 1480HK4     C424279   5.291  10.886  10.363  0.0084 -0.4153 -0.0521
 1480HK4     C324280   5.312  10.849  10.495  0.0902 -0.0629  0.0351
 1480HK4     H324281   5.227  10.819  10.557 -0.1227 -1.6836 -1.0111
 1480HK4     C224282   5.434  10.883  10.552 -0.2306  0.5541  0.3562
 1480HK4     H224283   5.441  10.886  10.662 -1.2930  2.1339  0.4006
 1480HK4     C124284   5.538  10.924  10.470 -0.0015 -0.2778  0.2288
 1480HK4     H124285   5.633  10.970  10.501 -0.3980  1.3389 -0.9302
 1480HK4     C624286   5.528  10.936  10.330 -0.0102 -0.2415  0.2317
 1480HK4     C524287   5.396  10.938  10.283 -0.0495  0.3352  0.3545
 1480HK4    C1024288   5.355  11.015  10.162  0.2594 -0.2217 -0.1039
 1480HK4     O124289   5.426  11.112  10.135  0.7066 -0.6018 -0.3124
 1480HK4    C1624290   5.644  10.906  10.245  0.1634 -0.1769  0.4442
 1480HK4    C1524291   5.638  10.874  10.107  0.1799  0.5771  0.2666
 1480HK4     H724292   5.542  10.889  10.056 -0.0354 -1.7145 -0.0165
 1480HK4    C2024293   5.742  10.823  10.030 -0.4025 -0.0460 -0.1043
 1480HK4     H924294   5.730  10.819   9.922 -1.8482 -2.1033  0.0975
 1480HK4    C1924295   5.863  10.798  10.092 -0.1823  0.3878 -0.3547
 1480HK4    C1824296   5.884  10.846  10.227 -0.0726  0.4095 -0.3797
 1480HK4    C1724297   5.772  10.889  10.297  0.2263  0.0184  0.3524
 1480HK4     H824298   5.776  10.867  10.403 -1.6230 -1.0675  0.2247
 1480HK4     N124299   6.021  10.847  10.261 -0.1414  0.0716 -0.0818
 1480HK4    C2124300   6.085  10.808  10.141  0.2809 -0.0601  0.1815
 1480HK4    C2224301   5.993  10.763  10.039  0.0342  0.2381  0.2706
 1480HK4    C2624302   6.030  10.699   9.921  0.0983  0.2302  0.2914
 1480HK4    H1324303   5.960  10.630   9.875  3.1308 -1.4535 -2.0272
 1480HK4    C2524304   6.165  10.694   9.886 -0.0238 -0.4080 -0.0868
 1480HK4    H1224305   6.198  10.667   9.786 -0.7006  0.6318 -0.6044
 1480HK4    C2424306   6.255  10.740   9.981  0.1517 -0.1291 -0.3893
 1480HK4    H1124307   6.358  10.704   9.970 -0.5538 -1.8771 -1.4610
 1480HK4    C2324308   6.218  10.789  10.106  0.1399  0.3447 -0.5760
 1480HK4    H1024309   6.302  10.822  10.168 -0.1505 -1.9144  1.0917
 1480HK4    C3924310   6.087  10.930  10.353  0.1551 -0.0916 -0.1482
 1480HK4    C4124311   6.212  10.899  10.411  0.3031  0.2954 -0.2636
 1480HK4    H2124312   6.229  10.791  10.420 -2.0025 -0.0956 -0.3256
 1480HK4    C4224313   6.276  10.977  10.507 -0.0694  0.5850 -0.2491
 1480HK4    H2224314   6.366  10.939  10.558  0.3831  2.2145  0.2054
 1480HK4    C4324315   6.222  11.098  10.548 -0.2728  0.3696  0.1288
 1480HK4    H2324316   6.284  11.164  10.609  0.7814  0.5837 -1.1544
 1480HK4    C4424317   6.098  11.132  10.495 -0.3458 -0.2498 -0.0941
 1480HK4    H2424318   6.038  11.215  10.535 -0.4064 -1.3757  2.2037
 1480HK4    C4524319   6.036  11.052  10.400 -0.0211 -0.0309 -0.4930
 1480HK4    H2524320   5.942  11.089  10.356  0.0176 -0.8161 -1.2592
 1481HK4    H2824321   5.866   1.828   8.670 -1.3118 -1.4854 -1.8544
 1481HK4    C4824322   5.785   1.900   8.665 -0.3492 -0.2241  0.1478
 1481HK4    C4724323   5.768   1.973   8.548 -0.2436  0.0224  0.2859
 1481HK4    H2724324   5.839   1.962   8.465  1.1911 -0.1549  1.5113
 1481HK4    C4624325   5.667   2.068   8.534 -0.3121 -0.1130 -0.1298
 1481HK4    H2624326   5.638   2.109   8.436 -2.2191 -0.2335  0.3638
 1481HK4    C4024327   5.572   2.083   8.636 -0.1836 -0.7178  0.0791
 1481HK4    C5024328   5.600   2.011   8.755 -0.6597 -0.4765  0.3405
 1481HK4    H3024329   5.567   2.068   8.843 -0.7318 -0.5785  0.3796
 1481HK4    C4924330   5.699   1.916   8.773 -0.6374 -0.5276 -0.0322
 1481HK4    H2924331   5.698   1.844   8.857 -1.4474  0.4415  0.8033
 1481HK4     N224332   5.475   2.184   8.635 -0.1373 -0.6804 -0.6673
 1481HK4    C3024333   5.476   2.310   8.571 -0.0648  0.1312  0.9027
 1481HK4    C2924334   5.582   2.376   8.510 -0.4501  0.0116  0.0982
 1481HK4    H1524335   5.682   2.338   8.531 -0.0087  0.2626 -1.4752
 1481HK4    C2824336   5.560   2.494   8.440  0.2514  0.0862  0.0020
 1481HK4    C2724337   5.432   2.552   8.444  0.2178  0.0089  0.0406
 1481HK4    H1424338   5.409   2.629   8.369 -1.3368 -1.0739 -0.6340
 1481HK4    C3224339   5.325   2.492   8.510 -0.2028 -0.0716 -0.7030
 1481HK4    H1624340   5.226   2.537   8.519  0.6323  2.0591 -1.8477
 1481HK4    C3124341   5.343   2.368   8.572  0.1143  0.5414  0.4570
 1481HK4    C3424342   5.260   2.278   8.648 -0.4133 -0.1026 -0.8649
 1481HK4    C3324343   5.345   2.167   8.688 -0.1831  0.2122 -0.4853
 1481HK4    C3524344   5.296   2.070   8.775  0.0207  0.7710  0.2564
 1481HK4    H1724345   5.353   1.985   8.811  0.5577  1.1583  0.3280
 1481HK4    C3624346   5.165   2.073   8.820 -0.1100 -0.2380 -0.0562
 1481HK4    H1824347   5.116   1.993   8.878 -2.1154 -0.5219 -2.0673
 1481HK4    C3724348   5.083   2.176   8.775 -0.2147 -0.3791 -0.1858
 1481HK4    H1924349   4.977   2.174   8.803  0.1953  2.7680  1.7266
 1481HK4    C3824350   5.131   2.282   8.699 -0.0079 -0.2144  0.1796
 1481HK4    H2024351   5.062   2.358   8.661  1.0653  0.6546 -0.0477
 1481HK4    C1424352   5.678   2.573   8.402  0.2931 -0.1405 -0.3412
 1481HK4     C924353   5.690   2.712   8.404 -0.4156 -0.0809 -0.0973
 1481HK4     C824354   5.773   2.777   8.310  0.1159  0.0986  0.4933
 1481HK4    C1124355   5.849   2.703   8.221  0.1666 -0.0808  0.6865
 1481HK4     H424356   5.918   2.740   8.144 -0.2529 -1.3869 -0.3386
 1481HK4    C1224357   5.837   2.564   8.221  0.3605 -0.0999 -0.2932
 1481HK4     H524358   5.905   2.510   8.153 -0.5135 -0.1275 -1.1567
 1481HK4    C1324359   5.752   2.498   8.308  0.4890 -0.1338 -0.1926
 1481HK4     H624360   5.754   2.388   8.313  2.4390 -0.0624  0.8365
 1481HK4     C724361   5.787   2.924   8.297  0.1963  0.0537  0.0687
 1481HK4     O224362   5.843   2.977   8.201 -0.1460 -0.1006 -0.2120
 1481HK4     C424363   5.718   3.003   8.401  0.4023 -0.1595  0.3683
 1481HK4     C324364   5.731   3.141   8.393  0.5914 -0.2024 -0.0564
 1481HK4     H324365   5.822   3.192   8.360 -0.9477  1.5046 -1.7579
 1481HK4     C224366   5.646   3.220   8.469 -0.1582 -0.4728 -0.6062
 1481HK4     H224367   5.656   3.330   8.470  0.3952 -0.5097 -1.3898
 1481HK4     C124368   5.546   3.162   8.545 -0.3253  0.0853 -0.3955
 1481HK4     H124369   5.477   3.234   8.591  1.0945  1.9085 -1.0599
 1481HK4     C624370   5.533   3.022   8.561  0.0093  0.0891 -0.0712
 1481HK4     C524371   5.624   2.944   8.489  0.1974  0.0044  0.2570
 1481HK4    C1024372   5.618   2.796   8.504 -0.1257 -0.0038  0.0488
 1481HK4     O124373   5.617   2.757   8.620  0.2847  0.4898  0.2163
 1481HK4    C1624374   5.396   2.969   8.573  0.0630  0.0639  0.4245
 1481HK4    C1524375   5.291   3.026   8.498  0.2205 -0.4979 -0.2290
 1481HK4     H724376   5.315   3.100   8.420 -0.5659 -0.0866 -0.0831
 1481HK4    C2024377   5.158   2.991   8.516  0.1680 -0.3555 -0.3275
 1481HK4     H924378   5.074   3.049   8.479  0.1064  1.2920  2.2519
 1481HK4    C1924379   5.127   2.884   8.600  0.2520 -0.3358 -0.2690
 1481HK4    C1824380   5.229   2.834   8.691  0.0355 -0.1431  0.0785
 1481HK4    C1724381   5.358   2.884   8.675  0.0037  0.0362  0.3815
 1481HK4     H824382   5.422   2.880   8.763 -1.0491 -1.4592  1.1179
 1481HK4     N124383   5.170   2.727   8.762 -0.2798  0.1855  0.3167
 1481HK4    C2124384   5.034   2.722   8.725 -0.2085  0.0142  0.0774
 1481HK4    C2224385   4.999   2.819   8.622  0.0235  0.2819  0.2506
 1481HK4    C2624386   4.869   2.850   8.587  0.2214  0.3828 -0.4005
 1481HK4    H1324387   4.843   2.923   8.511 -1.6532 -0.0593 -0.2212
 1481HK4    C2524388   4.764   2.793   8.659  0.4916  0.9537  0.4528
 1481HK4    H1224389   4.661   2.803   8.625  0.2199 -1.0004  0.6340
 1481HK4    C2424390   4.793   2.701   8.760 -0.4289  0.1524 -0.0028
 1481HK4    H1124391   4.706   2.657   8.810  0.6314 -2.1932 -0.1669
 1481HK4    C2324392   4.924   2.664   8.786 -0.4405 -0.4030 -0.7237
 1481HK4    H1024393   4.947   2.567   8.831  1.0555 -0.4151 -1.4707
 1481HK4    C3924394   5.235   2.648   8.857  0.5412  0.0994 -0.3042
 1481HK4    C4124395   5.172   2.584   8.966  0.3078  0.4051 -0.2612
 1481HK4    H2124396   5.086   2.638   9.010  2.1502  2.3764  1.0048
 1481HK4    C4224397   5.227   2.471   9.025 -0.3158  0.0324 -0.3918
 1481HK4    H2224398   5.184   2.439   9.121  0.9621 -0.3683  0.0501
 1481HK4    C4324399   5.346   2.416   8.979 -0.1525 -0.2464  0.3500
 1481HK4    H2324400   5.394   2.330   9.025 -0.4954 -0.3334  0.5488
 1481HK4    C4424401   5.416   2.483   8.879 -0.6942  0.0009  0.1280
 1481HK4    H2424402   5.518   2.449   8.853  0.3618  1.9473  1.5685
 1481HK4    C4524403   5.361   2.596   8.820  0.3731  0.0460 -0.8103
 1481HK4    H2524404   5.417   2.628   8.732  2.1478  0.6632  0.5148
 1482HK4    H2824405  10.432   5.992   1.843  0.2985  0.3395 -0.4575
 1482HK4    C4824406  10.391   5.998   1.944  0.2173 -0.0965 -0.4677
 1482HK4    C4724407  10.270   5.940   1.980  0.4542 -0.1661  0.2266
 1482HK4    H2724408  10.243   5.843   1.938 -0.6006 -0.3059  1.1889
 1482HK4    C4624409  10.194   5.992   2.085 -0.0464 -0.3591 -0.0412
 1482HK4    H2624410  10.098   5.945   2.112 -0.3306 -1.5539 -2.9799
 1482HK4    C4024411  10.248   6.096   2.162 -0.2423  0.0136 -0.4070
 1482HK4    C5024412  10.372   6.151   2.123 -0.1537 -0.1194 -0.3090
 1482HK4    H3024413  10.407   6.245   2.168  0.7348 -1.0395  0.9184
 1482HK4    C4924414  10.447   6.102   2.017 -0.1440  0.0319 -0.3723
 1482HK4    H2924415  10.545   6.149   1.998 -0.4773  0.9485  0.1370
 1482HK4     N224416  10.200   6.129   2.290 -0.1142 -0.1430 -0.3177
 1482HK4    C3024417  10.124   6.047   2.375 -0.2652  0.1461 -0.1722
 1482HK4    C2924418  10.137   5.910   2.398 -0.3670  0.2503  0.5197
 1482HK4    H1524419  10.182   5.852   2.317 -0.4477  0.8686  0.0257
 1482HK4    C2824420  10.084   5.845   2.509 -0.5351 -0.3313  0.0994
 1482HK4    C2724421  10.005   5.926   2.592 -0.3316  0.0205 -0.0503
 1482HK4    H1424422   9.951   5.877   2.674 -1.1446  1.3852  0.2374
 1482HK4    C3224423   9.985   6.062   2.570 -0.2974  0.0312 -0.0257
 1482HK4    H1624424   9.920   6.123   2.633  0.4028  0.0308  0.6961
 1482HK4    C3124425  10.045   6.129   2.464 -0.1637  0.0120  0.0373
 1482HK4    C3424426  10.077   6.268   2.436  0.1322  0.0117  0.3726
 1482HK4    C3324427  10.177   6.262   2.331 -0.5740 -0.2310 -0.2918
 1482HK4    C3524428  10.215   6.388   2.285 -0.4998 -0.1269  0.0580
 1482HK4    H1724429  10.280   6.398   2.198  1.4728  3.3390  1.8112
 1482HK4    C3624430  10.170   6.508   2.340  0.1197  0.0971  0.0763
 1482HK4    H1824431  10.210   6.604   2.304  1.5204 -0.1236  1.0063
 1482HK4    C3724432  10.074   6.512   2.440 -0.1541 -0.2442 -0.1697
 1482HK4    H1924433  10.036   6.610   2.471  1.3824  0.7829 -1.4341
 1482HK4    C3824434  10.033   6.389   2.488  0.0694 -0.0631  0.4888
 1482HK4    H2024435   9.984   6.393   2.586  1.3567 -3.7663  1.3823
 1482HK4    C1424436  10.068   5.699   2.500  0.1957 -0.4237  0.2059
 1482HK4     C924437   9.953   5.630   2.540 -0.1097 -0.3152 -0.4687
 1482HK4     C824438   9.965   5.497   2.588  0.2143 -0.0987  0.0671
 1482HK4    C1124439  10.089   5.435   2.578  0.0614 -0.3143 -0.5805
 1482HK4     H424440  10.095   5.327   2.596  2.5367 -0.0443  0.3927
 1482HK4    C1224441  10.202   5.501   2.531  0.0584 -0.3050 -0.5668
 1482HK4     H524442  10.296   5.445   2.521  0.2170  0.0055 -0.8020
 1482HK4    C1324443  10.190   5.631   2.484  0.3162 -0.1257 -0.1471
 1482HK4     H624444  10.277   5.669   2.428  1.5174  0.0074  1.7804
 1482HK4     C724445   9.859   5.448   2.678 -0.1501  0.2635 -0.1614
 1482HK4     O224446   9.842   5.327   2.686  0.4138  0.1739 -0.3649
 1482HK4     C424447   9.754   5.540   2.728  0.1660  0.2293  0.5729
 1482HK4     C324448   9.687   5.503   2.844 -0.2654 -0.5223  0.0829
 1482HK4     H324449   9.705   5.407   2.894  0.4763 -0.4528 -0.0556
 1482HK4     C224450   9.602   5.600   2.897  0.6256  0.1637  0.2854
 1482HK4     H224451   9.565   5.588   3.001  0.5819 -0.2650  0.2209
 1482HK4     C124452   9.574   5.715   2.825  0.2881 -0.0060  0.1459
 1482HK4     H124453   9.489   5.777   2.856 -1.1051 -1.1094 -1.4028
 1482HK4     C624454   9.631   5.748   2.700 -0.3594 -0.5057 -0.2875
 1482HK4     C524455   9.729   5.658   2.655  0.0617 -0.1721 -0.0418
 1482HK4    C1024456   9.820   5.696   2.544 -0.1107 -0.3214 -0.2368
 1482HK4     O124457   9.770   5.723   2.435 -0.1301 -0.5302 -0.2773
 1482HK4    C1624458   9.549   5.835   2.614 -0.2951  0.1788  0.3348
 1482HK4    C1524459   9.408   5.825   2.615 -0.2705 -0.1789  0.4191
 1482HK4     H724460   9.363   5.738   2.664  1.0755 -0.9776  0.2613
 1482HK4    C2024461   9.333   5.920   2.546  0.4749 -0.4957 -0.8385
 1482HK4     H924462   9.230   5.889   2.531  0.0943 -0.1111  0.8978
 1482HK4    C1924463   9.393   6.026   2.479  0.0058  0.0914 -0.3340
 1482HK4    C1824464   9.536   6.046   2.491 -0.0915  0.3227  0.4682
 1482HK4    C1724465   9.608   5.942   2.550 -0.2397  0.0547  0.1772
 1482HK4     H824466   9.717   5.951   2.555 -0.2315  0.8947 -1.1806
 1482HK4     N124467   9.579   6.165   2.430 -0.0451 -0.0449 -0.2182
 1482HK4    C2124468   9.460   6.224   2.383 -0.0204 -0.2254 -0.5109
 1482HK4    C2224469   9.344   6.140   2.405 -0.3038  0.3691  0.2961
 1482HK4    C2624470   9.217   6.196   2.392 -0.4116 -0.0246 -0.4118
 1482HK4    H1324471   9.135   6.132   2.423 -0.4898 -0.0628 -0.6985
 1482HK4    C2524472   9.198   6.329   2.355 -0.2261  0.3244  0.7229
 1482HK4    H1224473   9.102   6.373   2.381 -0.7384 -1.0446  1.2102
 1482HK4    C2424474   9.309   6.410   2.331 -0.2847  0.1243 -0.2028
 1482HK4    H1124475   9.299   6.512   2.293  1.9045  0.7816  0.9358
 1482HK4    C2324476   9.436   6.356   2.345 -0.4178 -0.1005  0.1645
 1482HK4    H1024477   9.514   6.418   2.300  0.7490 -1.8949 -0.3372
 1482HK4    C3924478   9.703   6.169   2.365  0.4092 -0.3920  0.6147
 1482HK4    C4124479   9.755   6.296   2.335  0.1983 -0.3829  0.2808
 1482HK4    H2124480   9.733   6.376   2.407 -1.7477  0.1588 -0.8762
 1482HK4    C4224481   9.848   6.318   2.233  0.0768  0.4717  0.3480
 1482HK4    H2224482   9.886   6.419   2.215  1.5439 -0.5922 -2.9247
 1482HK4    C4324483   9.882   6.211   2.151 -0.0762  0.2412  0.5818
 1482HK4    H2324484   9.960   6.226   2.076  1.0820  0.4522  1.8267
 1482HK4    C4424485   9.832   6.084   2.175 -0.0586  0.1382  0.0914
 1482HK4    H2424486   9.864   6.004   2.106 -0.1308  0.2240 -0.0390
 1482HK4    C4524487   9.742   6.064   2.279  0.2711 -0.1976  0.3124
 1482HK4    H2524488   9.702   5.963   2.297 -2.1962  0.8794  1.0717
 1483HK4    H2824489   6.791   7.100   7.005  0.3315 -0.5630  0.2151
 1483HK4    C4824490   6.805   7.093   7.113 -0.6049 -0.2408  0.3608
 1483HK4    C4724491   6.910   7.012   7.154 -0.3848 -0.0937  0.0955
 1483HK4    H2724492   6.959   6.942   7.085 -1.2937 -0.1736 -0.4805
 1483HK4    C4624493   6.957   7.021   7.284 -0.0392  0.1017 -0.0451
 1483HK4    H2624494   7.044   6.959   7.312  0.1999  0.0570 -0.8985
 1483HK4    C4024495   6.881   7.088   7.382  0.1823  0.1018  0.1265
 1483HK4    C5024496   6.769   7.160   7.335  0.2185 -0.0936 -0.2620
 1483HK4    H3024497   6.708   7.219   7.404 -1.0458 -2.5296  0.7844
 1483HK4    C4924498   6.725   7.161   7.204 -0.7787 -0.0551  0.0702
 1483HK4    H2924499   6.675   7.251   7.165 -1.4231  1.1308  3.5126
 1483HK4     N224500   6.930   7.121   7.509  0.5254 -0.4284  0.1318
 1483HK4    C3024501   7.066   7.128   7.548  0.5258 -0.2230  0.0924
 1483HK4    C2924502   7.173   7.174   7.473  0.3848  0.1720  0.1284
 1483HK4    H1524503   7.155   7.210   7.372 -1.3673 -0.7933  0.0861
 1483HK4    C2824504   7.296   7.195   7.534  0.3992  0.0020  0.1602
 1483HK4    C2724505   7.300   7.179   7.674  0.4150  0.2156  0.1856
 1483HK4    H1424506   7.396   7.184   7.728  0.1264 -0.2368  0.7427
 1483HK4    C3224507   7.193   7.142   7.754  0.1423  0.2520 -0.1630
 1483HK4    H1624508   7.206   7.154   7.862  0.6602 -1.1277 -0.0626
 1483HK4    C3124509   7.073   7.111   7.692  0.0048  0.1313  0.1608
 1483HK4    C3424510   6.937   7.096   7.740 -0.0229 -0.4855 -0.0993
 1483HK4    C3324511   6.851   7.093   7.623 -0.0510  0.2602 -0.1014
 1483HK4    C3524512   6.713   7.093   7.641 -0.0342  0.7267  0.0443
 1483HK4    H1724513   6.645   7.074   7.558 -0.4693  0.3609  0.4824
 1483HK4    C3624514   6.666   7.094   7.772  0.0128  0.3986  0.0670
 1483HK4    H1824515   6.561   7.067   7.790 -1.0223  1.6226 -3.6136
 1483HK4    C3724516   6.749   7.113   7.882  0.4839  0.0622 -0.2263
 1483HK4    H1924517   6.706   7.138   7.979 -0.5603  2.0202 -1.1463
 1483HK4    C3824518   6.887   7.111   7.869  0.5153  0.4452  0.0065
 1483HK4    H2024519   6.953   7.114   7.956  2.0713 -1.2844 -1.0519
 1483HK4    C1424520   7.417   7.167   7.455  0.0492 -0.3485 -0.2476
 1483HK4     C924521   7.518   7.078   7.495 -0.1327 -0.3912  0.1215
 1483HK4     C824522   7.651   7.112   7.464 -0.2789 -0.5104 -0.6396
 1483HK4    C1124523   7.673   7.211   7.369 -0.3459  0.3797  0.2752
 1483HK4     H424524   7.776   7.234   7.337 -0.2595  0.0636  0.3194
 1483HK4    C1224525   7.573   7.289   7.313 -0.5741 -0.2124 -0.1484
 1483HK4     H524526   7.604   7.363   7.238 -1.8056  1.3112  0.8092
 1483HK4    C1324527   7.443   7.263   7.355 -0.5969  0.0363 -0.0535
 1483HK4     H624528   7.356   7.319   7.318 -1.4568 -0.9311  0.4790
 1483HK4     C724529   7.764   7.026   7.507 -0.0665  0.0123 -0.1584
 1483HK4     O224530   7.876   7.079   7.514 -0.0903  0.0049  0.2491
 1483HK4     C424531   7.728   6.897   7.567 -0.0872 -0.0522 -0.3058
 1483HK4     C324532   7.830   6.809   7.603 -0.4787 -0.5595 -0.4368
 1483HK4     H324533   7.935   6.835   7.587 -0.1777 -1.4661  0.0559
 1483HK4     C224534   7.815   6.685   7.665 -0.0704 -0.3918 -0.0073
 1483HK4     H224535   7.893   6.609   7.675 -2.0196 -2.4295 -0.0106
 1483HK4     C124536   7.686   6.662   7.713 -0.4672 -0.4300 -1.0817
 1483HK4     H124537   7.667   6.567   7.766 -2.0105 -0.0417 -0.9290
 1483HK4     C624538   7.580   6.752   7.693 -0.4958 -0.3136 -0.3817
 1483HK4     C524539   7.597   6.860   7.606  0.0236  0.0390  0.1527
 1483HK4    C1024540   7.487   6.945   7.554 -0.2909 -0.2650  0.3233
 1483HK4     O124541   7.396   6.883   7.499 -0.1122 -0.1505 -0.1086
 1483HK4    C1624542   7.453   6.711   7.755 -0.0339 -0.2637  0.6130
 1483HK4    C1524543   7.361   6.815   7.779 -0.3037 -0.1647 -0.8069
 1483HK4     H724544   7.396   6.918   7.791  2.7035 -0.9419 -2.2827
 1483HK4    C2024545   7.225   6.793   7.796 -0.1745  0.1071  0.5939
 1483HK4     H924546   7.156   6.876   7.815  0.3342  1.2179 -2.1335
 1483HK4    C1924547   7.182   6.661   7.792 -0.3013  0.1733 -0.1872
 1483HK4    C1824548   7.273   6.550   7.776 -0.7347 -0.1494 -0.4514
 1483HK4    C1724549   7.407   6.579   7.753 -0.7385 -0.0116 -0.3001
 1483HK4     H824550   7.465   6.491   7.726  0.7625 -0.0741  2.8295
 1483HK4     N124551   7.219   6.428   7.820  0.9588 -0.3103  1.2746
 1483HK4    C2124552   7.087   6.456   7.861  0.8149 -0.2166  0.7390
 1483HK4    C2224553   7.061   6.597   7.839  0.0954 -0.4635 -0.0364
 1483HK4    C2624554   6.941   6.649   7.886 -0.0565 -0.4836 -0.4009
 1483HK4    H1324555   6.934   6.757   7.896  1.7114 -0.3602 -0.3439
 1483HK4    C2524556   6.847   6.572   7.954  0.0166  0.0971  0.3581
 1483HK4    H1224557   6.761   6.622   8.000 -1.3343  2.4877 -4.3709
 1483HK4    C2424558   6.874   6.438   7.974 -0.2996  0.0846  0.7107
 1483HK4    H1124559   6.800   6.376   8.026 -1.8244  0.6118 -0.7732
 1483HK4    C2324560   6.995   6.381   7.934 -0.4634  0.3787 -0.2282
 1483HK4    H1024561   6.990   6.272   7.936 -0.1924  0.3520 -0.9312
 1483HK4    C3924562   7.253   6.302   7.770 -0.8290 -0.2341 -0.1767
 1483HK4    C4124563   7.231   6.192   7.855  0.0647  0.3580  0.8270
 1483HK4    H2124564   7.192   6.205   7.957  0.9435  0.4715  1.1502
 1483HK4    C4224565   7.275   6.066   7.818 -0.2665  0.3978  0.2965
 1483HK4    H2224566   7.244   5.982   7.882 -0.9239  0.0444 -0.4744
 1483HK4    C4324567   7.329   6.041   7.693 -1.1010  0.0547 -0.0031
 1483HK4    H2324568   7.347   5.937   7.667  1.1373  0.3749  0.1053
 1483HK4    C4424569   7.339   6.147   7.603 -0.8029 -0.0689 -0.1187
 1483HK4    H2424570   7.373   6.130   7.500 -0.1372 -1.8542  0.3799
 1483HK4    C4524571   7.307   6.277   7.642 -0.0693  0.0489  0.0865
 1483HK4    H2524572   7.328   6.367   7.582  1.0561 -0.0021  0.3827
 1484HK4    H2824573  10.331   2.095   9.150 -0.4138  2.0535  3.7936
 1484HK4    C4824574  10.416   2.161   9.131  0.6223 -0.1985  0.0916
 1484HK4    C4724575  10.487   2.202   9.243 -0.0113  0.2265  0.3380
 1484HK4    H2724576  10.437   2.192   9.340 -0.4849  0.9486  0.1722
 1484HK4    C4624577  10.608   2.268   9.226  0.0763  0.0560  0.3020
 1484HK4    H2624578  10.664   2.287   9.319 -0.8502  3.1840  0.2681
 1484HK4    C4024579  10.665   2.299   9.101  0.5509 -0.2318  0.4459
 1484HK4    C5024580  10.587   2.255   8.991  0.0988  0.2892  0.5579
 1484HK4    H3024581  10.632   2.281   8.894 -0.8240  0.0671  0.0719
 1484HK4    C4924582  10.465   2.191   9.004 -0.1358  0.6187 -0.0096
 1484HK4    H2924583  10.401   2.169   8.918  0.3561 -3.2197  0.5197
 1484HK4     N224584  10.797   2.343   9.085  0.4449 -0.0354  0.0746
 1484HK4    C3024585  10.897   2.313   9.180  0.3080 -0.0754  0.2056
 1484HK4    C2924586  10.905   2.212   9.274  0.3267 -0.3373 -0.0769
 1484HK4    H1524587  10.884   2.113   9.233 -1.7953  1.2385 -2.9085
 1484HK4    C2824588  10.977   2.231   9.392 -0.3130 -0.2246  0.3093
 1484HK4    C2724589  11.058   2.345   9.408 -0.4552 -0.0942  0.0873
 1484HK4    H1424590  11.119   2.360   9.498 -0.0949  2.4798 -0.5503
 1484HK4    C3224591  11.070   2.439   9.306 -0.0050 -0.5131 -0.2415
 1484HK4    H1624592  11.128   2.530   9.323  0.6939 -1.2949  1.7273
 1484HK4    C3124593  10.989   2.425   9.194  0.8951 -0.3974 -0.9195
 1484HK4    C3424594  10.940   2.527   9.104 -0.0506 -0.0433 -0.0201
 1484HK4    C3324595  10.830   2.468   9.029 -0.4945  0.3356  0.3300
 1484HK4    C3524596  10.767   2.549   8.936 -0.0079  0.0905 -0.2155
 1484HK4    H1724597  10.677   2.519   8.882 -0.6881  0.4366  0.7220
 1484HK4    C3624598  10.820   2.674   8.904 -0.1429  0.1802 -0.1000
 1484HK4    H1824599  10.769   2.742   8.835 -2.6342 -1.5965 -0.0652
 1484HK4    C3724600  10.928   2.726   8.974 -0.2986  0.3859 -0.0161
 1484HK4    H1924601  10.981   2.817   8.945 -0.4365  1.2054  2.2445
 1484HK4    C3824602  10.986   2.655   9.079  0.0592 -0.1900 -0.5951
 1484HK4    H2024603  11.057   2.704   9.146  0.3410 -0.9910 -0.2975
 1484HK4    C1424604  10.936   2.160   9.514 -0.9463 -0.0873  0.1777
 1484HK4     C924605  10.913   2.221   9.638 -0.2655 -0.1132  0.3196
 1484HK4     C824606  10.928   2.150   9.759  0.3151 -0.7538 -0.1255
 1484HK4    C1124607  10.953   2.013   9.757  0.9239 -0.6502  0.3916
 1484HK4     H424608  10.965   1.947   9.844 -1.4991 -2.6151 -0.7226
 1484HK4    C1224609  10.961   1.949   9.635 -0.6793 -0.3161  0.0954
 1484HK4     H524610  10.990   1.843   9.639 -1.2245 -0.4391  0.8193
 1484HK4    C1324611  10.965   2.022   9.517  0.0393  0.1201  0.3887
 1484HK4     H624612  10.976   1.970   9.420  0.2282  2.1864 -0.7377
 1484HK4     C724613  10.927   2.219   9.890 -0.1962 -0.2437 -0.3904
 1484HK4     O224614  10.932   2.161   9.998  0.4883 -0.0267 -0.3020
 1484HK4     C424615  10.923   2.367   9.894  0.1704 -0.2459  0.2554
 1484HK4     C324616  10.935   2.437  10.013 -0.1122  0.1486  0.0546
 1484HK4     H324617  10.995   2.388  10.092  1.1883 -0.6499 -1.4016
 1484HK4     C224618  10.912   2.573  10.021 -0.3523  0.1293 -0.3014
 1484HK4     H224619  10.909   2.613  10.124 -0.4573  1.3217 -0.7618
 1484HK4     C124620  10.884   2.643   9.904  0.5973  0.0919 -0.5558
 1484HK4     H124621  10.889   2.753   9.910 -3.1144  0.3321 -0.1539
 1484HK4     C624622  10.879   2.580   9.778  0.2543 -0.0806 -0.4590
 1484HK4     C524623  10.893   2.440   9.777  0.5292 -0.0614  0.2800
 1484HK4    C1024624  10.869   2.362   9.653  0.4881  0.1426  0.1577
 1484HK4     O124625  10.768   2.390   9.589  0.5628 -0.0439 -0.0398
 1484HK4    C1624626  10.954   2.660   9.680  0.4227  0.2535 -0.0572
 1484HK4    C1524627  11.060   2.749   9.708  0.0987  0.5624  0.2015
 1484HK4     H724628  11.086   2.764   9.814  2.8154  0.2094 -0.3813
 1484HK4    C2024629  11.113   2.833   9.611 -0.1349 -0.0788 -0.4858
 1484HK4     H924630  11.216   2.870   9.612 -0.2608  0.4389  4.3974
 1484HK4    C1924631  11.042   2.852   9.493 -0.2852  0.6700 -0.2773
 1484HK4    C1824632  10.919   2.781   9.466  0.0651 -0.0434 -0.0332
 1484HK4    C1724633  10.886   2.686   9.562  0.0588  0.1132  0.1184
 1484HK4     H824634  10.781   2.654   9.560 -0.2649  0.7794  3.2785
 1484HK4     N124635  10.849   2.848   9.363  0.1908 -0.4133 -0.3574
 1484HK4    C2124636  10.934   2.952   9.318  0.4629 -0.6970 -0.4982
 1484HK4    C2224637  11.051   2.964   9.402  0.0362  0.7787 -0.1141
 1484HK4    C2624638  11.141   3.065   9.369  0.3737  0.4774 -0.1112
 1484HK4    H1324639  11.237   3.072   9.421 -0.8977 -0.4894  2.4601
 1484HK4    C2524640  11.119   3.144   9.257  0.2662 -0.1383 -0.5277
 1484HK4    H1224641  11.193   3.221   9.235 -0.7403  1.7369  2.4452
 1484HK4    C2424642  11.009   3.129   9.173 -0.0315 -0.2659 -0.1198
 1484HK4    H1124643  11.005   3.181   9.076  0.3142  0.9880  0.5323
 1484HK4    C2324644  10.917   3.029   9.204 -0.0173 -0.2861 -0.1523
 1484HK4    H1024645  10.850   2.985   9.130 -0.9474  2.9954 -1.3816
 1484HK4    C3924646  10.726   2.803   9.314 -0.5436  0.0924  0.9814
 1484HK4    C4124647  10.630   2.899   9.277 -0.1640  0.3034  0.5282
 1484HK4    H2124648  10.644   2.998   9.324 -1.6329  0.6081  0.3432
 1484HK4    C4224649  10.507   2.861   9.226 -0.1636  0.2417  0.5750
 1484HK4    H2224650  10.432   2.935   9.194 -0.0250 -0.1894 -0.7903
 1484HK4    C4324651  10.468   2.727   9.220 -0.2502  0.2692  0.5017
 1484HK4    H2324652  10.374   2.690   9.181  0.0800  1.7000 -1.7407
 1484HK4    C4424653  10.558   2.631   9.266 -0.1009 -0.0948 -0.5502
 1484HK4    H2424654  10.520   2.541   9.315  0.6728  0.2746  0.7414
 1484HK4    C4524655  10.684   2.668   9.309 -0.0659 -0.0074 -0.7345
 1484HK4    H2524656  10.741   2.583   9.350 -0.7244 -0.5170 -0.8682
 1485HK4    H2824657  11.143   1.512   2.057  0.2228  0.2078 -0.6565
 1485HK4    C4824658  11.133   1.608   2.108 -0.0889 -0.2859  0.2347
 1485HK4    C4724659  11.009   1.658   2.143 -0.3596 -0.5463 -0.3423
 1485HK4    H2724660  10.919   1.606   2.106 -0.0623 -0.9415 -0.5111
 1485HK4    C4624661  10.990   1.776   2.213  0.1513 -0.6005 -0.1089
 1485HK4    H2624662  10.889   1.798   2.253  0.7934 -0.7238  1.6106
 1485HK4    C4024663  11.099   1.859   2.244 -0.1923 -0.1122 -0.1967
 1485HK4    C5024664  11.224   1.810   2.201  0.0204 -0.3770  0.7350
 1485HK4    H3024665   0.060   1.881   2.200  0.1583 -0.5382 -1.5585
 1485HK4    C4924666  11.243   1.689   2.134 -0.1637 -0.2602  0.4733
 1485HK4    H2924667   0.097   1.651   2.125  0.1423  0.7313 -0.3563
 1485HK4     N224668  11.105   1.949   2.351 -0.2217  0.2518 -0.5003
 1485HK4    C3024669  11.161   2.079   2.350  0.3125  0.0270  0.2718
 1485HK4    C2924670  11.239   2.149   2.259  0.0308  0.2999  0.2379
 1485HK4    H1524671   0.040   2.099   2.175 -1.8060 -0.3372 -0.4801
 1485HK4    C2824672   0.024   2.283   2.274  0.2006  0.2601  0.2176
 1485HK4    C2724673  11.241   2.344   2.397 -0.4322  0.5329 -0.0752
 1485HK4    H1424674  11.245   2.453   2.410  0.8181  0.3414  1.2866
 1485HK4    C3224675  11.158   2.278   2.487 -0.2479 -0.2557 -0.4815
 1485HK4    H1624676  11.117   2.322   2.578  1.0047 -1.2300  0.5710
 1485HK4    C3124677  11.113   2.148   2.468 -0.1508 -0.4139  0.3433
 1485HK4    C3424678  11.029   2.058   2.545 -0.0417 -0.6516  0.1826
 1485HK4    C3324679  11.039   1.932   2.474  0.2768 -0.3479 -0.3178
 1485HK4    C3524680  10.998   1.815   2.538  0.1453 -0.1558 -0.0543
 1485HK4    H1724681  11.012   1.720   2.487 -1.6143 -0.6939  0.4124
 1485HK4    C3624682  10.957   1.821   2.671  0.4384 -0.4582  0.0508
 1485HK4    H1824683  10.928   1.723   2.714 -1.8169 -0.2951 -1.0323
 1485HK4    C3724684  10.939   1.940   2.740  0.1118 -0.5605  0.1463
 1485HK4    H1924685  10.912   1.941   2.845 -0.7479  0.1639 -0.0795
 1485HK4    C3824686  10.975   2.057   2.673  0.3652 -0.5196  0.3545
 1485HK4    H2024687  10.978   2.149   2.731  1.6737 -0.7914  0.7337
 1485HK4    C1424688   0.099   2.358   2.172  0.4390 -0.4388 -0.1207
 1485HK4     C924689   0.171   2.475   2.193 -0.6900  0.1975  0.2572
 1485HK4     C824690   0.164   2.587   2.107 -0.0211  0.0091 -0.0450
 1485HK4    C1124691   0.106   2.570   1.982  0.4329  0.4245 -0.3107
 1485HK4     H424692   0.113   2.648   1.905 -0.1795  0.1730 -0.6246
 1485HK4    C1224693   0.044   2.450   1.949  0.1863  0.4246  0.1540
 1485HK4     H524694   0.045   2.423   1.842  0.1054 -3.9410  1.1519
 1485HK4    C1324695   0.042   2.347   2.043  0.4530  0.1192 -0.1721
 1485HK4     H624696  11.247   2.249   2.019  1.0801 -0.3377  0.5523
 1485HK4     C724697   0.180   2.720   2.168  0.2351 -0.2555  0.4686
 1485HK4     O224698   0.210   2.817   2.099 -0.6578 -0.3041 -0.0038
 1485HK4     C424699   0.195   2.730   2.315  0.6238  0.0853  0.4075
 1485HK4     C324700   0.179   2.856   2.372  0.4133  0.0669  0.3884
 1485HK4     H324701   0.134   2.939   2.316  1.1698  1.5364  1.8926
 1485HK4     C224702   0.213   2.876   2.505 -0.5459  0.5929  0.5603
 1485HK4     H224703   0.201   2.979   2.544  1.4389  1.1132 -0.1271
 1485HK4     C124704   0.261   2.769   2.580 -0.2600  0.2452 -0.1145
 1485HK4     H124705   0.283   2.795   2.685  0.9435 -0.2690 -0.2378
 1485HK4     C624706   0.286   2.644   2.520  0.0652  0.3333 -0.1608
 1485HK4     C524707   0.251   2.622   2.386  0.6876 -0.2982 -0.2220
 1485HK4    C1024708   0.245   2.488   2.322  0.0719 -0.3174 -0.1261
 1485HK4     O124709   0.332   2.403   2.342 -0.2862 -0.5409  0.5194
 1485HK4    C1624710   0.357   2.545   2.602 -0.2177  0.0418 -0.2690
 1485HK4    C1524711   0.453   2.584   2.698 -0.2195 -0.2149 -0.1639
 1485HK4     H724712   0.494   2.686   2.696 -0.0503 -0.2463  1.1881
 1485HK4    C2024713   0.476   2.506   2.811 -0.1590  0.1863  0.0994
 1485HK4     H924714   0.560   2.539   2.872  0.4619 -0.6568 -0.2938
 1485HK4    C1924715   0.412   2.384   2.829  0.2355 -0.0802 -0.2970
 1485HK4    C1824716   0.319   2.337   2.727 -0.0610  0.0531 -0.0893
 1485HK4    C1724717   0.293   2.424   2.622 -0.4096  0.2084  0.1261
 1485HK4     H824718   0.201   2.403   2.567 -0.8320 -0.2749  1.0026
 1485HK4     N124719   0.280   2.205   2.757 -0.2978  0.0960 -0.2127
 1485HK4    C2124720   0.349   2.169   2.874 -0.0125  0.2137 -0.3444
 1485HK4    C2224721   0.431   2.278   2.926 -0.0650  0.1061 -0.0326
 1485HK4    C2624722   0.524   2.268   3.028 -0.1941 -0.1554  0.0612
 1485HK4    H1324723   0.578   2.351   3.075  0.3707  0.1669 -1.1300
 1485HK4    C2524724   0.536   2.144   3.089 -0.1946 -0.1637  0.0454
 1485HK4    H1224725   0.629   2.118   3.139  0.5556  0.1061 -1.1989
 1485HK4    C2424726   0.447   2.044   3.049 -0.6205  0.1856  0.1088
 1485HK4    H1124727   0.430   1.963   3.122 -0.2965  2.4771  2.8114
 1485HK4    C2324728   0.357   2.049   2.943 -0.1769  0.2445 -0.2709
 1485HK4    H1024729   0.344   1.960   2.883 -1.5463  0.7463 -0.7316
 1485HK4    C3924730   0.228   2.116   2.662 -0.5003  0.2752 -0.2706
 1485HK4    C4124731   0.142   2.013   2.704  0.0990 -0.3436 -0.5506
 1485HK4    H2124732   0.103   2.021   2.807  2.7759  0.1200  0.4481
 1485HK4    C4224733   0.112   1.906   2.620  0.2130 -0.4961 -0.3975
 1485HK4    H2224734   0.037   1.829   2.640  0.9233 -0.6626  1.6944
 1485HK4    C4324735   0.184   1.895   2.501 -0.6166  0.0687 -0.9614
 1485HK4    H2324736   0.165   1.808   2.437 -2.3775 -1.5467  1.6324
 1485HK4    C4424737   0.277   1.988   2.456 -0.1991 -0.2280 -0.7221
 1485HK4    H2424738   0.335   1.972   2.365  0.4410 -1.1820 -0.1485
 1485HK4    C4524739   0.291   2.100   2.537  0.0892 -0.8969  0.1635
 1485HK4    H2524740   0.370   2.173   2.514  1.5207 -2.1621  0.9315
 1486HK4    H2824741   0.199  10.359   9.848  2.5490 -1.5794 -2.2423
 1486HK4    C4824742   0.119  10.319   9.787 -0.5402  0.3410  0.3789
 1486HK4    C4724743   0.103  10.181   9.784  0.3221  0.2555 -0.4245
 1486HK4    H2724744   0.159  10.121   9.857  1.1141  0.1516 -1.1041
 1486HK4    C4624745   0.012  10.123   9.696 -0.0777  0.4321 -0.1254
 1486HK4    H2624746   0.000  10.013   9.694  0.3385  0.4055 -3.8985
 1486HK4    C4024747  11.191  10.206   9.606 -0.4189  0.1107 -0.1645
 1486HK4    C5024748  11.226  10.342   9.598 -0.0689  0.0110 -0.2380
 1486HK4    H3024749  11.176  10.392   9.513 -0.5003 -1.3456 -0.7901
 1486HK4    C4924750   0.061  10.403   9.691 -0.0672 -0.0140 -0.2225
 1486HK4    H2924751   0.099  10.505   9.678  0.5396 -0.2276 -0.1695
 1486HK4     N224752  11.090  10.146   9.530  0.0158 -0.5563 -0.2170
 1486HK4    C3024753  11.076  10.009   9.500 -0.3255 -0.6047  0.1697
 1486HK4    C2924754  11.176   9.915   9.477 -0.0255 -0.1320 -0.4775
 1486HK4    H1524755   0.031   9.935   9.507 -0.4410 -0.9473  1.5579
 1486HK4    C2824756  11.142   9.781   9.461 -0.2579 -0.1080 -0.1830
 1486HK4    C2724757  11.005   9.748   9.459 -0.4084  0.5020 -0.1853
 1486HK4    H1424758  10.972   9.648   9.428 -1.0722  0.5282  0.4272
 1486HK4    C3224759  10.901   9.840   9.470 -0.9195 -0.1481  0.4334
 1486HK4    H1624760  10.801   9.808   9.498 -1.0390 -0.1656 -0.0034
 1486HK4    C3124761  10.936   9.973   9.487 -0.3640 -0.1370 -0.7242
 1486HK4    C3424762  10.862  10.096   9.504 -0.4977 -0.4322  0.8683
 1486HK4    C3324763  10.960  10.199   9.535 -0.0125 -0.6449  0.0440
 1486HK4    C3524764  10.908  10.318   9.585  0.0594 -0.4465 -0.3541
 1486HK4    H1724765  10.971  10.407   9.577  0.5151 -0.7492 -0.1770
 1486HK4    C3624766  10.772  10.339   9.603  0.0851 -0.5222 -0.0533
 1486HK4    H1824767  10.739  10.438   9.637 -1.1593 -1.5625  1.8632
 1486HK4    C3724768  10.676  10.241   9.578 -0.3748 -0.0748 -0.0322
 1486HK4    H1924769  10.569  10.257   9.587 -0.5485  0.1342 -2.2526
 1486HK4    C3824770  10.727  10.125   9.521 -0.5609 -0.1144 -0.1215
 1486HK4    H2024771  10.663  10.041   9.496  1.1536 -1.6697  0.5703
 1486HK4    C1424772   0.003   9.689   9.423 -0.4276 -0.6279  0.5851
 1486HK4     C924773  11.231   9.577   9.341 -0.3076 -0.0805 -0.1892
 1486HK4     C824774   0.049   9.456   9.369  0.2529  0.2198 -0.2192
 1486HK4    C1124775   0.159   9.455   9.454  0.2393  0.2040 -0.1999
 1486HK4     H424776   0.200   9.358   9.486  0.2232  0.4889  0.7110
 1486HK4    C1224777   0.193   9.569   9.527  0.1486  0.0105  0.1444
 1486HK4     H524778   0.262   9.564   9.612  0.6024  1.5797 -0.1263
 1486HK4    C1324779   0.113   9.681   9.510 -0.0080 -0.1083  0.1021
 1486HK4     H624780   0.145   9.771   9.564  0.4787  0.3936 -0.9943
 1486HK4     C724781   0.001   9.331   9.307 -0.1451 -0.0115  0.5569
 1486HK4     O224782   0.039   9.223   9.352 -0.0759 -0.0844  0.3083
 1486HK4     C424783  11.145   9.334   9.202  0.1297  0.1024  0.2849
 1486HK4     C324784  11.103   9.221   9.133  0.3623  0.1944 -0.0049
 1486HK4     H324785  11.150   9.123   9.153  2.0555  1.1958  1.0104
 1486HK4     C224786  10.992   9.221   9.049  0.0632 -0.5392  0.3820
 1486HK4     H224787  10.984   9.144   8.971  1.1568  1.8496 -2.1591
 1486HK4     C124788  10.904   9.329   9.056  0.4283 -0.1989 -0.2324
 1486HK4     H124789  10.829   9.348   8.978  0.8321 -0.0979 -0.5989
 1486HK4     C624790  10.932   9.441   9.137 -0.2581 -0.3341  0.1881
 1486HK4     C524791  11.058   9.445   9.196 -0.0016 -0.0355 -0.3804
 1486HK4    C1024792  11.119   9.573   9.243 -0.5103  0.0536  0.0354
 1486HK4     O124793  11.138   9.656   9.155  0.5896  0.0978  0.3061
 1486HK4    C1624794  10.819   9.527   9.177 -0.0844 -0.1620  0.3164
 1486HK4    C1524795  10.693   9.469   9.204 -0.2632 -0.1516 -0.4836
 1486HK4     H724796  10.681   9.361   9.217  0.0659  0.0080  1.2286
 1486HK4    C2024797  10.585   9.550   9.236  0.1489 -0.0440  0.6685
 1486HK4     H924798  10.490   9.500   9.254 -0.3271  0.8674  0.7302
 1486HK4    C1924799  10.589   9.689   9.227  0.0068 -0.0921 -0.2579
 1486HK4    C1824800  10.715   9.746   9.185  0.0795  0.1037  0.2300
 1486HK4    C1724801  10.826   9.665   9.162 -0.0946 -0.1617  0.3195
 1486HK4     H824802  10.912   9.701   9.107 -0.5983  0.4321 -0.0872
 1486HK4     N124803  10.692   9.884   9.166  0.3611  0.1852  0.4799
 1486HK4    C2124804  10.557   9.912   9.195  0.1718 -0.1739 -0.0586
 1486HK4    C2224805  10.485   9.790   9.227  0.0294 -0.0724  0.0028
 1486HK4    C2624806  10.355   9.782   9.277 -0.0330 -0.0854 -0.1564
 1486HK4    H1324807  10.310   9.685   9.298  1.1213 -0.5824  0.0872
 1486HK4    C2524808  10.295   9.905   9.299 -0.0018 -0.0260 -0.4058
 1486HK4    H1224809  10.196   9.905   9.346  0.7069  0.2945  1.1133
 1486HK4    C2424810  10.362  10.024   9.276  0.4512 -0.2306 -0.1540
 1486HK4    H1124811  10.315  10.120   9.301  1.8489  1.1338 -2.5587
 1486HK4    C2324812  10.491  10.030   9.224  0.6098 -0.0078  0.2590
 1486HK4    H1024813  10.541  10.127   9.225 -1.7074  1.2569  4.4208
 1486HK4    C3924814  10.788   9.973   9.116  0.5068 -0.8126 -1.0239
 1486HK4    C4124815  10.749  10.098   9.065  0.3587 -0.4384  0.0129
 1486HK4    H2124816  10.646  10.107   9.028  0.0756 -1.1370  0.6191
 1486HK4    C4224817  10.832  10.210   9.064 -0.5950  0.2763 -0.0249
 1486HK4    H2224818  10.784  10.305   9.037  1.8091  1.6000  0.2511
 1486HK4    C4324819  10.965  10.200   9.102 -0.6217 -0.1484 -0.0338
 1486HK4    H2324820  11.033  10.282   9.077 -1.2814  0.3567 -0.1687
 1486HK4    C4424821  11.009  10.077   9.151  0.0509  0.0828 -0.0582
 1486HK4    H2424822  11.113  10.064   9.186 -0.4030  2.9768  2.6073
 1486HK4    C4524823  10.922   9.970   9.161  0.0483  0.1260  0.4174
 1486HK4    H2524824  10.964   9.876   9.200 -0.6480  0.4208  1.9126
 1487HK4    H2824825   1.799   1.670   9.205  0.2795 -0.3789  0.1674
 1487HK4    C4824826   1.715   1.626   9.259 -0.3159  0.1776 -0.2895
 1487HK4    C4724827   1.687   1.658   9.391 -0.5737  0.1095 -0.3238
 1487HK4    H2724828   1.759   1.725   9.441  0.5245 -2.5398  1.8707
 1487HK4    C4624829   1.580   1.606   9.464 -0.3913  0.7518  0.4041
 1487HK4    H2624830   1.560   1.646   9.564 -1.1987  2.7785 -0.5440
 1487HK4    C4024831   1.488   1.517   9.406  0.4447  0.1196  0.0295
 1487HK4    C5024832   1.517   1.484   9.272 -0.7601 -0.0024 -0.2117
 1487HK4    H3024833   1.442   1.431   9.212 -1.8065 -0.3308  1.3565
 1487HK4    C4924834   1.627   1.534   9.204 -0.8004  0.4418  0.0423
 1487HK4    H2924835   1.634   1.504   9.098  0.1279 -3.7422  1.1832
 1487HK4     N224836   1.361   1.506   9.464  0.1844  0.0238 -0.5615
 1487HK4    C3024837   1.277   1.392   9.466  0.4640 -0.1687  1.2126
 1487HK4    C2924838   1.319   1.263   9.437  0.3769  0.0654  0.0043
 1487HK4    H1524839   1.418   1.243   9.396 -0.3494  1.2731 -2.4307
 1487HK4    C2824840   1.222   1.164   9.427  0.2208  0.1829  0.3633
 1487HK4    C2724841   1.088   1.200   9.455  0.1486  0.6051 -0.5086
 1487HK4    H1424842   1.009   1.124   9.453  1.9535 -1.3409 -0.4536
 1487HK4    C3224843   1.046   1.327   9.493  0.0787  0.2309  0.6738
 1487HK4    H1624844   0.955   1.350   9.549 -1.2138  0.2756 -1.3823
 1487HK4    C3124845   1.140   1.429   9.495  0.2364  0.1063 -0.1564
 1487HK4    C3424846   1.144   1.573   9.512 -0.1972  0.1588 -0.5082
 1487HK4    C3324847   1.282   1.616   9.504 -0.0306 -0.2934 -0.1033
 1487HK4    C3524848   1.317   1.748   9.529 -0.0069 -0.2325 -0.4552
 1487HK4    H1724849   1.420   1.778   9.512  0.5313 -0.1503  2.6422
 1487HK4    C3624850   1.218   1.839   9.565 -0.0642 -0.3746 -0.2556
 1487HK4    H1824851   1.240   1.946   9.560 -2.4139  0.0193 -3.0262
 1487HK4    C3724852   1.087   1.796   9.577 -0.2344  0.1120 -0.3647
 1487HK4    H1924853   1.020   1.866   9.626  3.1108  2.1677  1.4096
 1487HK4    C3824854   1.046   1.666   9.546 -0.1058 -0.2524  0.9452
 1487HK4    H2024855   0.941   1.637   9.543 -0.2527  0.2375  1.2745
 1487HK4    C1424856   1.248   1.046   9.344  0.0592  0.5012 -0.1452
 1487HK4     C924857   1.160   0.998   9.246  0.2221  0.2419 -0.1632
 1487HK4     C824858   1.142   0.861   9.215 -0.3919  0.1928  0.3905
 1487HK4    C1124859   1.223   0.775   9.288  0.4099  0.2559 -0.4103
 1487HK4     H424860   1.196   0.668   9.290 -0.4822  0.5035  1.6080
 1487HK4    C1224861   1.320   0.815   9.379  0.5016  0.0091 -0.3970
 1487HK4     H524862   1.377   0.736   9.428 -0.4741 -1.4795 -1.5981
 1487HK4    C1324863   1.327   0.950   9.411 -0.8788 -0.0421  0.1958
 1487HK4     H624864   1.420   0.986   9.458 -0.1463  0.1507 -1.3767
 1487HK4     C724865   1.047   0.820   9.110 -0.1718 -0.0215  0.2747
 1487HK4     O224866   1.063   0.712   9.054 -0.2938 -0.0075  0.2122
 1487HK4     C424867   0.968   0.925   9.041  0.3149 -0.0570 -0.3391
 1487HK4     C324868   0.884   0.892   8.935 -0.6513 -0.0391  0.4200
 1487HK4     H324869   0.899   0.795   8.885 -2.6226  0.6256 -1.5190
 1487HK4     C224870   0.792   0.982   8.882  0.2039  0.1627 -0.7381
 1487HK4     H224871   0.737   0.969   8.787  0.2660  2.3032 -1.0916
 1487HK4     C124872   0.792   1.111   8.932  0.4131 -0.0669 -0.1388
 1487HK4     H124873   0.749   1.196   8.876  0.0163  0.4397  0.9267
 1487HK4     C624874   0.870   1.150   9.043  0.0335  0.0974  0.0715
 1487HK4     C524875   0.968   1.059   9.084 -0.1574 -0.1554 -0.0307
 1487HK4    C1024876   1.087   1.098   9.164  0.0868 -0.0699 -0.4281
 1487HK4     O124877   1.155   1.188   9.113  0.1685  0.1246  0.0117
 1487HK4    C1624878   0.813   1.262   9.119 -0.1521 -0.0112  0.0951
 1487HK4    C1524879   0.680   1.303   9.096 -0.1658 -0.1516 -0.0743
 1487HK4     H724880   0.603   1.225   9.096  0.5324 -0.8558 -0.7643
 1487HK4    C2024881   0.643   1.437   9.091 -0.2469 -0.1630  0.1965
 1487HK4     H924882   0.540   1.469   9.079 -0.5407 -1.2445 -0.2254
 1487HK4    C1924883   0.735   1.539   9.117 -0.2911 -0.0596 -0.0435
 1487HK4    C1824884   0.868   1.493   9.153 -0.1823  0.1418 -0.1920
 1487HK4    C1724885   0.907   1.360   9.151 -0.2805  0.1081  0.1069
 1487HK4     H824886   1.007   1.340   9.190 -0.1813  0.4548  0.0332
 1487HK4     N124887   0.954   1.601   9.181  0.2040 -0.2331  0.0564
 1487HK4    C2124888   0.873   1.715   9.171  0.3159 -0.1680 -0.1121
 1487HK4    C2224889   0.737   1.683   9.133  0.1634 -0.1125  0.3848
 1487HK4    C2624890   0.634   1.776   9.135 -0.1623 -0.4604 -0.0612
 1487HK4    H1324891   0.530   1.752   9.113 -0.9264  1.8673  0.8344
 1487HK4    C2524892   0.673   1.905   9.167  0.1026 -0.3675 -0.7677
 1487HK4    H1224893   0.607   1.991   9.164  1.0899  0.4801  0.9180
 1487HK4    C2424894   0.800   1.945   9.210 -0.3643 -0.4014  0.6796
 1487HK4    H1124895   0.823   2.049   9.235  0.3076 -0.0070 -1.4640
 1487HK4    C2324896   0.896   1.844   9.218  0.3472  0.1347 -0.9585
 1487HK4    H1024897   0.991   1.871   9.263 -0.8501  1.2287  0.9967
 1487HK4    C3924898   1.087   1.613   9.140  0.3277 -0.5927  0.3476
 1487HK4    C4124899   1.176   1.716   9.178  0.2788 -0.6518  0.6201
 1487HK4    H2124900   1.148   1.761   9.275 -1.7758 -1.0168  0.2343
 1487HK4    C4224901   1.302   1.731   9.122  0.0758  0.1027  0.3661
 1487HK4    H2224902   1.370   1.809   9.159 -1.3303  0.8404  1.4580
 1487HK4    C4324903   1.344   1.655   9.014 -0.4395  0.2099  0.0913
 1487HK4    H2324904   1.443   1.664   8.971 -1.3405 -0.7114 -2.2811
 1487HK4    C4424905   1.257   1.556   8.968 -0.2957  0.3396 -0.4634
 1487HK4    H2424906   1.289   1.483   8.893 -1.3928 -0.6681  0.0376
 1487HK4    C4524907   1.137   1.534   9.034 -0.0035 -0.1916 -0.1119
 1487HK4    H2524908   1.074   1.448   9.006 -0.6405  0.6530 -1.2972
 1488HK4    H2824909   4.221   3.120   7.374 -1.1147 -0.9249  1.1801
 1488HK4    C4824910   4.131   3.154   7.323  0.0829  0.2009 -0.2316
 1488HK4    C4724911   4.002   3.132   7.370  0.1347  0.2540 -0.0649
 1488HK4    H2724912   3.985   3.046   7.436  1.1200  0.6189  0.6861
 1488HK4    C4624913   3.891   3.199   7.322 -0.3071 -0.4273  0.0030
 1488HK4    H2624914   3.790   3.171   7.356  0.3080 -2.1278  0.4695
 1488HK4    C4024915   3.904   3.304   7.228 -0.2107 -0.0397  0.4465
 1488HK4    C5024916   4.036   3.327   7.183 -0.3040  0.2115  0.3058
 1488HK4    H3024917   4.041   3.411   7.111 -0.4144  0.9942  1.1922
 1488HK4    C4924918   4.142   3.246   7.219 -0.1670  0.0998 -0.3490
 1488HK4    H2924919   4.235   3.254   7.161 -1.1033 -1.2227 -2.0966
 1488HK4     N224920   3.795   3.342   7.149 -0.0022  0.0550  0.2015
 1488HK4    C3024921   3.683   3.260   7.126  0.1136  0.0490 -0.3402
 1488HK4    C2924922   3.669   3.122   7.133 -0.0290  0.0818  0.0632
 1488HK4    H1524923   3.755   3.056   7.147 -0.1530  0.1985  1.3597
 1488HK4    C2824924   3.543   3.066   7.119  0.0552 -0.1675  0.3060
 1488HK4    C2724925   3.431   3.147   7.095  0.1338 -0.1856 -0.1126
 1488HK4    H1424926   3.341   3.113   7.148  0.5479  0.5433  1.0637
 1488HK4    C3224927   3.446   3.283   7.070 -0.0348 -0.1251  0.1159
 1488HK4    H1624928   3.356   3.344   7.068 -1.7844 -2.6299  0.6530
 1488HK4    C3124929   3.570   3.344   7.091 -0.0281 -0.0543 -0.1314
 1488HK4    C3424930   3.612   3.482   7.099 -0.0239 -0.0374 -0.4371
 1488HK4    C3324931   3.755   3.475   7.126 -0.1859  0.0396  0.4380
 1488HK4    C3524932   3.817   3.597   7.150  0.1851 -0.0695  0.0331
 1488HK4    H1724933   3.917   3.583   7.190 -0.5771 -2.2151  1.2733
 1488HK4    C3624934   3.754   3.721   7.141 -0.0640 -0.2083 -0.1329
 1488HK4    H1824935   3.811   3.815   7.145 -0.3291 -0.0482 -0.1067
 1488HK4    C3724936   3.616   3.722   7.124 -0.0220  0.3815 -0.4366
 1488HK4    H1924937   3.559   3.815   7.123 -1.0308 -0.2207 -0.9941
 1488HK4    C3824938   3.546   3.604   7.099  0.2905  0.1365 -0.1672
 1488HK4    H2024939   3.437   3.611   7.104  0.3613  0.6040  0.7509
 1488HK4    C1424940   3.533   2.921   7.098 -0.1584 -0.0623 -0.3114
 1488HK4     C924941   3.436   2.864   7.014 -0.2903 -0.4032  0.0722
 1488HK4     C824942   3.403   2.730   7.041 -0.0453 -0.5361 -0.2845
 1488HK4    C1124943   3.472   2.658   7.138  0.0741 -0.7500 -0.5265
 1488HK4     H424944   3.421   2.566   7.170 -0.7365 -0.2961 -0.4871
 1488HK4    C1224945   3.579   2.711   7.209 -0.6555  0.1293 -0.0705
 1488HK4     H524946   3.641   2.651   7.276 -0.1193  0.4479 -0.2736
 1488HK4    C1324947   3.611   2.845   7.188 -0.4604  0.1095  0.0943
 1488HK4     H624948   3.698   2.880   7.245 -2.5808  1.6044  2.5583
 1488HK4     C724949   3.284   2.672   6.974 -0.1940 -0.5054 -0.0465
 1488HK4     O224950   3.276   2.549   6.975 -0.1524 -0.5084 -0.1092
 1488HK4     C424951   3.193   2.761   6.899  0.4627  0.0786 -0.1565
 1488HK4     C324952   3.069   2.711   6.859  0.5068 -0.0597 -0.1190
 1488HK4     H324953   3.039   2.609   6.884 -0.3583  0.6589  1.8883
 1488HK4     C224954   2.983   2.791   6.785  0.2997  0.0138  0.1983
 1488HK4     H224955   2.885   2.748   6.761 -0.7000  2.6477 -0.6570
 1488HK4     C124956   3.019   2.923   6.756 -0.2662  0.0165 -0.4822
 1488HK4     H124957   2.935   2.994   6.751 -0.7964 -0.4170  1.7835
 1488HK4     C624958   3.148   2.970   6.787 -0.3524  0.1094 -0.2628
 1488HK4     C524959   3.236   2.889   6.859 -0.4309  0.5272  0.3064
 1488HK4    C1024960   3.373   2.934   6.899 -0.1457 -0.1769  0.1289
 1488HK4     O124961   3.454   2.973   6.815  0.2000 -0.4661  0.3279
 1488HK4    C1624962   3.174   3.093   6.710  0.1898 -0.0179 -0.2798
 1488HK4    C1524963   3.267   3.187   6.758  0.2711 -0.2720  0.0661
 1488HK4     H724964   3.268   3.210   6.865 -0.9340  3.1790 -0.5983
 1488HK4    C2024965   3.329   3.279   6.674  0.4327 -0.8496 -0.4526
 1488HK4     H924966   3.419   3.327   6.715 -0.3926 -1.3466  2.0189
 1488HK4    C1924967   3.298   3.286   6.539  0.1094 -0.5549 -0.3654
 1488HK4    C1824968   3.205   3.187   6.488 -0.1636 -0.5322  0.0891
 1488HK4    C1724969   3.149   3.093   6.573 -0.5080 -0.5509 -0.1572
 1488HK4     H824970   3.067   3.028   6.541 -2.1443  0.4887  1.7634
 1488HK4     N124971   3.178   3.212   6.352  0.0898 -0.0981  0.1154
 1488HK4    C2124972   3.257   3.321   6.310  0.3517 -0.2351  0.2506
 1488HK4    C2224973   3.318   3.378   6.429  0.0760  0.1476  0.2099
 1488HK4    C2624974   3.405   3.483   6.402 -0.3008  0.3432 -0.2359
 1488HK4    H1324975   3.457   3.533   6.483 -1.0660  0.2078  0.3465
 1488HK4    C2524976   3.418   3.540   6.275 -0.2158  0.2131 -0.2863
 1488HK4    H1224977   3.492   3.619   6.261 -0.0316 -0.0044 -0.5406
 1488HK4    C2424978   3.356   3.485   6.163  0.0219  0.3631 -0.4882
 1488HK4    H1124979   3.376   3.531   6.065 -0.6904 -0.7000 -1.1421
 1488HK4    C2324980   3.275   3.374   6.183  0.8468 -0.0967  0.3764
 1488HK4    H1024981   3.229   3.329   6.095  1.3425 -0.7519  0.4533
 1488HK4    C3924982   3.136   3.111   6.264  0.1388  0.0357 -0.0602
 1488HK4    C4124983   3.051   3.148   6.158  0.4920  0.7500 -0.1042
 1488HK4    H2124984   2.992   3.240   6.165  1.0822  1.2303 -1.2980
 1488HK4    C4224985   3.008   3.055   6.064 -0.4062  0.3304  0.7073
 1488HK4    H2224986   2.937   3.078   5.983  1.3466  0.7232 -0.7436
 1488HK4    C4324987   3.066   2.929   6.068 -0.6524  0.2008  0.2790
 1488HK4    H2324988   3.031   2.852   5.999 -2.9991 -0.5889  2.3078
 1488HK4    C4424989   3.150   2.890   6.172 -0.1194  0.0910 -0.1873
 1488HK4    H2424990   3.183   2.786   6.184 -0.1023 -0.1444 -2.1369
 1488HK4    C4524991   3.192   2.982   6.268  0.0081 -0.0229 -0.1346
 1488HK4    H2524992   3.265   2.960   6.347  0.4490  0.2137 -0.4693
 1489HK4    H2824993   9.880   3.511  10.224  0.2241  1.5111  0.0575
 1489HK4    C4824994   9.832   3.529  10.128  0.3766  0.5095 -0.2045
 1489HK4    C4724995   9.895   3.481  10.013  0.5320  0.3311 -0.0403
 1489HK4    H2724996   9.994   3.435  10.004 -0.7253 -2.1556 -1.9873
 1489HK4    C4624997   9.834   3.516   9.893 -0.0571  0.2605  0.2349
 1489HK4    H2624998   9.890   3.490   9.801 -0.6238 -1.9406  0.4826
 1489HK4    C4024999   9.721   3.599   9.886 -0.2473 -0.0335 -0.2827
 1489HK4    C5025000   9.655   3.634  10.006  0.2238 -0.6774  0.1604
 1489HK4    H3025001   9.560   3.688  10.020  0.6036 -0.4227  1.8654
 1489HK4    C4925002   9.710   3.596  10.128 -0.0343 -0.2152  0.4198
 1489HK4    H2925003   9.660   3.607  10.225  0.1122  0.0175  0.4697
 1489HK4     N225004   9.695   3.675   9.771 -0.0914 -0.0310 -0.3170
 1489HK4    C3025005   9.795   3.719   9.681 -0.0087  0.7845  0.1778
 1489HK4    C2925006   9.929   3.751   9.699  0.3160 -0.7070  0.4734
 1489HK4    H1525007   9.969   3.717   9.795 -1.4783 -0.5220  1.3125
 1489HK4    C2825008  10.007   3.803   9.596 -0.0544 -0.0281  0.5292
 1489HK4    C2725009   9.949   3.810   9.468  0.4207 -0.1865  0.3055
 1489HK4    H1425010  10.011   3.840   9.382 -1.7831  0.9112 -0.9249
 1489HK4    C3225011   9.814   3.788   9.444  0.4614 -0.1978  0.0852
 1489HK4    H1625012   9.766   3.795   9.347 -0.7512  2.5413  0.8364
 1489HK4    C3125013   9.736   3.749   9.552  0.0667  0.7315  0.1334
 1489HK4    C3425014   9.593   3.734   9.574  0.0730  0.4730  0.0206
 1489HK4    C3325015   9.569   3.699   9.712 -0.2272 -0.8187 -0.3532
 1489HK4    C3525016   9.439   3.691   9.762 -0.0124  0.2909  0.4178
 1489HK4    H1725017   9.424   3.650   9.862 -1.1781 -1.4935 -0.4585
 1489HK4    C3625018   9.331   3.711   9.677  0.0443 -0.3282  0.1901
 1489HK4    H1825019   9.224   3.705   9.702  0.3645 -1.7423  1.3136
 1489HK4    C3725020   9.354   3.739   9.543 -0.0694 -0.2357  0.1906
 1489HK4    H1925021   9.271   3.746   9.472  0.8705 -0.5689 -0.9665
 1489HK4    C3825022   9.483   3.749   9.491 -0.0970  0.0961  0.1816
 1489HK4    H2025023   9.498   3.752   9.383 -1.3942 -2.6177 -0.1195
 1489HK4    C1425024  10.132   3.876   9.619  0.0703 -0.0096 -0.1869
 1489HK4     C925025  10.173   3.988   9.545  0.1443 -0.1097 -0.2952
 1489HK4     C825026  10.310   4.024   9.546  0.2739 -0.5904 -0.1367
 1489HK4    C1125027  10.393   3.951   9.631  0.3218 -0.1332  0.2065
 1489HK4     H425028  10.499   3.979   9.626  0.0737  1.6220  3.1822
 1489HK4    C1225029  10.357   3.841   9.707 -0.3811  0.1745  0.3280
 1489HK4     H525030  10.437   3.795   9.767 -1.1068 -0.0529  1.1359
 1489HK4    C1325031  10.223   3.804   9.699 -0.3381  0.0266  0.3139
 1489HK4     H625032  10.192   3.718   9.760  3.1364 -0.4866  1.4707
 1489HK4     C725033  10.357   4.131   9.456 -0.0644 -0.4473 -0.1457
 1489HK4     O225034  10.476   4.161   9.449 -0.3575  0.6214 -0.6889
 1489HK4     C425035  10.266   4.204   9.365  0.1540 -0.0262 -0.0219
 1489HK4     C325036  10.314   4.288   9.266 -0.3931 -0.2462 -0.4837
 1489HK4     H325037  10.420   4.318   9.270  0.1589 -2.2790  0.6877
 1489HK4     C225038  10.232   4.332   9.163  0.1640  0.0224 -0.8114
 1489HK4     H225039  10.277   4.389   9.080 -0.8429 -2.2416 -2.9716
 1489HK4     C125040  10.101   4.288   9.159 -0.2620  1.0899  0.8039
 1489HK4     H125041  10.030   4.323   9.082  0.6862 -0.8284 -0.9997
 1489HK4     C625042  10.049   4.202   9.258 -0.2445  0.6515  0.4337
 1489HK4     C525043  10.129   4.168   9.367  0.1955 -0.1999 -0.1429
 1489HK4    C1025044  10.077   4.072   9.468  0.0417  0.1254  0.0934
 1489HK4     O125045   9.973   4.107   9.524 -0.1513  0.0119 -0.1917
 1489HK4    C1625046   9.950   4.105   9.207  0.2035  0.2826  0.2693
 1489HK4    C1525047   9.960   4.034   9.085 -0.1327  0.0924  0.3527
 1489HK4     H725048  10.055   4.011   9.036 -0.1321 -0.8087  0.7789
 1489HK4    C2025049   9.849   3.964   9.040 -0.1967  0.0841  0.5168
 1489HK4     H925050   9.854   3.914   8.943  0.8721 -1.3304  1.2928
 1489HK4    C1925051   9.726   3.975   9.105 -0.2482 -0.2991  0.4762
 1489HK4    C1825052   9.712   4.048   9.230 -0.0144  0.1411  0.2489
 1489HK4    C1725053   9.826   4.116   9.270  0.0858  0.0703  0.0780
 1489HK4     H825054   9.823   4.173   9.363  2.1024  3.2461 -1.6886
 1489HK4     N125055   9.577   4.077   9.257 -0.1586 -0.1665 -0.1285
 1489HK4    C2125056   9.501   4.019   9.153 -0.1210 -0.1659 -0.1568
 1489HK4    C2225057   9.591   3.958   9.057 -0.0840 -0.5061  0.0910
 1489HK4    C2625058   9.536   3.893   8.946  0.0181  0.2382 -0.4039
 1489HK4    H1325059   9.603   3.847   8.873  0.6183  0.6385 -0.1119
 1489HK4    C2525060   9.400   3.894   8.920 -0.1481  0.3307  0.4331
 1489HK4    H1225061   9.369   3.858   8.822 -1.0891 -0.4433  1.0083
 1489HK4    C2425062   9.314   3.950   9.014 -0.6294  0.6667 -0.2037
 1489HK4    H1125063   9.206   3.944   8.995 -0.5365 -1.7760 -0.1262
 1489HK4    C2325064   9.365   4.010   9.128 -0.1415  0.3466 -0.2513
 1489HK4    H1025065   9.296   4.025   9.211 -0.2281 -2.5568  0.2601
 1489HK4    C3925066   9.533   4.119   9.383  0.0743  0.0282 -0.1104
 1489HK4    C4125067   9.413   4.188   9.407  0.1815 -0.0148  0.5565
 1489HK4    H2125068   9.333   4.204   9.332 -0.2006 -0.8129  0.7887
 1489HK4    C4225069   9.370   4.236   9.530 -0.4478  0.9111 -0.0096
 1489HK4    H2225070   9.275   4.290   9.544 -0.4555  0.4886  1.6131
 1489HK4    C4325071   9.451   4.216   9.641 -0.3185 -0.3976 -0.3290
 1489HK4    H2325072   9.421   4.237   9.744  1.6671 -2.7593  0.7992
 1489HK4    C4425073   9.565   4.138   9.623  0.1963  0.2967 -0.0918
 1489HK4    H2425074   9.608   4.102   9.718  0.7745 -0.2164 -0.5488
 1489HK4    C4525075   9.606   4.089   9.500 -0.1973 -0.2359 -0.0089
 1489HK4    H2525076   9.702   4.034   9.494 -0.2805 -0.6536  1.9222
 1490HK4    H2825077   7.108   8.439   8.484 -0.6414 -0.9959 -0.0722
 1490HK4    C4825078   7.051   8.524   8.446  0.4481 -0.0740  0.3278
 1490HK4    C4725079   7.086   8.567   8.319  0.0892 -0.4077  0.1168
 1490HK4    H2725080   7.177   8.529   8.270  0.5986  0.5726  0.2902
 1490HK4    C4625081   7.005   8.667   8.266  0.2426 -0.1922  0.2859
 1490HK4    H2625082   7.042   8.696   8.167  3.5639  0.4335  1.6252
 1490HK4    C4025083   6.905   8.735   8.339 -0.8576 -1.0792 -0.3988
 1490HK4    C5025084   6.880   8.690   8.471  0.0689 -0.0214  0.1386
 1490HK4    H3025085   6.818   8.742   8.545  2.9233  1.1382  1.7898
 1490HK4    C4925086   6.951   8.583   8.523  0.1562 -0.0594 -0.0630
 1490HK4    H2925087   6.961   8.567   8.631 -1.0981 -2.2668 -0.2515
 1490HK4     N225088   6.804   8.808   8.276 -0.7022 -0.4979  0.0304
 1490HK4    C3025089   6.782   8.796   8.138  0.5726  0.4932 -0.2727
 1490HK4    C2925090   6.782   8.686   8.053  0.4868  0.4395 -0.2043
 1490HK4    H1525091   6.842   8.600   8.084  0.6320  1.5470  2.6807
 1490HK4    C2825092   6.715   8.680   7.931 -0.2103  0.3151  0.1860
 1490HK4    C2725093   6.656   8.799   7.885  0.0587  0.2665 -0.2861
 1490HK4    H1425094   6.602   8.801   7.789  1.4859  2.0131 -1.0902
 1490HK4    C3225095   6.663   8.916   7.961 -0.5391 -0.0012  0.1792
 1490HK4    H1625096   6.638   9.005   7.904  1.6714  0.8991  0.5631
 1490HK4    C3125097   6.713   8.914   8.091 -0.1300  0.2096  0.0222
 1490HK4    C3425098   6.694   9.002   8.205 -0.8231 -0.2554  0.2671
 1490HK4    C3325099   6.762   8.937   8.316  0.3418 -0.0464 -0.3098
 1490HK4    C3525100   6.775   9.011   8.433  0.6737  0.4485 -0.6634
 1490HK4    H1725101   6.849   8.994   8.512  2.8993  1.6039 -2.4234
 1490HK4    C3625102   6.712   9.134   8.446 -0.0558 -0.0259  0.3222
 1490HK4    H1825103   6.683   9.165   8.547  1.5460  0.1577  0.7428
 1490HK4    C3725104   6.643   9.195   8.342 -0.1460  0.0802  0.4434
 1490HK4    H1925105   6.605   9.297   8.346 -1.7649 -0.5505  1.9115
 1490HK4    C3825106   6.636   9.127   8.221  0.4993  0.3778  0.2343
 1490HK4    H2025107   6.568   9.168   8.146 -0.9274 -0.6321  0.9399
 1490HK4    C1425108   6.742   8.572   7.835 -0.4750 -0.0379  0.5058
 1490HK4     C925109   6.752   8.586   7.696  0.7422 -0.1297  0.5738
 1490HK4     C825110   6.714   8.484   7.607 -0.0883  0.5599  0.1220
 1490HK4    C1125111   6.663   8.366   7.660 -0.0770  0.5006 -0.0002
 1490HK4     H425112   6.654   8.276   7.597  2.2009 -0.1297  0.5154
 1490HK4    C1225113   6.646   8.354   7.797 -0.8552  0.1592 -0.1217
 1490HK4     H525114   6.608   8.262   7.843 -0.2614  0.2608  0.5954
 1490HK4    C1325115   6.699   8.448   7.886  0.0816 -0.4499 -0.0296
 1490HK4     H625116   6.697   8.435   7.995 -0.7211 -0.0400  0.0041
 1490HK4     C725117   6.710   8.507   7.461 -0.0089  0.4569  0.1040
 1490HK4     O225118   6.696   8.406   7.392  0.3050  0.2660  0.3192
 1490HK4     C425119   6.748   8.637   7.402 -0.4218  0.4385 -0.2051
 1490HK4     C325120   6.757   8.648   7.263  0.3026 -0.4988 -0.2366
 1490HK4     H325121   6.754   8.552   7.210  1.9866 -0.2039 -0.8818
 1490HK4     C225122   6.798   8.765   7.201 -0.6037 -0.2215 -0.3128
 1490HK4     H225123   6.771   8.788   7.097  1.8818 -1.8401 -1.3412
 1490HK4     C125124   6.838   8.869   7.285 -0.4918 -0.4468 -0.0905
 1490HK4     H125125   6.910   8.943   7.249  1.3415 -0.5170  3.1973
 1490HK4     C625126   6.821   8.863   7.425 -0.2205 -0.2468 -0.0498
 1490HK4     C525127   6.787   8.743   7.486  0.3242 -0.2312  0.2960
 1490HK4    C1025128   6.801   8.711   7.631  0.0587  0.0469  0.3826
 1490HK4     O125129   6.909   8.751   7.675  0.2368 -0.0424  0.0275
 1490HK4    C1625130   6.787   8.998   7.473 -0.0840 -0.2850  0.1531
 1490HK4    C1525131   6.814   9.032   7.607 -0.0874 -0.3822  0.1772
 1490HK4     H725132   6.908   8.992   7.648 -1.0373 -1.0283  1.7552
 1490HK4    C2025133   6.778   9.151   7.669 -0.0278 -0.2437 -0.0494
 1490HK4     H925134   6.804   9.174   7.772  0.9315 -2.6447  0.2737
 1490HK4    C1925135   6.722   9.244   7.583  0.6328  0.0248 -0.1913
 1490HK4    C1825136   6.679   9.218   7.447 -0.3496 -0.1611  0.1509
 1490HK4    C1725137   6.714   9.092   7.400 -0.0552 -0.1389  0.3114
 1490HK4     H825138   6.662   9.064   7.309 -0.9968  1.4217  0.3505
 1490HK4     N125139   6.606   9.325   7.391 -0.1280 -0.2542 -0.3165
 1490HK4    C2125140   6.617   9.423   7.491 -0.3774 -0.3912 -0.1571
 1490HK4    C2225141   6.691   9.383   7.609  0.3517  0.0163 -0.4742
 1490HK4    C2625142   6.718   9.479   7.706 -0.0803  0.2111 -0.5483
 1490HK4    H1325143   6.767   9.442   7.795  1.2651  0.5757 -1.1253
 1490HK4    C2525144   6.687   9.613   7.685 -0.7037  0.1491 -0.0371
 1490HK4    H1225145   6.717   9.691   7.755  0.8352 -1.2636  0.8952
 1490HK4    C2425146   6.618   9.654   7.572 -0.2195  0.0457 -0.3718
 1490HK4    H1125147   6.606   9.763   7.562  0.9241  0.1625 -0.4873
 1490HK4    C2325148   6.577   9.556   7.482  0.6792 -0.1006 -0.6204
 1490HK4    H1025149   6.522   9.588   7.394  0.1926 -0.2719 -0.3775
 1490HK4    C3925150   6.609   9.343   7.252 -0.1768 -0.3746 -0.3324
 1490HK4    C4125151   6.502   9.409   7.188 -0.4590 -0.5738 -0.0637
 1490HK4    H2125152   6.409   9.422   7.245  0.4621 -3.1369  2.1755
 1490HK4    C4225153   6.510   9.441   7.053 -0.4026 -0.3272 -0.0011
 1490HK4    H2225154   6.428   9.499   7.008  0.1921  0.6521  0.1579
 1490HK4    C4325155   6.623   9.413   6.977 -0.4963 -0.6398 -0.0303
 1490HK4    H2325156   6.629   9.438   6.871  0.7557  0.2962  0.2530
 1490HK4    C4425157   6.729   9.348   7.039  0.2407  0.3632 -0.2307
 1490HK4    H2425158   6.822   9.333   6.980 -0.0732 -0.7085 -0.4649
 1490HK4    C4525159   6.723   9.315   7.173  0.0212  0.2509 -0.2690
 1490HK4    H2525160   6.816   9.266   7.206 -1.7416 -2.0041  1.5719
 1491HK4    H2825161   1.415   6.168   1.264  2.1094 -0.6538 -2.1156
 1491HK4    C4825162   1.409   6.256   1.200  0.1046  0.3887 -0.5689
 1491HK4    C4725163   1.297   6.279   1.122  0.0840 -0.2277 -0.7211
 1491HK4    H2725164   1.222   6.199   1.126  1.2725 -1.4661 -2.5751
 1491HK4    C4625165   1.286   6.391   1.040 -0.2875  0.1780 -0.1237
 1491HK4    H2625166   1.222   6.371   0.953 -1.3727 -2.0369  1.1553
 1491HK4    C4025167   1.377   6.499   1.049  0.2078 -0.2495 -0.0044
 1491HK4    C5025168   1.487   6.474   1.134  0.0966  0.4815  0.3572
 1491HK4    H3025169   1.578   6.531   1.112 -0.4960  0.9469 -0.9521
 1491HK4    C4925170   1.506   6.356   1.205  0.2512  0.2254 -0.1077
 1491HK4    H2925171   1.574   6.357   1.292 -2.0633 -0.8991  1.7656
 1491HK4     N225172   1.364   6.623   0.986 -0.3085 -0.1202  0.3564
 1491HK4    C3025173   1.282   6.640   0.872  0.0664 -0.0827  0.0920
 1491HK4    C2925174   1.242   6.546   0.778  0.4291 -0.2199  0.0722
 1491HK4    H1525175   1.299   6.453   0.771  0.6665  0.0757 -2.4210
 1491HK4    C2825176   1.142   6.575   0.686 -0.1743 -0.1914  0.7339
 1491HK4    C2725177   1.092   6.707   0.675 -0.2615 -0.2187  0.7916
 1491HK4    H1425178   1.020   6.734   0.596 -0.5055  1.9897  1.7472
 1491HK4    C3225179   1.134   6.805   0.765  0.4253  0.0421  0.1906
 1491HK4    H1625180   1.077   6.896   0.780  0.3340 -0.2180  1.4438
 1491HK4    C3125181   1.228   6.774   0.862 -0.0154 -0.0767  0.5821
 1491HK4    C3425182   1.290   6.846   0.971  0.3815  0.2977  0.1107
 1491HK4    C3325183   1.364   6.749   1.049 -0.2804 -0.0783  0.2742
 1491HK4    C3525184   1.413   6.792   1.172 -0.0552 -0.0887  0.1885
 1491HK4    H1725185   1.457   6.726   1.246  3.0703 -0.3479 -1.8360
 1491HK4    C3625186   1.394   6.924   1.214  0.4585 -0.0020  0.1448
 1491HK4    H1825187   1.456   6.961   1.297 -0.8378  0.7231  0.7946
 1491HK4    C3725188   1.317   7.011   1.138 -0.4024 -0.2188  0.7683
 1491HK4    H1925189   1.286   7.104   1.186  0.6609  0.4412  0.2093
 1491HK4    C3825190   1.260   6.974   1.017  0.1831  0.1573  0.3714
 1491HK4    H2025191   1.179   7.032   0.973  0.8669 -0.3936 -1.6788
 1491HK4    C1425192   1.099   6.467   0.598  0.0376  0.0519  0.3299
 1491HK4     C925193   1.065   6.481   0.463  0.3515  0.3389  0.2820
 1491HK4     C825194   0.973   6.389   0.410  0.3139  0.3786  0.2757
 1491HK4    C1125195   0.914   6.289   0.487  0.1587  0.1249 -0.1741
 1491HK4     H425196   0.819   6.241   0.458  0.9195 -1.3838 -0.2125
 1491HK4    C1225197   0.951   6.267   0.619  0.2410  0.1759 -0.1888
 1491HK4     H525198   0.899   6.180   0.663  1.8082 -1.3312 -1.2431
 1491HK4    C1325199   1.046   6.356   0.667 -0.2424  0.3067  0.5236
 1491HK4     H625200   1.101   6.324   0.757  3.0751  0.1921 -1.4565
 1491HK4     C725201   0.952   6.378   0.264  0.4982  0.0425  0.2734
 1491HK4     O225202   0.862   6.309   0.217  0.5533  0.1178  0.0543
 1491HK4     C425203   1.025   6.471   0.175 -0.2042  0.3098 -0.0266
 1491HK4     C325204   1.029   6.447   0.038  0.0123 -0.1630  0.0629
 1491HK4     H325205   1.007   6.346  11.248 -1.2535 -0.5223  1.6661
 1491HK4     C225206   1.080   6.542  11.198 -0.9778 -0.2052 -0.5635
 1491HK4     H225207   1.111   6.527  11.094 -1.4642  3.2713 -1.2610
 1491HK4     C125208   1.109   6.666   0.006 -0.4234 -0.4310 -0.3463
 1491HK4     H125209   1.156   6.747  11.197  1.5171 -1.8533 -0.8073
 1491HK4     C625210   1.097   6.698   0.143 -0.2050  0.2476 -0.4847
 1491HK4     C525211   1.073   6.592   0.231 -0.3078  0.4581 -0.2566
 1491HK4    C1025212   1.116   6.588   0.373  0.1054 -0.1040 -0.3924
 1491HK4     O125213   1.223   6.645   0.399 -0.1686  0.3375 -0.2218
 1491HK4    C1625214   1.034   6.829   0.166 -0.5537 -0.0354  0.1960
 1491HK4    C1525215   0.960   6.886   0.060  0.3315 -0.3152 -0.5784
 1491HK4     H725216   0.917   6.825  11.227  0.1916 -1.2132  0.1570
 1491HK4    C2025217   0.938   7.022   0.049 -0.3096 -0.3609  0.1034
 1491HK4     H925218   0.880   7.063  11.214  1.1909 -1.8072 -1.6912
 1491HK4    C1925219   0.984   7.099   0.155 -0.1959 -0.1622 -0.0884
 1491HK4    C1825220   1.046   7.048   0.276  0.5865  0.3123 -0.2859
 1491HK4    C1725221   1.073   6.911   0.271  0.2905  0.2534 -0.3380
 1491HK4     H825222   1.162   6.881   0.327  0.5571  1.4145 -0.1274
 1491HK4     N125223   1.067   7.150   0.370  0.0882  0.0833  0.0775
 1491HK4    C2125224   1.046   7.272   0.302 -0.3050 -0.2152 -0.3343
 1491HK4    C2225225   0.987   7.243   0.172 -0.0261 -0.1181 -0.4821
 1491HK4    C2625226   0.950   7.343   0.084 -0.4886  0.2430  0.1198
 1491HK4    H1325227   0.921   7.316  11.230 -0.0151 -0.0315  0.0566
 1491HK4    C2525228   0.986   7.474   0.110 -0.8184  0.4010 -0.1926
 1491HK4    H1225229   0.956   7.556   0.045 -0.8875  2.2277  2.0454
 1491HK4    C2425230   1.038   7.504   0.236 -0.9636 -0.7703  0.1526
 1491HK4    H1125231   1.050   7.608   0.271 -3.6632  0.1576 -1.4902
 1491HK4    C2325232   1.062   7.406   0.332 -0.3624 -0.3703  0.4117
 1491HK4    H1025233   1.103   7.435   0.429 -0.3118  0.7662  0.0651
 1491HK4    C3925234   1.126   7.137   0.497  0.0871  0.1180  0.0817
 1491HK4    C4125235   1.078   7.211   0.607  0.0732 -0.2318  0.3118
 1491HK4    H2125236   0.969   7.225   0.603  0.1869  0.4273 -0.6593
 1491HK4    C4225237   1.137   7.221   0.732  0.6022  0.1200  0.0320
 1491HK4    H2225238   1.115   7.300   0.806 -1.2162  0.7885 -1.1867
 1491HK4    C4325239   1.243   7.133   0.748  0.0248 -0.5088  0.3646
 1491HK4    H2325240   1.300   7.147   0.840  0.3785  1.8024 -0.1850
 1491HK4    C4425241   1.293   7.048   0.649 -0.4082  0.3970 -0.6373
 1491HK4    H2425242   1.382   6.990   0.678 -0.5280  0.5062 -0.0361
 1491HK4    C4525243   1.239   7.057   0.521 -0.2443 -0.6203 -0.7747
 1491HK4    H2525244   1.301   7.028   0.435 -0.9589 -0.2894 -1.3941
 1492HK4    H2825245   4.830   4.007   3.803  0.2146 -0.1308  0.2657
 1492HK4    C4825246   4.791   4.094   3.857  0.3379  0.1263 -0.0620
 1492HK4    C4725247   4.834   4.222   3.823  0.1186  0.2506  0.1287
 1492HK4    H2725248   4.875   4.233   3.722  0.6325  1.2468  0.4465
 1492HK4    C4625249   4.807   4.331   3.905 -0.4993  0.2516 -0.0707
 1492HK4    H2625250   4.850   4.426   3.869  0.2853 -0.5597 -1.3224
 1492HK4    C4025251   4.733   4.316   4.023 -0.3298  0.0201  0.0076
 1492HK4    C5025252   4.693   4.185   4.057  0.8127 -0.3349 -0.0118
 1492HK4    H3025253   4.624   4.172   4.142  1.0167  0.5897  0.3038
 1492HK4    C4925254   4.725   4.076   3.978 -0.1281 -0.3389 -0.3821
 1492HK4    H2925255   4.690   3.977   4.012 -3.0288  0.5317 -0.6505
 1492HK4     N225256   4.649   4.420   4.066  0.1224  0.3466  0.1022
 1492HK4    C3025257   4.595   4.519   3.981 -0.5299  0.0394  0.1563
 1492HK4    C2925258   4.552   4.500   3.850 -0.2599  0.0364  0.0681
 1492HK4    H1525259   4.564   4.406   3.797 -0.4693  0.3042 -0.4512
 1492HK4    C2825260   4.486   4.605   3.787 -0.2643  0.0915  0.1666
 1492HK4    C2725261   4.465   4.727   3.855  0.4610  0.3948 -0.1339
 1492HK4    H1425262   4.409   4.805   3.802 -1.3478  0.0249  1.1560
 1492HK4    C3225263   4.493   4.743   3.991 -0.4155 -0.5103  0.1630
 1492HK4    H1625264   4.481   4.843   4.032 -0.0077 -0.0187 -0.8834
 1492HK4    C3125265   4.552   4.636   4.056  0.0755  0.0033  0.5633
 1492HK4    C3425266   4.577   4.604   4.195  0.3628  0.1239  0.5406
 1492HK4    C3325267   4.638   4.473   4.196 -0.2142 -0.1481  0.2739
 1492HK4    C3525268   4.657   4.410   4.319  0.9014 -0.4311 -0.0385
 1492HK4    H1725269   4.725   4.325   4.322  0.2629 -0.9817 -0.9074
 1492HK4    C3625270   4.615   4.466   4.439  0.3123 -0.1545 -0.3729
 1492HK4    H1825271   4.634   4.413   4.534  0.6503 -2.5580 -1.7328
 1492HK4    C3725272   4.550   4.589   4.433  0.0827 -0.2722 -0.2878
 1492HK4    H1925273   4.493   4.620   4.520 -1.3564 -0.4925 -1.1239
 1492HK4    C3825274   4.535   4.662   4.315 -0.1141  0.4863  0.2054
 1492HK4    H2025275   4.450   4.730   4.310  0.4215  1.0467 -1.3219
 1492HK4    C1425276   4.475   4.598   3.641  0.3675  0.3513  0.1050
 1492HK4     C925277   4.483   4.704   3.550 -0.3794  0.4680  0.1773
 1492HK4     C825278   4.415   4.688   3.427 -1.0311  0.0777  0.5854
 1492HK4    C1125279   4.338   4.576   3.398 -0.4886 -0.2277  0.3204
 1492HK4     H425280   4.296   4.565   3.297  0.1785  0.8715 -0.0888
 1492HK4    C1225281   4.330   4.473   3.490 -0.3959 -0.6649 -0.1579
 1492HK4     H525282   4.247   4.401   3.486 -1.0586  0.1156 -0.4374
 1492HK4    C1325283   4.402   4.482   3.609 -0.1353  0.8084 -0.4160
 1492HK4     H625284   4.381   4.408   3.688 -0.2359  2.6038  1.2588
 1492HK4     C725285   4.417   4.802   3.333 -0.2070  0.0867  0.6138
 1492HK4     O225286   4.355   4.800   3.227  0.3324  0.4557  0.2877
 1492HK4     C425287   4.499   4.922   3.359 -0.3326  0.2523  0.2550
 1492HK4     C325288   4.505   5.029   3.270 -0.4589 -0.0624 -0.1268
 1492HK4     H325289   4.498   5.013   3.161 -0.5878  0.5099 -0.2029
 1492HK4     C225290   4.560   5.151   3.306 -0.0862 -0.2270 -0.1351
 1492HK4     H225291   4.576   5.233   3.235  0.1367  0.0114  0.1888
 1492HK4     C125292   4.606   5.169   3.436 -0.1157 -0.4098 -0.0989
 1492HK4     H125293   4.658   5.262   3.462  1.6586 -1.7349  1.2355
 1492HK4     C625294   4.594   5.068   3.534 -0.1722 -0.3049  0.0029
 1492HK4     C525295   4.558   4.942   3.486 -0.3233 -0.3928  0.3501
 1492HK4    C1025296   4.573   4.820   3.571 -0.5557  0.3712  1.5004
 1492HK4     O125297   4.691   4.798   3.598 -0.2410  0.1821  0.0491
 1492HK4    C1625298   4.577   5.114   3.672 -0.5222 -0.5562  0.0426
 1492HK4    C1525299   4.530   5.245   3.695  0.1626 -0.4030  0.5976
 1492HK4     H725300   4.478   5.300   3.614  0.8160 -0.7944 -0.0931
 1492HK4    C2025301   4.561   5.307   3.815 -0.1402  0.0563  0.4433
 1492HK4     H925302   4.535   5.413   3.822 -1.3668 -0.2702  1.0029
 1492HK4    C1925303   4.626   5.245   3.922 -0.5051 -0.4613  0.3642
 1492HK4    C1825304   4.661   5.106   3.902  0.4069 -0.1711 -0.1119
 1492HK4    C1725305   4.625   5.045   3.782  0.0349 -0.2106  0.0167
 1492HK4     H825306   4.599   4.939   3.786  1.0066 -0.4635 -0.1015
 1492HK4     N125307   4.723   5.054   4.018 -0.2997 -0.0937  0.3043
 1492HK4    C2125308   4.733   5.160   4.110  0.0902 -0.0783  0.2409
 1492HK4    C2225309   4.678   5.281   4.052  0.5754 -0.0545 -0.1752
 1492HK4    C2625310   4.646   5.389   4.133  0.9286 -0.0170 -0.0858
 1492HK4    H1325311   4.625   5.485   4.084  2.8452  1.6111  2.1371
 1492HK4    C2525312   4.661   5.379   4.270 -0.0432 -0.1776  0.0091
 1492HK4    H1225313   4.638   5.473   4.322  0.1801 -0.1641  0.0869
 1492HK4    C2425314   4.704   5.261   4.329 -0.4119 -0.2557  0.1231
 1492HK4    H1125315   4.710   5.252   4.439  1.0790 -1.4645 -0.0537
 1492HK4    C2325316   4.745   5.156   4.248  0.7769  0.1494  0.1918
 1492HK4    H1025317   4.820   5.084   4.282  0.9988  0.5701  0.5942
 1492HK4    C3925318   4.796   4.935   4.020 -0.5813 -0.2863 -0.5160
 1492HK4    C4125319   4.809   4.861   4.140  0.0615  0.0819 -0.3551
 1492HK4    H2125320   4.727   4.861   4.213 -1.4450 -1.7035 -2.0020
 1492HK4    C4225321   4.897   4.754   4.145 -1.0199 -0.8095 -0.3781
 1492HK4    H2225322   4.918   4.714   4.245  0.6677 -0.4471 -0.5678
 1492HK4    C4325323   4.973   4.709   4.038  0.0198  0.2638 -0.1064
 1492HK4    H2325324   5.042   4.625   4.048  0.1393  0.0091 -2.7967
 1492HK4    C4425325   4.958   4.777   3.918  0.0832  0.6129  0.0848
 1492HK4    H2425326   5.024   4.755   3.833 -1.3197 -0.5369 -0.7422
 1492HK4    C4525327   4.877   4.890   3.913  0.3462  0.7884 -0.2794
 1492HK4    H2525328   4.882   4.947   3.819 -1.5944  2.3652  0.5448
 1493HK4    H2825329  10.117   5.343   0.278 -3.2699 -0.8034  1.4560
 1493HK4    C4825330  10.115   5.249   0.224  0.3070  0.0949 -0.4234
 1493HK4    C4725331  10.232   5.182   0.190  0.3651  0.0161 -0.0656
 1493HK4    H2725332  10.320   5.206   0.251  0.2059 -1.1005  0.6222
 1493HK4    C4625333  10.230   5.089   0.086 -0.2580 -0.1024  0.0542
 1493HK4    H2625334  10.324   5.035   0.072  0.0391  0.2323  0.7385
 1493HK4    C4025335  10.115   5.053   0.013 -0.2457 -0.3890  0.1764
 1493HK4    C5025336   9.996   5.114   0.058  0.2628  0.8400 -0.0972
 1493HK4    H3025337   9.901   5.090   0.007  0.4418 -1.1650  0.4358
 1493HK4    C4925338   9.998   5.206   0.161 -0.2380  0.0703  0.6054
 1493HK4    H2925339   9.906   5.236   0.213  0.0430  2.3494 -0.1497
 1493HK4     N225340  10.137   5.011  11.129 -0.6575  0.6820 -0.2453
 1493HK4    C3025341  10.044   4.932  11.057 -0.5330  0.2205  0.0930
 1493HK4    C2925342   9.911   4.901  11.083 -0.6866  1.0186  0.3004
 1493HK4    H1525343   9.884   4.876  11.186  2.6452 -1.5319  0.6637
 1493HK4    C2825344   9.820   4.861  10.986  0.2359 -0.1127 -0.1154
 1493HK4    C2725345   9.864   4.867  10.851  0.1914  0.0095 -0.1253
 1493HK4    H1425346   9.796   4.864  10.765  0.1684 -1.1901 -0.0806
 1493HK4    C3225347   9.996   4.894  10.819  0.4731 -1.1598  0.0202
 1493HK4    H1625348  10.033   4.868  10.719 -0.5201 -0.0362 -0.6390
 1493HK4    C3125349  10.087   4.923  10.919 -0.2520  0.7153  0.1449
 1493HK4    C3425350  10.219   4.983  10.910 -0.0574  0.2171 -0.3610
 1493HK4    C3325351  10.244   5.039  11.041 -0.4393  0.0133 -0.2006
 1493HK4    C3525352  10.359   5.113  11.068 -0.3840 -0.1305 -0.0398
 1493HK4    H1725353  10.354   5.184  11.149  1.4254 -0.7534  0.6478
 1493HK4    C3625354  10.446   5.134  10.962 -0.1439 -0.8493  0.0143
 1493HK4    H1825355  10.524   5.211  10.972  0.4630 -1.6097  1.2142
 1493HK4    C3725356  10.423   5.073  10.839 -0.0546  0.0567 -0.4608
 1493HK4    H1925357  10.488   5.093  10.754 -0.8101  0.0792 -1.0344
 1493HK4    C3825358  10.317   4.988  10.811 -0.0468  0.0125 -0.3587
 1493HK4    H2025359  10.307   4.913  10.733 -0.5954  1.4166 -1.6792
 1493HK4    C1425360   9.692   4.803  11.025  0.1359 -0.0383 -0.3280
 1493HK4     C925361   9.620   4.729  10.931  0.1264 -0.0481 -0.3103
 1493HK4     C825362   9.482   4.750  10.911  0.0115 -0.6327 -0.1571
 1493HK4    C1125363   9.414   4.819  11.010  0.0879  0.0890 -0.6030
 1493HK4     H425364   9.321   4.876  10.991 -0.5776  0.0449  2.2953
 1493HK4    C1225365   9.480   4.863  11.124 -0.0937  0.0613 -0.4874
 1493HK4     H525366   9.416   4.910  11.201  1.4399 -0.1335  0.9414
 1493HK4    C1325367   9.619   4.859  11.132 -0.0927  0.0480 -0.5271
 1493HK4     H625368   9.662   4.867  11.233  0.9133  0.3047 -0.9720
 1493HK4     C725369   9.421   4.724  10.778  0.2278  0.1146 -0.4059
 1493HK4     O225370   9.303   4.749  10.753  0.0694 -0.0616  0.1414
 1493HK4     C425371   9.504   4.648  10.682  0.3152 -0.0727 -0.1861
 1493HK4     C325372   9.457   4.632  10.552 -0.5309 -0.0411  0.1128
 1493HK4     H325373   9.379   4.699  10.511 -0.9055 -0.3828  0.2686
 1493HK4     C225374   9.507   4.529  10.474  0.2375  0.3406  0.0986
 1493HK4     H225375   9.466   4.510  10.374  0.8263  1.4485 -0.3709
 1493HK4     C125376   9.596   4.437  10.528  0.1036  0.1014 -0.0932
 1493HK4     H125377   9.597   4.340  10.475  1.4629 -0.4799  0.9662
 1493HK4     C625378   9.645   4.450  10.660  0.2105 -0.0233 -0.1180
 1493HK4     C525379   9.604   4.563  10.732  0.2308 -0.0769 -0.0241
 1493HK4    C1025380   9.674   4.614  10.853  0.4491  0.0212 -0.1904
 1493HK4     O125381   9.772   4.550  10.891 -0.1964 -0.8906 -0.0483
 1493HK4    C1625382   9.697   4.325  10.717 -0.2019 -0.1723 -0.0657
 1493HK4    C1525383   9.768   4.234  10.636 -0.4620 -0.2188 -0.2378
 1493HK4     H725384   9.829   4.273  10.553 -1.0806 -2.3793 -1.7335
 1493HK4    C2025385   9.781   4.101  10.671 -0.0413 -0.1378 -0.0742
 1493HK4     H925386   9.843   4.029  10.617  2.9677  1.4750  1.1012
 1493HK4    C1925387   9.722   4.052  10.787 -0.6073 -0.3845 -0.4637
 1493HK4    C1825388   9.645   4.141  10.872 -0.1230 -0.0839 -0.3350
 1493HK4    C1725389   9.645   4.276  10.836  0.3774  0.0881  0.2986
 1493HK4     H825390   9.606   4.347  10.909  0.7068  0.2254  0.3414
 1493HK4     N125391   9.574   4.067  10.968  0.2725  0.0288  0.0430
 1493HK4    C2125392   9.620   3.935  10.953 -0.2651 -0.1646  0.0947
 1493HK4    C2225393   9.720   3.921  10.849 -0.3025 -0.1491  0.0554
 1493HK4    C2625394   9.805   3.811  10.841  0.0524  0.0876  0.5620
 1493HK4    H1325395   9.896   3.817  10.782 -0.2898 -2.3139 -0.2442
 1493HK4    C2525396   9.788   3.709  10.934 -0.2859 -0.4115 -0.0471
 1493HK4    H1225397   9.831   3.612  10.909 -1.5719 -0.9704 -0.1304
 1493HK4    C2425398   9.686   3.715  11.027 -0.1830  0.7480 -0.0039
 1493HK4    H1125399   9.674   3.629  11.095 -0.1252  1.1785  0.5615
 1493HK4    C2325400   9.606   3.828  11.041 -0.5070  0.4300  0.7804
 1493HK4    H1025401   9.531   3.836  11.120  0.4550  0.8126  1.6612
 1493HK4    C3925402   9.508   4.124  11.078  0.2265  0.0930 -0.0139
 1493HK4    C4125403   9.405   4.049  11.139  0.0929  0.0035 -0.3534
 1493HK4    H2125404   9.373   3.954  11.094 -1.0409  1.1787 -2.1004
 1493HK4    C4225405   9.355   4.089   0.014  0.2026  0.2852 -0.3988
 1493HK4    H2225406   9.281   4.027   0.068  1.8663 -1.6154 -0.2251
 1493HK4    C4325407   9.406   4.201   0.079 -0.0404  0.2849 -0.2065
 1493HK4    H2325408   9.367   4.228   0.176 -0.6060 -1.5850  0.1135
 1493HK4    C4425409   9.517   4.268   0.027 -0.1808  0.7217  0.0598
 1493HK4    H2425410   9.563   4.354   0.077 -1.5858 -0.0991  2.8805
 1493HK4    C4525411   9.566   4.230  11.151 -0.1806  0.1476  0.2318
 1493HK4    H2525412   9.657   4.280  11.114 -1.1561  0.5024 -1.7368
 1494HK4    H2825413   9.736   4.022   2.108 -0.1435  0.4007  0.6482
 1494HK4    C4825414   9.770   4.113   2.058 -0.1922 -0.0559 -0.2338
 1494HK4    C4725415   9.750   4.113   1.921  0.2763 -0.6326 -0.3000
 1494HK4    H2725416   9.747   4.021   1.860 -2.2621  0.1817 -1.4836
 1494HK4    C4625417   9.770   4.231   1.851  0.6539 -0.5485 -0.0505
 1494HK4    H2625418   9.753   4.233   1.742 -1.2352 -1.9061  0.2051
 1494HK4    C4025419   9.819   4.352   1.907 -0.1670 -0.1256 -0.2435
 1494HK4    C5025420   9.843   4.337   2.045 -0.4320  0.1080 -0.1722
 1494HK4    H3025421   9.891   4.417   2.104 -1.1666 -2.6638  4.4226
 1494HK4    C4925422   9.815   4.227   2.124  0.0356 -0.1047 -0.3015
 1494HK4    H2925423   9.824   4.231   2.234 -1.8741  1.6954 -0.1680
 1494HK4     N225424   9.813   4.473   1.838  0.0019 -0.4284 -0.7938
 1494HK4    C3025425   9.714   4.511   1.745 -0.2018  0.0716 -0.3742
 1494HK4    C2925426   9.587   4.461   1.720 -0.2646  0.2793 -0.4731
 1494HK4    H1525427   9.542   4.392   1.792  0.2897  0.0484 -0.3523
 1494HK4    C2825428   9.514   4.491   1.606 -0.0464  0.0840 -0.6622
 1494HK4    C2725429   9.566   4.594   1.524  0.0976  0.0342 -0.6321
 1494HK4    H1425430   9.500   4.655   1.461  0.1341  1.5072  0.7150
 1494HK4    C3225431   9.694   4.645   1.538  0.2979 -0.4954 -0.4900
 1494HK4    H1625432   9.734   4.712   1.461 -0.2200  0.9363  0.4795
 1494HK4    C3125433   9.769   4.605   1.648 -0.0615  0.4955  0.1141
 1494HK4    C3425434   9.906   4.632   1.687 -0.0681  0.0221  0.4806
 1494HK4    C3325435   9.928   4.548   1.803  0.3005 -0.4854  0.0481
 1494HK4    C3525436  10.053   4.549   1.864  0.1095  0.2101  0.4315
 1494HK4    H1725437  10.071   4.486   1.951  1.9437 -0.7849 -0.6491
 1494HK4    C3625438  10.151   4.631   1.810  0.0221  0.2261  0.2966
 1494HK4    H1825439  10.254   4.633   1.850 -0.3257 -1.5707  1.3080
 1494HK4    C3725440  10.125   4.717   1.704  0.0425 -0.1945 -0.0476
 1494HK4    H1925441  10.206   4.779   1.664  0.2353 -0.1718  0.3756
 1494HK4    C3825442  10.006   4.712   1.633  0.0946 -0.5738 -0.1091
 1494HK4    H2025443   9.980   4.785   1.556  0.5120  2.3231  2.4321
 1494HK4    C1425444   9.429   4.384   1.552 -0.5351  0.1573 -0.0545
 1494HK4     C925445   9.422   4.350   1.416 -0.6066  0.7136 -0.1938
 1494HK4     C825446   9.308   4.287   1.361 -0.2799 -0.3863  0.3549
 1494HK4    C1125447   9.199   4.264   1.445 -0.6882 -0.4700 -0.1988
 1494HK4     H425448   9.105   4.226   1.402 -1.2378 -0.9822  1.4491
 1494HK4    C1225449   9.200   4.309   1.576  0.2469  0.1532 -0.4144
 1494HK4     H525450   9.116   4.316   1.646  1.9317 -0.5476  1.7479
 1494HK4    C1325451   9.316   4.361   1.633 -0.2023  0.2419  0.4268
 1494HK4     H625452   9.317   4.401   1.735  1.4181  3.0032 -0.6361
 1494HK4     C725453   9.299   4.258   1.216  0.5446 -0.5493  0.3340
 1494HK4     O225454   9.225   4.169   1.174  0.4902  0.1986 -1.1560
 1494HK4     C425455   9.410   4.306   1.132 -0.0163  0.1722  0.0098
 1494HK4     C325456   9.382   4.305   0.996 -0.4381  0.1628  0.0975
 1494HK4     H325457   9.285   4.271   0.955  0.5653  0.3362 -2.5433
 1494HK4     C225458   9.491   4.326   0.912 -0.3291  0.8317  0.4034
 1494HK4     H225459   9.478   4.349   0.805  0.8117  0.0934  0.0961
 1494HK4     C125460   9.620   4.330   0.963 -0.2168 -0.0604  0.2136
 1494HK4     H125461   9.696   4.343   0.885 -1.2331 -0.7337 -0.8926
 1494HK4     C625462   9.650   4.318   1.101 -0.0788  0.0365  0.1924
 1494HK4     C525463   9.539   4.316   1.187 -0.0795 -0.0115  0.1923
 1494HK4    C1025464   9.546   4.341   1.334 -0.3561 -0.6414  0.3110
 1494HK4     O125465   9.650   4.313   1.392  0.0537 -0.3286 -0.2712
 1494HK4    C1625466   9.795   4.321   1.126 -0.1565  0.5001  0.5804
 1494HK4    C1525467   9.885   4.390   1.042  0.5318 -0.1516  0.7877
 1494HK4     H725468   9.850   4.480   0.990  0.7624  0.0108  0.9177
 1494HK4    C2025469  10.021   4.362   1.031  0.5607  0.3892 -0.3498
 1494HK4     H925470  10.076   4.405   0.948 -0.4824  1.2087 -0.6316
 1494HK4    C1925471  10.071   4.252   1.101 -0.3463  0.5689  0.6042
 1494HK4    C1825472   9.985   4.169   1.182  0.1191 -0.0433  0.4748
 1494HK4    C1725473   9.854   4.215   1.193 -0.0342 -0.2024 -0.6378
 1494HK4     H825474   9.794   4.165   1.269 -0.8574  0.2482 -0.9826
 1494HK4     N125475  10.061   4.062   1.234  0.5506  0.1988  0.3393
 1494HK4    C2125476  10.191   4.080   1.182  0.1394  0.6308 -0.5620
 1494HK4    C2225477  10.206   4.200   1.101 -0.2339  0.8475 -0.3135
 1494HK4    C2625478  10.332   4.242   1.060  0.0131  0.3227 -0.1143
 1494HK4    H1325479  10.336   4.332   0.999  0.6678  0.1254 -0.3671
 1494HK4    C2525480  10.447   4.174   1.098 -0.0021  0.0082 -0.6228
 1494HK4    H1225481  10.550   4.207   1.079 -0.2191  0.3147 -1.2701
 1494HK4    C2425482  10.433   4.060   1.175 -0.6000  0.2386 -0.3924
 1494HK4    H1125483  10.516   3.990   1.190 -1.6292 -0.9062  0.0766
 1494HK4    C2325484  10.309   4.016   1.219 -0.3482  0.2654  0.3660
 1494HK4    H1025485  10.295   3.910   1.242 -0.9999 -0.3185 -2.5095
 1494HK4    C3925486  10.040   3.993   1.354  0.0225 -0.1633  0.0388
 1494HK4    C4125487  10.099   3.867   1.374  0.6169  0.1624  0.3447
 1494HK4    H2125488  10.113   3.804   1.285 -1.5444 -0.0371  0.1236
 1494HK4    C4225489  10.106   3.811   1.501  0.2350 -0.7444 -0.0316
 1494HK4    H2225490  10.163   3.718   1.512  0.0427 -0.9988 -1.1402
 1494HK4    C4325491  10.050   3.878   1.609  0.2999 -0.0710 -0.4129
 1494HK4    H2325492  10.068   3.832   1.706 -0.6531  0.0346 -0.1889
 1494HK4    C4425493   9.988   4.001   1.592  0.6778  0.1283 -0.3698
 1494HK4    H2425494   9.953   4.070   1.670 -1.4588  0.7489 -1.8156
 1494HK4    C4525495   9.986   4.060   1.466  0.0816  0.3741 -0.2481
 1494HK4    H2525496   9.916   4.143   1.452 -2.2633 -0.6929  4.1208
 1495HK4    H2825497   5.821   5.027   2.228 -2.3699 -0.2381  2.1426
 1495HK4    C4825498   5.806   4.921   2.208  0.6020 -0.2890 -0.3062
 1495HK4    C4725499   5.812   4.839   2.320 -0.0600  0.1460  0.0538
 1495HK4    H2725500   5.899   4.859   2.385 -1.6910  1.8651  1.7596
 1495HK4    C4625501   5.743   4.718   2.322 -0.6915  0.5035  0.2095
 1495HK4    H2625502   5.723   4.675   2.421 -0.0314  1.3520  0.7152
 1495HK4    C4025503   5.664   4.680   2.211  0.1194  0.0903 -0.2343
 1495HK4    C5025504   5.666   4.765   2.098  0.0202  0.3131 -0.0700
 1495HK4    H3025505   5.607   4.748   2.006 -0.7887 -0.7094  0.6099
 1495HK4    C4925506   5.735   4.885   2.094  1.1314 -0.3436 -0.6142
 1495HK4    H2925507   5.741   4.941   2.000 -1.0778 -0.4672 -0.8417
 1495HK4     N225508   5.640   4.545   2.184  0.4255  0.0313 -0.2159
 1495HK4    C3025509   5.719   4.439   2.234 -0.0576 -0.0947  0.2900
 1495HK4    C2925510   5.849   4.442   2.281 -0.0644 -0.3105  0.3257
 1495HK4    H1525511   5.899   4.539   2.279  0.7899 -0.7129  1.3329
 1495HK4    C2825512   5.903   4.326   2.337 -0.0928 -0.4094  0.1465
 1495HK4    C2725513   5.832   4.205   2.325 -0.5379 -0.1431  0.0349
 1495HK4    H1425514   5.866   4.114   2.377  4.1176  1.9654  0.9617
 1495HK4    C3225515   5.711   4.193   2.258 -0.1179 -0.1819 -0.7191
 1495HK4    H1625516   5.643   4.108   2.254  0.3601 -0.6105  0.1991
 1495HK4    C3125517   5.651   4.312   2.217 -0.2074  0.0252 -0.0041
 1495HK4    C3425518   5.520   4.343   2.163 -0.1119  0.1924 -0.1414
 1495HK4    C3325519   5.518   4.487   2.145  0.3639  0.1867 -0.2566
 1495HK4    C3525520   5.400   4.543   2.097  0.3471  0.2216 -0.1775
 1495HK4    H1725521   5.398   4.651   2.087 -0.8908  0.2054 -0.2454
 1495HK4    C3625522   5.292   4.461   2.066  0.8231 -0.4744 -0.0144
 1495HK4    H1825523   5.210   4.504   2.007  1.4601 -0.8098 -1.1550
 1495HK4    C3725524   5.292   4.324   2.091 -0.3910 -0.5095 -0.1863
 1495HK4    H1925525   5.203   4.260   2.088 -2.3358  2.1510 -2.1683
 1495HK4    C3825526   5.408   4.265   2.138 -0.3064  0.2456  0.5629
 1495HK4    H2025527   5.421   4.159   2.114 -0.0370  1.0464 -3.0719
 1495HK4    C1425528   6.028   4.342   2.412  0.1207  0.2450 -0.3297
 1495HK4     C925529   6.118   4.236   2.430  0.2700  0.3397 -0.5288
 1495HK4     C825530   6.201   4.240   2.543  0.4426  0.0519 -0.6436
 1495HK4    C1125531   6.206   4.349   2.629 -0.0300 -0.3761 -0.0646
 1495HK4     H425532   6.281   4.363   2.709 -1.3189 -0.8805  1.2624
 1495HK4    C1225533   6.120   4.455   2.601  0.0965 -0.2886 -0.1287
 1495HK4     H525534   6.127   4.548   2.659 -2.2228  0.4586 -0.9744
 1495HK4    C1325535   6.028   4.455   2.497 -0.2290 -0.1156  0.1575
 1495HK4     H625536   5.968   4.545   2.479 -0.4804 -0.4297 -0.6149
 1495HK4     C725537   6.273   4.116   2.579 -0.1237 -0.1035 -0.0312
 1495HK4     O225538   6.332   4.108   2.686  0.0409  1.0782 -0.0255
 1495HK4     C425539   6.281   4.000   2.487 -0.3433 -0.3682  0.2817
 1495HK4     C325540   6.359   3.890   2.521 -0.1985 -0.1785  0.5701
 1495HK4     H325541   6.422   3.892   2.611 -0.2343 -0.2234  0.5948
 1495HK4     C225542   6.358   3.775   2.443 -0.3479  0.5305 -0.4931
 1495HK4     H225543   6.434   3.697   2.460 -1.6963 -0.3350  1.9584
 1495HK4     C125544   6.263   3.768   2.342 -0.4062 -0.9636 -0.3490
 1495HK4     H125545   6.256   3.669   2.293  0.6724 -1.3574  0.2651
 1495HK4     C625546   6.176   3.873   2.309 -0.0723 -0.3582  0.6775
 1495HK4     C525547   6.194   3.994   2.377  0.1088  0.0552 -0.1005
 1495HK4    C1025548   6.128   4.121   2.335 -0.2050 -0.0930 -0.0585
 1495HK4     O125549   6.123   4.147   2.215  0.3186 -0.5898 -0.1856
 1495HK4    C1625550   6.055   3.826   2.239  0.2206 -0.0466 -0.0446
 1495HK4    C1525551   6.008   3.696   2.267 -0.0566 -0.0418 -0.4843
 1495HK4     H725552   6.034   3.653   2.365 -1.3459 -1.1855 -0.6199
 1495HK4    C2025553   5.900   3.638   2.200 -0.2689 -0.2887  0.0725
 1495HK4     H925554   5.877   3.532   2.215 -2.1710 -0.0617 -1.1625
 1495HK4    C1925555   5.833   3.712   2.104 -0.0247  0.1592  0.2434
 1495HK4    C1825556   5.888   3.840   2.065 -0.1456  0.2144  0.2561
 1495HK4    C1725557   6.001   3.890   2.128  0.6674 -0.5586 -0.5658
 1495HK4     H825558   6.067   3.956   2.072 -1.7393  3.2837  0.9127
 1495HK4     N125559   5.804   3.919   1.984  0.0465 -0.0425 -0.1909
 1495HK4    C2125560   5.688   3.840   1.968 -0.0037 -0.0042 -0.0125
 1495HK4    C2225561   5.705   3.712   2.036  0.1421 -0.0173 -0.0720
 1495HK4    C2625562   5.592   3.631   2.040 -0.2396  0.5423  0.5808
 1495HK4    H1325563   5.609   3.536   2.092 -1.3236 -0.2076 -0.4287
 1495HK4    C2525564   5.473   3.664   1.977  0.1465 -0.1703 -0.5263
 1495HK4    H1225565   5.376   3.620   1.999 -0.2956  1.9344  1.9379
 1495HK4    C2425566   5.463   3.781   1.903 -0.3146  0.4213  0.4702
 1495HK4    H1125567   5.371   3.798   1.845  0.5029 -2.3136 -1.6993
 1495HK4    C2325568   5.572   3.866   1.897  0.1000 -0.1578 -0.2391
 1495HK4    H1025569   5.544   3.969   1.874 -1.1696 -0.3567  0.3491
 1495HK4    C3925570   5.841   4.027   1.903 -0.0772 -0.3202 -0.6189
 1495HK4    C4125571   5.962   4.045   1.833 -0.0994  0.5034 -0.4503
 1495HK4    H2125572   6.033   3.964   1.813  0.0395  0.6469 -0.5428
 1495HK4    C4225573   6.001   4.173   1.797  0.2313  0.5582  0.1094
 1495HK4    H2225574   6.094   4.185   1.740  1.1239  0.9037  1.6082
 1495HK4    C4325575   5.927   4.287   1.827  0.4589  0.5684  0.6458
 1495HK4    H2325576   5.981   4.381   1.835 -0.5614  1.3144 -0.8825
 1495HK4    C4425577   5.803   4.269   1.887  0.2413 -0.5327 -0.1124
 1495HK4    H2425578   5.753   4.353   1.938  1.1227  0.6231 -1.1220
 1495HK4    C4525579   5.761   4.142   1.922  0.0989 -0.3566  0.3673
 1495HK4    H2525580   5.661   4.139   1.968 -0.0571  0.3170  0.0704
 1496HK4    H2825581   4.296   8.090   5.939  0.6722  1.6077  1.6291
 1496HK4    C4825582   4.367   8.027   5.993  0.0162 -0.2585  0.3711
 1496HK4    C4725583   4.463   8.105   6.057 -0.1065 -0.3773  0.7017
 1496HK4    H2725584   4.479   8.209   6.026 -1.2913 -0.6513 -0.8473
 1496HK4    C4625585   4.529   8.053   6.168  0.4104  0.1819  0.6618
 1496HK4    H2625586   4.614   8.113   6.205  1.8923 -0.0497 -2.2513
 1496HK4    C4025587   4.501   7.922   6.214 -0.1081  0.0613  0.0148
 1496HK4    C5025588   4.395   7.850   6.155 -0.5987  0.3861  0.4876
 1496HK4    H3025589   4.374   7.748   6.191 -2.2918 -0.0957 -1.8025
 1496HK4    C4925590   4.336   7.900   6.040 -0.1408 -0.3892 -0.0911
 1496HK4    H2925591   4.245   7.860   5.993 -1.1666  1.4867  0.2512
 1496HK4     N225592   4.544   7.875   6.339  0.4997 -0.0852 -0.2524
 1496HK4    C3025593   4.579   7.962   6.444 -0.8008 -0.3978  0.4351
 1496HK4    C2925594   4.500   8.065   6.495 -0.9845 -0.1302 -0.3938
 1496HK4    H1525595   4.433   8.122   6.430 -0.9328  0.4844  0.0909
 1496HK4    C2825596   4.527   8.115   6.621  0.1087 -0.1599 -0.6090
 1496HK4    C2725597   4.630   8.064   6.702 -0.4320 -0.4740 -0.1175
 1496HK4    H1425598   4.639   8.080   6.811 -2.7830 -3.2900  0.5663
 1496HK4    C3225599   4.709   7.959   6.655  0.7458  0.5326 -0.3980
 1496HK4    H1625600   4.786   7.913   6.717  0.6137  2.5476  1.3437
 1496HK4    C3125601   4.684   7.908   6.529 -0.0776  0.1747 -0.0931
 1496HK4    C3425602   4.712   7.780   6.468 -0.2172  0.1369 -0.0786
 1496HK4    C3325603   4.624   7.760   6.354  0.3619 -0.2114 -0.4705
 1496HK4    C3525604   4.632   7.640   6.285 -0.3169 -0.2901 -0.4124
 1496HK4    H1725605   4.613   7.638   6.178  0.4639 -0.6073 -0.5484
 1496HK4    C3625606   4.718   7.539   6.328 -0.0317  0.2145  0.2161
 1496HK4    H1825607   4.718   7.447   6.268  0.6584  0.2243  0.1986
 1496HK4    C3725608   4.804   7.557   6.436  0.1293 -0.5309  0.2166
 1496HK4    H1925609   4.863   7.477   6.480  2.1287  1.2207  0.8141
 1496HK4    C3825610   4.804   7.680   6.500 -0.5717 -0.2605 -0.2907
 1496HK4    H2025611   4.884   7.708   6.569 -1.2216 -1.1185  0.8396
 1496HK4    C1425612   4.462   8.238   6.670  0.2903 -0.2503 -0.1367
 1496HK4     C925613   4.536   8.347   6.717  0.1639 -0.1832 -0.1009
 1496HK4     C825614   4.491   8.424   6.826 -0.2159 -0.1566 -0.2742
 1496HK4    C1125615   4.368   8.400   6.887 -0.1972  0.1901 -0.0940
 1496HK4     H425616   4.329   8.469   6.963  2.1676 -0.1023  1.4327
 1496HK4    C1225617   4.295   8.289   6.845 -0.0723  0.2483 -0.4769
 1496HK4     H525618   4.218   8.256   6.915 -0.0775 -1.7134 -1.3680
 1496HK4    C1325619   4.343   8.210   6.741  0.2821 -0.0617 -0.0769
 1496HK4     H625620   4.285   8.117   6.732  0.2533 -0.0459 -0.0404
 1496HK4     C725621   4.563   8.545   6.871 -0.6700  0.2492 -0.6293
 1496HK4     O225622   4.517   8.608   6.967  0.3066 -0.0309  0.0335
 1496HK4     C425623   4.696   8.576   6.813 -0.3398  0.4984  0.2543
 1496HK4     C325624   4.783   8.672   6.864 -0.3999  0.9880 -0.5681
 1496HK4     H325625   4.748   8.727   6.953 -1.7121  0.8501 -0.9831
 1496HK4     C225626   4.893   8.720   6.794  0.3399 -0.1860 -0.2283
 1496HK4     H225627   4.968   8.785   6.841  2.1855 -1.2334 -1.6842
 1496HK4     C125628   4.915   8.677   6.664  0.1305 -0.7601 -0.0722
 1496HK4     H125629   4.998   8.717   6.605 -0.8863  1.0658 -0.3029
 1496HK4     C625630   4.827   8.583   6.605 -0.2119 -0.4641 -0.0307
 1496HK4     C525631   4.725   8.528   6.684  0.1247 -0.1783  0.6066
 1496HK4    C1025632   4.649   8.407   6.642  0.0294  0.1183 -0.0631
 1496HK4     O125633   4.688   8.334   6.551 -0.5527 -0.5067  0.1883
 1496HK4    C1625634   4.885   8.528   6.482 -0.2020 -0.7743  0.1125
 1496HK4    C1525635   5.024   8.511   6.471 -0.0805  0.2568  0.0037
 1496HK4     H725636   5.085   8.506   6.563  0.0631 -0.5392 -0.1289
 1496HK4    C2025637   5.086   8.508   6.347  0.0578 -0.2176  0.0812
 1496HK4     H925638   5.188   8.473   6.332 -0.1287 -1.1770  0.9963
 1496HK4    C1925639   5.001   8.528   6.238 -0.0262  0.6600  0.3012
 1496HK4    C1825640   4.857   8.538   6.248 -0.1678 -0.9955  0.1409
 1496HK4    C1725641   4.798   8.542   6.374 -0.1544 -0.3679  0.1282
 1496HK4     H825642   4.692   8.558   6.392 -0.2917  0.3000 -1.1758
 1496HK4     N125643   4.798   8.547   6.120 -0.1121 -0.6476  0.1414
 1496HK4    C2125644   4.905   8.533   6.029 -0.0870 -0.1971  0.1014
 1496HK4    C2225645   5.032   8.545   6.098 -0.0328 -0.8506  0.1076
 1496HK4    C2625646   5.147   8.539   6.019 -0.0218  0.2797  0.0385
 1496HK4    H1325647   5.246   8.528   6.063  1.3395  0.4964 -2.8769
 1496HK4    C2525648   5.146   8.522   5.881 -0.0646 -0.3426  0.1148
 1496HK4    H1225649   5.235   8.499   5.823  0.8569  1.9837  0.5637
 1496HK4    C2425650   5.022   8.506   5.820 -0.0173 -0.2921  0.0012
 1496HK4    H1125651   5.016   8.492   5.711 -1.8141  1.7148 -0.1998
 1496HK4    C2325652   4.903   8.519   5.890  0.0554 -0.1388  0.0921
 1496HK4    H1025653   4.811   8.484   5.843  0.7334 -0.5990 -0.9014
 1496HK4    C3925654   4.663   8.526   6.092 -0.1547 -0.0590 -0.1056
 1496HK4    C4125655   4.580   8.449   6.176 -0.8443  0.5851 -0.1871
 1496HK4    H2125656   4.621   8.366   6.234 -3.4472  0.2299  1.2189
 1496HK4    C4225657   4.441   8.454   6.169 -0.9013 -0.4365  0.1891
 1496HK4    H2225658   4.385   8.396   6.244 -0.4574  0.8964  1.5627
 1496HK4    C4325659   4.380   8.522   6.064 -0.3809 -0.0379  0.1444
 1496HK4    H2325660   4.277   8.502   6.032  0.1845 -1.1112 -1.0847
 1496HK4    C4425661   4.457   8.595   5.974 -0.2745 -0.5770 -0.2060
 1496HK4    H2425662   4.413   8.653   5.892  0.7371 -1.2878 -1.2720
 1496HK4    C4525663   4.595   8.598   5.991 -0.3291  0.1497  0.1592
 1496HK4    H2525664   4.652   8.680   5.945 -0.9220 -0.9968 -2.7262
 1497HK4    H2825665   8.841   7.201   9.520 -1.6053  1.5524  1.2578
 1497HK4    C4825666   8.854   7.254   9.426 -0.3556 -0.4186  0.2799
 1497HK4    C4725667   8.740   7.290   9.355 -0.4540 -0.7673  0.2627
 1497HK4    H2725668   8.652   7.303   9.419  1.3357 -2.2814  3.1171
 1497HK4    C4625669   8.755   7.320   9.220  0.2986 -0.6499  0.3660
 1497HK4    H2625670   8.672   7.352   9.154  0.5595 -3.3175 -1.3361
 1497HK4    C4025671   8.881   7.317   9.156  0.2020  0.5409  0.1084
 1497HK4    C5025672   8.993   7.281   9.234 -0.0605  0.0835  0.2728
 1497HK4    H3025673   9.094   7.305   9.199 -0.0257 -0.1920  0.1827
 1497HK4    C4925674   8.980   7.248   9.368 -0.3632 -0.0306  0.2171
 1497HK4    H2925675   9.067   7.235   9.435  0.0029 -1.3619 -0.4994
 1497HK4     N225676   8.901   7.314   9.018  0.0048  0.3815  0.0823
 1497HK4    C3025677   8.809   7.258   8.926  0.2077 -0.1800  0.2252
 1497HK4    C2925678   8.709   7.163   8.942 -0.3504  0.2701 -0.5965
 1497HK4    H1525679   8.678   7.127   9.040  0.5170  0.0540 -0.4065
 1497HK4    C2825680   8.636   7.123   8.830 -0.1983 -0.5208 -0.4141
 1497HK4    C2725681   8.669   7.184   8.707  0.1452 -0.2749 -0.2019
 1497HK4    H1425682   8.603   7.148   8.627  0.0707 -0.9259  0.1493
 1497HK4    C3225683   8.768   7.278   8.684  0.2897 -0.3093  0.2735
 1497HK4    H1625684   8.780   7.327   8.588 -1.0699 -1.8772 -0.7043
 1497HK4    C3125685   8.840   7.316   8.797 -0.0623  0.1916  0.3311
 1497HK4    C3425686   8.953   7.405   8.814  0.2427 -0.1513  0.1127
 1497HK4    C3325687   8.989   7.404   8.955  0.2286  0.1900  0.1199
 1497HK4    C3525688   9.092   7.487   8.996 -0.1266  0.7221 -0.0515
 1497HK4    H1725689   9.123   7.492   9.101  1.9809 -0.9543 -0.5560
 1497HK4    C3625690   9.163   7.563   8.903  0.3250 -0.0199 -0.3109
 1497HK4    H1825691   9.256   7.611   8.933  3.4391 -3.6408 -3.5023
 1497HK4    C3725692   9.133   7.554   8.767  0.0190 -0.2866 -0.2296
 1497HK4    H1925693   9.178   7.615   8.688 -1.1413  0.0570 -0.6287
 1497HK4    C3825694   9.021   7.485   8.723 -0.4209  0.2827 -0.0012
 1497HK4    H2025695   8.977   7.492   8.624 -2.7780 -1.6203  0.8578
 1497HK4    C1425696   8.560   6.997   8.837 -0.4685 -0.3361  0.0592
 1497HK4     C925697   8.555   6.912   8.726 -0.1558  0.4129 -0.5366
 1497HK4     C825698   8.439   6.833   8.709  0.1461 -0.2122  0.2688
 1497HK4    C1125699   8.331   6.843   8.796  0.1094 -0.2483  0.2286
 1497HK4     H425700   8.229   6.806   8.778 -0.1242  0.9381 -0.9915
 1497HK4    C1225701   8.344   6.920   8.911  0.3819 -0.0997  0.0989
 1497HK4     H525702   8.247   6.956   8.948 -0.1443 -1.0409 -0.3237
 1497HK4    C1325703   8.462   6.988   8.938 -0.0237  0.4268  0.5634
 1497HK4     H625704   8.465   7.053   9.026 -1.4248  1.6121 -0.2554
 1497HK4     C725705   8.430   6.724   8.610 -0.1789  0.1183 -0.0624
 1497HK4     O225706   8.321   6.674   8.579 -0.3952  0.6138 -0.1101
 1497HK4     C425707   8.546   6.697   8.523  0.0658  0.0095  0.3009
 1497HK4     C325708   8.537   6.582   8.444 -1.0251  0.6285 -0.4848
 1497HK4     H325709   8.446   6.525   8.425 -1.3038  1.2008 -0.8979
 1497HK4     C225710   8.641   6.564   8.353 -0.6116  0.6034 -0.0110
 1497HK4     H225711   8.653   6.476   8.288 -0.3132 -0.0731  0.9490
 1497HK4     C125712   8.738   6.662   8.337 -0.5736  0.5482 -0.1130
 1497HK4     H125713   8.765   6.673   8.231 -1.9663 -1.0223 -0.6620
 1497HK4     C625714   8.747   6.778   8.417  0.1339  0.3896  0.0446
 1497HK4     C525715   8.654   6.788   8.520 -0.1369  0.2387 -0.1804
 1497HK4    C1025716   8.669   6.883   8.634 -0.0063  0.4289 -0.3586
 1497HK4     O125717   8.783   6.896   8.679  0.0425 -0.5472 -0.1978
 1497HK4    C1625718   8.845   6.877   8.371  0.2393  0.6448  0.8262
 1497HK4    C1525719   8.950   6.840   8.284 -0.1443  0.1454  0.5720
 1497HK4     H725720   9.000   6.743   8.297  0.2490  0.2477 -0.1570
 1497HK4    C2025721   9.008   6.922   8.188 -0.1967 -0.1567  0.2807
 1497HK4     H925722   9.102   6.882   8.151  1.0015  1.1280  1.8864
 1497HK4    C1925723   8.960   7.051   8.168  0.1229 -0.1270 -0.3106
 1497HK4    C1825724   8.862   7.098   8.265  0.3120  0.1769 -0.2624
 1497HK4    C1725725   8.808   7.010   8.358 -0.0347  0.4779 -0.1809
 1497HK4     H825726   8.753   7.050   8.443  2.1016  0.1056  1.4361
 1497HK4     N125727   8.814   7.224   8.224  0.0979  0.1962  0.0510
 1497HK4    C2125728   8.882   7.259   8.106  0.1182 -0.0774 -0.0218
 1497HK4    C2225729   8.977   7.156   8.069  0.3327  0.1186 -0.0142
 1497HK4    C2625730   9.041   7.160   7.946  0.6220 -0.2493  0.1230
 1497HK4    H1325731   9.131   7.099   7.934  2.0122  1.2092  2.7838
 1497HK4    C2525732   9.017   7.263   7.856 -0.1866 -0.6969 -0.1714
 1497HK4    H1225733   9.074   7.275   7.764  1.4693 -0.3596  0.8890
 1497HK4    C2425734   8.924   7.361   7.889  0.6409 -0.2011  0.6936
 1497HK4    H1125735   8.905   7.452   7.829 -2.1182 -0.4109  1.1959
 1497HK4    C2325736   8.857   7.357   8.010 -0.3534 -0.0316  0.1491
 1497HK4    H1025737   8.784   7.436   8.025 -0.8213 -0.0865 -1.6716
 1497HK4    C3925738   8.706   7.295   8.279  0.4091  0.3825  0.4196
 1497HK4    C4125739   8.587   7.230   8.319  0.2672  0.4549  0.1248
 1497HK4    H2125740   8.579   7.121   8.308  3.0354  0.0518  1.7321
 1497HK4    C4225741   8.483   7.299   8.379 -0.1983  0.1034 -0.2827
 1497HK4    H2225742   8.385   7.249   8.387 -0.0098 -0.9028 -3.6190
 1497HK4    C4325743   8.499   7.434   8.408  0.1547 -0.0640  0.2919
 1497HK4    H2325744   8.433   7.482   8.481  1.0331  2.0854 -0.2898
 1497HK4    C4425745   8.611   7.506   8.368 -0.1481  0.3182  0.1225
 1497HK4    H2425746   8.610   7.615   8.378 -2.8783  0.2765  0.6345
 1497HK4    C4525747   8.710   7.434   8.301 -0.0714  0.4507  0.0914
 1497HK4    H2525748   8.790   7.496   8.258 -1.4119  1.2496 -1.2794
 1498HK4    H2825749   7.727   1.453   6.767 -3.4448 -2.6187  3.4388
 1498HK4    C4825750   7.772   1.356   6.748 -0.0187 -0.5023  0.1180
 1498HK4    C4725751   7.810   1.262   6.843  0.2097 -0.7535 -0.2258
 1498HK4    H2725752   7.791   1.279   6.949 -0.7364 -2.1078 -0.1572
 1498HK4    C4625753   7.877   1.145   6.808  0.7803 -0.4737 -0.0730
 1498HK4    H2625754   7.893   1.074   6.891  1.4196 -0.2473  0.0004
 1498HK4    C4025755   7.915   1.124   6.674  0.1405  0.1079 -0.3451
 1498HK4    C5025756   7.874   1.222   6.581 -0.3584 -0.0500 -0.2908
 1498HK4    H3025757   7.926   1.219   6.484 -0.5493 -1.1902 -0.3656
 1498HK4    C4925758   7.799   1.334   6.613 -0.3199 -0.1051 -0.0098
 1498HK4    H2925759   7.726   1.386   6.550 -2.0844 -0.2546  1.8327
 1498HK4     N225760   8.009   1.029   6.632  0.7438  0.5960 -0.0982
 1498HK4    C3025761   8.095   0.952   6.712  0.2402 -0.4273 -0.5288
 1498HK4    C2925762   8.144   0.978   6.840 -0.4712  0.1740 -0.3753
 1498HK4    H1525763   8.116   1.078   6.874 -1.1525  0.2668 -1.1794
 1498HK4    C2825764   8.223   0.892   6.915 -0.2978  0.3467 -0.3589
 1498HK4    C2725765   8.253   0.767   6.856 -0.2396  0.1887  0.0020
 1498HK4    H1425766   8.276   0.677   6.915  0.1408 -0.6931 -1.4700
 1498HK4    C3225767   8.221   0.738   6.724  0.6022 -0.2709 -0.1036
 1498HK4    H1625768   8.264   0.657   6.665  1.5992 -0.4674  0.8905
 1498HK4    C3125769   8.137   0.825   6.655  0.2651 -0.6044 -0.1170
 1498HK4    C3425770   8.073   0.830   6.525  0.0362 -0.2229  0.0069
 1498HK4    C3325771   7.992   0.950   6.517  0.0531 -0.1745  0.5310
 1498HK4    C3525772   7.918   0.973   6.401  0.2606 -0.3898  0.3537
 1498HK4    H1725773   7.833   1.041   6.396  0.7845  0.1239 -2.5442
 1498HK4    C3625774   7.925   0.882   6.296 -0.0525  0.1492 -0.1358
 1498HK4    H1825775   7.868   0.898   6.204 -2.1221 -1.6937  0.7903
 1498HK4    C3725776   8.006   0.770   6.310 -0.9634 -0.4495  0.4240
 1498HK4    H1925777   7.984   0.691   6.239 -1.7274 -0.3437  0.5403
 1498HK4    C3825778   8.090   0.743   6.418 -0.1296 -0.0878 -0.1278
 1498HK4    H2025779   8.181   0.688   6.396  0.6329  0.8552  0.6473
 1498HK4    C1425780   8.302   0.944   7.027 -0.3375 -0.5187  0.0736
 1498HK4     C925781   8.437   0.919   7.058 -0.1777  0.0254 -0.1815
 1498HK4     C825782   8.489   0.931   7.188  0.0776 -0.2343 -0.2606
 1498HK4    C1125783   8.401   0.975   7.287 -0.2689 -0.3155 -0.5331
 1498HK4     H425784   8.438   0.968   7.390 -0.8257 -0.8375 -0.3730
 1498HK4    C1225785   8.273   1.022   7.260 -0.4734 -0.4687  0.1626
 1498HK4     H525786   8.217   1.081   7.334 -0.9277  1.4319 -1.6404
 1498HK4    C1325787   8.226   1.003   7.130 -0.0101  0.2385 -0.1117
 1498HK4     H625788   8.126   1.042   7.107  0.3415  1.3377  0.2147
 1498HK4     C725789   8.630   0.909   7.226  0.1194  0.3188 -0.1076
 1498HK4     O225790   8.683   0.963   7.323 -0.1760 -0.1928  0.3382
 1498HK4     C425791   8.723   0.850   7.126 -0.1302 -0.0351 -0.1362
 1498HK4     C325792   8.856   0.825   7.158 -0.0757 -0.1767 -0.4895
 1498HK4     H325793   8.907   0.867   7.245 -0.0357 -0.8601 -0.1811
 1498HK4     C225794   8.932   0.741   7.077  0.8828  0.2359 -0.0153
 1498HK4     H225795   9.041   0.739   7.093  0.6353  0.4076  1.7621
 1498HK4     C125796   8.871   0.687   6.964 -0.1533 -0.3225  0.8045
 1498HK4     H125797   8.936   0.635   6.892 -1.4883 -1.1587  0.1938
 1498HK4     C625798   8.738   0.717   6.930  0.3520  0.4927 -0.4781
 1498HK4     C525799   8.664   0.810   7.004  0.2005  0.3220 -0.4156
 1498HK4    C1025800   8.532   0.861   6.959 -0.2015 -0.3397  0.0055
 1498HK4     O125801   8.526   0.909   6.846  0.2634 -0.7466 -0.1914
 1498HK4    C1625802   8.677   0.628   6.830  0.3616 -0.1311  0.0709
 1498HK4    C1525803   8.692   0.489   6.851  0.1067 -0.1210  0.3202
 1498HK4     H725804   8.708   0.456   6.955 -1.6087  0.6412  0.8450
 1498HK4    C2025805   8.686   0.405   6.740  0.4415  0.1659  0.0818
 1498HK4     H925806   8.715   0.300   6.744  0.7022  0.2006 -0.9451
 1498HK4    C1925807   8.665   0.452   6.611  0.0296 -0.2967 -0.0238
 1498HK4    C1825808   8.647   0.595   6.590  0.0671 -0.2294  0.4003
 1498HK4    C1725809   8.655   0.677   6.702 -0.2887  0.0197  0.2420
 1498HK4     H825810   8.668   0.784   6.687 -1.2514  0.4257  2.0411
 1498HK4     N125811   8.620   0.622   6.455 -0.2171 -0.0997  0.4834
 1498HK4    C2125812   8.627   0.493   6.399 -0.1352  0.0451  0.1578
 1498HK4    C2225813   8.674   0.384   6.483  0.3149 -0.0091 -0.1582
 1498HK4    C2625814   8.665   0.251   6.445  0.4525 -0.3253  0.8772
 1498HK4    H1325815   8.660   0.178   6.525  2.6928  1.3273  2.6010
 1498HK4    C2525816   8.621   0.216   6.317 -0.3625  0.9997  0.7864
 1498HK4    H1225817   8.608   0.113   6.285  1.8418  0.8000  0.4230
 1498HK4    C2425818   8.585   0.316   6.228  0.1461  0.2595 -0.2607
 1498HK4    H1125819   8.532   0.283   6.137  3.5890  0.5298 -2.4376
 1498HK4    C2325820   8.582   0.447   6.276  0.4795  0.2192 -0.1318
 1498HK4    H1025821   8.506   0.507   6.227  1.5135 -0.1195 -2.2285
 1498HK4    C3925822   8.557   0.730   6.393 -0.5250 -0.3658  0.3307
 1498HK4    C4125823   8.572   0.756   6.255 -0.3111 -0.3325  0.3603
 1498HK4    H2125824   8.655   0.713   6.198 -2.5294 -0.9977 -2.5507
 1498HK4    C4225825   8.488   0.847   6.191  0.8215  0.5903  0.1892
 1498HK4    H2225826   8.488   0.839   6.081 -0.6325 -0.9880  0.2922
 1498HK4    C4325827   8.388   0.920   6.254 -0.2422 -0.6039 -0.1066
 1498HK4    H2325828   8.320   0.977   6.191 -2.5873 -0.6081  2.3217
 1498HK4    C4425829   8.378   0.904   6.392  0.0915  0.7107  0.0699
 1498HK4    H2425830   8.319   0.983   6.441 -0.3425 -0.0877  0.8241
 1498HK4    C4525831   8.465   0.817   6.456  0.2897  0.7986 -0.0755
 1498HK4    H2525832   8.449   0.796   6.563  1.6311  0.3327  0.0473
 1499HK4    H2825833   4.687   0.353  10.381 -0.1460  0.3512 -0.0359
 1499HK4    C4825834   4.685   0.433  10.455 -0.0842  0.0026  0.3436
 1499HK4    C4725835   4.803   0.506  10.460 -0.1944  0.2366 -0.3644
 1499HK4    H2725836   4.889   0.469  10.403 -1.5823 -2.0571 -1.0030
 1499HK4    C4625837   4.815   0.607  10.555 -0.1401 -0.3885  0.2960
 1499HK4    H2625838   4.913   0.655  10.569  0.7963 -2.6967  1.9930
 1499HK4    C4025839   4.713   0.644  10.645 -0.0167  0.5089  0.0710
 1499HK4    C5025840   4.600   0.561  10.634  0.2540  0.1152  0.2276
 1499HK4    H3025841   4.511   0.579  10.697 -0.5639 -3.5237  0.2120
 1499HK4    C4925842   4.580   0.459  10.542 -0.2035  0.3062  0.1097
 1499HK4    H2925843   4.483   0.408  10.531  0.0483 -0.2778  0.5468
 1499HK4     N225844   4.738   0.728  10.754  0.7958  0.1328  0.1793
 1499HK4    C3025845   4.854   0.731  10.835  0.5155  0.0958  0.5826
 1499HK4    C2925846   4.962   0.644  10.846 -0.0062 -0.6926 -0.5080
 1499HK4    H1525847   4.943   0.542  10.812 -0.2356 -0.0827 -2.2939
 1499HK4    C2825848   5.076   0.674  10.918 -0.4021 -0.0290 -0.1562
 1499HK4    C2725849   5.075   0.796  10.988  0.3370 -0.1378  0.0571
 1499HK4    H1425850   5.167   0.841  11.029 -0.3703  0.6769  0.7880
 1499HK4    C3225851   4.964   0.880  10.989  0.6126  0.2286  0.1111
 1499HK4    H1625852   4.961   0.967  11.055 -0.1406  1.0627 -0.9955
 1499HK4    C3125853   4.852   0.855  10.910  0.2622  0.0434  0.6658
 1499HK4    C3425854   4.721   0.916  10.894  0.5823  0.4990 -0.2463
 1499HK4    C3325855   4.654   0.834  10.795  0.5757 -0.0487  0.2031
 1499HK4    C3525856   4.530   0.876  10.749  0.7544 -0.1975 -0.4229
 1499HK4    H1725857   4.458   0.813  10.697  0.7251  0.3549 -1.0604
 1499HK4    C3625858   4.476   0.996  10.795  0.6205 -0.3470 -0.1911
 1499HK4    H1825859   4.393   1.042  10.741  0.2208  2.0761  2.3708
 1499HK4    C3725860   4.542   1.074  10.890 -0.1631  0.3825 -0.2404
 1499HK4    H1925861   4.514   1.179  10.897  1.1886  0.7067  0.5194
 1499HK4    C3825862   4.664   1.033  10.943 -0.3933 -0.0547 -0.0464
 1499HK4    H2025863   4.710   1.097  11.018 -1.2216  0.1908  0.2580
 1499HK4    C1425864   5.148   0.554  10.965 -0.4386 -0.1244 -0.3437
 1499HK4     C925865   5.200   0.546  11.094 -0.0626  0.5145 -0.4514
 1499HK4     C825866   5.334   0.506  11.116 -0.1358  0.6113  0.1812
 1499HK4    C1125867   5.402   0.452  11.008 -0.4382  0.7265 -0.0678
 1499HK4     H425868   5.512   0.448  11.008 -0.4539  0.3088 -0.6907
 1499HK4    C1225869   5.348   0.439  10.880  0.4262 -0.1912 -0.3498
 1499HK4     H525870   5.393   0.371  10.807 -0.8639 -0.2380 -1.1005
 1499HK4    C1325871   5.222   0.494  10.861  0.2123 -0.4477  0.3035
 1499HK4     H625872   5.175   0.472  10.764  0.9018  3.3331 -0.9955
 1499HK4     C725873   5.402   0.544  11.242  0.3670 -0.1004  0.1279
 1499HK4     O225874   5.510   0.491   0.017  0.2970 -0.3957 -0.2056
 1499HK4     C425875   5.329   0.624   0.095 -0.0781 -0.0522 -0.2299
 1499HK4     C325876   5.401   0.664   0.207  0.5082  0.1971 -0.6963
 1499HK4     H325877   5.504   0.627   0.222  0.0252 -0.8075  0.1392
 1499HK4     C225878   5.341   0.729   0.314 -0.3794 -1.4786 -0.1639
 1499HK4     H225879   5.390   0.732   0.412  0.2460  0.1954 -0.5041
 1499HK4     C125880   5.207   0.762   0.296 -0.0256  0.2449  0.2142
 1499HK4     H125881   5.157   0.791   0.389  0.5445 -0.5305  0.7769
 1499HK4     C625882   5.133   0.732   0.179 -0.1984 -0.4531  0.5002
 1499HK4     C525883   5.193   0.657   0.077 -0.2918 -0.5211  0.4938
 1499HK4    C1025884   5.121   0.608  11.204  0.1311 -0.2836  0.1434
 1499HK4     O125885   5.009   0.562  11.228  0.0367 -0.5064 -0.7290
 1499HK4    C1625886   5.034   0.834   0.141  0.2530 -0.0593  0.3797
 1499HK4    C1525887   5.057   0.971   0.162 -0.0324  0.0794 -0.2254
 1499HK4     H725888   5.159   1.008   0.183  0.0196  0.3354 -0.8977
 1499HK4    C2025889   4.959   1.070   0.161 -0.0697  0.0447  0.1126
 1499HK4     H925890   4.982   1.175   0.178  2.5106 -0.6819  1.3665
 1499HK4    C1925891   4.826   1.034   0.147 -0.0961  0.0352  0.3871
 1499HK4    C1825892   4.796   0.897   0.109  0.4928  0.2048 -0.7035
 1499HK4    C1725893   4.902   0.806   0.110  0.3783  0.0728 -0.2692
 1499HK4     H825894   4.882   0.703   0.082  2.2440 -1.1866  2.8012
 1499HK4     N125895   4.658   0.871   0.110  0.5262  0.0337  0.0364
 1499HK4    C2125896   4.598   0.989   0.159 -0.3023 -0.1452 -0.5340
 1499HK4    C2225897   4.699   1.088   0.191 -0.3806 -0.1894 -0.1487
 1499HK4    C2625898   4.662   1.206   0.254  0.0774 -0.0480 -0.1497
 1499HK4    H1325899   4.727   1.294   0.246 -0.4099  0.5387  1.8870
 1499HK4    C2525900   4.530   1.223   0.293  0.1487  0.0866  0.0420
 1499HK4    H1225901   4.511   1.317   0.346  0.1551  0.0450  0.1177
 1499HK4    C2425902   4.432   1.131   0.259  0.1107 -0.1501  0.7907
 1499HK4    H1125903   4.330   1.158   0.291  0.3207  1.0951  0.4167
 1499HK4    C2325904   4.464   1.020   0.182 -0.1119  0.6869 -0.5252
 1499HK4    H1025905   4.387   0.957   0.137  0.7991 -0.3309 -0.6900
 1499HK4    C3925906   4.594   0.762   0.050 -0.0372 -0.0478  0.7869
 1499HK4    C4125907   4.465   0.721   0.090 -0.1856 -0.0214  0.3342
 1499HK4    H2125908   4.433   0.753   0.190 -0.6138  2.6531 -0.6193
 1499HK4    C4225909   4.382   0.646   0.007 -0.1310  0.3728 -0.0752
 1499HK4    H2225910   4.291   0.605   0.054  0.8490  1.1293  2.5495
 1499HK4    C4325911   4.429   0.603  11.132  0.3283  0.2425  0.1476
 1499HK4    H2325912   4.363   0.540  11.071  2.0786  0.9335 -2.5354
 1499HK4    C4425913   4.554   0.643  11.087  0.3572 -0.1855 -0.1684
 1499HK4    H2425914   4.587   0.611  10.987  0.3692 -0.6607 -0.0120
 1499HK4    C4525915   4.635   0.720  11.170 -0.7166  0.2810  0.4578
 1499HK4    H2525916   4.726   0.765  11.128  0.2934 -0.5337  1.7228
 1500HK4    H2825917   6.367  10.649   4.034 -0.9344 -2.3696 -2.1169
 1500HK4    C4825918   6.303  10.715   3.976  0.0507  0.1796 -0.3976
 1500HK4    C4725919   6.165  10.695   3.968  0.0683  0.1177 -0.5274
 1500HK4    H2725920   6.118  10.613   4.024  1.4575  1.0220  2.0489
 1500HK4    C4625921   6.097  10.788   3.890 -0.2196  0.5276  0.2096
 1500HK4    H2625922   5.989  10.771   3.880 -0.0176 -0.8328  0.2771
 1500HK4    C4025923   6.154  10.893   3.815  0.1201  0.1073 -0.1275
 1500HK4    C5025924   6.293  10.911   3.825  0.0891  0.1644  0.2134
 1500HK4    H3025925   6.354  10.989   3.776 -1.0630 -0.2403 -1.9281
 1500HK4    C4925926   6.359  10.824   3.911  0.0835  1.0978  1.1604
 1500HK4    H2925927   6.468  10.837   3.924  0.7400 -2.2485 -0.6165
 1500HK4     N225928   6.090  10.942   3.701 -0.0779  0.0636 -0.0346
 1500HK4    C3025929   5.999  10.869   3.621 -0.3816  0.2024  0.1863
 1500HK4    C2925930   5.967  10.735   3.605 -0.6581  0.2738  0.0885
 1500HK4    H1525931   6.017  10.665   3.673  0.7230  0.5156 -0.6453
 1500HK4    C2825932   5.900  10.684   3.494 -0.8651 -0.5255  0.5797
 1500HK4    C2725933   5.841  10.776   3.406 -0.2130 -0.3641  0.3073
 1500HK4    H1425934   5.768  10.738   3.333 -0.1916 -1.6100  0.9199
 1500HK4    C3225935   5.868  10.912   3.419 -0.1449 -0.3647  0.1820
 1500HK4    H1625936   5.818  10.986   3.356  0.0421 -0.5921 -0.2390
 1500HK4    C3125937   5.946  10.962   3.522 -0.5494  0.1609  0.2376
 1500HK4    C3425938   6.010  11.091   3.538 -0.2587  0.0380  0.0381
 1500HK4    C3325939   6.098  11.074   3.653 -0.1688  0.0746 -0.0249
 1500HK4    C3525940   6.168  11.184   3.700 -0.0915 -0.1419  0.3670
 1500HK4    H1725941   6.217  11.180   3.797  1.9639  1.9276 -0.5174
 1500HK4    C3625942   6.159   0.059   3.636 -0.0363 -0.0773  0.4825
 1500HK4    H1825943   6.212   0.145   3.679  1.4923 -0.8815  0.2423
 1500HK4    C3725944   6.065   0.079   3.534 -0.0736 -0.2786  0.4773
 1500HK4    H1925945   6.039   0.181   3.507  2.6075  0.5684  0.8605
 1500HK4    C3825946   5.998  11.217   3.482 -0.0466 -0.0085 -0.1209
 1500HK4    H2025947   5.971  11.214   3.376  1.5658 -2.5551 -0.4900
 1500HK4    C1425948   5.931  10.548   3.449  0.1470 -0.1275  0.0486
 1500HK4     C925949   5.940  10.501   3.318 -0.5955  0.1837 -0.1159
 1500HK4     C825950   5.907  10.365   3.298  0.1298  0.0345 -0.3252
 1500HK4    C1125951   5.893  10.277   3.404  0.2143  0.1443 -0.2203
 1500HK4     H425952   5.873  10.170   3.388  0.0147 -0.3295  2.8572
 1500HK4    C1225953   5.904  10.317   3.537 -0.4350  0.0432 -0.1314
 1500HK4     H525954   5.919  10.245   3.619  0.8961  0.0987 -0.3026
 1500HK4    C1325955   5.918  10.454   3.554 -0.3623  0.0052  0.1092
 1500HK4     H625956   5.935  10.482   3.659 -0.8098  0.1744  0.1362
 1500HK4     C725957   5.876  10.319   3.160  0.0565  0.1764 -0.3563
 1500HK4     O225958   5.804  10.221   3.140 -0.4810  0.5172 -0.1219
 1500HK4     C425959   5.917  10.411   3.052 -0.7196  0.5368 -0.3492
 1500HK4     C325960   5.879  10.379   2.922 -1.0731  0.6165 -0.2661
 1500HK4     H325961   5.799  10.305   2.910 -0.7477 -0.0570  1.5390
 1500HK4     C225962   5.939  10.441   2.813 -0.0186  0.1878  0.0572
 1500HK4     H225963   5.911  10.422   2.708 -0.9070  0.7564  0.1872
 1500HK4     C125964   6.044  10.531   2.832 -0.2156  0.3641  0.3282
 1500HK4     H125965   6.085  10.587   2.747 -0.4301  1.5895  1.0239
 1500HK4     C625966   6.085  10.569   2.961  0.0209  0.1592  0.3124
 1500HK4     C525967   6.016  10.511   3.068 -0.5874  0.3469  0.0223
 1500HK4    C1025968   6.011  10.568   3.205  0.0125  0.0347  0.1777
 1500HK4     O125969   6.055  10.681   3.223  0.2736  0.0796 -0.7156
 1500HK4    C1625970   6.192  10.669   2.975  0.4589 -0.2261 -0.2299
 1500HK4    C1525971   6.216  10.773   2.882 -0.0920  0.0127 -0.1117
 1500HK4     H725972   6.149  10.784   2.795 -1.6983  0.0658  1.1193
 1500HK4    C2025973   6.329  10.853   2.893 -0.4254  0.4659 -0.0369
 1500HK4     H925974   6.372  10.900   2.804  0.9555  1.8443  1.3234
 1500HK4    C1925975   6.411  10.847   3.005  0.1504 -0.5130 -0.5107
 1500HK4    C1825976   6.395  10.737   3.098  0.1511  0.1014  0.2224
 1500HK4    C1725977   6.290  10.649   3.071  0.4002 -0.0893 -0.1418
 1500HK4     H825978   6.301  10.555   3.124 -2.8804  0.1425  1.0891
 1500HK4     N125979   6.496  10.731   3.195  0.5310 -0.4905 -0.2068
 1500HK4    C2125980   6.570  10.848   3.170 -0.1205 -0.1215 -0.4095
 1500HK4    C2225981   6.520  10.926   3.058 -0.4905  0.0995 -0.0922
 1500HK4    C2625982   6.587  11.044   3.032  0.0371 -0.1738  0.0238
 1500HK4    H1325983   6.564  11.108   2.947 -0.9238 -0.3805  0.1321
 1500HK4    C2525984   6.700  11.084   3.104 -0.2621  0.1918  0.2962
 1500HK4    H1225985   6.731  11.188   3.097 -0.1112 -0.0053 -2.6012
 1500HK4    C2425986   6.749  11.003   3.206 -0.0478 -0.1466 -0.0697
 1500HK4    H1125987   6.824  11.048   3.272 -2.3166 -1.7004  3.7289
 1500HK4    C2325988   6.687  10.883   3.237 -0.4591  0.0995  0.0680
 1500HK4    H1025989   6.714  10.829   3.328  0.1869  3.5465  2.0381
 1500HK4    C3925990   6.473  10.667   3.318 -0.2324 -0.0599 -0.1266
 1500HK4    C4125991   6.579  10.613   3.392 -0.3927 -0.1693  0.0235
 1500HK4    H2125992   6.678  10.601   3.346  0.7338  2.0896  1.7491
 1500HK4    C4225993   6.568  10.583   3.528  0.3317 -0.1781  0.0849
 1500HK4    H2225994   6.650  10.541   3.588 -0.1349 -1.0099  0.1528
 1500HK4    C4325995   6.444  10.605   3.588  0.3153  0.4611 -0.1781
 1500HK4    H2325996   6.442  10.590   3.696 -0.8740  0.0241 -0.2596
 1500HK4    C4425997   6.337  10.661   3.520  0.0494 -0.1435 -0.2553
 1500HK4    H2425998   6.236  10.664   3.565 -0.1629  2.4347 -0.8246
 1500HK4    C4525999   6.352  10.694   3.386 -0.3003 -0.0148 -0.2647
 1500HK4    H2526000   6.268  10.754   3.347  0.2399  1.6457  1.0517
 1501HK4    H2826001   1.348   5.860   1.174  0.4376 -1.2091 -1.3751
 1501HK4    C4826002   1.266   5.808   1.222  0.3551 -0.5339 -0.7797
 1501HK4    C4726003   1.277   5.673   1.252  0.0465 -0.4350 -0.2195
 1501HK4    H2726004   1.368   5.619   1.222  1.4877  1.9436 -0.2043
 1501HK4    C4626005   1.172   5.597   1.303  0.1830 -0.3084  0.2569
 1501HK4    H2626006   1.182   5.488   1.291  2.4057  0.0640 -1.5880
 1501HK4    C4026007   1.048   5.657   1.335  0.3343 -0.0294  0.3210
 1501HK4    C5026008   1.042   5.792   1.297  0.2437 -0.1711 -0.1746
 1501HK4    H3026009   0.954   5.853   1.323 -0.0137 -0.5871 -0.0646
 1501HK4    C4926010   1.143   5.870   1.240  0.7401 -0.1649  0.6956
 1501HK4    H2926011   1.116   5.962   1.187  1.2001 -0.4364 -0.0131
 1501HK4     N226012   0.955   5.607   1.427 -0.3303  0.3402 -0.1460
 1501HK4    C3026013   0.815   5.620   1.422 -0.4217 -0.5371  0.0496
 1501HK4    C2926014   0.727   5.675   1.329  0.2031  0.2521 -0.0777
 1501HK4    H1526015   0.769   5.725   1.242 -3.3916  2.2864 -0.7318
 1501HK4    C2826016   0.588   5.673   1.338  0.2128  0.2650  0.0826
 1501HK4    C2726017   0.538   5.620   1.458 -0.0678  0.3590  0.0056
 1501HK4    H1426018   0.432   5.597   1.478 -0.1154 -0.9224 -1.6055
 1501HK4    C3226019   0.621   5.566   1.555 -0.2556 -0.2182 -0.1487
 1501HK4    H1626020   0.571   5.503   1.628 -0.7957 -1.7073 -1.7993
 1501HK4    C3126021   0.759   5.560   1.542 -0.1761  0.1092  0.4869
 1501HK4    C3426022   0.867   5.502   1.620  0.0689  0.2409  0.2489
 1501HK4    C3326023   0.986   5.539   1.546 -0.2229  0.2840 -0.2056
 1501HK4    C3526024   1.106   5.521   1.615 -0.6724  0.4501  0.6271
 1501HK4    H1726025   1.192   5.555   1.557 -0.1650  1.9097  2.1935
 1501HK4    C3626026   1.114   5.468   1.743  0.2237 -0.0914  0.3488
 1501HK4    H1826027   1.209   5.480   1.797  0.2574  3.0475 -0.3068
 1501HK4    C3726028   0.999   5.422   1.806 -0.0162  0.5847  0.4043
 1501HK4    H1926029   1.005   5.339   1.877 -0.0081  0.8530  0.7192
 1501HK4    C3826030   0.875   5.447   1.747 -0.0149  0.2254  0.2481
 1501HK4    H2026031   0.784   5.456   1.806 -2.1407 -0.4105 -2.8196
 1501HK4    C1426032   0.495   5.717   1.234  0.2074 -0.1342 -0.0858
 1501HK4     C926033   0.360   5.748   1.260  0.1196 -0.3518 -0.2807
 1501HK4     C826034   0.261   5.700   1.172 -0.2884  0.9528 -0.5425
 1501HK4    C1126035   0.304   5.647   1.050 -0.3702 -0.3946  0.0089
 1501HK4     H426036   0.231   5.619   0.973  0.5605 -1.4808 -0.4857
 1501HK4    C1226037   0.439   5.644   1.016 -0.3182 -0.3780  0.2094
 1501HK4     H526038   0.465   5.583   0.928  1.9679 -1.0662  1.3285
 1501HK4    C1326039   0.539   5.678   1.106 -0.0579 -0.0092 -0.2178
 1501HK4     H626040   0.642   5.646   1.083  0.4843  1.3887  0.2010
 1501HK4     C726041   0.123   5.684   1.222  0.1609 -0.3664  0.2894
 1501HK4     O226042   0.035   5.647   1.145  0.1516  0.2535  0.0018
 1501HK4     C426043   0.086   5.741   1.354 -0.1306  0.0746  0.0177
 1501HK4     C326044  11.204   5.725   1.400  0.0945 -0.4024  0.4973
 1501HK4     H326045  11.128   5.672   1.341 -0.4967 -2.0903  2.7201
 1501HK4     C226046  11.164   5.765   1.527 -0.1367  0.1441  0.2540
 1501HK4     H226047  11.059   5.757   1.558 -0.3178 -1.8208 -0.7508
 1501HK4     C126048   0.014   5.815   1.611  0.5677 -0.1326 -0.3959
 1501HK4     H126049  11.231   5.829   1.716  1.2642  0.5167 -0.2744
 1501HK4     C626050   0.145   5.840   1.566  0.5650  0.3357 -0.1513
 1501HK4     C526051   0.181   5.807   1.434  0.0583  0.1137 -0.2357
 1501HK4    C1026052   0.322   5.818   1.386  0.1872 -0.7106 -0.0597
 1501HK4     O126053   0.388   5.919   1.409 -0.1989 -0.4508 -0.0804
 1501HK4    C1626054   0.220   5.917   1.666  0.1714 -0.3400  0.6575
 1501HK4    C1526055   0.163   5.997   1.767 -0.4186  0.0032  0.0541
 1501HK4     H726056   0.068   6.051   1.753 -0.4930 -0.1508 -0.0378
 1501HK4    C2026057   0.228   6.022   1.888 -0.2704 -0.0332 -0.0180
 1501HK4     H926058   0.170   6.063   1.971  1.0467  2.7829 -0.4034
 1501HK4    C1926059   0.355   5.969   1.903 -0.0762  0.3433 -0.3086
 1501HK4    C1826060   0.424   5.895   1.799  0.0642 -0.4936  0.3709
 1501HK4    C1726061   0.349   5.869   1.685  0.3981  0.0316  0.0298
 1501HK4     H826062   0.384   5.791   1.617 -0.4658 -0.9303  0.6866
 1501HK4     N126063   0.562   5.882   1.827  0.1593  0.2077  0.2340
 1501HK4    C2126064   0.575   5.922   1.962 -0.8968 -0.2980  0.4898
 1501HK4    C2226065   0.455   5.992   2.005 -0.7963 -0.1435  0.5170
 1501HK4    C2626066   0.445   6.030   2.138  0.1485  0.5411  0.3982
 1501HK4    H1326067   0.362   6.095   2.164 -0.8748  0.2771 -2.1430
 1501HK4    C2526068   0.544   5.998   2.231  0.6297  0.9428  0.0299
 1501HK4    H1226069   0.552   6.048   2.328  1.6264  1.1241 -0.1439
 1501HK4    C2426070   0.653   5.921   2.192 -0.2282 -0.4535  0.3164
 1501HK4    H1126071   0.733   5.900   2.264  3.0641  1.9382 -2.4708
 1501HK4    C2326072   0.669   5.887   2.058 -0.2371  0.3780  0.0969
 1501HK4    H1026073   0.734   5.801   2.045  0.3370  0.5443  1.7037
 1501HK4    C3926074   0.655   5.902   1.724  0.1647 -0.1962  0.1615
 1501HK4    C4126075   0.783   5.849   1.749  0.0034 -0.3216  0.7494
 1501HK4    H2126076   0.796   5.775   1.829  1.6550  1.6589  2.3720
 1501HK4    C4226077   0.888   5.886   1.666 -0.1495 -0.7961  0.3360
 1501HK4    H2226078   0.990   5.851   1.689  1.7883  2.9130 -2.1027
 1501HK4    C4326079   0.863   5.958   1.550 -0.3064 -0.7151  0.4197
 1501HK4    H2326080   0.953   5.984   1.494 -1.2440  0.1068 -0.7226
 1501HK4    C4426081   0.736   6.009   1.525  0.1513  0.5200  0.5632
 1501HK4    H2426082   0.707   6.041   1.425  0.3100  2.4172  1.1123
 1501HK4    C4526083   0.632   5.988   1.615 -0.0110 -0.1637  0.2235
 1501HK4    H2526084   0.542   6.051   1.607 -0.7669 -0.9514  2.2265
  11.24798  11.24798  11.24798
